FOO
138240
    1MOL0     O    1  10.027   0.352   6.884 -0.3913 -0.2635 -0.2167
    1MOL0     C    2   9.913   0.373   6.838 -0.1195 -0.4257  0.2270
    1MOL0     O    3   9.810   0.287   6.837 -0.2080 -0.6853 -0.1313
    1MOL0     C    4   9.811   0.169   6.891  0.5627  0.9625  0.2629
    1MOL0     C    5   9.914   0.074   6.907 -0.3051 -0.1679  0.2832
    1MOL0     C    6   9.906  -0.051   6.959 -0.1125 -1.1226  0.0105
    1MOL0     C    7   9.789  -0.090   7.003  0.8482  0.3505 -0.6564
    1MOL0     O    8   9.773  -0.211   7.063  0.1827 -1.0240  0.2926
    1MOL0     C    9   9.651  -0.285   7.027 -0.3943  0.7168 -0.6116
    1MOL0     C   10   9.547  -0.288   7.143 -0.3238  0.8693 -0.3833
    1MOL0     C   11   9.556  -0.420   7.220  0.0632 -0.2432  0.1207
    1MOL0     C   12   9.681  -0.423   7.302  0.2905 -1.0355 -0.3565
    1MOL0     C   13   9.682  -0.518   7.429 -0.0492 -0.3509 -0.7448
    1MOL0     C   14   9.820  -0.503   7.505 -0.0555 -1.0366  0.2140
    1MOL0     C   15   9.821  -0.609   7.615  0.8258  0.1255  0.2557
    1MOL0     C   16   9.757  -0.561   7.750 -0.4709  0.8468 -0.2276
    1MOL0     N   17   9.722  -0.678   7.837  0.7888 -0.4613 -0.6612
    1MOL0     C   18   9.606  -0.740   7.839  0.5396  0.2431 -0.2641
    1MOL0     C   19   9.620  -0.853   7.902 -0.0098 -0.7244 -0.7671
    1MOL0     C   20   9.506  -0.939   7.941  0.1975 -0.2264 -0.4448
    1MOL0     C   21   9.419  -0.854   8.044 -0.4408  0.3765  0.7513
    1MOL0     C   22   9.297  -0.928   8.087 -0.2319 -0.4068 -0.4599
    1MOL0     C   23   9.334  -1.059   8.147  0.6334  0.0243  0.1432
    1MOL0     O   24   9.217  -1.104   8.216  0.6607  0.2334 -0.0291
    1MOL0     C   25   9.111  -1.137   8.144  1.7033  0.2889 -0.1449
    1MOL0     C   26   9.102  -1.249   8.062  0.4665  0.1289 -0.6460
    1MOL0     C   27   8.978  -1.280   7.995 -1.0115 -1.1836  0.1261
    1MOL0     C   28   8.868  -1.191   8.020 -0.4355 -0.1437  0.5363
    1MOL0     C   29   8.746  -1.212   7.949  0.2657 -0.1179 -0.7180
    1MOL0     O   30   8.652  -1.109   7.940  0.2897 -0.2831  0.1488
    1MOL0     C   31   8.536  -1.126   7.880 -0.0404 -0.1228 -0.7194
    1MOL0     C   32   8.481  -1.011   7.816 -0.0723  0.6540 -0.6180
    1MOL0     C   33   8.346  -1.015   7.773 -0.3036 -0.4604  0.9796
    1MOL0     C   34   8.277  -1.137   7.778  0.3570  0.3129 -0.5568
    1MOL0     O   35   8.160  -1.152   7.703 -0.4292  0.3934 -0.6306
    1MOL0     C   36   8.166  -1.242   7.589  0.0379  0.3216  0.5754
    1MOL0     C   37   8.041  -1.315   7.538  0.0295  0.4054 -0.2033
    1MOL0     C   38   7.984  -1.415   7.647 -0.0314  0.1065  0.1096
    1MOL0     C   39   7.837  -1.434   7.612 -0.0100  0.7847 -0.7396
    1MOL0     C   40   7.751  -1.533   7.704  0.3079 -0.2886 -0.3666
    1MOL0     C   41   7.604  -1.532   7.663 -0.0065 -0.5024 -0.6953
    1MOL0     C   42   7.547  -1.400   7.688  0.5588 -0.4536  0.6358
    1MOL0     C   43   7.575  -1.323   7.816 -0.2163  0.2683  0.4527
    1MOL0    Cl   44   7.496  -1.402   7.956 -0.2602  0.1584 -0.3833
    1MOL0     C   45   8.333  -1.244   7.836 -0.1675 -0.1355 -0.3926
    1MOL0     C   46   8.457  -1.234   7.895 -0.0542 -0.7345 -0.7017
    1MOL0     O   47   8.739  -1.323   7.899  0.3863 -0.1672  0.2131
    1MOL0     C   48   8.875  -1.085   8.112 -0.1447  0.1589  0.6925
    1MOL0     C   49   8.990  -1.071   8.178 -0.2279  0.6622  0.1778
    1MOL0     N   50   9.750  -0.863   7.928 -0.4491 -0.3952  0.3838
    1MOL0     N   51   9.815  -0.759   7.891 -0.9428 -0.5788 -0.2697
    1MOL0     C   52   9.675   0.001   7.001  0.2966  0.0408 -0.7073
    1MOL0     C   53   9.693   0.130   6.946 -0.3636 -0.5864 -1.3318
    1MOL0     C   54   9.876   0.498   6.765 -1.0235  0.5142  1.0585
    1MOL0     C   55   9.743   0.528   6.725 -0.3888  0.8041 -0.4659
    1MOL0     C   56   9.712   0.633   6.636  0.1587  0.3474  0.5612
    1MOL0     C   57   9.806   0.727   6.612  0.0840 -0.5501  0.1677
    1MOL0     O   58   9.782   0.827   6.528 -0.2262 -0.3464  0.1112
    1MOL0     C   59   9.691   0.931   6.564 -0.6061  0.0146 -0.7243
    1MOL0     C   60   9.596   0.936   6.441  1.4881  0.5342 -0.6505
    1MOL0     C   61   9.675   0.995   6.324 -0.2452  0.3054 -0.7150
    1MOL0     C   62   9.711   1.147   6.340 -0.6201  0.2546 -0.0272
    1MOL0     C   63   9.716   1.205   6.213 -0.5640 -0.8292 -0.1335
    1MOL0     C   64   9.720   1.245   6.096  1.0844  0.2675  0.6061
    1MOL0     C   65   9.940   0.708   6.662 -0.4631  0.1442  0.0806
    1MOL0     C   66   9.977   0.591   6.731 -0.0914 -0.5444  0.1979
    1MOL0     C   67  10.126   0.588   6.784  0.4030 -0.0861  1.0484
    1MOL0     H   68  10.012   0.110   6.875 -1.3037  1.0003 -1.6815
    1MOL0     H   69   9.996  -0.110   6.976 -0.6656 -1.3617  2.3911
    1MOL0     H   70   9.599  -0.231   6.948  1.3519  1.2863 -1.4237
    1MOL0     H   71   9.692  -0.383   6.999  3.2573  2.5117 -2.2961
    1MOL0     H   72   9.444  -0.295   7.110 -1.2855  0.4840  2.4256
    1MOL0     H   73   9.556  -0.196   7.202 -2.4252 -0.1402  1.6494
    1MOL0     H   74   9.580  -0.508   7.161  2.5697 -0.6943  1.6339
    1MOL0     H   75   9.465  -0.441   7.276 -1.1060  1.9186 -0.8418
    1MOL0     H   76   9.751  -0.441   7.220 -2.8697 -2.1643 -3.0635
    1MOL0     H   77   9.701  -0.326   7.347  2.3226 -2.2112  1.4769
    1MOL0     H   78   9.594  -0.509   7.493  1.9733  1.9096  2.0267
    1MOL0     H   79   9.674  -0.618   7.385  2.1733 -0.7287 -0.4229
    1MOL0     H   80   9.903  -0.513   7.434  0.3940  2.1001  0.1365
    1MOL0     H   81   9.819  -0.405   7.553 -3.2454 -0.2028 -1.2808
    1MOL0     H   82   9.918  -0.654   7.638 -0.3673 -1.8042  1.8199
    1MOL0     H   83   9.753  -0.689   7.586 -2.0716  1.9537  1.6099
    1MOL0     H   84   9.831  -0.499   7.801  1.6271 -0.4820 -1.5217
    1MOL0     H   85   9.669  -0.499   7.727 -0.3994  0.5570 -1.3371
    1MOL0     H   86   9.508  -0.708   7.804  0.0092 -1.1487 -0.1267
    1MOL0     H   87   9.437  -0.962   7.858 -1.6499  0.9872  0.7027
    1MOL0     H   88   9.533  -1.040   7.975  0.1892  0.4848  1.7647
    1MOL0     H   89   9.478  -0.822   8.130  0.4411  0.3703  0.1620
    1MOL0     H   90   9.381  -0.769   7.987  0.0065 -0.7068 -1.2927
    1MOL0     H   91   9.248  -0.948   7.991  1.7516  0.0317 -1.6175
    1MOL0     H   92   9.241  -0.865   8.156 -1.6687 -2.5759  0.4471
    1MOL0     H   93   9.413  -1.036   8.220 -0.9998 -1.1185  2.3916
    1MOL0     H   94   9.354  -1.132   8.069  3.0204  1.9476 -1.2067
    1MOL0     H   95   9.184  -1.319   8.071  0.6352  0.6228  2.6745
    1MOL0     H   96   8.973  -1.367   7.932  0.0221 -0.0343 -1.6395
    1MOL0     H   97   8.534  -0.917   7.801  0.9408 -0.0355 -1.4728
    1MOL0     H   98   8.309  -0.926   7.723  1.2208  0.4403  1.4049
    1MOL0     H   99   8.220  -1.201   7.504 -1.2972  1.5989  0.2988
    1MOL0     H  100   8.234  -1.322   7.620  1.4584  1.6959  1.0893
    1MOL0     H  101   7.964  -1.239   7.520 -0.3959  0.5211  1.8056
    1MOL0     H  102   8.070  -1.363   7.445 -0.1197  2.1998 -1.2202
    1MOL0     H  103   8.030  -1.512   7.665  0.0935  0.4770  1.9105
    1MOL0     H  104   7.998  -1.380   7.749  2.0272 -2.7231  0.8903
    1MOL0     H  105   7.837  -1.468   7.508  2.0734 -1.9029  0.0364
    1MOL0     H  106   7.793  -1.335   7.622 -0.3452  0.5811 -0.1697
    1MOL0     H  107   7.760  -1.516   7.811 -1.4354 -2.7011  0.2551
    1MOL0     H  108   7.779  -1.637   7.686  0.6895 -0.1789 -0.4246
    1MOL0     H  109   7.600  -1.559   7.557  3.9827  2.5721 -1.8735
    1MOL0     H  110   7.545  -1.605   7.719 -0.8667  1.3388  0.9526
    1MOL0     H  111   7.439  -1.417   7.690  0.3866  0.2842 -0.8369
    1MOL0     H  112   7.569  -1.334   7.603  5.0891 -3.1155 -0.5755
    1MOL0     H  113   7.684  -1.327   7.828 -0.2719 -2.3730  0.6747
    1MOL0     H  114   7.537  -1.221   7.807 -3.9635 -0.9765  0.5306
    1MOL0     H  115   8.290  -1.343   7.837 -0.2610 -0.1015  0.5535
    1MOL0     H  116   8.490  -1.314   7.961  0.1842 -1.7504 -2.0019
    1MOL0     H  117   8.789  -1.018   8.110 -0.8949 -0.6540 -3.2699
    1MOL0     H  118   9.009  -0.987   8.245  4.2166  0.7170 -0.8478
    1MOL0     H  119   9.579  -0.033   7.038  1.6897 -0.1329  3.2575
    1MOL0     H  120   9.613   0.204   6.948 -1.7789 -2.0699  0.1796
    1MOL0     H  121   9.651   0.473   6.743 -0.6458  1.2082 -0.5386
    1MOL0     H  122   9.614   0.657   6.598 -0.5202 -1.4623  1.0788
    1MOL0     H  123   9.741   1.024   6.594  1.9697 -2.4220  3.5801
    1MOL0     H  124   9.640   0.904   6.656  1.0579 -3.6271 -0.7107
    1MOL0     H  125   9.507   0.996   6.459  0.2892 -1.4759  0.4508
    1MOL0     H  126   9.568   0.834   6.411 -4.6956  1.5792  0.3833
    1MOL0     H  127   9.619   0.997   6.230  2.5176  2.6733 -2.4673
    1MOL0     H  128   9.759   0.930   6.297  0.4073  0.5410  0.6471
    1MOL0     H  129   9.623   1.188   6.389 -1.0735  1.6154 -1.8877
    1MOL0     H  130   9.807   1.144   6.392 -0.0856 -2.6712 -0.9559
    1MOL0     H  131   9.756   1.278   6.000  0.1950 -0.1729  0.1130
    1MOL0     H  132  10.014   0.785   6.646 -1.6381  1.4140  0.5976
    1MOL0     H  133  10.128   0.609   6.892 -0.0949  0.4867  0.9501
    1MOL0     H  134  10.175   0.492   6.765 -0.8501 -0.2166 -2.1291
    1MOL0     H  135  10.182   0.664   6.728 -1.3347  1.7539  1.6755
    2MOL0     O  136   9.866  11.375   9.576 -0.6259  0.3117 -0.6039
    2MOL0     C  137   9.779  11.417   9.501  0.4771  0.1389  0.1861
    2MOL0     O  138   9.700  11.533   9.523 -0.4395  0.2146  0.5693
    2MOL0     C  139   9.714  11.597   9.641 -0.1218  0.0947  0.2024
    2MOL0     C  140   9.711  11.537   9.770 -0.0989  0.5510  1.2695
    2MOL0     C  141   9.735  11.609   9.888 -0.5687 -0.1207  0.3569
    2MOL0     C  142   9.764  11.745   9.888  0.3790 -0.3798 -1.0455
    2MOL0     O  143   9.795  11.814  10.008  0.2910 -0.3465  0.4769
    2MOL0     C  144   9.706  11.777  10.115  0.0142 -0.0111 -0.5893
    2MOL0     C  145   9.695  11.891  10.215  0.5069  0.4093  1.0052
    2MOL0     C  146   9.672  12.030  10.154  0.1908  0.2154 -0.4116
    2MOL0     C  147   9.533  12.041  10.084 -0.6140  0.3424  0.8388
    2MOL0     C  148   9.471  12.177  10.046 -0.3497  0.1429 -0.0289
    2MOL0     C  149   9.517  12.239   9.916  0.7979 -0.8104 -0.2089
    2MOL0     C  150   9.433  12.369   9.858 -1.2585 -0.3082 -1.3489
    2MOL0     C  151   9.463  12.382   9.704 -0.7481 -0.1967 -0.1648
    2MOL0     N  152   9.362  12.463   9.634  0.2293 -0.3998 -0.3141
    2MOL0     C  153   9.354  12.473   9.498 -0.7061 -0.1191  0.1025
    2MOL0     C  154   9.289  12.582   9.471 -0.7610  0.6930 -0.5457
    2MOL0     C  155   9.263  12.626   9.325 -0.1448 -0.4507 -0.8452
    2MOL0     C  156   9.208  12.758   9.315 -0.1687 -0.3070 -0.4096
    2MOL0     C  157   9.184  12.789   9.166  0.4911  0.3834  0.3468
    2MOL0     C  158   9.127  12.918   9.130 -0.8444  0.7972 -0.3924
    2MOL0     O  159   8.983  12.935   9.151 -0.6053  0.0499  0.4883
    2MOL0     C  160   8.936  13.050   9.099 -0.3654 -1.0032 -0.1238
    2MOL0     C  161   8.808  13.043   9.026  0.3490  0.2436  0.1284
    2MOL0     C  162   8.762  13.155   8.964 -0.3525 -0.6186  0.2878
    2MOL0     C  163   8.828  13.278   8.981  0.6545  0.4587 -0.5355
    2MOL0     C  164   8.781  13.393   8.903 -0.4311 -0.3241 -0.9716
    2MOL0     O  165   8.649  13.403   8.862 -0.1785  0.3900  0.2727
    2MOL0     C  166   8.618  13.493   8.766  0.4938  0.1893 -0.1503
    2MOL0     C  167   8.546  13.607   8.794 -0.2550 -0.5106  0.4956
    2MOL0     C  168   8.517  13.706   8.696 -0.9404  0.1137 -0.8451
    2MOL0     C  169   8.534  13.674   8.556  1.1394 -0.3262  0.5225
    2MOL0     O  170   8.494  13.758   8.457  0.5296  0.3042 -0.0561
    2MOL0     C  171   8.467  13.699   8.326 -0.5165  0.0260  0.4111
    2MOL0     C  172   8.431  13.800   8.225 -0.3208 -0.2442 -0.0391
    2MOL0     C  173   8.535  13.883   8.154 -0.0205  0.2694  0.8412
    2MOL0     C  174   8.508  13.883   8.003  0.2607 -0.0734  0.0812
    2MOL0     C  175   8.613  13.980   7.932 -0.4017 -0.1886  0.9798
    2MOL0     C  176   8.618  13.968   7.779 -0.3672  0.6864 -1.2629
    2MOL0     C  177   8.486  13.979   7.712  0.0236 -2.1782 -0.2493
    2MOL0     C  178   8.523  14.014   7.562 -0.0284  0.2998 -0.9944
    2MOL0    Cl  179   8.591  14.175   7.539  0.3096  0.2632 -0.1090
    2MOL0     C  180   8.599  13.552   8.531 -0.6068  0.2198  0.2278
    2MOL0     C  181   8.643  13.466   8.629  0.0939  0.2553  0.0720
    2MOL0     O  182   8.872  13.470   8.887  0.1120 -0.1985  0.4556
    2MOL0     C  183   8.945  13.282   9.062  0.0499 -0.0865 -0.0360
    2MOL0     C  184   9.000  13.171   9.119  0.9515  0.3914  0.3108
    2MOL0     N  185   9.252  12.646   9.591 -0.5889  0.7903 -0.0405
    2MOL0     N  186   9.298  12.570   9.687 -0.7732  0.0141 -0.4945
    2MOL0     C  187   9.770  11.801   9.763 -0.7698 -1.1876  0.4304
    2MOL0     C  188   9.747  11.733   9.643  0.5092 -0.5941  0.4168
    2MOL0     C  189   9.772  11.353   9.359  0.0726  0.3257 -0.1659
    2MOL0     C  190   9.865  11.255   9.315 -1.1289 -0.5005  0.4207
    2MOL0     C  191   9.846  11.173   9.201  0.7785 -0.3659 -0.5735
    2MOL0     C  192   9.727  11.192   9.124  0.0309 -0.2665 -0.4824
    2MOL0     O  193   9.726  11.118   9.005 -0.2184 -0.5642  0.2639
    2MOL0     C  194   9.838  11.131   8.911  0.2888 -0.6299 -0.5343
    2MOL0     C  195   9.810  11.052   8.787 -0.8184 -0.2235 -1.3337
    2MOL0     C  196   9.924  11.058   8.680 -0.2983  0.3751 -1.5598
    2MOL0     C  197   9.975  11.200   8.664  0.4549 -0.1878  0.0326
    2MOL0     C  198  10.028  11.209   8.517  0.1699  0.9457 -0.8080
    2MOL0     C  199  10.071  11.205   8.405  0.1273 -0.5416  0.5350
    2MOL0     C  200   9.637  11.295   9.165 -0.6436 -0.2008  0.4803
    2MOL0     C  201   9.658  11.367   9.277  0.6147 -0.0401 -1.0036
    2MOL0     C  202   9.541  11.453   9.316  0.7697  0.3092  1.2028
    2MOL0     H  203   9.701  11.429   9.771 -1.2781  0.5897 -0.6498
    2MOL0     H  204   9.746  11.575   9.990  0.7893  2.1075  1.0414
    2MOL0     H  205   9.609  11.743  10.077 -0.6699 -1.2543  2.0274
    2MOL0     H  206   9.740  11.688  10.168  0.8432 -1.1352 -2.8576
    2MOL0     H  207   9.789  11.909  10.267  1.5956  2.3504 -1.4236
    2MOL0     H  208   9.618  11.860  10.286 -1.5770 -0.0976 -1.3305
    2MOL0     H  209   9.751  12.058  10.083 -0.8881  2.1070 -0.9485
    2MOL0     H  210   9.653  12.101  10.236 -3.0983 -1.5450  0.5071
    2MOL0     H  211   9.539  11.972   9.999  2.0043  1.8092 -0.2944
    2MOL0     H  212   9.464  11.997  10.157 -0.1675  2.1298  2.4136
    2MOL0     H  213   9.363  12.166  10.029 -0.3132  2.4804 -2.7351
    2MOL0     H  214   9.475  12.245  10.131  2.0222 -1.9445  1.6777
    2MOL0     H  215   9.616  12.278   9.941 -0.7815  1.9302  2.3483
    2MOL0     H  216   9.519  12.155   9.845 -1.3808 -0.7565 -0.3874
    2MOL0     H  217   9.439  12.466   9.910  1.8601 -3.2492  4.8375
    2MOL0     H  218   9.333  12.338   9.892 -0.3499 -2.2057 -0.2500
    2MOL0     H  219   9.564  12.424   9.701  0.2119 -2.4184 -1.1864
    2MOL0     H  220   9.471  12.289   9.648  0.0073 -1.5012  1.9743
    2MOL0     H  221   9.396  12.407   9.423 -0.6684 -3.3417  2.7581
    2MOL0     H  222   9.362  12.627   9.279  1.5121 -0.5963  2.3674
    2MOL0     H  223   9.209  12.550   9.267  0.7486 -1.0338 -0.9369
    2MOL0     H  224   9.117  12.760   9.375  0.6289 -0.5975  0.8505
    2MOL0     H  225   9.277  12.830   9.360 -2.3408  0.0667  2.6138
    2MOL0     H  226   9.125  12.707   9.124 -0.2262  2.1177 -2.3431
    2MOL0     H  227   9.279  12.793   9.112  0.8999 -0.6354  0.9554
    2MOL0     H  228   9.151  12.924   9.023  1.3986 -1.5714 -0.1259
    2MOL0     H  229   9.192  12.984   9.189 -0.7370  0.3347  0.0080
    2MOL0     H  230   8.761  12.949   9.003 -0.3154  0.6064 -0.0222
    2MOL0     H  231   8.671  13.140   8.906  0.2552  0.6198 -1.0293
    2MOL0     H  232   8.538  13.631   8.900 -0.4771  2.4374 -0.0962
    2MOL0     H  233   8.476  13.803   8.722 -0.6014 -0.2047  0.9574
    2MOL0     H  234   8.535  13.633   8.271 -0.5760  0.3326 -0.0474
    2MOL0     H  235   8.385  13.633   8.354  0.2227  0.7722  5.1116
    2MOL0     H  236   8.373  13.742   8.152  1.1279  0.4368 -1.8256
    2MOL0     H  237   8.366  13.877   8.270  2.6314  2.3956  0.0408
    2MOL0     H  238   8.523  13.986   8.188  0.4293  0.1513  1.3589
    2MOL0     H  239   8.639  13.856   8.176  0.5126  0.6052 -1.1185
    2MOL0     H  240   8.406  13.915   7.981  0.2905 -0.8790 -1.3941
    2MOL0     H  241   8.529  13.784   7.962 -1.9557 -0.4395 -0.2526
    2MOL0     H  242   8.711  13.958   7.975  0.9565 -0.4747 -2.0543
    2MOL0     H  243   8.587  14.083   7.958  2.9583  0.6558  1.4457
    2MOL0     H  244   8.699  14.035   7.751  5.0709 -5.3147 -2.0939
    2MOL0     H  245   8.665  13.873   7.752  2.6186  1.2551  1.2845
    2MOL0     H  246   8.431  14.066   7.749 -1.2490 -2.5725 -1.1138
    2MOL0     H  247   8.417  13.894   7.717 -1.9206 -0.8487 -2.2287
    2MOL0     H  248   8.587  13.942   7.510  2.3267 -0.5286  2.6561
    2MOL0     H  249   8.424  14.013   7.516 -0.0605 -1.0905 -0.9448
    2MOL0     H  250   8.606  13.504   8.434  2.2530  1.4881 -0.2945
    2MOL0     H  251   8.695  13.373   8.610 -1.8971 -0.7628 -0.5663
    2MOL0     H  252   9.004  13.371   9.080  1.7173 -1.4752  1.9349
    2MOL0     H  253   9.095  13.183   9.171 -0.0410  3.4668  1.6291
    2MOL0     H  254   9.801  11.904   9.748 -0.0868 -1.2731  1.1684
    2MOL0     H  255   9.747  11.766   9.539 -1.2562 -2.9440 -0.4499
    2MOL0     H  256   9.958  11.242   9.369 -1.1916 -3.3266 -0.0203
    2MOL0     H  257   9.922  11.114   9.150  0.0185  0.5914 -2.9970
    2MOL0     H  258   9.924  11.085   8.961 -0.7526 -3.4879 -1.1482
    2MOL0     H  259   9.859  11.231   8.873  0.4950 -1.4814 -2.8244
    2MOL0     H  260   9.725  11.085   8.727  0.7561  1.4604 -2.7798
    2MOL0     H  261   9.803  10.944   8.802 -0.2445 -0.0124  0.7290
    2MOL0     H  262   9.877  11.012   8.593 -2.0896  0.1699 -0.5542
    2MOL0     H  263  10.008  10.992   8.703  0.0264  0.7608 -1.6377
    2MOL0     H  264   9.896  11.274   8.681  2.8385  2.9416 -1.4449
    2MOL0     H  265  10.049  11.235   8.737 -0.1526  2.3049 -0.4409
    2MOL0     H  266  10.104  11.207   8.303 -0.3908  0.6207  0.3750
    2MOL0     H  267   9.548  11.310   9.105  0.5695  2.1119 -0.8763
    2MOL0     H  268   9.460  11.457   9.243  1.0664 -0.0979  0.8478
    2MOL0     H  269   9.507  11.417   9.414 -0.7523 -1.5399  0.0632
    2MOL0     H  270   9.565  11.560   9.323 -1.8598  1.2039 -1.3077
    3MOL0     O  271   1.701   9.801   5.187 -0.3350  0.2124  0.3015
    3MOL0     C  272   1.743   9.846   5.078  0.1837 -0.0098 -0.3758
    3MOL0     O  273   1.676   9.851   4.963  1.1409 -0.2005 -0.0105
    3MOL0     C  274   1.548   9.804   4.972 -0.0817  0.8626  0.1708
    3MOL0     C  275   1.451   9.863   5.053  0.6142 -0.6779 -0.0306
    3MOL0     C  276   1.324   9.802   5.055 -1.0055 -1.2296 -0.4084
    3MOL0     C  277   1.287   9.702   4.972 -0.1347  0.2642  0.1134
    3MOL0     O  278   1.156   9.658   4.957  0.0474 -0.1080 -0.0300
    3MOL0     C  279   1.115   9.522   4.988 -0.0866  0.5304 -0.4719
    3MOL0     C  280   1.072   9.431   4.869 -0.8662 -0.1320 -0.0302
    3MOL0     C  281   1.078   9.282   4.901 -0.2975 -0.1672  0.2405
    3MOL0     C  282   1.118   9.190   4.780  0.8383  0.2419  0.9714
    3MOL0     C  283   1.003   9.159   4.681 -0.6903 -0.3853 -0.5996
    3MOL0     C  284   0.918   9.048   4.747 -0.3646  0.3377  0.5637
    3MOL0     C  285   0.788   9.008   4.677  0.3056 -0.2269  0.3927
    3MOL0     C  286   0.715   8.889   4.735 -0.1240  0.5180 -0.2075
    3MOL0     N  287   0.595   8.862   4.648 -0.3630  0.6282 -0.6813
    3MOL0     C  288   0.467   8.897   4.683 -0.9785  0.4782  0.3731
    3MOL0     C  289   0.393   8.840   4.578 -0.3356  0.3021  0.1513
    3MOL0     C  290   0.244   8.821   4.555  0.5757  0.9521 -0.3012
    3MOL0     C  291   0.199   8.899   4.433  0.3788  0.3905 -0.2150
    3MOL0     C  292   0.199   9.059   4.440 -0.3994 -0.4871 -0.1153
    3MOL0     C  293   0.097   9.116   4.537  0.1783  0.1182 -0.0118
    3MOL0     O  294   0.095   9.074   4.673  0.5973 -0.0662 -1.2364
    3MOL0     C  295  -0.016   9.088   4.758 -0.3259  0.1237 -0.1380
    3MOL0     C  296   0.022   9.046   4.887  1.1031 -1.1688 -0.2496
    3MOL0     C  297  -0.063   9.083   4.987  0.1921  0.3092 -0.0347
    3MOL0     C  298  -0.182   9.150   4.970  1.6681 -0.2468 -0.9332
    3MOL0     C  299  -0.259   9.188   5.085  0.4185 -1.1869  0.2394
    3MOL0     O  300  -0.388   9.215   5.065  0.0081  0.1839 -1.0569
    3MOL0     C  301  -0.460   9.270   5.168  1.2257  0.7454 -0.2446
    3MOL0     C  302  -0.534   9.184   5.259 -0.9735  0.7094 -0.9963
    3MOL0     C  303  -0.588   9.246   5.374  0.2492  0.4582  0.1441
    3MOL0     C  304  -0.582   9.376   5.391 -0.5964 -1.2414  0.4901
    3MOL0     O  305  -0.649   9.437   5.492 -0.5073 -0.4417 -1.0295
    3MOL0     C  306  -0.785   9.454   5.467  0.0363  0.2393  0.0281
    3MOL0     C  307  -0.842   9.537   5.583 -0.2264 -0.5533  0.1894
    3MOL0     C  308  -0.832   9.452   5.708  0.8577  0.6760  0.3564
    3MOL0     C  309  -0.921   9.508   5.815 -0.4124  0.3180  0.9196
    3MOL0     C  310  -0.866   9.639   5.852 -0.5735 -0.4037  0.2173
    3MOL0     C  311  -0.891   9.685   5.992  0.7264 -0.0814 -0.5800
    3MOL0     C  312  -1.033   9.679   6.040  0.4527 -0.3156 -0.3098
    3MOL0     C  313  -1.048   9.658   6.186 -0.0237 -0.4248 -0.5190
    3MOL0    Cl  314  -1.226   9.651   6.230  0.0450  0.4877 -0.2644
    3MOL0     C  315  -0.521   9.468   5.298  0.8923  0.4180  0.4324
    3MOL0     C  316  -0.458   9.415   5.186 -0.4116  0.2837  0.5584
    3MOL0     O  317  -0.201   9.181   5.197  0.4640  0.4808  0.0597
    3MOL0     C  318  -0.221   9.174   4.845 -0.0104 -0.1885 -0.3309
    3MOL0     C  319  -0.140   9.141   4.731  0.6489 -0.3332 -0.1540
    3MOL0     N  320   0.485   8.783   4.490  0.1668  0.0884 -0.6782
    3MOL0     N  321   0.606   8.805   4.530  0.3591 -0.4027 -0.3824
    3MOL0     C  322   1.384   9.642   4.890 -0.5801 -0.0319 -0.8355
    3MOL0     C  323   1.516   9.695   4.892  0.6860  0.5640  0.0240
    3MOL0     C  324   1.885   9.900   5.084  1.0488  0.6162 -0.1988
    3MOL0     C  325   1.990   9.819   5.139  1.2805 -0.0891 -0.3348
    3MOL0     C  326   2.114   9.878   5.153 -0.1538  0.4927  0.1199
    3MOL0     C  327   2.145  10.003   5.084 -0.2487 -0.4001 -0.7558
    3MOL0     O  328   2.272  10.061   5.060  1.2123  0.1476  0.0532
    3MOL0     C  329   2.381   9.966   5.071  0.9413 -0.3820 -0.7734
    3MOL0     C  330   2.379   9.853   4.962 -0.8907 -0.0749 -0.3494
    3MOL0     C  331   2.520   9.791   4.956 -0.4753 -0.0492 -0.2101
    3MOL0     C  332   2.580   9.739   5.090  1.2347 -0.6510 -0.2767
    3MOL0     C  333   2.692   9.646   5.053 -0.4008  0.4849 -0.7444
    3MOL0     C  334   2.786   9.578   5.016  0.1758  0.0702  0.0493
    3MOL0     C  335   2.039  10.074   5.035  1.0066 -0.1872 -0.1314
    3MOL0     C  336   1.917  10.023   5.034  0.2781  0.1771  0.1317
    3MOL0     C  337   1.820  10.118   4.979  0.6007  0.7071  0.3096
    3MOL0     H  338   1.470   9.952   5.113  0.3138 -0.3285 -0.4500
    3MOL0     H  339   1.248   9.844   5.120  0.7269  2.7229 -0.6114
    3MOL0     H  340   1.197   9.483   5.049  1.4982  2.6866 -1.1399
    3MOL0     H  341   1.028   9.519   5.055  0.2248 -1.4735 -0.0728
    3MOL0     H  342   1.150   9.438   4.793 -1.0714 -1.1312 -0.3565
    3MOL0     H  343   0.974   9.467   4.835 -1.7155 -0.7885  1.5865
    3MOL0     H  344   0.975   9.251   4.921 -0.6917  1.0071  0.0729
    3MOL0     H  345   1.152   9.272   4.980  0.6241  2.5687 -0.1722
    3MOL0     H  346   1.201   9.236   4.726  1.2412 -2.5270 -1.0073
    3MOL0     H  347   1.143   9.095   4.828  1.6803 -0.8103 -1.4254
    3MOL0     H  348   0.943   9.244   4.650  1.6299  1.0579 -1.4214
    3MOL0     H  349   1.052   9.144   4.584  0.2888 -0.8610 -0.0471
    3MOL0     H  350   0.976   8.956   4.740  0.9313  1.2363 -1.4862
    3MOL0     H  351   0.899   9.059   4.854 -0.3398 -2.3100  0.8970
    3MOL0     H  352   0.818   8.982   4.575 -1.3809  1.5560 -0.6409
    3MOL0     H  353   0.717   9.091   4.685 -0.9564 -1.2714  0.2296
    3MOL0     H  354   0.781   8.802   4.732  1.4239  1.6751 -1.6850
    3MOL0     H  355   0.680   8.918   4.834 -2.2195 -1.0096 -0.4345
    3MOL0     H  356   0.440   8.958   4.769 -1.2026  0.9789 -0.0470
    3MOL0     H  357   0.214   8.718   4.532 -0.2926  1.6080 -2.3600
    3MOL0     H  358   0.186   8.851   4.642  0.7796 -1.7322  0.8674
    3MOL0     H  359   0.270   8.871   4.354  0.6554 -0.6261  0.3759
    3MOL0     H  360   0.097   8.871   4.405 -0.1085  1.1460  0.7644
    3MOL0     H  361   0.173   9.095   4.340 -0.4411  1.9122  0.6751
    3MOL0     H  362   0.301   9.092   4.464 -1.2197  0.6777  2.0867
    3MOL0     H  363   0.008   9.089   4.480  2.1885 -1.2196 -2.7594
    3MOL0     H  364   0.117   9.223   4.544 -2.4810  0.8731 -2.2331
    3MOL0     H  365   0.115   8.997   4.915  0.3307 -3.0925 -0.8623
    3MOL0     H  366  -0.025   9.063   5.086  0.5239 -0.2381 -0.2640
    3MOL0     H  367  -0.549   9.078   5.241  2.3586 -1.4143  5.4732
    3MOL0     H  368  -0.636   9.187   5.452 -0.8894  0.5841 -0.4348
    3MOL0     H  369  -0.793   9.505   5.371  4.9261 -2.3962 -2.1569
    3MOL0     H  370  -0.836   9.357   5.469 -1.1275  0.7771 -1.3431
    3MOL0     H  371  -0.782   9.627   5.597  2.5829 -2.0599 -1.2131
    3MOL0     H  372  -0.942   9.574   5.560  0.8787  0.4961 -3.6369
    3MOL0     H  373  -0.863   9.350   5.685 -0.0292  0.9651  0.2012
    3MOL0     H  374  -0.727   9.443   5.736  1.5277  0.9872 -1.8956
    3MOL0     H  375  -0.896   9.445   5.901 -0.0498 -0.4868  0.2322
    3MOL0     H  376  -1.028   9.495   5.794 -0.3837 -1.6312  1.7665
    3MOL0     H  377  -0.904   9.714   5.781  0.4524 -0.8898 -0.8831
    3MOL0     H  378  -0.759   9.653   5.831 -0.7905  1.2998  0.0945
    3MOL0     H  379  -0.830   9.613   6.048  4.0485  3.9904  1.6041
    3MOL0     H  380  -0.849   9.783   6.018 -1.8920  1.0219 -0.2644
    3MOL0     H  381  -1.094   9.606   5.986  0.2514  1.1177 -2.1068
    3MOL0     H  382  -1.070   9.778   6.013  0.5809 -0.2732 -0.3309
    3MOL0     H  383  -0.998   9.565   6.214 -1.3963 -1.3276 -0.9217
    3MOL0     H  384  -0.994   9.739   6.236  0.0812 -1.8688  1.8595
    3MOL0     H  385  -0.541   9.573   5.314  0.9819  0.2784  1.4817
    3MOL0     H  386  -0.388   9.475   5.129  0.0681 -0.3811  0.4272
    3MOL0     H  387  -0.313   9.229   4.830 -0.7502 -1.5765 -1.0914
    3MOL0     H  388  -0.167   9.179   4.633  0.6082 -1.0320 -0.4236
    3MOL0     H  389   1.336   9.573   4.821 -1.3654 -0.2365 -0.1065
    3MOL0     H  390   1.595   9.660   4.826  1.2694 -3.8045  2.6419
    3MOL0     H  391   1.967   9.724   5.185  3.6280 -0.7216 -0.3744
    3MOL0     H  392   2.191   9.814   5.194 -0.0985  1.3533  1.4214
    3MOL0     H  393   2.402   9.930   5.172  1.9698  0.1248 -0.8001
    3MOL0     H  394   2.471  10.025   5.059  0.4739  1.0779  2.1591
    3MOL0     H  395   2.351   9.890   4.863  0.7627  1.1224 -0.4186
    3MOL0     H  396   2.298   9.781   4.973 -1.0448 -1.2084 -6.1479
    3MOL0     H  397   2.593   9.862   4.915 -1.1966  0.0392 -1.3873
    3MOL0     H  398   2.513   9.708   4.885 -0.5581 -1.5635  1.4977
    3MOL0     H  399   2.617   9.823   5.149 -3.7448  1.8086 -0.1330
    3MOL0     H  400   2.500   9.696   5.150  0.3461  0.5542 -0.5440
    3MOL0     H  401   2.876   9.521   5.018  0.8781  1.1690  0.4579
    3MOL0     H  402   2.055  10.171   4.988  0.1769 -0.5305 -1.1498
    3MOL0     H  403   1.753  10.140   5.062  0.1881  1.5490 -0.2412
    3MOL0     H  404   1.864  10.214   4.952 -1.5763  1.4172 -0.9951
    3MOL0     H  405   1.789  10.083   4.880 -0.6464  0.5237  0.7436
    4MOL0     O  406  10.924   9.950   9.728 -0.4156 -0.7128 -0.1330
    4MOL0     C  407  11.018   9.896   9.669  1.1519  0.0508 -0.7864
    4MOL0     O  408  11.002   9.816   9.556  0.1335 -0.1679  0.2370
    4MOL0     C  409  10.877   9.778   9.518 -0.6344 -0.2724 -1.0602
    4MOL0     C  410  10.842   9.770   9.384 -0.9224  0.1782 -0.9251
    4MOL0     C  411  10.717   9.731   9.345  0.7547 -1.0638  0.1547
    4MOL0     C  412  10.625   9.686   9.444  0.1087  0.3351 -0.5236
    4MOL0     O  413  10.503   9.636   9.406 -0.6576 -0.1543  1.2808
    4MOL0     C  414  10.433   9.685   9.290 -0.5845  0.4868 -0.4280
    4MOL0     C  415  10.286   9.652   9.327 -0.9300  0.4659 -0.1688
    4MOL0     C  416  10.214   9.768   9.386  0.0167  0.0484  0.2600
    4MOL0     C  417  10.061   9.746   9.408 -0.0544  0.5457 -0.1935
    4MOL0     C  418   9.989   9.877   9.470 -1.0210  0.0152  0.5814
    4MOL0     C  419  10.004   9.987   9.375  0.6105 -0.7330 -0.0933
    4MOL0     C  420   9.901  10.110   9.376 -0.0332 -0.2041  0.6285
    4MOL0     C  421   9.951  10.207   9.491  0.1770 -0.1990 -0.3151
    4MOL0     N  422   9.922  10.162   9.633 -0.7077 -0.6210 -0.3280
    4MOL0     C  423   9.803  10.192   9.692  0.2439  0.3743 -0.5411
    4MOL0     C  424   9.812  10.181   9.826  0.2120 -0.3907  0.6062
    4MOL0     C  425   9.696  10.198   9.910  0.2007 -0.5946  0.1327
    4MOL0     C  426   9.630  10.069   9.983 -0.4677 -0.5809  0.3797
    4MOL0     C  427   9.495  10.103  10.045 -0.9840 -0.6260 -0.2589
    4MOL0     C  428   9.498  10.176  10.185 -1.0114  0.7200  0.1500
    4MOL0     O  429   9.595  10.119  10.277  0.3626  0.9005  0.0639
    4MOL0     C  430   9.558  10.028  10.376  0.4670 -0.3634 -0.4155
    4MOL0     C  431   9.443   9.954  10.377  0.7114  0.1116 -0.1217
    4MOL0     C  432   9.428   9.849  10.468 -0.2284  0.4456  0.7581
    4MOL0     C  433   9.525   9.835  10.567  0.1575  0.5933 -0.7694
    4MOL0     C  434   9.533   9.713  10.653  0.5210 -0.9124  0.8353
    4MOL0     O  435   9.651   9.693  10.720  0.2231  0.2572 -0.0562
    4MOL0     C  436   9.652   9.600  10.823  0.0714  0.1671  0.3580
    4MOL0     C  437   9.571   9.630  10.935  0.2022 -0.9156  0.1883
    4MOL0     C  438   9.570   9.539  11.045  1.1098  0.0452 -0.0027
    4MOL0     C  439   9.668   9.437  11.050  0.5562 -0.4138 -0.1775
    4MOL0     O  440   9.692   9.356  11.153  0.0735 -0.1351 -0.8811
    4MOL0     C  441   9.596   9.330  11.259 -0.2759 -0.9170  0.7756
    4MOL0     C  442   9.645   9.249  11.381 -0.1157 -0.2126 -0.2002
    4MOL0     C  443   9.779   9.294  11.453  0.1017 -0.2619 -0.4553
    4MOL0     C  444   9.769   9.378  11.583  0.5493  0.3056  0.6367
    4MOL0     C  445   9.726   9.526  11.562 -0.2794 -0.2150 -0.8651
    4MOL0     C  446   9.841   9.597  11.484  0.5057 -0.5965 -0.6246
    4MOL0     C  447   9.805   9.748  11.453  0.0685  0.1400  1.0134
    4MOL0     C  448   9.685   9.773  11.356  0.0285 -0.3462  0.1173
    4MOL0    Cl  449   9.540   9.776  11.448  0.0023  0.1364  0.3658
    4MOL0     C  450   9.756   9.412  10.945  0.0155  0.2826  0.9138
    4MOL0     C  451   9.742   9.500  10.831 -1.2525  0.5300 -0.0391
    4MOL0     O  452   9.428   9.648  10.662 -0.3565 -0.5973  0.1421
    4MOL0     C  453   9.624   9.924  10.584  1.0478 -1.2082  0.2737
    4MOL0     C  454   9.642  10.021  10.485 -0.3982 -0.9058 -0.6223
    4MOL0     N  455   9.949  10.152   9.847  0.0472 -0.4754 -0.2957
    4MOL0     N  456  10.004  10.134   9.737  0.3224 -0.1035  0.5360
    4MOL0     C  457  10.669   9.670   9.576 -1.2045 -0.0196 -0.0681
    4MOL0     C  458  10.795   9.725   9.613 -0.3003  0.4865  0.6687
    4MOL0     C  459  11.150   9.914   9.725  0.2565 -0.7515 -0.2750
    4MOL0     C  460  11.249   9.979   9.643 -1.4362 -0.4957  0.2572
    4MOL0     C  461  11.379  10.009   9.687  0.1862  0.3185 -0.0977
    4MOL0     C  462  11.411   9.989   9.825  1.1217 -0.0619 -0.2725
    4MOL0     O  463  11.522  10.062   9.882  0.4745  0.0507  0.5665
    4MOL0     C  464  11.529  10.069  10.026  0.3829  1.1424 -0.2836
    4MOL0     C  465  11.601   9.942  10.098  0.0398 -0.8700 -0.0601
    4MOL0     C  466  11.739   9.917  10.035  0.3427  0.8041  1.0907
    4MOL0     C  467  11.776   9.771  10.048 -0.4403  0.0396 -0.1849
    4MOL0     C  468  11.765   9.719  10.188  1.2554  0.3713  0.8996
    4MOL0     C  469  11.759   9.671  10.297 -0.3644 -0.7340  0.8113
    4MOL0     C  470  11.314   9.926   9.912 -0.0097 -0.1107 -0.6029
    4MOL0     C  471  11.186   9.891   9.863  0.4577 -0.3284  0.1389
    4MOL0     C  472  11.093   9.827   9.964  0.4838 -0.2221 -0.1437
    4MOL0     H  473  10.904   9.820   9.310  0.6589  1.0447  0.8943
    4MOL0     H  474  10.692   9.727   9.239 -3.4142 -0.1162  0.9156
    4MOL0     H  475  10.439   9.794   9.287 -1.4374  0.6121  1.4226
    4MOL0     H  476  10.463   9.639   9.195 -1.8880  1.2818 -1.2595
    4MOL0     H  477  10.277   9.562   9.388 -1.4887 -0.1080 -1.0735
    4MOL0     H  478  10.241   9.623   9.232 -0.2420 -1.6054  0.0789
    4MOL0     H  479  10.234   9.848   9.315 -0.6744  0.8230  0.9077
    4MOL0     H  480  10.258   9.824   9.469  2.5997  0.7496 -1.4825
    4MOL0     H  481  10.004   9.711   9.321  1.2425  0.0036 -0.8595
    4MOL0     H  482  10.066   9.662   9.478 -0.4896  1.8540  1.4678
    4MOL0     H  483   9.888   9.850   9.504 -0.9420 -1.2061 -0.1055
    4MOL0     H  484  10.051   9.893   9.559 -1.4479 -2.3989  1.3835
    4MOL0     H  485  10.108  10.020   9.368 -0.2762  1.9019 -3.1773
    4MOL0     H  486   9.991   9.955   9.272  0.3874 -0.0662 -0.2774
    4MOL0     H  487   9.796  10.080   9.383 -0.1874  0.0635 -0.4090
    4MOL0     H  488   9.910  10.158   9.279 -0.5490 -0.0507  0.6536
    4MOL0     H  489  10.056  10.222   9.466 -0.3908  2.1229 -1.5917
    4MOL0     H  490   9.891  10.298   9.478  0.2219 -0.3090 -1.3796
    4MOL0     H  491   9.708  10.208   9.641 -1.1682 -1.7705  1.2426
    4MOL0     H  492   9.719  10.285   9.971 -1.0927  1.0683 -1.6215
    4MOL0     H  493   9.614  10.235   9.848  0.2349  0.3811  0.6434
    4MOL0     H  494   9.604   9.998   9.903  1.2230 -1.1951  0.3244
    4MOL0     H  495   9.694  10.021  10.058  0.3142 -3.0447 -1.6836
    4MOL0     H  496   9.445  10.009  10.072 -0.2180 -0.8663  0.3732
    4MOL0     H  497   9.431  10.149   9.969  1.0242 -0.6227 -2.0474
    4MOL0     H  498   9.396  10.174  10.225 -0.8059 -0.4720  0.6463
    4MOL0     H  499   9.523  10.281  10.166 -1.6129  0.9098  0.3691
    4MOL0     H  500   9.367   9.967  10.301  0.1158  2.2023  0.7405
    4MOL0     H  501   9.343   9.780  10.468  0.7808 -1.0389 -2.6164
    4MOL0     H  502   9.504   9.715  10.945 -1.3082 -2.1384  0.7973
    4MOL0     H  503   9.496   9.553  11.123  1.4449  0.4216  0.2535
    4MOL0     H  504   9.553   9.423  11.299 -1.9204 -1.9009  1.3752
    4MOL0     H  505   9.514   9.272  11.214  2.0577 -2.8988 -1.2039
    4MOL0     H  506   9.568   9.244  11.458  1.9879  0.3085  2.0923
    4MOL0     H  507   9.663   9.151  11.338  0.9116 -1.0801  2.0176
    4MOL0     H  508   9.828   9.199  11.471  2.1553  0.4099 -2.1221
    4MOL0     H  509   9.850   9.344  11.386  1.1887 -1.7347 -0.4480
    4MOL0     H  510   9.854   9.371  11.652 -0.8582 -1.8226  2.2728
    4MOL0     H  511   9.693   9.328  11.643 -0.2263 -3.9170 -3.2988
    4MOL0     H  512   9.719   9.578  11.659 -0.6890 -0.0606 -0.9756
    4MOL0     H  513   9.636   9.532  11.500 -0.1931  1.2177 -0.8962
    4MOL0     H  514   9.933   9.600  11.543 -0.5673  1.5751  1.1093
    4MOL0     H  515   9.855   9.550  11.387  0.0383  1.8724 -1.9724
    4MOL0     H  516   9.890   9.787  11.397 -2.2601 -0.0932 -3.1316
    4MOL0     H  517   9.807   9.802  11.548  1.2163  0.8191  0.6291
    4MOL0     H  518   9.701   9.871  11.309  1.5235 -1.8060 -2.6724
    4MOL0     H  519   9.680   9.704  11.271  1.3331  0.2165 -0.4423
    4MOL0     H  520   9.825   9.330  10.953 -2.0096 -1.3865  2.5245
    4MOL0     H  521   9.823   9.489  10.759 -0.7566 -1.0523  0.7151
    4MOL0     H  522   9.687   9.931  10.672  4.2863  1.2005 -1.9977
    4MOL0     H  523   9.728  10.087  10.494 -1.4324  0.3550  0.3865
    4MOL0     H  524  10.608   9.620   9.651 -0.4286  0.8661  1.1801
    4MOL0     H  525  10.827   9.719   9.716  0.2336  0.2461  0.4922
    4MOL0     H  526  11.208  10.007   9.547 -2.5937 -1.2478  0.5095
    4MOL0     H  527  11.453  10.049   9.618  3.4729 -1.3401  2.1670
    4MOL0     H  528  11.438  10.108  10.072  0.1866  1.7942 -1.2128
    4MOL0     H  529  11.601  10.150  10.042 -0.0990  2.0795 -2.5475
    4MOL0     H  530  11.533   9.857  10.110 -0.6975  0.0684  3.3889
    4MOL0     H  531  11.622   9.970  10.202  0.0400 -1.6393  0.1538
    4MOL0     H  532  11.822   9.972  10.080  0.9111  1.4671 -0.6956
    4MOL0     H  533  11.734   9.954   9.932 -0.1677  0.6404  1.0530
    4MOL0     H  534  11.719   9.709   9.979 -1.7322  2.0761 -0.9880
    4MOL0     H  535  11.879   9.766  10.011 -0.5781 -2.0788 -0.4471
    4MOL0     H  536  11.774   9.651  10.401 -0.9499 -1.6341  0.7308
    4MOL0     H  537  11.333   9.914  10.018  0.9487 -0.4276 -0.7982
    4MOL0     H  538  11.021   9.906   9.988 -0.0186  0.1923 -2.7153
    4MOL0     H  539  11.040   9.743   9.918 -0.9281  1.1657 -1.1683
    4MOL0     H  540  11.142   9.782  10.051 -3.5661  0.5572  2.8244
    5MOL0     O  541   4.622   0.861   5.965 -0.3071  0.0090 -0.1162
    5MOL0     C  542   4.643   0.754   5.907 -0.3571  0.6838  0.1990
    5MOL0     O  543   4.551   0.656   5.881  0.1509  0.6313  0.3968
    5MOL0     C  544   4.420   0.693   5.897 -0.3940  0.0080 -0.0342
    5MOL0     C  545   4.355   0.767   5.801  0.9301 -0.4669 -0.1490
    5MOL0     C  546   4.234   0.822   5.832  0.2828 -0.0937 -0.9715
    5MOL0     C  547   4.168   0.791   5.953  0.2668  0.1351  0.3879
    5MOL0     O  548   4.038   0.840   5.962 -0.5734 -1.3704  0.4467
    5MOL0     C  549   3.939   0.759   6.020  0.3536  0.2634  0.8293
    5MOL0     C  550   3.794   0.798   5.985  0.3781 -0.0178  0.8075
    5MOL0     C  551   3.747   0.938   6.015 -0.2124 -0.2863 -0.3445
    5MOL0     C  552   3.794   1.038   5.917 -0.4027  0.0176 -0.0319
    5MOL0     C  553   3.707   1.166   5.929  0.3713 -0.8805 -0.0545
    5MOL0     C  554   3.797   1.293   5.916 -0.6113  0.1173 -0.5773
    5MOL0     C  555   3.844   1.364   6.044  0.2708  0.2286  0.7823
    5MOL0     C  556   3.906   1.505   6.007  0.9092 -0.3619  0.1670
    5MOL0     N  557   3.814   1.595   5.931  0.1161 -0.5660  0.4926
    5MOL0     C  558   3.811   1.616   5.795 -0.4567 -0.0911  0.3567
    5MOL0     C  559   3.719   1.708   5.771 -0.6455  0.2284 -0.0930
    5MOL0     C  560   3.682   1.775   5.638  0.4682 -1.1004  0.0831
    5MOL0     C  561   3.656   1.672   5.533 -0.0628  0.7922  0.0629
    5MOL0     C  562   3.550   1.567   5.584 -0.3062 -0.6512 -0.0731
    5MOL0     C  563   3.478   1.514   5.457  0.3557 -0.3198  0.5386
    5MOL0     O  564   3.355   1.577   5.426 -0.1599  0.2325 -0.6630
    5MOL0     C  565   3.247   1.506   5.471 -0.1237  0.2265  0.1937
    5MOL0     C  566   3.184   1.569   5.584  0.5453 -0.4728  0.3665
    5MOL0     C  567   3.066   1.516   5.634  0.1485  0.3391 -0.0162
    5MOL0     C  568   3.013   1.398   5.580  0.5725  0.2711 -0.2155
    5MOL0     C  569   2.881   1.346   5.630  0.9865 -0.6621 -1.0516
    5MOL0     O  570   2.820   1.256   5.559 -0.2262  0.2692  0.6074
    5MOL0     C  571   2.693   1.221   5.606 -0.5669  0.0513  0.2348
    5MOL0     C  572   2.678   1.106   5.686  0.0106 -0.6601  0.5937
    5MOL0     C  573   2.545   1.064   5.725 -0.4311  0.6142  0.8834
    5MOL0     C  574   2.435   1.141   5.692  0.7501 -0.0214 -0.0059
    5MOL0     O  575   2.321   1.086   5.755 -0.1294  0.2611  0.3041
    5MOL0     C  576   2.188   1.109   5.693  0.0233 -0.2307 -0.2016
    5MOL0     C  577   2.130   0.986   5.629  0.2482 -0.7360 -0.2702
    5MOL0     C  578   2.100   0.873   5.731  0.6260 -0.3598  0.4559
    5MOL0     C  579   2.035   0.744   5.665  0.8768  0.6266 -0.4851
    5MOL0     C  580   1.888   0.768   5.605 -0.4854 -0.5137 -0.5043
    5MOL0     C  581   1.791   0.650   5.588 -0.4614 -0.8263 -1.2620
    5MOL0     C  582   1.851   0.515   5.528 -0.2791 -1.0447  0.0941
    5MOL0     C  583   1.724   0.441   5.486 -0.6848  0.4172  0.0155
    5MOL0    Cl  584   1.690   0.298   5.589 -0.2052 -0.1967 -0.5162
    5MOL0     C  585   2.446   1.262   5.625 -0.2210  0.1037 -0.0319
    5MOL0     C  586   2.574   1.299   5.582  0.0127 -0.4448  0.0739
    5MOL0     O  587   2.850   1.381   5.748 -0.4662 -0.0456  0.5352
    5MOL0     C  588   3.069   1.347   5.462  0.0338  0.0877 -0.2844
    5MOL0     C  589   3.196   1.389   5.417 -0.4072  0.4765 -0.4232
    5MOL0     N  590   3.671   1.743   5.897  0.1167 -0.0863 -0.1032
    5MOL0     N  591   3.714   1.669   5.992 -0.4813 -0.1589  0.2175
    5MOL0     C  592   4.224   0.697   6.036  0.4562  0.3102  0.1759
    5MOL0     C  593   4.352   0.651   6.011  0.4868 -0.8098 -0.0549
    5MOL0     C  594   4.783   0.718   5.878  0.6376 -0.4177  0.2379
    5MOL0     C  595   4.804   0.585   5.827 -0.2070  0.3115 -0.2414
    5MOL0     C  596   4.940   0.537   5.780  0.2975 -0.4619  0.1401
    5MOL0     C  597   5.050   0.626   5.782  0.4770  0.2556  0.3795
    5MOL0     O  598   5.187   0.609   5.761  0.1487 -0.2674  0.0858
    5MOL0     C  599   5.225   0.484   5.700  0.0366 -0.0252  0.3291
    5MOL0     C  600   5.231   0.375   5.802  0.1852  0.4285  0.0214
    5MOL0     C  601   5.340   0.397   5.909 -0.1080  0.0394  0.6178
    5MOL0     C  602   5.463   0.477   5.884  0.4781 -0.4966 -0.1415
    5MOL0     C  603   5.548   0.408   5.789  0.7278 -0.2401 -0.5390
    5MOL0     C  604   5.605   0.353   5.700 -0.9213 -0.3922  0.2311
    5MOL0     C  605   5.026   0.757   5.830  1.1856  0.0773 -0.4764
    5MOL0     C  606   4.901   0.801   5.877 -0.4389 -0.3454 -0.6669
    5MOL0     C  607   4.911   0.939   5.945  0.8442  0.1233  0.3305
    5MOL0     H  608   4.403   0.779   5.705  1.3544 -4.6561 -0.6213
    5MOL0     H  609   4.187   0.888   5.761  1.3263  1.5099 -0.2152
    5MOL0     H  610   3.938   0.652   5.996 -2.9357 -0.7972  4.6426
    5MOL0     H  611   3.948   0.756   6.129 -1.1386  0.0717  0.9703
    5MOL0     H  612   3.718   0.737   6.035 -1.6203  1.6948  0.0716
    5MOL0     H  613   3.775   0.791   5.877 -0.9058  2.1419  0.8267
    5MOL0     H  614   3.773   0.970   6.116 -3.6890  5.0746 -0.7461
    5MOL0     H  615   3.638   0.924   6.018 -0.1424 -0.7958  2.1237
    5MOL0     H  616   3.901   1.059   5.913 -1.1415  4.9616 -4.5921
    5MOL0     H  617   3.769   1.005   5.816  1.0456  1.3479 -0.8656
    5MOL0     H  618   3.639   1.167   5.844  1.5713  3.8645 -1.2695
    5MOL0     H  619   3.654   1.164   6.024 -1.6503 -1.5688 -1.1427
    5MOL0     H  620   3.885   1.272   5.854 -0.3178  0.6805 -0.3610
    5MOL0     H  621   3.754   1.366   5.847  0.4555 -1.0581 -2.5649
    5MOL0     H  622   3.930   1.309   6.085  0.5493  0.4097  0.4495
    5MOL0     H  623   3.762   1.369   6.116  0.0224 -0.3059  0.5450
    5MOL0     H  624   3.945   1.560   6.093  1.2145  1.1372 -0.9030
    5MOL0     H  625   3.998   1.481   5.953 -0.0164 -3.3221 -0.2883
    5MOL0     H  626   3.887   1.568   5.733  1.3296  1.8867  0.8686
    5MOL0     H  627   3.585   1.823   5.657  1.4832 -0.4271  4.6367
    5MOL0     H  628   3.750   1.857   5.611  1.6774 -1.8604  0.7698
    5MOL0     H  629   3.613   1.723   5.446 -1.1837 -2.7709 -1.7182
    5MOL0     H  630   3.748   1.621   5.504 -1.0756 -1.4643  0.5614
    5MOL0     H  631   3.486   1.621   5.654  0.2141 -1.8288  1.3729
    5MOL0     H  632   3.598   1.489   5.644  0.8028  0.2601  0.2477
    5MOL0     H  633   3.468   1.407   5.478  0.1367  0.0258  2.3363
    5MOL0     H  634   3.536   1.516   5.364 -2.0036  0.5602 -0.9864
    5MOL0     H  635   3.214   1.670   5.612 -0.6879  0.2089 -0.6292
    5MOL0     H  636   3.012   1.573   5.710  1.6415 -0.1577  1.5022
    5MOL0     H  637   2.761   1.042   5.715 -1.5010 -2.4583  1.1798
    5MOL0     H  638   2.550   0.972   5.782  1.6979 -3.0255 -4.2939
    5MOL0     H  639   2.128   1.144   5.778  1.8819  1.8663  0.3552
    5MOL0     H  640   2.181   1.188   5.618 -2.6039  0.5909  0.7990
    5MOL0     H  641   2.041   1.012   5.570  2.1825  1.8046 -2.3119
    5MOL0     H  642   2.209   0.947   5.563  3.3886 -2.7035  4.1643
    5MOL0     H  643   2.197   0.839   5.767  2.0978  1.3794 -1.6530
    5MOL0     H  644   2.039   0.903   5.817  0.1009  0.1694 -0.0901
    5MOL0     H  645   2.027   0.669   5.744 -0.3178 -0.5461 -1.6702
    5MOL0     H  646   2.099   0.709   5.584 -0.4647  0.9576 -1.7429
    5MOL0     H  647   1.913   0.803   5.504  0.6213 -0.0101 -0.0734
    5MOL0     H  648   1.838   0.851   5.654 -0.3361  0.6745 -2.2590
    5MOL0     H  649   1.744   0.636   5.685  0.9555 -1.2074 -0.6027
    5MOL0     H  650   1.709   0.681   5.522 -1.4598 -0.5094  0.0856
    5MOL0     H  651   1.913   0.463   5.602  2.0002  0.8176 -0.3764
    5MOL0     H  652   1.916   0.534   5.442  3.2278 -1.5304  2.4215
    5MOL0     H  653   1.636   0.502   5.505  0.2812  1.4241  1.5435
    5MOL0     H  654   1.734   0.403   5.384 -1.1649  1.8238 -0.5783
    5MOL0     H  655   2.362   1.330   5.612  0.6514  1.2578  0.2268
    5MOL0     H  656   2.596   1.392   5.530  1.0133  1.5654  3.7076
    5MOL0     H  657   3.033   1.261   5.406  1.5115 -1.4443  1.0059
    5MOL0     H  658   3.253   1.339   5.340  1.6359  0.5136  0.9548
    5MOL0     H  659   4.189   0.654   6.129  2.3059  0.7996  1.1630
    5MOL0     H  660   4.407   0.588   6.080 -2.1826 -0.4860  2.5907
    5MOL0     H  661   4.715   0.523   5.824 -1.0554  1.5389 -0.8286
    5MOL0     H  662   4.937   0.429   5.766  0.4147 -0.8210  2.4197
    5MOL0     H  663   5.328   0.499   5.667 -0.3154  1.8670 -0.0218
    5MOL0     H  664   5.167   0.448   5.614  0.9351 -0.4230 -0.1281
    5MOL0     H  665   5.239   0.280   5.748 -0.1964 -0.7974  2.0311
    5MOL0     H  666   5.140   0.356   5.858  1.6557 -1.1389  2.0074
    5MOL0     H  667   5.374   0.299   5.946  0.1707  1.0169  3.1668
    5MOL0     H  668   5.296   0.439   5.999  1.2283  0.9901  0.8574
    5MOL0     H  669   5.438   0.571   5.834  1.7733 -1.0947 -2.0152
    5MOL0     H  670   5.523   0.499   5.973 -0.0798  0.9653 -0.0951
    5MOL0     H  671   5.667   0.302   5.629 -0.8854 -1.0484  0.7283
    5MOL0     H  672   5.113   0.818   5.849  0.3716  2.0786 -2.6129
    5MOL0     H  673   4.881   0.948   6.050 -1.2009 -1.1162 -0.0809
    5MOL0     H  674   5.001   1.000   5.934 -0.0526  1.5002  0.3105
    5MOL0     H  675   4.844   1.012   5.899 -2.5560 -2.4207  0.7707
    6MOL0     O  676   0.440   9.437  11.042 -0.6265 -0.1020 -1.0466
    6MOL0     C  677   0.420   9.385  11.156  0.9862 -0.4467 -0.3014
    6MOL0     O  678   0.385   9.254  11.175 -0.0134  0.1412 -0.0969
    6MOL0     C  679   0.360   9.168  11.065  0.6526 -0.3623 -0.8152
    6MOL0     C  680   0.448   9.162  10.952 -0.1358  0.2241 -0.1177
    6MOL0     C  681   0.425   9.079  10.850 -0.6014 -0.2127  1.5377
    6MOL0     C  682   0.306   9.014  10.840 -0.1187 -0.3129  0.5795
    6MOL0     O  683   0.295   8.945  10.728 -0.1794 -0.5955  0.5145
    6MOL0     C  684   0.181   8.867  10.703 -0.7999 -0.3071 -0.4467
    6MOL0     C  685   0.067   8.954  10.651  0.0325 -0.0895  0.2708
    6MOL0     C  686   0.114   9.053  10.546  0.1558 -0.1017  0.1985
    6MOL0     C  687  -0.001   9.139  10.491 -0.8935 -0.1213  0.8320
    6MOL0     C  688   0.057   9.261  10.411  0.5781  0.2670 -0.3697
    6MOL0     C  689  -0.031   9.260  10.288  0.5373 -0.2541 -0.6159
    6MOL0     C  690  -0.002   9.390  10.212  0.6877  0.7306  0.2449
    6MOL0     C  691  -0.071   9.400  10.078 -0.3678 -0.3144 -0.3786
    6MOL0     N  692  -0.004   9.335   9.974 -0.5685 -0.0101 -0.5694
    6MOL0     C  693   0.124   9.354   9.925 -0.2874 -0.1799 -0.0901
    6MOL0     C  694   0.116   9.311   9.799  0.8574  0.1565  0.2668
    6MOL0     C  695   0.226   9.322   9.691 -0.3624  0.4643 -0.0981
    6MOL0     C  696   0.200   9.431   9.595 -0.3207 -0.6149 -0.0208
    6MOL0     C  697   0.109   9.389   9.485  0.1566 -0.1384 -0.0225
    6MOL0     C  698   0.157   9.281   9.383  0.0662  0.0737 -0.1606
    6MOL0     O  699   0.261   9.342   9.310  0.0661  0.8053  0.1074
    6MOL0     C  700   0.233   9.452   9.234  0.0607 -0.2089 -0.8477
    6MOL0     C  701   0.337   9.544   9.213  0.6987 -0.2506 -0.2781
    6MOL0     C  702   0.319   9.660   9.141 -1.2347  0.3457 -0.4795
    6MOL0     C  703   0.198   9.680   9.086 -0.8145  0.1360  0.7798
    6MOL0     C  704   0.182   9.802   9.011 -0.2897 -0.6862 -0.4398
    6MOL0     O  705   0.090   9.804   8.903  0.1685  1.3234  0.2088
    6MOL0     C  706   0.070   9.924   8.837  0.2480 -0.5006 -0.5167
    6MOL0     C  707   0.039  10.042   8.905 -0.7663 -0.9715  0.8173
    6MOL0     C  708   0.019  10.165   8.837  0.0049 -0.6634 -0.6477
    6MOL0     C  709   0.025  10.159   8.702  0.1950  1.0773  0.9696
    6MOL0     O  710   0.031  10.272   8.625  0.4554 -0.3026  0.4464
    6MOL0     C  711   0.128  10.369   8.663  0.9592 -0.8203 -0.1955
    6MOL0     C  712   0.156  10.471   8.555 -0.5417 -0.3493  0.6486
    6MOL0     C  713   0.214  10.408   8.417  0.1916 -0.1586  0.5682
    6MOL0     C  714   0.249  10.522   8.327  0.2598 -0.5770 -1.0093
    6MOL0     C  715   0.319  10.479   8.195 -0.9073 -0.6039 -0.3111
    6MOL0     C  716   0.209  10.448   8.088 -0.7374  0.6213  0.1859
    6MOL0     C  717   0.258  10.424   7.945  1.3526 -0.1665  0.5122
    6MOL0     C  718   0.143  10.377   7.854 -0.2860 -0.4897 -0.0881
    6MOL0    Cl  719   0.094  10.220   7.905 -0.3400  0.1954  0.1500
    6MOL0     C  720   0.052  10.035   8.623 -1.0635 -0.6505 -0.2731
    6MOL0     C  721   0.079   9.926   8.697  0.9025  0.7332 -0.3807
    6MOL0     O  722   0.244   9.896   9.055 -0.0828 -0.2266  0.4786
    6MOL0     C  723   0.090   9.587   9.088 -0.5269 -0.4694  0.9176
    6MOL0     C  724   0.118   9.472   9.148 -1.1116 -0.1192 -0.7311
    6MOL0     N  725  -0.001   9.238   9.793  0.3953 -0.0228  0.6127
    6MOL0     N  726  -0.077   9.265   9.889  0.2771  0.3581  0.0296
    6MOL0     C  727   0.212   9.014  10.944 -0.9085 -1.0964 -0.0813
    6MOL0     C  728   0.241   9.090  11.056  0.1595 -1.4169 -1.3726
    6MOL0     C  729   0.443   9.478  11.272  0.8196 -0.7012  0.1332
    6MOL0     C  730   0.371   9.452  11.388  0.4409  0.3713  0.1366
    6MOL0     C  731   0.393   9.525  11.501  0.3538  0.3198 -0.5590
    6MOL0     C  732   0.478   9.630  11.501  0.0286  0.4979  0.7899
    6MOL0     O  733   0.489   9.695  11.622 -0.3286 -0.4835 -0.1998
    6MOL0     C  734   0.620   9.735  11.667 -0.1966 -0.7141 -0.0528
    6MOL0     C  735   0.613   9.764  11.814 -0.3718 -0.4205 -0.4359
    6MOL0     C  736   0.521   9.663  11.892 -0.5080 -0.6131  0.2559
    6MOL0     C  737   0.569   9.615  12.027  0.5800 -0.7836  0.7880
    6MOL0     C  738   0.568   9.727  12.114 -1.2268 -0.9161 -0.5100
    6MOL0     C  739   0.585   9.808  12.201 -0.1213 -0.2849 -0.1210
    6MOL0     C  740   0.540   9.669  11.384  0.4229 -0.3251 -1.1049
    6MOL0     C  741   0.525   9.593  11.270  0.9076  0.1207 -0.6393
    6MOL0     C  742   0.621   9.627  11.160 -0.3905 -0.4487 -0.7623
    6MOL0     H  743   0.541   9.217  10.961  0.5900 -1.1844  1.5540
    6MOL0     H  744   0.497   9.079  10.769 -2.7847 -1.0910 -0.5094
    6MOL0     H  745   0.210   8.792  10.629 -0.2250 -2.3205  1.6991
    6MOL0     H  746   0.164   8.808  10.793  0.5650 -2.7242 -1.6736
    6MOL0     H  747   0.027   9.011  10.735 -2.3062 -0.0368 -0.8262
    6MOL0     H  748   0.001   8.882  10.602  2.5935 -3.4011  1.3120
    6MOL0     H  749   0.175   9.010  10.466 -1.9717 -1.8036 -0.6084
    6MOL0     H  750   0.186   9.124  10.588 -0.0865  0.7616 -0.7983
    6MOL0     H  751  -0.075   9.080  10.437 -0.3333  0.7493 -0.9747
    6MOL0     H  752  -0.053   9.173  10.581  1.6285  2.0226  1.6530
    6MOL0     H  753   0.046   9.349  10.475 -2.9473 -0.1408 -0.1996
    6MOL0     H  754   0.162   9.240  10.390  1.4113  1.0268  2.6268
    6MOL0     H  755   0.004   9.179  10.223 -1.0712 -2.2563  0.8700
    6MOL0     H  756  -0.136   9.262  10.319  1.7357  2.9324  4.4642
    6MOL0     H  757   0.104   9.401  10.187  0.0236  0.9842 -2.9463
    6MOL0     H  758  -0.042   9.471  10.275  0.2281  0.5206  0.2312
    6MOL0     H  759  -0.175   9.366  10.086 -0.1328 -1.2982 -1.2324
    6MOL0     H  760  -0.086   9.504  10.050  0.2439 -0.2820 -0.6078
    6MOL0     H  761   0.205   9.421   9.952 -0.5323 -0.5844  1.7731
    6MOL0     H  762   0.317   9.351   9.745  0.3196  0.8809 -1.4423
    6MOL0     H  763   0.249   9.224   9.649 -0.3667  0.3121  0.2439
    6MOL0     H  764   0.153   9.517   9.645 -0.4344 -2.3060  3.0409
    6MOL0     H  765   0.300   9.464   9.565  0.0183 -0.7086  0.9603
    6MOL0     H  766   0.069   9.473   9.427  1.1374 -0.9049 -1.8993
    6MOL0     H  767   0.017   9.339   9.518  0.6891  1.1529  3.8681
    6MOL0     H  768   0.076   9.235   9.325 -0.8076 -0.3362  1.3519
    6MOL0     H  769   0.207   9.195   9.429  0.1512 -1.2980 -2.6166
    6MOL0     H  770   0.430   9.516   9.262  1.6944  2.2646 -0.5550
    6MOL0     H  771   0.400   9.733   9.143  1.4346 -2.3806 -0.8983
    6MOL0     H  772   0.020  10.044   9.012 -1.0191  0.2936  0.7672
    6MOL0     H  773   0.004  10.256   8.894  1.7404  0.6057 -2.1150
    6MOL0     H  774   0.086  10.416   8.752  2.6622 -1.7304  1.1633
    6MOL0     H  775   0.220  10.320   8.697  0.4155  0.4041  3.5051
    6MOL0     H  776   0.061  10.519   8.529 -0.4516 -0.5831 -0.1335
    6MOL0     H  777   0.217  10.553   8.594 -1.1830 -0.0017  0.9458
    6MOL0     H  778   0.306  10.349   8.423 -0.2211 -0.9868 -0.8150
    6MOL0     H  779   0.136  10.343   8.377  2.0142 -0.0341 -3.6764
    6MOL0     H  780   0.312  10.591   8.383 -0.8915  0.0584 -0.4463
    6MOL0     H  781   0.150  10.569   8.318 -0.1021 -0.5005  2.3282
    6MOL0     H  782   0.389  10.395   8.202  0.2210  0.1729 -1.8267
    6MOL0     H  783   0.382  10.562   8.165 -0.0173 -0.9561  0.5498
    6MOL0     H  784   0.161  10.359   8.131 -1.5910 -0.4400 -2.7589
    6MOL0     H  785   0.151  10.540   8.074 -2.8962 -0.8454 -1.1945
    6MOL0     H  786   0.332  10.344   7.937 -0.1191 -1.4673 -0.9832
    6MOL0     H  787   0.298  10.516   7.902 -0.5809  0.0700 -0.9410
    6MOL0     H  788   0.057  10.445   7.854 -1.5010 -1.9634  1.0650
    6MOL0     H  789   0.177  10.366   7.750 -1.5285  2.6666 -0.9591
    6MOL0     H  790   0.066  10.033   8.516 -3.5413 -3.2416 -0.6769
    6MOL0     H  791   0.111   9.838   8.641  3.6490  2.2532 -1.4320
    6MOL0     H  792  -0.004   9.615   9.042 -1.7493  0.6407  3.8488
    6MOL0     H  793   0.040   9.397   9.152 -0.1311 -1.3797 -3.1358
    6MOL0     H  794   0.112   8.974  10.930 -1.3558  0.1814 -0.7673
    6MOL0     H  795   0.178   9.093  11.144 -0.2741 -1.4222 -1.6745
    6MOL0     H  796   0.312   9.361  11.395 -1.4424  1.5671  0.5519
    6MOL0     H  797   0.352   9.484  11.593  0.3041  0.9520 -0.2896
    6MOL0     H  798   0.660   9.828  11.626 -2.5220 -0.1879 -1.2422
    6MOL0     H  799   0.691   9.652  11.653  0.5529 -0.3269  1.2279
    6MOL0     H  800   0.582   9.868  11.829  2.0991  0.3325 -0.0737
    6MOL0     H  801   0.716   9.765  11.849 -0.8512 -0.2026  1.0635
    6MOL0     H  802   0.509   9.574  11.829  0.9682 -1.5770  1.2644
    6MOL0     H  803   0.420   9.703  11.898 -0.0127  0.4053  3.5224
    6MOL0     H  804   0.503   9.542  12.074 -1.6587  1.9797  2.2467
    6MOL0     H  805   0.666   9.564  12.023  0.6605 -0.5390 -1.0333
    6MOL0     H  806   0.611   9.882  12.275 -3.2749 -0.6349  1.4940
    6MOL0     H  807   0.586   9.766  11.373  1.4937 -0.0995  3.3823
    6MOL0     H  808   0.716   9.662  11.202  0.4755 -0.4758 -2.6089
    6MOL0     H  809   0.642   9.540  11.097  2.3267 -0.4242 -0.0320
    6MOL0     H  810   0.575   9.712  11.108 -1.2780 -0.2307  0.3537
    7MOL0     O  811  10.578   8.144   5.028 -0.5787 -0.2292 -0.1889
    7MOL0     C  812  10.684   8.190   4.979  0.6187  0.0162 -0.6757
    7MOL0     O  813  10.689   8.310   4.923 -0.0992 -0.1938 -0.5098
    7MOL0     C  814  10.586   8.402   4.940 -0.6883  0.6025  0.0582
    7MOL0     C  815  10.604   8.492   5.041 -1.3795  0.6022 -0.0961
    7MOL0     C  816  10.513   8.585   5.074  0.0992 -0.9600  0.2037
    7MOL0     C  817  10.399   8.602   4.989 -0.5337  0.2127 -0.1362
    7MOL0     O  818  10.312   8.696   5.031 -0.6758  0.4017 -0.2686
    7MOL0     C  819  10.309   8.811   4.949 -0.4851 -0.2295 -0.2203
    7MOL0     C  820  10.187   8.903   4.999 -0.2295 -0.2120  0.4781
    7MOL0     C  821  10.122   8.999   4.901 -0.0889 -0.5901  0.1433
    7MOL0     C  822  10.200   9.114   4.842  0.0851  0.2161 -0.6605
    7MOL0     C  823  10.097   9.207   4.777 -0.1507  0.2228  0.6622
    7MOL0     C  824  10.050   9.162   4.634 -0.7106 -0.0745  0.2416
    7MOL0     C  825   9.983   9.281   4.560  0.7229 -0.2579 -0.5946
    7MOL0     C  826  10.071   9.337   4.449  0.4028 -0.0125 -0.5340
    7MOL0     N  827  10.192   9.420   4.478  0.4245 -0.2932  0.0763
    7MOL0     C  828  10.311   9.374   4.526 -0.9265 -0.3925 -0.3794
    7MOL0     C  829  10.374   9.483   4.544 -0.1136  0.1988  0.7624
    7MOL0     C  830  10.513   9.473   4.602 -0.3259 -0.1915  0.6762
    7MOL0     C  831  10.618   9.511   4.496 -0.2201 -0.0510 -0.8959
    7MOL0     C  832  10.760   9.497   4.555  0.0622  1.0592  0.2577
    7MOL0     C  833  10.784   9.359   4.621 -1.0095 -0.1132  1.2237
    7MOL0     O  834  10.785   9.246   4.526 -0.0034 -0.5171 -0.7592
    7MOL0     C  835  10.903   9.220   4.463 -0.2147 -0.0902  0.1805
    7MOL0     C  836  10.905   9.104   4.380  1.1136 -0.2558 -0.5400
    7MOL0     C  837  11.016   9.057   4.311 -0.5118 -1.3251  0.2807
    7MOL0     C  838  11.141   9.131   4.325 -0.1832  0.0463 -0.3810
    7MOL0     C  839  11.263   9.076   4.257 -0.4035  1.0467  0.4201
    7MOL0     O  840  11.254   8.982   4.155 -0.4192 -0.0662  0.2733
    7MOL0     C  841  11.363   8.942   4.080  0.2486  0.2645  0.1604
    7MOL0     C  842  11.485   8.913   4.133 -0.1714  0.0501 -0.9857
    7MOL0     C  843  11.592   8.876   4.060 -0.5996  0.3327  0.3187
    7MOL0     C  844  11.575   8.845   3.928  0.5739 -0.1669 -0.5432
    7MOL0     O  845  11.685   8.801   3.865 -0.4575 -0.0282  0.6261
    7MOL0     C  846  11.682   8.741   3.727 -0.1818  0.5277 -0.4615
    7MOL0     C  847  11.698   8.588   3.731 -0.0415  0.1335 -0.2346
    7MOL0     C  848  11.770   8.530   3.603 -0.5952  0.0001  0.6901
    7MOL0     C  849  11.787   8.381   3.610  0.3797 -0.1234 -0.0492
    7MOL0     C  850  11.662   8.309   3.566  0.4670 -0.3239  0.6839
    7MOL0     C  851  11.687   8.168   3.536 -0.7437 -0.0936 -0.5209
    7MOL0     C  852  11.756   8.151   3.398 -0.6143  0.6186  0.2834
    7MOL0     C  853  11.726   8.006   3.350  0.8153 -0.9515 -0.5052
    7MOL0    Cl  854  11.851   7.941   3.248  0.0663 -0.1240 -0.0069
    7MOL0     C  855  11.450   8.880   3.868 -0.0628  0.9768 -0.6202
    7MOL0     C  856  11.339   8.918   3.944 -0.5183 -0.6598  0.9346
    7MOL0     O  857  11.375   9.115   4.299 -0.6617 -0.4482  0.2403
    7MOL0     C  858  11.146   9.244   4.411  0.3313 -0.6093  0.3490
    7MOL0     C  859  11.023   9.286   4.474 -0.7751 -0.3573 -0.4128
    7MOL0     N  860  10.302   9.595   4.505 -0.3841  0.2463 -0.8784
    7MOL0     N  861  10.200   9.559   4.464 -0.3823  0.1105 -0.0290
    7MOL0     C  862  10.397   8.527   4.872 -0.0444  1.0048  0.6973
    7MOL0     C  863  10.484   8.424   4.852 -1.0445  0.1241  0.5334
    7MOL0     C  864  10.801   8.107   4.983 -0.0606  0.2176  0.2085
    7MOL0     C  865  10.878   8.098   4.864  0.1073 -0.5786 -0.6630
    7MOL0     C  866  10.998   8.024   4.860  0.4245 -0.5404 -0.4254
    7MOL0     C  867  11.040   7.950   4.969 -0.1506 -0.1478  0.4633
    7MOL0     O  868  11.153   7.871   4.975  0.0566  0.5879 -0.0632
    7MOL0     C  869  11.274   7.940   5.020 -0.3598 -0.3772 -0.4114
    7MOL0     C  870  11.404   7.868   4.967 -0.8832  0.5395 -1.0485
    7MOL0     C  871  11.407   7.840   4.821  0.3095 -0.0544  0.7196
    7MOL0     C  872  11.516   7.738   4.799 -0.6018  0.6564 -0.2296
    7MOL0     C  873  11.532   7.727   4.656  0.5777  0.5069  0.5099
    7MOL0     C  874  11.541   7.727   4.537 -0.3908  0.3169 -0.1601
    7MOL0     C  875  10.946   7.957   5.086 -0.4599 -0.0630  0.5809
    7MOL0     C  876  10.835   8.034   5.093 -0.0220 -0.3495  0.1704
    7MOL0     C  877  10.768   8.061   5.230  0.0468  0.1925 -0.2241
    7MOL0     H  878  10.681   8.474   5.116 -0.0978  0.0684 -1.4909
    7MOL0     H  879  10.534   8.651   5.158  2.6876  0.4348 -1.3801
    7MOL0     H  880  10.402   8.863   4.974 -1.5114  1.0257  1.2134
    7MOL0     H  881  10.294   8.783   4.844 -0.9623  0.1003 -0.2464
    7MOL0     H  882  10.213   8.957   5.091  2.0631 -0.8617  0.2791
    7MOL0     H  883  10.107   8.838   5.037  0.6832 -1.2991  0.5953
    7MOL0     H  884  10.045   9.047   4.963 -0.4191  2.4003 -2.3520
    7MOL0     H  885  10.074   8.940   4.822  0.9045 -0.6021 -0.4588
    7MOL0     H  886  10.251   9.182   4.911  1.3693 -0.5672 -0.8207
    7MOL0     H  887  10.276   9.085   4.769 -1.7156  0.1980 -2.6087
    7MOL0     H  888  10.008   9.215   4.841 -0.9649 -0.4744 -0.3626
    7MOL0     H  889  10.156   9.299   4.779  1.1012 -0.4954 -1.1421
    7MOL0     H  890  10.145   9.142   4.584  1.3511  3.7433  2.2172
    7MOL0     H  891   9.988   9.071   4.637 -0.3034 -0.3263  1.7443
    7MOL0     H  892   9.951   9.356   4.632 -3.1844 -2.0972 -0.1270
    7MOL0     H  893   9.887   9.247   4.519 -0.2960 -1.7768  2.6888
    7MOL0     H  894  10.098   9.267   4.370 -0.7249  1.3815 -2.2327
    7MOL0     H  895  10.010   9.412   4.397  0.6972  0.1747 -0.6122
    7MOL0     H  896  10.346   9.271   4.529 -1.0989 -0.4594 -0.6273
    7MOL0     H  897  10.521   9.532   4.694 -2.8082  0.8256  0.3451
    7MOL0     H  898  10.527   9.366   4.620 -1.2655 -0.7929 -1.7249
    7MOL0     H  899  10.598   9.466   4.398 -2.2347  1.2771 -1.1603
    7MOL0     H  900  10.607   9.617   4.470  1.6691 -0.1550 -2.3410
    7MOL0     H  901  10.781   9.569   4.634  0.6952  0.8638  0.2755
    7MOL0     H  902  10.833   9.519   4.477 -1.0760 -2.4015 -2.0089
    7MOL0     H  903  10.707   9.342   4.698 -3.1241  0.7835 -0.5881
    7MOL0     H  904  10.876   9.361   4.680 -2.0031  2.0767  2.8380
    7MOL0     H  905  10.824   9.033   4.366 -0.2983  1.7238 -3.6756
    7MOL0     H  906  11.019   8.960   4.263 -1.5602 -0.3492 -1.9554
    7MOL0     H  907  11.492   8.935   4.239  0.8191  3.6195 -1.6506
    7MOL0     H  908  11.688   8.855   4.104 -0.6594  0.2964  0.4296
    7MOL0     H  909  11.601   8.771   3.660 -1.8194  1.1699  1.6740
    7MOL0     H  910  11.765   8.785   3.671 -0.1923 -2.4673 -3.0672
    7MOL0     H  911  11.753   8.563   3.822 -0.4422  3.5407  1.0813
    7MOL0     H  912  11.598   8.545   3.740 -1.1171  1.7190 -3.0883
    7MOL0     H  913  11.717   8.556   3.511 -1.2061 -2.5232  0.2519
    7MOL0     H  914  11.872   8.569   3.598 -0.1504 -1.0510  1.2211
    7MOL0     H  915  11.808   8.341   3.710  0.6053 -2.5433 -0.9854
    7MOL0     H  916  11.869   8.355   3.542 -0.4718 -0.5363 -0.9500
    7MOL0     H  917  11.614   8.364   3.484 -0.7136  1.1824  2.3186
    7MOL0     H  918  11.590   8.311   3.649 -1.2494  2.4412 -0.7114
    7MOL0     H  919  11.748   8.140   3.622 -0.5178  3.5641  0.7117
    7MOL0     H  920  11.597   8.107   3.542 -1.7552  1.4083  0.3157
    7MOL0     H  921  11.864   8.172   3.402 -0.7471  3.3396 -3.8998
    7MOL0     H  922  11.708   8.213   3.322 -0.0627 -1.3236 -1.7739
    7MOL0     H  923  11.696   7.936   3.428 -1.1807  2.5164  2.1173
    7MOL0     H  924  11.640   8.031   3.288  1.7602 -0.8533 -1.8282
    7MOL0     H  925  11.433   8.860   3.763 -0.7965 -0.1330 -0.2966
    7MOL0     H  926  11.240   8.927   3.900 -0.8301  2.1802  1.9997
    7MOL0     H  927  11.234   9.306   4.424  0.5469 -0.6795 -0.7249
    7MOL0     H  928  11.032   9.385   4.519 -1.4083 -0.4145 -0.1423
    7MOL0     H  929  10.318   8.553   4.802 -0.3901  0.2207  0.7857
    7MOL0     H  930  10.479   8.365   4.761  2.8935 -0.7695  0.6995
    7MOL0     H  931  10.839   8.156   4.781  3.6324  0.5493 -1.6985
    7MOL0     H  932  11.056   8.023   4.769  2.1028  0.2728  0.5864
    7MOL0     H  933  11.281   7.955   5.128  1.6168  2.5124 -0.8233
    7MOL0     H  934  11.283   8.040   4.977 -1.3267  0.3316  0.9394
    7MOL0     H  935  11.396   7.772   5.018 -2.3591  0.6793 -0.9570
    7MOL0     H  936  11.496   7.920   4.992 -0.5764 -0.5587  0.1996
    7MOL0     H  937  11.433   7.936   4.775  0.4263  2.0691  4.7764
    7MOL0     H  938  11.312   7.804   4.782 -1.2200  4.0546  0.1665
    7MOL0     H  939  11.612   7.764   4.845 -0.0677 -3.3986  1.2936
    7MOL0     H  940  11.498   7.639   4.841  1.8119  1.4566  3.1524
    7MOL0     H  941  11.526   7.738   4.431 -0.3520  1.0011 -0.1025
    7MOL0     H  942  10.966   7.897   5.175 -3.9753  0.1941  1.6939
    7MOL0     H  943  10.774   8.168   5.253 -0.0184  0.6778 -2.2570
    7MOL0     H  944  10.667   8.020   5.222  1.0362 -3.2375  2.4717
    7MOL0     H  945  10.816   8.017   5.318 -1.3400  0.0967  0.5160
    8MOL0     O  946   7.736   4.357   6.010 -0.2523  0.3636 -0.9963
    8MOL0     C  947   7.785   4.470   5.996  0.4910 -0.6392 -0.7096
    8MOL0     O  948   7.817   4.532   5.874 -0.1252  0.1987  0.3140
    8MOL0     C  949   7.829   4.447   5.764 -0.6697 -0.0763 -0.0587
    8MOL0     C  950   7.727   4.450   5.672 -0.5330 -0.3567  0.9552
    8MOL0     C  951   7.717   4.361   5.562 -0.5821 -0.5928 -1.1689
    8MOL0     C  952   7.825   4.269   5.552 -0.0336 -0.6797 -0.4216
    8MOL0     O  953   7.835   4.184   5.436 -0.4075  0.8594  0.1812
    8MOL0     C  954   7.720   4.171   5.351 -1.5667 -0.0220  0.3178
    8MOL0     C  955   7.782   4.113   5.219 -0.4342 -0.8192  0.1868
    8MOL0     C  956   7.667   4.079   5.125 -0.4299  0.0259  1.2392
    8MOL0     C  957   7.726   4.033   4.988  0.1392  0.8683  1.0044
    8MOL0     C  958   7.671   4.086   4.859 -0.8947  0.0424 -0.1602
    8MOL0     C  959   7.520   4.046   4.847 -1.5042 -0.5634  0.0867
    8MOL0     C  960   7.475   3.914   4.781 -0.9436 -0.8096 -0.2937
    8MOL0     C  961   7.328   3.882   4.809 -0.2383 -0.5969  0.4751
    8MOL0     N  962   7.295   3.745   4.761  0.6200  0.2257 -0.4113
    8MOL0     C  963   7.350   3.686   4.646 -0.4425  0.0993  1.2698
    8MOL0     C  964   7.292   3.569   4.629  0.1464 -0.1774  0.0263
    8MOL0     C  965   7.331   3.464   4.518 -0.0125  0.1009 -0.1448
    8MOL0     C  966   7.486   3.447   4.521 -0.0340 -0.2151  0.3428
    8MOL0     C  967   7.535   3.313   4.579  0.0124 -1.0843 -0.2439
    8MOL0     C  968   7.509   3.293   4.726 -0.4155 -0.8505  0.4610
    8MOL0     O  969   7.584   3.392   4.790 -0.4146 -0.1764  0.0484
    8MOL0     C  970   7.546   3.457   4.901  0.2185 -0.1031 -0.4005
    8MOL0     C  971   7.648   3.523   4.977 -0.3045 -0.2290 -1.0304
    8MOL0     C  972   7.628   3.600   5.095 -0.9992  0.3986 -0.7406
    8MOL0     C  973   7.495   3.611   5.136 -0.6695  0.1837 -0.2894
    8MOL0     C  974   7.463   3.707   5.246 -0.2164 -0.4598  0.5028
    8MOL0     O  975   7.336   3.709   5.296 -0.4287 -0.1996  0.1936
    8MOL0     C  976   7.316   3.736   5.429  0.1218  0.1273  1.4019
    8MOL0     C  977   7.186   3.764   5.473 -0.1554 -0.5463  0.3862
    8MOL0     C  978   7.156   3.794   5.605  0.6809  0.0102 -0.1265
    8MOL0     C  979   7.263   3.795   5.705  0.5909  0.7490  1.0825
    8MOL0     O  980   7.252   3.814   5.840  0.8102 -1.0083 -0.3574
    8MOL0     C  981   7.124   3.857   5.899  0.0563 -0.8754  0.5817
    8MOL0     C  982   7.063   3.738   5.958 -0.3125 -0.1954 -0.9171
    8MOL0     C  983   6.924   3.779   6.017 -0.7121  0.4351  0.0453
    8MOL0     C  984   6.820   3.811   5.904  0.0497 -0.6463  0.7376
    8MOL0     C  985   6.682   3.874   5.945  0.1350  0.0436 -0.8351
    8MOL0     C  986   6.611   3.756   6.018  0.3886  0.1926  1.0555
    8MOL0     C  987   6.477   3.800   6.086  0.4395  0.9086 -0.0662
    8MOL0     C  988   6.399   3.895   6.002 -0.4432 -0.6975  0.6539
    8MOL0    Cl  989   6.329   3.820   5.860  0.0074  0.5255 -0.1821
    8MOL0     C  990   7.396   3.773   5.659  0.0246 -1.1650  0.6147
    8MOL0     C  991   7.417   3.739   5.528 -0.4442  0.7403 -0.0441
    8MOL0     O  992   7.552   3.790   5.277 -0.3979  0.5295  0.5847
    8MOL0     C  993   7.390   3.548   5.066 -0.8119  0.5096  0.1055
    8MOL0     C  994   7.419   3.471   4.955 -0.7006  0.0280 -0.1344
    8MOL0     N  995   7.203   3.549   4.737  0.0629  0.5847  0.5561
    8MOL0     N  996   7.210   3.653   4.810 -0.5549  0.2035  0.4679
    8MOL0     C  997   7.932   4.278   5.643  0.1816 -1.2983 -0.2913
    8MOL0     C  998   7.934   4.364   5.745  0.4616 -0.6692 -0.1940
    8MOL0     C  999   7.803   4.535   6.125 -0.8680 -0.0433  0.4616
    8MOL0     C 1000   7.828   4.456   6.238 -1.0770 -0.5315 -0.0555
    8MOL0     C 1001   7.861   4.514   6.359 -0.1873 -0.0810 -0.8296
    8MOL0     C 1002   7.851   4.650   6.386  0.9655  0.2920 -1.1875
    8MOL0     O 1003   7.859   4.710   6.508 -0.0159  0.1056  0.1067
    8MOL0     C 1004   7.997   4.735   6.547  0.1318 -0.0300  0.0841
    8MOL0     C 1005   8.073   4.616   6.606 -0.0860  0.0491  0.4245
    8MOL0     C 1006   8.003   4.556   6.729  0.7869  0.2735 -0.3099
    8MOL0     C 1007   8.087   4.451   6.805 -0.9642  0.5170 -1.0552
    8MOL0     C 1008   8.111   4.320   6.732 -0.1051  0.6192  0.4936
    8MOL0     C 1009   8.128   4.201   6.708 -0.1359  1.1664 -0.5543
    8MOL0     C 1010   7.817   4.728   6.280  0.0533  0.3087 -0.3598
    8MOL0     C 1011   7.817   4.674   6.145  1.0852  0.4769  0.6112
    8MOL0     C 1012   7.822   4.775   6.031  0.5016 -0.9271 -0.8957
    8MOL0     H 1013   7.648   4.524   5.678 -0.8066 -0.2048 -2.6025
    8MOL0     H 1014   7.630   4.365   5.497  1.3932  1.1527 -3.9811
    8MOL0     H 1015   7.654   4.104   5.407 -2.0425  0.9350  0.9250
    8MOL0     H 1016   7.675   4.268   5.324 -1.5187  1.6560  5.2979
    8MOL0     H 1017   7.832   4.025   5.258 -0.9417 -1.0959  0.2240
    8MOL0     H 1018   7.856   4.177   5.169 -0.3939 -1.1293 -0.1591
    8MOL0     H 1019   7.591   4.157   5.119 -2.4848 -1.9367  0.2923
    8MOL0     H 1020   7.612   3.992   5.162 -0.4192 -0.5615 -0.0453
    8MOL0     H 1021   7.835   4.029   4.991  0.0857 -0.4693  2.8415
    8MOL0     H 1022   7.692   3.929   4.978  2.6665  0.1383 -1.4595
    8MOL0     H 1023   7.683   4.194   4.845  0.9744  0.2269  2.1897
    8MOL0     H 1024   7.731   4.032   4.785 -1.2269 -1.4696  0.6317
    8MOL0     H 1025   7.475   4.054   4.946  0.2557 -0.2504  0.9070
    8MOL0     H 1026   7.490   4.127   4.780  0.9452 -0.9564 -1.6420
    8MOL0     H 1027   7.530   3.829   4.823 -1.0963 -0.5062  0.5187
    8MOL0     H 1028   7.491   3.921   4.673  0.2314 -3.7082 -0.4034
    8MOL0     H 1029   7.315   3.887   4.917 -0.4634 -4.8012  0.7947
    8MOL0     H 1030   7.279   3.956   4.744  0.7699 -0.8673 -0.6211
    8MOL0     H 1031   7.417   3.726   4.571 -0.2959  1.4502  2.0753
    8MOL0     H 1032   7.283   3.367   4.532 -1.2935  0.3878 -2.1829
    8MOL0     H 1033   7.303   3.503   4.420 -1.1377 -0.9202 -0.2513
    8MOL0     H 1034   7.524   3.435   4.419 -3.8502 -2.1228 -1.0792
    8MOL0     H 1035   7.536   3.534   4.563  0.0235 -0.2685  0.3854
    8MOL0     H 1036   7.642   3.310   4.559 -0.0867  1.2513 -1.4343
    8MOL0     H 1037   7.497   3.235   4.512 -0.5811 -0.6383 -0.4390
    8MOL0     H 1038   7.537   3.196   4.769 -1.0640 -0.4151  1.9242
    8MOL0     H 1039   7.406   3.296   4.762 -0.6526 -2.6654  0.0327
    8MOL0     H 1040   7.755   3.526   4.959  0.0048  6.2507 -0.6783
    8MOL0     H 1041   7.703   3.663   5.142  2.0977 -2.3275 -1.6351
    8MOL0     H 1042   7.106   3.772   5.401 -1.4252  2.8098  1.9494
    8MOL0     H 1043   7.051   3.815   5.624  0.8379 -0.1250  0.9467
    8MOL0     H 1044   7.146   3.930   5.977  0.5896  3.0171 -2.8040
    8MOL0     H 1045   7.065   3.908   5.822 -0.6767  0.4206  1.9559
    8MOL0     H 1046   7.058   3.666   5.876  0.4971  0.8903 -1.9543
    8MOL0     H 1047   7.123   3.696   6.038 -1.4349  0.7813  0.4966
    8MOL0     H 1048   6.880   3.698   6.075 -1.0466  0.8353  0.3502
    8MOL0     H 1049   6.932   3.864   6.085  1.8244 -0.9802  1.6681
    8MOL0     H 1050   6.790   3.730   5.838 -1.2431  1.8724 -1.9776
    8MOL0     H 1051   6.871   3.873   5.830  0.9688 -0.2123  1.7000
    8MOL0     H 1052   6.630   3.903   5.854  2.3662  2.1496 -1.5496
    8MOL0     H 1053   6.696   3.963   6.006  0.2407 -1.1081  0.9036
    8MOL0     H 1054   6.608   3.674   5.946 -1.7008  0.7428  0.4552
    8MOL0     H 1055   6.680   3.724   6.097  1.2948  0.6712  0.4661
    8MOL0     H 1056   6.496   3.845   6.184 -0.5503 -0.5455  0.8351
    8MOL0     H 1057   6.429   3.703   6.102  0.4638  1.0382  0.8449
    8MOL0     H 1058   6.320   3.928   6.071 -0.7398 -1.6370  0.7757
    8MOL0     H 1059   6.461   3.982   5.977 -1.6016  0.7967  2.6546
    8MOL0     H 1060   7.484   3.785   5.722  2.7940  1.5510 -3.2647
    8MOL0     H 1061   7.520   3.707   5.513 -0.9136 -2.1379  2.0138
    8MOL0     H 1062   7.287   3.563   5.098 -2.0637 -2.0680 -2.2256
    8MOL0     H 1063   7.329   3.439   4.904  0.1860  0.8528 -2.3503
    8MOL0     H 1064   8.013   4.205   5.638  0.7681 -0.5939 -1.7891
    8MOL0     H 1065   8.006   4.364   5.826  0.3207 -0.7163 -0.0685
    8MOL0     H 1066   7.825   4.348   6.234 -2.3714 -0.4897 -3.8730
    8MOL0     H 1067   7.884   4.442   6.437 -1.7466 -0.0488 -0.3036
    8MOL0     H 1068   7.996   4.804   6.632  2.1638 -0.3306  0.4033
    8MOL0     H 1069   8.070   4.772   6.473  1.1065 -0.3861  0.8419
    8MOL0     H 1070   8.170   4.663   6.624 -0.7421  0.5250  3.1767
    8MOL0     H 1071   8.093   4.540   6.529  2.1070  2.3665 -1.4937
    8MOL0     H 1072   7.901   4.520   6.717  0.5884  0.4024  0.8580
    8MOL0     H 1073   8.004   4.627   6.812  1.5470 -1.0387  0.8535
    8MOL0     H 1074   8.188   4.492   6.815 -0.0434 -1.5994 -1.1982
    8MOL0     H 1075   8.035   4.426   6.898 -1.1830  0.4998 -1.1812
    8MOL0     H 1076   8.137   4.097   6.684 -2.7672  0.6808  0.2101
    8MOL0     H 1077   7.810   4.834   6.300  0.0653  0.7600 -2.4855
    8MOL0     H 1078   7.910   4.766   5.967  0.2282 -0.0354 -1.4101
    8MOL0     H 1079   7.727   4.777   5.977  0.6202 -1.7808 -1.1523
    8MOL0     H 1080   7.823   4.868   6.088 -0.2038 -0.6255 -1.3633
    9MOL0     O 1081   3.787   5.203   3.301 -1.2120  0.0090 -0.4000
    9MOL0     C 1082   3.690   5.167   3.233 -1.6064 -0.3840  0.2544
    9MOL0     O 1083   3.569   5.139   3.287 -0.1254  0.1527 -0.7618
    9MOL0     C 1084   3.548   5.139   3.423 -0.2010  0.2233 -0.2412
    9MOL0     C 1085   3.435   5.203   3.462 -0.1521  0.2348 -0.5508
    9MOL0     C 1086   3.394   5.224   3.596  0.2651  0.4738  0.5791
    9MOL0     C 1087   3.470   5.159   3.690 -0.4980 -0.5166  0.0092
    9MOL0     O 1088   3.444   5.158   3.826 -0.2382 -0.4473  0.1122
    9MOL0     C 1089   3.315   5.157   3.879  0.1834  1.0909  0.5632
    9MOL0     C 1090   3.281   5.038   3.969  0.4159 -0.4935 -0.4197
    9MOL0     C 1091   3.394   5.004   4.070 -0.7167  0.2285  0.9413
    9MOL0     C 1092   3.319   4.939   4.191  0.7298  0.2857  0.3269
    9MOL0     C 1093   3.406   4.932   4.310 -0.6117 -0.1925  0.4100
    9MOL0     C 1094   3.331   4.961   4.436 -0.9453  0.9721  0.5356
    9MOL0     C 1095   3.423   4.986   4.547  0.9863 -0.2470  0.1438
    9MOL0     C 1096   3.355   5.031   4.680 -0.5279 -0.2187  0.3075
    9MOL0     N 1097   3.240   4.944   4.712 -1.0589 -0.1395  0.6677
    9MOL0     C 1098   3.106   4.960   4.677  0.0034  0.4541  0.7774
    9MOL0     C 1099   3.049   4.858   4.749 -0.5476  0.5203  1.2066
    9MOL0     C 1100   2.900   4.831   4.750 -0.8595  0.0161  0.2539
    9MOL0     C 1101   2.857   4.692   4.678 -0.3825  0.8533  0.1151
    9MOL0     C 1102   2.826   4.673   4.526 -0.1410  0.4345 -0.1705
    9MOL0     C 1103   2.946   4.694   4.439  0.0576 -0.1257  0.3626
    9MOL0     O 1104   2.961   4.831   4.435  0.2831 -0.6233  0.3521
    9MOL0     C 1105   2.885   4.892   4.339  0.2200 -0.8490  1.2768
    9MOL0     C 1106   2.778   4.966   4.373  1.1802 -0.9673 -1.0464
    9MOL0     C 1107   2.688   5.020   4.281 -0.1248 -0.0204 -0.2297
    9MOL0     C 1108   2.718   5.002   4.144 -0.3531  0.5323 -0.4000
    9MOL0     C 1109   2.626   5.067   4.049  0.1098 -0.3053  0.0471
    9MOL0     O 1110   2.509   5.122   4.091 -0.2218  0.4745 -0.3950
    9MOL0     C 1111   2.428   5.191   4.008 -0.6985  0.3433 -0.1054
    9MOL0     C 1112   2.467   5.319   3.974 -0.2629 -0.2999 -0.4651
    9MOL0     C 1113   2.384   5.397   3.901  1.0215  0.6370  0.2921
    9MOL0     C 1114   2.275   5.340   3.831 -0.1681  0.3569 -0.0015
    9MOL0     O 1115   2.197   5.418   3.743 -0.2879 -0.4103 -0.4357
    9MOL0     C 1116   2.162   5.364   3.614 -0.4004  0.0574  0.9816
    9MOL0     C 1117   2.053   5.442   3.544  0.4917  0.4377 -0.9893
    9MOL0     C 1118   1.924   5.421   3.616  0.4952  0.8099 -0.8665
    9MOL0     C 1119   1.830   5.317   3.546 -1.1616  0.9387 -0.0548
    9MOL0     C 1120   1.696   5.295   3.618 -0.4745  0.7543 -0.2026
    9MOL0     C 1121   1.627   5.166   3.579  0.8031 -0.2338  0.3087
    9MOL0     C 1122   1.477   5.183   3.637  0.0482 -1.2524  0.1876
    9MOL0     C 1123   1.389   5.061   3.607 -0.7211 -1.0067  1.4169
    9MOL0    Cl 1124   1.367   5.047   3.431 -0.0426 -0.1273  0.0040
    9MOL0     C 1125   2.257   5.206   3.840  0.5526  0.3617  0.2489
    9MOL0     C 1126   2.324   5.130   3.935 -0.5062 -0.1495 -0.4162
    9MOL0     O 1127   2.668   5.078   3.933 -0.0930 -0.4476 -0.1808
    9MOL0     C 1128   2.830   4.925   4.106  0.2783  0.3399  0.7217
    9MOL0     C 1129   2.916   4.874   4.204 -0.8314 -0.1387 -0.1609
    9MOL0     N 1130   3.135   4.789   4.814 -0.1658  0.6298 -0.1521
    9MOL0     N 1131   3.257   4.832   4.794  0.3041 -0.4147  0.3034
    9MOL0     C 1132   3.584   5.080   3.649  0.9823 -0.5504 -0.5082
    9MOL0     C 1133   3.614   5.064   3.519 -0.2815  0.3400  0.6460
    9MOL0     C 1134   3.715   5.192   3.088 -0.1289  0.2953  0.5585
    9MOL0     C 1135   3.803   5.297   3.050 -0.8674 -0.6321  0.4157
    9MOL0     C 1136   3.810   5.327   2.916 -0.0995 -0.4475 -0.0284
    9MOL0     C 1137   3.735   5.275   2.815  0.0108  0.2135 -0.3293
    9MOL0     O 1138   3.721   5.302   2.682 -0.1924  0.3579  0.2716
    9MOL0     C 1139   3.764   5.435   2.632 -0.8721 -0.3821  0.2603
    9MOL0     C 1140   3.655   5.533   2.677 -0.3007  0.1286 -0.3532
    9MOL0     C 1141   3.641   5.648   2.572  0.2780  0.1410  0.5600
    9MOL0     C 1142   3.537   5.638   2.450 -0.3538  1.2264  0.2605
    9MOL0     C 1143   3.404   5.666   2.498  0.0474 -0.4907 -0.7479
    9MOL0     C 1144   3.294   5.691   2.548 -0.1401 -0.0454 -0.5287
    9MOL0     C 1145   3.664   5.159   2.849  0.2593  0.5322 -0.0829
    9MOL0     C 1146   3.652   5.112   2.986 -0.4487 -0.0644 -0.0995
    9MOL0     C 1147   3.566   4.989   3.030  0.3630 -0.8362  1.1945
    9MOL0     H 1148   3.376   5.259   3.390 -2.4358  0.3558  1.2927
    9MOL0     H 1149   3.312   5.290   3.620 -0.3799 -0.3222  0.5960
    9MOL0     H 1150   3.312   5.247   3.941  2.8904 -1.1952  4.4501
    9MOL0     H 1151   3.243   5.162   3.797  3.8988 -0.6739 -3.2118
    9MOL0     H 1152   3.261   4.950   3.908  0.4558 -0.1650 -0.9141
    9MOL0     H 1153   3.190   5.061   4.024  1.0391  1.6194 -0.1802
    9MOL0     H 1154   3.460   5.088   4.096 -0.6005  0.7715 -0.9915
    9MOL0     H 1155   3.453   4.931   4.015 -2.3429 -1.9949  2.0124
    9MOL0     H 1156   3.222   4.985   4.211  0.3449 -0.5719  0.5044
    9MOL0     H 1157   3.289   4.839   4.159  0.0670 -0.6805  3.6245
    9MOL0     H 1158   3.456   4.835   4.314  0.0539  0.0652 -0.9953
    9MOL0     H 1159   3.488   5.004   4.306  0.9824 -1.6648  3.4809
    9MOL0     H 1160   3.280   5.056   4.417 -1.3521  0.2405 -2.6476
    9MOL0     H 1161   3.256   4.886   4.464  1.2202 -2.3580 -1.8589
    9MOL0     H 1162   3.485   5.072   4.522 -0.6053  0.3558 -1.9307
    9MOL0     H 1163   3.478   4.894   4.572  1.9840 -0.3976 -2.3209
    9MOL0     H 1164   3.427   5.021   4.762  1.5868 -4.1809 -1.7636
    9MOL0     H 1165   3.336   5.139   4.685  1.0202  0.0103  2.5233
    9MOL0     H 1166   3.047   5.027   4.616  0.4243 -1.7613 -2.3074
    9MOL0     H 1167   2.866   4.826   4.854  0.3377 -1.4852  0.6114
    9MOL0     H 1168   2.851   4.916   4.702  2.7015  2.6041  0.7447
    9MOL0     H 1169   2.932   4.617   4.702 -0.5876  0.7952  0.5823
    9MOL0     H 1170   2.770   4.657   4.734  1.2084  0.6756  2.6256
    9MOL0     H 1171   2.750   4.742   4.490 -1.7476 -1.4601 -0.5833
    9MOL0     H 1172   2.794   4.571   4.503 -1.8248  0.7538  0.6151
    9MOL0     H 1173   2.930   4.643   4.343 -4.7330 -0.8386  1.2695
    9MOL0     H 1174   3.031   4.644   4.486  0.9380  0.9461 -0.0495
    9MOL0     H 1175   2.768   4.965   4.482  3.7872 -1.1754 -0.7249
    9MOL0     H 1176   2.602   5.076   4.317 -1.0082 -1.9117  0.7488
    9MOL0     H 1177   2.564   5.344   4.016 -0.9630 -2.5588  2.8522
    9MOL0     H 1178   2.393   5.502   3.877 -3.1260  0.7657 -1.4723
    9MOL0     H 1179   2.246   5.351   3.546  0.7351  1.7817  1.9814
    9MOL0     H 1180   2.117   5.265   3.626  1.1129 -0.7457  0.3217
    9MOL0     H 1181   2.065   5.551   3.550  1.1225  0.3346 -0.1356
    9MOL0     H 1182   2.057   5.399   3.444 -0.3117  0.0308 -0.8537
    9MOL0     H 1183   1.937   5.397   3.722  2.5208  1.9945 -0.8046
    9MOL0     H 1184   1.869   5.516   3.622 -1.3040 -0.2626  2.7865
    9MOL0     H 1185   1.883   5.223   3.528 -0.7369  1.6374 -2.9004
    9MOL0     H 1186   1.804   5.339   3.442 -1.2252 -2.6022 -0.9257
    9MOL0     H 1187   1.637   5.386   3.601  1.2681  2.1650  0.8520
    9MOL0     H 1188   1.724   5.303   3.724 -1.5557  1.2270  0.0623
    9MOL0     H 1189   1.613   5.160   3.471  1.4844 -0.3932  0.2227
    9MOL0     H 1190   1.684   5.084   3.625  0.1418  0.1577  1.9125
    9MOL0     H 1191   1.443   5.272   3.582  0.9959 -0.4279  0.9017
    9MOL0     H 1192   1.476   5.200   3.745 -0.4332  1.4842 -0.1616
    9MOL0     H 1193   1.456   4.981   3.640  1.9357  0.2861 -0.5033
    9MOL0     H 1194   1.295   5.069   3.663  0.6194 -0.4186  3.6843
    9MOL0     H 1195   2.188   5.156   3.773 -3.8432  3.4591  2.0021
    9MOL0     H 1196   2.293   5.027   3.948  0.8868 -0.5318  0.1118
    9MOL0     H 1197   2.851   4.924   4.000 -2.1156 -2.4152  0.1203
    9MOL0     H 1198   3.010   4.830   4.173 -0.3961  1.2032 -0.8118
    9MOL0     H 1199   3.639   5.018   3.719  0.7133 -3.1544 -2.4872
    9MOL0     H 1200   3.703   5.002   3.507 -2.4690 -3.1117  0.9519
    9MOL0     H 1201   3.863   5.346   3.126  1.5162 -2.4916 -0.1574
    9MOL0     H 1202   3.864   5.416   2.888  1.1590 -1.6169 -1.4939
    9MOL0     H 1203   3.762   5.419   2.524  1.1274  4.9600 -0.8361
    9MOL0     H 1204   3.866   5.463   2.659 -1.2444  0.2908  1.0094
    9MOL0     H 1205   3.682   5.575   2.774  0.7157  2.4546 -1.5719
    9MOL0     H 1206   3.556   5.486   2.672 -0.3486  0.2129 -0.1935
    9MOL0     H 1207   3.738   5.657   2.523  0.1125  2.8252  0.5825
    9MOL0     H 1208   3.618   5.744   2.618 -2.1570 -0.8937  1.6999
    9MOL0     H 1209   3.562   5.700   2.364  1.3900 -0.7110 -0.7066
    9MOL0     H 1210   3.535   5.543   2.396  1.1170  1.7782 -0.8144
    9MOL0     H 1211   3.198   5.710   2.591  0.4463 -1.3739  1.5169
    9MOL0     H 1212   3.629   5.096   2.769  0.2623 -1.9877  1.7610
    9MOL0     H 1213   3.603   4.938   3.120  0.6162 -0.4525  1.3114
    9MOL0     H 1214   3.463   5.020   3.049  1.0329  1.0853  2.0023
    9MOL0     H 1215   3.577   4.907   2.958 -1.7196 -2.7955  2.9633
   10MOL0     O 1216  11.110   0.232   8.471  0.5831  0.2328  0.5399
   10MOL0     C 1217  11.013   0.315   8.461 -0.5406  0.3835  0.2944
   10MOL0     O 1218  10.980   0.391   8.569  1.4699  1.1030 -0.2090
   10MOL0     C 1219  11.058   0.381   8.682  0.6867 -0.5938  0.5235
   10MOL0     C 1220  11.183   0.439   8.694  0.0329 -0.1398 -0.8940
   10MOL0     C 1221  11.263   0.432   8.810  0.7291 -0.8872  0.2883
   10MOL0     C 1222  11.221   0.356   8.921  0.2163  0.6770 -0.0600
   10MOL0     O 1223  11.302   0.374   9.034  0.5592  0.2776 -0.0861
   10MOL0     C 1224  11.241   0.339   9.159  0.7531  0.3857 -0.2204
   10MOL0     C 1225  11.122   0.424   9.204 -0.2624 -0.1787  0.5303
   10MOL0     C 1226  11.157   0.574   9.184  0.9470 -0.7582 -0.1061
   10MOL0     C 1227  11.053   0.665   9.261 -0.2955 -1.2771  1.1398
   10MOL0     C 1228  11.095   0.813   9.271 -0.2601  0.1169 -0.1274
   10MOL0     C 1229  11.109   0.867   9.127  0.0495  0.2348  1.1042
   10MOL0     C 1230  11.111   1.015   9.125  0.2737 -0.7652 -0.6108
   10MOL0     C 1231  11.145   1.071   8.985  0.0143 -0.5075  0.2968
   10MOL0     N 1232  11.222   1.193   9.013 -0.4914 -0.6561 -0.1359
   10MOL0     C 1233  11.170   1.313   9.049 -0.0947 -0.2517 -1.4075
   10MOL0     C 1234  11.284   1.380   9.088 -0.0485  0.2234 -0.7268
   10MOL0     C 1235  11.268   1.518   9.141 -0.8025 -0.5430 -0.2385
   10MOL0     C 1236  11.399   1.605   9.147 -0.1993  0.3146  0.4237
   10MOL0     C 1237  11.466   1.615   9.007  0.5533  0.5454 -0.2988
   10MOL0     C 1238  11.589   1.706   9.006  0.0278  0.0378 -0.1168
   10MOL0     O 1239  11.688   1.648   9.096 -0.0059 -0.0322 -0.0619
   10MOL0     C 1240  11.788   1.577   9.049  0.2100  0.3985 -0.0138
   10MOL0     C 1241  11.787   1.439   9.070 -0.1385 -0.4436  0.6049
   10MOL0     C 1242  11.891   1.367   9.012  0.0023 -0.0757 -0.5827
   10MOL0     C 1243  11.981   1.423   8.934  0.0587 -0.5285 -0.2048
   10MOL0     C 1244  12.081   1.337   8.861 -0.3338  0.8305 -0.1599
   10MOL0     O 1245  12.138   1.392   8.749 -0.0499 -0.2672  0.3743
   10MOL0     C 1246  12.241   1.319   8.691 -0.4548 -0.8718 -0.0416
   10MOL0     C 1247  12.354   1.283   8.755  0.5797  0.4282 -0.3246
   10MOL0     C 1248  12.452   1.210   8.689  1.1663 -0.3924 -0.3557
   10MOL0     C 1249  12.438   1.177   8.553  1.5191 -0.6800 -1.5784
   10MOL0     O 1250  12.533   1.102   8.488  0.2375 -0.0742 -0.6224
   10MOL0     C 1251  12.620   1.015   8.561 -0.5253 -0.1839 -0.3747
   10MOL0     C 1252  12.560   0.878   8.599  0.1327 -0.5081 -0.9134
   10MOL0     C 1253  12.659   0.779   8.661  0.2589  0.4539 -0.1482
   10MOL0     C 1254  12.627   0.633   8.646 -0.3322 -0.1829 -0.6951
   10MOL0     C 1255  12.752   0.557   8.604 -0.1902 -0.3066  0.4579
   10MOL0     C 1256  12.745   0.405   8.577  1.4621 -0.2128  0.0614
   10MOL0     C 1257  12.747   0.380   8.433 -0.3617 -0.0793 -0.2776
   10MOL0     C 1258  12.761   0.242   8.393 -0.2167  0.5347  1.7021
   10MOL0    Cl 1259  12.766   0.229   8.213  0.1948  0.2963 -0.3155
   10MOL0     C 1260  12.327   1.229   8.485  0.7664  0.5235 -0.2667
   10MOL0     C 1261  12.230   1.306   8.551  0.4970  0.7089 -1.1055
   10MOL0     O 1262  12.101   1.220   8.907 -0.1468 -0.1551  0.3981
   10MOL0     C 1263  11.974   1.558   8.898 -0.2971  1.2872  0.3306
   10MOL0     C 1264  11.888   1.637   8.970 -0.2968 -1.2477  0.9658
   10MOL0     N 1265  11.399   1.307   9.078 -0.6963 -0.6510 -0.5283
   10MOL0     N 1266  11.356   1.192   9.034  0.0911 -0.3491  0.3181
   10MOL0     C 1267  11.105   0.273   8.892  0.7483  0.2866  0.5298
   10MOL0     C 1268  11.023   0.291   8.781  0.7872 -0.1211 -1.2376
   10MOL0     C 1269  10.940   0.327   8.330 -0.4818 -0.9651  0.4330
   10MOL0     C 1270  10.829   0.411   8.318 -0.3547  0.7591  0.7562
   10MOL0     C 1271  10.755   0.425   8.202  0.1229  0.8722 -0.2694
   10MOL0     C 1272  10.802   0.370   8.081 -0.2454 -0.7992 -0.5294
   10MOL0     O 1273  10.718   0.389   7.977 -1.0149  1.2013  0.0883
   10MOL0     C 1274  10.679   0.277   7.898  0.6150  0.1524 -0.4708
   10MOL0     C 1275  10.761   0.253   7.777 -0.2231 -0.0104  0.4044
   10MOL0     C 1276  10.796   0.384   7.686 -0.0420  0.0806  0.1617
   10MOL0     C 1277  10.780   0.371   7.533  0.2005 -0.0498 -0.6314
   10MOL0     C 1278  10.640   0.348   7.515  0.1013 -0.8779 -0.3856
   10MOL0     C 1279  10.521   0.353   7.489  0.4820  0.0914 -0.2995
   10MOL0     C 1280  10.925   0.291   8.091  0.1773 -0.0622  0.8086
   10MOL0     C 1281  10.986   0.265   8.210 -0.3413 -0.2476  0.6570
   10MOL0     C 1282  11.098   0.151   8.204 -0.2752 -0.1440  0.0009
   10MOL0     H 1283  11.201   0.513   8.617 -1.0925  0.6514 -0.4098
   10MOL0     H 1284  11.350   0.497   8.823  0.4149  0.2558 -2.5209
   10MOL0     H 1285  11.211   0.234   9.170  0.3749  0.7530  3.8518
   10MOL0     H 1286  11.321   0.349   9.233 -1.0258 -0.5893  1.9575
   10MOL0     H 1287  11.117   0.412   9.312  1.9995 -0.1901  0.6954
   10MOL0     H 1288  11.029   0.398   9.154 -0.7855  1.9983  0.2583
   10MOL0     H 1289  11.158   0.598   9.078  2.3927 -2.4776 -0.5249
   10MOL0     H 1290  11.258   0.596   9.219  1.0300  0.1573 -0.8762
   10MOL0     H 1291  10.959   0.661   9.205  0.8983  3.1253 -1.6527
   10MOL0     H 1292  11.030   0.619   9.357 -5.3472 -3.0928 -0.6188
   10MOL0     H 1293  11.024   0.866   9.335  2.7248  2.6455  1.3706
   10MOL0     H 1294  11.195   0.830   9.312 -0.4363  3.5522 -0.8310
   10MOL0     H 1295  11.202   0.834   9.081 -0.0613  3.1652 -1.6337
   10MOL0     H 1296  11.018   0.845   9.070  1.0549  0.4964 -0.6622
   10MOL0     H 1297  11.192   1.045   9.192 -0.2306  1.2636 -0.8419
   10MOL0     H 1298  11.020   1.061   9.164 -0.6952 -1.3808 -2.0576
   10MOL0     H 1299  11.198   0.995   8.926 -0.1064  2.2925 -3.8445
   10MOL0     H 1300  11.052   1.079   8.929 -1.7471 -2.1134  2.7676
   10MOL0     H 1301  11.066   1.346   9.047 -1.2135 -3.0526  1.5929
   10MOL0     H 1302  11.198   1.566   9.073 -1.7261  1.2634  1.8539
   10MOL0     H 1303  11.237   1.504   9.245 -0.3089  0.1869  0.0119
   10MOL0     H 1304  11.372   1.708   9.169  0.6450  0.2827  1.6937
   10MOL0     H 1305  11.468   1.573   9.225  0.9236 -3.1971 -1.7566
   10MOL0     H 1306  11.390   1.648   8.935 -2.0279 -1.9392  1.0754
   10MOL0     H 1307  11.507   1.518   8.976 -0.1177 -0.6563  2.3283
   10MOL0     H 1308  11.562   1.807   9.040  2.4044 -0.1085  2.5439
   10MOL0     H 1309  11.634   1.720   8.907 -3.8572  3.4100 -1.7054
   10MOL0     H 1310  11.718   1.396   9.142 -1.5061  2.1320  0.9470
   10MOL0     H 1311  11.894   1.260   9.029  1.1411 -0.1211 -0.9903
   10MOL0     H 1312  12.369   1.326   8.854  0.6730 -2.2987  0.9344
   10MOL0     H 1313  12.550   1.196   8.734  1.7777  1.5916 -0.9938
   10MOL0     H 1314  12.700   0.997   8.489  0.1735  0.3734  0.2390
   10MOL0     H 1315  12.663   1.060   8.652 -1.3973  0.4986 -0.2853
   10MOL0     H 1316  12.483   0.894   8.675 -1.2577  0.6354 -2.4839
   10MOL0     H 1317  12.507   0.840   8.510 -3.0779  1.3530  0.0320
   10MOL0     H 1318  12.762   0.787   8.625  0.2221  2.9475  0.1470
   10MOL0     H 1319  12.666   0.813   8.765  1.2920 -1.0809  0.3333
   10MOL0     H 1320  12.555   0.627   8.564 -0.9502  1.6239 -0.3380
   10MOL0     H 1321  12.583   0.595   8.739  0.7632  1.8655  0.7387
   10MOL0     H 1322  12.823   0.576   8.684 -2.0039  1.8294  1.6825
   10MOL0     H 1323  12.795   0.592   8.509 -0.3355  0.1266  0.5506
   10MOL0     H 1324  12.833   0.360   8.623  1.1981 -0.8321 -0.0204
   10MOL0     H 1325  12.658   0.367   8.632  2.7201  0.9335  3.0666
   10MOL0     H 1326  12.833   0.434   8.393 -0.0259 -2.0738 -2.4564
   10MOL0     H 1327  12.650   0.410   8.394 -0.3626 -2.5676 -2.4797
   10MOL0     H 1328  12.860   0.202   8.417  0.8250  1.2580 -0.9617
   10MOL0     H 1329  12.686   0.168   8.422  0.8555 -1.2138  0.2129
   10MOL0     H 1330  12.324   1.206   8.379 -2.6239 -0.5713 -0.0717
   10MOL0     H 1331  12.142   1.355   8.511  2.3376  3.0294 -2.5652
   10MOL0     H 1332  12.057   1.587   8.835  1.0919 -2.0919  0.3873
   10MOL0     H 1333  11.895   1.745   8.962 -1.4080 -1.2070  0.3702
   10MOL0     H 1334  11.065   0.195   8.956 -1.6283  1.0262  0.0412
   10MOL0     H 1335  10.927   0.242   8.769 -0.5898  1.8097  0.9165
   10MOL0     H 1336  10.795   0.461   8.409  0.3878  2.4118  0.1561
   10MOL0     H 1337  10.664   0.484   8.194 -1.7154 -1.4789  1.5288
   10MOL0     H 1338  10.576   0.299   7.868  0.8047  3.4546  0.9045
   10MOL0     H 1339  10.676   0.180   7.948 -1.6225  1.0260  1.2542
   10MOL0     H 1340  10.699   0.175   7.731  2.0218 -1.4611 -0.2824
   10MOL0     H 1341  10.854   0.205   7.809 -0.6697  0.6954  2.9134
   10MOL0     H 1342  10.901   0.406   7.708 -0.1289  1.6559 -0.7879
   10MOL0     H 1343  10.729   0.460   7.726 -3.1975 -3.7169  2.8378
   10MOL0     H 1344  10.815   0.469   7.500 -0.1274 -0.6117 -2.8156
   10MOL0     H 1345  10.846   0.294   7.490  2.7117 -0.0726  2.7897
   10MOL0     H 1346  10.414   0.365   7.491  0.5417  0.5760  0.1323
   10MOL0     H 1347  10.964   0.242   8.003 -0.4500 -0.9866  1.0333
   10MOL0     H 1348  11.054   0.082   8.277  1.4979 -0.5580  0.7310
   10MOL0     H 1349  11.100   0.114   8.101 -0.4294  2.3005 -0.9335
   10MOL0     H 1350  11.198   0.183   8.235 -1.5894  1.5653  2.9121
   11MOL0     O 1351  11.293   7.319   3.331 -0.1212 -0.2914 -0.3461
   11MOL0     C 1352  11.200   7.379   3.388 -1.2077  0.4795 -0.7044
   11MOL0     O 1353  11.168   7.515   3.385  0.2796 -0.3384  0.2996
   11MOL0     C 1354  11.239   7.582   3.283  0.0610  0.2714  0.1161
   11MOL0     C 1355  11.346   7.661   3.310 -0.2473 -0.8858  0.7687
   11MOL0     C 1356  11.423   7.704   3.200 -0.7312 -0.2132  0.3608
   11MOL0     C 1357  11.384   7.693   3.066  0.9239 -0.0345  0.1516
   11MOL0     O 1358  11.452   7.762   2.969 -0.0065 -0.5261  0.7400
   11MOL0     C 1359  11.526   7.683   2.873 -0.3915 -0.0918 -0.5940
   11MOL0     C 1360  11.678   7.720   2.879  0.0161  0.4815 -0.2039
   11MOL0     C 1361  11.716   7.862   2.840 -0.1032  0.4731  0.5247
   11MOL0     C 1362  11.641   7.989   2.906 -1.2305  0.0942  0.5638
   11MOL0     C 1363  11.713   8.125   2.885 -0.4493  0.5162  0.0809
   11MOL0     C 1364  11.823   8.132   2.982  0.2100 -0.0768  0.1144
   11MOL0     C 1365  11.888   8.270   2.993  0.1006  0.0299  0.2942
   11MOL0     C 1366  12.003   8.267   3.096  0.7817 -0.3864 -0.3936
   11MOL0     N 1367  12.034   8.403   3.136 -0.6079 -0.0802 -0.0675
   11MOL0     C 1368  12.027   8.517   3.052  0.7492  0.4917  0.7157
   11MOL0     C 1369  12.029   8.621   3.133  1.0776  0.5903  0.1982
   11MOL0     C 1370  12.026   8.771   3.102 -0.3858 -0.3294 -0.5499
   11MOL0     C 1371  11.939   8.821   2.985 -0.2644 -0.0720  2.0831
   11MOL0     C 1372  11.794   8.804   3.010  1.3116 -0.3122 -0.6861
   11MOL0     C 1373  11.738   8.887   3.132  0.0773  0.0362 -0.0813
   11MOL0     O 1374  11.593   8.901   3.147 -0.2031 -0.2319 -0.0098
   11MOL0     C 1375  11.511   8.812   3.212 -0.7491  0.1763  0.4262
   11MOL0     C 1376  11.549   8.681   3.250 -0.3184  0.7343  1.1530
   11MOL0     C 1377  11.459   8.582   3.291  0.2295  0.1921  0.2461
   11MOL0     C 1378  11.327   8.621   3.298  0.9485  0.0608  0.4272
   11MOL0     C 1379  11.235   8.515   3.341  1.0267 -0.1154 -0.5981
   11MOL0     O 1380  11.103   8.564   3.354 -0.3251  0.1819 -1.0283
   11MOL0     C 1381  11.007   8.490   3.432 -1.1573 -0.3311 -0.7623
   11MOL0     C 1382  10.984   8.358   3.400 -0.3693 -0.5024 -0.9736
   11MOL0     C 1383  10.888   8.277   3.465 -0.2100 -0.6006  0.3793
   11MOL0     C 1384  10.807   8.322   3.573  0.3081 -0.7635  0.2316
   11MOL0     O 1385  10.699   8.259   3.630 -0.0141  1.0167 -0.2159
   11MOL0     C 1386  10.683   8.121   3.607  0.9410  0.3468  0.1441
   11MOL0     C 1387  10.532   8.086   3.659 -0.9656 -1.2622  0.7234
   11MOL0     C 1388  10.516   7.932   3.676 -0.4827 -0.0234  0.9371
   11MOL0     C 1389  10.373   7.872   3.664 -0.4578  1.1158 -0.6157
   11MOL0     C 1390  10.281   7.930   3.763  0.1275  0.1823  0.7958
   11MOL0     C 1391  10.174   7.829   3.820 -0.2088 -0.5836 -0.7174
   11MOL0     C 1392  10.100   7.741   3.724 -0.3379 -0.0581  0.7650
   11MOL0     C 1393   9.957   7.788   3.691 -0.1364  0.3467 -0.3577
   11MOL0    Cl 1394   9.892   7.711   3.549  0.0859 -0.2648 -0.3909
   11MOL0     C 1395  10.815   8.460   3.590 -0.1774 -0.4637 -0.1145
   11MOL0     C 1396  10.916   8.546   3.524 -0.0481  0.3506  0.1084
   11MOL0     O 1397  11.277   8.409   3.392  0.7101 -0.4517 -0.0038
   11MOL0     C 1398  11.281   8.750   3.258  0.0510  0.6323  1.1217
   11MOL0     C 1399  11.374   8.849   3.222  0.2058  0.0203 -0.6936
   11MOL0     N 1400  12.031   8.582   3.262  0.3291  0.0772 -0.2650
   11MOL0     N 1401  12.034   8.451   3.263  0.7125 -0.9729 -0.3706
   11MOL0     C 1402  11.275   7.618   3.042  0.1893 -1.1037  0.8611
   11MOL0     C 1403  11.196   7.564   3.151 -0.5354 -0.8682 -0.2514
   11MOL0     C 1404  11.145   7.308   3.495 -0.8738  0.3734 -0.5295
   11MOL0     C 1405  11.132   7.382   3.612 -1.2136 -0.4039  0.5152
   11MOL0     C 1406  11.084   7.328   3.730  0.2595 -0.3488  0.1853
   11MOL0     C 1407  11.035   7.195   3.733 -1.3328 -0.7772  0.4671
   11MOL0     O 1408  10.965   7.146   3.842  0.3011 -0.5747  0.1860
   11MOL0     C 1409  10.983   7.012   3.896  0.5061  0.1709  0.6287
   11MOL0     C 1410  10.989   7.000   4.040 -0.5379 -0.1222 -0.1617
   11MOL0     C 1411  10.869   7.082   4.109 -0.4960  0.4216  0.1240
   11MOL0     C 1412  10.733   7.016   4.084  0.0813  0.4589  0.0526
   11MOL0     C 1413  10.617   7.098   4.126 -0.0037  0.4640  0.5747
   11MOL0     C 1414  10.517   7.152   4.171  0.3645  0.5959 -0.5758
   11MOL0     C 1415  11.049   7.124   3.616 -0.2069  0.4419  1.5560
   11MOL0     C 1416  11.094   7.173   3.491 -0.6560 -0.8635  0.2534
   11MOL0     C 1417  11.098   7.085   3.366  0.2052  1.1643 -0.3144
   11MOL0     H 1418  11.367   7.687   3.413 -0.7019  0.1171  0.6249
   11MOL0     H 1419  11.514   7.762   3.209 -1.3056  0.5439  1.4797
   11MOL0     H 1420  11.529   7.580   2.907 -3.1759 -0.7886 -2.1291
   11MOL0     H 1421  11.473   7.680   2.777 -0.8180  0.8043 -0.3972
   11MOL0     H 1422  11.746   7.647   2.834  0.2441 -0.1198  1.0576
   11MOL0     H 1423  11.700   7.707   2.985 -1.2440  3.6786  0.5644
   11MOL0     H 1424  11.680   7.861   2.736  1.8497 -1.3102 -0.2027
   11MOL0     H 1425  11.824   7.876   2.846 -0.1886  2.1112 -0.8650
   11MOL0     H 1426  11.547   8.001   2.852 -1.6347  0.2279  1.2843
   11MOL0     H 1427  11.623   7.972   3.013 -3.1393 -1.3128  0.0706
   11MOL0     H 1428  11.756   8.136   2.785 -1.4378 -0.3244 -0.4536
   11MOL0     H 1429  11.644   8.208   2.903  1.3213  1.7149  1.7739
   11MOL0     H 1430  11.787   8.104   3.082 -0.9121 -1.6922 -0.6914
   11MOL0     H 1431  11.889   8.054   2.943  0.2324  0.6478 -1.3474
   11MOL0     H 1432  11.826   8.355   3.022 -0.7965 -0.8556  1.0318
   11MOL0     H 1433  11.942   8.289   2.899  1.5096  0.1909  1.1116
   11MOL0     H 1434  11.977   8.192   3.172 -4.6041  0.2218 -1.2799
   11MOL0     H 1435  12.089   8.233   3.036  0.4558 -0.4463 -0.8285
   11MOL0     H 1436  12.046   8.515   2.945  2.6219  0.6749  1.0109
   11MOL0     H 1437  12.010   8.834   3.191 -0.0746 -0.0199 -0.7121
   11MOL0     H 1438  12.126   8.803   3.072  0.4955 -2.1032  0.3016
   11MOL0     H 1439  11.967   8.920   2.948 -0.3044 -0.3555  1.2926
   11MOL0     H 1440  11.974   8.755   2.905 -1.2069 -0.8790  2.3199
   11MOL0     H 1441  11.765   8.699   3.022 -1.8611  0.3652 -1.5226
   11MOL0     H 1442  11.745   8.843   2.921  0.6380 -1.6293 -0.9260
   11MOL0     H 1443  11.772   8.989   3.112  3.6063 -0.9016  0.4190
   11MOL0     H 1444  11.777   8.850   3.227  0.2343 -0.3928 -0.3083
   11MOL0     H 1445  11.651   8.644   3.248 -1.5904 -3.1713  0.1317
   11MOL0     H 1446  11.501   8.483   3.307 -0.5963 -0.4500 -1.3952
   11MOL0     H 1447  11.041   8.304   3.324 -0.2385 -2.8155  0.6412
   11MOL0     H 1448  10.880   8.173   3.436  1.0332 -0.9682  1.2680
   11MOL0     H 1449  10.684   8.085   3.504 -1.3925 -2.5339  0.9774
   11MOL0     H 1450  10.755   8.061   3.663 -2.1321 -1.7562  2.2362
   11MOL0     H 1451  10.517   8.152   3.745  0.0466 -0.7837  0.5481
   11MOL0     H 1452  10.457   8.118   3.587 -1.5333 -1.7812  1.0757
   11MOL0     H 1453  10.569   7.878   3.596 -3.5448 -2.0096  0.0621
   11MOL0     H 1454  10.557   7.907   3.774  3.9430 -0.2377 -0.7422
   11MOL0     H 1455  10.380   7.765   3.685  2.1043  1.3182 -0.1137
   11MOL0     H 1456  10.329   7.883   3.564  0.6774 -2.2168 -1.6274
   11MOL0     H 1457  10.233   8.019   3.722  0.0802  1.1561  2.8159
   11MOL0     H 1458  10.343   7.967   3.845  0.7303  1.9419 -0.3930
   11MOL0     H 1459  10.232   7.757   3.880  0.0416 -2.5208 -3.0996
   11MOL0     H 1460  10.093   7.869   3.881 -1.1216 -0.3676 -2.0367
   11MOL0     H 1461  10.099   7.642   3.773  0.8613  0.7603  2.5745
   11MOL0     H 1462  10.153   7.732   3.629 -0.4296 -4.5074  0.8940
   11MOL0     H 1463   9.900   7.780   3.784  0.7288  0.8957  0.2326
   11MOL0     H 1464   9.958   7.896   3.674 -2.2901  0.4500 -0.0799
   11MOL0     H 1465  10.737   8.495   3.657  1.6365  1.3469  1.1704
   11MOL0     H 1466  10.911   8.651   3.551  0.6334  0.1321  1.1056
   11MOL0     H 1467  11.175   8.769   3.255  0.4094  3.0605 -1.9034
   11MOL0     H 1468  11.330   8.945   3.197  1.2397  0.9121  0.8033
   11MOL0     H 1469  11.238   7.607   2.941  0.9018 -4.2364  0.8318
   11MOL0     H 1470  11.100   7.515   3.139 -2.0430  1.4177  1.6105
   11MOL0     H 1471  11.174   7.482   3.607  2.2236 -1.7813 -0.5339
   11MOL0     H 1472  11.082   7.379   3.826 -0.5996 -0.2229  0.1085
   11MOL0     H 1473  11.074   6.967   3.856 -0.0120 -0.6389  0.3126
   11MOL0     H 1474  10.898   6.949   3.865  0.6232 -0.3819  1.3975
   11MOL0     H 1475  11.079   7.050   4.077 -1.1635  0.4190  0.6615
   11MOL0     H 1476  10.971   6.901   4.082 -0.4981  0.9775  2.7078
   11MOL0     H 1477  10.863   7.175   4.052 -0.5381 -0.6172 -1.6349
   11MOL0     H 1478  10.875   7.107   4.215 -0.9515 -1.9603  0.7640
   11MOL0     H 1479  10.725   7.015   3.975  1.3309 -1.9417 -0.0794
   11MOL0     H 1480  10.727   6.917   4.132  3.3710 -1.4305 -2.9415
   11MOL0     H 1481  10.421   7.188   4.200 -1.1632 -3.8549  0.7143
   11MOL0     H 1482  11.023   7.019   3.620  0.6357  0.0955 -0.6292
   11MOL0     H 1483  11.202   7.054   3.352 -0.7586 -1.3602 -3.2332
   11MOL0     H 1484  11.025   7.004   3.378  0.5354  0.7737 -0.8520
   11MOL0     H 1485  11.063   7.150   3.285 -2.0136  1.5444  0.8916
   12MOL0     O 1486   5.901   7.487   9.983 -0.1325  0.0812 -0.3140
   12MOL0     C 1487   5.883   7.394   9.900  0.9931 -0.4748  1.0686
   12MOL0     O 1488   5.798   7.290   9.929  0.3442 -0.2963 -1.1145
   12MOL0     C 1489   5.776   7.258  10.070  0.0920  0.5316  0.1291
   12MOL0     C 1490   5.646   7.210  10.117 -0.6954 -0.2659 -0.3800
   12MOL0     C 1491   5.629   7.170  10.247  0.2510  0.4471  0.0588
   12MOL0     C 1492   5.732   7.176  10.342 -0.3911 -0.8090  0.1264
   12MOL0     O 1493   5.738   7.128  10.474 -0.0133  0.0687 -0.0352
   12MOL0     C 1494   5.613   7.144  10.552  0.1561 -0.3319  0.0200
   12MOL0     C 1495   5.595   7.055  10.674  0.1143 -0.0269 -0.0166
   12MOL0     C 1496   5.461   7.075  10.755  0.1173 -0.6096 -1.1800
   12MOL0     C 1497   5.455   7.217  10.812 -0.2553 -0.3517  0.8207
   12MOL0     C 1498   5.344   7.225  10.913  0.4340 -0.9414  0.3037
   12MOL0     C 1499   5.334   7.359  10.981 -0.7598  0.0287 -0.1101
   12MOL0     C 1500   5.229   7.382  11.082  0.3148  0.6119 -0.0731
   12MOL0     C 1501   5.213   7.518  11.129 -0.6252  0.0843  0.9252
   12MOL0     N 1502   5.101   7.533  11.223 -0.3735 -0.1229 -0.1818
   12MOL0     C 1503   4.971   7.536  11.186  0.3608  0.3086 -0.4145
   12MOL0     C 1504   4.902   7.511  11.295 -0.4334 -0.1873 -0.9001
   12MOL0     C 1505   4.764   7.475  11.299 -0.1052 -0.0227 -0.5045
   12MOL0     C 1506   4.687   7.575  11.380 -0.1339  0.7443 -0.8333
   12MOL0     C 1507   4.560   7.507  11.419  0.7531  0.3995  0.0903
   12MOL0     C 1508   4.469   7.602  11.505  0.3098  0.2121  0.1968
   12MOL0     O 1509   4.425   7.716  11.425 -1.3778 -0.4873  0.0729
   12MOL0     C 1510   4.303   7.697  11.376  0.2090  0.8897  0.7627
   12MOL0     C 1511   4.188   7.679  11.451  0.2326 -0.3192 -0.4978
   12MOL0     C 1512   4.073   7.632  11.402  0.5853  0.3906 -0.9032
   12MOL0     C 1513   4.076   7.588  11.266  0.7619  0.1729  0.8324
   12MOL0     C 1514   3.950   7.534  11.209  0.0029  0.2352  0.4830
   12MOL0     O 1515   3.929   7.537  11.072  0.2619  0.0759 -0.2184
   12MOL0     C 1516   3.805   7.518  11.024 -0.2341  0.7905 -1.0171
   12MOL0     C 1517   3.728   7.627  10.997  0.6432 -0.1587 -0.7111
   12MOL0     C 1518   3.599   7.603  10.944  0.4186 -0.0821 -0.0500
   12MOL0     C 1519   3.541   7.465  10.932 -0.3967  0.2415 -0.2120
   12MOL0     O 1520   3.413   7.435  10.887 -0.6252  0.6816 -0.1634
   12MOL0     C 1521   3.322   7.546  10.861  0.3054 -1.1170  0.3870
   12MOL0     C 1522   3.193   7.479  10.815 -0.3715  0.2028 -0.8971
   12MOL0     C 1523   3.123   7.407  10.925  0.7890 -0.3217 -0.7277
   12MOL0     C 1524   3.018   7.316  10.864  1.2842 -0.5463 -0.4649
   12MOL0     C 1525   2.930   7.266  10.983 -0.4776  0.8694 -0.2061
   12MOL0     C 1526   2.819   7.363  11.037  0.4953 -1.1328 -1.0572
   12MOL0     C 1527   2.673   7.300  11.015 -0.8174  0.1379  0.2796
   12MOL0     C 1528   2.631   7.299  10.867 -0.8942  0.7953  0.1104
   12MOL0    Cl 1529   2.475   7.214  10.851  0.1021  0.0552  0.1231
   12MOL0     C 1530   3.627   7.359  10.968 -0.4656 -0.3985  0.4935
   12MOL0     C 1531   3.754   7.384  11.015 -0.6811 -0.2181  0.4544
   12MOL0     O 1532   3.876   7.475  11.285 -0.3221 -1.0562 -0.1266
   12MOL0     C 1533   4.185   7.608  11.184 -0.3251  0.1036  0.0660
   12MOL0     C 1534   4.303   7.661  11.237  0.4042 -0.1163 -0.9978
   12MOL0     N 1535   4.989   7.500  11.402 -0.0889  0.2654 -0.3514
   12MOL0     N 1536   5.113   7.522  11.362  0.3893 -0.4699  0.2232
   12MOL0     C 1537   5.859   7.235  10.299 -0.0740  0.4801  0.2755
   12MOL0     C 1538   5.881   7.258  10.163 -0.1956 -0.1514  0.4603
   12MOL0     C 1539   5.950   7.408   9.766 -0.7693 -0.8807  0.4530
   12MOL0     C 1540   5.961   7.548   9.716  0.0961 -0.0426 -0.3109
   12MOL0     C 1541   6.025   7.577   9.590  0.0449  0.2971 -0.4920
   12MOL0     C 1542   6.067   7.462   9.511  0.5064 -1.6576  0.6181
   12MOL0     O 1543   6.139   7.475   9.389 -0.1441  0.0347 -0.5615
   12MOL0     C 1544   6.148   7.596   9.322  0.4806  0.4099 -0.0787
   12MOL0     C 1545   6.199   7.577   9.181 -0.7510 -0.0163 -1.2848
   12MOL0     C 1546   6.196   7.699   9.084  0.5061 -0.5697 -0.4873
   12MOL0     C 1547   6.206   7.842   9.149 -0.3226  0.2641  0.2028
   12MOL0     C 1548   6.077   7.896   9.178 -0.2678 -0.5853  0.7587
   12MOL0     C 1549   5.974   7.950   9.213  0.1563 -0.2999 -0.7435
   12MOL0     C 1550   6.058   7.335   9.561  0.3401 -1.2095  0.2487
   12MOL0     C 1551   6.004   7.304   9.682  0.8271  0.9966  0.2119
   12MOL0     C 1552   5.996   7.160   9.726 -0.3845  0.2273 -0.5963
   12MOL0     H 1553   5.572   7.196  10.038  0.8958  0.0171 -2.0015
   12MOL0     H 1554   5.535   7.119  10.268  0.4240 -0.6719 -1.7052
   12MOL0     H 1555   5.605   7.249  10.581  1.5919  0.5796 -2.5212
   12MOL0     H 1556   5.526   7.123  10.489  1.2909  2.4921 -2.7927
   12MOL0     H 1557   5.675   7.073  10.747 -1.1794  3.2352  0.7743
   12MOL0     H 1558   5.589   6.952  10.639  0.9132 -0.4532  1.0454
   12MOL0     H 1559   5.451   7.014  10.845 -3.0027 -0.0484 -1.0636
   12MOL0     H 1560   5.373   7.055  10.694 -0.4680 -1.0973 -0.2028
   12MOL0     H 1561   5.549   7.249  10.858 -0.4921  3.4600 -0.9516
   12MOL0     H 1562   5.426   7.293  10.738  1.3803 -2.3374 -2.0663
   12MOL0     H 1563   5.247   7.206  10.866 -0.4231  0.8173  1.2723
   12MOL0     H 1564   5.354   7.145  10.988  2.3849 -3.7146 -2.6549
   12MOL0     H 1565   5.426   7.380  11.035 -0.7328  1.2045 -0.5841
   12MOL0     H 1566   5.327   7.428  10.897  1.8992 -1.8064 -2.0090
   12MOL0     H 1567   5.247   7.320  11.171 -1.7189  0.4407  0.2744
   12MOL0     H 1568   5.130   7.365  11.038  1.1906  0.3422 -2.0414
   12MOL0     H 1569   5.305   7.535  11.186  1.3109 -7.3529  1.0273
   12MOL0     H 1570   5.204   7.587  11.044 -1.0951  0.2486  1.1014
   12MOL0     H 1571   4.920   7.557  11.093 -0.3971 -0.6491 -0.2295
   12MOL0     H 1572   4.716   7.478  11.200 -0.1259 -3.1520 -0.6850
   12MOL0     H 1573   4.743   7.376  11.339 -1.6835 -0.4023 -2.1379
   12MOL0     H 1574   4.744   7.586  11.473 -3.3188  0.1817  1.3488
   12MOL0     H 1575   4.665   7.669  11.330 -0.3856  0.5456 -1.0956
   12MOL0     H 1576   4.598   7.416  11.467  0.8783 -0.8391 -2.2344
   12MOL0     H 1577   4.510   7.470  11.330 -2.0115 -0.6037  1.9228
   12MOL0     H 1578   4.517   7.660  11.584 -2.1808  3.4398 -0.4398
   12MOL0     H 1579   4.380   7.549  11.538 -0.5547  0.8898 -0.9318
   12MOL0     H 1580   4.188   7.701  11.558 -0.2912  2.2780 -0.9781
   12MOL0     H 1581   3.985   7.630  11.465  1.6956 -1.2308  0.6754
   12MOL0     H 1582   3.757   7.730  11.015 -1.3803 -0.0034  2.5961
   12MOL0     H 1583   3.535   7.684  10.910  0.6276 -0.5497 -1.6615
   12MOL0     H 1584   3.323   7.612  10.948  0.7507 -2.0393  1.0963
   12MOL0     H 1585   3.375   7.600  10.782  1.3948 -2.0488  0.4503
   12MOL0     H 1586   3.116   7.546  10.777 -2.7860 -0.3513  2.5597
   12MOL0     H 1587   3.218   7.410  10.734 -1.5370  0.6531 -1.6599
   12MOL0     H 1588   3.208   7.369  10.983  0.5798  2.3809  1.5316
   12MOL0     H 1589   3.077   7.478  10.994  3.3363 -0.4738  1.2740
   12MOL0     H 1590   3.083   7.248  10.809  0.7947  1.3635 -3.6839
   12MOL0     H 1591   2.949   7.376  10.804 -1.2689 -1.0811  1.7455
   12MOL0     H 1592   3.006   7.245  11.059 -0.6168  1.8654  0.2230
   12MOL0     H 1593   2.880   7.173  10.953  0.4637  1.0681 -2.5505
   12MOL0     H 1594   2.831   7.361  11.146  1.4845  1.0760 -1.0714
   12MOL0     H 1595   2.837   7.467  11.008  2.0863 -1.1703 -0.3256
   12MOL0     H 1596   2.594   7.358  11.063 -1.7607 -0.2558 -0.7535
   12MOL0     H 1597   2.671   7.203  11.065 -0.9110 -0.7505 -1.3588
   12MOL0     H 1598   2.615   7.401  10.831  1.3077  1.3290  0.4887
   12MOL0     H 1599   2.701   7.254  10.797 -0.2792  1.9183 -0.0005
   12MOL0     H 1600   3.604   7.254  10.979 -0.8326 -0.4688 -0.7964
   12MOL0     H 1601   3.809   7.294  11.039  0.0199 -1.1039 -3.6990
   12MOL0     H 1602   4.179   7.571  11.082 -1.9783  0.8465 -0.1374
   12MOL0     H 1603   4.391   7.676  11.175  0.6782  0.3982 -0.4918
   12MOL0     H 1604   5.940   7.253  10.369  0.3364 -4.5492  1.4680
   12MOL0     H 1605   5.975   7.282  10.116 -0.1963 -2.9247 -1.1773
   12MOL0     H 1606   5.933   7.622   9.791  3.5356 -0.8216  1.9468
   12MOL0     H 1607   6.040   7.681   9.563 -0.2292 -0.2779 -3.0846
   12MOL0     H 1608   6.210   7.672   9.371 -1.4412  2.2614 -0.3814
   12MOL0     H 1609   6.051   7.646   9.328  1.4280  2.2006  1.5253
   12MOL0     H 1610   6.134   7.499   9.141  0.0535 -3.2363  2.9199
   12MOL0     H 1611   6.304   7.546   9.190 -1.1653 -1.3810 -0.9587
   12MOL0     H 1612   6.103   7.704   9.027 -0.7771 -2.3774  1.2889
   12MOL0     H 1613   6.284   7.696   9.019  1.2291  1.4457  0.3318
   12MOL0     H 1614   6.243   7.841   9.252  1.0861 -1.2633 -0.2705
   12MOL0     H 1615   6.268   7.911   9.091  0.6351  0.1205  1.0336
   12MOL0     H 1616   5.885   8.000   9.246  1.0615  1.3697 -0.6995
   12MOL0     H 1617   6.079   7.250   9.497  1.7650 -0.2628 -0.5980
   12MOL0     H 1618   5.993   7.106   9.631  2.1563  0.7660 -1.0702
   12MOL0     H 1619   6.087   7.140   9.783 -0.1664  0.4725 -0.8522
   12MOL0     H 1620   5.908   7.140   9.788 -0.3213  0.4579 -0.4295
   13MOL0     O 1621   0.793   1.476   4.661  0.6989  0.0522  0.2403
   13MOL0     C 1622   0.748   1.555   4.749 -0.6401  0.0193 -0.1557
   13MOL0     O 1623   0.629   1.553   4.808  0.3450  0.1717 -0.6201
   13MOL0     C 1624   0.543   1.457   4.760  0.1720 -0.2572 -0.3207
   13MOL0     C 1625   0.507   1.345   4.836  0.0393  0.3599  0.0985
   13MOL0     C 1626   0.398   1.266   4.796  0.4090 -0.7337  0.6479
   13MOL0     C 1627   0.337   1.293   4.671  0.6861  0.5154  0.1676
   13MOL0     O 1628   0.234   1.215   4.649  0.1169 -0.3935  0.2361
   13MOL0     C 1629   0.135   1.267   4.555  0.3456 -1.0618  0.3413
   13MOL0     C 1630  -0.005   1.200   4.554  0.7785 -0.5100 -0.9443
   13MOL0     C 1631  -0.109   1.253   4.659 -0.2441  0.8799  0.2996
   13MOL0     C 1632  -0.229   1.155   4.643  0.1111 -0.0898  0.5684
   13MOL0     C 1633  -0.344   1.205   4.736 -0.4076  0.7404  1.1482
   13MOL0     C 1634  -0.333   1.146   4.879 -0.3578 -0.4977  0.7212
   13MOL0     C 1635  -0.425   1.216   4.988 -0.8108  0.4635  0.4105
   13MOL0     C 1636  -0.574   1.189   4.957 -0.5374  0.6060 -0.6558
   13MOL0     N 1637  -0.665   1.229   5.061 -1.4258  0.0674 -0.3197
   13MOL0     C 1638  -0.723   1.354   5.071 -0.8913  0.6761  1.0213
   13MOL0     C 1639  -0.821   1.342   5.166  1.0895  0.6051  0.4097
   13MOL0     C 1640  -0.908   1.464   5.224  0.3887 -0.1190  0.3574
   13MOL0     C 1641  -0.828   1.549   5.311  0.2175 -1.0132 -0.1799
   13MOL0     C 1642  -0.919   1.638   5.395 -0.6103  1.1229 -0.0905
   13MOL0     C 1643  -0.837   1.718   5.494  0.1234  1.2173  1.0137
   13MOL0     O 1644  -0.941   1.788   5.575  0.2631  0.2968 -0.3222
   13MOL0     C 1645  -0.909   1.910   5.632  0.0131  0.0806  0.4981
   13MOL0     C 1646  -1.013   1.980   5.683 -0.4225  0.1756  0.7574
   13MOL0     C 1647  -0.985   2.103   5.748 -0.8223  0.3911 -0.9324
   13MOL0     C 1648  -0.857   2.145   5.777  0.5027  0.3031 -1.0764
   13MOL0     C 1649  -0.830   2.259   5.860  0.1616 -0.3225  0.5134
   13MOL0     O 1650  -0.701   2.308   5.870  0.1259  0.1728  0.1890
   13MOL0     C 1651  -0.677   2.410   5.949  0.6580 -0.0162  0.2193
   13MOL0     C 1652  -0.637   2.395   6.083 -0.2211  0.6449 -0.3544
   13MOL0     C 1653  -0.627   2.495   6.178 -0.1336 -0.8507  0.7046
   13MOL0     C 1654  -0.675   2.621   6.153  0.2446 -0.4754  0.5350
   13MOL0     O 1655  -0.686   2.717   6.251  0.3894 -0.4427  0.0325
   13MOL0     C 1656  -0.806   2.801   6.265  0.4409 -0.9599  0.2212
   13MOL0     C 1657  -0.942   2.717   6.288 -0.3127 -0.4171 -0.0249
   13MOL0     C 1658  -0.917   2.588   6.368  0.4390 -0.0151  0.4490
   13MOL0     C 1659  -1.036   2.503   6.407  1.0733  0.4419  0.4894
   13MOL0     C 1660  -1.084   2.407   6.288  1.4011 -0.1133  0.9373
   13MOL0     C 1661  -1.233   2.372   6.295 -0.3271  0.3566  0.0707
   13MOL0     C 1662  -1.299   2.339   6.164  0.1604  0.2570 -1.0054
   13MOL0     C 1663  -1.269   2.203   6.111 -0.5726  0.8648 -0.8265
   13MOL0    Cl 1664  -1.359   2.195   5.945  0.0805 -0.1739 -0.6892
   13MOL0     C 1665  -0.718   2.636   6.020 -0.8238 -0.6839 -0.8129
   13MOL0     C 1666  -0.731   2.540   5.925 -0.0097 -0.2404  0.6784
   13MOL0     O 1667  -0.928   2.307   5.918 -0.1174  0.1996 -0.1022
   13MOL0     C 1668  -0.750   2.072   5.731 -0.2150  0.5041 -0.1834
   13MOL0     C 1669  -0.779   1.966   5.649  0.4778 -0.3934  0.1352
   13MOL0     N 1670  -0.816   1.207   5.220 -0.6106 -0.5387 -0.3167
   13MOL0     N 1671  -0.726   1.151   5.150 -0.3339  0.1284 -0.3596
   13MOL0     C 1672   0.375   1.407   4.592  0.1192  0.5404 -0.3147
   13MOL0     C 1673   0.480   1.483   4.638 -0.3667 -0.5868 -0.6637
   13MOL0     C 1674   0.829   1.672   4.794 -0.9824 -0.2785 -0.5622
   13MOL0     C 1675   0.819   1.698   4.930  1.3521 -0.7763  0.3208
   13MOL0     C 1676   0.877   1.810   4.992 -0.3056  0.1065  1.2155
   13MOL0     C 1677   0.946   1.901   4.919 -0.9491 -0.0688 -1.6071
   13MOL0     O 1678   0.994   2.019   4.977 -0.3058  0.3461  0.0599
   13MOL0     C 1679   1.131   2.060   4.965 -0.2274 -0.6015 -0.2059
   13MOL0     C 1680   1.166   2.176   5.062 -0.1455 -0.0887  0.1289
   13MOL0     C 1681   1.079   2.306   5.036 -0.3872 -0.7732  0.2382
   13MOL0     C 1682   1.090   2.348   4.884 -0.5086 -0.7382 -0.8731
   13MOL0     C 1683   1.022   2.480   4.865  0.3994  0.2787 -0.1198
   13MOL0     C 1684   0.966   2.582   4.858  0.1690 -0.1111  0.3988
   13MOL0     C 1685   0.962   1.886   4.778 -0.2118 -0.9165 -0.2217
   13MOL0     C 1686   0.907   1.774   4.720  0.5440  0.3830 -0.2578
   13MOL0     C 1687   0.944   1.755   4.573 -0.4412  0.9521  0.0672
   13MOL0     H 1688   0.579   1.330   4.915  1.0198  2.2877 -0.3653
   13MOL0     H 1689   0.354   1.191   4.862 -0.6881  1.5524  2.7032
   13MOL0     H 1690   0.115   1.374   4.565  1.4051 -1.0665  3.3757
   13MOL0     H 1691   0.179   1.263   4.455 -2.6453  1.4623 -1.2766
   13MOL0     H 1692   0.009   1.091   4.557 -2.1701 -0.9744  2.4226
   13MOL0     H 1693  -0.064   1.212   4.463 -1.4080  0.4541  0.5125
   13MOL0     H 1694  -0.141   1.356   4.639 -0.8245  0.5203 -0.6994
   13MOL0     H 1695  -0.072   1.245   4.762  3.3725  1.8986 -0.7586
   13MOL0     H 1696  -0.267   1.176   4.543 -0.9994  0.5214  1.1048
   13MOL0     H 1697  -0.200   1.050   4.651 -1.3135 -0.4144  2.0908
   13MOL0     H 1698  -0.354   1.314   4.726  1.7473  0.7538 -2.7381
   13MOL0     H 1699  -0.437   1.161   4.701  1.3567 -3.3080  1.0715
   13MOL0     H 1700  -0.350   1.038   4.885  0.2557 -0.5443  4.6982
   13MOL0     H 1701  -0.228   1.159   4.908  0.5876 -0.7637 -2.2644
   13MOL0     H 1702  -0.397   1.321   5.000  1.7892 -0.3948  3.0866
   13MOL0     H 1703  -0.402   1.170   5.084 -0.9792  1.8470  1.1485
   13MOL0     H 1704  -0.604   1.234   4.862 -1.7033 -0.7069 -0.9495
   13MOL0     H 1705  -0.590   1.081   4.945 -1.8566  0.8651 -1.3633
   13MOL0     H 1706  -0.697   1.438   5.007 -3.3491  1.3323  0.7657
   13MOL0     H 1707  -0.967   1.513   5.147  1.0988 -2.0632 -1.5617
   13MOL0     H 1708  -0.982   1.415   5.288 -0.9977  1.3029 -0.1084
   13MOL0     H 1709  -0.768   1.485   5.377  1.2444  0.7036  0.6257
   13MOL0     H 1710  -0.761   1.609   5.249 -0.9977  0.1485 -0.4210
   13MOL0     H 1711  -1.003   1.583   5.437 -1.7036 -0.1244 -3.5388
   13MOL0     H 1712  -0.968   1.711   5.330 -4.3995  1.3268  2.6512
   13MOL0     H 1713  -0.762   1.784   5.449  0.4363  0.5144  0.4889
   13MOL0     H 1714  -0.784   1.639   5.548 -0.1039  0.6722  0.4439
   13MOL0     H 1715  -1.110   1.943   5.650  0.6955 -0.0531 -2.6759
   13MOL0     H 1716  -1.066   2.175   5.754 -2.8039 -1.1681 -5.3039
   13MOL0     H 1717  -0.597   2.298   6.109  0.2693  0.5310 -1.4630
   13MOL0     H 1718  -0.607   2.464   6.280  1.7547 -2.4896 -0.0995
   13MOL0     H 1719  -0.790   2.882   6.336 -1.5853  0.4471 -0.8465
   13MOL0     H 1720  -0.814   2.865   6.176 -1.3726  4.3199  3.7142
   13MOL0     H 1721  -1.011   2.776   6.350 -0.4377 -2.8512  2.3201
   13MOL0     H 1722  -0.986   2.696   6.191 -0.7026  1.6226 -0.3421
   13MOL0     H 1723  -0.852   2.528   6.303 -1.3323  2.6311 -4.3252
   13MOL0     H 1724  -0.852   2.599   6.456  0.6076  1.9760  0.1423
   13MOL0     H 1725  -1.110   2.569   6.451 -1.6509  0.8458 -4.1042
   13MOL0     H 1726  -1.009   2.424   6.478  1.3499  0.5669  0.5279
   13MOL0     H 1727  -1.022   2.318   6.303  2.0671  0.1270 -0.2586
   13MOL0     H 1728  -1.065   2.448   6.188  0.3740 -1.0886  0.3174
   13MOL0     H 1729  -1.253   2.287   6.360  1.5607 -0.2873 -0.1293
   13MOL0     H 1730  -1.285   2.458   6.339 -3.2013 -2.8477  3.6631
   13MOL0     H 1731  -1.291   2.421   6.092 -1.6727  0.1560 -1.3817
   13MOL0     H 1732  -1.403   2.338   6.197 -0.2830 -1.5224 -2.3063
   13MOL0     H 1733  -1.165   2.174   6.095 -1.0989 -3.8683  2.3761
   13MOL0     H 1734  -1.302   2.123   6.178  0.6791  1.6066  0.7416
   13MOL0     H 1735  -0.746   2.739   5.999 -0.9831 -0.2164  1.4327
   13MOL0     H 1736  -0.768   2.565   5.826  0.1322  0.7939  0.8761
   13MOL0     H 1737  -0.647   2.096   5.752 -0.2903  3.6270 -2.6838
   13MOL0     H 1738  -0.693   1.905   5.624  0.2385 -1.1402  1.0874
   13MOL0     H 1739   0.335   1.423   4.493 -2.0630 -2.8622 -0.1393
   13MOL0     H 1740   0.516   1.564   4.575 -0.4233 -0.3019 -0.3285
   13MOL0     H 1741   0.763   1.630   4.994  1.2760 -0.6503  0.3883
   13MOL0     H 1742   0.858   1.830   5.097  0.6148  1.2300  1.1802
   13MOL0     H 1743   1.153   2.087   4.861 -0.1264 -0.0938 -0.0576
   13MOL0     H 1744   1.205   1.980   4.974  2.4772  1.8334  0.7162
   13MOL0     H 1745   1.268   2.215   5.062  0.0625 -0.6190  0.5952
   13MOL0     H 1746   1.148   2.149   5.167  0.9643 -2.5850 -0.2582
   13MOL0     H 1747   1.124   2.382   5.100  1.4413 -0.9884 -0.7106
   13MOL0     H 1748   0.975   2.293   5.066 -2.0054  1.8091 -3.4549
   13MOL0     H 1749   1.194   2.367   4.854 -1.2981  1.6834 -2.4077
   13MOL0     H 1750   1.045   2.278   4.813  2.6620  0.2061 -4.1427
   13MOL0     H 1751   0.912   2.673   4.841 -2.0753 -1.6644 -1.4594
   13MOL0     H 1752   1.018   1.963   4.726  0.0412 -1.4803 -0.7966
   13MOL0     H 1753   0.961   1.848   4.518 -1.2669  1.4955  0.7174
   13MOL0     H 1754   1.038   1.699   4.563 -3.5006 -5.1173  0.6468
   13MOL0     H 1755   0.863   1.698   4.526  0.9956 -1.3549  0.2165
   14MOL0     O 1756   5.863   5.862   4.691  0.1129 -0.3236 -0.2361
   14MOL0     C 1757   5.855   5.808   4.581 -0.3345  0.8442  0.2253
   14MOL0     O 1758   5.953   5.738   4.508 -0.3118  0.2375 -0.0673
   14MOL0     C 1759   6.062   5.704   4.585  0.7598 -0.2382  0.7629
   14MOL0     C 1760   6.062   5.601   4.671 -0.3723  0.7891  0.3638
   14MOL0     C 1761   6.182   5.575   4.744 -1.0038  0.4078 -0.6063
   14MOL0     C 1762   6.293   5.665   4.752  0.2104  0.8639  0.0034
   14MOL0     O 1763   6.420   5.625   4.799  0.9799 -0.2322 -0.7059
   14MOL0     C 1764   6.438   5.498   4.864 -0.5098 -0.6461 -0.2736
   14MOL0     C 1765   6.543   5.523   4.970  0.1149 -0.0774 -0.1619
   14MOL0     C 1766   6.628   5.395   5.002 -0.3500  0.9000  0.7352
   14MOL0     C 1767   6.739   5.367   4.901  0.0188  1.0951  0.1579
   14MOL0     C 1768   6.815   5.244   4.940  0.5496 -0.4113 -0.3303
   14MOL0     C 1769   6.930   5.218   4.839 -0.0125  0.9586  1.2270
   14MOL0     C 1770   7.034   5.110   4.878 -0.5523 -1.1673  0.0111
   14MOL0     C 1771   7.168   5.160   4.953 -0.1673 -0.7274 -0.1255
   14MOL0     N 1772   7.205   5.073   5.074  0.9241  0.2478 -0.7271
   14MOL0     C 1773   7.252   5.108   5.197  0.1384 -0.3785 -0.7615
   14MOL0     C 1774   7.243   4.990   5.271  0.3316  0.6923 -0.0642
   14MOL0     C 1775   7.287   4.977   5.410  0.0011  0.4460 -0.3474
   14MOL0     C 1776   7.214   5.071   5.506  0.0209 -0.4830  0.3056
   14MOL0     C 1777   7.313   5.168   5.565  0.0327 -0.9113 -1.3139
   14MOL0     C 1778   7.235   5.260   5.657 -0.1073  0.6420  0.0184
   14MOL0     O 1779   7.168   5.189   5.756 -0.6888  0.3069  0.2932
   14MOL0     C 1780   7.174   5.223   5.890 -0.7575  0.7784  0.2708
   14MOL0     C 1781   7.229   5.335   5.951 -0.2329 -0.5239 -0.0834
   14MOL0     C 1782   7.237   5.347   6.088  0.4440  0.1689  0.0751
   14MOL0     C 1783   7.193   5.247   6.173  0.0465 -0.2246 -0.1014
   14MOL0     C 1784   7.218   5.239   6.320 -0.3633 -0.1124  0.1829
   14MOL0     O 1785   7.156   5.149   6.397  0.2222  1.2263  0.4132
   14MOL0     C 1786   7.181   5.145   6.531 -0.0266  0.3527  0.2791
   14MOL0     C 1787   7.197   5.251   6.625 -0.2396  0.9348  0.1138
   14MOL0     C 1788   7.194   5.230   6.762  1.0790  0.3295 -0.0312
   14MOL0     C 1789   7.182   5.106   6.819  1.0201 -0.4716  0.2354
   14MOL0     O 1790   7.192   5.092   6.955  0.3642 -0.6407 -0.1290
   14MOL0     C 1791   7.302   5.017   7.001 -0.1957  0.6616 -1.1528
   14MOL0     C 1792   7.321   5.046   7.148 -0.7342 -0.0855  1.5361
   14MOL0     C 1793   7.457   5.032   7.207 -0.1997 -0.3060 -0.4793
   14MOL0     C 1794   7.509   4.882   7.227 -0.2775 -0.1186 -0.0271
   14MOL0     C 1795   7.627   4.882   7.316  0.2836  0.0006 -1.0543
   14MOL0     C 1796   7.591   4.853   7.472  0.6647 -0.7180  0.6236
   14MOL0     C 1797   7.713   4.811   7.554  1.0191 -0.1177 -0.3930
   14MOL0     C 1798   7.810   4.928   7.601  0.3933 -0.2022  0.5468
   14MOL0    Cl 1799   7.905   4.972   7.458  0.3941 -0.3223 -0.0815
   14MOL0     C 1800   7.173   4.994   6.728  0.4754 -0.4575 -0.1412
   14MOL0     C 1801   7.166   5.017   6.587 -0.3416 -0.2093  0.1043
   14MOL0     O 1802   7.313   5.316   6.351  0.2760 -0.0507 -0.0960
   14MOL0     C 1803   7.146   5.125   6.111  0.2148 -0.7332 -0.3099
   14MOL0     C 1804   7.130   5.120   5.974  0.4593 -0.0585  0.2455
   14MOL0     N 1805   7.208   4.890   5.182 -0.3404  0.0880  0.6680
   14MOL0     N 1806   7.203   4.935   5.066 -0.0896 -0.0594  0.2911
   14MOL0     C 1807   6.284   5.772   4.673  0.4268  0.5688  0.5308
   14MOL0     C 1808   6.166   5.794   4.599 -0.8761 -0.3102 -0.0668
   14MOL0     C 1809   5.727   5.835   4.503  0.5942 -0.3828  0.3382
   14MOL0     C 1810   5.693   5.737   4.403  0.2550 -0.3554 -0.0038
   14MOL0     C 1811   5.578   5.755   4.317 -0.5888 -0.0206  0.1432
   14MOL0     C 1812   5.496   5.862   4.344 -0.5156 -0.7998  0.4488
   14MOL0     O 1813   5.384   5.878   4.278  0.0693 -0.2130 -0.4013
   14MOL0     C 1814   5.262   5.901   4.335 -0.7226 -0.1007  0.7357
   14MOL0     C 1815   5.200   5.768   4.376  0.1299 -0.7292 -0.1677
   14MOL0     C 1816   5.067   5.761   4.457  0.2814 -0.1740 -0.0682
   14MOL0     C 1817   5.039   5.861   4.567  0.4496  1.3811 -0.7958
   14MOL0     C 1818   5.160   5.874   4.652  0.3595 -0.5812 -0.2108
   14MOL0     C 1819   5.262   5.898   4.709  0.3424  0.6608 -0.0177
   14MOL0     C 1820   5.528   5.956   4.442 -0.6039  0.4882 -0.3701
   14MOL0     C 1821   5.644   5.945   4.523 -0.3961  0.5071  1.4090
   14MOL0     C 1822   5.663   6.054   4.627 -0.0080 -0.1239  0.1033
   14MOL0     H 1823   5.981   5.530   4.671 -0.9277  1.3870  1.6010
   14MOL0     H 1824   6.196   5.481   4.796  2.8423 -0.0712 -2.1457
   14MOL0     H 1825   6.352   5.465   4.923 -1.3494 -0.6930 -1.4930
   14MOL0     H 1826   6.459   5.437   4.776  0.5020  0.4892 -0.8470
   14MOL0     H 1827   6.485   5.545   5.060  2.1602  0.9518  0.9711
   14MOL0     H 1828   6.612   5.604   4.947  0.6113 -0.7619 -1.1291
   14MOL0     H 1829   6.570   5.303   4.987  2.9633 -1.4296  1.0493
   14MOL0     H 1830   6.657   5.396   5.107 -0.0393 -1.8520  0.7426
   14MOL0     H 1831   6.702   5.353   4.799  1.9628 -1.4143 -0.2964
   14MOL0     H 1832   6.808   5.452   4.892  1.5549 -0.1666 -0.5120
   14MOL0     H 1833   6.853   5.249   5.043  0.8685  0.7426 -0.4861
   14MOL0     H 1834   6.750   5.157   4.943 -1.8461  1.3177  1.0195
   14MOL0     H 1835   6.886   5.173   4.749  0.6220  1.1629  0.8096
   14MOL0     H 1836   6.983   5.309   4.808  0.6975  0.1341 -0.0873
   14MOL0     H 1837   7.081   5.057   4.794  1.4532  0.0917  0.2678
   14MOL0     H 1838   6.977   5.041   4.940 -0.2518 -2.8209 -1.4701
   14MOL0     H 1839   7.255   5.170   4.889 -0.2948  3.2225  0.0507
   14MOL0     H 1840   7.168   5.266   4.979 -2.3072 -0.5146 -0.8136
   14MOL0     H 1841   7.293   5.202   5.232 -0.1628 -0.1095 -1.1225
   14MOL0     H 1842   7.267   4.874   5.442 -1.8395  1.1585  0.9421
   14MOL0     H 1843   7.396   4.984   5.417 -0.0823  0.7274  0.6874
   14MOL0     H 1844   7.127   5.122   5.464  0.0122  0.6253  1.5923
   14MOL0     H 1845   7.172   5.008   5.585  0.7344 -1.0455  0.2469
   14MOL0     H 1846   7.358   5.220   5.480 -0.1805  0.3514 -0.6717
   14MOL0     H 1847   7.386   5.108   5.620  2.5103  2.4066 -0.6852
   14MOL0     H 1848   7.163   5.309   5.591 -1.4882 -0.4450  0.6623
   14MOL0     H 1849   7.311   5.323   5.705  0.8212 -0.8409  0.5802
   14MOL0     H 1850   7.259   5.413   5.883 -3.0992  0.6697 -0.1076
   14MOL0     H 1851   7.290   5.431   6.132  0.6693 -0.2520  0.6092
   14MOL0     H 1852   7.184   5.355   6.597 -0.0508  1.5443  2.1282
   14MOL0     H 1853   7.215   5.313   6.828  3.0059  0.4484 -0.7058
   14MOL0     H 1854   7.269   4.915   6.980 -3.9641  1.8382 -1.6750
   14MOL0     H 1855   7.392   5.042   6.944 -1.6783  1.5133 -3.2365
   14MOL0     H 1856   7.290   5.149   7.170 -0.3710  0.5305 -0.5821
   14MOL0     H 1857   7.258   4.971   7.197  0.3541  0.6548  4.2923
   14MOL0     H 1858   7.527   5.089   7.145 -1.5636  2.9250  0.7043
   14MOL0     H 1859   7.453   5.086   7.303  0.7153 -1.2840  0.1393
   14MOL0     H 1860   7.545   4.840   7.133  0.8874 -0.3164  0.4876
   14MOL0     H 1861   7.430   4.816   7.264  0.2806  0.5399  2.5955
   14MOL0     H 1862   7.683   4.976   7.320 -1.2056  0.8956  2.1049
   14MOL0     H 1863   7.689   4.800   7.280  0.6110  0.2566 -1.0805
   14MOL0     H 1864   7.559   4.953   7.502 -0.3679 -1.1380  0.9585
   14MOL0     H 1865   7.515   4.775   7.472  0.2238 -0.3712  3.2869
   14MOL0     H 1866   7.771   4.734   7.500  0.8435  0.4779 -1.4478
   14MOL0     H 1867   7.686   4.765   7.650 -0.6467 -1.5396 -1.4826
   14MOL0     H 1868   7.753   5.017   7.631 -1.5407  0.2230 -3.7272
   14MOL0     H 1869   7.874   4.893   7.683  0.8457 -0.8834 -0.0941
   14MOL0     H 1870   7.174   4.894   6.770 -0.4775  0.5002  2.3559
   14MOL0     H 1871   7.149   4.937   6.515  0.4442 -2.0722  1.8978
   14MOL0     H 1872   7.113   5.045   6.177  6.4022 -3.8130 -0.2638
   14MOL0     H 1873   7.091   5.029   5.929  0.5995 -0.1026  0.2153
   14MOL0     H 1874   6.369   5.839   4.676  0.2332  0.7900  1.1360
   14MOL0     H 1875   6.157   5.887   4.544  0.1001  0.1504  0.5376
   14MOL0     H 1876   5.750   5.647   4.384  2.6444  0.7697  1.4121
   14MOL0     H 1877   5.555   5.677   4.245  0.2274  1.4382 -1.7625
   14MOL0     H 1878   5.201   5.946   4.257  0.6203 -1.4116 -1.1467
   14MOL0     H 1879   5.262   5.968   4.422  0.3992 -0.5066  1.0788
   14MOL0     H 1880   5.272   5.712   4.436  2.4428  2.9540  0.8416
   14MOL0     H 1881   5.190   5.707   4.286 -0.4454 -2.7732  1.2066
   14MOL0     H 1882   5.054   5.657   4.490 -4.3818  0.6265  1.2506
   14MOL0     H 1883   4.987   5.767   4.383  1.3127 -0.9604 -1.2922
   14MOL0     H 1884   5.018   5.961   4.529 -1.5956  1.7041  1.0497
   14MOL0     H 1885   4.950   5.829   4.621  2.5781 -0.3705  1.9508
   14MOL0     H 1886   5.361   5.912   4.749 -0.3027 -0.4469  2.1256
   14MOL0     H 1887   5.451   6.032   4.456  0.5170  1.9604 -1.8651
   14MOL0     H 1888   5.771   6.070   4.640  0.6520 -1.3639 -3.0069
   14MOL0     H 1889   5.623   6.151   4.596  3.4621  0.4933 -3.2986
   14MOL0     H 1890   5.626   6.022   4.725  0.6870  0.3557  0.5347
   15MOL0     O 1891   3.555   2.064  10.862  0.4067  0.3845  0.5846
   15MOL0     C 1892   3.504   2.141  10.948  0.5212 -1.0063  0.5436
   15MOL0     O 1893   3.565   2.231  11.021  0.3126 -0.2389 -0.0906
   15MOL0     C 1894   3.686   2.283  10.987  1.0428 -0.3748 -0.0990
   15MOL0     C 1895   3.761   2.342  11.089  1.2924 -0.4703  1.0912
   15MOL0     C 1896   3.872   2.417  11.063 -0.0430 -0.4558  0.0729
   15MOL0     C 1897   3.922   2.430  10.931 -0.1530 -0.0463  0.3604
   15MOL0     O 1898   4.045   2.491  10.894  0.8199 -0.5453 -0.3004
   15MOL0     C 1899   4.145   2.488  10.990 -0.2101 -0.2823  0.5345
   15MOL0     C 1900   4.250   2.561  10.901 -1.0293  0.3423 -0.4294
   15MOL0     C 1901   4.374   2.600  10.973  0.1445 -0.3543 -0.0103
   15MOL0     C 1902   4.353   2.718  11.064 -0.2935  0.2658  0.0799
   15MOL0     C 1903   4.482   2.727  11.146  0.1681 -0.4182  0.2606
   15MOL0     C 1904   4.509   2.868  11.188 -0.3288 -0.1554 -0.1437
   15MOL0     C 1905   4.650   2.875  11.266  0.5498 -0.3207  0.1239
   15MOL0     C 1906   4.775   2.859  11.184  0.0163  0.7522 -0.0980
   15MOL0     N 1907   4.891   2.858  11.281 -0.0616 -1.3800  0.9655
   15MOL0     C 1908   4.931   2.970  11.350  0.8347 -0.3364  0.6742
   15MOL0     C 1909   5.027   2.931  11.432  0.5546  0.3209  0.7144
   15MOL0     C 1910   5.103   3.016  11.523  0.2168  0.5189  0.5068
   15MOL0     C 1911   5.075   2.972  11.666 -0.2410 -0.0114 -0.3945
   15MOL0     C 1912   5.169   3.026  11.778  0.0587  1.6082 -1.1882
   15MOL0     C 1913   5.259   3.140  11.759 -0.0963  0.5088  1.1286
   15MOL0     O 1914   5.185   3.249  11.723  0.6048  0.0690  0.1867
   15MOL0     C 1915   5.220   3.374  11.746 -0.3171 -0.2962 -0.7672
   15MOL0     C 1916   5.251   3.451  11.634 -0.6214 -0.5226 -0.2142
   15MOL0     C 1917   5.257   3.591  11.643 -1.6177  0.1849  0.9365
   15MOL0     C 1918   5.236   3.656  11.765  0.4219 -0.5164  0.3254
   15MOL0     C 1919   5.256   3.801  11.769 -1.5254  0.1844 -0.6117
   15MOL0     O 1920   5.222   3.853  11.887 -0.2631  0.3166 -0.1471
   15MOL0     C 1921   5.265   3.980  11.908 -0.7944 -0.1007  0.5920
   15MOL0     C 1922   5.166   4.072  11.939  0.4932 -1.0836  0.5633
   15MOL0     C 1923   5.193   4.211  11.949  0.1761  0.2431 -0.8412
   15MOL0     C 1924   5.326   4.257  11.934  0.0368  0.2275 -0.1788
   15MOL0     O 1925   5.346   4.390  11.961  0.0223  0.1933  0.1356
   15MOL0     C 1926   5.474   4.446  11.963  0.1931  0.4786 -0.5214
   15MOL0     C 1927   5.456   4.588  12.024 -0.3304 -0.0505 -0.1717
   15MOL0     C 1928   5.456   4.585  12.180 -0.0540  0.2512 -1.3596
   15MOL0     C 1929   5.557   4.678  12.242  0.0393  0.1776  0.4946
   15MOL0     C 1930   5.702   4.640  12.225 -0.4312 -0.8943  0.9243
   15MOL0     C 1931   5.800   4.698  12.330  0.7158 -1.0016  0.7483
   15MOL0     C 1932   5.905   4.602  12.391  0.5057  0.8009 -1.8247
   15MOL0     C 1933   6.022   4.575  12.292 -0.6970  0.1902  1.0411
   15MOL0    Cl 1934   6.081   4.730  12.226 -0.1069 -0.0128 -0.0069
   15MOL0     C 1935   5.424   4.164  11.901 -0.2291  0.6859 -0.7479
   15MOL0     C 1936   5.393   4.029  11.893 -0.2959  0.7716 -0.7345
   15MOL0     O 1937   5.308   3.858  11.673 -0.8596 -0.9284 -0.2438
   15MOL0     C 1938   5.205   3.576  11.879  0.6688  0.2823 -0.5706
   15MOL0     C 1939   5.194   3.436  11.873  0.9975  0.4097  1.1971
   15MOL0     N 1940   5.038   2.791  11.408 -0.5836 -0.1009 -0.6771
   15MOL0     N 1941   4.966   2.752  11.319  0.0489 -0.3909  0.3740
   15MOL0     C 1942   3.845   2.381  10.825 -0.5606  0.1089 -0.2337
   15MOL0     C 1943   3.732   2.305  10.851  0.6172 -0.4796 -0.6924
   15MOL0     C 1944   3.351   2.145  10.954  0.8150 -0.5347  1.3279
   15MOL0     C 1945   3.280   2.262  10.987  0.0798  0.7976  0.1087
   15MOL0     C 1946   3.136   2.277  10.978  0.6331  0.4003 -1.4028
   15MOL0     C 1947   3.066   2.170  10.926 -0.1384  0.2600  0.0272
   15MOL0     O 1948   2.930   2.182  10.929 -0.7246 -0.1870  0.1537
   15MOL0     C 1949   2.845   2.098  10.838 -0.0368  0.4244  0.4383
   15MOL0     C 1950   2.725   2.184  10.805  0.6041 -0.5421  0.7112
   15MOL0     C 1951   2.663   2.178  10.661  0.1802 -0.2118 -0.1509
   15MOL0     C 1952   2.533   2.266  10.652  0.5869 -0.0168 -0.2825
   15MOL0     C 1953   2.421   2.188  10.708 -0.1830  1.1057 -0.9213
   15MOL0     C 1954   2.311   2.135  10.740 -0.2192  0.4996  0.9675
   15MOL0     C 1955   3.132   2.051  10.891  0.1341 -0.3171  0.4283
   15MOL0     C 1956   3.276   2.038  10.895 -0.2881 -0.0557  0.5633
   15MOL0     C 1957   3.330   1.896  10.865  0.6250 -0.5458 -0.8996
   15MOL0     H 1958   3.730   2.331  11.192 -0.4718 -1.2616  0.5114
   15MOL0     H 1959   3.922   2.472  11.142  4.0276 -3.5416 -0.0187
   15MOL0     H 1960   4.114   2.554  11.071 -5.2050  0.0512 -1.2944
   15MOL0     H 1961   4.169   2.390  11.031 -0.0400 -0.7591 -0.6455
   15MOL0     H 1962   4.212   2.646  10.844 -1.4763  2.9828  3.4118
   15MOL0     H 1963   4.279   2.494  10.820 -0.9612  2.0818 -1.9184
   15MOL0     H 1964   4.447   2.635  10.900  2.5905 -1.5047  1.7375
   15MOL0     H 1965   4.426   2.514  11.017  0.2576  0.7028  2.0617
   15MOL0     H 1966   4.345   2.806  11.000  0.0249  0.0297 -0.2874
   15MOL0     H 1967   4.271   2.721  11.136  2.2372  0.1468  3.1767
   15MOL0     H 1968   4.486   2.668  11.238  1.7123  2.5215  2.2672
   15MOL0     H 1969   4.568   2.699  11.086  1.8722  2.4260  1.1604
   15MOL0     H 1970   4.509   2.942  11.108  1.7262  0.0894  0.0326
   15MOL0     H 1971   4.447   2.901  11.272  0.3526 -0.9260  0.6834
   15MOL0     H 1972   4.646   2.805  11.350  1.2445  1.8605  2.0949
   15MOL0     H 1973   4.650   2.977  11.306 -2.1927  1.1310 -3.1300
   15MOL0     H 1974   4.762   2.772  11.120 -4.2852  0.5925  0.7090
   15MOL0     H 1975   4.785   2.950  11.124 -3.9823  1.1862 -0.3305
   15MOL0     H 1976   4.891   3.071  11.343  0.1440 -0.5948  0.7674
   15MOL0     H 1977   5.206   3.019  11.486  0.4486  0.0833  1.1087
   15MOL0     H 1978   5.057   3.115  11.522 -1.8036 -0.3553 -1.1092
   15MOL0     H 1979   4.977   3.007  11.700  0.7533  1.5532  1.0318
   15MOL0     H 1980   5.094   2.865  11.673  0.5730  0.2330  2.3608
   15MOL0     H 1981   5.238   2.947  11.807  1.3615  2.1808 -2.5880
   15MOL0     H 1982   5.106   3.033  11.867  1.2468 -3.9917  0.5199
   15MOL0     H 1983   5.332   3.116  11.681 -2.7270  0.5508 -1.5277
   15MOL0     H 1984   5.312   3.155  11.854  0.3055 -3.5939  1.7389
   15MOL0     H 1985   5.259   3.400  11.539 -3.6574  1.3784 -1.6561
   15MOL0     H 1986   5.275   3.652  11.555 -2.5647  1.4698  1.5938
   15MOL0     H 1987   5.060   4.051  11.946  0.1455  0.7917  1.7638
   15MOL0     H 1988   5.115   4.282  11.977 -0.8313 -0.6724 -1.2349
   15MOL0     H 1989   5.537   4.386  12.029  2.0327  3.8371  0.9960
   15MOL0     H 1990   5.531   4.456  11.870  0.5710 -2.8534 -0.7957
   15MOL0     H 1991   5.533   4.654  11.983 -1.2664 -0.1020 -2.0882
   15MOL0     H 1992   5.358   4.627  11.998 -1.4891 -2.6943 -0.0088
   15MOL0     H 1993   5.353   4.602  12.210  0.5321  0.8572  0.4277
   15MOL0     H 1994   5.475   4.483  12.216  1.1668  1.4701  1.7971
   15MOL0     H 1995   5.522   4.672  12.345 -0.9705  4.2223  0.5203
   15MOL0     H 1996   5.556   4.773  12.189  2.1989  0.4582  0.8862
   15MOL0     H 1997   5.737   4.659  12.124 -0.2953  0.5628  1.2288
   15MOL0     H 1998   5.707   4.533  12.249 -1.8326 -0.8566  1.5147
   15MOL0     H 1999   5.837   4.789  12.282 -1.3682 -0.8343 -0.6557
   15MOL0     H 2000   5.741   4.740  12.411  1.6616  2.8520 -0.3434
   15MOL0     H 2001   5.862   4.504  12.412  2.3275  0.5640  1.4679
   15MOL0     H 2002   5.933   4.652  12.484  1.9926 -0.0429 -1.7765
   15MOL0     H 2003   6.105   4.519  12.337 -0.5421 -0.8877 -0.5042
   15MOL0     H 2004   5.972   4.510  12.219 -0.6914 -1.1049  2.1440
   15MOL0     H 2005   5.526   4.195  11.882 -0.4985  2.1920  0.1121
   15MOL0     H 2006   5.469   3.951  11.891  0.5301  1.1371  4.2482
   15MOL0     H 2007   5.168   3.623  11.970  0.8553 -0.0256 -0.3368
   15MOL0     H 2008   5.156   3.365  11.945  0.9001 -0.5807  0.2084
   15MOL0     H 2009   3.888   2.375  10.725 -0.7683  1.3654 -0.4162
   15MOL0     H 2010   3.678   2.259  10.768 -2.2457  3.3915 -1.2645
   15MOL0     H 2011   3.331   2.348  11.030 -1.7327  0.5267  3.1237
   15MOL0     H 2012   3.087   2.366  11.015 -2.1810 -2.1491  1.6924
   15MOL0     H 2013   2.812   2.003  10.882  1.3251 -0.9013 -1.2924
   15MOL0     H 2014   2.901   2.065  10.751  3.1355 -1.8539  3.0884
   15MOL0     H 2015   2.758   2.288  10.803  1.6369 -0.8432  1.4363
   15MOL0     H 2016   2.637   2.167  10.868 -0.6874  0.9980 -0.5864
   15MOL0     H 2017   2.653   2.074  10.629 -0.2218  0.5239 -2.6241
   15MOL0     H 2018   2.733   2.219  10.587  3.3326  3.8316  4.4043
   15MOL0     H 2019   2.541   2.350  10.722 -0.8471 -1.4670  1.7245
   15MOL0     H 2020   2.509   2.314  10.556  0.0072  3.3494  1.3654
   15MOL0     H 2021   2.216   2.094  10.765 -0.8191 -0.2950 -2.1158
   15MOL0     H 2022   3.075   1.961  10.871  1.3370 -0.7830 -1.0963
   15MOL0     H 2023   3.418   1.876  10.927  0.5030 -2.0870 -1.1905
   15MOL0     H 2024   3.256   1.817  10.878  1.4563 -1.0974  0.6733
   15MOL0     H 2025   3.372   1.895  10.764  1.8669  1.4453 -0.4632
   16MOL0     O 2026   7.067   6.517   5.372 -0.4397 -0.0451  0.5365
   16MOL0     C 2027   7.153   6.609   5.360 -0.7502  0.5919  1.0954
   16MOL0     O 2028   7.124   6.740   5.333 -0.1615 -0.3869  0.4441
   16MOL0     C 2029   6.993   6.780   5.316  0.4455 -0.2467  0.3491
   16MOL0     C 2030   6.928   6.845   5.428 -0.1085  0.6209  0.5745
   16MOL0     C 2031   6.791   6.880   5.419 -0.4753  0.3281  0.6099
   16MOL0     C 2032   6.720   6.842   5.315  0.2289  0.1977 -0.9395
   16MOL0     O 2033   6.585   6.866   5.300 -0.0076 -0.4324  0.0852
   16MOL0     C 2034   6.499   6.906   5.409 -0.6652 -0.0663 -0.2687
   16MOL0     C 2035   6.499   7.063   5.429 -1.2386  0.3575  0.3945
   16MOL0     C 2036   6.416   7.114   5.549  0.0369 -0.4363 -0.1478
   16MOL0     C 2037   6.490   7.106   5.684  0.2572  0.1316 -0.1096
   16MOL0     C 2038   6.564   7.236   5.706  0.6064  0.4562  0.1732
   16MOL0     C 2039   6.619   7.244   5.847  0.8671 -0.5525 -0.9124
   16MOL0     C 2040   6.517   7.319   5.943 -0.0598  0.1130 -0.9472
   16MOL0     C 2041   6.503   7.466   5.926 -0.2448 -0.9590 -0.2203
   16MOL0     N 2042   6.371   7.514   5.948  1.2425 -0.3885 -0.8369
   16MOL0     C 2043   6.265   7.509   5.863  0.3251 -1.0518  0.0766
   16MOL0     C 2044   6.169   7.582   5.923  1.0975  0.9516 -0.6139
   16MOL0     C 2045   6.018   7.623   5.891  0.2356 -0.0127  0.0786
   16MOL0     C 2046   5.943   7.495   5.829  0.9072  0.0486 -0.5893
   16MOL0     C 2047   5.780   7.501   5.824 -0.3179 -0.7891  0.7806
   16MOL0     C 2048   5.733   7.633   5.769  0.0948 -0.2828 -0.5582
   16MOL0     O 2049   5.793   7.657   5.646 -0.5764 -0.3321 -0.2454
   16MOL0     C 2050   5.726   7.745   5.570 -0.4625 -0.4731 -0.6045
   16MOL0     C 2051   5.665   7.704   5.451  0.3925 -0.8500 -0.3582
   16MOL0     C 2052   5.581   7.795   5.382 -0.3367 -0.3724 -0.2611
   16MOL0     C 2053   5.560   7.925   5.430  0.1709 -0.3209 -0.5679
   16MOL0     C 2054   5.462   8.006   5.362  0.6796 -0.0842  0.2747
   16MOL0     O 2055   5.402   7.945   5.248 -0.2988  0.5383  0.7537
   16MOL0     C 2056   5.382   8.015   5.130  0.4770  1.0248 -1.0881
   16MOL0     C 2057   5.403   8.151   5.112  1.1325 -0.7569  0.9897
   16MOL0     C 2058   5.378   8.209   4.991  0.2812  0.0908  0.5765
   16MOL0     C 2059   5.330   8.134   4.882  0.7581 -0.5495 -0.4171
   16MOL0     O 2060   5.295   8.199   4.762  0.1005  0.1368  0.5640
   16MOL0     C 2061   5.316   8.136   4.634  0.8049  0.5812  0.5394
   16MOL0     C 2062   5.266   8.232   4.531 -0.0387  0.0444  0.9128
   16MOL0     C 2063   5.247   8.166   4.395 -0.6927 -0.4488 -0.4541
   16MOL0     C 2064   5.156   8.246   4.294  0.4026 -0.0997 -0.2852
   16MOL0     C 2065   5.170   8.185   4.154  0.0094  0.2003 -1.2074
   16MOL0     C 2066   5.058   8.222   4.063 -0.7280 -0.3231 -0.3431
   16MOL0     C 2067   5.076   8.162   3.919  0.1555 -0.4068  0.1591
   16MOL0     C 2068   4.961   8.183   3.830 -0.6588 -0.1830 -0.3531
   16MOL0    Cl 2069   4.932   8.356   3.813  0.3376 -0.1301 -0.4026
   16MOL0     C 2070   5.299   7.999   4.897  0.5631  0.9903 -0.1402
   16MOL0     C 2071   5.325   7.943   5.028 -0.3221  0.1843  0.4925
   16MOL0     O 2072   5.442   8.121   5.400 -0.6620 -0.4058  0.3327
   16MOL0     C 2073   5.622   7.978   5.547 -0.5344 -0.3484  0.6099
   16MOL0     C 2074   5.710   7.889   5.612 -0.5117  0.0443 -0.0730
   16MOL0     N 2075   6.214   7.621   6.046 -0.8971 -0.0148  0.1392
   16MOL0     N 2076   6.333   7.581   6.058 -0.1092  0.1885  0.8666
   16MOL0     C 2077   6.776   6.764   5.206 -0.0673 -0.7844  0.5265
   16MOL0     C 2078   6.913   6.739   5.211 -0.0351  0.8516  0.6519
   16MOL0     C 2079   7.299   6.561   5.339  0.0506  0.2789  0.4363
   16MOL0     C 2080   7.396   6.648   5.300  0.2164  1.2351  0.3041
   16MOL0     C 2081   7.527   6.616   5.289 -0.0189  0.5660 -0.3183
   16MOL0     C 2082   7.574   6.504   5.333  0.1285  0.5757  0.1983
   16MOL0     O 2083   7.703   6.471   5.339  0.0842 -0.1880  0.2658
   16MOL0     C 2084   7.766   6.404   5.228  0.5487 -0.3812 -0.2546
   16MOL0     C 2085   7.755   6.252   5.222  0.4897 -0.0841  0.5071
   16MOL0     C 2086   7.824   6.174   5.333 -0.2158  0.0886 -0.2719
   16MOL0     C 2087   7.803   6.027   5.327  0.2517 -0.6647 -0.5177
   16MOL0     C 2088   7.665   5.990   5.377 -0.5145 -0.4542  0.6357
   16MOL0     C 2089   7.557   5.953   5.413 -0.5162 -0.9039  0.8975
   16MOL0     C 2090   7.484   6.418   5.395 -0.9165 -0.2915  0.3138
   16MOL0     C 2091   7.341   6.438   5.398 -1.1292 -1.0531  0.2868
   16MOL0     C 2092   7.258   6.339   5.475 -0.0914  1.1799  0.0495
   16MOL0     H 2093   6.979   6.858   5.523  1.4374 -0.6270 -0.0399
   16MOL0     H 2094   6.741   6.937   5.497 -0.1229  3.4863 -1.2758
   16MOL0     H 2095   6.397   6.878   5.383 -1.7082  2.2221  1.0816
   16MOL0     H 2096   6.520   6.864   5.508  0.2352  0.6252 -0.1455
   16MOL0     H 2097   6.462   7.109   5.337 -1.5983 -1.4833 -0.4196
   16MOL0     H 2098   6.606   7.084   5.443 -1.2888  1.6173 -0.8469
   16MOL0     H 2099   6.319   7.064   5.550  0.5809 -1.7564 -2.8878
   16MOL0     H 2100   6.414   7.218   5.517  0.2682 -1.4037 -3.8062
   16MOL0     H 2101   6.415   7.092   5.762  1.4806 -2.5447  0.7326
   16MOL0     H 2102   6.560   7.022   5.680 -0.8100 -0.7427 -2.7817
   16MOL0     H 2103   6.652   7.239   5.641  1.4398 -0.2900  1.2305
   16MOL0     H 2104   6.502   7.323   5.682  0.2019 -0.4880 -2.5929
   16MOL0     H 2105   6.625   7.144   5.892 -2.6986 -0.1940  0.7319
   16MOL0     H 2106   6.719   7.288   5.857  0.1186  1.2048 -0.7817
   16MOL0     H 2107   6.562   7.312   6.043 -1.6238 -0.8932 -0.2660
   16MOL0     H 2108   6.421   7.268   5.952 -1.3179  2.6614  2.4672
   16MOL0     H 2109   6.570   7.528   5.987 -0.2233 -0.8904 -0.3133
   16MOL0     H 2110   6.539   7.500   5.828 -1.3506 -0.7945 -0.5867
   16MOL0     H 2111   6.254   7.456   5.769  0.8899 -4.5435  1.7959
   16MOL0     H 2112   5.979   7.657   5.987  0.4946 -1.2221  0.6345
   16MOL0     H 2113   6.012   7.696   5.810 -2.4609 -2.4068 -2.1100
   16MOL0     H 2114   5.974   7.465   5.728  0.6467 -2.7996  0.1043
   16MOL0     H 2115   5.967   7.408   5.890 -2.1953 -0.6870 -0.2871
   16MOL0     H 2116   5.743   7.502   5.927 -0.9813 -1.8246  0.5568
   16MOL0     H 2117   5.740   7.419   5.764 -1.4442 -0.9139  1.6746
   16MOL0     H 2118   5.770   7.713   5.834  4.3467 -2.6512  0.2972
   16MOL0     H 2119   5.624   7.633   5.771  0.0930 -0.0291 -0.5190
   16MOL0     H 2120   5.662   7.604   5.409 -0.3095 -1.4078  0.9341
   16MOL0     H 2121   5.535   7.757   5.291 -1.0658 -0.5099  0.1557
   16MOL0     H 2122   5.437   8.225   5.184 -0.9174  1.6117 -0.3151
   16MOL0     H 2123   5.391   8.314   4.969  0.1519  0.3144  1.5094
   16MOL0     H 2124   5.424   8.130   4.617  0.7004  3.3138 -1.7721
   16MOL0     H 2125   5.272   8.036   4.627  0.1796  0.8294  0.8558
   16MOL0     H 2126   5.168   8.265   4.566 -0.4124  0.9669 -0.8930
   16MOL0     H 2127   5.334   8.314   4.506 -1.0466  0.4652 -0.5785
   16MOL0     H 2128   5.344   8.141   4.351 -1.7624 -2.8104 -1.6505
   16MOL0     H 2129   5.203   8.070   4.422 -1.4714  0.4450  1.7087
   16MOL0     H 2130   5.188   8.350   4.287  2.2622 -0.3943  2.2567
   16MOL0     H 2131   5.055   8.244   4.337  1.3560  0.0380  2.0774
   16MOL0     H 2132   5.175   8.076   4.161  3.2040  0.2644 -1.1379
   16MOL0     H 2133   5.269   8.202   4.110  1.5654 -2.8554  0.7252
   16MOL0     H 2134   4.965   8.189   4.109 -1.8134 -0.6531 -2.6344
   16MOL0     H 2135   5.062   8.332   4.059  4.0803 -0.0652  2.7855
   16MOL0     H 2136   5.109   8.060   3.938 -0.6728 -0.7059  0.0356
   16MOL0     H 2137   5.160   8.211   3.870  0.4259  0.5501  1.5291
   16MOL0     H 2138   4.972   8.143   3.728 -1.7967 -0.3896 -0.4121
   16MOL0     H 2139   4.872   8.133   3.870 -2.3041  2.2644 -0.7631
   16MOL0     H 2140   5.257   7.938   4.818 -0.6999 -0.8058  1.8102
   16MOL0     H 2141   5.306   7.838   5.042  3.1473 -0.5543  0.6607
   16MOL0     H 2142   5.619   8.082   5.580 -0.4030 -0.7837  2.0594
   16MOL0     H 2143   5.775   7.917   5.695  0.8070 -3.9512  0.4745
   16MOL0     H 2144   6.715   6.730   5.123  0.0580  0.0710  0.0781
   16MOL0     H 2145   6.952   6.688   5.124  1.6172  0.9020  1.3103
   16MOL0     H 2146   7.368   6.751   5.280 -1.4229  0.4492 -1.9624
   16MOL0     H 2147   7.587   6.690   5.239  3.6899 -1.0812  1.3232
   16MOL0     H 2148   7.870   6.434   5.219 -0.4036  3.6636  0.2983
   16MOL0     H 2149   7.713   6.445   5.141 -1.8929  2.2937  2.2491
   16MOL0     H 2150   7.786   6.214   5.125 -1.6538  0.6685 -0.5412
   16MOL0     H 2151   7.649   6.225   5.214  0.5964 -0.3344 -0.0804
   16MOL0     H 2152   7.819   6.220   5.433  1.0810 -2.0299  0.8346
   16MOL0     H 2153   7.932   6.192   5.328 -0.1004  1.0018  3.0624
   16MOL0     H 2154   7.820   5.996   5.223  2.1628  0.9092 -0.7343
   16MOL0     H 2155   7.873   5.972   5.391  0.1959 -0.2087 -0.0621
   16MOL0     H 2156   7.466   5.917   5.457  0.6136 -1.4797  2.8735
   16MOL0     H 2157   7.523   6.327   5.440  0.5281  1.6086  3.2729
   16MOL0     H 2158   7.207   6.386   5.560  0.9306 -2.3677  2.8356
   16MOL0     H 2159   7.200   6.267   5.417 -0.1919 -1.1856  2.8618
   16MOL0     H 2160   7.323   6.266   5.523  0.4986  1.7071  0.0756
   17MOL0     O 2161   3.149   8.477   9.854 -0.7563 -0.6931  0.8672
   17MOL0     C 2162   3.124   8.583   9.905  0.1193  0.3918  0.0124
   17MOL0     O 2163   3.035   8.677   9.865 -0.1904  0.2118  0.1951
   17MOL0     C 2164   2.950   8.663   9.756 -0.3792 -0.0408  0.2102
   17MOL0     C 2165   2.909   8.776   9.684  0.2163 -0.3100  0.4921
   17MOL0     C 2166   2.819   8.768   9.584 -1.3515  0.5868 -1.6422
   17MOL0     C 2167   2.764   8.648   9.537  0.1489  0.0070 -0.3058
   17MOL0     O 2168   2.693   8.655   9.415 -0.0932 -0.2361 -0.4271
   17MOL0     C 2169   2.590   8.570   9.377  0.8189  0.2346 -1.0587
   17MOL0     C 2170   2.527   8.578   9.234 -0.0852 -0.7263  0.1783
   17MOL0     C 2171   2.543   8.724   9.190 -0.7264 -0.1650  0.1118
   17MOL0     C 2172   2.442   8.757   9.081 -0.0382 -0.2643 -1.0025
   17MOL0     C 2173   2.462   8.894   9.015  1.2408  0.6998  0.0205
   17MOL0     C 2174   2.456   8.881   8.859  0.7697  0.3466  0.2471
   17MOL0     C 2175   2.492   9.019   8.797  0.6819  0.7204 -0.1419
   17MOL0     C 2176   2.632   9.078   8.797 -0.5095  0.1967  0.4976
   17MOL0     N 2177   2.736   8.989   8.732 -0.4974 -0.1331  0.8845
   17MOL0     C 2178   2.761   8.974   8.594  0.0746  1.3226 -0.1329
   17MOL0     C 2179   2.852   8.875   8.591  0.3564 -0.3612 -0.1951
   17MOL0     C 2180   2.936   8.815   8.490  0.1434  0.4872 -0.5996
   17MOL0     C 2181   3.078   8.795   8.544 -0.7322 -1.0090  0.0276
   17MOL0     C 2182   3.183   8.751   8.442 -0.1232 -0.1941  0.1868
   17MOL0     C 2183   3.225   8.608   8.474 -0.5054  0.4644 -0.0735
   17MOL0     O 2184   3.331   8.572   8.379 -0.2097  0.2522 -0.5967
   17MOL0     C 2185   3.375   8.444   8.378 -0.3556  0.2730  0.7040
   17MOL0     C 2186   3.322   8.334   8.448 -0.6234 -0.1144  0.7381
   17MOL0     C 2187   3.379   8.202   8.431 -0.1848 -0.0078  1.3685
   17MOL0     C 2188   3.493   8.182   8.349 -0.0363  0.0353  0.4033
   17MOL0     C 2189   3.557   8.057   8.336  0.4029  0.4510  0.1533
   17MOL0     O 2190   3.562   7.963   8.445 -0.5814 -0.1462  0.2622
   17MOL0     C 2191   3.613   7.837   8.429  1.2558 -0.0745  0.3844
   17MOL0     C 2192   3.711   7.788   8.340  1.1785 -0.9576 -0.4344
   17MOL0     C 2193   3.743   7.648   8.325 -0.7883  0.3813 -0.8993
   17MOL0     C 2194   3.678   7.546   8.395 -0.9234 -0.2217 -0.0573
   17MOL0     O 2195   3.699   7.412   8.365  0.4112  0.5083 -0.5293
   17MOL0     C 2196   3.625   7.361   8.258  1.2143  0.3554 -0.4205
   17MOL0     C 2197   3.631   7.211   8.284  0.3243 -0.0775 -0.2738
   17MOL0     C 2198   3.555   7.172   8.415 -0.0317  0.4327 -1.2189
   17MOL0     C 2199   3.404   7.187   8.387 -0.5668  0.0914 -0.3618
   17MOL0     C 2200   3.315   7.166   8.507 -0.9784  0.5100  0.1695
   17MOL0     C 2201   3.241   7.034   8.502  0.7550  0.3584 -0.1502
   17MOL0     C 2202   3.160   7.010   8.630  0.0071  0.1810  0.7192
   17MOL0     C 2203   3.141   6.870   8.670 -0.2837  0.4229 -0.2897
   17MOL0    Cl 2204   3.148   6.749   8.523 -0.1609 -0.0932 -0.0973
   17MOL0     C 2205   3.580   7.599   8.491 -0.8454  0.5775  0.3757
   17MOL0     C 2206   3.559   7.746   8.508 -0.4076 -0.2383 -0.1219
   17MOL0     O 2207   3.608   8.033   8.225  0.4882 -0.0711 -0.4196
   17MOL0     C 2208   3.546   8.289   8.282  0.0584 -1.0193 -0.3772
   17MOL0     C 2209   3.487   8.418   8.292 -0.5833 -0.1874 -2.1511
   17MOL0     N 2210   2.855   8.802   8.707  0.0771 -0.6337 -0.0318
   17MOL0     N 2211   2.798   8.883   8.790  0.5617  0.3281  0.3032
   17MOL0     C 2212   2.810   8.532   9.614  0.0849  0.9776  0.9115
   17MOL0     C 2213   2.895   8.537   9.722 -0.7318  0.1630  0.4484
   17MOL0     C 2214   3.178   8.604  10.037 -0.3319  0.3920  0.2531
   17MOL0     C 2215   3.323   8.615  10.040 -0.3770 -0.4949 -0.5952
   17MOL0     C 2216   3.391   8.615  10.161 -0.7398 -0.1635 -0.5401
   17MOL0     C 2217   3.331   8.638  10.287  0.5746  0.2968 -0.1878
   17MOL0     O 2218   3.387   8.634  10.406 -0.2051 -0.4676  0.0727
   17MOL0     C 2219   3.529   8.629  10.414 -0.0146  0.1502 -0.6461
   17MOL0     C 2220   3.571   8.650  10.565  0.4426  0.5712 -0.0638
   17MOL0     C 2221   3.544   8.801  10.610  0.4082  0.3557 -0.3903
   17MOL0     C 2222   3.582   8.822  10.756 -0.3365 -0.5055 -0.2325
   17MOL0     C 2223   3.692   8.911  10.767 -0.6771 -0.4495  0.3137
   17MOL0     C 2224   3.787   8.994  10.740  0.5527  0.2008  0.6543
   17MOL0     C 2225   3.190   8.644  10.280  0.2364  0.7583  0.9679
   17MOL0     C 2226   3.115   8.633  10.163 -0.0642 -0.4036  0.2633
   17MOL0     C 2227   2.969   8.635  10.169 -0.4714  0.7123  0.0820
   17MOL0     H 2228   2.953   8.874   9.698 -1.3587  0.4722  0.1805
   17MOL0     H 2229   2.780   8.859   9.538  1.1541  2.5664 -0.1297
   17MOL0     H 2230   2.618   8.465   9.388 -0.8603 -0.1294  0.0557
   17MOL0     H 2231   2.513   8.584   9.453  1.0966 -2.7754 -0.0680
   17MOL0     H 2232   2.426   8.536   9.240  0.3609 -1.5779  2.3685
   17MOL0     H 2233   2.584   8.517   9.163 -3.1346 -3.2010 -0.3583
   17MOL0     H 2234   2.644   8.726   9.148 -1.8307  0.2833 -2.7530
   17MOL0     H 2235   2.539   8.798   9.271  3.4725  0.4563 -0.0220
   17MOL0     H 2236   2.453   8.672   9.013  0.1707 -3.7466  2.9583
   17MOL0     H 2237   2.341   8.763   9.124 -0.5567 -3.1379 -1.6528
   17MOL0     H 2238   2.381   8.960   9.048 -0.0526 -1.0389  0.5208
   17MOL0     H 2239   2.562   8.932   9.038  1.9688  0.1676 -2.0751
   17MOL0     H 2240   2.517   8.797   8.824 -0.8830 -0.7439 -0.1151
   17MOL0     H 2241   2.354   8.857   8.829  0.4336  2.7546 -0.7176
   17MOL0     H 2242   2.422   9.087   8.847  1.8938 -0.5373  3.5748
   17MOL0     H 2243   2.473   9.006   8.690  1.9490  0.4318 -0.3441
   17MOL0     H 2244   2.629   9.182   8.761  2.9113  1.5511  3.4331
   17MOL0     H 2245   2.667   9.079   8.900 -0.1210  0.2430  0.3681
   17MOL0     H 2246   2.731   9.043   8.516  4.7528  2.1278 -1.5707
   17MOL0     H 2247   2.884   8.725   8.455 -3.3559  3.1025 -2.8696
   17MOL0     H 2248   2.922   8.878   8.402 -2.6156  1.1545  0.2156
   17MOL0     H 2249   3.104   8.895   8.580 -3.3116  0.0866 -0.9392
   17MOL0     H 2250   3.086   8.718   8.622  2.8940 -2.5737 -1.6761
   17MOL0     H 2251   3.280   8.800   8.438  0.3133 -0.9044  1.3344
   17MOL0     H 2252   3.141   8.759   8.342  0.7383 -2.2483 -0.3940
   17MOL0     H 2253   3.137   8.546   8.459 -0.4020  0.7700 -2.3192
   17MOL0     H 2254   3.261   8.591   8.576 -0.6787 -1.3591 -0.2773
   17MOL0     H 2255   3.233   8.331   8.510 -0.3532  1.3318  1.2414
   17MOL0     H 2256   3.330   8.124   8.487 -3.6595  0.7062 -0.3615
   17MOL0     H 2257   3.764   7.859   8.278  0.9015  0.8464  1.2831
   17MOL0     H 2258   3.806   7.616   8.242  3.5002 -0.3856  2.2917
   17MOL0     H 2259   3.523   7.395   8.273  1.5158  0.1742  2.6081
   17MOL0     H 2260   3.668   7.394   8.163  2.2331  1.5525  0.4317
   17MOL0     H 2261   3.590   7.163   8.194 -2.7707 -1.2894  1.6112
   17MOL0     H 2262   3.736   7.179   8.286 -0.2588 -2.1713  1.4541
   17MOL0     H 2263   3.579   7.069   8.442  0.2384  0.5630 -0.9555
   17MOL0     H 2264   3.581   7.229   8.505  0.1077  3.2762 -2.9330
   17MOL0     H 2265   3.366   7.130   8.302 -1.7281  0.0006  0.1878
   17MOL0     H 2266   3.379   7.290   8.359 -3.2760  0.7020  3.5135
   17MOL0     H 2267   3.239   7.244   8.494 -3.4225 -2.0756 -2.9444
   17MOL0     H 2268   3.374   7.174   8.599  1.0212  0.1154 -1.0073
   17MOL0     H 2269   3.168   7.027   8.420 -2.2820 -5.5898  2.4568
   17MOL0     H 2270   3.311   6.951   8.499  0.1818 -0.1115 -0.8146
   17MOL0     H 2271   3.072   7.072   8.615  0.5575  0.6830 -0.6214
   17MOL0     H 2272   3.206   7.063   8.714  1.4583 -3.7018  2.5870
   17MOL0     H 2273   3.221   6.830   8.733 -0.9169 -0.8898 -0.2927
   17MOL0     H 2274   3.047   6.847   8.721 -1.1906  1.6969 -1.3158
   17MOL0     H 2275   3.536   7.527   8.559  1.6726 -2.4750 -0.9616
   17MOL0     H 2276   3.489   7.781   8.582  0.3875  1.3090 -0.0719
   17MOL0     H 2277   3.635   8.295   8.220  0.0189  2.5155 -0.3015
   17MOL0     H 2278   3.531   8.493   8.227  2.0356 -1.6182 -2.1667
   17MOL0     H 2279   2.778   8.430   9.596 -1.0467  1.0840  2.0803
   17MOL0     H 2280   2.923   8.449   9.780  2.4733  1.2335  0.7155
   17MOL0     H 2281   3.375   8.589   9.949  1.3678 -0.2297  0.2785
   17MOL0     H 2282   3.499   8.608  10.157 -0.5729  2.1160 -2.2836
   17MOL0     H 2283   3.577   8.709  10.357 -0.1245 -0.9548 -2.3607
   17MOL0     H 2284   3.569   8.533  10.380 -0.0105  0.6589 -2.1913
   17MOL0     H 2285   3.672   8.612  10.586  0.0359 -0.4261  0.1271
   17MOL0     H 2286   3.513   8.581  10.626 -0.3298  1.7516  0.5697
   17MOL0     H 2287   3.439   8.829  10.601  0.4199  1.3773  1.9392
   17MOL0     H 2288   3.602   8.858  10.537  2.2847 -1.1148 -0.1240
   17MOL0     H 2289   3.509   8.873  10.819 -1.7702 -0.4755 -1.8481
   17MOL0     H 2290   3.602   8.722  10.796 -2.9507 -0.5639  1.1285
   17MOL0     H 2291   3.877   9.049  10.722  2.3867 -1.3995  3.9838
   17MOL0     H 2292   3.135   8.647  10.374 -3.5600 -0.5477 -1.0224
   17MOL0     H 2293   2.927   8.594  10.077 -1.3442 -1.3705  1.3369
   17MOL0     H 2294   2.939   8.570  10.253  2.7742  2.8119  3.1461
   17MOL0     H 2295   2.932   8.736  10.188 -1.3598  0.6378 -1.1640
   18MOL0     O 2296   8.469   1.987   6.020  0.6248 -0.5293 -0.2182
   18MOL0     C 2297   8.548   1.944   6.105 -0.3572 -0.7242 -0.8003
   18MOL0     O 2298   8.530   1.944   6.234  0.1343  0.0495 -0.5892
   18MOL0     C 2299   8.406   1.965   6.282  0.0460  0.4750 -1.2308
   18MOL0     C 2300   8.324   2.079   6.252 -0.8294  0.3418 -0.0850
   18MOL0     C 2301   8.191   2.085   6.295 -0.0132  0.1559  0.2413
   18MOL0     C 2302   8.139   1.966   6.354  0.2754 -0.2501  0.2035
   18MOL0     O 2303   8.007   1.958   6.398 -0.2803 -0.2538 -0.4437
   18MOL0     C 2304   7.917   1.958   6.288  0.1294  0.0876 -0.1441
   18MOL0     C 2305   7.798   1.873   6.334 -0.1841  0.0126 -0.2845
   18MOL0     C 2306   7.680   1.876   6.243  0.9645 -0.4913 -0.2371
   18MOL0     C 2307   7.702   1.781   6.131  0.4306  0.3419 -0.0635
   18MOL0     C 2308   7.581   1.778   6.025  0.5146  0.1890 -1.3745
   18MOL0     C 2309   7.464   1.706   6.107  0.1852 -0.1220 -0.1577
   18MOL0     C 2310   7.351   1.650   6.012 -0.0513 -0.3183 -0.7443
   18MOL0     C 2311   7.230   1.605   6.091 -0.5873 -0.1621  0.1478
   18MOL0     N 2312   7.139   1.540   6.016 -0.2712  0.2581 -0.2923
   18MOL0     C 2313   7.157   1.424   5.944  0.5205 -0.4648  0.2568
   18MOL0     C 2314   7.042   1.411   5.883 -0.1536 -0.8511  0.7645
   18MOL0     C 2315   7.004   1.292   5.800 -0.1830  0.1840 -0.5891
   18MOL0     C 2316   6.912   1.328   5.680  0.0312 -0.2033  0.2801
   18MOL0     C 2317   6.972   1.435   5.591  0.4774 -0.2257 -0.1068
   18MOL0     C 2318   7.081   1.378   5.507  0.2735 -0.2636  0.0132
   18MOL0     O 2319   7.184   1.465   5.450 -0.2661 -0.3208 -0.7319
   18MOL0     C 2320   7.190   1.598   5.491  0.7960 -0.4722 -0.4185
   18MOL0     C 2321   7.135   1.700   5.413  0.0642  0.0328  0.5837
   18MOL0     C 2322   7.157   1.838   5.432 -0.0308 -0.1980 -0.5687
   18MOL0     C 2323   7.230   1.875   5.545 -0.6018 -0.0078  0.1079
   18MOL0     C 2324   7.240   2.016   5.574 -1.5151 -0.9034  0.2047
   18MOL0     O 2325   7.302   2.041   5.702  0.6110 -0.6250  0.7146
   18MOL0     C 2326   7.350   2.165   5.745 -0.4451 -0.0132 -0.5864
   18MOL0     C 2327   7.339   2.290   5.684 -1.1332  0.8560  0.8863
   18MOL0     C 2328   7.414   2.400   5.732 -0.1663 -0.2245 -0.7205
   18MOL0     C 2329   7.500   2.391   5.843 -0.2117  1.1251  0.4891
   18MOL0     O 2330   7.560   2.496   5.896 -0.7172  0.1045  0.4186
   18MOL0     C 2331   7.491   2.631   5.894  0.6502  0.2167 -0.6794
   18MOL0     C 2332   7.551   2.721   5.995 -0.4369 -0.0245  0.0042
   18MOL0     C 2333   7.518   2.666   6.132 -0.2616 -0.0530  0.9079
   18MOL0     C 2334   7.565   2.754   6.235  0.1733  0.0193  0.6972
   18MOL0     C 2335   7.501   2.720   6.372  0.2311 -0.0070 -0.5529
   18MOL0     C 2336   7.562   2.792   6.495  0.4452 -0.8363  0.0675
   18MOL0     C 2337   7.487   2.726   6.617 -0.7945 -0.4636  0.7072
   18MOL0     C 2338   7.565   2.738   6.750 -0.3727 -0.1477  0.3156
   18MOL0    Cl 2339   7.734   2.689   6.745 -0.0974  0.2943 -0.8849
   18MOL0     C 2340   7.514   2.268   5.908 -0.1704 -0.5232  0.9777
   18MOL0     C 2341   7.427   2.168   5.863  0.2646 -1.1410  0.3563
   18MOL0     O 2342   7.211   2.105   5.492 -0.3608 -0.7358 -0.4185
   18MOL0     C 2343   7.278   1.776   5.628 -0.5727 -0.0351  0.0252
   18MOL0     C 2344   7.267   1.634   5.599  0.7952  0.0890  0.9344
   18MOL0     N 2345   6.944   1.502   5.928 -0.0447  0.2556  0.7563
   18MOL0     N 2346   7.008   1.578   6.010  0.3509  0.0257 -0.7117
   18MOL0     C 2347   8.209   1.851   6.365  0.2361 -0.4313 -0.3067
   18MOL0     C 2348   8.345   1.853   6.336 -0.5188 -0.2464 -0.4919
   18MOL0     C 2349   8.694   1.910   6.060  0.5113  0.4332  0.7543
   18MOL0     C 2350   8.800   1.889   6.158 -0.8777 -0.0002  0.3652
   18MOL0     C 2351   8.933   1.864   6.127 -0.3769  0.0994 -0.7146
   18MOL0     C 2352   8.959   1.827   5.993  0.2241 -0.1015  0.2444
   18MOL0     O 2353   9.087   1.786   5.958 -0.4429  0.3128  0.2376
   18MOL0     C 2354   9.113   1.725   5.830 -0.5397 -0.5656 -0.3008
   18MOL0     C 2355   9.216   1.620   5.857 -0.0017 -0.9285 -0.1479
   18MOL0     C 2356   9.254   1.543   5.736  0.3317 -0.3943  0.0621
   18MOL0     C 2357   9.366   1.444   5.772  0.5203 -0.5021 -0.7173
   18MOL0     C 2358   9.493   1.506   5.804 -0.9625  0.4743 -0.3603
   18MOL0     C 2359   9.614   1.528   5.816  0.7291 -0.8995 -0.7880
   18MOL0     C 2360   8.859   1.840   5.892  0.0042  0.0750 -0.2926
   18MOL0     C 2361   8.728   1.887   5.921  0.3779  1.0940 -0.4044
   18MOL0     C 2362   8.624   1.877   5.809 -0.6579 -0.7778  0.7344
   18MOL0     H 2363   8.367   2.159   6.192  0.8226 -0.2679  0.2503
   18MOL0     H 2364   8.131   2.174   6.307 -1.0900 -0.3981 -0.8914
   18MOL0     H 2365   7.897   2.063   6.261  1.3750  0.3977  0.0736
   18MOL0     H 2366   7.961   1.909   6.201 -2.0277 -1.9747 -0.1522
   18MOL0     H 2367   7.769   1.912   6.432 -0.9668 -1.4911  0.1137
   18MOL0     H 2368   7.829   1.769   6.343 -0.8749 -0.0846  1.2449
   18MOL0     H 2369   7.657   1.979   6.211  0.4123  0.9524  4.1289
   18MOL0     H 2370   7.591   1.837   6.295  1.4381 -2.6688 -0.9574
   18MOL0     H 2371   7.791   1.818   6.078  0.6798 -0.5620 -0.2938
   18MOL0     H 2372   7.719   1.682   6.174 -0.5147  0.0217 -0.4094
   18MOL0     H 2373   7.562   1.885   6.008 -0.1446  0.4423  0.6876
   18MOL0     H 2374   7.624   1.723   5.941 -0.0860 -0.6996 -1.1052
   18MOL0     H 2375   7.498   1.623   6.169 -1.0364  0.1600  0.9457
   18MOL0     H 2376   7.428   1.787   6.172  2.1192 -3.0953  5.2380
   18MOL0     H 2377   7.383   1.561   5.957  1.0141  1.3025 -2.8964
   18MOL0     H 2378   7.320   1.724   5.937 -0.7278  0.0293 -0.1233
   18MOL0     H 2379   7.268   1.537   6.168  0.3078  1.2135  0.9564
   18MOL0     H 2380   7.182   1.692   6.137 -0.5582 -1.2885  2.4692
   18MOL0     H 2381   7.240   1.354   5.940  2.7586  2.0099 -4.2345
   18MOL0     H 2382   7.099   1.249   5.767 -0.0412 -1.3305  1.5966
   18MOL0     H 2383   6.957   1.214   5.860 -0.6766  1.1236  0.2653
   18MOL0     H 2384   6.897   1.237   5.621  3.3762 -2.5055  2.5396
   18MOL0     H 2385   6.820   1.360   5.729 -1.3747  0.5298 -2.6138
   18MOL0     H 2386   7.016   1.515   5.652  3.2479 -1.9802  0.3630
   18MOL0     H 2387   6.900   1.481   5.523  1.4487  1.7693  0.1244
   18MOL0     H 2388   7.033   1.329   5.421 -2.4625  1.6211  0.3215
   18MOL0     H 2389   7.136   1.300   5.560  2.1893 -0.9053 -2.6767
   18MOL0     H 2390   7.073   1.668   5.330 -1.6728 -2.2024  2.6134
   18MOL0     H 2391   7.106   1.919   5.381 -2.6799  0.0320  2.1552
   18MOL0     H 2392   7.281   2.300   5.592 -2.2595 -0.4897  1.4112
   18MOL0     H 2393   7.428   2.497   5.687  0.6399 -0.9273 -2.0637
   18MOL0     H 2394   7.513   2.671   5.795  0.0629 -0.2594 -1.0109
   18MOL0     H 2395   7.383   2.637   5.910  0.6149  1.0721 -1.1778
   18MOL0     H 2396   7.660   2.729   5.989  0.4773 -4.0990  4.4401
   18MOL0     H 2397   7.501   2.815   5.970 -1.1438 -0.7781 -1.5127
   18MOL0     H 2398   7.411   2.649   6.146 -0.6276  0.0951 -1.3562
   18MOL0     H 2399   7.569   2.570   6.146  1.5621  0.4399 -1.6396
   18MOL0     H 2400   7.535   2.853   6.198 -3.0333 -2.0405 -3.0313
   18MOL0     H 2401   7.674   2.749   6.240  0.1563 -1.4357  0.1446
   18MOL0     H 2402   7.525   2.617   6.402  3.4549  1.9249  5.1444
   18MOL0     H 2403   7.394   2.742   6.367  0.1066  0.3978  2.2046
   18MOL0     H 2404   7.671   2.779   6.499  0.5116 -0.5449 -0.7206
   18MOL0     H 2405   7.537   2.898   6.497 -2.2469 -1.3872 -0.4134
   18MOL0     H 2406   7.490   2.621   6.586 -0.2228  0.3743 -2.3859
   18MOL0     H 2407   7.386   2.767   6.621 -0.1455  1.2538  0.1122
   18MOL0     H 2408   7.549   2.841   6.785 -2.8922 -0.0066 -1.0028
   18MOL0     H 2409   7.516   2.666   6.816 -0.8603  1.8233  2.2626
   18MOL0     H 2410   7.577   2.256   5.995 -1.1435 -2.1399  1.5093
   18MOL0     H 2411   7.431   2.072   5.913 -0.7187 -0.6637  1.3969
   18MOL0     H 2412   7.337   1.798   5.717  1.7309 -0.8689 -1.2003
   18MOL0     H 2413   7.327   1.556   5.646  1.4103  0.4677  0.7994
   18MOL0     H 2414   8.162   1.765   6.412  2.2842 -1.5331 -0.1870
   18MOL0     H 2415   8.400   1.762   6.359  0.1124  0.8998  3.3400
   18MOL0     H 2416   8.779   1.917   6.261  4.4688  2.4366  1.1672
   18MOL0     H 2417   9.004   1.839   6.205 -1.4370  2.2645  1.0653
   18MOL0     H 2418   9.143   1.805   5.761 -3.6300  1.5562  0.5884
   18MOL0     H 2419   9.024   1.673   5.796 -0.0037 -1.1437 -0.8539
   18MOL0     H 2420   9.160   1.555   5.925 -2.2232 -1.5049 -2.3765
   18MOL0     H 2421   9.297   1.659   5.919  0.0060  0.2015 -0.8396
   18MOL0     H 2422   9.301   1.615   5.668 -0.5206  0.0212 -0.1086
   18MOL0     H 2423   9.169   1.494   5.689  1.3317 -1.6500 -0.4856
   18MOL0     H 2424   9.326   1.392   5.860 -2.6805  3.0939  0.2218
   18MOL0     H 2425   9.380   1.373   5.690 -0.9551  0.3764 -1.7615
   18MOL0     H 2426   9.718   1.544   5.836  0.1197  1.3872  1.0705
   18MOL0     H 2427   8.884   1.830   5.787  1.1253 -2.4626  0.1521
   18MOL0     H 2428   8.671   1.847   5.715  0.4611  3.0193 -0.1037
   18MOL0     H 2429   8.550   1.804   5.841  0.2695 -1.8335  0.5480
   18MOL0     H 2430   8.577   1.974   5.789  0.6159 -0.2325  0.2248
   19MOL0     O 2431   1.730   1.225   8.733 -0.4420  0.0387  1.2561
   19MOL0     C 2432   1.797   1.264   8.831  0.4278 -0.7071  0.4799
   19MOL0     O 2433   1.796   1.385   8.881  0.5763  0.0100  0.4016
   19MOL0     C 2434   1.737   1.490   8.804 -0.0988 -0.4343 -0.0741
   19MOL0     C 2435   1.600   1.507   8.821 -0.4787  0.8599 -0.5228
   19MOL0     C 2436   1.542   1.624   8.774  0.0507 -0.1706 -0.1172
   19MOL0     C 2437   1.616   1.720   8.712  0.2820  0.6840 -0.7882
   19MOL0     O 2438   1.550   1.831   8.662  0.2041 -0.8270  0.4030
   19MOL0     C 2439   1.460   1.901   8.758  0.3523 -0.0789 -0.0799
   19MOL0     C 2440   1.306   1.873   8.764 -0.6685 -0.8983  0.1193
   19MOL0     C 2441   1.224   1.914   8.896 -0.6247 -0.5495 -0.0227
   19MOL0     C 2442   1.268   1.820   9.006 -0.2980  0.8459 -0.3512
   19MOL0     C 2443   1.185   1.849   9.135  1.5173  0.2739  0.4631
   19MOL0     C 2444   1.198   1.749   9.254 -0.4729 -0.1946 -0.8061
   19MOL0     C 2445   1.104   1.784   9.375 -0.2521 -0.8189  0.0555
   19MOL0     C 2446   0.951   1.786   9.328  0.5932  0.3724 -0.8779
   19MOL0     N 2447   0.863   1.816   9.438  0.3674  0.4783 -0.0850
   19MOL0     C 2448   0.729   1.847   9.414 -0.0591 -0.4916  0.5822
   19MOL0     C 2449   0.679   1.829   9.532 -0.3116  0.3146 -0.6864
   19MOL0     C 2450   0.535   1.822   9.573 -0.4694 -0.6450  0.0134
   19MOL0     C 2451   0.488   1.957   9.620 -0.1774 -0.2459 -0.3409
   19MOL0     C 2452   0.377   1.933   9.729 -0.9230  0.6580 -0.6546
   19MOL0     C 2453   0.341   2.065   9.797 -0.3961  0.4518 -0.0009
   19MOL0     O 2454   0.208   2.054   9.840 -0.6863 -0.8176 -0.5929
   19MOL0     C 2455   0.187   2.020   9.973  0.3357  0.2327 -0.7645
   19MOL0     C 2456   0.242   2.100  10.078  0.0173  1.4516 -0.7563
   19MOL0     C 2457   0.206   2.063  10.212 -1.2993 -0.0537  0.8684
   19MOL0     C 2458   0.136   1.947  10.244  0.4513  0.1507 -1.5878
   19MOL0     C 2459   0.110   1.895  10.381 -1.1964 -1.3548  0.3431
   19MOL0     O 2460   0.030   1.797  10.408 -0.4523  0.7400  0.6490
   19MOL0     C 2461   0.053   1.722  10.519  1.0695 -0.0718 -0.2498
   19MOL0     C 2462   0.000   1.770  10.643 -0.1805 -1.0891 -0.3875
   19MOL0     C 2463   0.010   1.695  10.764 -0.1417 -0.0564  1.0386
   19MOL0     C 2464   0.075   1.572  10.759  0.3013  0.2159  0.2161
   19MOL0     O 2465   0.112   1.510  10.876 -0.3943  0.7611  0.5976
   19MOL0     C 2466   0.102   1.363  10.888  0.2802 -1.3973 -0.2678
   19MOL0     C 2467  -0.047   1.312  10.904  1.3384 -0.2205  0.5077
   19MOL0     C 2468  -0.094   1.336  11.054  0.3077 -0.0804  0.5657
   19MOL0     C 2469  -0.241   1.382  11.059 -0.7214  0.5110 -0.6547
   19MOL0     C 2470  -0.286   1.401  11.202  0.5674 -0.9134 -0.7425
   19MOL0     C 2471  -0.424   1.470  11.209 -0.3031  0.1500  0.1580
   19MOL0     C 2472  -0.531   1.371  11.149  0.3512  0.7561 -1.0357
   19MOL0     C 2473  -0.672   1.412  11.184  0.4302  0.1077 -0.8572
   19MOL0    Cl 2474  -0.771   1.317  11.073 -0.3524 -0.4004 -0.2058
   19MOL0     C 2475   0.123   1.521  10.633 -0.1438 -0.2850  0.0997
   19MOL0     C 2476   0.109   1.595  10.511  0.8979 -0.1372  0.1760
   19MOL0     O 2477   0.197   1.931  10.462  0.1904 -0.7008 -0.3273
   19MOL0     C 2478   0.088   1.869  10.140 -0.5925 -0.0046  0.1332
   19MOL0     C 2479   0.112   1.901  10.007  0.0816 -0.5060 -0.4573
   19MOL0     N 2480   0.783   1.805   9.627  0.3295  0.1322 -0.1254
   19MOL0     N 2481   0.892   1.808   9.572 -0.0533  0.4580  0.2131
   19MOL0     C 2482   1.747   1.702   8.675  0.1810  0.3345 -0.3114
   19MOL0     C 2483   1.812   1.582   8.720 -0.3599 -0.5483  0.1234
   19MOL0     C 2484   1.874   1.154   8.899  0.6560 -0.5466  0.0786
   19MOL0     C 2485   1.997   1.194   8.963  1.9232 -0.2068 -0.2590
   19MOL0     C 2486   2.086   1.094   9.000  0.6664 -0.2073  0.0566
   19MOL0     C 2487   2.056   0.961   8.998 -0.0865 -0.0268 -0.0791
   19MOL0     O 2488   2.147   0.871   9.047 -0.9395  0.0093 -1.1926
   19MOL0     C 2489   2.286   0.885   8.990  1.5038 -0.1266  0.3045
   19MOL0     C 2490   2.336   0.760   9.010 -1.7826  1.1038 -0.0257
   19MOL0     C 2491   2.486   0.740   8.971 -0.3246 -0.2705  0.1119
   19MOL0     C 2492   2.571   0.643   9.056 -0.1245 -0.0353 -0.4111
   19MOL0     C 2493   2.541   0.494   9.056  0.9576 -0.0380  0.1595
   19MOL0     C 2494   2.531   0.368   9.056 -0.1106  0.3638 -0.4972
   19MOL0     C 2495   1.921   0.920   8.964  0.5437 -0.1972  0.2982
   19MOL0     C 2496   1.837   1.015   8.898 -0.8577  0.6244 -0.0160
   19MOL0     C 2497   1.710   0.954   8.837  0.9734  0.5657 -0.9089
   19MOL0     H 2498   1.543   1.437   8.880 -1.1654  1.6601 -0.2053
   19MOL0     H 2499   1.437   1.633   8.798 -0.1449 -2.6467  0.2410
   19MOL0     H 2500   1.498   1.895   8.860  0.6521 -0.3352 -0.2044
   19MOL0     H 2501   1.469   2.006   8.729 -0.3776  0.6350  2.0895
   19MOL0     H 2502   1.289   1.768   8.741  0.4220 -0.9606 -0.4894
   19MOL0     H 2503   1.267   1.924   8.675  2.7981  2.3790  0.2150
   19MOL0     H 2504   1.117   1.897   8.880 -1.0507  0.7540  1.2339
   19MOL0     H 2505   1.240   2.019   8.922  0.2709 -0.8687  0.7854
   19MOL0     H 2506   1.238   1.721   8.969 -2.7015  2.1344 -2.1686
   19MOL0     H 2507   1.377   1.815   9.017 -0.2648 -0.1739 -0.9773
   19MOL0     H 2508   1.211   1.949   9.171  1.3934  1.4224 -2.3892
   19MOL0     H 2509   1.084   1.857   9.095  1.5355  1.8448  0.6987
   19MOL0     H 2510   1.168   1.650   9.217 -0.5210 -0.1231 -0.9582
   19MOL0     H 2511   1.302   1.743   9.287 -1.1596 -2.4506  1.3010
   19MOL0     H 2512   1.129   1.881   9.418 -0.4226  0.1068 -1.8395
   19MOL0     H 2513   1.112   1.717   9.461  2.3458  0.0012  0.5438
   19MOL0     H 2514   0.935   1.852   9.242  1.6697  2.1165  0.1780
   19MOL0     H 2515   0.918   1.684   9.306  0.2011  0.0160  1.1940
   19MOL0     H 2516   0.690   1.853   9.313  3.9684  1.3777 -1.1295
   19MOL0     H 2517   0.467   1.791   9.493  1.4498 -0.0185 -1.9472
   19MOL0     H 2518   0.528   1.746   9.651  0.2288 -2.4822 -1.6061
   19MOL0     H 2519   0.573   1.998   9.675  0.3508 -1.1218 -0.4933
   19MOL0     H 2520   0.442   2.021   9.544 -1.7537 -1.3315 -0.3436
   19MOL0     H 2521   0.413   1.856   9.798 -2.1475  1.6598  1.1658
   19MOL0     H 2522   0.286   1.892   9.685 -0.3407 -0.2675 -1.0334
   19MOL0     H 2523   0.346   2.138   9.715 -0.1972 -1.7122 -2.0447
   19MOL0     H 2524   0.413   2.104   9.869 -2.2145  1.9439  1.0725
   19MOL0     H 2525   0.292   2.190  10.045 -0.5713  1.8997 -0.4420
   19MOL0     H 2526   0.235   2.124  10.297 -3.4014  1.7820  0.3621
   19MOL0     H 2527  -0.049   1.866  10.646  1.5497 -0.0459 -2.7206
   19MOL0     H 2528   0.002   1.744  10.860  2.1619  2.4878  0.0463
   19MOL0     H 2529   0.134   1.317  10.794  3.8700 -1.1890  0.7127
   19MOL0     H 2530   0.166   1.325  10.968  1.2559 -1.5537 -1.0918
   19MOL0     H 2531  -0.110   1.380  10.847  1.3542 -0.2624  0.4417
   19MOL0     H 2532  -0.074   1.213  10.866  0.9047  1.6392 -4.7947
   19MOL0     H 2533  -0.078   1.243  11.109 -0.9744  0.7317  2.3946
   19MOL0     H 2534  -0.033   1.417  11.095 -1.2934  1.6488 -0.2837
   19MOL0     H 2535  -0.296   1.313  10.994  1.7367 -2.4472  0.1957
   19MOL0     H 2536  -0.244   1.484  11.018 -1.4097  1.9496  2.6231
   19MOL0     H 2537  -0.228   1.475  11.257 -1.0721  0.0200 -0.2018
   19MOL0     H 2538  -0.302   1.307  11.256 -1.9961 -0.0232  0.1850
   19MOL0     H 2539  -0.435   1.479  11.317  1.7840  1.1214  0.3355
   19MOL0     H 2540  -0.430   1.566  11.157 -4.9841 -0.7408 -1.4678
   19MOL0     H 2541  -0.521   1.277  11.205  0.0798  0.9076 -0.7247
   19MOL0     H 2542  -0.518   1.364  11.041  1.0101  1.9694 -1.0591
   19MOL0     H 2543  -0.700   1.405  11.290 -2.8386  1.1964 -1.5548
   19MOL0     H 2544  -0.678   1.518  11.159 -4.7953  0.8160  1.9549
   19MOL0     H 2545   0.177   1.431  10.606  0.6303  0.6625 -1.7284
   19MOL0     H 2546   0.126   1.543  10.418  0.0646 -0.0646 -0.0253
   19MOL0     H 2547   0.039   1.774  10.159 -0.4246 -0.2252 -0.5072
   19MOL0     H 2548   0.063   1.842   9.930 -1.9866 -1.3758  1.4071
   19MOL0     H 2549   1.802   1.770   8.611  3.1666 -1.1085  0.5749
   19MOL0     H 2550   1.916   1.555   8.703 -0.4151  0.0640 -1.3304
   19MOL0     H 2551   2.017   1.300   8.971 -0.5003  0.3770 -1.1628
   19MOL0     H 2552   2.181   1.117   9.046 -0.2280  0.7933  1.4809
   19MOL0     H 2553   2.352   0.952   9.045  1.2410 -1.1706  1.9741
   19MOL0     H 2554   2.273   0.902   8.883 -0.4659 -3.6922 -0.1828
   19MOL0     H 2555   2.272   0.694   8.951  0.2937 -0.5699 -0.5132
   19MOL0     H 2556   2.325   0.724   9.113  0.3239 -1.9612 -0.7324
   19MOL0     H 2557   2.530   0.838   8.992  1.3781 -1.4604  2.6083
   19MOL0     H 2558   2.505   0.718   8.865  0.1950 -0.5963  0.2691
   19MOL0     H 2559   2.678   0.661   9.043 -0.6639  2.5670 -1.8526
   19MOL0     H 2560   2.553   0.660   9.163 -1.1528  0.6692 -0.6799
   19MOL0     H 2561   2.518   0.262   9.059  0.2548  0.3176  2.8844
   19MOL0     H 2562   1.895   0.819   8.993  0.6096 -0.5741 -0.9211
   19MOL0     H 2563   1.684   1.005   8.743  0.2002  1.7790 -0.0699
   19MOL0     H 2564   1.719   0.849   8.810  2.3041  0.7397 -1.1877
   19MOL0     H 2565   1.633   0.976   8.912  1.5744  1.8326 -0.6189
   20MOL0     O 2566   8.278   1.434   2.504 -0.4498 -0.4919  0.3822
   20MOL0     C 2567   8.347   1.498   2.587 -0.6054 -0.3796  1.0909
   20MOL0     O 2568   8.359   1.631   2.585 -0.1705 -0.0087 -0.0192
   20MOL0     C 2569   8.379   1.691   2.468 -0.1441  0.4571 -0.2949
   20MOL0     C 2570   8.278   1.767   2.409 -0.1065 -0.1368 -0.5195
   20MOL0     C 2571   8.301   1.844   2.297  0.9929  0.6676  0.5458
   20MOL0     C 2572   8.423   1.828   2.220 -0.8330  0.2623 -0.3393
   20MOL0     O 2573   8.435   1.900   2.100 -0.0116 -0.2005  0.0672
   20MOL0     C 2574   8.534   1.851   2.014  0.6738  0.7109  0.4017
   20MOL0     C 2575   8.508   1.910   1.877 -1.3900 -0.0797  0.0561
   20MOL0     C 2576   8.609   1.854   1.776  0.3516  0.4356 -0.4471
   20MOL0     C 2577   8.590   1.935   1.655  0.1317  0.0862  0.5798
   20MOL0     C 2578   8.669   1.886   1.533  0.3650 -0.6229  0.9195
   20MOL0     C 2579   8.651   1.967   1.399 -0.5625 -1.0169 -0.0613
   20MOL0     C 2580   8.522   1.932   1.329  0.0952  0.2309  0.4312
   20MOL0     C 2581   8.509   2.011   1.198 -0.1643  0.3782 -0.3929
   20MOL0     N 2582   8.604   1.970   1.092  0.4420  0.7866 -0.0297
   20MOL0     C 2583   8.683   2.047   1.013 -0.4616  0.9071 -0.0453
   20MOL0     C 2584   8.758   1.959   0.941  0.3407  0.3982  0.4008
   20MOL0     C 2585   8.861   1.982   0.842 -0.7797 -0.2860 -0.1126
   20MOL0     C 2586   8.807   2.079   0.739 -1.1043 -0.1063  0.1585
   20MOL0     C 2587   8.697   2.020   0.662  0.0513  0.0045 -0.2048
   20MOL0     C 2588   8.698   2.061   0.516  0.7427 -0.3087 -0.1900
   20MOL0     O 2589   8.579   2.003   0.458 -0.3848  0.5680 -0.1241
   20MOL0     C 2590   8.551   2.040   0.332 -0.2758  0.0695 -0.5308
   20MOL0     C 2591   8.415   2.034   0.291  0.5183 -0.9932 -0.4309
   20MOL0     C 2592   8.372   2.041   0.157  0.1637 -0.9417  0.3890
   20MOL0     C 2593   8.471   2.080   0.065  0.1111 -0.1888  0.1771
   20MOL0     C 2594   8.437   2.106  -0.076 -0.7240 -0.4400  0.2837
   20MOL0     O 2595   8.528   2.195  -0.135  1.5589  0.4920 -0.2256
   20MOL0     C 2596   8.530   2.209  -0.273  0.3294  0.4376 -0.4961
   20MOL0     C 2597   8.508   2.103  -0.355 -0.3257 -0.9153  0.0231
   20MOL0     C 2598   8.511   2.135  -0.494  0.7005  0.2372  0.0335
   20MOL0     C 2599   8.538   2.271  -0.542 -1.0801  0.6391 -0.7313
   20MOL0     O 2600   8.536   2.313  -0.664  0.3488 -0.2801  0.9307
   20MOL0     C 2601   8.482   2.237  -0.766 -0.4308  0.8941 -0.5057
   20MOL0     C 2602   8.466   2.318  -0.896 -0.6056  0.4637 -0.6734
   20MOL0     C 2603   8.392   2.254  -1.006 -0.0988 -0.3816 -0.0759
   20MOL0     C 2604   8.449   2.110  -1.044  0.7977 -0.6797 -0.3527
   20MOL0     C 2605   8.419   2.075  -1.195  0.4376 -0.3313  0.0013
   20MOL0     C 2606   8.262   2.074  -1.219  0.1362 -0.1412  0.2676
   20MOL0     C 2607   8.188   1.971  -1.139 -1.3431  0.4467  0.3670
   20MOL0     C 2608   8.249   1.830  -1.122  0.7923  0.1532  0.8080
   20MOL0    Cl 2609   8.322   1.797  -0.962 -0.0862 -0.3287  0.1192
   20MOL0     C 2610   8.578   2.373  -0.443  0.8259  0.1836  1.3202
   20MOL0     C 2611   8.575   2.338  -0.315 -0.2525 -0.6825  0.6615
   20MOL0     O 2612   8.325   2.079  -0.123 -0.4828  0.1166  0.3402
   20MOL0     C 2613   8.603   2.099   0.105  0.4019 -0.5677  0.6153
   20MOL0     C 2614   8.646   2.075   0.238  0.9199 -0.1854  0.7526
   20MOL0     N 2615   8.718   1.830   0.972 -0.7784 -0.7132  0.3384
   20MOL0     N 2616   8.621   1.834   1.056 -0.4483 -0.5112  0.4389
   20MOL0     C 2617   8.527   1.748   2.283 -0.7436 -0.7371  0.0763
   20MOL0     C 2618   8.506   1.680   2.400  0.7124  0.2385 -0.3339
   20MOL0     C 2619   8.422   1.425   2.691  0.1094 -0.2811  0.3103
   20MOL0     C 2620   8.562   1.439   2.689  0.3986  0.2520  0.0822
   20MOL0     C 2621   8.647   1.377   2.779  0.9761  0.3114  0.5727
   20MOL0     C 2622   8.591   1.293   2.874  0.4183 -0.7898  0.7006
   20MOL0     O 2623   8.681   1.222   2.953 -0.1964 -0.4314 -0.3601
   20MOL0     C 2624   8.641   1.121   3.049 -0.5016  0.2184 -1.1928
   20MOL0     C 2625   8.679   0.991   2.980 -1.0435  0.3884  1.0672
   20MOL0     C 2626   8.832   0.971   2.975 -0.0731  0.5571 -0.5723
   20MOL0     C 2627   8.889   0.861   2.877 -0.2057 -0.5036 -0.0141
   20MOL0     C 2628   8.862   0.912   2.738  0.3171  0.0718 -1.1812
   20MOL0     C 2629   8.844   0.954   2.629 -0.1875 -0.3762 -0.1572
   20MOL0     C 2630   8.445   1.289   2.883 -0.4313 -0.4614 -0.8301
   20MOL0     C 2631   8.361   1.349   2.787 -0.5513  0.4359  0.0356
   20MOL0     C 2632   8.216   1.348   2.815 -0.3407 -0.1253  0.5222
   20MOL0     H 2633   8.186   1.793   2.460 -0.0076  2.7053 -1.6323
   20MOL0     H 2634   8.227   1.915   2.263 -1.4318 -1.7256  0.4315
   20MOL0     H 2635   8.633   1.892   2.036  0.1317  0.7670  3.1203
   20MOL0     H 2636   8.540   1.742   2.006 -1.3833  0.6370 -0.8543
   20MOL0     H 2637   8.507   2.020   1.880  0.0831 -0.0466 -0.1407
   20MOL0     H 2638   8.406   1.883   1.847 -0.7097 -1.3725 -1.1756
   20MOL0     H 2639   8.574   1.751   1.760 -1.4246  1.4274 -4.1013
   20MOL0     H 2640   8.708   1.851   1.822  0.0242 -1.6504  0.2531
   20MOL0     H 2641   8.484   1.947   1.630  0.1871 -1.7606 -0.7018
   20MOL0     H 2642   8.619   2.037   1.682 -1.7370  1.4976 -2.2252
   20MOL0     H 2643   8.774   1.903   1.558  0.3974  0.4082  0.1336
   20MOL0     H 2644   8.647   1.781   1.514  2.7750 -0.4328 -5.5502
   20MOL0     H 2645   8.654   2.072   1.429 -0.5000 -0.9904 -0.1592
   20MOL0     H 2646   8.733   1.945   1.329  0.0629 -3.0278  1.2160
   20MOL0     H 2647   8.444   1.975   1.393  2.2212  0.8033  2.7877
   20MOL0     H 2648   8.511   1.824   1.310  0.4921  0.5127 -1.6571
   20MOL0     H 2649   8.410   1.989   1.159 -0.3092  1.2244 -0.5222
   20MOL0     H 2650   8.522   2.119   1.208  2.0620  0.5185 -3.2656
   20MOL0     H 2651   8.685   2.155   1.023 -0.7334  1.1379 -2.0494
   20MOL0     H 2652   8.952   2.030   0.880  0.2002  0.6330 -3.3191
   20MOL0     H 2653   8.899   1.891   0.796  4.7708  1.3444  0.3983
   20MOL0     H 2654   8.792   2.182   0.773 -1.4732 -0.7244  1.9958
   20MOL0     H 2655   8.880   2.096   0.660 -1.6052  1.3836 -0.0021
   20MOL0     H 2656   8.603   2.060   0.703 -0.8182 -1.7357 -0.3971
   20MOL0     H 2657   8.694   1.911   0.673  2.8848 -0.0257  1.2495
   20MOL0     H 2658   8.783   2.020   0.461 -0.7697 -2.1851 -1.3147
   20MOL0     H 2659   8.696   2.169   0.501 -1.5205 -0.5257 -2.0092
   20MOL0     H 2660   8.350   2.007   0.374 -0.6990  1.3801 -0.5098
   20MOL0     H 2661   8.272   2.022   0.120 -0.6595  0.9068  1.4725
   20MOL0     H 2662   8.490   2.002  -0.318  0.3135 -1.0383  0.0196
   20MOL0     H 2663   8.502   2.051  -0.563  0.6949  1.4156 -1.4385
   20MOL0     H 2664   8.543   2.149  -0.787  0.9480  1.8812 -0.8461
   20MOL0     H 2665   8.385   2.192  -0.744 -0.2431 -1.6978 -4.1010
   20MOL0     H 2666   8.424   2.417  -0.876  0.0978  0.6086  0.1649
   20MOL0     H 2667   8.564   2.351  -0.932  0.9649 -0.7568  2.2078
   20MOL0     H 2668   8.287   2.263  -0.977 -0.5548  0.9137 -1.9034
   20MOL0     H 2669   8.402   2.325  -1.090  1.9201  0.8869  1.1542
   20MOL0     H 2670   8.393   2.034  -0.987 -2.0040  4.2344  4.4396
   20MOL0     H 2671   8.553   2.088  -1.019 -0.0074 -1.7634  2.3852
   20MOL0     H 2672   8.461   1.977  -1.218 -2.1853 -1.6084  0.1841
   20MOL0     H 2673   8.455   2.148  -1.267 -4.7724 -0.1693 -2.9706
   20MOL0     H 2674   8.214   2.171  -1.207  1.4923  0.3109  2.6372
   20MOL0     H 2675   8.266   2.059  -1.327 -0.6789 -0.3503  0.2609
   20MOL0     H 2676   8.095   1.973  -1.196 -0.3806 -3.3383 -1.6548
   20MOL0     H 2677   8.174   2.016  -1.040  1.8702  2.3577  0.0929
   20MOL0     H 2678   8.175   1.750  -1.129  1.3605 -0.3091 -0.1295
   20MOL0     H 2679   8.324   1.815  -1.200  0.1614 -2.3589  0.6137
   20MOL0     H 2680   8.604   2.472  -0.479 -1.4687 -0.6834 -3.6820
   20MOL0     H 2681   8.592   2.415  -0.240  1.5335 -0.6446  0.2585
   20MOL0     H 2682   8.684   2.131   0.040 -0.1002 -2.1594 -0.8826
   20MOL0     H 2683   8.750   2.078   0.269  0.4543 -3.7509  3.1278
   20MOL0     H 2684   8.623   1.751   2.232 -0.7831 -3.2099 -0.2313
   20MOL0     H 2685   8.595   1.635   2.443  1.1553  0.4178 -1.0313
   20MOL0     H 2686   8.608   1.490   2.606 -0.3545 -0.3422 -0.7218
   20MOL0     H 2687   8.754   1.391   2.762  0.6137  1.2062 -1.1169
   20MOL0     H 2688   8.535   1.130   3.071  0.0497  2.5377  0.9983
   20MOL0     H 2689   8.688   1.139   3.147 -1.0989 -2.5044 -0.3160
   20MOL0     H 2690   8.641   0.992   2.877 -2.6368  2.6127  1.5925
   20MOL0     H 2691   8.651   0.893   3.020  2.1243 -2.4777 -2.9549
   20MOL0     H 2692   8.857   0.945   3.079  2.7207 -0.5923 -1.4616
   20MOL0     H 2693   8.884   1.061   2.944  0.3694  0.8647  0.9823
   20MOL0     H 2694   8.998   0.851   2.876 -0.3238 -1.9605 -0.3967
   20MOL0     H 2695   8.855   0.761   2.905 -0.1848 -0.4664  0.1504
   20MOL0     H 2696   8.825   0.971   2.524 -2.7159 -0.6376  0.2059
   20MOL0     H 2697   8.401   1.236   2.966  2.1236  1.2398  1.8347
   20MOL0     H 2698   8.156   1.310   2.732 -0.4021  1.0763 -0.0030
   20MOL0     H 2699   8.181   1.270   2.883  0.6141 -2.9526 -2.0074
   20MOL0     H 2700   8.185   1.451   2.834 -0.1514 -0.2203  1.3657
   21MOL0     O 2701   9.860   3.612   8.989  0.7204 -0.1926 -0.4112
   21MOL0     C 2702   9.743   3.591   8.958  0.4349 -0.3118  0.5352
   21MOL0     O 2703   9.707   3.570   8.827  0.2558 -0.2053 -0.1546
   21MOL0     C 2704   9.781   3.591   8.715 -0.5324 -0.0198  0.0357
   21MOL0     C 2705   9.720   3.639   8.597 -0.0217 -0.5835 -0.4026
   21MOL0     C 2706   9.793   3.662   8.481 -0.1238 -0.0853 -0.5664
   21MOL0     C 2707   9.925   3.634   8.468  0.8211  0.8147 -0.1354
   21MOL0     O 2708   9.982   3.640   8.347 -1.0054  0.2868  0.1477
   21MOL0     C 2709  10.106   3.575   8.323  0.0457  0.3730 -0.1208
   21MOL0     C 2710  10.158   3.607   8.190 -0.2318  0.0011  0.9858
   21MOL0     C 2711  10.289   3.537   8.139 -0.5968 -0.2372 -0.0672
   21MOL0     C 2712  10.315   3.565   7.992  0.1941  0.1841  0.1345
   21MOL0     C 2713  10.465   3.555   7.942  0.4150 -0.3584 -0.9754
   21MOL0     C 2714  10.464   3.588   7.793  0.2209  0.4938  0.3956
   21MOL0     C 2715  10.604   3.600   7.736 -0.4329  0.2360  0.0828
   21MOL0     C 2716  10.665   3.477   7.648  0.7993  0.8963  0.5062
   21MOL0     N 2717  10.594   3.457   7.523  0.0952 -0.3554  0.3207
   21MOL0     C 2718  10.581   3.557   7.425  0.8810 -0.3476 -0.2680
   21MOL0     C 2719  10.470   3.517   7.356  0.3128 -0.7864 -0.2407
   21MOL0     C 2720  10.424   3.599   7.231  0.2277  0.2758  0.3044
   21MOL0     C 2721  10.316   3.522   7.150 -0.2594  1.3162 -0.1933
   21MOL0     C 2722  10.193   3.541   7.224  0.3320 -0.0963  0.1447
   21MOL0     C 2723  10.084   3.458   7.144 -0.2566  0.6219 -0.8713
   21MOL0     O 2724   9.950   3.454   7.208 -1.1017 -1.1209  0.0839
   21MOL0     C 2725   9.854   3.359   7.170 -1.0578 -0.6116  0.3194
   21MOL0     C 2726   9.877   3.256   7.077 -0.6421  0.5812  0.0910
   21MOL0     C 2727   9.779   3.165   7.045  0.2706  0.0817 -0.0184
   21MOL0     C 2728   9.652   3.183   7.104  0.0683 -0.3764 -1.2235
   21MOL0     C 2729   9.548   3.081   7.089  0.3935 -0.5075 -0.0938
   21MOL0     O 2730   9.576   2.983   7.001  0.4660 -0.2881  0.0024
   21MOL0     C 2731   9.497   2.871   6.995  0.1842  0.0131 -0.3100
   21MOL0     C 2732   9.433   2.829   6.881  0.5924  0.5720  0.7119
   21MOL0     C 2733   9.341   2.717   6.881  0.0657 -0.9094 -0.2065
   21MOL0     C 2734   9.346   2.630   6.991  0.4887 -0.1147 -0.2733
   21MOL0     O 2735   9.267   2.515   6.982 -0.1660 -0.6047 -0.3514
   21MOL0     C 2736   9.231   2.455   7.103  0.3848  0.2718  0.8818
   21MOL0     C 2737   9.113   2.362   7.082  0.6310  0.4745 -0.0901
   21MOL0     C 2738   9.156   2.225   7.018  0.1988  0.2234 -0.1796
   21MOL0     C 2739   9.045   2.147   6.959  0.2461  0.1748  0.6055
   21MOL0     C 2740   8.999   2.176   6.816  0.0083  0.8332 -0.1735
   21MOL0     C 2741   8.853   2.159   6.792 -0.8408  0.9850 -0.4064
   21MOL0     C 2742   8.796   2.203   6.649  0.3717 -0.5113  0.6778
   21MOL0     C 2743   8.716   2.094   6.571  0.1984  0.4547 -0.0896
   21MOL0    Cl 2744   8.819   1.956   6.539 -0.5798  0.1147 -0.0283
   21MOL0     C 2745   9.429   2.667   7.102 -0.2379  0.5414  0.5903
   21MOL0     C 2746   9.509   2.783   7.101 -0.6852  0.3185 -0.1219
   21MOL0     O 2747   9.440   3.093   7.150 -0.7749 -0.5202  0.5037
   21MOL0     C 2748   9.622   3.291   7.184 -0.7605 -0.2621  0.2710
   21MOL0     C 2749   9.725   3.380   7.213 -0.0607 -0.4352 -0.1372
   21MOL0     N 2750  10.426   3.400   7.408 -0.0379 -0.2643 -0.1009
   21MOL0     N 2751  10.499   3.366   7.503 -0.1311  0.3154 -0.4421
   21MOL0     C 2752   9.990   3.577   8.581  0.1616 -0.5974 -0.1588
   21MOL0     C 2753   9.921   3.562   8.699 -0.5011  0.3354 -0.6835
   21MOL0     C 2754   9.638   3.583   9.058  0.2009 -0.2510  0.1028
   21MOL0     C 2755   9.532   3.492   9.025 -0.1500 -0.3517  0.5363
   21MOL0     C 2756   9.436   3.462   9.122 -0.4177  0.9126 -1.1511
   21MOL0     C 2757   9.427   3.529   9.239  0.9320  0.0785 -0.6923
   21MOL0     O 2758   9.311   3.495   9.317 -0.6690 -0.8718 -0.3410
   21MOL0     C 2759   9.316   3.527   9.455  1.0738  0.2654  0.1366
   21MOL0     C 2760   9.178   3.502   9.508  0.1222 -0.3979  0.2826
   21MOL0     C 2761   9.175   3.530   9.655 -0.0906  0.1232  0.2351
   21MOL0     C 2762   9.187   3.677   9.685  0.4586  0.6520  0.2123
   21MOL0     C 2763   9.156   3.705   9.827  0.5897  0.2326 -1.2573
   21MOL0     C 2764   9.101   3.722   9.936 -0.1073 -0.5674  0.5837
   21MOL0     C 2765   9.534   3.607   9.280 -0.0531  0.1149  0.9429
   21MOL0     C 2766   9.632   3.644   9.191  0.2817 -0.1684 -0.2504
   21MOL0     C 2767   9.737   3.757   9.237  0.2968  0.9108  0.7002
   21MOL0     H 2768   9.622   3.685   8.599  0.6524  0.8940 -0.1011
   21MOL0     H 2769   9.742   3.702   8.394  0.0032  0.6406 -0.3116
   21MOL0     H 2770  10.177   3.602   8.402 -1.8460  1.2761  1.3829
   21MOL0     H 2771  10.085   3.468   8.331  2.0440  0.0915  3.0476
   21MOL0     H 2772  10.167   3.716   8.184  1.0052 -0.1463 -2.6833
   21MOL0     H 2773  10.084   3.577   8.115  1.5102 -1.8760 -0.0819
   21MOL0     H 2774  10.272   3.429   8.144 -1.0763 -0.1671 -0.1714
   21MOL0     H 2775  10.370   3.576   8.202  0.4475 -0.4277 -1.2504
   21MOL0     H 2776  10.255   3.494   7.936  0.9414 -1.7686  1.6850
   21MOL0     H 2777  10.298   3.671   7.973 -3.3249 -0.3853 -0.5522
   21MOL0     H 2778  10.517   3.632   7.999 -0.4314 -1.4913  1.4617
   21MOL0     H 2779  10.517   3.459   7.954  0.2289 -0.2808  0.6225
   21MOL0     H 2780  10.407   3.511   7.738 -2.0172  0.8747  2.0649
   21MOL0     H 2781  10.422   3.688   7.777  1.4452  0.6309 -2.9009
   21MOL0     H 2782  10.684   3.623   7.807  0.1365 -1.8847  0.2146
   21MOL0     H 2783  10.611   3.689   7.672 -1.9375 -3.1499 -5.4739
   21MOL0     H 2784  10.771   3.488   7.625  1.0080 -2.1680 -0.3830
   21MOL0     H 2785  10.664   3.390   7.714 -1.6554  0.3521 -0.1362
   21MOL0     H 2786  10.633   3.652   7.415 -1.4498  1.0724  0.4305
   21MOL0     H 2787  10.380   3.690   7.273  4.4686  2.0691  1.3941
   21MOL0     H 2788  10.506   3.622   7.163 -1.5032 -1.0674 -2.4162
   21MOL0     H 2789  10.327   3.560   7.048  1.8448  1.1853 -0.0733
   21MOL0     H 2790  10.333   3.413   7.151  0.2761  1.3973  1.2154
   21MOL0     H 2791  10.161   3.645   7.214 -1.7080 -0.3491  3.0576
   21MOL0     H 2792  10.194   3.512   7.329  4.3990 -1.7340 -0.1545
   21MOL0     H 2793  10.109   3.352   7.148 -1.7119  0.2819  0.5459
   21MOL0     H 2794  10.067   3.497   7.043  0.4733  1.0529 -0.8351
   21MOL0     H 2795   9.974   3.230   7.036 -1.5638 -2.7199 -0.3082
   21MOL0     H 2796   9.801   3.070   6.997  2.1882  0.5803 -0.2075
   21MOL0     H 2797   9.449   2.888   6.791  2.4315  1.6661  1.7121
   21MOL0     H 2798   9.293   2.695   6.786  2.0330  0.3022 -1.5595
   21MOL0     H 2799   9.317   2.402   7.146  0.9352 -0.9892 -1.5976
   21MOL0     H 2800   9.208   2.534   7.175 -1.8282 -1.3999  2.1300
   21MOL0     H 2801   9.080   2.344   7.185  0.9106  0.5260  0.0101
   21MOL0     H 2802   9.043   2.415   7.017  2.2776  1.0376 -1.4721
   21MOL0     H 2803   9.237   2.231   6.945  1.9181  1.5762  1.7313
   21MOL0     H 2804   9.202   2.167   7.098 -0.5345 -0.7700 -0.4568
   21MOL0     H 2805   8.958   2.163   7.024 -0.7013  4.1151 -1.3399
   21MOL0     H 2806   9.058   2.038   6.964  0.3321  0.2338  2.0782
   21MOL0     H 2807   9.053   2.116   6.741 -0.4130  0.1861  0.0378
   21MOL0     H 2808   9.024   2.281   6.796  2.4542  1.4346  4.5879
   21MOL0     H 2809   8.823   2.056   6.815 -0.4156  1.5867  3.5951
   21MOL0     H 2810   8.795   2.215   6.865 -2.7283 -2.5808  1.0822
   21MOL0     H 2811   8.876   2.223   6.578 -1.6856 -4.6322 -3.3058
   21MOL0     H 2812   8.723   2.284   6.655 -0.0288 -0.6341 -1.7571
   21MOL0     H 2813   8.636   2.070   6.641 -0.7307 -1.7968 -1.8227
   21MOL0     H 2814   8.675   2.132   6.477 -1.9801  1.3000  1.1266
   21MOL0     H 2815   9.430   2.597   7.186  4.7815  0.8016  1.0063
   21MOL0     H 2816   9.578   2.799   7.183 -2.2905  2.9148  0.8404
   21MOL0     H 2817   9.530   3.309   7.239 -1.3490  1.8981 -1.2704
   21MOL0     H 2818   9.716   3.471   7.271  1.3878  2.9412 -4.6242
   21MOL0     H 2819  10.094   3.546   8.578 -0.3632 -2.8609  1.7705
   21MOL0     H 2820   9.984   3.526   8.780  0.0534  0.6418 -0.9703
   21MOL0     H 2821   9.533   3.441   8.929 -0.7527 -0.0043  0.3420
   21MOL0     H 2822   9.351   3.399   9.101  1.2312 -0.4058 -4.9086
   21MOL0     H 2823   9.337   3.634   9.451  0.4689  0.3572 -1.9551
   21MOL0     H 2824   9.389   3.469   9.513  0.0258 -1.2214  0.0291
   21MOL0     H 2825   9.148   3.399   9.485  1.7631 -1.1482  1.2725
   21MOL0     H 2826   9.112   3.578   9.466  2.8435  1.9514 -0.0350
   21MOL0     H 2827   9.249   3.472   9.710  2.3838  0.7849 -2.1542
   21MOL0     H 2828   9.080   3.491   9.693 -0.6607  2.5347  1.4759
   21MOL0     H 2829   9.288   3.712   9.662  1.4535 -1.1630  1.5997
   21MOL0     H 2830   9.120   3.735   9.620  0.2153  0.1149 -0.0224
   21MOL0     H 2831   9.043   3.735  10.025  1.3023  1.2556  1.2824
   21MOL0     H 2832   9.529   3.665   9.372  2.0751  0.0702  1.1372
   21MOL0     H 2833   9.838   3.716   9.244  0.4856  1.6518  3.0957
   21MOL0     H 2834   9.732   3.840   9.166 -1.5334 -0.4694 -0.9257
   21MOL0     H 2835   9.709   3.794   9.336 -1.8347 -0.4466  0.6959
   22MOL0     O 2836   0.528   1.937   7.568  0.2134 -0.3128  0.3088
   22MOL0     C 2837   0.567   1.825   7.594  0.1324 -0.0559 -0.0536
   22MOL0     O 2838   0.556   1.717   7.515  1.0034 -0.2761  0.2467
   22MOL0     C 2839   0.458   1.733   7.422  0.2575  0.5108  0.5038
   22MOL0     C 2840   0.497   1.706   7.293  0.3382  0.4690  0.5805
   22MOL0     C 2841   0.393   1.706   7.194 -0.3838 -0.0716  0.1292
   22MOL0     C 2842   0.256   1.731   7.234  0.2552  1.1399  0.5742
   22MOL0     O 2843   0.152   1.740   7.138  0.0530  0.1827 -0.7240
   22MOL0     C 2844   0.032   1.662   7.151 -0.0821  1.4631 -0.9248
   22MOL0     C 2845   0.040   1.522   7.197 -0.8908  1.0809  1.2757
   22MOL0     C 2846   0.105   1.444   7.081 -0.3711 -0.4296  1.2220
   22MOL0     C 2847   0.150   1.300   7.119 -0.1552  0.3706 -0.3707
   22MOL0     C 2848   0.288   1.292   7.181 -0.5288 -0.8716  0.4134
   22MOL0     C 2849   0.328   1.150   7.205 -0.2968  0.2580 -0.2625
   22MOL0     C 2850   0.336   1.078   7.061  0.3763 -0.4697 -1.1683
   22MOL0     C 2851   0.367   0.935   7.089  0.5102 -0.0864 -0.7553
   22MOL0     N 2852   0.359   0.849   6.973  0.0414 -0.2345 -0.4152
   22MOL0     C 2853   0.431   0.741   6.961 -0.5310 -0.0006 -0.8008
   22MOL0     C 2854   0.397   0.682   6.838  0.6371 -0.0886 -0.2855
   22MOL0     C 2855   0.443   0.555   6.769  0.5471 -0.5398 -0.2390
   22MOL0     C 2856   0.531   0.444   6.842 -0.0991 -0.7731  0.5297
   22MOL0     C 2857   0.660   0.503   6.883 -1.2259 -0.5302 -0.2014
   22MOL0     C 2858   0.763   0.403   6.932  0.5218 -0.2372  0.8190
   22MOL0     O 2859   0.814   0.308   6.834  0.5196 -0.4318  0.5202
   22MOL0     C 2860   0.866   0.187   6.874 -0.8188 -0.3156 -0.7263
   22MOL0     C 2861   0.903   0.158   7.006 -0.2021 -0.5150 -1.0803
   22MOL0     C 2862   0.956   0.037   7.041  0.5399 -0.8998 -0.4267
   22MOL0     C 2863   1.001  -0.053   6.942  1.5858 -0.4734  0.0404
   22MOL0     C 2864   1.070  -0.178   6.980 -0.0610 -0.3265  0.1981
   22MOL0     O 2865   1.101  -0.201   7.114  0.0101  0.4160 -0.5233
   22MOL0     C 2866   1.184  -0.314   7.136  1.1138  0.6919 -0.3057
   22MOL0     C 2867   1.122  -0.441   7.173 -0.2557  0.5349  0.4383
   22MOL0     C 2868   1.195  -0.556   7.186 -0.0843  0.3853  0.2458
   22MOL0     C 2869   1.333  -0.538   7.162 -0.3562 -0.0004  0.2170
   22MOL0     O 2870   1.407  -0.654   7.197 -0.2920 -0.0874 -0.0545
   22MOL0     C 2871   1.449  -0.663   7.337  0.0821 -0.2147  0.0151
   22MOL0     C 2872   1.585  -0.736   7.334 -0.6111  0.0826  0.4178
   22MOL0     C 2873   1.649  -0.721   7.469 -0.3026  0.4219 -0.5759
   22MOL0     C 2874   1.800  -0.741   7.469  0.7680 -0.5988 -0.2862
   22MOL0     C 2875   1.845  -0.883   7.415 -0.3457 -0.5860  0.9255
   22MOL0     C 2876   2.001  -0.899   7.402 -0.5361 -0.3904 -0.0220
   22MOL0     C 2877   2.055  -1.035   7.358  0.0529  1.0492  0.4621
   22MOL0     C 2878   2.199  -1.060   7.343 -0.2399  0.6167 -0.1945
   22MOL0    Cl 2879   2.262  -0.983   7.197  0.2059  0.3276  0.2091
   22MOL0     C 2880   1.395  -0.418   7.137 -0.7216  0.5545 -0.4363
   22MOL0     C 2881   1.323  -0.308   7.122  0.6125  0.5592  0.9492
   22MOL0     O 2882   1.091  -0.262   6.893  0.1849  0.6684 -0.0888
   22MOL0     C 2883   0.985  -0.015   6.807  1.4070  0.0836  0.9946
   22MOL0     C 2884   0.906   0.102   6.780 -0.4017  0.7289 -0.5147
   22MOL0     N 2885   0.319   0.766   6.770  0.7872 -0.6573  0.1841
   22MOL0     N 2886   0.305   0.873   6.851 -1.1733  0.4147  0.0242
   22MOL0     C 2887   0.221   1.748   7.374 -0.1436 -0.2031  0.1437
   22MOL0     C 2888   0.325   1.736   7.464  0.1438  0.2160  0.9097
   22MOL0     C 2889   0.626   1.798   7.729  1.1451 -0.7986 -0.2686
   22MOL0     C 2890   0.584   1.688   7.800  0.3557  0.4537 -0.2826
   22MOL0     C 2891   0.635   1.649   7.923  0.5037  1.1346 -0.2567
   22MOL0     C 2892   0.739   1.719   7.984 -0.4849  0.2990  0.5409
   22MOL0     O 2893   0.803   1.668   8.096 -0.0018  0.5763  0.2048
   22MOL0     C 2894   0.942   1.661   8.098 -1.1199  0.4492 -0.1907
   22MOL0     C 2895   0.981   1.573   8.223  0.3910  1.1521  0.1134
   22MOL0     C 2896   1.130   1.569   8.267 -0.6879  0.5684  0.0310
   22MOL0     C 2897   1.147   1.466   8.383  0.3103  0.4517 -0.3632
   22MOL0     C 2898   1.289   1.464   8.414 -0.5404 -0.6107  0.1000
   22MOL0     C 2899   1.409   1.469   8.449  0.7579  0.2755  0.8790
   22MOL0     C 2900   0.790   1.828   7.902  0.3027 -0.7990  0.1457
   22MOL0     C 2901   0.740   1.867   7.776  1.0817 -0.1192  0.0734
   22MOL0     C 2902   0.801   1.978   7.692  0.1185  0.2727  0.6717
   22MOL0     H 2903   0.603   1.697   7.270 -0.1610 -2.4693 -1.0382
   22MOL0     H 2904   0.418   1.696   7.089 -2.1749 -5.5530 -0.0941
   22MOL0     H 2905  -0.036   1.709   7.223 -0.9410 -2.4024  1.0503
   22MOL0     H 2906  -0.013   1.654   7.052  1.4997 -1.3948 -1.5243
   22MOL0     H 2907  -0.056   1.472   7.213  0.1207 -0.5229  2.6359
   22MOL0     H 2908   0.096   1.526   7.290  3.2683 -0.3103 -0.9437
   22MOL0     H 2909   0.183   1.507   7.038 -2.4727  0.6702 -1.1844
   22MOL0     H 2910   0.033   1.428   7.001 -0.7350 -1.3951  1.7229
   22MOL0     H 2911   0.077   1.249   7.184  1.8693 -1.4138  0.6168
   22MOL0     H 2912   0.141   1.239   7.028  3.1245  0.3571 -0.7795
   22MOL0     H 2913   0.356   1.348   7.116 -0.9762  1.6935  2.0284
   22MOL0     H 2914   0.277   1.340   7.278  2.3214 -0.5588  0.6604
   22MOL0     H 2915   0.423   1.137   7.258  0.1439 -4.6955 -1.7778
   22MOL0     H 2916   0.247   1.114   7.269 -2.8937  0.5032 -3.1573
   22MOL0     H 2917   0.401   1.122   6.985 -2.0176  1.3910 -2.2719
   22MOL0     H 2918   0.238   1.083   7.014 -1.3439  2.3568  2.2645
   22MOL0     H 2919   0.465   0.922   7.135  0.2615 -1.4226 -0.5659
   22MOL0     H 2920   0.301   0.898   7.168  1.9449 -1.2938 -0.0717
   22MOL0     H 2921   0.495   0.693   7.035 -0.1172  3.0305  1.0044
   22MOL0     H 2922   0.347   0.511   6.740 -0.3603 -0.4496  2.3423
   22MOL0     H 2923   0.490   0.583   6.675 -1.3831  1.3819 -0.7179
   22MOL0     H 2924   0.480   0.410   6.933 -0.0986  0.0206  0.8335
   22MOL0     H 2925   0.542   0.360   6.773  0.6716  1.0154 -1.6641
   22MOL0     H 2926   0.644   0.579   6.960  0.4776 -1.4763  1.1499
   22MOL0     H 2927   0.711   0.556   6.802  0.2004 -0.6842  0.5594
   22MOL0     H 2928   0.718   0.353   7.018 -2.6939  0.2636 -0.4301
   22MOL0     H 2929   0.852   0.460   6.959 -1.3098  2.5803  1.3019
   22MOL0     H 2930   0.871   0.222   7.087  0.6972 -4.1499  2.4431
   22MOL0     H 2931   0.975   0.015   7.145  0.5284 -1.4142 -0.5300
   22MOL0     H 2932   1.014  -0.440   7.172 -0.3763 -2.2200 -1.7685
   22MOL0     H 2933   1.158  -0.656   7.208  2.7138 -1.2047 -1.6366
   22MOL0     H 2934   1.451  -0.565   7.386  0.3474  0.8209 -1.9340
   22MOL0     H 2935   1.383  -0.725   7.398  0.2576 -1.3945 -0.9601
   22MOL0     H 2936   1.560  -0.841   7.320  2.2440 -1.0313  2.5660
   22MOL0     H 2937   1.638  -0.685   7.252 -2.7314  0.8815 -0.5096
   22MOL0     H 2938   1.636  -0.616   7.496  1.7051  0.4876  0.2518
   22MOL0     H 2939   1.602  -0.785   7.544  0.9000 -0.0677 -0.2333
   22MOL0     H 2940   1.836  -0.713   7.569 -0.7603 -0.9869  0.3994
   22MOL0     H 2941   1.841  -0.660   7.407  0.3311  0.8354  1.2191
   22MOL0     H 2942   1.816  -0.910   7.313 -0.0808 -2.2675  1.2686
   22MOL0     H 2943   1.802  -0.959   7.480 -0.6972 -1.1725  0.0126
   22MOL0     H 2944   2.044  -0.826   7.332  0.2564 -0.4838  0.3605
   22MOL0     H 2945   2.041  -0.865   7.498  0.6089  0.1655 -0.6694
   22MOL0     H 2946   2.019  -1.069   7.260  0.5858  0.3990  0.4806
   22MOL0     H 2947   2.023  -1.109   7.431 -0.4331 -2.0604 -2.6226
   22MOL0     H 2948   2.264  -1.021   7.421 -0.7603  1.3798 -0.1312
   22MOL0     H 2949   2.210  -1.168   7.329  1.5470  1.0388 -2.7166
   22MOL0     H 2950   1.503  -0.409   7.146 -0.7022 -0.3747  0.5185
   22MOL0     H 2951   1.373  -0.212   7.109  0.9026  1.0072  4.3615
   22MOL0     H 2952   1.012  -0.083   6.727 -4.2744  1.1239 -2.4352
   22MOL0     H 2953   0.893   0.113   6.673  0.8666  0.5568 -0.7012
   22MOL0     H 2954   0.113   1.754   7.384 -0.3889  2.1316 -2.6237
   22MOL0     H 2955   0.282   1.744   7.563  0.6235  3.8722  0.9631
   22MOL0     H 2956   0.503   1.630   7.758  0.3453 -0.4205  0.9053
   22MOL0     H 2957   0.594   1.559   7.967  0.7902 -2.6057 -6.4632
   22MOL0     H 2958   0.986   1.760   8.110 -0.0689  0.1418 -1.3085
   22MOL0     H 2959   0.968   1.621   8.000 -4.1438 -1.0157 -0.5091
   22MOL0     H 2960   0.950   1.470   8.204  2.6267  0.5126 -0.4012
   22MOL0     H 2961   0.919   1.610   8.305 -3.0276 -3.7903  0.2454
   22MOL0     H 2962   1.155   1.672   8.295 -0.2060  0.2412  0.8261
   22MOL0     H 2963   1.204   1.538   8.193  0.3562 -0.6383  1.5129
   22MOL0     H 2964   1.097   1.512   8.468 -0.8109 -2.5408  0.7636
   22MOL0     H 2965   1.098   1.368   8.371  0.7159 -0.0364  1.6070
   22MOL0     H 2966   1.505   1.506   8.480  1.7696  0.5012 -2.1643
   22MOL0     H 2967   0.867   1.899   7.931 -0.6150  0.6006 -0.7369
   22MOL0     H 2968   0.737   2.065   7.676 -0.3011  0.5457  3.4239
   22MOL0     H 2969   0.897   2.011   7.733 -0.4106 -0.2608  2.4198
   22MOL0     H 2970   0.832   1.941   7.594  3.4655  2.4885  0.7383
   23MOL0     O 2971   9.906  11.035   5.566 -0.6588  0.4093 -0.3201
   23MOL0     C 2972   9.821  10.991   5.644  0.5659  0.6937 -0.4337
   23MOL0     O 2973   9.695  11.022   5.641  0.7649 -0.3610 -0.7493
   23MOL0     C 2974   9.657  11.150   5.616  0.9474  0.3793  0.0623
   23MOL0     C 2975   9.727  11.266   5.643  0.7469  0.1677 -0.4062
   23MOL0     C 2976   9.670  11.396   5.630  0.1066  0.5173  0.0450
   23MOL0     C 2977   9.545  11.406   5.569 -0.5239  0.1736 -0.2006
   23MOL0     O 2978   9.502  11.527   5.530 -0.3763  0.0348 -0.1627
   23MOL0     C 2979   9.370  11.552   5.482 -0.2262 -0.1212  0.2042
   23MOL0     C 2980   9.362  11.694   5.428  0.4459 -0.8192 -1.1729
   23MOL0     C 2981   9.441  11.707   5.303  0.0779 -0.3679 -0.0268
   23MOL0     C 2982   9.382  11.626   5.179 -0.1404  0.5394  0.2070
   23MOL0     C 2983   9.391  11.706   5.047  0.4698  0.5268  0.2361
   23MOL0     C 2984   9.313  11.626   4.934  0.7618 -1.3609  0.0381
   23MOL0     C 2985   9.402  11.539   4.846  0.3326  0.6221  0.7704
   23MOL0     C 2986   9.325  11.472   4.718  0.9794 -0.5767 -0.9520
   23MOL0     N 2987   9.290  11.565   4.619  0.6659 -0.1318  0.6678
   23MOL0     C 2988   9.381  11.646   4.562  0.8786 -0.4035  0.9458
   23MOL0     C 2989   9.299  11.718   4.471 -0.9853  0.5702 -0.1137
   23MOL0     C 2990   9.346  11.830   4.391 -0.2917 -0.8295 -0.3389
   23MOL0     C 2991   9.358  11.968   4.476 -0.4873  0.9334  0.0062
   23MOL0     C 2992   9.403  12.090   4.390  0.3507 -0.3652  0.1409
   23MOL0     C 2993   9.541  12.068   4.330 -0.3130 -0.7922 -1.3503
   23MOL0     O 2994   9.622  12.184   4.293  0.4266 -0.1078 -0.3968
   23MOL0     C 2995   9.713  12.179   4.196  0.7008  1.0739 -0.7110
   23MOL0     C 2996   9.730  12.289   4.114 -0.3434  0.6042  0.6847
   23MOL0     C 2997   9.842  12.287   4.026  0.4382  0.1209  0.2565
   23MOL0     C 2998   9.917  12.166   4.007 -0.2903 -0.0668 -0.8138
   23MOL0     C 2999  10.022  12.159   3.905 -0.0659 -0.6546  0.0492
   23MOL0     O 3000  10.109  12.053   3.913  0.3335  0.6651  0.7504
   23MOL0     C 3001  10.135  11.989   3.793 -0.5715 -0.4622  0.9762
   23MOL0     C 3002  10.263  11.936   3.775 -0.7246  0.5398  0.3392
   23MOL0     C 3003  10.293  11.858   3.661  0.1427 -0.5188  0.7499
   23MOL0     C 3004  10.197  11.840   3.564 -1.2400 -0.4660  0.5122
   23MOL0     O 3005  10.240  11.763   3.456 -0.2998  0.0260  0.0391
   23MOL0     C 3006  10.138  11.677   3.406 -0.2894  0.0298  0.6511
   23MOL0     C 3007  10.210  11.548   3.362  0.1686  0.3477 -0.4686
   23MOL0     C 3008  10.329  11.585   3.274 -0.7607 -0.3664  0.1811
   23MOL0     C 3009  10.405  11.459   3.214 -0.3343 -0.4391  0.0172
   23MOL0     C 3010  10.528  11.501   3.131 -0.0955  0.0960 -0.7171
   23MOL0     C 3011  10.614  11.387   3.072 -0.3792 -0.2741  0.9926
   23MOL0     C 3012  10.678  11.287   3.178  0.4892 -0.1082 -0.0325
   23MOL0     C 3013  10.765  11.176   3.116  0.7196  1.0390  0.0637
   23MOL0    Cl 3014  10.892  11.221   2.997 -0.0504  0.0357 -0.0521
   23MOL0     C 3015  10.073  11.901   3.576 -0.4102  0.3672 -0.4549
   23MOL0     C 3016  10.034  11.969   3.689 -0.2566 -1.3362 -0.2925
   23MOL0     O 3017  10.032  12.256   3.826 -0.6052 -0.7685 -0.1378
   23MOL0     C 3018   9.896  12.053   4.099 -0.6385  0.7203  0.7687
   23MOL0     C 3019   9.801  12.073   4.196 -1.4519 -0.9934  0.1809
   23MOL0     N 3020   9.171  11.657   4.459 -0.1654  0.2472  0.1262
   23MOL0     N 3021   9.169  11.570   4.557 -0.3950 -0.8498  0.2713
   23MOL0     C 3022   9.476  11.284   5.554 -0.1499  0.9166  0.7589
   23MOL0     C 3023   9.530  11.159   5.569  0.1735 -0.0934 -0.3383
   23MOL0     C 3024   9.870  10.868   5.716 -0.1327 -0.1432 -0.5594
   23MOL0     C 3025   9.987  10.875   5.794  0.6053  0.0793  0.0576
   23MOL0     C 3026  10.026  10.769   5.858 -0.0383 -0.4680  0.0801
   23MOL0     C 3027   9.961  10.647   5.847  0.0040  0.7282 -1.2815
   23MOL0     O 3028  10.023  10.534   5.908  0.3016 -0.3150 -0.6867
   23MOL0     C 3029  10.089  10.543   6.036 -0.2696  0.1649  1.0256
   23MOL0     C 3030  10.238  10.546   6.002  0.2292 -0.3759  0.6351
   23MOL0     C 3031  10.300  10.413   5.965  0.3073 -1.3395  0.1893
   23MOL0     C 3032  10.440  10.417   5.917  0.2893  0.8136 -0.2318
   23MOL0     C 3033  10.450  10.475   5.781 -0.9413  0.4365  0.6561
   23MOL0     C 3034  10.443  10.525   5.672  0.3703 -0.1696 -0.6006
   23MOL0     C 3035   9.837  10.642   5.782 -0.3308  0.0504  0.1429
   23MOL0     C 3036   9.798  10.745   5.704  0.5715 -0.2203  0.4474
   23MOL0     C 3037   9.683  10.732   5.610 -0.1265 -1.0619 -0.2953
   23MOL0     H 3038   9.831  11.259   5.673  0.2531 -1.9361  1.0698
   23MOL0     H 3039   9.742  11.477   5.639  4.5072 -2.2052 -4.8419
   23MOL0     H 3040   9.353  11.485   5.397  2.2945 -1.0866  0.3813
   23MOL0     H 3041   9.294  11.547   5.561  0.5186  1.0297  1.0162
   23MOL0     H 3042   9.393  11.755   5.514 -0.3113 -3.8886  1.4746
   23MOL0     H 3043   9.258  11.714   5.403  0.6537 -0.0304 -1.4477
   23MOL0     H 3044   9.546  11.681   5.324  1.1369  2.5443 -1.1781
   23MOL0     H 3045   9.433  11.815   5.286  3.6734  0.0153 -0.1660
   23MOL0     H 3046   9.429  11.532   5.150 -1.7406 -0.3618  0.4572
   23MOL0     H 3047   9.282  11.599   5.214  1.2472 -1.9301  2.7118
   23MOL0     H 3048   9.345  11.804   5.063  0.6653  0.7733 -0.6570
   23MOL0     H 3049   9.497  11.721   5.023  1.3257 -3.7610  0.5844
   23MOL0     H 3050   9.233  11.573   4.988  1.5837 -0.8720  1.8102
   23MOL0     H 3051   9.260  11.691   4.864 -1.3632 -1.6632  1.2630
   23MOL0     H 3052   9.432  11.459   4.914 -0.2012  2.0524  2.7747
   23MOL0     H 3053   9.479  11.608   4.810 -0.1706  1.6911  1.6922
   23MOL0     H 3054   9.383  11.390   4.673  0.9699 -0.3483 -1.3816
   23MOL0     H 3055   9.239  11.419   4.761  0.8191  0.7708  0.4780
   23MOL0     H 3056   9.484  11.668   4.589  1.5828 -1.4022 -0.7325
   23MOL0     H 3057   9.443  11.808   4.345 -0.3614 -1.4722 -0.1778
   23MOL0     H 3058   9.277  11.846   4.308  0.8026 -0.5589 -1.2213
   23MOL0     H 3059   9.252  11.987   4.499 -1.0824 -1.1606 -0.7175
   23MOL0     H 3060   9.418  11.954   4.566 -3.0250 -0.9114  1.5818
   23MOL0     H 3061   9.395  12.178   4.454  1.3735 -0.2923  0.1709
   23MOL0     H 3062   9.334  12.097   4.305 -0.2246 -0.3738  0.6011
   23MOL0     H 3063   9.518  12.007   4.242 -0.0719 -2.3831 -0.3488
   23MOL0     H 3064   9.583  12.011   4.413  0.9323  3.0967  0.9961
   23MOL0     H 3065   9.666  12.375   4.101 -2.6893 -1.3716 -2.4016
   23MOL0     H 3066   9.871  12.371   3.964  1.5557  1.0595  1.9820
   23MOL0     H 3067  10.334  11.970   3.850  2.3474 -1.8954 -1.2745
   23MOL0     H 3068  10.386  11.803   3.657  1.3959  1.4321  1.9086
   23MOL0     H 3069  10.063  11.652   3.482 -0.3422  3.1937  1.7799
   23MOL0     H 3070  10.082  11.733   3.330 -1.4920  0.0431  1.5182
   23MOL0     H 3071  10.244  11.502   3.455 -0.7122 -1.1378 -0.8626
   23MOL0     H 3072  10.137  11.482   3.314  2.0448 -2.6341  0.4780
   23MOL0     H 3073  10.279  11.638   3.192 -0.5754 -0.7582 -0.1879
   23MOL0     H 3074  10.402  11.647   3.328  0.9512 -0.6831 -1.6451
   23MOL0     H 3075  10.342  11.397   3.149  0.2675 -2.8121  1.5754
   23MOL0     H 3076  10.449  11.396   3.292  1.2253  0.2566 -0.2536
   23MOL0     H 3077  10.588  11.569   3.192  2.3146 -0.5379 -2.2521
   23MOL0     H 3078  10.483  11.562   3.052  0.3503 -0.0383 -1.0763
   23MOL0     H 3079  10.542  11.337   3.007 -1.6127  2.4731  0.1193
   23MOL0     H 3080  10.697  11.432   3.016  0.8689 -0.8062  2.3224
   23MOL0     H 3081  10.599  11.231   3.228  0.1750  0.3386 -0.0225
   23MOL0     H 3082  10.735  11.343   3.252  2.3602  1.3047 -2.3631
   23MOL0     H 3083  10.812  11.123   3.200  0.5739  2.8246  1.3420
   23MOL0     H 3084  10.691  11.115   3.064 -0.6788  1.6469  1.2540
   23MOL0     H 3085  10.012  11.885   3.488  1.5215 -3.3988 -1.3324
   23MOL0     H 3086   9.937  12.012   3.714  2.2331  3.3537  2.9197
   23MOL0     H 3087   9.960  11.966   4.087 -2.1135 -0.3232  0.1904
   23MOL0     H 3088   9.794  11.996   4.272 -2.9453 -2.6425 -1.5401
   23MOL0     H 3089   9.369  11.288   5.535 -0.2713  1.3390  1.4659
   23MOL0     H 3090   9.471  11.072   5.543 -4.2205  2.7718 -1.1105
   23MOL0     H 3091  10.038  10.970   5.800 -1.1844  1.2229 -1.5949
   23MOL0     H 3092  10.116  10.766   5.918 -0.1667 -1.2190  0.2467
   23MOL0     H 3093  10.074  10.455   6.098  3.8896 -0.9580  0.7876
   23MOL0     H 3094  10.053  10.629   6.093  3.5853 -0.7381  5.3841
   23MOL0     H 3095  10.295  10.591   6.084 -0.3101  2.5185 -0.4760
   23MOL0     H 3096  10.258  10.612   5.918 -1.0100 -0.4617  0.2580
   23MOL0     H 3097  10.245  10.358   5.888 -3.0756  0.3497  1.2110
   23MOL0     H 3098  10.295  10.343   6.050 -0.0935 -2.2460 -0.5620
   23MOL0     H 3099  10.508  10.469   5.985  1.1803 -1.8568  1.0064
   23MOL0     H 3100  10.473  10.313   5.916  1.5192  1.1835 -0.0336
   23MOL0     H 3101  10.433  10.573   5.577  0.1895 -0.5923 -0.7984
   23MOL0     H 3102   9.781  10.551   5.758  0.0745  0.6445 -3.8218
   23MOL0     H 3103   9.681  10.623   5.599  0.9951 -1.1853  0.5715
   23MOL0     H 3104   9.588  10.773   5.646  1.7420  1.9825  1.6592
   23MOL0     H 3105   9.709  10.783   5.517 -0.5842  3.6174  1.8775
   24MOL0     O 3106   8.936   0.936   5.426 -0.4727  0.0677  0.5567
   24MOL0     C 3107   8.994   0.866   5.335 -0.1586 -0.4306 -0.5244
   24MOL0     O 3108   9.091   0.912   5.259 -0.3123 -0.7137  0.4053
   24MOL0     C 3109   9.135   1.036   5.284 -1.0776  0.1590 -0.5430
   24MOL0     C 3110   9.208   1.067   5.400  1.0859 -0.6084 -0.4621
   24MOL0     C 3111   9.240   1.205   5.431  0.2586 -0.8629 -0.2580
   24MOL0     C 3112   9.203   1.308   5.338 -0.1903 -0.0497 -0.1578
   24MOL0     O 3113   9.242   1.432   5.372  0.3880 -1.2010  0.5945
   24MOL0     C 3114   9.329   1.502   5.279 -0.0812 -0.2199  0.4071
   24MOL0     C 3115   9.470   1.524   5.347  0.2363 -0.0657 -0.5177
   24MOL0     C 3116   9.473   1.665   5.413 -0.8467  0.2466 -0.2657
   24MOL0     C 3117   9.631   1.673   5.434  0.2881  0.3581 -0.5135
   24MOL0     C 3118   9.634   1.770   5.562 -0.0500  0.2632 -0.1852
   24MOL0     C 3119   9.768   1.848   5.566 -0.3231 -0.9054 -0.4480
   24MOL0     C 3120   9.895   1.794   5.639  0.4615 -0.5298  0.9204
   24MOL0     C 3121   9.953   1.680   5.550  0.1953  0.8975  0.2292
   24MOL0     N 3122  10.028   1.718   5.439  0.8430  0.2623  0.5535
   24MOL0     C 3123   9.985   1.686   5.310 -0.4235 -1.5407 -1.4672
   24MOL0     C 3124  10.078   1.741   5.225  0.0152  0.0668  0.2735
   24MOL0     C 3125  10.078   1.760   5.069  0.5654  0.0266 -0.1596
   24MOL0     C 3126  10.125   1.629   5.004  0.2044 -1.0084  0.2630
   24MOL0     C 3127  10.032   1.506   5.037  0.0413  0.6751 -0.2938
   24MOL0     C 3128   9.904   1.512   4.959 -0.1854  0.4891  0.0501
   24MOL0     O 3129   9.866   1.377   4.921  0.7221  0.4363 -0.4784
   24MOL0     C 3130   9.731   1.364   4.889 -0.7153 -1.2133  0.2037
   24MOL0     C 3131   9.677   1.440   4.782 -1.2525  0.6780  0.2453
   24MOL0     C 3132   9.547   1.431   4.748  0.2265 -0.3295  0.6083
   24MOL0     C 3133   9.455   1.352   4.817 -0.6425  0.3368 -0.6277
   24MOL0     C 3134   9.318   1.335   4.778 -0.0903 -0.4151 -0.1490
   24MOL0     O 3135   9.233   1.292   4.880  0.1433  0.2474  0.7604
   24MOL0     C 3136   9.117   1.242   4.820  0.2372 -0.1154 -0.8390
   24MOL0     C 3137   9.111   1.134   4.741 -0.9492 -0.3323 -0.1901
   24MOL0     C 3138   8.992   1.091   4.691  0.9692 -1.0294  0.8045
   24MOL0     C 3139   8.877   1.160   4.720 -0.2105 -0.0937 -0.2811
   24MOL0     O 3140   8.752   1.138   4.672  0.0224 -0.5974  0.5356
   24MOL0     C 3141   8.731   1.090   4.535  0.0047 -0.4584  0.2801
   24MOL0     C 3142   8.774   1.192   4.420 -0.4343  0.9355  0.5958
   24MOL0     C 3143   8.770   1.344   4.466  0.0320  0.0400 -0.3724
   24MOL0     C 3144   8.791   1.418   4.337 -0.1440 -0.1610  0.1104
   24MOL0     C 3145   8.790   1.578   4.349 -0.2654  0.3965 -0.0744
   24MOL0     C 3146   8.769   1.656   4.220  0.1517 -0.9239 -0.7836
   24MOL0     C 3147   8.789   1.802   4.248 -0.4762  0.3783  0.5476
   24MOL0     C 3148   8.717   1.889   4.152 -0.7061  0.7173  0.2728
   24MOL0    Cl 3149   8.823   1.907   4.008  0.5384  0.1476  0.2569
   24MOL0     C 3150   8.880   1.265   4.815 -0.8343 -1.1053 -0.2657
   24MOL0     C 3151   9.001   1.312   4.863 -0.0030 -0.1725 -0.4823
   24MOL0     O 3152   9.284   1.391   4.668 -0.3921 -0.3677 -0.2156
   24MOL0     C 3153   9.511   1.282   4.931  0.1474  0.4115  0.2723
   24MOL0     C 3154   9.642   1.298   4.975  0.3091 -0.1228  0.4468
   24MOL0     N 3155  10.173   1.804   5.298 -0.2786  0.6249  0.5154
   24MOL0     N 3156  10.143   1.804   5.425  0.2205  1.0184 -0.5671
   24MOL0     C 3157   9.137   1.276   5.222 -0.8320  0.1007 -0.6870
   24MOL0     C 3158   9.103   1.142   5.202  0.2432  0.4301  0.6471
   24MOL0     C 3159   8.930   0.738   5.297 -1.6061  0.3674  0.2579
   24MOL0     C 3160   9.007   0.642   5.232  0.9510 -0.5062  0.3415
   24MOL0     C 3161   8.965   0.509   5.216  0.3310 -1.9428  0.1969
   24MOL0     C 3162   8.835   0.471   5.248 -0.0226 -0.4950 -0.0162
   24MOL0     O 3163   8.782   0.345   5.241  0.0978 -0.5552 -0.0309
   24MOL0     C 3164   8.839   0.254   5.135  0.0156 -0.0509 -0.1589
   24MOL0     C 3165   8.746   0.143   5.092  1.2107  0.8447 -0.6183
   24MOL0     C 3166   8.776   0.010   5.174 -0.8901 -0.2963  0.1406
   24MOL0     C 3167   8.906  -0.061   5.127  0.0444 -0.2317 -0.3052
   24MOL0     C 3168   8.928  -0.054   4.980 -0.0589  0.3620 -0.0683
   24MOL0     C 3169   8.965  -0.030   4.864 -0.3350  0.6217 -0.8193
   24MOL0     C 3170   8.744   0.577   5.288  0.1454  0.6665 -0.5967
   24MOL0     C 3171   8.801   0.707   5.321  0.7879 -0.2562 -0.0302
   24MOL0     C 3172   8.696   0.807   5.364 -0.7131 -0.1153 -0.9599
   24MOL0     H 3173   9.246   0.991   5.469  1.2141  1.1176  1.4626
   24MOL0     H 3174   9.285   1.230   5.526  1.2444  1.9750 -1.3940
   24MOL0     H 3175   9.343   1.443   5.188  3.1257 -0.1673  0.7708
   24MOL0     H 3176   9.290   1.604   5.268  1.2501  0.0665 -2.2229
   24MOL0     H 3177   9.552   1.523   5.275  1.2139 -1.7397  0.5696
   24MOL0     H 3178   9.492   1.445   5.420  2.2629  1.4554  0.6155
   24MOL0     H 3179   9.411   1.662   5.503  0.6622 -3.1635  0.8155
   24MOL0     H 3180   9.449   1.744   5.341  2.6447  1.3239 -0.4790
   24MOL0     H 3181   9.679   1.582   5.469  1.9677  2.0990  2.0867
   24MOL0     H 3182   9.679   1.705   5.340  1.4502  1.5255  0.4332
   24MOL0     H 3183   9.558   1.843   5.530 -1.1748 -1.5822 -1.9872
   24MOL0     H 3184   9.603   1.717   5.652  0.9191  1.0460  0.6260
   24MOL0     H 3185   9.796   1.862   5.461 -1.6539 -0.6773 -0.7892
   24MOL0     H 3186   9.739   1.942   5.613  1.6730 -1.9663  3.3783
   24MOL0     H 3187   9.867   1.751   5.736 -1.3361  0.4894  0.9071
   24MOL0     H 3188   9.967   1.873   5.662  2.4339 -3.2178  5.1363
   24MOL0     H 3189  10.022   1.620   5.610  0.1006  0.9639  0.4068
   24MOL0     H 3190   9.867   1.614   5.531  1.2191 -0.7254  1.0159
   24MOL0     H 3191   9.905   1.620   5.277 -1.5485 -0.7589 -0.3726
   24MOL0     H 3192   9.980   1.775   5.022  1.2102  0.7173 -1.3429
   24MOL0     H 3193  10.137   1.849   5.046 -1.7125  2.1555  1.7340
   24MOL0     H 3194  10.147   1.651   4.899  3.3636  1.2232  1.2471
   24MOL0     H 3195  10.222   1.597   5.042  1.7043  0.7835 -1.7844
   24MOL0     H 3196  10.007   1.499   5.143  0.3527 -2.9497 -0.3158
   24MOL0     H 3197  10.070   1.406   5.013 -0.6599  0.4440 -0.4697
   24MOL0     H 3198   9.921   1.570   4.868  2.6919 -1.9762 -1.1615
   24MOL0     H 3199   9.820   1.546   5.019 -1.4343 -1.8631 -0.2386
   24MOL0     H 3200   9.747   1.490   4.716 -1.2145  0.7617  0.3503
   24MOL0     H 3201   9.512   1.475   4.656 -0.0989 -0.8570  0.4745
   24MOL0     H 3202   9.202   1.096   4.696 -1.4439 -0.3622 -1.2044
   24MOL0     H 3203   8.986   1.002   4.629  0.5521  0.0616 -0.7921
   24MOL0     H 3204   8.767   0.988   4.521 -1.4683 -1.1148  0.9521
   24MOL0     H 3205   8.622   1.084   4.523  0.3298 -2.8698 -2.4651
   24MOL0     H 3206   8.872   1.171   4.377 -0.3554  0.0444  1.1907
   24MOL0     H 3207   8.692   1.188   4.347  0.4878 -0.2998 -0.3986
   24MOL0     H 3208   8.669   1.362   4.505  0.7222  0.9632  1.0775
   24MOL0     H 3209   8.851   1.354   4.538 -0.9643  0.5400  0.7118
   24MOL0     H 3210   8.700   1.384   4.286 -1.9712  2.1174  1.5849
   24MOL0     H 3211   8.873   1.379   4.276 -3.1348 -1.5055 -3.4453
   24MOL0     H 3212   8.882   1.612   4.398  1.6786 -1.5818 -2.1035
   24MOL0     H 3213   8.699   1.611   4.398 -1.0297 -0.7023 -0.6969
   24MOL0     H 3214   8.852   1.626   4.155 -0.3915 -1.5648 -1.1986
   24MOL0     H 3215   8.681   1.630   4.161 -0.3462 -0.6905 -0.1505
   24MOL0     H 3216   8.898   1.813   4.243 -0.0435 -2.6146  1.7601
   24MOL0     H 3217   8.747   1.820   4.347 -1.8974 -2.2947  0.5130
   24MOL0     H 3218   8.634   1.824   4.123  2.9693 -4.1206 -0.7345
   24MOL0     H 3219   8.678   1.977   4.203 -0.5741  0.2028  1.2929
   24MOL0     H 3220   8.788   1.311   4.848  1.5877  3.2280  1.3358
   24MOL0     H 3221   8.995   1.406   4.916  1.1754 -0.4596  0.2017
   24MOL0     H 3222   9.452   1.217   4.994 -0.1498 -0.2814 -0.6901
   24MOL0     H 3223   9.657   1.235   5.062  0.7350  1.2563  1.4031
   24MOL0     H 3224   9.120   1.355   5.149  0.9052 -0.4217 -1.7264
   24MOL0     H 3225   9.030   1.132   5.122 -0.0471  2.2154  0.6452
   24MOL0     H 3226   9.107   0.671   5.201  0.0172  0.5531 -1.8816
   24MOL0     H 3227   9.036   0.442   5.170  0.3291  0.3056 -3.4689
   24MOL0     H 3228   8.933   0.210   5.169 -2.1391 -3.7061  1.6637
   24MOL0     H 3229   8.859   0.311   5.044 -1.4033  0.4223 -0.2027
   24MOL0     H 3230   8.749   0.135   4.983 -2.9497  1.9663 -1.0039
   24MOL0     H 3231   8.646   0.177   5.123  0.3220 -0.6034 -1.7895
   24MOL0     H 3232   8.689  -0.055   5.176 -2.4496  1.6947  1.4001
   24MOL0     H 3233   8.796   0.022   5.281 -0.0868  0.0557 -0.0399
   24MOL0     H 3234   8.989  -0.006   5.171 -1.8022  2.8455 -0.3812
   24MOL0     H 3235   8.924  -0.157   5.177  3.0445  2.6205  4.9154
   24MOL0     H 3236   8.990  -0.016   4.761  0.1727  1.1929 -0.6231
   24MOL0     H 3237   8.645   0.544   5.318  0.7143 -1.1647 -0.5952
   24MOL0     H 3238   8.705   0.901   5.309  2.0793  1.7787  2.3430
   24MOL0     H 3239   8.591   0.778   5.353 -1.5874  3.5806 -4.9824
   24MOL0     H 3240   8.715   0.828   5.470 -1.6635  2.1987 -1.1972
   25MOL0     O 3241   5.145   8.086   2.360  0.1148  0.4827 -0.0518
   25MOL0     C 3242   5.033   8.086   2.324 -0.4153  0.5465 -1.1635
   25MOL0     O 3243   4.990   8.098   2.199 -0.4378  0.2770  0.6672
   25MOL0     C 3244   5.064   8.137   2.089 -1.3521  0.6510 -0.0072
   25MOL0     C 3245   5.197   8.103   2.072 -0.9087 -0.0175  0.0083
   25MOL0     C 3246   5.269   8.136   1.959  0.3640 -0.1362 -0.3072
   25MOL0     C 3247   5.205   8.186   1.847  0.2012 -0.3068  0.1237
   25MOL0     O 3248   5.273   8.189   1.730  0.3027  0.7303  0.1382
   25MOL0     C 3249   5.215   8.232   1.608 -0.5295 -0.8901  0.0768
   25MOL0     C 3250   5.235   8.384   1.587  0.7549  0.2342 -0.2402
   25MOL0     C 3251   5.376   8.442   1.601  0.7134  0.2880  0.2742
   25MOL0     C 3252   5.374   8.585   1.644  0.6466  0.5212 -0.4344
   25MOL0     C 3253   5.501   8.660   1.621  0.1691 -0.6499  0.6045
   25MOL0     C 3254   5.498   8.811   1.653 -0.0887  0.4311 -0.3107
   25MOL0     C 3255   5.625   8.887   1.592 -0.4723  0.1911 -0.5721
   25MOL0     C 3256   5.622   9.038   1.619  0.6373  0.3570  0.9304
   25MOL0     N 3257   5.661   9.056   1.759 -0.1909 -0.7562  0.3529
   25MOL0     C 3258   5.791   9.051   1.818  0.9092 -0.6465 -0.5209
   25MOL0     C 3259   5.778   9.069   1.953 -0.6771  0.2823  0.4234
   25MOL0     C 3260   5.878   9.058   2.064 -0.0862  0.7544 -1.0986
   25MOL0     C 3261   6.005   9.137   2.034  0.9626 -0.2813  0.0274
   25MOL0     C 3262   6.078   9.188   2.161  0.4370 -0.6543  0.0270
   25MOL0     C 3263   6.008   9.303   2.239  0.4183 -0.8749 -0.3789
   25MOL0     O 3264   6.036   9.301   2.377  0.5560  0.2765 -0.2066
   25MOL0     C 3265   6.171   9.296   2.409 -0.0793 -0.2041 -0.5694
   25MOL0     C 3266   6.262   9.386   2.341  0.2064  0.7680 -0.1252
   25MOL0     C 3267   6.398   9.404   2.382 -1.0332  1.2622  0.1348
   25MOL0     C 3268   6.450   9.324   2.487  0.6055  0.3346  0.2255
   25MOL0     C 3269   6.591   9.348   2.518 -1.2042  0.0809 -0.0273
   25MOL0     O 3270   6.654   9.254   2.599 -0.6900 -0.1454 -0.3205
   25MOL0     C 3271   6.780   9.268   2.629  0.4802  0.8507 -0.1842
   25MOL0     C 3272   6.817   9.313   2.753  0.5082 -0.7667 -0.3235
   25MOL0     C 3273   6.959   9.337   2.779  0.1935  0.5974  0.3910
   25MOL0     C 3274   7.059   9.288   2.689  1.0967  0.9088  0.4090
   25MOL0     O 3275   7.191   9.304   2.714 -0.4884  0.0460 -0.0023
   25MOL0     C 3276   7.229   9.434   2.751 -0.0039 -1.2334 -0.1944
   25MOL0     C 3277   7.361   9.477   2.689  0.4625  0.1912  0.4942
   25MOL0     C 3278   7.464   9.387   2.752 -0.3561 -0.7428  0.3519
   25MOL0     C 3279   7.592   9.468   2.768 -0.1923  0.4761 -0.2705
   25MOL0     C 3280   7.700   9.373   2.818  0.4625  0.2097 -0.0275
   25MOL0     C 3281   7.833   9.451   2.861  0.4169  0.5630 -0.1866
   25MOL0     C 3282   7.901   9.491   2.732 -0.0518 -0.1124 -0.3781
   25MOL0     C 3283   7.873   9.639   2.697  1.1574  0.5702  0.7753
   25MOL0    Cl 3284   8.026   9.703   2.615  0.5978 -0.3492  0.6405
   25MOL0     C 3285   7.018   9.235   2.567  0.2090 -0.2715 -0.1912
   25MOL0     C 3286   6.878   9.219   2.534  0.9216 -0.9711  0.8183
   25MOL0     O 3287   6.636   9.447   2.477  0.1307  0.0393  0.1324
   25MOL0     C 3288   6.365   9.225   2.541  0.3436 -0.1864 -0.9422
   25MOL0     C 3289   6.225   9.212   2.508 -0.9207  0.9593  0.3587
   25MOL0     N 3290   5.646   9.098   1.975  0.3001 -0.5079  0.0971
   25MOL0     N 3291   5.575   9.089   1.867 -0.1212  0.2540 -0.1941
   25MOL0     C 3292   5.078   8.236   1.868  0.7474  1.1548  0.9581
   25MOL0     C 3293   5.009   8.208   1.983  0.5079 -0.6580 -0.1598
   25MOL0     C 3294   4.930   8.050   2.433  0.0796 -0.0774 -0.3785
   25MOL0     C 3295   4.980   8.004   2.562  0.2217 -0.5088  0.6174
   25MOL0     C 3296   4.886   7.977   2.663  1.5834 -0.9979 -0.0808
   25MOL0     C 3297   4.752   7.966   2.638  0.0762  0.2586 -0.9342
   25MOL0     O 3298   4.668   7.906   2.732 -0.3628 -0.2321 -0.2948
   25MOL0     C 3299   4.542   7.856   2.687 -0.2048 -0.7807 -0.9894
   25MOL0     C 3300   4.442   7.967   2.708  0.7749 -0.2482  0.1492
   25MOL0     C 3301   4.315   7.953   2.611  0.8661 -0.6056 -0.4099
   25MOL0     C 3302   4.187   8.024   2.666 -0.4349  0.1283 -0.0407
   25MOL0     C 3303   4.088   8.025   2.554  0.5565  0.9817 -0.1652
   25MOL0     C 3304   3.989   8.022   2.480  0.0698  0.4673 -0.2215
   25MOL0     C 3305   4.703   7.997   2.506  0.5821 -0.3930 -0.2807
   25MOL0     C 3306   4.793   8.042   2.408  0.2662  0.0750  0.9479
   25MOL0     C 3307   4.727   8.082   2.275 -0.3665 -0.1973 -1.3692
   25MOL0     H 3308   5.242   8.034   2.143  3.1921  2.5488  0.2137
   25MOL0     H 3309   5.369   8.096   1.956  1.0264  1.1974  1.8154
   25MOL0     H 3310   5.261   8.185   1.521 -1.7775  1.9562 -2.3507
   25MOL0     H 3311   5.108   8.212   1.596 -0.4148 -1.2808 -0.3094
   25MOL0     H 3312   5.185   8.430   1.673  0.3148 -0.2181 -0.2443
   25MOL0     H 3313   5.175   8.424   1.505  0.2673  1.2619  0.5900
   25MOL0     H 3314   5.424   8.419   1.505  1.2058  0.7778  0.3980
   25MOL0     H 3315   5.438   8.394   1.677 -0.1892 -0.5593  0.4927
   25MOL0     H 3316   5.306   8.637   1.576  1.4647  0.4223 -1.3597
   25MOL0     H 3317   5.335   8.600   1.745 -1.9522  0.8842 -1.4002
   25MOL0     H 3318   5.591   8.617   1.667  2.5516  3.1671 -0.0299
   25MOL0     H 3319   5.523   8.647   1.514  0.6965 -4.3014  1.0141
   25MOL0     H 3320   5.409   8.847   1.601 -0.0083  0.5651 -0.3560
   25MOL0     H 3321   5.471   8.826   1.758 -0.0692  0.5731 -0.3263
   25MOL0     H 3322   5.644   8.869   1.486 -1.8567 -1.2936 -0.6113
   25MOL0     H 3323   5.717   8.845   1.633 -1.7723 -1.6037  0.6500
   25MOL0     H 3324   5.688   9.097   1.554 -3.3548  1.4543 -2.6413
   25MOL0     H 3325   5.524   9.077   1.590  1.1496  2.2700  1.6007
   25MOL0     H 3326   5.886   9.027   1.772  0.8189  0.3228 -1.2539
   25MOL0     H 3327   5.824   9.092   2.153  2.2205 -1.2659  1.2274
   25MOL0     H 3328   5.896   8.954   2.092 -1.3512  1.1057  1.2208
   25MOL0     H 3329   6.082   9.080   1.981 -0.3424 -3.5837  1.3566
   25MOL0     H 3330   5.955   9.220   1.983 -0.7748 -0.0646  1.9237
   25MOL0     H 3331   6.180   9.221   2.141 -0.3882  1.1662 -1.5705
   25MOL0     H 3332   6.079   9.100   2.226 -2.2969 -2.8175 -2.5451
   25MOL0     H 3333   5.900   9.287   2.233  0.3163 -0.4307  0.2091
   25MOL0     H 3334   6.033   9.400   2.195  0.5424 -0.9331 -0.4375
   25MOL0     H 3335   6.214   9.440   2.260 -0.9127  0.4413  0.2936
   25MOL0     H 3336   6.454   9.475   2.321  1.7108  1.4997  2.7139
   25MOL0     H 3337   6.747   9.353   2.825  0.1996 -0.1415 -0.9591
   25MOL0     H 3338   6.977   9.395   2.868 -1.6861 -0.7691  1.7400
   25MOL0     H 3339   7.163   9.506   2.702  3.1957  2.0691 -0.0656
   25MOL0     H 3340   7.223   9.450   2.859 -1.6941 -0.3134 -0.3896
   25MOL0     H 3341   7.364   9.479   2.579  6.7801 -1.3719  0.2777
   25MOL0     H 3342   7.367   9.581   2.723  2.5819  0.7263 -1.3003
   25MOL0     H 3343   7.435   9.371   2.856 -0.4259  0.6570  0.5652
   25MOL0     H 3344   7.462   9.292   2.698 -0.4693 -2.1165  2.6503
   25MOL0     H 3345   7.576   9.541   2.847  0.7910 -0.0090  0.3988
   25MOL0     H 3346   7.613   9.517   2.672  1.7584 -0.3237 -0.2898
   25MOL0     H 3347   7.731   9.306   2.737  3.3076 -0.3676  1.4192
   25MOL0     H 3348   7.671   9.307   2.900 -1.3170 -0.9622 -1.5304
   25MOL0     H 3349   7.812   9.540   2.921  0.8890  0.8662 -0.4625
   25MOL0     H 3350   7.907   9.388   2.912  2.5788  0.7107 -2.9236
   25MOL0     H 3351   7.893   9.420   2.649  1.6653  0.4688 -1.0854
   25MOL0     H 3352   8.008   9.498   2.753 -0.3156  0.3794  0.9169
   25MOL0     H 3353   7.789   9.640   2.626  1.3196  1.0856  0.5819
   25MOL0     H 3354   7.840   9.698   2.783 -2.8408 -0.5410  0.2347
   25MOL0     H 3355   7.088   9.213   2.487  0.0712  0.0088 -0.3899
   25MOL0     H 3356   6.833   9.181   2.443  0.0667  0.2670  0.6886
   25MOL0     H 3357   6.408   9.175   2.628  2.5600  1.2481 -1.1091
   25MOL0     H 3358   6.165   9.138   2.560 -2.1054  1.2387 -0.5591
   25MOL0     H 3359   5.032   8.289   1.784  0.9069 -0.3235 -0.1032
   25MOL0     H 3360   4.906   8.243   1.979  0.8053  0.1622 -0.9215
   25MOL0     H 3361   5.086   7.990   2.580 -0.0900 -1.7717  1.6334
   25MOL0     H 3362   4.923   7.927   2.752  1.1932 -1.1032  0.0258
   25MOL0     H 3363   4.527   7.768   2.751  0.2703  0.1741  0.4924
   25MOL0     H 3364   4.524   7.821   2.585 -0.1079  1.4095 -1.8066
   25MOL0     H 3365   4.482   8.067   2.694  2.1911 -0.7766  0.2955
   25MOL0     H 3366   4.410   7.963   2.813  0.6085  0.9100  0.1582
   25MOL0     H 3367   4.283   7.849   2.601  0.1401 -0.4917  0.5315
   25MOL0     H 3368   4.355   8.014   2.530 -1.5823 -0.6401 -1.7334
   25MOL0     H 3369   4.160   7.975   2.760 -0.6238 -0.0582 -0.1908
   25MOL0     H 3370   4.196   8.130   2.690  1.0462 -0.1886  0.9636
   25MOL0     H 3371   3.905   8.021   2.414 -1.5110 -1.1199  1.6723
   25MOL0     H 3372   4.597   7.990   2.482  0.5077 -1.2029  0.2538
   25MOL0     H 3373   4.727   7.989   2.217  0.5664 -4.0491  4.0702
   25MOL0     H 3374   4.624   8.110   2.299 -0.0123 -2.0202  3.1464
   25MOL0     H 3375   4.770   8.170   2.225 -3.7729  1.1832 -2.1465
   26MOL0     O 3376   6.735   5.031   0.048  0.3540  0.0656  0.4993
   26MOL0     C 3377   6.618   5.033   0.081 -0.0315  0.0424  0.1340
   26MOL0     O 3378   6.559   5.149   0.135  0.3067  0.3208 -0.0676
   26MOL0     C 3379   6.636   5.262   0.160 -1.0392 -0.3985  0.2206
   26MOL0     C 3380   6.668   5.307   0.288  1.0027 -0.2938  0.2511
   26MOL0     C 3381   6.749   5.415   0.320 -0.4382 -0.1625  0.1283
   26MOL0     C 3382   6.805   5.491   0.216 -0.2535  0.5449 -0.1210
   26MOL0     O 3383   6.890   5.600   0.223  0.0097  0.8396  0.5265
   26MOL0     C 3384   6.977   5.635   0.340 -0.4657  0.0245 -0.3268
   26MOL0     C 3385   6.889   5.701   0.454  0.0459 -0.5528 -0.4443
   26MOL0     C 3386   6.897   5.849   0.428  0.0192  0.8988 -0.7348
   26MOL0     C 3387   6.818   5.930   0.520 -0.1109  0.1748 -0.6544
   26MOL0     C 3388   6.823   6.082   0.483  0.5566  1.4712 -0.2431
   26MOL0     C 3389   6.953   6.168   0.518  0.5477  0.4305  0.3335
   26MOL0     C 3390   7.025   6.146   0.649  0.1717  0.2243  0.2542
   26MOL0     C 3391   7.106   6.267   0.688  0.4425 -0.3411  0.1056
   26MOL0     N 3392   7.203   6.313   0.588  0.6872  0.1914 -0.7721
   26MOL0     C 3393   7.337   6.292   0.602 -0.6516 -0.1370 -0.0587
   26MOL0     C 3394   7.400   6.388   0.532 -0.5272 -0.6461  1.3727
   26MOL0     C 3395   7.548   6.433   0.555 -0.3442  0.3370  0.6967
   26MOL0     C 3396   7.609   6.524   0.454 -0.5803  0.2141 -0.0625
   26MOL0     C 3397   7.758   6.554   0.493  1.6000  0.7282  0.3875
   26MOL0     C 3398   7.776   6.642   0.616 -0.5709  0.6358  0.7903
   26MOL0     O 3399   7.916   6.674   0.645  0.5505 -0.6444  0.0044
   26MOL0     C 3400   7.982   6.602   0.736  0.6431  0.2970  0.4202
   26MOL0     C 3401   8.103   6.659   0.785  0.2514  0.0117  0.6884
   26MOL0     C 3402   8.179   6.588   0.879  0.9019  1.1583 -0.9290
   26MOL0     C 3403   8.135   6.464   0.930  0.2474 -0.6296 -0.2626
   26MOL0     C 3404   8.202   6.372   1.030 -0.6246 -0.5907 -0.4603
   26MOL0     O 3405   8.315   6.422   1.071 -0.3294  0.3305 -0.2579
   26MOL0     C 3406   8.400   6.370   1.170 -0.2145 -0.1178 -0.3092
   26MOL0     C 3407   8.431   6.229   1.174  0.5157 -0.2504 -0.4252
   26MOL0     C 3408   8.525   6.170   1.267 -0.5247  0.4006  0.3317
   26MOL0     C 3409   8.591   6.258   1.358  0.1402 -1.0904 -0.8395
   26MOL0     O 3410   8.674   6.198   1.445 -0.8903 -0.4149  0.1523
   26MOL0     C 3411   8.740   6.271   1.547 -0.7450 -0.5418 -0.0291
   26MOL0     C 3412   8.764   6.184   1.660  1.4268  0.1234 -0.4420
   26MOL0     C 3413   8.633   6.168   1.750 -0.5630 -0.8561 -0.2135
   26MOL0     C 3414   8.537   6.070   1.685 -0.2563 -0.0309 -0.9620
   26MOL0     C 3415   8.401   6.057   1.754  0.6720 -0.2581  0.6628
   26MOL0     C 3416   8.415   6.003   1.901 -0.1919 -0.3205 -0.1794
   26MOL0     C 3417   8.298   6.046   1.979 -0.0719  0.3417 -0.3905
   26MOL0     C 3418   8.317   6.042   2.133 -0.2015 -0.7435 -0.8085
   26MOL0    Cl 3419   8.154   6.094   2.197  0.0708  0.0487 -0.2377
   26MOL0     C 3420   8.576   6.397   1.341  0.1987 -0.2248  0.3233
   26MOL0     C 3421   8.483   6.447   1.249  0.3091 -1.3105  0.1611
   26MOL0     O 3422   8.144   6.272   1.064  0.5368 -0.9155 -0.4876
   26MOL0     C 3423   8.026   6.404   0.869 -0.1919  0.5469  0.9524
   26MOL0     C 3424   7.937   6.470   0.776 -0.4386 -0.6497 -0.4734
   26MOL0     N 3425   7.306   6.466   0.464 -0.1696  0.5603 -0.8591
   26MOL0     N 3426   7.182   6.418   0.501 -0.1985  0.2890 -0.6739
   26MOL0     C 3427   6.775   5.450   0.085 -0.8543 -0.5361  0.9972
   26MOL0     C 3428   6.681   5.351   0.064 -0.3733  1.8693  0.4470
   26MOL0     C 3429   6.527   4.914   0.073  1.1703 -0.1519  0.2838
   26MOL0     C 3430   6.424   4.905   0.173 -0.5499 -0.9284 -0.6589
   26MOL0     C 3431   6.355   4.782   0.195  0.1028  0.0981 -0.3104
   26MOL0     C 3432   6.375   4.668   0.101 -0.1527 -0.3326 -0.8785
   26MOL0     O 3433   6.317   4.547   0.125 -0.1307  0.1092  0.7671
   26MOL0     C 3434   6.237   4.492   0.010  0.8844 -0.4672  0.6254
   26MOL0     C 3435   6.274   4.355  -0.041  0.3280 -0.6797  1.0619
   26MOL0     C 3436   6.212   4.243   0.042 -0.0690  0.3023  0.3195
   26MOL0     C 3437   6.071   4.191   0.031 -0.5219  0.0057 -0.6396
   26MOL0     C 3438   6.050   4.137  -0.104  0.1806 -1.4258  0.7367
   26MOL0     C 3439   6.053   4.109  -0.223  0.5923  0.6934  0.0613
   26MOL0     C 3440   6.470   4.687   0.003 -0.4684  1.0771 -0.0100
   26MOL0     C 3441   6.545   4.800  -0.012 -0.3112 -0.3849  0.6516
   26MOL0     C 3442   6.622   4.809  -0.136  1.3934 -0.5742  0.3103
   26MOL0     H 3443   6.622   5.258   0.374  0.6990 -1.0661 -0.3367
   26MOL0     H 3444   6.767   5.441   0.424  0.8932 -0.7208  0.0531
   26MOL0     H 3445   7.012   5.535   0.365 -3.8356 -0.5037  3.2046
   26MOL0     H 3446   7.051   5.708   0.307 -0.8539 -1.3512 -4.9887
   26MOL0     H 3447   6.924   5.685   0.556  0.3418 -1.4860 -0.6888
   26MOL0     H 3448   6.786   5.667   0.448 -0.7545  1.6258 -0.1128
   26MOL0     H 3449   6.862   5.848   0.325 -1.1560 -0.5276 -0.3529
   26MOL0     H 3450   6.999   5.890   0.430  0.3066  0.2620  1.8892
   26MOL0     H 3451   6.714   5.904   0.496  0.6575 -0.1868 -4.0471
   26MOL0     H 3452   6.843   5.913   0.626 -2.1361  0.7709 -0.0292
   26MOL0     H 3453   6.817   6.096   0.375 -3.4552  1.9214 -0.1122
   26MOL0     H 3454   6.733   6.129   0.522 -3.2616 -1.6590 -4.2618
   26MOL0     H 3455   7.035   6.137   0.452  4.4453 -0.7666  5.1285
   26MOL0     H 3456   6.931   6.275   0.512  1.4971  0.7385  1.9563
   26MOL0     H 3457   7.088   6.056   0.655  2.4627  1.7360 -0.1072
   26MOL0     H 3458   6.954   6.123   0.729  1.6968  2.0304  2.2540
   26MOL0     H 3459   7.034   6.347   0.706 -0.0591 -0.6536 -0.4811
   26MOL0     H 3460   7.161   6.245   0.780  1.2538  0.9344 -0.0519
   26MOL0     H 3461   7.381   6.216   0.666 -0.5752 -1.9181 -2.0861
   26MOL0     H 3462   7.528   6.487   0.648  1.2225  1.7853  0.2452
   26MOL0     H 3463   7.616   6.353   0.585 -0.9080  0.3015  1.9121
   26MOL0     H 3464   7.604   6.471   0.358 -2.9067 -2.7204  1.5122
   26MOL0     H 3465   7.550   6.616   0.449  0.1864  0.6853 -0.5406
   26MOL0     H 3466   7.801   6.602   0.404  1.7526 -4.2002 -2.6088
   26MOL0     H 3467   7.806   6.457   0.514 -0.1136  0.4096  3.3344
   26MOL0     H 3468   7.728   6.597   0.703 -0.8256  0.5409  0.6033
   26MOL0     H 3469   7.729   6.740   0.606 -2.0190  0.1395  2.1933
   26MOL0     H 3470   8.132   6.756   0.745 -0.2860 -0.9230 -2.1898
   26MOL0     H 3471   8.265   6.648   0.908  1.3007  0.4863 -0.7115
   26MOL0     H 3472   8.380   6.162   1.106 -0.7618  0.8786 -0.6256
   26MOL0     H 3473   8.541   6.063   1.278  1.3598  0.7145  0.8423
   26MOL0     H 3474   8.825   6.334   1.516 -0.4175 -1.4959 -1.1387
   26MOL0     H 3475   8.676   6.345   1.596  2.1312 -0.5798  4.3897
   26MOL0     H 3476   8.787   6.083   1.627 -0.2079 -0.2669 -0.4866
   26MOL0     H 3477   8.834   6.220   1.736 -1.1589  0.8841  1.7521
   26MOL0     H 3478   8.665   6.136   1.849  0.3033  1.7959  0.4423
   26MOL0     H 3479   8.585   6.265   1.761 -1.4879 -1.2035 -1.0679
   26MOL0     H 3480   8.599   5.980   1.691  3.8804  2.6245  2.1501
   26MOL0     H 3481   8.513   6.094   1.581  1.6273  0.9451 -1.2288
   26MOL0     H 3482   8.343   5.977   1.707  2.7085 -1.2396 -0.3117
   26MOL0     H 3483   8.349   6.153   1.753  4.0927  1.7684  0.9054
   26MOL0     H 3484   8.446   5.898   1.907  1.4689  0.1229 -0.3271
   26MOL0     H 3485   8.504   6.056   1.938  0.8470 -3.0828  1.6095
   26MOL0     H 3486   8.219   5.974   1.953 -2.9914  3.0924  0.1867
   26MOL0     H 3487   8.260   6.143   1.944 -2.9430  0.4169  2.4508
   26MOL0     H 3488   8.349   5.944   2.169 -0.4927 -1.6760 -2.9470
   26MOL0     H 3489   8.396   6.109   2.169 -1.1375  0.3853 -0.7611
   26MOL0     H 3490   8.637   6.469   1.395  1.9543 -0.9236 -0.6450
   26MOL0     H 3491   8.482   6.554   1.230 -0.6231 -1.0298  1.6481
   26MOL0     H 3492   8.012   6.297   0.882 -0.7064  0.7644  2.2859
   26MOL0     H 3493   7.843   6.423   0.747 -0.2304 -0.8831 -0.7742
   26MOL0     H 3494   6.821   5.502   0.002 -0.0156  1.6489  2.7153
   26MOL0     H 3495   6.652   5.337  -0.040  0.8508 -2.4690  0.5098
   26MOL0     H 3496   6.399   4.979   0.249  1.6765 -1.0914  0.3149
   26MOL0     H 3497   6.285   4.772   0.277  1.6976  1.0167  1.2213
   26MOL0     H 3498   6.241   4.553  -0.081  0.6805 -2.9957 -1.1753
   26MOL0     H 3499   6.130   4.505   0.029  1.2510  0.5389  2.2199
   26MOL0     H 3500   6.381   4.335  -0.036  0.2368 -1.2486  0.8694
   26MOL0     H 3501   6.236   4.354  -0.143 -0.8233  0.4367  1.4576
   26MOL0     H 3502   6.214   4.273   0.148 -3.6080  1.7076  0.1215
   26MOL0     H 3503   6.285   4.163   0.028  0.0579  0.9105 -3.3573
   26MOL0     H 3504   6.059   4.105   0.097 -0.0957 -1.1267 -1.9751
   26MOL0     H 3505   5.993   4.266   0.050 -2.8710 -1.9159 -2.0495
   26MOL0     H 3506   6.071   4.097  -0.328 -2.9378  3.3521 -1.0281
   26MOL0     H 3507   6.485   4.603  -0.064  0.4273  0.4048  0.9907
   26MOL0     H 3508   6.551   4.800  -0.219  1.3234 -0.0727  0.3102
   26MOL0     H 3509   6.668   4.907  -0.149 -3.0231  1.4730 -2.5354
   26MOL0     H 3510   6.707   4.741  -0.142  1.8330  0.0848 -1.7021
   27MOL0     O 3511  10.896   5.895   6.657 -0.0196 -0.0395 -0.7539
   27MOL0     C 3512  10.970   5.962   6.736  0.0935  0.7090  0.1141
   27MOL0     O 3513  11.020   5.916   6.851 -0.3631 -1.3260  0.1124
   27MOL0     C 3514  10.994   5.788   6.885 -0.2239 -0.5844 -1.1063
   27MOL0     C 3515  10.870   5.754   6.937  0.0771  0.0601 -0.3594
   27MOL0     C 3516  10.843   5.619   6.947  0.1743  0.0510  0.7031
   27MOL0     C 3517  10.932   5.520   6.913  0.6221 -0.0341  0.6659
   27MOL0     O 3518  10.893   5.389   6.895  0.4270 -0.0925  0.3199
   27MOL0     C 3519  10.759   5.342   6.919  0.4022  0.6269 -0.8171
   27MOL0     C 3520  10.739   5.209   6.833  0.5604  0.3036  0.5141
   27MOL0     C 3521  10.596   5.147   6.849 -0.6266  0.4490 -0.3431
   27MOL0     C 3522  10.588   5.063   6.970  0.2554 -0.5253  0.0414
   27MOL0     C 3523  10.456   5.010   6.999  0.3262  0.2415  0.5492
   27MOL0     C 3524  10.352   5.123   7.048  0.1290 -0.8075 -0.1466
   27MOL0     C 3525  10.209   5.067   7.045  0.0986  0.2614 -0.1101
   27MOL0     C 3526  10.095   5.150   7.076 -0.5173  1.0909  0.2603
   27MOL0     N 3527  10.090   5.277   7.007  0.3755  0.1849  0.0487
   27MOL0     C 3528  10.127   5.402   7.066  1.2435  0.3658 -0.0958
   27MOL0     C 3529  10.084   5.493   6.976  0.4864  0.8267  0.1620
   27MOL0     C 3530  10.099   5.637   6.987 -0.6715  0.1129  0.0463
   27MOL0     C 3531  10.212   5.691   6.898  0.4773  0.6804  0.0398
   27MOL0     C 3532  10.350   5.639   6.934  0.4306 -0.1145  0.2159
   27MOL0     C 3533  10.460   5.708   6.846  0.6210  0.2096  0.0756
   27MOL0     O 3534  10.451   5.852   6.864  0.8052 -0.3428  0.2782
   27MOL0     C 3535  10.479   5.934   6.755  0.0243 -0.1357 -0.8260
   27MOL0     C 3536  10.437   6.067   6.759  0.1199 -0.1888  0.0739
   27MOL0     C 3537  10.475   6.162   6.653  0.5045 -0.4490 -0.4928
   27MOL0     C 3538  10.549   6.111   6.545  0.3164 -0.4193  0.7887
   27MOL0     C 3539  10.571   6.192   6.419 -0.2275  0.5289 -0.4743
   27MOL0     O 3540  10.652   6.149   6.321  0.5344  0.5151  0.0870
   27MOL0     C 3541  10.634   6.194   6.189  0.2559  0.1411 -0.1090
   27MOL0     C 3542  10.744   6.169   6.103 -0.1918 -0.4081 -0.7857
   27MOL0     C 3543  10.741   6.203   5.971 -0.6257 -1.0271 -1.3680
   27MOL0     C 3544  10.628   6.262   5.913 -0.5937  0.3169 -0.3910
   27MOL0     O 3545  10.627   6.283   5.780 -0.1815  0.2975  0.2005
   27MOL0     C 3546  10.713   6.402   5.764 -0.0816 -0.6095  0.8616
   27MOL0     C 3547  10.803   6.385   5.639  1.1801  0.5027 -0.0589
   27MOL0     C 3548  10.917   6.489   5.643 -0.8002  0.7345  0.1784
   27MOL0     C 3549  10.872   6.626   5.614 -0.0987  0.4876 -0.1513
   27MOL0     C 3550  10.983   6.721   5.661 -0.3561 -0.1425 -0.7727
   27MOL0     C 3551  10.954   6.866   5.615 -0.6186  0.5715 -0.1079
   27MOL0     C 3552  11.086   6.947   5.621  0.6758 -0.2984 -0.5106
   27MOL0     C 3553  11.059   7.091   5.592  0.8909 -0.6520 -0.1067
   27MOL0    Cl 3554  11.212   7.162   5.549 -0.2219 -0.2096  0.2909
   27MOL0     C 3555  10.508   6.271   5.990 -0.3370  0.3697 -0.3329
   27MOL0     C 3556  10.513   6.238   6.127 -0.2432  1.2701  0.0267
   27MOL0     O 3557  10.526   6.297   6.425 -0.5174 -0.1548  0.3236
   27MOL0     C 3558  10.617   5.992   6.563  0.0635 -0.1858 -0.5129
   27MOL0     C 3559  10.582   5.902   6.670 -0.1716  0.3460  0.4161
   27MOL0     N 3560  10.026   5.432   6.871  0.0938 -0.5043  0.2871
   27MOL0     N 3561  10.031   5.307   6.886 -0.4894 -0.2217 -0.6864
   27MOL0     C 3562  11.067   5.554   6.875  0.6213 -0.1101  0.7435
   27MOL0     C 3563  11.091   5.691   6.857  0.8056  0.1702 -0.1087
   27MOL0     C 3564  10.989   6.114   6.706  0.4751 -0.4349 -0.5989
   27MOL0     C 3565  10.963   6.160   6.576  0.4103 -0.5086  0.2456
   27MOL0     C 3566  10.995   6.289   6.535  0.1755 -1.2270 -0.8464
   27MOL0     C 3567  11.061   6.380   6.624  0.5425 -0.0923 -0.7368
   27MOL0     O 3568  11.102   6.504   6.580 -0.7992  0.6610 -0.2086
   27MOL0     C 3569  11.103   6.608   6.681 -0.6452 -0.5694 -0.8278
   27MOL0     C 3570  11.199   6.723   6.645  0.1277  0.8174 -0.4633
   27MOL0     C 3571  11.194   6.745   6.491 -0.1200  0.6104  0.5195
   27MOL0     C 3572  11.281   6.864   6.453  0.1344 -0.0169  0.1644
   27MOL0     C 3573  11.247   6.902   6.317 -0.8837  0.1412 -0.1733
   27MOL0     C 3574  11.223   6.935   6.203 -0.3445 -0.1668  0.1904
   27MOL0     C 3575  11.102   6.326   6.752 -0.0356  0.0110  0.6657
   27MOL0     C 3576  11.058   6.199   6.796  0.9277 -0.0049 -0.2969
   27MOL0     C 3577  11.085   6.167   6.942 -0.2058  0.5840 -1.4574
   27MOL0     H 3578  10.796   5.830   6.959 -1.3846 -0.4069 -3.2240
   27MOL0     H 3579  10.741   5.605   6.981 -0.1776  1.2582  0.1901
   27MOL0     H 3580  10.745   5.320   7.025 -0.9634  3.9606 -0.1601
   27MOL0     H 3581  10.674   5.406   6.892 -2.0426 -1.3663  1.5461
   27MOL0     H 3582  10.814   5.134   6.857 -1.3292 -1.7389  0.3482
   27MOL0     H 3583  10.757   5.232   6.727  0.6034 -2.6114 -0.1969
   27MOL0     H 3584  10.575   5.088   6.759 -1.1772 -1.8373  1.2042
   27MOL0     H 3585  10.523   5.228   6.849 -1.4933 -0.2837 -1.6446
   27MOL0     H 3586  10.653   4.979   6.942  0.4856  0.7317 -3.8339
   27MOL0     H 3587  10.632   5.117   7.054  0.8239  3.2572 -2.4413
   27MOL0     H 3588  10.416   4.960   6.910  1.6865  1.7788 -1.0101
   27MOL0     H 3589  10.483   4.941   7.079  2.1095  1.6639  1.2322
   27MOL0     H 3590  10.392   5.169   7.139 -2.4328  2.9082 -0.6652
   27MOL0     H 3591  10.359   5.206   6.977  0.1133 -1.2739 -0.7004
   27MOL0     H 3592  10.206   4.983   7.115 -3.4468 -0.3092 -0.7698
   27MOL0     H 3593  10.195   5.030   6.943  2.6710 -3.8323  0.7741
   27MOL0     H 3594  10.004   5.091   7.064  0.7796 -0.8696 -0.4966
   27MOL0     H 3595  10.092   5.184   7.180  0.0328  1.5662  0.1243
   27MOL0     H 3596  10.165   5.414   7.167  0.3122 -2.7657  0.7307
   27MOL0     H 3597  10.002   5.676   6.954  0.4267  2.2738 -0.8440
   27MOL0     H 3598  10.124   5.673   7.087 -3.2095 -1.5624  1.4017
   27MOL0     H 3599  10.191   5.642   6.803 -1.6480 -1.9847  1.7236
   27MOL0     H 3600  10.213   5.801   6.897 -0.2509  0.7048  0.7017
   27MOL0     H 3601  10.355   5.533   6.908  1.8451  0.7396 -3.6585
   27MOL0     H 3602  10.375   5.670   7.036  0.1730  3.3745 -0.6669
   27MOL0     H 3603  10.439   5.684   6.741  0.4710  1.5061 -0.2157
   27MOL0     H 3604  10.553   5.658   6.872  1.7790  2.4727  0.5297
   27MOL0     H 3605  10.377   6.088   6.847  2.4766  0.2446  1.6715
   27MOL0     H 3606  10.436   6.262   6.642  0.4223 -0.4534 -0.2572
   27MOL0     H 3607  10.828   6.131   6.160  0.5803 -0.6094 -2.0294
   27MOL0     H 3608  10.826   6.189   5.905 -0.9155  1.0178 -2.2510
   27MOL0     H 3609  10.643   6.486   5.758 -2.2975 -2.2722  1.7811
   27MOL0     H 3610  10.773   6.418   5.854  0.5488  0.5640  0.2644
   27MOL0     H 3611  10.855   6.289   5.638 -1.2987 -1.2087  4.5815
   27MOL0     H 3612  10.735   6.393   5.554  0.5480  0.0793  0.3995
   27MOL0     H 3613  10.980   6.480   5.732  0.7142 -1.4815 -1.0008
   27MOL0     H 3614  10.988   6.451   5.569  1.0929 -0.5596  2.4815
   27MOL0     H 3615  10.775   6.648   5.660 -0.5781  0.2879 -1.0276
   27MOL0     H 3616  10.858   6.629   5.505  1.5020  0.8271 -0.3658
   27MOL0     H 3617  11.073   6.694   5.605  0.3291  0.0093  0.2256
   27MOL0     H 3618  11.007   6.719   5.768 -4.9903 -1.3653  0.4816
   27MOL0     H 3619  10.917   6.871   5.512 -2.0005 -0.5020  0.3027
   27MOL0     H 3620  10.885   6.917   5.683  1.1377 -0.8148  2.9051
   27MOL0     H 3621  11.158   6.912   5.546  0.7840  1.5035 -1.3037
   27MOL0     H 3622  11.137   6.934   5.717  1.1149 -2.0246 -0.9381
   27MOL0     H 3623  10.987   7.124   5.516 -0.1754  2.6564  2.1225
   27MOL0     H 3624  11.029   7.135   5.687  0.4497 -2.7484  0.7881
   27MOL0     H 3625  10.413   6.277   5.937 -1.8279  2.8197  2.2871
   27MOL0     H 3626  10.424   6.235   6.190 -0.8917  0.4620 -0.8928
   27MOL0     H 3627  10.686   5.967   6.483  1.7246 -0.3172  0.8875
   27MOL0     H 3628  10.650   5.818   6.681 -1.7966 -1.0459  0.3619
   27MOL0     H 3629  11.138   5.474   6.857  1.3880 -0.1198  3.3125
   27MOL0     H 3630  11.189   5.709   6.813  0.5826  2.3783  0.1740
   27MOL0     H 3631  10.911   6.104   6.497 -1.5112 -0.5674  1.4771
   27MOL0     H 3632  10.987   6.315   6.430  1.6326 -0.3666 -0.7736
   27MOL0     H 3633  11.125   6.572   6.782  0.4304 -3.8213 -2.0832
   27MOL0     H 3634  11.005   6.656   6.679  0.4344  1.9460  0.8144
   27MOL0     H 3635  11.300   6.684   6.662  0.6480  2.2099 -0.2350
   27MOL0     H 3636  11.185   6.813   6.705  1.1196  0.7201 -0.0670
   27MOL0     H 3637  11.089   6.768   6.475  0.5037  3.1366 -0.4456
   27MOL0     H 3638  11.219   6.658   6.430 -0.6370  2.8616 -3.2734
   27MOL0     H 3639  11.253   6.940   6.526 -0.7270  0.5692 -0.7676
   27MOL0     H 3640  11.387   6.844   6.472 -0.0732 -1.9922 -0.5523
   27MOL0     H 3641  11.209   6.961   6.100  1.9209  0.2841 -0.0631
   27MOL0     H 3642  11.171   6.382   6.815  2.3013 -1.9342  0.0306
   27MOL0     H 3643  11.176   6.109   6.958 -1.3902 -0.7647  0.9416
   27MOL0     H 3644  11.115   6.257   6.997 -0.4966  0.3534 -0.9199
   27MOL0     H 3645  11.000   6.114   6.986  1.2616  0.2592  1.1976
   28MOL0     O 3646   5.665   3.027   5.089 -0.4440 -0.1668 -0.2362
   28MOL0     C 3647   5.727   2.960   5.007 -1.0753  0.3442 -0.0070
   28MOL0     O 3648   5.820   2.867   5.036  0.8554  0.8058  0.0580
   28MOL0     C 3649   5.891   2.863   5.147  1.0963  0.0133 -0.0492
   28MOL0     C 3650   5.912   2.967   5.234  0.4229 -0.1911 -0.0938
   28MOL0     C 3651   5.979   2.942   5.354 -0.6098 -0.1715  0.1616
   28MOL0     C 3652   6.039   2.818   5.391  0.3809 -0.1897 -0.1041
   28MOL0     O 3653   6.120   2.824   5.501  0.1025 -0.5069 -0.7121
   28MOL0     C 3654   6.133   2.716   5.587 -0.1740  0.0047  0.0356
   28MOL0     C 3655   6.247   2.742   5.680  0.7121  0.5358 -0.0794
   28MOL0     C 3656   6.212   2.846   5.792  0.0893 -0.8542 -0.0617
   28MOL0     C 3657   6.161   2.781   5.922 -0.1587 -0.2841  0.1659
   28MOL0     C 3658   6.124   2.864   6.046  0.4048 -0.0920 -0.0362
   28MOL0     C 3659   6.239   2.922   6.126 -0.7572 -0.6059  0.4268
   28MOL0     C 3660   6.303   2.814   6.208  0.3247 -0.2543  0.9001
   28MOL0     C 3661   6.397   2.871   6.309 -0.4357  0.2736  1.1362
   28MOL0     N 3662   6.467   2.777   6.393  0.0594  0.6366  0.0885
   28MOL0     C 3663   6.559   2.697   6.328  0.9901  0.1286  0.6420
   28MOL0     C 3664   6.604   2.609   6.423  0.1903 -0.0712  0.7957
   28MOL0     C 3665   6.704   2.502   6.391 -0.2270 -0.1943 -0.1889
   28MOL0     C 3666   6.695   2.436   6.255 -0.2409 -0.1381 -0.1120
   28MOL0     C 3667   6.572   2.340   6.240  0.0251  0.0442 -0.2931
   28MOL0     C 3668   6.575   2.303   6.089 -0.4498 -0.1873 -0.2405
   28MOL0     O 3669   6.559   2.424   6.005  0.2663  0.0091  0.7018
   28MOL0     C 3670   6.545   2.404   5.865  0.2630 -0.0629 -0.1534
   28MOL0     C 3671   6.491   2.507   5.797 -0.0839  0.5467  0.7789
   28MOL0     C 3672   6.458   2.494   5.656 -0.0637 -0.3970 -0.2189
   28MOL0     C 3673   6.483   2.374   5.596  0.0159  1.6179  0.5393
   28MOL0     C 3674   6.453   2.346   5.458 -0.5660 -0.0622  0.2619
   28MOL0     O 3675   6.491   2.224   5.413  0.8588  0.5274 -1.3849
   28MOL0     C 3676   6.478   2.201   5.288 -0.6620 -0.5488 -0.6251
   28MOL0     C 3677   6.595   2.196   5.215 -0.1926  1.0086 -0.8728
   28MOL0     C 3678   6.605   2.170   5.073  0.0681 -0.2158  1.1666
   28MOL0     C 3679   6.478   2.129   5.011 -0.0199 -0.2043 -1.3216
   28MOL0     O 3680   6.472   2.085   4.882 -0.2860  0.3646  0.7200
   28MOL0     C 3681   6.573   2.118   4.784 -0.0427 -0.2075  1.1314
   28MOL0     C 3682   6.532   2.037   4.660 -0.1914 -0.0915 -0.1526
   28MOL0     C 3683   6.411   2.099   4.582  0.4335 -0.4827  0.0029
   28MOL0     C 3684   6.417   2.143   4.434  0.0198  0.7870  0.3992
   28MOL0     C 3685   6.456   2.036   4.334 -0.2110 -0.0435 -0.6044
   28MOL0     C 3686   6.467   2.093   4.190  0.1446  0.7749 -0.9230
   28MOL0     C 3687   6.513   1.989   4.089 -0.6234 -0.3021  0.2169
   28MOL0     C 3688   6.428   1.864   4.081 -0.4385  0.7206  0.5884
   28MOL0    Cl 3689   6.259   1.881   4.024 -0.2870 -0.3147 -0.0883
   28MOL0     C 3690   6.364   2.131   5.088  0.1984  0.1353  0.1146
   28MOL0     C 3691   6.359   2.159   5.222 -0.8931 -1.0620  0.0559
   28MOL0     O 3692   6.379   2.427   5.401 -0.2245  1.3740 -0.7904
   28MOL0     C 3693   6.546   2.266   5.673 -0.7050  0.4393 -0.3211
   28MOL0     C 3694   6.582   2.286   5.806  1.0996  1.2231 -0.6608
   28MOL0     N 3695   6.539   2.635   6.539  0.5006  0.1453  0.1244
   28MOL0     N 3696   6.451   2.733   6.527 -0.1369 -0.0945  0.0441
   28MOL0     C 3697   6.026   2.715   5.295  0.2709  0.2698  0.2682
   28MOL0     C 3698   5.951   2.731   5.182 -0.4018  1.1860 -0.0311
   28MOL0     C 3699   5.692   2.999   4.870 -0.0187  1.2931  0.0015
   28MOL0     C 3700   5.589   3.085   4.843  0.1218 -0.6226 -0.2725
   28MOL0     C 3701   5.540   3.114   4.719 -0.5286  0.4282  0.1102
   28MOL0     C 3702   5.594   3.051   4.613  0.2191  0.4756  0.0094
   28MOL0     O 3703   5.537   3.082   4.492  0.4313  0.5600  0.0252
   28MOL0     C 3704   5.566   2.995   4.381  0.6642 -0.5064 -0.1283
   28MOL0     C 3705   5.474   3.044   4.267 -0.6645 -0.0173  0.9689
   28MOL0     C 3706   5.333   2.996   4.288  0.2929  0.5095 -0.1800
   28MOL0     C 3707   5.247   3.054   4.183 -0.9280  0.5829 -0.0110
   28MOL0     C 3708   5.113   3.000   4.213  0.4277  0.0085  0.4954
   28MOL0     C 3709   5.019   2.936   4.252  0.1482 -0.3826 -0.1387
   28MOL0     C 3710   5.699   2.961   4.633 -0.0496 -0.2918 -0.3183
   28MOL0     C 3711   5.752   2.937   4.764  0.4711  0.0653 -0.3046
   28MOL0     C 3712   5.867   2.834   4.769 -0.0580  0.2611 -0.2017
   28MOL0     H 3713   5.883   3.069   5.211 -0.9937 -0.2229  1.3664
   28MOL0     H 3714   5.968   3.022   5.427 -2.5137 -0.4417  0.2132
   28MOL0     H 3715   6.040   2.700   5.643 -1.3389 -0.0720 -1.8159
   28MOL0     H 3716   6.147   2.623   5.531 -2.1089 -0.0076 -0.4931
   28MOL0     H 3717   6.340   2.780   5.637  2.5196  1.4793  4.1734
   28MOL0     H 3718   6.267   2.645   5.725  2.6691  0.2212 -1.5206
   28MOL0     H 3719   6.128   2.910   5.763  0.2814  0.2720  1.6993
   28MOL0     H 3720   6.296   2.916   5.802  0.3620 -0.9267 -1.5965
   28MOL0     H 3721   6.073   2.722   5.896 -0.4817 -1.8516  4.1368
   28MOL0     H 3722   6.249   2.720   5.947  1.8749  2.2843 -0.2322
   28MOL0     H 3723   6.068   2.951   6.013  0.0236 -0.0919  0.5867
   28MOL0     H 3724   6.058   2.809   6.114 -3.0661  1.3727 -1.9328
   28MOL0     H 3725   6.310   2.959   6.052 -0.7830  0.6229  1.0046
   28MOL0     H 3726   6.199   3.007   6.181 -3.3010 -2.8674  2.3533
   28MOL0     H 3727   6.356   2.749   6.138  0.5601  0.2952  0.5679
   28MOL0     H 3728   6.225   2.744   6.241  0.8301 -1.7845 -1.0025
   28MOL0     H 3729   6.470   2.923   6.246  0.1862 -1.4045  0.3904
   28MOL0     H 3730   6.345   2.945   6.370 -2.3979  0.1208 -0.2688
   28MOL0     H 3731   6.594   2.706   6.226 -1.2999  2.6034 -0.0362
   28MOL0     H 3732   6.799   2.555   6.399 -0.3260 -0.1408  0.7360
   28MOL0     H 3733   6.695   2.419   6.461  1.4480 -0.0676  0.2163
   28MOL0     H 3734   6.700   2.504   6.169  3.5088 -0.2648 -0.1759
   28MOL0     H 3735   6.790   2.383   6.244 -0.0004 -0.1177  1.6114
   28MOL0     H 3736   6.480   2.396   6.259  0.8270  1.4289 -0.3833
   28MOL0     H 3737   6.574   2.253   6.306 -0.8548  0.3825  0.1928
   28MOL0     H 3738   6.490   2.238   6.065  0.2760 -0.3311 -2.7282
   28MOL0     H 3739   6.673   2.254   6.085 -1.0661 -1.3923 -1.5426
   28MOL0     H 3740   6.491   2.602   5.851  4.3397  0.8438  0.6752
   28MOL0     H 3741   6.422   2.571   5.589 -0.5961 -0.3235  0.1461
   28MOL0     H 3742   6.683   2.213   5.275 -1.7122  3.4821  0.8477
   28MOL0     H 3743   6.697   2.170   5.016  0.2004 -3.0794  1.2138
   28MOL0     H 3744   6.573   2.223   4.752 -0.9079 -0.0351  1.6629
   28MOL0     H 3745   6.673   2.094   4.821  0.8028 -0.0685 -0.9376
   28MOL0     H 3746   6.612   2.026   4.587  0.8013  2.1864  0.5111
   28MOL0     H 3747   6.511   1.935   4.693  2.1087 -0.2576  0.9454
   28MOL0     H 3748   6.326   2.031   4.595 -2.2408  2.4666 -0.7355
   28MOL0     H 3749   6.385   2.192   4.634 -2.9199 -1.5371  0.4367
   28MOL0     H 3750   6.484   2.229   4.428  0.5229  0.8863  4.7643
   28MOL0     H 3751   6.325   2.194   4.405 -1.6141 -1.6801  0.9221
   28MOL0     H 3752   6.374   1.965   4.341 -0.6521  0.3714 -1.3393
   28MOL0     H 3753   6.555   2.006   4.369 -0.2397  2.5079  2.0505
   28MOL0     H 3754   6.363   2.108   4.158 -0.1963 -1.0563 -0.7868
   28MOL0     H 3755   6.531   2.182   4.186  1.0715  0.1809  0.2038
   28MOL0     H 3756   6.615   1.955   4.111 -1.1116 -2.5002 -0.7112
   28MOL0     H 3757   6.520   2.048   3.997  1.5665  0.2626  0.6778
   28MOL0     H 3758   6.480   1.786   4.025 -0.6923 -0.5658  2.0735
   28MOL0     H 3759   6.430   1.827   4.184  0.2852 -2.3348 -0.4257
   28MOL0     H 3760   6.270   2.105   5.041 -0.5138  0.2037  1.4333
   28MOL0     H 3761   6.262   2.148   5.269 -1.1461 -2.2032 -0.7031
   28MOL0     H 3762   6.566   2.168   5.630 -1.3602  0.4483 -0.6640
   28MOL0     H 3763   6.633   2.211   5.865  0.2637  0.1665 -1.2470
   28MOL0     H 3764   6.064   2.615   5.311  1.4491  0.9425  1.8986
   28MOL0     H 3765   5.926   2.646   5.119 -0.7802  0.2018  1.3880
   28MOL0     H 3766   5.535   3.133   4.925 -4.2644 -0.4804 -2.8889
   28MOL0     H 3767   5.452   3.177   4.717 -2.1230 -1.5139  2.6653
   28MOL0     H 3768   5.532   2.896   4.413  3.3419 -0.5327  3.1511
   28MOL0     H 3769   5.668   2.987   4.343  0.0150 -1.4330 -1.7814
   28MOL0     H 3770   5.506   3.013   4.167 -3.5467  2.0864 -0.7517
   28MOL0     H 3771   5.478   3.153   4.264 -2.5110  0.3453 -5.5702
   28MOL0     H 3772   5.292   3.021   4.387  0.0584  1.2069 -0.4433
   28MOL0     H 3773   5.327   2.887   4.281 -0.7322  0.6459 -2.0536
   28MOL0     H 3774   5.243   3.163   4.185  3.5293  0.9012 -0.5066
   28MOL0     H 3775   5.286   3.026   4.085  1.3507 -1.0049  1.2427
   28MOL0     H 3776   4.943   2.879   4.301  1.6610 -1.4299  1.0768
   28MOL0     H 3777   5.757   2.928   4.547 -1.8184  0.5227 -1.9111
   28MOL0     H 3778   5.960   2.881   4.801  1.2262 -1.6703 -0.8686
   28MOL0     H 3779   5.847   2.749   4.835  2.3570 -2.0025 -2.1466
   28MOL0     H 3780   5.891   2.795   4.669 -2.0715 -0.5915 -0.3983
   29MOL0     O 3781   9.221  10.732   7.764 -0.8805  0.2348  0.2887
   29MOL0     C 3782   9.116  10.688   7.726  0.8253  0.6372 -0.2004
   29MOL0     O 3783   8.991  10.729   7.761 -0.4453  0.1429  0.4991
   29MOL0     C 3784   8.982  10.813   7.862  0.7349 -0.2438  0.2718
   29MOL0     C 3785   8.999  10.775   7.995 -0.0860  0.0078 -0.7003
   29MOL0     C 3786   9.002  10.871   8.100  0.1760 -0.0158 -0.0198
   29MOL0     C 3787   8.974  11.007   8.067  0.2728  0.6150  0.1640
   29MOL0     O 3788   8.988  11.108   8.171  0.0475 -0.5198  0.2729
   29MOL0     C 3789   8.970  11.070   8.305 -0.2398  0.0733  0.0096
   29MOL0     C 3790   8.907  11.187   8.388 -0.7190  0.3998  0.3840
   29MOL0     C 3791   9.021  11.274   8.422 -0.9958  0.3365  0.8071
   29MOL0     C 3792   8.975  11.365   8.542 -0.3950 -0.4156  0.2017
   29MOL0     C 3793   9.083  11.472   8.561  0.5560  0.4148  1.3013
   29MOL0     C 3794   9.080  11.529   8.702 -0.3773  0.7530 -0.6612
   29MOL0     C 3795   8.960  11.622   8.732  0.2174 -0.3776 -0.5741
   29MOL0     C 3796   8.948  11.649   8.886  0.5281 -0.0784  0.1776
   29MOL0     N 3797   9.078  11.650   8.968 -0.4992  0.4942  0.2861
   29MOL0     C 3798   9.196  11.709   8.927  0.4138 -0.3454  0.6907
   29MOL0     C 3799   9.272  11.713   9.046  0.3525 -0.7867  0.1517
   29MOL0     C 3800   9.397  11.797   9.088 -0.6514 -0.0823 -0.2690
   29MOL0     C 3801   9.350  11.930   9.135 -0.5371 -0.2327  0.2924
   29MOL0     C 3802   9.471  12.035   9.162  0.2735  0.6208  0.1431
   29MOL0     C 3803   9.544  12.090   9.036 -0.0297  1.1730  0.0646
   29MOL0     O 3804   9.464  12.104   8.926 -0.5844  0.1993  0.4874
   29MOL0     C 3805   9.398  12.226   8.912  0.1149  1.0430  0.8365
   29MOL0     C 3806   9.390  12.323   9.020  0.0179 -0.1746  0.4100
   29MOL0     C 3807   9.353  12.452   8.990 -0.2977  0.0208  0.8572
   29MOL0     C 3808   9.318  12.497   8.857  0.8349 -0.2557 -0.1705
   29MOL0     C 3809   9.280  12.647   8.838 -0.7547 -0.4130 -0.2309
   29MOL0     O 3810   9.165  12.667   8.765 -0.9098  0.8265 -0.4192
   29MOL0     C 3811   9.139  12.797   8.727 -0.3275 -0.4651  0.3135
   29MOL0     C 3812   9.211  12.828   8.611 -0.7198 -0.2900 -0.3135
   29MOL0     C 3813   9.194  12.952   8.538  0.1778  1.1699  0.8751
   29MOL0     C 3814   9.106  13.040   8.592  0.2962 -0.0732 -0.6418
   29MOL0     O 3815   9.108  13.171   8.537  0.1245 -0.4413  0.2174
   29MOL0     C 3816   9.039  13.278   8.597 -0.8007  0.3223  0.3591
   29MOL0     C 3817   9.052  13.402   8.511  0.5952 -0.1086 -0.4653
   29MOL0     C 3818   9.001  13.532   8.583  0.2922  0.0367 -0.0304
   29MOL0     C 3819   9.043  13.652   8.499  0.7109  0.0951  0.0642
   29MOL0     C 3820   9.023  13.787   8.583  0.1120  0.0605 -0.0533
   29MOL0     C 3821   8.995  13.915   8.500 -0.4858 -0.4558  0.7655
   29MOL0     C 3822   8.854  13.960   8.485 -0.6895 -0.8053 -0.2185
   29MOL0     C 3823   8.833  14.053   8.372 -0.5603 -0.7551  1.1616
   29MOL0    Cl 3824   8.889  14.226   8.417  0.2064 -0.0708 -0.2968
   29MOL0     C 3825   9.028  13.006   8.702  0.4192 -0.2058  0.6273
   29MOL0     C 3826   9.053  12.885   8.774 -0.0156 -0.8084 -0.0570
   29MOL0     O 3827   9.358  12.734   8.888  0.2095  0.0059  0.5388
   29MOL0     C 3828   9.306  12.400   8.754 -0.6770 -0.0131 -0.1045
   29MOL0     C 3829   9.363  12.275   8.781  0.9245  0.1674 -0.3064
   29MOL0     N 3830   9.201  11.647   9.142  0.5877  1.0452  0.4664
   29MOL0     N 3831   9.078  11.616   9.100  0.6186 -0.5509 -0.3178
   29MOL0     C 3832   8.947  11.042   7.934  0.0153  0.2465 -1.0332
   29MOL0     C 3833   8.947  10.948   7.835 -1.9851  0.5890  0.0586
   29MOL0     C 3834   9.113  10.581   7.630  0.0089  0.3719  0.5496
   29MOL0     C 3835   9.234  10.528   7.587  0.2239 -0.0688  0.0817
   29MOL0     C 3836   9.243  10.420   7.498 -0.4088 -0.0219  0.0298
   29MOL0     C 3837   9.127  10.354   7.458  0.1925  0.4279  0.5618
   29MOL0     O 3838   9.152  10.235   7.384 -0.0051 -0.7636 -0.0775
   29MOL0     C 3839   9.048  10.182   7.302 -1.2319 -0.8426 -0.2018
   29MOL0     C 3840   8.994  10.073   7.392  0.9577  0.1657 -0.8510
   29MOL0     C 3841   9.054   9.937   7.368  0.0570  0.4979 -0.0067
   29MOL0     C 3842   8.991   9.811   7.437 -0.3152 -1.6482 -0.2243
   29MOL0     C 3843   8.844   9.802   7.399 -0.5658 -0.4103 -0.7518
   29MOL0     C 3844   8.721   9.809   7.396 -0.5656  0.5416  0.6696
   29MOL0     C 3845   9.005  10.402   7.488 -1.0474 -0.6765  0.1062
   29MOL0     C 3846   8.997  10.520   7.570  0.1149  0.8965 -1.0210
   29MOL0     C 3847   8.849  10.536   7.610  0.1848 -0.4566  0.6740
   29MOL0     H 3848   9.028  10.674   8.022  1.1689  0.1591 -1.4213
   29MOL0     H 3849   9.040  10.836   8.195  0.0295 -1.6287 -0.5231
   29MOL0     H 3850   8.898  10.989   8.318  1.3376 -1.0379  2.9534
   29MOL0     H 3851   9.068  11.041   8.344  0.6225  1.1408 -1.2824
   29MOL0     H 3852   8.864  11.128   8.470  0.9913 -1.1286  0.2633
   29MOL0     H 3853   8.827  11.249   8.347 -0.9470 -0.2676 -0.2100
   29MOL0     H 3854   9.069  11.334   8.345 -0.7757  0.5433  1.1028
   29MOL0     H 3855   9.100  11.211   8.465 -3.1282 -2.2670  1.1781
   29MOL0     H 3856   8.877  11.411   8.529  0.4970  1.1923 -1.3116
   29MOL0     H 3857   8.976  11.306   8.634  0.8796  1.0355  1.1921
   29MOL0     H 3858   9.183  11.431   8.542 -1.0448 -3.5337  0.4133
   29MOL0     H 3859   9.076  11.556   8.491 -1.5134 -1.6929 -1.2440
   29MOL0     H 3860   9.091  11.448   8.775 -1.9269 -0.3752 -1.6090
   29MOL0     H 3861   9.169  11.591   8.717  0.8521 -1.1413  0.2410
   29MOL0     H 3862   8.871  11.567   8.699 -0.3143 -1.6297  2.5440
   29MOL0     H 3863   8.971  11.719   8.684 -0.2736  0.5731  1.1520
   29MOL0     H 3864   8.887  11.737   8.907  0.2725 -0.7575  2.5345
   29MOL0     H 3865   8.885  11.566   8.921  1.8659 -1.3618 -0.3246
   29MOL0     H 3866   9.218  11.762   8.835  2.2203 -0.0965  1.2219
   29MOL0     H 3867   9.459  11.744   9.161 -0.7429 -1.3997 -1.1084
   29MOL0     H 3868   9.459  11.808   8.999 -2.5306 -0.3533 -1.6731
   29MOL0     H 3869   9.290  11.979   9.057 -2.0117  1.7295  2.5126
   29MOL0     H 3870   9.297  11.917   9.230 -0.7089 -1.9447 -0.0098
   29MOL0     H 3871   9.545  11.994   9.232 -0.6386  3.6699  3.1198
   29MOL0     H 3872   9.440  12.123   9.218 -0.4014  1.0298 -0.8401
   29MOL0     H 3873   9.625  12.022   9.010 -0.3829  1.1257 -0.9646
   29MOL0     H 3874   9.595  12.185   9.056  0.5642  1.3367 -1.9947
   29MOL0     H 3875   9.408  12.308   9.126 -0.7850 -1.7733  0.3533
   29MOL0     H 3876   9.342  12.523   9.072 -0.0509  0.2222  0.7174
   29MOL0     H 3877   9.276  12.754   8.566  1.6723  0.5434  1.5543
   29MOL0     H 3878   9.242  12.986   8.446  0.7911  1.4857  1.3014
   29MOL0     H 3879   8.933  13.252   8.594 -0.8604  0.2119 -4.6823
   29MOL0     H 3880   9.074  13.293   8.699  0.0009 -3.1970  0.7415
   29MOL0     H 3881   9.161  13.405   8.498  0.8046  2.6244  1.1064
   29MOL0     H 3882   8.993  13.383   8.421 -1.7181  0.6848  0.8118
   29MOL0     H 3883   8.894  13.534   8.606 -0.2276 -1.5135 -2.0748
   29MOL0     H 3884   9.041  13.532   8.685  2.3306  1.3951 -0.7820
   29MOL0     H 3885   8.975  13.643   8.414 -1.4154 -2.6952  1.8475
   29MOL0     H 3886   9.146  13.642   8.464  0.4255  4.8328 -2.9885
   29MOL0     H 3887   9.119  13.801   8.633  1.0465  0.3716 -1.8694
   29MOL0     H 3888   8.942  13.773   8.655 -3.0429  1.7262 -2.9775
   29MOL0     H 3889   9.060  13.995   8.538  1.5753 -0.3942 -2.5641
   29MOL0     H 3890   9.031  13.898   8.399  0.5369 -1.3532  1.2659
   29MOL0     H 3891   8.815  14.001   8.578  3.0581  3.1526 -0.0839
   29MOL0     H 3892   8.803  13.865   8.464 -2.0215 -0.7353  2.2574
   29MOL0     H 3893   8.889  14.030   8.281 -3.5179  4.6121 -2.5950
   29MOL0     H 3894   8.726  14.044   8.352 -0.4679 -0.7409  0.6394
   29MOL0     H 3895   8.949  13.074   8.736 -0.2274  0.3725 -1.7968
   29MOL0     H 3896   8.998  12.844   8.859  0.7787  1.2244  1.5252
   29MOL0     H 3897   9.286  12.437   8.654  1.7581  0.7839 -0.3489
   29MOL0     H 3898   9.379  12.208   8.697 -3.3836 -0.4367 -0.8635
   29MOL0     H 3899   8.921  11.144   7.908  2.2968  2.0010  2.6930
   29MOL0     H 3900   8.934  10.981   7.732  2.7675 -1.6095 -1.5797
   29MOL0     H 3901   9.327  10.580   7.605  0.6005  1.1167 -4.3208
   29MOL0     H 3902   9.341  10.387   7.468  0.1181  1.2715  0.2400
   29MOL0     H 3903   9.097  10.142   7.212 -1.8790  0.0719 -0.9924
   29MOL0     H 3904   8.977  10.258   7.269  1.0968  1.9298  0.7812
   29MOL0     H 3905   8.887  10.082   7.369  1.1677  4.4248 -1.0912
   29MOL0     H 3906   8.985  10.097   7.498  0.3269 -0.1916 -0.8199
   29MOL0     H 3907   9.159   9.953   7.393  0.0736  3.0552 -1.3593
   29MOL0     H 3908   9.065   9.934   7.259 -2.5312  1.0403 -0.3509
   29MOL0     H 3909   9.048   9.720   7.416 -1.7191 -2.7705  0.6204
   29MOL0     H 3910   8.995   9.817   7.546 -2.0403  0.0241 -0.1920
   29MOL0     H 3911   8.616   9.830   7.384 -0.5268  2.6546  3.2426
   29MOL0     H 3912   8.918  10.352   7.446 -2.1158  3.0115 -2.6037
   29MOL0     H 3913   8.776  10.499   7.538  0.4009 -0.1620  0.3015
   29MOL0     H 3914   8.821  10.491   7.706 -0.6334  1.4480  1.3783
   29MOL0     H 3915   8.826  10.643   7.606 -1.1386 -0.7725 -2.0850
   30MOL0     O 3916   4.377   5.747   6.070 -0.8382  0.2591 -0.9187
   30MOL0     C 3917   4.475   5.755   5.993  0.4384 -0.3692 -0.3287
   30MOL0     O 3918   4.464   5.760   5.866 -0.0923 -0.3644  0.2453
   30MOL0     C 3919   4.337   5.733   5.820  0.1941 -0.4553  0.1949
   30MOL0     C 3920   4.267   5.836   5.765  0.0052  0.4950  0.6874
   30MOL0     C 3921   4.140   5.833   5.722  0.2277 -0.2804 -0.0601
   30MOL0     C 3922   4.068   5.716   5.730 -0.3639  0.5645  0.4173
   30MOL0     O 3923   3.934   5.731   5.705 -0.5947  0.6525  0.0304
   30MOL0     C 3924   3.854   5.614   5.724  0.0640  0.5769  0.7189
   30MOL0     C 3925   3.714   5.664   5.705 -0.5669 -0.1569 -0.2729
   30MOL0     C 3926   3.610   5.558   5.719 -1.0526 -0.9031  0.3019
   30MOL0     C 3927   3.475   5.619   5.689 -0.2641  0.8863 -0.4736
   30MOL0     C 3928   3.359   5.527   5.740 -0.4198 -0.5536  0.7122
   30MOL0     C 3929   3.238   5.622   5.744 -0.1651  1.0740 -0.7049
   30MOL0     C 3930   3.107   5.546   5.761 -0.1416 -0.0790  0.3098
   30MOL0     C 3931   3.061   5.515   5.898 -1.2206  0.6095  0.4159
   30MOL0     N 3932   3.144   5.418   5.970 -0.3087  0.1354 -0.9118
   30MOL0     C 3933   3.147   5.279   5.953  0.3322 -1.1549 -0.0406
   30MOL0     C 3934   3.215   5.244   6.062 -0.8699 -0.0912 -0.7729
   30MOL0     C 3935   3.249   5.103   6.088  0.3483 -0.8479  0.1283
   30MOL0     C 3936   3.397   5.096   6.130  0.5557  0.2846  0.0931
   30MOL0     C 3937   3.419   4.968   6.214  0.1529 -0.6083  1.4891
   30MOL0     C 3938   3.382   4.989   6.368  0.9936  0.4978  0.4162
   30MOL0     O 3939   3.499   5.010   6.438  0.1790  0.0132 -0.4040
   30MOL0     C 3940   3.544   5.137   6.470  0.1993  0.6936 -0.3465
   30MOL0     C 3941   3.669   5.147   6.524 -0.8343 -0.3720  0.1608
   30MOL0     C 3942   3.722   5.268   6.562  0.2044 -0.1592  0.5410
   30MOL0     C 3943   3.641   5.382   6.554  0.0904 -0.1906  0.7969
   30MOL0     C 3944   3.689   5.515   6.587 -1.1202  0.0015 -0.4276
   30MOL0     O 3945   3.776   5.516   6.691 -0.8225  0.3042 -0.4372
   30MOL0     C 3946   3.892   5.591   6.700  0.3576 -0.9674 -0.5869
   30MOL0     C 3947   3.912   5.716   6.646  0.2226 -0.7720 -1.0382
   30MOL0     C 3948   4.018   5.793   6.686  0.5592 -0.0752  0.4919
   30MOL0     C 3949   4.110   5.746   6.781  0.5383  0.1675  0.2572
   30MOL0     O 3950   4.190   5.839   6.827 -0.6807 -0.1450  0.5941
   30MOL0     C 3951   4.306   5.792   6.900  0.3576  0.5251  0.9325
   30MOL0     C 3952   4.397   5.903   6.944 -1.1331 -0.8380 -0.9697
   30MOL0     C 3953   4.535   5.855   6.991  0.1513 -0.0251  0.0587
   30MOL0     C 3954   4.632   5.958   7.045  0.0240  0.8101 -0.0649
   30MOL0     C 3955   4.786   5.910   7.070 -0.1084 -0.2705  0.2560
   30MOL0     C 3956   4.868   6.029   7.137  0.6859 -0.6513 -0.5426
   30MOL0     C 3957   5.015   5.984   7.150 -0.5184  0.2435 -0.2293
   30MOL0     C 3958   5.103   5.999   7.025  0.1058  1.5109 -0.7192
   30MOL0    Cl 3959   5.126   6.171   6.976 -0.2653 -0.0981  0.1978
   30MOL0     C 3960   4.097   5.614   6.833 -0.5813  0.4882  0.3002
   30MOL0     C 3961   3.992   5.540   6.788  0.6127  0.1064 -0.4597
   30MOL0     O 3962   3.648   5.612   6.526  0.6283  0.5449  0.3782
   30MOL0     C 3963   3.515   5.383   6.489 -0.4066  1.2419  0.7574
   30MOL0     C 3964   3.463   5.260   6.458  0.5775  0.3696  0.3229
   30MOL0     N 3965   3.240   5.343   6.154  0.3607  0.4379  0.0623
   30MOL0     N 3966   3.199   5.447   6.093 -0.1638 -0.0976  0.7644
   30MOL0     C 3967   4.138   5.600   5.780  1.1074  0.2430 -0.0879
   30MOL0     C 3968   4.266   5.608   5.827 -0.8846  0.4237  0.3269
   30MOL0     C 3969   4.595   5.809   6.055 -0.7047  0.3893  0.8047
   30MOL0     C 3970   4.658   5.913   5.988  0.6068  0.3583  1.8210
   30MOL0     C 3971   4.781   5.962   6.030  0.3271 -0.3988  0.2317
   30MOL0     C 3972   4.847   5.911   6.137  0.9200  0.2377  0.4654
   30MOL0     O 3973   4.974   5.944   6.167  0.0224  0.1875 -0.1345
   30MOL0     C 3974   4.971   6.077   6.207 -0.5741 -0.6130 -0.0219
   30MOL0     C 3975   5.091   6.106   6.297  0.4171 -0.9369 -0.0560
   30MOL0     C 3976   5.231   6.070   6.233 -0.3908 -0.6410  0.6586
   30MOL0     C 3977   5.244   6.172   6.122 -1.1716 -0.1842  0.7214
   30MOL0     C 3978   5.369   6.136   6.045  1.3300  0.4542  0.4134
   30MOL0     C 3979   5.469   6.100   5.977 -0.4693  0.5732  0.3904
   30MOL0     C 3980   4.779   5.810   6.208 -0.2400 -1.1602  0.5407
   30MOL0     C 3981   4.655   5.758   6.168  0.2394 -0.2509 -0.7311
   30MOL0     C 3982   4.605   5.631   6.223  0.7448  0.2460  0.6532
   30MOL0     H 3983   4.314   5.933   5.753  0.2560  0.1777 -1.2398
   30MOL0     H 3984   4.090   5.928   5.702 -2.0260 -1.2872  0.4811
   30MOL0     H 3985   3.876   5.535   5.653  1.4272  1.2208  0.4019
   30MOL0     H 3986   3.865   5.584   5.829 -4.1345  1.0395  1.4775
   30MOL0     H 3987   3.714   5.710   5.606 -0.6257  1.5170  0.4678
   30MOL0     H 3988   3.700   5.748   5.773  0.2379 -0.3213  0.0992
   30MOL0     H 3989   3.619   5.515   5.819  0.2520  0.2358  0.7013
   30MOL0     H 3990   3.640   5.478   5.651 -0.2299 -0.0979 -0.2923
   30MOL0     H 3991   3.475   5.718   5.735  1.3571  1.7744 -2.2512
   30MOL0     H 3992   3.479   5.620   5.580  3.0132  0.0534 -0.4681
   30MOL0     H 3993   3.340   5.448   5.667  1.5863 -0.5437  0.1207
   30MOL0     H 3994   3.385   5.487   5.838  1.8554 -2.3971 -0.5317
   30MOL0     H 3995   3.250   5.699   5.821 -4.2066  0.4596  0.8071
   30MOL0     H 3996   3.243   5.677   5.650  0.2085  1.3178 -0.5440
   30MOL0     H 3997   3.102   5.460   5.694 -2.1641  2.1138 -2.6385
   30MOL0     H 3998   3.041   5.619   5.713 -0.0575 -0.2968 -0.1400
   30MOL0     H 3999   3.065   5.606   5.959  3.7837 -0.4400  2.1290
   30MOL0     H 4000   2.957   5.483   5.894 -1.4073  1.1343  0.9271
   30MOL0     H 4001   3.105   5.224   5.869 -4.1022  0.1463  1.0645
   30MOL0     H 4002   3.187   5.075   6.175  4.0056 -0.8005  2.9888
   30MOL0     H 4003   3.230   5.040   6.001 -4.3532 -1.9394  1.6442
   30MOL0     H 4004   3.449   5.078   6.035 -1.7543  0.0655 -1.2163
   30MOL0     H 4005   3.440   5.182   6.182  1.2036 -0.5748  1.0207
   30MOL0     H 4006   3.520   4.928   6.214  0.1327 -0.6758  0.9494
   30MOL0     H 4007   3.343   4.897   6.179 -1.3801  0.2637  2.8869
   30MOL0     H 4008   3.338   4.898   6.409 -0.0599  0.8633  0.1413
   30MOL0     H 4009   3.307   5.069   6.380  1.3855  1.0597 -0.7558
   30MOL0     H 4010   3.733   5.059   6.528 -1.4405 -0.7877  1.0400
   30MOL0     H 4011   3.821   5.272   6.605  0.3454 -0.2596  0.2207
   30MOL0     H 4012   3.844   5.762   6.575  0.2820  1.7310  0.4133
   30MOL0     H 4013   4.020   5.901   6.669 -1.1498  0.3448  2.4959
   30MOL0     H 4014   4.272   5.744   6.993  0.1754 -1.4374 -0.0995
   30MOL0     H 4015   4.364   5.724   6.837 -1.0889 -0.6410  0.8138
   30MOL0     H 4016   4.413   5.985   6.874  1.5032 -1.4565 -1.1750
   30MOL0     H 4017   4.340   5.947   7.027 -2.0142 -1.7378 -1.0764
   30MOL0     H 4018   4.519   5.777   7.067  0.6288 -0.6953 -0.5186
   30MOL0     H 4019   4.580   5.801   6.908 -0.4557  0.3699 -0.5342
   30MOL0     H 4020   4.599   5.997   7.142  1.6270  1.8889  0.0908
   30MOL0     H 4021   4.636   6.056   6.997 -1.0940  1.2399  0.6949
   30MOL0     H 4022   4.837   5.878   6.978 -0.2090 -2.0916  0.7971
   30MOL0     H 4023   4.789   5.822   7.135  0.3880  1.1170  2.1954
   30MOL0     H 4024   4.855   6.117   7.073  1.2199  0.5570  0.9504
   30MOL0     H 4025   4.832   6.047   7.239 -2.7398  1.7406 -1.9567
   30MOL0     H 4026   5.014   5.878   7.177  2.9643  0.5734  1.9666
   30MOL0     H 4027   5.065   6.041   7.230  1.2171 -0.6276 -0.6418
   30MOL0     H 4028   5.195   5.940   7.020 -0.2540  0.8195  0.4229
   30MOL0     H 4029   5.044   5.953   6.945  0.0996  2.1715 -1.1087
   30MOL0     H 4030   4.165   5.567   6.903  0.1099  3.7152  2.0160
   30MOL0     H 4031   3.971   5.442   6.828 -0.7905  0.8582  0.7507
   30MOL0     H 4032   3.465   5.477   6.468 -0.5401  0.8506 -0.7636
   30MOL0     H 4033   3.366   5.250   6.410  0.6936 -3.4148  0.6530
   30MOL0     H 4034   4.097   5.500   5.779  1.8289 -0.0640  0.2245
   30MOL0     H 4035   4.313   5.521   5.872 -0.0743  1.5337  1.7149
   30MOL0     H 4036   4.610   5.964   5.905  3.8464 -1.4710 -1.4934
   30MOL0     H 4037   4.825   6.050   5.986 -2.7775  1.0295 -0.2645
   30MOL0     H 4038   4.879   6.113   6.253  0.4016  2.8870 -0.5035
   30MOL0     H 4039   4.971   6.150   6.125 -3.2245  2.6021  2.5395
   30MOL0     H 4040   5.083   6.050   6.391  1.7294  1.1470  1.3669
   30MOL0     H 4041   5.088   6.211   6.327  0.5752 -1.6278  2.6018
   30MOL0     H 4042   5.236   5.966   6.199  2.4913  0.0740 -1.4680
   30MOL0     H 4043   5.318   6.085   6.298 -0.5325 -0.0315  0.7111
   30MOL0     H 4044   5.164   6.161   6.049  1.2124  1.8175 -2.4243
   30MOL0     H 4045   5.253   6.276   6.154  2.1035  0.6701 -2.3339
   30MOL0     H 4046   5.551   6.097   5.909  0.5926  0.9720  1.6106
   30MOL0     H 4047   4.812   5.769   6.304 -1.5710 -0.9832  1.0972
   30MOL0     H 4048   4.574   5.571   6.137 -2.8710  1.2813  1.0667
   30MOL0     H 4049   4.676   5.568   6.278  0.9523 -0.9574 -0.9176
   30MOL0     H 4050   4.508   5.648   6.272 -1.4812 -1.8216 -2.6343
   31MOL0     O 4051  10.656  10.873   3.330  0.1815 -0.5226 -0.7940
   31MOL0     C 4052  10.737  10.792   3.373  0.9971  0.0987  0.3158
   31MOL0     O 4053  10.706  10.683   3.454  0.0917 -0.4650  0.4729
   31MOL0     C 4054  10.583  10.694   3.517 -0.1197 -0.1137 -0.6537
   31MOL0     C 4055  10.474  10.644   3.443 -0.5387 -0.1258 -0.5982
   31MOL0     C 4056  10.335  10.644   3.484 -0.0097 -0.5339 -0.4053
   31MOL0     C 4057  10.315  10.713   3.607  1.2694  0.3235  0.2610
   31MOL0     O 4058  10.192  10.738   3.660  0.7349 -0.6161 -0.8804
   31MOL0     C 4059  10.082  10.639   3.664 -0.1737  0.1207  0.2172
   31MOL0     C 4060   9.963  10.691   3.736  0.8993  0.0709  0.7218
   31MOL0     C 4061   9.931  10.833   3.682 -0.7930  1.5410  0.4697
   31MOL0     C 4062   9.799  10.889   3.721  0.5576  0.4632  0.7510
   31MOL0     C 4063   9.752  11.000   3.629 -0.0877 -0.8368  0.3569
   31MOL0     C 4064   9.842  11.120   3.620 -0.7680 -0.0908 -0.0723
   31MOL0     C 4065   9.800  11.217   3.509 -1.0571 -0.3952 -0.1824
   31MOL0     C 4066   9.890  11.197   3.377  0.6176  0.4850 -0.2315
   31MOL0     N 4067   9.892  11.058   3.321  0.1578  0.3450 -0.2911
   31MOL0     C 4068   9.990  10.971   3.349 -0.0145 -0.1720  0.0517
   31MOL0     C 4069   9.959  10.853   3.292 -0.1421  0.4234  0.4491
   31MOL0     C 4070  10.043  10.729   3.299 -0.8991  0.2852  0.1374
   31MOL0     C 4071  10.044  10.649   3.164  1.3125 -0.1441  0.3780
   31MOL0     C 4072  10.125  10.517   3.175 -0.1488 -0.3056  0.4485
   31MOL0     C 4073  10.153  10.455   3.036 -0.4138  0.1203  0.2595
   31MOL0     O 4074  10.255  10.354   3.028 -0.3228 -0.3101  0.3234
   31MOL0     C 4075  10.368  10.376   2.943 -0.1474 -0.5682 -0.3996
   31MOL0     C 4076  10.359  10.383   2.810  1.0663  0.1100  0.6850
   31MOL0     C 4077  10.478  10.387   2.740  0.0061 -0.8683  0.0164
   31MOL0     C 4078  10.611  10.383   2.799  0.7228 -0.1488 -0.3784
   31MOL0     C 4079  10.735  10.412   2.729  0.0758  0.4372  0.5854
   31MOL0     O 4080  10.857  10.413   2.800 -0.2262  0.0469 -0.0427
   31MOL0     C 4081  10.976  10.417   2.719 -0.0696  0.9118 -0.4550
   31MOL0     C 4082  10.998  10.333   2.614 -0.8916  0.2226 -0.4127
   31MOL0     C 4083  11.119  10.346   2.541 -0.9104 -0.6961 -0.0260
   31MOL0     C 4084  11.222  10.438   2.588  0.4971 -0.4087 -1.1715
   31MOL0     O 4085  11.346  10.428   2.537 -0.3398 -0.3176  0.0437
   31MOL0     C 4086  11.431  10.541   2.530  0.5238 -0.7091  0.5064
   31MOL0     C 4087  11.546  10.526   2.434 -0.3283 -0.9742  0.0418
   31MOL0     C 4088  11.493  10.485   2.297 -0.0644 -0.7044 -0.5669
   31MOL0     C 4089  11.606  10.508   2.195 -0.0774  1.1964 -1.0063
   31MOL0     C 4090  11.565  10.488   2.046  0.1317 -0.8840 -0.1790
   31MOL0     C 4091  11.537  10.341   2.012  0.3619 -0.4601 -0.4541
   31MOL0     C 4092  11.653  10.247   2.025 -0.7143 -1.1210  0.9027
   31MOL0     C 4093  11.610  10.111   1.964 -0.3060  0.4524  0.2078
   31MOL0    Cl 4094  11.722   9.982   2.001 -0.1585  0.4441 -0.2739
   31MOL0     C 4095  11.198  10.509   2.708 -0.5677  0.0848 -0.1325
   31MOL0     C 4096  11.075  10.496   2.773  0.0763  0.7623  0.0995
   31MOL0     O 4097  10.725  10.421   2.602 -0.5965  0.2146  0.3341
   31MOL0     C 4098  10.614  10.350   2.938 -0.8911 -0.2743  0.5237
   31MOL0     C 4099  10.494  10.357   3.005  0.3950 -1.6634 -0.1507
   31MOL0     N 4100   9.840  10.865   3.238  0.5970  0.2809  0.4875
   31MOL0     N 4101   9.801  10.986   3.259  0.3134  0.2720  0.6094
   31MOL0     C 4102  10.419  10.769   3.679  0.2340  0.7037  0.5830
   31MOL0     C 4103  10.553  10.757   3.638 -0.8407 -0.6748 -0.0461
   31MOL0     C 4104  10.877  10.824   3.353  0.1456 -1.3372 -0.3523
   31MOL0     C 4105  10.952  10.868   3.472 -0.5467  0.1385 -0.4357
   31MOL0     C 4106  11.080  10.896   3.448  0.6540 -0.2501 -0.3723
   31MOL0     C 4107  11.149  10.872   3.328  0.3476  0.0931  0.2356
   31MOL0     O 4108  11.289  10.897   3.326  0.0399  0.1745 -0.3338
   31MOL0     C 4109  11.357  10.802   3.242  0.2700  0.0623 -0.0142
   31MOL0     C 4110  11.453  10.731   3.342  0.8773 -0.2482  1.0217
   31MOL0     C 4111  11.389  10.657   3.461  0.3554  0.1682 -0.3289
   31MOL0     C 4112  11.275  10.566   3.431 -0.3029  0.1769 -0.2584
   31MOL0     C 4113  11.202  10.527   3.557  0.9321  1.0826  0.1810
   31MOL0     C 4114  11.124  10.507   3.650  0.3245  1.1074  0.2289
   31MOL0     C 4115  11.066  10.849   3.214 -0.5175 -0.3719 -0.9288
   31MOL0     C 4116  10.932  10.830   3.221  0.5255 -0.0961 -0.1160
   31MOL0     C 4117  10.849  10.809   3.098  0.5120 -0.4723  0.2515
   31MOL0     H 4118  10.493  10.576   3.361 -2.5517 -2.7980  0.9990
   31MOL0     H 4119  10.264  10.595   3.418  0.4289  1.4839 -2.5139
   31MOL0     H 4120  10.052  10.606   3.564  1.1189 -0.4915  0.0149
   31MOL0     H 4121  10.126  10.549   3.709 -1.6003  0.0815  1.6203
   31MOL0     H 4122   9.966  10.696   3.845  0.4903  2.4825  0.6825
   31MOL0     H 4123   9.880  10.620   3.729  0.2543 -0.1157  6.0703
   31MOL0     H 4124   9.939  10.821   3.573 -2.6531 -1.2189  0.5510
   31MOL0     H 4125  10.008  10.902   3.717 -0.8794  2.1395 -0.4757
   31MOL0     H 4126   9.719  10.816   3.717  1.1281 -0.1466 -3.3817
   31MOL0     H 4127   9.802  10.904   3.829 -1.8727 -0.7947  1.0426
   31MOL0     H 4128   9.747  10.954   3.530  1.4474  2.4092 -1.3658
   31MOL0     H 4129   9.651  11.021   3.664 -0.3384 -2.6437  0.8483
   31MOL0     H 4130   9.838  11.172   3.716 -1.3609 -2.4484  1.2640
   31MOL0     H 4131   9.945  11.089   3.596 -1.3692 -2.6302  0.3270
   31MOL0     H 4132   9.836  11.315   3.544  1.6695 -0.6673 -1.8859
   31MOL0     H 4133   9.694  11.209   3.483 -1.2945 -4.0945  1.4043
   31MOL0     H 4134   9.846  11.255   3.295  1.5840 -0.7541 -1.6873
   31MOL0     H 4135   9.994  11.231   3.383  0.5457  0.4082  3.7882
   31MOL0     H 4136  10.074  10.987   3.415 -0.6870  0.3780  0.8000
   31MOL0     H 4137  10.140  10.766   3.333 -1.7206  2.0920  0.6718
   31MOL0     H 4138   9.998  10.671   3.379  0.5146 -0.6912  0.2515
   31MOL0     H 4139   9.944  10.609   3.148  1.7454 -1.7031  1.2766
   31MOL0     H 4140  10.077  10.716   3.084 -0.4887 -1.2985 -1.4258
   31MOL0     H 4141  10.067  10.449   3.238  1.5325 -1.5029  0.7574
   31MOL0     H 4142  10.216  10.532   3.234 -0.0967 -2.5354  1.0140
   31MOL0     H 4143  10.154  10.528   2.954  0.4763 -0.0783  0.0863
   31MOL0     H 4144  10.063  10.398   3.014 -1.2044  1.1662  0.7025
   31MOL0     H 4145  10.265  10.396   2.759  1.9622  3.1100 -0.4673
   31MOL0     H 4146  10.471  10.394   2.632  1.6696  0.8844 -0.0393
   31MOL0     H 4147  10.929  10.254   2.588 -0.1426 -0.1129 -1.4692
   31MOL0     H 4148  11.121  10.294   2.446 -3.5189 -0.6650 -0.1784
   31MOL0     H 4149  11.367  10.626   2.505  1.6569  0.3617  1.1131
   31MOL0     H 4150  11.476  10.559   2.628  0.3430  0.0505  0.4587
   31MOL0     H 4151  11.612  10.613   2.442 -1.3886 -0.2096  0.6699
   31MOL0     H 4152  11.610  10.443   2.467 -2.5487 -2.3187  1.2119
   31MOL0     H 4153  11.461  10.381   2.307 -1.5125 -0.0866  1.9810
   31MOL0     H 4154  11.410  10.544   2.258  0.2562  0.0421 -0.1530
   31MOL0     H 4155  11.686  10.438   2.223 -1.0921  0.8964  1.3332
   31MOL0     H 4156  11.649  10.607   2.210 -1.4767  1.3808  3.2816
   31MOL0     H 4157  11.642  10.526   1.978 -1.7822 -2.1628 -3.2514
   31MOL0     H 4158  11.479  10.552   2.024  1.9850  0.8373 -3.0867
   31MOL0     H 4159  11.460  10.298   2.077  0.6553  1.2532  1.1146
   31MOL0     H 4160  11.500  10.338   1.909 -0.4085  2.9945 -0.3862
   31MOL0     H 4161  11.670  10.231   2.132  1.0829  3.7424  1.6139
   31MOL0     H 4162  11.744  10.290   1.981 -0.1051 -1.5032  1.7442
   31MOL0     H 4163  11.507  10.079   1.982 -0.9644  0.2678 -3.2444
   31MOL0     H 4164  11.594  10.110   1.856  0.0566 -0.2861  0.1573
   31MOL0     H 4165  11.261  10.592   2.737  1.2174 -0.6038 -1.8059
   31MOL0     H 4166  11.048  10.571   2.847 -1.3072  0.2045  0.1962
   31MOL0     H 4167  10.707  10.343   2.995 -0.6052  0.9114  0.2208
   31MOL0     H 4168  10.503  10.347   3.113 -0.6433  0.1118  0.1319
   31MOL0     H 4169  10.407  10.828   3.770 -1.9015 -1.6805  2.0182
   31MOL0     H 4170  10.632  10.808   3.692 -0.4383 -2.2783  0.9455
   31MOL0     H 4171  10.923  10.876   3.576  0.4898 -0.5066 -0.0765
   31MOL0     H 4172  11.133  10.915   3.541 -0.5986  1.2877  0.0671
   31MOL0     H 4173  11.415  10.851   3.163 -0.4007 -2.3698 -2.1529
   31MOL0     H 4174  11.288  10.725   3.206 -3.9696  2.9533  1.2358
   31MOL0     H 4175  11.515  10.807   3.391  0.6792 -0.0288  0.9344
   31MOL0     H 4176  11.508  10.668   3.271 -2.9707 -1.7122 -0.9367
   31MOL0     H 4177  11.355  10.747   3.514  5.2248  2.5546 -0.6375
   31MOL0     H 4178  11.458  10.606   3.528 -1.7102 -1.6255  0.5186
   31MOL0     H 4179  11.202  10.615   3.365  1.9996  2.3872 -1.3619
   31MOL0     H 4180  11.296  10.473   3.377 -2.4629 -1.3570  1.4190
   31MOL0     H 4181  11.059  10.483   3.732 -1.5581  2.1323 -0.8831
   31MOL0     H 4182  11.103  10.821   3.116  1.6524 -0.0297 -0.2430
   31MOL0     H 4183  10.888  10.747   3.017 -1.8612 -2.5389  0.5609
   31MOL0     H 4184  10.766  10.746   3.131  0.3242 -0.5815 -0.4071
   31MOL0     H 4185  10.817  10.913   3.082  2.3265  0.0583 -0.1487
   32MOL0     O 4186   9.681   6.995   4.889 -0.8832 -0.5403  0.4461
   32MOL0     C 4187   9.792   6.942   4.903 -0.4544  0.1761  0.7652
   32MOL0     O 4188   9.909   6.990   4.849  0.0174 -0.1913  0.4222
   32MOL0     C 4189   9.908   7.054   4.731  0.0602  0.4590  0.8661
   32MOL0     C 4190   9.850   6.990   4.622 -0.9537 -0.4995  0.4584
   32MOL0     C 4191   9.887   7.032   4.490  0.2010 -0.5238  0.4770
   32MOL0     C 4192   9.971   7.143   4.476 -0.5608 -0.7554 -0.2306
   32MOL0     O 4193  10.007   7.196   4.353 -0.1143  0.0211  0.0797
   32MOL0     C 4194   9.908   7.284   4.305  0.8714 -0.9113  1.0867
   32MOL0     C 4195   9.893   7.279   4.154  0.3409 -0.6520  0.3116
   32MOL0     C 4196   9.806   7.157   4.116 -0.9123 -0.5884 -0.6734
   32MOL0     C 4197   9.829   7.129   3.967  0.2748 -0.3803  0.3741
   32MOL0     C 4198   9.791   6.981   3.933 -0.3822  0.0313  0.0868
   32MOL0     C 4199   9.748   6.950   3.791 -0.1786  0.2331 -0.2152
   32MOL0     C 4200   9.609   7.007   3.766 -0.0956  0.5053  0.5965
   32MOL0     C 4201   9.586   7.020   3.621  0.4429  0.3889 -0.2046
   32MOL0     N 4202   9.543   6.886   3.581 -0.6551 -0.0887  0.3595
   32MOL0     C 4203   9.417   6.835   3.564 -0.0461  0.6499 -0.7461
   32MOL0     C 4204   9.440   6.707   3.542 -0.5288  0.7855 -0.6185
   32MOL0     C 4205   9.319   6.613   3.529 -0.7724  0.0194 -0.8628
   32MOL0     C 4206   9.234   6.640   3.404  0.2682  0.7313  0.3700
   32MOL0     C 4207   9.310   6.589   3.287  0.3765  0.3888  1.2443
   32MOL0     C 4208   9.225   6.602   3.166 -0.4447 -0.5638 -0.0829
   32MOL0     O 4209   9.275   6.520   3.059 -0.4124  0.7928 -0.9601
   32MOL0     C 4210   9.187   6.492   2.960  0.0980  0.9040  0.6480
   32MOL0     C 4211   9.167   6.586   2.861 -1.2672  0.3879 -0.1180
   32MOL0     C 4212   9.081   6.565   2.755  0.8301  0.0135 -0.4279
   32MOL0     C 4213   9.006   6.448   2.745 -0.2724 -0.4705 -0.0881
   32MOL0     C 4214   8.902   6.422   2.648  0.0544 -0.3934 -0.0519
   32MOL0     O 4215   8.818   6.522   2.605  0.0977  0.4935 -0.2896
   32MOL0     C 4216   8.736   6.492   2.495  0.7516 -0.7709 -0.4605
   32MOL0     C 4217   8.781   6.551   2.377  1.3391  0.5863 -0.0376
   32MOL0     C 4218   8.698   6.567   2.260 -0.4646  0.1578  0.0400
   32MOL0     C 4219   8.561   6.527   2.273  0.2605 -0.2396 -0.1016
   32MOL0     O 4220   8.472   6.535   2.163 -0.9522  1.3399 -0.7395
   32MOL0     C 4221   8.350   6.473   2.172  0.1939 -0.2680 -0.0982
   32MOL0     C 4222   8.256   6.505   2.057  0.1518 -0.4990  0.4671
   32MOL0     C 4223   8.202   6.646   2.072 -0.0154 -0.6713 -0.0158
   32MOL0     C 4224   8.130   6.699   1.944  0.7707 -1.1628  0.3632
   32MOL0     C 4225   8.084   6.838   1.969  1.1076  0.1587 -0.2187
   32MOL0     C 4226   7.964   6.862   1.874 -0.3292 -0.4453 -0.6352
   32MOL0     C 4227   8.016   6.893   1.726  0.3789  0.5373 -0.7922
   32MOL0     C 4228   7.931   6.999   1.669  0.5456  0.4498  0.2879
   32MOL0    Cl 4229   7.997   7.153   1.727 -0.0994  0.6845 -0.3339
   32MOL0     C 4230   8.523   6.456   2.392  0.5376 -0.3285  0.0810
   32MOL0     C 4231   8.604   6.439   2.503 -0.2063 -0.1581 -0.4820
   32MOL0     O 4232   8.887   6.303   2.619  0.2062  0.6366 -0.5901
   32MOL0     C 4233   9.031   6.349   2.841 -0.5444 -0.5478 -0.4253
   32MOL0     C 4234   9.127   6.368   2.939 -0.2298 -0.0171  0.0169
   32MOL0     N 4235   9.576   6.677   3.543 -0.1946  0.3139  0.7974
   32MOL0     N 4236   9.638   6.788   3.568  0.7044 -0.2717 -0.0271
   32MOL0     C 4237  10.033   7.199   4.592  0.3277 -0.0171 -0.7853
   32MOL0     C 4238   9.994   7.159   4.722  0.4425  0.6368 -0.8392
   32MOL0     C 4239   9.783   6.840   5.006  0.2043 -0.6111  0.1889
   32MOL0     C 4240   9.687   6.733   4.991  0.8670 -0.0612 -0.6752
   32MOL0     C 4241   9.688   6.633   5.086 -0.0043  0.8606 -1.2533
   32MOL0     C 4242   9.769   6.641   5.201 -0.2139 -0.5245  0.3322
   32MOL0     O 4243   9.768   6.550   5.310 -0.8078  0.5915 -0.8187
   32MOL0     C 4244   9.651   6.483   5.349 -1.1612 -0.2423 -0.5136
   32MOL0     C 4245   9.585   6.549   5.476 -0.0525 -0.0550  0.8268
   32MOL0     C 4246   9.450   6.487   5.497 -0.4726 -0.0522  0.3328
   32MOL0     C 4247   9.378   6.565   5.604  0.6082  0.5397 -0.3888
   32MOL0     C 4248   9.235   6.519   5.614  0.4074 -0.1154 -0.5147
   32MOL0     C 4249   9.119   6.500   5.589  0.3136 -0.3778  0.2668
   32MOL0     C 4250   9.862   6.742   5.212 -0.0280  0.1146 -0.1609
   32MOL0     C 4251   9.867   6.842   5.117  0.1604 -0.7574 -0.0853
   32MOL0     C 4252   9.972   6.948   5.134  0.7560 -0.6979 -0.3960
   32MOL0     H 4253   9.780   6.911   4.646  1.1601 -1.3936  4.6197
   32MOL0     H 4254   9.834   6.991   4.404  1.7409  2.6067 -2.1762
   32MOL0     H 4255   9.810   7.267   4.350  0.6594  0.2123  1.0813
   32MOL0     H 4256   9.931   7.385   4.340 -2.0312  0.1588  0.1979
   32MOL0     H 4257   9.989   7.276   4.103  1.2266  3.0493  1.4744
   32MOL0     H 4258   9.846   7.374   4.125  0.0153 -1.0620 -0.5319
   32MOL0     H 4259   9.700   7.182   4.124 -0.9538 -0.9731  0.0797
   32MOL0     H 4260   9.821   7.070   4.180 -1.9251  0.5588  1.2634
   32MOL0     H 4261   9.757   7.197   3.920 -0.0492  1.3850  3.2046
   32MOL0     H 4262   9.929   7.145   3.925 -0.6412  0.2212 -1.7279
   32MOL0     H 4263   9.876   6.914   3.946 -1.4132 -0.9701  2.1523
   32MOL0     H 4264   9.710   6.953   4.002 -0.6111  2.4146  0.9017
   32MOL0     H 4265   9.825   7.001   3.732  0.8825 -0.7602  0.2540
   32MOL0     H 4266   9.757   6.843   3.767 -0.4027 -0.2706  1.7756
   32MOL0     H 4267   9.606   7.106   3.811  3.3585 -0.5722  3.6665
   32MOL0     H 4268   9.537   6.955   3.830  1.2152 -1.9586  0.2340
   32MOL0     H 4269   9.505   7.087   3.592 -0.4638 -0.3514  0.5565
   32MOL0     H 4270   9.681   7.039   3.569  1.5147 -1.5354  0.8880
   32MOL0     H 4271   9.323   6.889   3.560 -0.1255  0.4691 -1.4439
   32MOL0     H 4272   9.354   6.510   3.516  0.9781  0.3524  0.8715
   32MOL0     H 4273   9.259   6.620   3.620 -0.0196  2.2726 -0.4705
   32MOL0     H 4274   9.143   6.585   3.427  1.8010 -2.7351 -1.1836
   32MOL0     H 4275   9.209   6.747   3.406  0.0224  0.8169 -2.9785
   32MOL0     H 4276   9.335   6.484   3.305  2.2210  0.5906  0.1144
   32MOL0     H 4277   9.402   6.648   3.276  1.6380 -1.7800 -0.5659
   32MOL0     H 4278   9.231   6.710   3.149  2.5147 -0.4630  1.0602
   32MOL0     H 4279   9.120   6.595   3.196  0.0458 -0.5646  1.7427
   32MOL0     H 4280   9.224   6.678   2.866 -1.2576  0.3211  1.6319
   32MOL0     H 4281   9.050   6.629   2.673  0.5529  0.6120  0.1285
   32MOL0     H 4282   8.880   6.594   2.361 -0.0780  3.2116 -2.8051
   32MOL0     H 4283   8.739   6.621   2.176  2.9580 -2.4648 -0.1729
   32MOL0     H 4284   8.360   6.364   2.170  2.6896 -0.0784 -0.0283
   32MOL0     H 4285   8.299   6.512   2.261 -1.4125  0.7756 -1.4110
   32MOL0     H 4286   8.312   6.494   1.964 -0.0812  3.1276 -0.2636
   32MOL0     H 4287   8.167   6.441   2.055 -1.4374  1.6137 -0.8745
   32MOL0     H 4288   8.125   6.647   2.150 -1.3046  1.5197 -1.2017
   32MOL0     H 4289   8.271   6.724   2.106  1.0472 -1.3700 -0.5241
   32MOL0     H 4290   8.046   6.632   1.922  1.4317 -1.4562 -1.3926
   32MOL0     H 4291   8.208   6.696   1.867  0.4181  1.2792 -0.1481
   32MOL0     H 4292   8.170   6.903   1.953  1.7103 -0.3137  0.9634
   32MOL0     H 4293   8.040   6.860   2.067 -2.5245  2.1611 -2.0925
   32MOL0     H 4294   7.900   6.774   1.879  0.1070 -0.6803  1.6632
   32MOL0     H 4295   7.905   6.947   1.910  2.7127  1.1351  1.0043
   32MOL0     H 4296   8.007   6.804   1.663 -1.6110 -0.5635  0.9207
   32MOL0     H 4297   8.124   6.907   1.724  0.8113 -1.9435 -4.3068
   32MOL0     H 4298   7.939   6.992   1.560 -0.3713 -3.7651  0.3196
   32MOL0     H 4299   7.826   6.994   1.700  0.2085  2.5522 -0.3811
   32MOL0     H 4300   8.426   6.409   2.402  1.3184 -1.6425  2.0288
   32MOL0     H 4301   8.592   6.383   2.595 -0.5104  0.8642  0.1183
   32MOL0     H 4302   8.985   6.250   2.841  3.9512 -2.9200 -1.7614
   32MOL0     H 4303   9.137   6.290   3.014  0.4146 -1.2049 -1.2795
   32MOL0     H 4304  10.086   7.291   4.572 -1.4061  1.5706  1.3480
   32MOL0     H 4305  10.037   7.202   4.811 -1.8993  0.0856  0.6414
   32MOL0     H 4306   9.622   6.743   4.905  0.3202  4.2227  0.0144
   32MOL0     H 4307   9.627   6.544   5.076 -0.2497  0.3525  2.8605
   32MOL0     H 4308   9.689   6.389   5.391  3.2095  1.4605 -0.2039
   32MOL0     H 4309   9.577   6.479   5.269  0.7123 -1.0778 -2.2827
   32MOL0     H 4310   9.591   6.657   5.460 -1.6518  0.1855  1.7103
   32MOL0     H 4311   9.646   6.534   5.565  0.6346 -0.0430  0.3692
   32MOL0     H 4312   9.462   6.382   5.523 -1.6638 -1.0565 -2.6857
   32MOL0     H 4313   9.389   6.506   5.408  0.2479 -0.2632 -0.2104
   32MOL0     H 4314   9.422   6.535   5.700  0.1896 -2.6539 -1.1019
   32MOL0     H 4315   9.378   6.674   5.595 -2.3762  0.7630  1.0092
   32MOL0     H 4316   9.013   6.495   5.573  0.1261  0.1352  1.2623
   32MOL0     H 4317   9.921   6.739   5.304 -2.5265  0.7879  1.5716
   32MOL0     H 4318   9.928   7.047   5.117 -1.2934 -1.3125  0.9123
   32MOL0     H 4319   9.992   6.960   5.241 -5.3443  2.4549  0.9050
   32MOL0     H 4320  10.066   6.925   5.084  0.8772 -1.2469  0.0659
   33MOL0     O 4321  11.492   3.663   4.517  0.2678  0.4876 -0.1864
   33MOL0     C 4322  11.383   3.722   4.510 -1.0023  0.3021  0.4978
   33MOL0     O 4323  11.262   3.662   4.534 -0.3293 -0.2233 -0.2661
   33MOL0     C 4324  11.247   3.530   4.565  0.4531 -0.0613  0.7802
   33MOL0     C 4325  11.144   3.493   4.652 -0.4120 -0.1908 -0.5581
   33MOL0     C 4326  11.116   3.359   4.664 -0.3944  0.1892 -0.0764
   33MOL0     C 4327  11.186   3.260   4.594 -0.6123 -0.1172 -0.0991
   33MOL0     O 4328  11.181   3.122   4.602  0.2859 -0.7136 -0.3365
   33MOL0     C 4329  11.071   3.048   4.635  0.2476  0.4648 -0.3826
   33MOL0     C 4330  10.962   3.040   4.531  0.0049 -0.2175 -0.5549
   33MOL0     C 4331  10.845   2.957   4.579  0.1218  0.5226 -0.4812
   33MOL0     C 4332  10.737   3.033   4.664  1.1062 -0.6718  0.2127
   33MOL0     C 4333  10.596   2.956   4.676  0.7010 -0.3710 -1.0027
   33MOL0     C 4334  10.595   2.831   4.758 -0.4804 -0.2551  0.1709
   33MOL0     C 4335  10.618   2.856   4.914 -0.1050 -0.2722  0.0474
   33MOL0     C 4336  10.503   2.915   4.984 -0.9961 -0.0543  0.3269
   33MOL0     N 4337  10.400   2.814   4.985  0.2130 -0.5362  0.2827
   33MOL0     C 4338  10.294   2.801   4.897 -1.2697  0.5017 -0.2554
   33MOL0     C 4339  10.210   2.720   4.962  0.0090  1.6521 -0.2947
   33MOL0     C 4340  10.073   2.680   4.909 -0.1703  0.3526 -0.4126
   33MOL0     C 4341   9.961   2.657   5.015 -0.8249  1.0327 -0.3302
   33MOL0     C 4342   9.823   2.596   4.957  0.4800  0.1011  0.5918
   33MOL0     C 4343   9.735   2.563   5.083 -0.0987 -0.1529  1.0450
   33MOL0     O 4344   9.596   2.554   5.056  0.7808  0.0128 -0.2247
   33MOL0     C 4345   9.531   2.662   4.999  0.3051  0.2294  0.1524
   33MOL0     C 4346   9.450   2.638   4.884 -0.4524  0.6891  0.4187
   33MOL0     C 4347   9.368   2.733   4.823 -0.1820 -0.0982  0.5119
   33MOL0     C 4348   9.382   2.868   4.872  0.0193 -0.4742  0.9021
   33MOL0     C 4349   9.308   2.975   4.803 -0.0048  0.0406 -0.1250
   33MOL0     O 4350   9.294   2.958   4.669  0.3566  0.5670 -0.5743
   33MOL0     C 4351   9.226   3.044   4.599  0.1768  0.0707  1.2649
   33MOL0     C 4352   9.274   3.091   4.471  0.4961 -0.3560  0.0321
   33MOL0     C 4353   9.199   3.158   4.373 -0.0051 -0.6790 -0.9706
   33MOL0     C 4354   9.069   3.190   4.406 -0.9822 -0.1710 -0.9076
   33MOL0     O 4355   8.979   3.253   4.314  0.2669 -0.4110 -0.8069
   33MOL0     C 4356   9.041   3.331   4.207  0.4827 -0.0157 -0.1397
   33MOL0     C 4357   8.952   3.432   4.140  0.0772  0.6475  0.2987
   33MOL0     C 4358   9.024   3.514   4.019 -0.1804  0.1760  0.1773
   33MOL0     C 4359   9.111   3.419   3.946 -0.7626  0.4165  0.9188
   33MOL0     C 4360   9.174   3.482   3.817  0.7382  0.2186  0.7299
   33MOL0     C 4361   9.223   3.371   3.720 -0.7281 -0.6465  0.2312
   33MOL0     C 4362   9.122   3.309   3.634 -0.1748 -0.1275 -0.7076
   33MOL0     C 4363   9.152   3.187   3.536  0.1446  0.1079  0.3994
   33MOL0    Cl 4364   9.182   3.038   3.638  0.1852 -0.2038  0.2324
   33MOL0     C 4365   9.015   3.150   4.530 -0.1283  0.0763  0.6497
   33MOL0     C 4366   9.089   3.076   4.622  0.1939  0.0414 -1.6096
   33MOL0     O 4367   9.253   3.065   4.871 -0.7826  0.3711  0.1929
   33MOL0     C 4368   9.447   2.891   4.989 -0.5031 -0.2975 -0.0645
   33MOL0     C 4369   9.528   2.790   5.048 -0.5670 -0.4973  0.5884
   33MOL0     N 4370  10.255   2.697   5.094  0.1214 -1.6532  0.5247
   33MOL0     N 4371  10.359   2.764   5.104 -0.1094 -0.3789  0.5293
   33MOL0     C 4372  11.293   3.300   4.516 -0.4333  0.3755 -0.3905
   33MOL0     C 4373  11.310   3.435   4.490 -0.8362  0.5760  0.1980
   33MOL0     C 4374  11.393   3.862   4.454 -0.3910 -0.3103 -0.0336
   33MOL0     C 4375  11.516   3.909   4.404 -0.5070  0.0170  1.0533
   33MOL0     C 4376  11.532   4.024   4.328  0.1887 -0.8988  0.1148
   33MOL0     C 4377  11.425   4.110   4.317 -0.2334 -0.0196 -1.2332
   33MOL0     O 4378  11.448   4.223   4.239  0.3846  0.5810  0.2398
   33MOL0     C 4379  11.325   4.294   4.200 -0.2194  0.1936 -0.4850
   33MOL0     C 4380  11.341   4.403   4.094 -0.7429  0.4160  0.5042
   33MOL0     C 4381  11.400   4.334   3.970 -0.4614 -0.8750  0.3523
   33MOL0     C 4382  11.441   4.425   3.857 -0.5063  0.0157 -0.8022
   33MOL0     C 4383  11.555   4.511   3.885  0.0978 -0.1596 -0.7633
   33MOL0     C 4384  11.643   4.580   3.924  0.1825 -0.2137  0.2130
   33MOL0     C 4385  11.305   4.073   4.384 -0.5482 -0.2505  0.0240
   33MOL0     C 4386  11.290   3.948   4.442 -0.7436 -0.3379 -0.6791
   33MOL0     C 4387  11.154   3.912   4.485  0.1149 -0.0109  0.9041
   33MOL0     H 4388  11.100   3.583   4.694  2.7128  1.3248 -0.2628
   33MOL0     H 4389  11.015   3.345   4.701 -0.8453 -1.6080 -1.8418
   33MOL0     H 4390  11.105   2.945   4.642  1.7393  0.8934 -0.9119
   33MOL0     H 4391  11.023   3.070   4.731  0.0821  0.8543 -0.5496
   33MOL0     H 4392  11.001   3.022   4.431  3.4556  1.1751  0.3930
   33MOL0     H 4393  10.923   3.142   4.526  0.2285  0.0921  2.2993
   33MOL0     H 4394  10.877   2.873   4.642 -2.3263 -0.9680 -1.0885
   33MOL0     H 4395  10.807   2.918   4.484  2.0439  0.3815 -1.2486
   33MOL0     H 4396  10.775   3.059   4.762 -2.7531 -0.8504  1.9582
   33MOL0     H 4397  10.711   3.124   4.608 -4.3763 -2.6873 -1.2628
   33MOL0     H 4398  10.523   3.028   4.714  2.0793  1.9155 -2.4617
   33MOL0     H 4399  10.566   2.934   4.574 -0.2958  0.1955 -0.8433
   33MOL0     H 4400  10.507   2.770   4.738 -1.2987  0.0371  2.4929
   33MOL0     H 4401  10.689   2.781   4.733 -0.3685 -0.8355  1.6134
   33MOL0     H 4402  10.703   2.924   4.921 -0.9496  0.9054 -0.9099
   33MOL0     H 4403  10.650   2.757   4.949  2.9986  0.6117  0.0111
   33MOL0     H 4404  10.536   2.934   5.087  0.5204 -2.4413  0.3709
   33MOL0     H 4405  10.477   3.004   4.926  2.2274 -0.2819 -1.7448
   33MOL0     H 4406  10.285   2.838   4.795 -1.7041 -0.0654 -0.4244
   33MOL0     H 4407  10.045   2.757   4.836  0.2527  0.8673 -0.0443
   33MOL0     H 4408  10.078   2.579   4.866 -1.2734 -1.1870  2.7945
   33MOL0     H 4409   9.997   2.581   5.086 -3.5716  1.6528  1.8589
   33MOL0     H 4410   9.937   2.749   5.068 -0.3465  2.0272 -1.7828
   33MOL0     H 4411   9.821   2.504   4.898  0.5677  1.9260 -2.4865
   33MOL0     H 4412   9.776   2.667   4.888  0.0555 -1.9649 -1.3767
   33MOL0     H 4413   9.754   2.647   5.151  0.1546  1.5713 -1.0644
   33MOL0     H 4414   9.771   2.470   5.127  0.8040  0.5645  1.8792
   33MOL0     H 4415   9.432   2.535   4.853  0.5760  1.7881 -4.7721
   33MOL0     H 4416   9.300   2.689   4.751  0.3453 -0.7650  0.4130
   33MOL0     H 4417   9.369   3.054   4.435  0.2218 -1.8630  0.7704
   33MOL0     H 4418   9.244   3.218   4.295  0.6873  0.7976  0.5135
   33MOL0     H 4419   9.126   3.389   4.245 -2.0848  2.8181  1.7662
   33MOL0     H 4420   9.075   3.256   4.134  2.2607  0.0291  0.5960
   33MOL0     H 4421   8.868   3.376   4.097  0.6192  1.1746 -1.5573
   33MOL0     H 4422   8.937   3.517   4.207  0.9228  1.0713 -0.0355
   33MOL0     H 4423   8.959   3.572   3.953  0.5817  2.2510  1.1594
   33MOL0     H 4424   9.091   3.587   4.064  1.3438 -0.1197 -1.5141
   33MOL0     H 4425   9.044   3.340   3.914  1.4965 -0.5395 -1.7896
   33MOL0     H 4426   9.189   3.378   4.011  2.1526  2.2839 -1.1390
   33MOL0     H 4427   9.263   3.536   3.852  1.6542 -0.5967 -0.2685
   33MOL0     H 4428   9.107   3.552   3.767 -0.1041 -0.4089  0.9722
   33MOL0     H 4429   9.308   3.411   3.664  0.9184 -0.4049  2.7712
   33MOL0     H 4430   9.275   3.296   3.780  1.0857  0.6283  0.3259
   33MOL0     H 4431   9.077   3.389   3.574 -0.1032  0.4516 -0.0127
   33MOL0     H 4432   9.046   3.275   3.705  0.6176 -0.2787  0.0799
   33MOL0     H 4433   9.072   3.175   3.463 -0.0732 -0.0705  0.6682
   33MOL0     H 4434   9.241   3.203   3.475 -1.7202  0.5230 -2.3753
   33MOL0     H 4435   8.922   3.198   4.560  0.9013  0.9178  2.6545
   33MOL0     H 4436   9.027   3.049   4.707  0.9156 -1.2928 -1.4875
   33MOL0     H 4437   9.442   2.990   5.035  4.0088  0.7247 -1.2775
   33MOL0     H 4438   9.585   2.807   5.138  0.7654 -1.2219 -0.0825
   33MOL0     H 4439  11.359   3.228   4.469  0.7141  0.2479  1.3122
   33MOL0     H 4440  11.390   3.451   4.420  0.7623 -1.0615  1.5599
   33MOL0     H 4441  11.600   3.841   4.410 -1.9528 -1.9141  0.2959
   33MOL0     H 4442  11.626   4.068   4.296 -0.1560 -0.8034 -0.7947
   33MOL0     H 4443  11.287   4.331   4.296  1.6845 -0.0960  0.4524
   33MOL0     H 4444  11.248   4.226   4.164 -0.7578 -1.1352  2.7871
   33MOL0     H 4445  11.415   4.478   4.124  0.3239 -0.0275 -0.9251
   33MOL0     H 4446  11.241   4.444   4.081 -0.9758 -0.4906 -0.7180
   33MOL0     H 4447  11.331   4.262   3.925  0.6248 -2.6902  1.4940
   33MOL0     H 4448  11.487   4.276   4.001 -0.8757 -2.4803 -1.2706
   33MOL0     H 4449  11.472   4.359   3.775 -1.6953 -2.4217  0.5922
   33MOL0     H 4450  11.355   4.483   3.822 -0.1616  0.1018 -1.5395
   33MOL0     H 4451  11.721   4.637   3.970 -1.7866  0.8850  2.3797
   33MOL0     H 4452  11.212   4.128   4.374 -0.2002  0.4383  0.4988
   33MOL0     H 4453  11.072   3.979   4.456 -0.2066 -0.6186  0.3980
   33MOL0     H 4454  11.110   3.818   4.449 -2.9103  1.6012 -0.0267
   33MOL0     H 4455  11.159   3.907   4.594  1.2244  0.1767  0.8721
   34MOL0     O 4456   6.169   9.475   8.606  0.8875  0.0450  0.8133
   34MOL0     C 4457   6.192   9.427   8.497  0.2566 -0.0790 -0.4034
   34MOL0     O 4458   6.126   9.320   8.439  0.1440 -0.0162 -0.3278
   34MOL0     C 4459   6.075   9.225   8.524 -0.7172  0.5840 -0.1610
   34MOL0     C 4460   6.155   9.143   8.600 -0.2607 -1.2891  0.7505
   34MOL0     C 4461   6.093   9.040   8.679 -1.1524 -0.1168 -0.7458
   34MOL0     C 4462   5.957   9.025   8.685 -0.3246  0.2897  0.3379
   34MOL0     O 4463   5.897   8.925   8.759  0.5448 -0.7659 -0.3252
   34MOL0     C 4464   5.892   8.907   8.898 -1.0493  0.4253 -0.3416
   34MOL0     C 4465   5.834   9.019   8.983  0.9368  1.3410  0.8217
   34MOL0     C 4466   5.680   9.035   8.935 -0.2783 -0.0328 -0.2183
   34MOL0     C 4467   5.568   9.078   9.037 -0.9381  1.1043 -0.7013
   34MOL0     C 4468   5.434   9.081   8.966 -0.1936 -0.4001  0.0641
   34MOL0     C 4469   5.313   9.106   9.061 -0.4917 -0.1152  0.9237
   34MOL0     C 4470   5.181   9.109   8.991 -1.1559  0.4328 -0.4625
   34MOL0     C 4471   5.071   9.143   9.104 -0.4079  0.0881 -0.4630
   34MOL0     N 4472   5.079   9.279   9.155  0.0398  0.3262  0.2931
   34MOL0     C 4473   5.069   9.400   9.090 -1.3972 -0.2135  0.0650
   34MOL0     C 4474   5.093   9.494   9.176  0.0378 -0.0636  0.0739
   34MOL0     C 4475   5.098   9.642   9.145 -0.5660 -0.1433 -0.2071
   34MOL0     C 4476   4.976   9.730   9.154  0.1980 -0.4204 -0.2050
   34MOL0     C 4477   5.021   9.874   9.160 -0.2272 -0.2409  0.3736
   34MOL0     C 4478   4.905   9.978   9.162  0.8826  0.1075 -0.8972
   34MOL0     O 4479   4.825   9.960   9.038 -0.5118 -0.8092 -0.1556
   34MOL0     C 4480   4.719  10.047   9.027 -0.2660 -0.7131 -0.2229
   34MOL0     C 4481   4.611  10.051   9.113 -0.0819  0.8680 -0.2723
   34MOL0     C 4482   4.515  10.153   9.099 -1.4127  1.0709  0.1959
   34MOL0     C 4483   4.530  10.251   9.003 -0.7329  0.4577 -1.0243
   34MOL0     C 4484   4.437  10.371   9.004  0.2602  1.4495 -0.3249
   34MOL0     O 4485   4.481  10.477   8.933  0.6838  0.1402  0.8108
   34MOL0     C 4486   4.392  10.561   8.871  0.4223  0.6791 -0.6441
   34MOL0     C 4487   4.291  10.513   8.790 -0.0649  0.5728 -0.4226
   34MOL0     C 4488   4.216  10.602   8.712 -0.3656  0.8074  0.1049
   34MOL0     C 4489   4.229  10.738   8.726  0.8374 -0.6045  0.6673
   34MOL0     O 4490   4.164  10.824   8.633  0.3079  0.7879 -0.3879
   34MOL0     C 4491   4.018  10.817   8.650  0.4929 -0.0658  0.6576
   34MOL0     C 4492   3.929  10.887   8.537 -0.5467 -0.8678  1.5899
   34MOL0     C 4493   3.957  10.789   8.419 -0.4743 -0.0958  1.2779
   34MOL0     C 4494   3.849  10.790   8.316 -0.3397  0.2600  0.0927
   34MOL0     C 4495   3.809  10.927   8.251 -0.2740 -0.2746 -0.2544
   34MOL0     C 4496   3.676  10.919   8.177  0.6410 -0.4611 -0.0839
   34MOL0     C 4497   3.658  11.005   8.056 -0.4482 -0.7247 -0.7715
   34MOL0     C 4498   3.517  11.001   7.992 -0.5587  0.4833  0.9297
   34MOL0    Cl 4499   3.396  11.072   8.079 -0.6049 -0.1919 -0.4973
   34MOL0     C 4500   4.319  10.786   8.823 -0.9050 -0.9007 -0.0870
   34MOL0     C 4501   4.413  10.697   8.893  0.5807  0.4446  0.7279
   34MOL0     O 4502   4.331  10.365   9.075 -0.3126 -0.4324 -0.8516
   34MOL0     C 4503   4.643  10.262   8.922 -0.5103  0.1337  0.2111
   34MOL0     C 4504   4.741  10.150   8.927 -0.4649  0.2525 -0.4506
   34MOL0     N 4505   5.113   9.436   9.298 -0.5963  0.9077  0.7052
   34MOL0     N 4506   5.124   9.306   9.278  0.1908  0.5652  0.4674
   34MOL0     C 4507   5.878   9.114   8.611 -0.0552 -0.5809 -0.1077
   34MOL0     C 4508   5.935   9.211   8.528 -0.7192 -0.0662 -0.8484
   34MOL0     C 4509   6.296   9.495   8.428 -0.3460  1.8094  0.1036
   34MOL0     C 4510   6.280   9.548   8.295  0.5359  0.0400 -0.0916
   34MOL0     C 4511   6.387   9.606   8.220  0.8778 -0.4438 -0.2168
   34MOL0     C 4512   6.511   9.611   8.275  0.3310  0.3187  0.3642
   34MOL0     O 4513   6.630   9.654   8.223  1.0883 -0.6857  0.2043
   34MOL0     C 4514   6.625   9.720   8.099 -0.5784  0.0127  0.5670
   34MOL0     C 4515   6.764   9.753   8.043 -0.6232  0.8404  0.6358
   34MOL0     C 4516   6.831   9.641   7.968 -0.2048 -0.1088  0.0918
   34MOL0     C 4517   6.974   9.606   8.016 -0.2860 -0.7785  0.1958
   34MOL0     C 4518   7.026   9.485   7.960 -0.1941 -0.7297 -0.1450
   34MOL0     C 4519   7.059   9.374   7.921 -0.0768 -0.7204  0.8761
   34MOL0     C 4520   6.524   9.552   8.399 -0.3150 -0.5425 -0.6360
   34MOL0     C 4521   6.427   9.499   8.486 -0.7533  0.1954 -0.3448
   34MOL0     C 4522   6.473   9.440   8.619 -0.2159 -0.3942 -0.1611
   34MOL0     H 4523   6.263   9.150   8.602 -0.2700 -0.0884 -0.6337
   34MOL0     H 4524   6.156   8.960   8.715 -0.9333  1.7217  3.5514
   34MOL0     H 4525   5.823   8.822   8.898  0.8194 -1.1794  0.8369
   34MOL0     H 4526   5.992   8.884   8.936 -1.5038 -0.9551  0.0808
   34MOL0     H 4527   5.890   9.111   8.967  0.5442  1.2384 -1.3475
   34MOL0     H 4528   5.837   8.990   9.089 -2.8709  0.0802  0.7186
   34MOL0     H 4529   5.647   8.937   8.898 -3.0204  0.8731 -0.3767
   34MOL0     H 4530   5.686   9.102   8.849 -0.8745 -0.0174 -0.2509
   34MOL0     H 4531   5.578   9.020   9.129 -2.4789  1.9009  0.0062
   34MOL0     H 4532   5.590   9.177   9.078  1.3040 -0.3848  2.0162
   34MOL0     H 4533   5.417   9.157   8.888 -0.7084 -1.8767 -1.3310
   34MOL0     H 4534   5.412   8.982   8.923 -1.1816 -0.7449  1.3206
   34MOL0     H 4535   5.319   9.032   9.142  2.4497  0.8838  1.7640
   34MOL0     H 4536   5.327   9.208   9.099 -2.5170  1.7751 -2.8064
   34MOL0     H 4537   5.149   9.010   8.959 -0.7152  1.2872 -4.0227
   34MOL0     H 4538   5.188   9.182   8.909  3.8191  2.3699  1.2992
   34MOL0     H 4539   4.971   9.107   9.075 -0.5884 -0.0489  0.3120
   34MOL0     H 4540   5.092   9.072   9.184 -1.9879  1.4779  1.2910
   34MOL0     H 4541   5.039   9.415   8.987  1.2498 -6.4316 -2.0765
   34MOL0     H 4542   5.171   9.692   9.208 -1.1972  3.5053 -2.0761
   34MOL0     H 4543   5.127   9.650   9.040  3.1173 -0.6292  0.6587
   34MOL0     H 4544   4.910   9.712   9.068 -1.2940  3.2146  0.0105
   34MOL0     H 4545   4.936   9.704   9.252  0.8740 -0.0032  0.1898
   34MOL0     H 4546   5.087   9.895   9.075 -1.4340  0.8328 -0.3269
   34MOL0     H 4547   5.081   9.889   9.250  1.8020  1.6838 -1.1875
   34MOL0     H 4548   4.949  10.078   9.169  1.1148  0.0065 -0.8856
   34MOL0     H 4549   4.833   9.966   9.244 -0.4228  1.7458 -1.7428
   34MOL0     H 4550   4.593   9.971   9.184  4.2422 -0.4868 -0.4226
   34MOL0     H 4551   4.431  10.164   9.166 -0.8079  0.5446  1.0671
   34MOL0     H 4552   4.283  10.406   8.775 -0.2204  0.8801 -2.8037
   34MOL0     H 4553   4.155  10.557   8.635  0.5211  1.2584 -0.8868
   34MOL0     H 4554   3.990  10.713   8.664  3.0640 -0.6459  1.9769
   34MOL0     H 4555   3.997  10.873   8.742  1.7940  0.4253  0.6690
   34MOL0     H 4556   3.820  10.882   8.548 -0.8876 -1.6254 -1.3341
   34MOL0     H 4557   3.957  10.987   8.502  5.4147 -2.3273  1.1164
   34MOL0     H 4558   4.046  10.814   8.362  0.1080 -3.0287  0.7345
   34MOL0     H 4559   3.972  10.684   8.445  2.2093 -0.1494 -0.1676
   34MOL0     H 4560   3.769  10.739   8.370  0.9945  0.7463  2.6938
   34MOL0     H 4561   3.890  10.735   8.231 -2.7727  0.5254 -1.3668
   34MOL0     H 4562   3.883  10.944   8.172 -2.9531  0.6076 -2.7279
   34MOL0     H 4563   3.804  11.010   8.322  1.6627  1.0187 -1.5459
   34MOL0     H 4564   3.680  10.816   8.140  1.6836 -0.2447 -0.5979
   34MOL0     H 4565   3.596  10.931   8.251  0.8862  1.8710 -0.1023
   34MOL0     H 4566   3.736  10.982   7.983 -0.6385 -0.9670 -0.9014
   34MOL0     H 4567   3.668  11.106   8.097  1.5660 -0.7292 -1.1730
   34MOL0     H 4568   3.516  11.057   7.898 -0.7409  0.5946  0.9987
   34MOL0     H 4569   3.491  10.896   7.972  0.0790  0.8433 -2.3781
   34MOL0     H 4570   4.329  10.890   8.851  0.5246 -0.5264 -1.8165
   34MOL0     H 4571   4.482  10.725   8.971  2.2986  2.5778 -1.3774
   34MOL0     H 4572   4.669  10.340   8.851 -0.7804 -0.4181 -0.5123
   34MOL0     H 4573   4.826  10.161   8.861  0.3128  1.6431  0.7475
   34MOL0     H 4574   5.771   9.117   8.624 -0.1185 -2.1992 -0.0514
   34MOL0     H 4575   5.864   9.269   8.470 -0.4713  1.4505  0.3094
   34MOL0     H 4576   6.186   9.517   8.250  0.1057  0.1008  0.7524
   34MOL0     H 4577   6.372   9.628   8.115 -1.4780  1.9193  0.5027
   34MOL0     H 4578   6.573   9.815   8.116  0.8326  1.0936 -0.8724
   34MOL0     H 4579   6.556   9.666   8.034  0.9955 -0.1648 -0.9923
   34MOL0     H 4580   6.822   9.771   8.134 -1.4017 -1.8983  1.7456
   34MOL0     H 4581   6.773   9.851   7.993  0.4081  0.9742  1.0597
   34MOL0     H 4582   6.838   9.661   7.861  0.7562  1.6991  0.4476
   34MOL0     H 4583   6.757   9.562   7.982  0.3247 -0.6592 -0.1988
   34MOL0     H 4584   7.043   9.681   7.976  0.8519 -1.4317  0.8811
   34MOL0     H 4585   6.984   9.606   8.125  1.7149  0.9457  0.0864
   34MOL0     H 4586   7.079   9.273   7.892 -1.3457 -0.4875 -1.0153
   34MOL0     H 4587   6.623   9.560   8.444 -1.1467  4.5828  0.9622
   34MOL0     H 4588   6.528   9.345   8.615 -0.8925 -0.9455  2.1892
   34MOL0     H 4589   6.543   9.512   8.663  0.1677 -0.5204 -0.5491
   34MOL0     H 4590   6.388   9.428   8.686  0.3120 -1.4151  0.3376
   35MOL0     O 4591   7.068   5.587   7.023 -0.3309 -0.4102  0.5865
   35MOL0     C 4592   7.162   5.529   7.074  1.0802 -0.5416 -0.0559
   35MOL0     O 4593   7.157   5.480   7.201  0.1465  0.2220  0.0970
   35MOL0     C 4594   7.047   5.392   7.221 -0.1623 -0.7807 -0.6730
   35MOL0     C 4595   7.005   5.304   7.126 -0.3904 -0.1677  0.1484
   35MOL0     C 4596   6.909   5.209   7.152  1.1237  0.1822 -0.5068
   35MOL0     C 4597   6.856   5.199   7.281  0.6929 -0.5055  0.2378
   35MOL0     O 4598   6.769   5.106   7.318 -0.3513 -0.1904  0.2391
   35MOL0     C 4599   6.661   5.080   7.226 -1.0311 -0.0932  0.4817
   35MOL0     C 4600   6.522   5.054   7.296 -0.2098  0.4317  0.7659
   35MOL0     C 4601   6.404   5.022   7.201  0.4225 -0.3155  0.1132
   35MOL0     C 4602   6.411   4.887   7.127 -0.0326  0.3165 -0.0665
   35MOL0     C 4603   6.281   4.803   7.122 -0.3980  1.3804  0.4774
   35MOL0     C 4604   6.166   4.865   7.036  0.1841 -0.3895  0.0843
   35MOL0     C 4605   6.045   4.767   7.039  1.0816  0.8168 -0.1832
   35MOL0     C 4606   5.935   4.814   6.939 -0.7580  0.3640 -0.3845
   35MOL0     N 4607   5.816   4.733   6.964 -0.4720  0.6020  0.3614
   35MOL0     C 4608   5.728   4.692   6.869  0.4060  0.0088  1.2376
   35MOL0     C 4609   5.618   4.652   6.929 -0.6706  0.4151  0.5657
   35MOL0     C 4610   5.490   4.607   6.862  0.4074  0.6848  0.4951
   35MOL0     C 4611   5.506   4.463   6.821 -0.3131  0.0456  0.5866
   35MOL0     C 4612   5.371   4.394   6.819 -0.0876 -0.1752 -0.0384
   35MOL0     C 4613   5.382   4.252   6.773 -0.8741  0.4461 -0.0904
   35MOL0     O 4614   5.252   4.209   6.725  0.3715 -0.0330 -0.2265
   35MOL0     C 4615   5.236   4.082   6.690  0.4171 -0.5488  0.0529
   35MOL0     C 4616   5.108   4.050   6.648  0.6932  0.4807  0.5603
   35MOL0     C 4617   5.081   3.923   6.602  0.2107 -0.2384  0.3157
   35MOL0     C 4618   5.174   3.821   6.605  0.0752 -0.4309 -1.0878
   35MOL0     C 4619   5.163   3.694   6.547 -0.2269 -0.3596  0.0671
   35MOL0     O 4620   5.032   3.661   6.515  0.0393 -0.4078 -0.1321
   35MOL0     C 4621   5.004   3.528   6.468 -0.5711 -0.1392  0.9126
   35MOL0     C 4622   4.874   3.509   6.427 -0.0858  0.6504 -0.5462
   35MOL0     C 4623   4.823   3.378   6.392  0.0877 -0.1860 -0.9696
   35MOL0     C 4624   4.906   3.263   6.399  0.0592  0.3927  0.1350
   35MOL0     O 4625   4.853   3.135   6.372 -0.0463  0.2715 -0.0990
   35MOL0     C 4626   4.935   3.028   6.396 -0.1508  0.6017 -0.3844
   35MOL0     C 4627   4.859   2.902   6.360  0.0909  0.2817 -0.7925
   35MOL0     C 4628   4.820   2.881   6.217 -0.7571 -1.3553 -0.6914
   35MOL0     C 4629   4.759   2.745   6.188  0.6258  0.2618 -0.5348
   35MOL0     C 4630   4.712   2.721   6.044 -0.0995  0.2492 -0.5000
   35MOL0     C 4631   4.563   2.675   6.027  0.6911  0.0194 -0.3588
   35MOL0     C 4632   4.564   2.522   6.034  0.0625  0.0521  0.0065
   35MOL0     C 4633   4.417   2.479   5.997  0.2604 -0.8504 -0.5316
   35MOL0    Cl 4634   4.413   2.297   6.001  0.4033  0.1729 -0.0411
   35MOL0     C 4635   5.033   3.282   6.441 -0.2233 -0.5160 -1.1607
   35MOL0     C 4636   5.082   3.409   6.477 -0.6975 -0.3647 -0.6459
   35MOL0     O 4637   5.263   3.630   6.516  0.3668 -0.3200  0.4222
   35MOL0     C 4638   5.300   3.855   6.655  0.6470  0.2438 -0.6880
   35MOL0     C 4639   5.335   3.983   6.694 -0.3951 -0.0897  0.9233
   35MOL0     N 4640   5.646   4.655   7.062 -0.3850 -0.5573 -0.0011
   35MOL0     N 4641   5.767   4.704   7.086 -0.7421  0.1987  0.6919
   35MOL0     C 4642   6.909   5.277   7.381  0.0948 -0.4961  0.2102
   35MOL0     C 4643   7.003   5.374   7.353  0.5299  0.2472  0.5689
   35MOL0     C 4644   7.282   5.498   6.991 -0.1384  0.3302 -0.0858
   35MOL0     C 4645   7.383   5.421   7.049 -1.0881 -0.5977  0.8551
   35MOL0     C 4646   7.506   5.391   6.981  0.3822 -0.6085 -0.8273
   35MOL0     C 4647   7.529   5.434   6.852  0.2447 -0.6776 -0.8664
   35MOL0     O 4648   7.638   5.401   6.769  0.7510  0.5424 -0.7541
   35MOL0     C 4649   7.736   5.299   6.814 -0.7055 -1.4315  0.6854
   35MOL0     C 4650   7.807   5.267   6.688  0.2079 -0.0951  0.0765
   35MOL0     C 4651   7.726   5.180   6.586 -0.1078 -0.1487  1.2499
   35MOL0     C 4652   7.718   5.038   6.633  0.3532  0.5637 -0.3348
   35MOL0     C 4653   7.615   4.956   6.550  1.3949 -0.5950  0.2476
   35MOL0     C 4654   7.516   4.897   6.498 -0.5278 -0.0730  0.9768
   35MOL0     C 4655   7.428   5.502   6.793  0.4211  0.0352 -0.1776
   35MOL0     C 4656   7.304   5.540   6.856  0.0370 -0.9571 -0.7039
   35MOL0     C 4657   7.198   5.615   6.771  1.1643 -0.6399 -0.1249
   35MOL0     H 4658   7.065   5.300   7.036 -0.1988 -0.0809  0.2727
   35MOL0     H 4659   6.882   5.144   7.070 -3.6432 -0.0807  0.9451
   35MOL0     H 4660   6.635   5.164   7.161  0.5772  0.7341  0.8454
   35MOL0     H 4661   6.689   5.003   7.154 -0.8780  0.0292  0.4093
   35MOL0     H 4662   6.503   5.138   7.363 -0.7179  1.5587 -0.7487
   35MOL0     H 4663   6.533   4.965   7.359 -1.6876  0.8500  1.6522
   35MOL0     H 4664   6.400   5.104   7.129  0.3467  0.8940  1.4536
   35MOL0     H 4665   6.320   5.047   7.267  1.0271  1.3030  0.3277
   35MOL0     H 4666   6.452   4.909   7.028 -0.8840  2.2005 -0.0391
   35MOL0     H 4667   6.480   4.822   7.181 -0.8437  1.0605  1.9403
   35MOL0     H 4668   6.312   4.708   7.078  1.2244  1.0939  2.1202
   35MOL0     H 4669   6.239   4.791   7.222 -2.9031  5.1887  0.1155
   35MOL0     H 4670   6.121   4.956   7.077 -0.7542 -1.1197  0.7285
   35MOL0     H 4671   6.204   4.879   6.935 -2.2752 -0.2320 -0.8989
   35MOL0     H 4672   6.006   4.770   7.141  4.0750  3.6267  1.0796
   35MOL0     H 4673   6.066   4.662   7.017  0.7431  0.6267  0.3767
   35MOL0     H 4674   5.924   4.921   6.962 -0.3435  0.5793 -1.1471
   35MOL0     H 4675   5.952   4.803   6.832 -2.2885 -3.0354 -0.3897
   35MOL0     H 4676   5.739   4.675   6.762 -3.4900  0.1510  0.6633
   35MOL0     H 4677   5.411   4.607   6.938  0.1306  2.7062  0.2465
   35MOL0     H 4678   5.450   4.667   6.780  1.6767  2.3886  1.0624
   35MOL0     H 4679   5.552   4.457   6.722  1.8368  1.1457  1.4387
   35MOL0     H 4680   5.578   4.405   6.879  1.2461  0.6015 -0.7091
   35MOL0     H 4681   5.310   4.444   6.744  2.6227  0.5868 -1.8963
   35MOL0     H 4682   5.320   4.375   6.914  0.2740 -1.9513 -0.1697
   35MOL0     H 4683   5.409   4.179   6.850  1.6543  2.2903  0.8956
   35MOL0     H 4684   5.461   4.255   6.698  0.9030  1.7244  1.7428
   35MOL0     H 4685   5.020   4.113   6.652 -0.4434 -1.0978  1.7622
   35MOL0     H 4686   4.979   3.891   6.582 -0.3073 -0.7952  3.3575
   35MOL0     H 4687   4.809   3.596   6.433 -2.5890 -0.9359 -2.6992
   35MOL0     H 4688   4.718   3.360   6.373  0.1737  0.3700 -1.9985
   35MOL0     H 4689   5.026   3.029   6.336  0.6317 -1.9150  0.6064
   35MOL0     H 4690   4.972   3.025   6.499 -1.0414 -0.8461 -0.0726
   35MOL0     H 4691   4.914   2.817   6.400 -0.8420 -0.9934 -2.1338
   35MOL0     H 4692   4.770   2.910   6.423 -1.8688  2.1809 -3.5366
   35MOL0     H 4693   4.748   2.953   6.177  0.2850  0.2369  0.1857
   35MOL0     H 4694   4.916   2.891   6.166 -0.8954  0.7046 -0.6502
   35MOL0     H 4695   4.677   2.736   6.260 -0.6161 -2.6705 -2.0927
   35MOL0     H 4696   4.828   2.663   6.210 -1.8178 -2.0140 -0.7697
   35MOL0     H 4697   4.781   2.664   5.981  0.5946  0.1617  0.3249
   35MOL0     H 4698   4.700   2.818   5.997 -1.0620  0.3834 -0.0202
   35MOL0     H 4699   4.495   2.716   6.102  0.0232  0.3287 -1.1192
   35MOL0     H 4700   4.518   2.707   5.933 -2.0143 -2.3590 -0.0139
   35MOL0     H 4701   4.588   2.493   6.137 -3.0853  1.1800  1.1903
   35MOL0     H 4702   4.632   2.479   5.960 -0.2542  2.1076 -1.5505
   35MOL0     H 4703   4.342   2.520   6.064 -1.0870 -0.9072 -1.9438
   35MOL0     H 4704   4.394   2.522   5.899  1.6632  0.8083 -0.1852
   35MOL0     H 4705   5.098   3.196   6.452 -2.5466 -2.4400 -1.6395
   35MOL0     H 4706   5.184   3.410   6.512  0.3747 -1.9365 -3.4081
   35MOL0     H 4707   5.378   3.780   6.659 -1.0677 -1.7785 -2.3342
   35MOL0     H 4708   5.436   3.991   6.733  0.9801  1.4405 -2.6037
   35MOL0     H 4709   6.877   5.261   7.484  2.2142  2.1791  1.4141
   35MOL0     H 4710   7.031   5.435   7.438 -0.2816 -1.0087  1.7818
   35MOL0     H 4711   7.376   5.385   7.151  0.9817 -1.6328  0.6895
   35MOL0     H 4712   7.584   5.336   7.032  0.7715  0.1235 -0.6140
   35MOL0     H 4713   7.691   5.209   6.858 -1.4132 -1.0622  0.7240
   35MOL0     H 4714   7.805   5.335   6.891  1.1231 -4.0576  0.4241
   35MOL0     H 4715   7.897   5.211   6.716 -0.2952 -0.7449  0.3999
   35MOL0     H 4716   7.846   5.363   6.654  0.1174 -0.5190 -1.2811
   35MOL0     H 4717   7.774   5.181   6.488  2.1199 -2.3237  2.2102
   35MOL0     H 4718   7.626   5.224   6.591  0.1729  0.3941  2.7221
   35MOL0     H 4719   7.807   4.978   6.651 -0.7180 -0.3036  2.5248
   35MOL0     H 4720   7.671   5.036   6.731  0.0152 -0.2559 -0.5060
   35MOL0     H 4721   7.442   4.839   6.446  1.2547  0.1849 -2.1342
   35MOL0     H 4722   7.457   5.533   6.693 -0.3838  3.0722  0.4146
   35MOL0     H 4723   7.191   5.723   6.784 -0.0802 -0.6167 -0.8280
   35MOL0     H 4724   7.203   5.610   6.662  0.8052  1.1123 -0.2522
   35MOL0     H 4725   7.101   5.574   6.798 -1.3261  5.3163  1.4377
   36MOL0     O 4726   0.689   2.301   2.649  0.2260  0.0963  0.4989
   36MOL0     C 4727   0.635   2.275   2.751 -0.4062 -0.2620 -0.2167
   36MOL0     O 4728   0.560   2.353   2.827  0.3466 -0.3045  0.2248
   36MOL0     C 4729   0.532   2.486   2.803 -0.9208  0.2058  0.3474
   36MOL0     C 4730   0.499   2.523   2.675  1.0171  0.4758  0.3641
   36MOL0     C 4731   0.445   2.656   2.646  0.0328 -0.9358  0.4467
   36MOL0     C 4732   0.439   2.736   2.767  0.7096  0.6925  0.2391
   36MOL0     O 4733   0.400   2.865   2.745 -0.2631 -0.4390  0.0110
   36MOL0     C 4734   0.256   2.889   2.776  0.0349  0.3429 -0.3067
   36MOL0     C 4735   0.199   3.018   2.728  0.2790 -0.0326  0.5071
   36MOL0     C 4736   0.167   3.016   2.576  0.3725  0.4461 -0.4232
   36MOL0     C 4737   0.281   3.032   2.487  0.5992 -0.1179  0.6550
   36MOL0     C 4738   0.257   3.018   2.338  0.9943 -0.6270 -0.3639
   36MOL0     C 4739   0.237   2.863   2.309  0.2858  0.2658  0.7938
   36MOL0     C 4740   0.189   2.858   2.156 -0.4439  0.6146  0.0684
   36MOL0     C 4741   0.142   2.722   2.123  0.2431 -0.4847 -0.3373
   36MOL0     N 4742   0.240   2.611   2.135  0.7058 -0.5613  0.0198
   36MOL0     C 4743   0.375   2.612   2.108  0.0706 -0.1611 -0.1263
   36MOL0     C 4744   0.434   2.515   2.179  0.8087  1.2619  0.1038
   36MOL0     C 4745   0.580   2.466   2.165  0.3094  1.3048  0.0681
   36MOL0     C 4746   0.655   2.447   2.306 -0.0413  0.4285  0.3782
   36MOL0     C 4747   0.803   2.455   2.287  0.4399  0.2818  0.1560
   36MOL0     C 4748   0.879   2.385   2.400 -1.4123 -0.1763 -0.2136
   36MOL0     O 4749   1.018   2.367   2.361 -0.3957 -0.0511  0.6414
   36MOL0     C 4750   1.060   2.251   2.292  0.9571 -0.0353  0.3567
   36MOL0     C 4751   0.979   2.164   2.205 -0.1421 -0.1308 -1.8209
   36MOL0     C 4752   1.036   2.050   2.150 -0.2600 -0.2721  0.3062
   36MOL0     C 4753   1.166   2.012   2.175  0.5771  0.6977 -0.3555
   36MOL0     C 4754   1.240   1.903   2.104  0.2529 -0.2862 -0.7142
   36MOL0     O 4755   1.374   1.905   2.115  0.5513  0.3483  0.1429
   36MOL0     C 4756   1.465   1.825   2.046  0.4199  0.7197  0.5688
   36MOL0     C 4757   1.441   1.703   1.983  0.4777 -0.5161  0.2600
   36MOL0     C 4758   1.542   1.654   1.898 -0.7293 -0.0092 -0.0224
   36MOL0     C 4759   1.664   1.718   1.874 -0.4409  0.3614 -0.6786
   36MOL0     O 4760   1.765   1.679   1.784 -0.0010 -0.2402 -0.1787
   36MOL0     C 4761   1.750   1.747   1.665 -0.5426  0.3455  0.3774
   36MOL0     C 4762   1.805   1.688   1.542  0.5371 -0.2492 -1.3449
   36MOL0     C 4763   1.749   1.550   1.525  0.1828  0.5702 -0.1075
   36MOL0     C 4764   1.599   1.553   1.496  0.3067  0.2904 -0.0344
   36MOL0     C 4765   1.536   1.416   1.503  0.9395  0.1944  0.7362
   36MOL0     C 4766   1.382   1.421   1.489  0.3539 -0.0210  0.7734
   36MOL0     C 4767   1.337   1.290   1.432 -0.0902  0.2357 -0.0978
   36MOL0     C 4768   1.196   1.293   1.383  0.0108  0.3934  0.3499
   36MOL0    Cl 4769   1.197   1.366   1.213 -0.8043 -0.0976  0.1371
   36MOL0     C 4770   1.691   1.821   1.969 -0.2781  0.6545 -0.2685
   36MOL0     C 4771   1.595   1.871   2.048  0.7934  0.3829 -0.1130
   36MOL0     O 4772   1.167   1.829   2.042 -1.0186  0.3556  0.2536
   36MOL0     C 4773   1.244   2.084   2.272  0.5023 -0.5051 -0.1810
   36MOL0     C 4774   1.186   2.206   2.323  0.0746  0.6850 -0.6266
   36MOL0     N 4775   0.331   2.459   2.247  0.5153 -0.4095 -1.4599
   36MOL0     N 4776   0.216   2.508   2.218  1.1879 -0.1819  0.2032
   36MOL0     C 4777   0.487   2.703   2.893 -0.9910 -0.4287 -0.4302
   36MOL0     C 4778   0.533   2.572   2.915  1.5067 -0.3619  0.0300
   36MOL0     C 4779   0.636   2.125   2.772  1.4550 -0.8290 -0.1876
   36MOL0     C 4780   0.618   2.039   2.659 -0.4553  0.0960 -0.7992
   36MOL0     C 4781   0.625   1.904   2.687  0.6765  0.1067 -0.0545
   36MOL0     C 4782   0.652   1.849   2.812  1.1945  0.3840  0.9263
   36MOL0     O 4783   0.678   1.717   2.841  0.1751 -0.2504  1.1723
   36MOL0     C 4784   0.589   1.602   2.791 -0.8814 -0.8503 -0.4203
   36MOL0     C 4785   0.524   1.531   2.907 -0.3499 -0.7715  0.6360
   36MOL0     C 4786   0.614   1.434   2.975 -0.7551  0.3970  0.1986
   36MOL0     C 4787   0.574   1.424   3.120  0.4969 -0.9231  0.3506
   36MOL0     C 4788   0.664   1.330   3.187 -0.6043 -0.6072  0.2147
   36MOL0     C 4789   0.739   1.258   3.247  0.5224  0.2005 -0.3762
   36MOL0     C 4790   0.656   1.927   2.920 -0.4642 -1.1136  0.2680
   36MOL0     C 4791   0.659   2.070   2.902  0.7729  1.1835  0.8710
   36MOL0     C 4792   0.677   2.148   3.027 -0.7845 -0.4107 -0.0685
   36MOL0     H 4793   0.518   2.447   2.600  3.7993 -0.0512  1.4898
   36MOL0     H 4794   0.436   2.686   2.542  1.5212 -2.7443 -0.2638
   36MOL0     H 4795   0.199   2.807   2.731  0.0304  0.7668 -1.1017
   36MOL0     H 4796   0.251   2.895   2.885  2.8264 -1.2749 -0.0056
   36MOL0     H 4797   0.263   3.105   2.742 -2.0329  2.1551 -1.6253
   36MOL0     H 4798   0.098   3.026   2.768 -0.8874 -4.3567 -0.9597
   36MOL0     H 4799   0.083   3.082   2.553 -2.6012 -3.6608 -2.7233
   36MOL0     H 4800   0.127   2.914   2.570 -0.0673  0.5891 -0.0016
   36MOL0     H 4801   0.314   3.136   2.501  3.8931 -0.5707 -2.1946
   36MOL0     H 4802   0.361   2.963   2.514 -0.8834 -1.0315  3.0190
   36MOL0     H 4803   0.170   3.068   2.295  2.0264 -0.0287 -1.8067
   36MOL0     H 4804   0.340   3.047   2.273  2.6320  0.8152  2.1486
   36MOL0     H 4805   0.327   2.804   2.332 -1.2660 -1.2568  3.4098
   36MOL0     H 4806   0.160   2.822   2.375  1.6554 -1.5054  1.3786
   36MOL0     H 4807   0.276   2.880   2.094 -0.3963  0.7140  0.1708
   36MOL0     H 4808   0.112   2.935   2.151 -0.4604  0.6636  0.9550
   36MOL0     H 4809   0.063   2.695   2.194  0.6964 -2.6131 -0.5653
   36MOL0     H 4810   0.106   2.717   2.019  0.8324  2.6539 -0.8012
   36MOL0     H 4811   0.433   2.685   2.052  1.2188  0.2392  1.5078
   36MOL0     H 4812   0.579   2.379   2.100 -0.2988  1.4497 -0.1263
   36MOL0     H 4813   0.630   2.543   2.106 -1.3433  1.0793 -1.7342
   36MOL0     H 4814   0.629   2.527   2.375 -0.2765  2.9483 -2.4564
   36MOL0     H 4815   0.607   2.360   2.351 -0.4751  0.6582  0.3642
   36MOL0     H 4816   0.838   2.558   2.287  2.0635 -0.2327  1.3531
   36MOL0     H 4817   0.837   2.426   2.187  2.0648 -0.2009  0.8071
   36MOL0     H 4818   0.822   2.292   2.404 -1.2387 -0.2629  0.3503
   36MOL0     H 4819   0.874   2.434   2.498 -0.2975  1.2128 -0.8226
   36MOL0     H 4820   0.876   2.185   2.181 -0.6775 -1.1424 -0.5112
   36MOL0     H 4821   0.974   1.998   2.078 -1.1119  0.4287  0.5122
   36MOL0     H 4822   1.346   1.656   2.004 -0.0905 -0.7166 -2.4577
   36MOL0     H 4823   1.519   1.568   1.836  1.8789 -0.4050 -0.5508
   36MOL0     H 4824   1.645   1.773   1.648 -0.9961 -1.7444 -0.1849
   36MOL0     H 4825   1.810   1.839   1.671 -1.6524  1.0728  0.5126
   36MOL0     H 4826   1.803   1.751   1.453  0.6332 -0.6358 -1.6265
   36MOL0     H 4827   1.910   1.668   1.566  2.0253  2.7397 -4.4998
   36MOL0     H 4828   1.792   1.511   1.432 -2.2428  0.0654 -1.0963
   36MOL0     H 4829   1.778   1.480   1.604  1.0366  0.2657 -0.6772
   36MOL0     H 4830   1.592   1.588   1.392 -0.9159  1.2521  0.3505
   36MOL0     H 4831   1.549   1.627   1.559  2.6136  2.2047 -0.2495
   36MOL0     H 4832   1.569   1.367   1.595  4.9320 -0.8568 -1.0327
   36MOL0     H 4833   1.585   1.343   1.437  1.6126 -0.0931  1.5296
   36MOL0     H 4834   1.327   1.447   1.581 -2.9352  2.5038 -1.6371
   36MOL0     H 4835   1.344   1.504   1.429 -0.6278 -0.9123  0.1075
   36MOL0     H 4836   1.338   1.212   1.508  1.6371 -0.6463 -0.9708
   36MOL0     H 4837   1.391   1.253   1.345 -0.9934  0.8773 -0.9537
   36MOL0     H 4838   1.165   1.189   1.369  0.7903  0.5177 -3.2362
   36MOL0     H 4839   1.126   1.335   1.455  0.3573 -1.2545  1.7359
   36MOL0     H 4840   1.793   1.858   1.971 -0.0143  0.0543 -1.5765
   36MOL0     H 4841   1.631   1.949   2.114 -1.4391 -0.3306  2.0818
   36MOL0     H 4842   1.341   2.037   2.287  0.7178 -0.6089 -1.6970
   36MOL0     H 4843   1.250   2.258   2.392 -1.5122  0.0179  1.4439
   36MOL0     H 4844   0.483   2.778   2.971  1.6982 -1.0741  0.4354
   36MOL0     H 4845   0.557   2.541   3.017  2.3320 -0.4216 -0.1777
   36MOL0     H 4846   0.617   2.060   2.553 -3.4104 -1.7616 -1.2306
   36MOL0     H 4847   0.617   1.822   2.616 -2.0223 -2.0978  2.5255
   36MOL0     H 4848   0.653   1.528   2.742 -0.4523 -0.3950 -0.5616
   36MOL0     H 4849   0.514   1.647   2.725 -1.2723 -0.6868  0.1318
   36MOL0     H 4850   0.441   1.472   2.867  0.3503  0.2670 -2.6960
   36MOL0     H 4851   0.478   1.606   2.973 -1.3272  0.7777 -1.6824
   36MOL0     H 4852   0.716   1.472   2.986 -1.5088  2.0605  2.0017
   36MOL0     H 4853   0.616   1.333   2.933 -1.5611  0.1890  0.6468
   36MOL0     H 4854   0.580   1.525   3.161  0.1439 -0.0632 -1.5839
   36MOL0     H 4855   0.470   1.390   3.127  0.4306 -0.7910  0.0302
   36MOL0     H 4856   0.809   1.191   3.294  0.5413  0.7296  0.3553
   36MOL0     H 4857   0.676   1.877   3.015  2.4968 -0.3083  0.1826
   36MOL0     H 4858   0.699   2.255   3.016 -1.9449 -0.2692 -1.3527
   36MOL0     H 4859   0.603   2.128   3.105 -1.5649 -1.1559 -0.9778
   36MOL0     H 4860   0.772   2.115   3.070 -0.1585 -1.4279 -2.1133
   37MOL0     O 4861   9.981   7.049   0.202  0.8231 -0.4697  0.1789
   37MOL0     C 4862   9.914   7.082   0.109  0.0836 -0.7210 -0.7378
   37MOL0     O 4863   9.843   7.007   0.018 -0.2589 -0.1114  0.4465
   37MOL0     C 4864   9.844   6.872   0.014  0.3115  0.2836 -0.2821
   37MOL0     C 4865   9.728   6.795   0.020 -0.3821 -0.9188  0.0316
   37MOL0     C 4866   9.747   6.660   0.033  0.1712  0.4999 -0.2789
   37MOL0     C 4867   9.869   6.601   0.013 -0.0894 -0.6003  0.3523
   37MOL0     O 4868   9.882   6.467   0.018  0.1873  0.3497  0.2623
   37MOL0     C 4869   9.871   6.394  -0.107  0.7491 -0.1189  0.2668
   37MOL0     C 4870   9.963   6.267  -0.086 -0.7101  0.1224 -0.6362
   37MOL0     C 4871   9.938   6.151  -0.194  0.2084 -0.5576 -0.1551
   37MOL0     C 4872  10.022   6.032  -0.148  0.3074  0.6583  0.1349
   37MOL0     C 4873  10.010   5.916  -0.254  0.7055  0.1426  0.6528
   37MOL0     C 4874  10.012   5.781  -0.167  0.6058  0.0835  0.6543
   37MOL0     C 4875   9.995   5.653  -0.258 -0.1501  1.5805 -1.3477
   37MOL0     C 4876  10.130   5.604  -0.321  0.8053 -0.2351  0.7708
   37MOL0     N 4877  10.227   5.524  -0.240 -0.0013 -0.7102  0.1331
   37MOL0     C 4878  10.246   5.545  -0.105 -0.4265 -0.3057  0.3565
   37MOL0     C 4879  10.343   5.460  -0.074 -0.4037 -0.6187 -0.2500
   37MOL0     C 4880  10.416   5.465   0.052 -0.2480  0.4897 -0.2207
   37MOL0     C 4881  10.543   5.564   0.057  0.5686  0.3464  0.1096
   37MOL0     C 4882  10.489   5.703   0.098  0.8396 -0.2059 -1.0242
   37MOL0     C 4883  10.594   5.797   0.079 -0.5629  0.2997  0.0913
   37MOL0     O 4884  10.672   5.826   0.203 -0.4407  0.5199 -0.4389
   37MOL0     C 4885  10.742   5.941   0.211 -0.0709  0.6767 -0.4432
   37MOL0     C 4886  10.878   5.945   0.171 -0.1310 -1.7193 -0.5323
   37MOL0     C 4887  10.947   6.069   0.193 -0.4804  0.2566 -0.1607
   37MOL0     C 4888  10.881   6.177   0.252 -0.0984  0.0190  0.3207
   37MOL0     C 4889  10.950   6.305   0.281 -0.3314  0.5637 -0.4069
   37MOL0     O 4890  10.886   6.421   0.321 -0.1120 -0.1722  0.1948
   37MOL0     C 4891  10.941   6.537   0.262  0.7687 -0.0100 -0.9684
   37MOL0     C 4892  11.035   6.622   0.325 -0.0293 -0.1677  0.2328
   37MOL0     C 4893  11.090   6.734   0.254 -0.1861 -0.7896  0.5238
   37MOL0     C 4894  11.076   6.744   0.116  0.2424 -0.2690  0.2783
   37MOL0     O 4895  11.147   6.836   0.051 -0.0964  0.3210 -0.3989
   37MOL0     C 4896  11.129   6.855  -0.086  0.9400 -0.2888 -0.7356
   37MOL0     C 4897  11.215   6.971  -0.134  0.7736 -0.0634  0.8024
   37MOL0     C 4898  11.176   6.997  -0.280 -0.3175 -0.0530 -0.3395
   37MOL0     C 4899  11.210   6.875  -0.363 -0.5076 -0.4869  0.8380
   37MOL0     C 4900  11.195   6.899  -0.509 -0.2763  0.0226 -0.3179
   37MOL0     C 4901  11.244   6.779  -0.596  0.7484  0.7232 -0.9793
   37MOL0     C 4902  11.380   6.709  -0.553 -0.4536 -0.3076  0.9494
   37MOL0     C 4903  11.495   6.805  -0.589  0.0585 -0.2525 -1.2010
   37MOL0    Cl 4904  11.533   6.797  -0.767  0.3794 -0.0895 -0.5814
   37MOL0     C 4905  10.991   6.651   0.052 -0.7692 -0.8681 -0.1706
   37MOL0     C 4906  10.927   6.549   0.125 -0.0975  0.8426  1.2416
   37MOL0     O 4907  11.072   6.302   0.268 -0.1199  0.2953  0.2543
   37MOL0     C 4908  10.745   6.175   0.282  0.5470  0.3670 -0.7800
   37MOL0     C 4909  10.676   6.050   0.258  0.1306  1.1892  0.0860
   37MOL0     N 4910  10.386   5.396  -0.186  0.1070  1.1395 -0.2741
   37MOL0     N 4911  10.314   5.430  -0.292 -0.5417  0.7169 -0.4289
   37MOL0     C 4912   9.988   6.676  -0.006  0.1234  0.1105 -0.3101
   37MOL0     C 4913   9.968   6.807   0.003 -0.2520  0.6051  0.7737
   37MOL0     C 4914   9.923   7.224   0.085 -0.2711 -0.2976 -1.3344
   37MOL0     C 4915   9.847   7.278  -0.014  0.6855  0.0805 -0.6392
   37MOL0     C 4916   9.837   7.411  -0.047 -0.5497 -0.4735  0.8949
   37MOL0     C 4917   9.922   7.503   0.013 -0.9713  0.1932  0.0058
   37MOL0     O 4918   9.911   7.633  -0.030  0.6590  0.3864  0.2338
   37MOL0     C 4919  10.024   7.716  -0.040 -0.0080 -1.3130 -0.0188
   37MOL0     C 4920  10.011   7.817  -0.157 -0.1139  0.4491 -0.8424
   37MOL0     C 4921  10.132   7.812  -0.250 -0.0658  0.3398 -0.4186
   37MOL0     C 4922  10.110   7.752  -0.385 -0.4680 -0.2742  0.8463
   37MOL0     C 4923  10.069   7.613  -0.398  0.6160  1.0056 -0.4585
   37MOL0     C 4924  10.022   7.496  -0.386 -0.3638  0.4338  0.4338
   37MOL0     C 4925  10.010   7.462   0.110 -0.2222  1.0271 -0.4162
   37MOL0     C 4926   9.998   7.323   0.161 -0.0278 -0.2339  0.8274
   37MOL0     C 4927  10.087   7.295   0.278 -0.2375  0.0155  0.4548
   37MOL0     H 4928   9.633   6.847   0.025  0.1541  0.2296 -1.0045
   37MOL0     H 4929   9.661   6.600   0.061  1.1908 -0.9097 -0.0278
   37MOL0     H 4930   9.766   6.373  -0.130  0.5624  1.4228 -0.4093
   37MOL0     H 4931   9.914   6.460  -0.183  2.6503 -0.6307  0.8544
   37MOL0     H 4932   9.934   6.220   0.009 -1.2745 -1.7809 -1.6935
   37MOL0     H 4933  10.069   6.294  -0.092 -0.9837  1.5194  0.2720
   37MOL0     H 4934   9.969   6.193  -0.290  0.0817  0.6901  0.3360
   37MOL0     H 4935   9.832   6.125  -0.191  0.4242 -1.3984  0.8674
   37MOL0     H 4936  10.130   6.050  -0.144  0.3257  0.3776  1.5701
   37MOL0     H 4937   9.996   6.001  -0.046 -1.1589  1.7627  0.1326
   37MOL0     H 4938   9.918   5.920  -0.312 -0.0521  0.8506  1.8697
   37MOL0     H 4939  10.087   5.927  -0.331 -2.1337  2.4148 -2.0871
   37MOL0     H 4940  10.109   5.799  -0.121  0.2341  0.4967  1.2975
   37MOL0     H 4941   9.946   5.787  -0.080  0.2433  1.1283  0.3272
   37MOL0     H 4942   9.924   5.661  -0.340 -0.8547  0.0107 -0.9268
   37MOL0     H 4943   9.974   5.568  -0.193  1.7074  1.8506 -0.3072
   37MOL0     H 4944  10.085   5.548  -0.403 -1.4176  0.6601  1.2959
   37MOL0     H 4945  10.183   5.684  -0.374 -0.1190 -2.1105 -3.3517
   37MOL0     H 4946  10.222   5.630  -0.042  1.0403  1.6849 -1.6415
   37MOL0     H 4947  10.343   5.482   0.131 -0.3337  1.8300 -0.5716
   37MOL0     H 4948  10.458   5.363   0.052 -3.5381 -0.9760 -0.1776
   37MOL0     H 4949  10.610   5.533   0.137 -0.8551  0.8540  1.5525
   37MOL0     H 4950  10.590   5.565  -0.042  1.6431 -0.7283  0.5825
   37MOL0     H 4951  10.459   5.707   0.203 -1.2610  3.2365 -1.6022
   37MOL0     H 4952  10.403   5.739   0.040  0.0430 -2.0333 -1.0647
   37MOL0     H 4953  10.550   5.892   0.047 -2.5514 -0.6906 -0.2800
   37MOL0     H 4954  10.655   5.767  -0.006  0.1370 -1.1419  1.0699
   37MOL0     H 4955  10.922   5.855   0.129 -2.4376 -1.6563 -3.4096
   37MOL0     H 4956  11.053   6.073   0.172 -0.6498  2.2103 -0.9002
   37MOL0     H 4957  11.071   6.608   0.427  0.2511 -0.5767  0.0779
   37MOL0     H 4958  11.145   6.796   0.324 -2.4051 -0.6487  2.2740
   37MOL0     H 4959  11.141   6.751  -0.120 -2.7275 -1.5917  1.3507
   37MOL0     H 4960  11.026   6.876  -0.115  1.4992  0.8594 -1.9551
   37MOL0     H 4961  11.200   7.062  -0.076 -0.0649  1.6508 -1.8855
   37MOL0     H 4962  11.321   6.945  -0.129  0.8538 -0.2490 -1.0998
   37MOL0     H 4963  11.069   7.022  -0.278  0.2245  2.4420  0.4843
   37MOL0     H 4964  11.234   7.086  -0.305  1.3982 -1.6030 -2.2089
   37MOL0     H 4965  11.149   6.785  -0.348 -1.9451 -0.0089 -1.5895
   37MOL0     H 4966  11.314   6.848  -0.340  0.8563  1.9247 -1.8073
   37MOL0     H 4967  11.261   6.985  -0.525  2.8011 -1.9608  0.9719
   37MOL0     H 4968  11.092   6.928  -0.533 -1.0630 -1.3558  1.1360
   37MOL0     H 4969  11.176   6.694  -0.594 -0.7378  1.8047  2.5823
   37MOL0     H 4970  11.259   6.814  -0.699 -0.1658 -1.2625 -1.8346
   37MOL0     H 4971  11.405   6.632  -0.626  0.9476  0.2322  0.8241
   37MOL0     H 4972  11.369   6.659  -0.456  2.4689  0.3491  1.7158
   37MOL0     H 4973  11.463   6.905  -0.559 -0.5614 -0.9485  0.5863
   37MOL0     H 4974  11.584   6.777  -0.532 -2.9283 -3.1969  2.4890
   37MOL0     H 4975  10.971   6.629  -0.052 -0.7411 -1.5793 -0.0361
   37MOL0     H 4976  10.877   6.471   0.069 -0.3339  0.0496  2.5056
   37MOL0     H 4977  10.700   6.262   0.328 -0.0527 -1.7260  3.0471
   37MOL0     H 4978  10.570   6.043   0.281  0.2854  0.4113  0.6095
   37MOL0     H 4979  10.089   6.641  -0.022  0.9214  2.6292 -1.1925
   37MOL0     H 4980  10.055   6.871   0.002 -1.1824  1.9134 -0.2539
   37MOL0     H 4981   9.787   7.221  -0.084  1.6472 -1.8402  0.0553
   37MOL0     H 4982   9.785   7.440  -0.138  1.5102 -0.8128 -0.4492
   37MOL0     H 4983  10.114   7.659  -0.064  1.9476  1.7432 -0.5572
   37MOL0     H 4984  10.035   7.775   0.052 -0.7837  0.2496 -0.8897
   37MOL0     H 4985  10.011   7.922  -0.129 -1.3171  0.9917 -2.7172
   37MOL0     H 4986   9.920   7.786  -0.210  0.7180 -1.2857 -1.3468
   37MOL0     H 4987  10.221   7.775  -0.198  0.3410  2.3903  0.4345
   37MOL0     H 4988  10.152   7.919  -0.264 -2.4373  0.7833 -0.7129
   37MOL0     H 4989  10.046   7.816  -0.447  2.9456 -1.2394 -4.2346
   37MOL0     H 4990  10.207   7.753  -0.436 -0.9904  0.2350 -0.1600
   37MOL0     H 4991   9.986   7.396  -0.373 -1.7358  0.9979  1.1787
   37MOL0     H 4992  10.067   7.543   0.154  2.2788  0.3735 -2.2049
   37MOL0     H 4993  10.140   7.384   0.314 -1.7111 -0.0429  2.9898
   37MOL0     H 4994  10.024   7.255   0.358 -1.4170 -3.2726 -1.8965
   37MOL0     H 4995  10.169   7.226   0.255  1.1897  1.6778  0.3650
   38MOL0     O 4996   7.377   6.958   5.832 -0.0059  0.0246 -0.5791
   38MOL0     C 4997   7.258   6.987   5.857  1.4203  0.3831  1.0102
   38MOL0     O 4998   7.220   7.089   5.938 -0.0456 -0.1060 -0.3266
   38MOL0     C 4999   7.281   7.206   5.967  0.6397 -0.1501 -0.3566
   38MOL0     C 5000   7.225   7.287   6.065  0.1248 -0.0953  0.5076
   38MOL0     C 5001   7.282   7.414   6.092 -0.2307  0.0222  0.6477
   38MOL0     C 5002   7.397   7.451   6.025  0.9751  0.1216  0.1629
   38MOL0     O 5003   7.475   7.564   6.038  0.0206 -0.7528  0.6107
   38MOL0     C 5004   7.499   7.594   6.168 -0.6114  0.1170 -0.7960
   38MOL0     C 5005   7.528   7.739   6.184 -0.4497  0.2388  0.2017
   38MOL0     C 5006   7.533   7.770   6.333  0.1727  0.1121 -0.5634
   38MOL0     C 5007   7.473   7.911   6.353  0.9918  0.3603  1.1290
   38MOL0     C 5008   7.427   7.911   6.508 -1.8317  0.3436 -0.2533
   38MOL0     C 5009   7.363   8.052   6.547  0.2990  1.5647 -0.2067
   38MOL0     C 5010   7.481   8.140   6.598 -0.1447 -0.0266 -0.5567
   38MOL0     C 5011   7.442   8.288   6.614 -0.5129 -0.0898 -0.2430
   38MOL0     N 5012   7.375   8.318   6.744 -0.4038 -0.0598 -0.5373
   38MOL0     C 5013   7.402   8.274   6.873  0.6323  0.2199  0.3055
   38MOL0     C 5014   7.307   8.308   6.951  0.9035  0.4402 -0.0825
   38MOL0     C 5015   7.299   8.301   7.103  0.3603  0.1702 -0.6392
   38MOL0     C 5016   7.436   8.304   7.168  0.4714  0.3592 -0.1670
   38MOL0     C 5017   7.529   8.426   7.151  0.3588  0.9002 -0.3561
   38MOL0     C 5018   7.458   8.553   7.103  0.7172 -0.9703 -1.1825
   38MOL0     O 5019   7.560   8.655   7.091 -0.0046 -0.2263 -0.4652
   38MOL0     C 5020   7.640   8.668   6.977 -0.5312 -0.1273 -0.8365
   38MOL0     C 5021   7.750   8.762   6.978  0.0917 -0.6220 -0.0065
   38MOL0     C 5022   7.829   8.781   6.859  0.2934  1.0899 -0.0628
   38MOL0     C 5023   7.806   8.696   6.747  0.4524  0.4654 -0.2544
   38MOL0     C 5024   7.880   8.718   6.620  0.3173 -0.2827 -0.0158
   38MOL0     O 5025   7.857   8.619   6.524  0.3244 -0.5186  0.5248
   38MOL0     C 5026   7.945   8.622   6.421 -0.2029 -0.2255 -0.3828
   38MOL0     C 5027   8.065   8.554   6.420 -0.2451 -0.0939  0.0739
   38MOL0     C 5028   8.153   8.563   6.311  0.1776 -0.3950  0.4901
   38MOL0     C 5029   8.123   8.644   6.196 -0.7891 -0.0207 -0.2383
   38MOL0     O 5030   8.206   8.668   6.093 -0.0518  0.5633  0.0690
   38MOL0     C 5031   8.337   8.711   6.134 -0.5959  1.1610  0.0677
   38MOL0     C 5032   8.394   8.763   6.010 -0.0553  0.0393 -0.4637
   38MOL0     C 5033   8.374   8.916   5.999 -1.0452  0.1184  0.1971
   38MOL0     C 5034   8.391   8.949   5.850 -0.4237  0.6652  0.0047
   38MOL0     C 5035   8.372   9.103   5.818  0.4793  0.7266  0.2583
   38MOL0     C 5036   8.406   9.147   5.672 -0.5685 -0.0215 -0.5695
   38MOL0     C 5037   8.313   9.097   5.569  0.6292  0.7966  0.8021
   38MOL0     C 5038   8.376   8.998   5.476  0.9329  0.4991 -0.8633
   38MOL0    Cl 5039   8.280   8.973   5.323  0.0722 -0.3499 -0.2529
   38MOL0     C 5040   7.995   8.691   6.195  0.4084 -0.1610 -0.0164
   38MOL0     C 5041   7.909   8.690   6.304  0.3053 -0.6971 -0.4076
   38MOL0     O 5042   7.960   8.803   6.610 -0.8435  0.1150 -0.5490
   38MOL0     C 5043   7.686   8.617   6.750  0.0163 -0.7870  0.4092
   38MOL0     C 5044   7.612   8.600   6.866  0.7204 -0.4509 -0.5462
   38MOL0     N 5045   7.214   8.368   6.868 -0.3566 -0.4670 -1.0319
   38MOL0     N 5046   7.248   8.364   6.746 -0.3935 -0.4140  0.1863
   38MOL0     C 5047   7.431   7.374   5.914 -0.1226  0.1558  0.0388
   38MOL0     C 5048   7.385   7.246   5.885 -1.4767  1.0567 -1.0393
   38MOL0     C 5049   7.141   6.900   5.812  0.5193  1.5264  0.3840
   38MOL0     C 5050   7.008   6.934   5.838 -0.7862 -0.4891  0.0934
   38MOL0     C 5051   6.900   6.864   5.800 -0.3924  0.4916 -0.2081
   38MOL0     C 5052   6.912   6.746   5.740  0.0144  0.5964  0.3753
   38MOL0     O 5053   6.802   6.679   5.684 -0.1017  0.3162 -0.0750
   38MOL0     C 5054   6.804   6.559   5.609 -0.9448 -0.2358  0.2674
   38MOL0     C 5055   6.659   6.529   5.580 -0.4473  1.2554  0.4129
   38MOL0     C 5056   6.641   6.420   5.474 -0.3869 -0.3623  0.4721
   38MOL0     C 5057   6.501   6.360   5.470  0.6874  0.5372 -0.5834
   38MOL0     C 5058   6.471   6.300   5.606 -1.3862  0.0867 -0.0474
   38MOL0     C 5059   6.435   6.251   5.716  0.5701 -0.2562  0.6324
   38MOL0     C 5060   7.032   6.698   5.711 -0.6928  0.2941 -0.5996
   38MOL0     C 5061   7.152   6.774   5.745 -0.1111  0.1591  0.1648
   38MOL0     C 5062   7.291   6.704   5.710  0.1893 -0.5420  0.0102
   38MOL0     H 5063   7.125   7.251   6.089 -1.0602  1.8980 -1.1590
   38MOL0     H 5064   7.238   7.482   6.165  0.1000  3.1432 -1.8234
   38MOL0     H 5065   7.420   7.567   6.240 -2.8195  2.5615 -2.1324
   38MOL0     H 5066   7.591   7.538   6.188 -0.5966  0.4967  0.2638
   38MOL0     H 5067   7.442   7.798   6.151 -1.9433 -2.3253 -0.6981
   38MOL0     H 5068   7.627   7.769   6.149 -0.2840 -0.3621  0.1537
   38MOL0     H 5069   7.636   7.758   6.367  0.7800  2.0830 -1.5504
   38MOL0     H 5070   7.477   7.695   6.389  0.2606 -0.1189 -0.7859
   38MOL0     H 5071   7.558   7.975   6.327 -0.1572  1.0012 -1.3722
   38MOL0     H 5072   7.382   7.947   6.305  3.0874  2.9876 -1.2225
   38MOL0     H 5073   7.349   7.838   6.530  0.5582 -1.4035  3.3088
   38MOL0     H 5074   7.499   7.883   6.585 -1.9168 -1.0243 -0.6435
   38MOL0     H 5075   7.322   8.092   6.454  0.9936  0.5371 -0.9639
   38MOL0     H 5076   7.289   8.037   6.626  1.6650  1.8390  1.1793
   38MOL0     H 5077   7.556   8.137   6.519  1.4324  1.4719  0.8111
   38MOL0     H 5078   7.534   8.100   6.685  3.1775  1.1329 -1.8835
   38MOL0     H 5079   7.528   8.354   6.602  0.2660 -0.7702  1.2875
   38MOL0     H 5080   7.366   8.316   6.540 -2.1259 -2.7040  0.2638
   38MOL0     H 5081   7.488   8.220   6.912  1.0200  0.5988 -0.0070
   38MOL0     H 5082   7.232   8.377   7.143 -1.3456 -1.4255 -0.3142
   38MOL0     H 5083   7.248   8.207   7.127  0.2462  0.7403  1.5599
   38MOL0     H 5084   7.411   8.286   7.273 -0.8154  0.8541 -0.3693
   38MOL0     H 5085   7.489   8.217   7.129 -3.3028 -0.8076 -3.4284
   38MOL0     H 5086   7.608   8.399   7.081  1.3520 -0.6549  1.2959
   38MOL0     H 5087   7.578   8.442   7.247 -0.1462  0.2113  0.0260
   38MOL0     H 5088   7.394   8.593   7.182  0.7659  0.5218 -1.8628
   38MOL0     H 5089   7.385   8.549   7.022 -3.3980  2.7230  1.8448
   38MOL0     H 5090   7.772   8.829   7.061 -0.6441 -0.3121 -0.0529
   38MOL0     H 5091   7.906   8.856   6.844 -0.0648  1.7308  1.1588
   38MOL0     H 5092   8.106   8.492   6.499 -2.2862 -2.2080 -0.4138
   38MOL0     H 5093   8.246   8.508   6.307  0.9862  0.9646 -0.0055
   38MOL0     H 5094   8.342   8.786   6.213  2.3651  0.2398  0.9175
   38MOL0     H 5095   8.401   8.629   6.167 -1.3017 -0.2782 -1.9247
   38MOL0     H 5096   8.501   8.747   6.019  0.1219 -1.5417 -3.8272
   38MOL0     H 5097   8.366   8.704   5.922 -1.0007 -0.0695 -0.1073
   38MOL0     H 5098   8.280   8.942   6.048 -0.2776 -0.0804  1.8532
   38MOL0     H 5099   8.449   8.961   6.065 -1.5248  1.0481  0.1314
   38MOL0     H 5100   8.306   8.904   5.797 -1.6870  5.2401 -2.3788
   38MOL0     H 5101   8.487   8.911   5.813 -0.5808  0.3698 -0.1001
   38MOL0     H 5102   8.428   9.150   5.899 -0.1321  1.8924  0.0232
   38MOL0     H 5103   8.266   9.125   5.833  0.4838  0.4578  0.6820
   38MOL0     H 5104   8.400   9.256   5.658 -1.5371 -0.3925 -3.7183
   38MOL0     H 5105   8.509   9.119   5.647 -1.0353 -0.9291 -1.4820
   38MOL0     H 5106   8.284   9.188   5.515  0.9826  0.8541  0.7026
   38MOL0     H 5107   8.217   9.065   5.610  0.9438  0.6878  1.4710
   38MOL0     H 5108   8.481   9.025   5.461  0.7161  0.7754 -1.9337
   38MOL0     H 5109   8.389   8.904   5.531 -0.1995  1.1797  0.6311
   38MOL0     H 5110   7.959   8.724   6.098 -2.3814 -1.1047  0.6121
   38MOL0     H 5111   7.808   8.727   6.315 -1.1015 -2.9554 -4.0175
   38MOL0     H 5112   7.654   8.573   6.656 -0.0100 -1.4984  0.7435
   38MOL0     H 5113   7.526   8.534   6.859 -0.2982  0.9228 -1.6295
   38MOL0     H 5114   7.530   7.399   5.877 -0.0638  0.8864  0.6531
   38MOL0     H 5115   7.431   7.189   5.805 -2.5508  1.2876 -1.8518
   38MOL0     H 5116   6.982   7.028   5.886  0.6165  1.3714 -2.5362
   38MOL0     H 5117   6.798   6.900   5.810 -1.2199 -2.1079  1.9013
   38MOL0     H 5118   6.841   6.472   5.664  6.5518  2.3877  0.4501
   38MOL0     H 5119   6.856   6.576   5.515 -1.5027 -0.8651 -0.1571
   38MOL0     H 5120   6.600   6.613   5.541 -0.6662  1.4812  1.2102
   38MOL0     H 5121   6.619   6.494   5.676 -0.4585  1.2238  0.3963
   38MOL0     H 5122   6.726   6.354   5.493  0.4178  0.5764  0.2098
   38MOL0     H 5123   6.653   6.470   5.377  0.6883 -3.0527 -0.8754
   38MOL0     H 5124   6.429   6.440   5.452 -0.3912  0.2094  1.8737
   38MOL0     H 5125   6.485   6.290   5.388  1.7414 -0.2258 -0.1735
   38MOL0     H 5126   6.398   6.217   5.810 -0.5360  1.5099  0.8802
   38MOL0     H 5127   7.050   6.599   5.669  5.9346  1.9651 -3.0090
   38MOL0     H 5128   7.358   6.782   5.672 -0.6239  1.4577  2.4221
   38MOL0     H 5129   7.344   6.660   5.796 -5.0410 -1.5462  3.1531
   38MOL0     H 5130   7.265   6.614   5.653  0.0944 -2.1905  2.4773
   39MOL0     O 5131   0.638   4.192   1.922  0.3347 -0.9437  0.1186
   39MOL0     C 5132   0.546   4.247   1.856 -0.0373  0.8963  0.4846
   39MOL0     O 5133   0.432   4.295   1.905  0.1277  0.1378  0.3825
   39MOL0     C 5134   0.435   4.327   2.040 -0.2059 -0.7481  0.2555
   39MOL0     C 5135   0.543   4.396   2.107 -0.0070 -0.0060 -0.1536
   39MOL0     C 5136   0.543   4.439   2.239  0.1222  0.1970  0.1002
   39MOL0     C 5137   0.421   4.425   2.315  0.5561  0.2390 -0.0224
   39MOL0     O 5138   0.395   4.457   2.444  0.8860  0.0410 -0.4879
   39MOL0     C 5139   0.502   4.503   2.527 -0.3024  0.2788  0.3601
   39MOL0     C 5140   0.575   4.387   2.604  0.5451  0.2030  0.1459
   39MOL0     C 5141   0.687   4.423   2.693 -0.6384 -0.6162 -0.5204
   39MOL0     C 5142   0.785   4.311   2.726  0.0384  0.2664 -1.0996
   39MOL0     C 5143   0.719   4.185   2.791  0.7550  0.6876  0.3043
   39MOL0     C 5144   0.814   4.062   2.814  0.5266  0.3874  1.1082
   39MOL0     C 5145   0.834   3.991   2.678 -0.8422 -0.3034  0.8438
   39MOL0     C 5146   0.724   3.893   2.638 -0.4399  0.0564 -0.2684
   39MOL0     N 5147   0.675   3.799   2.736 -0.0205  0.0762 -0.6344
   39MOL0     C 5148   0.739   3.696   2.803 -0.1308 -0.2798 -0.1477
   39MOL0     C 5149   0.650   3.648   2.891  0.8784 -0.8118 -0.4349
   39MOL0     C 5150   0.679   3.536   2.994 -0.7604  0.5145 -0.4709
   39MOL0     C 5151   0.805   3.442   2.962 -0.5014  0.2426 -0.3808
   39MOL0     C 5152   0.835   3.330   3.062  0.2445 -0.4084 -0.6142
   39MOL0     C 5153   0.894   3.368   3.198 -0.2168  0.4495  0.2880
   39MOL0     O 5154   0.897   3.270   3.306  0.0169 -0.0519  0.6817
   39MOL0     C 5155   0.991   3.173   3.318 -1.2133 -0.0075 -0.3736
   39MOL0     C 5156   0.975   3.077   3.419 -0.0504 -0.1541 -0.2173
   39MOL0     C 5157   1.062   2.968   3.433  1.3207 -0.0437 -0.0042
   39MOL0     C 5158   1.155   2.945   3.343 -0.9396 -0.5381  1.1479
   39MOL0     C 5159   1.246   2.827   3.356  0.1821  0.0358  0.6613
   39MOL0     O 5160   1.330   2.817   3.254 -0.1163 -0.2125 -0.4519
   39MOL0     C 5161   1.437   2.730   3.248 -0.2002 -0.1290 -0.9377
   39MOL0     C 5162   1.556   2.769   3.326 -0.0253  0.7371 -0.4206
   39MOL0     C 5163   1.678   2.692   3.317  0.0252 -0.7902 -0.2568
   39MOL0     C 5164   1.685   2.582   3.238 -0.1347  0.4114  0.1937
   39MOL0     O 5165   1.802   2.511   3.217  0.6086 -0.1192  0.3824
   39MOL0     C 5166   1.902   2.505   3.318 -1.3825  0.5252 -0.3993
   39MOL0     C 5167   2.040   2.555   3.262  0.2270 -0.0438  0.2024
   39MOL0     C 5168   2.104   2.459   3.150  0.5060  0.3475 -0.3074
   39MOL0     C 5169   2.207   2.527   3.062 -0.3282 -0.7391  0.9452
   39MOL0     C 5170   2.349   2.479   3.117  0.1317 -1.2566 -0.4273
   39MOL0     C 5171   2.439   2.596   3.076  0.8001 -0.8316 -0.5261
   39MOL0     C 5172   2.581   2.573   3.110 -0.7245 -0.3782  0.4738
   39MOL0     C 5173   2.656   2.454   3.062  1.1286 -0.7674  0.0577
   39MOL0    Cl 5174   2.822   2.448   3.081 -0.0853 -0.1514  0.5843
   39MOL0     C 5175   1.578   2.546   3.158  1.8394  0.2863  0.4622
   39MOL0     C 5176   1.451   2.619   3.156 -0.1487  0.0137  1.0192
   39MOL0     O 5177   1.256   2.757   3.456 -0.0418  1.0566 -0.1949
   39MOL0     C 5178   1.190   3.047   3.246  0.0363 -0.2533 -0.5268
   39MOL0     C 5179   1.108   3.158   3.239 -0.9561  0.9533  0.5949
   39MOL0     N 5180   0.526   3.712   2.875  0.1130 -0.2666 -0.2119
   39MOL0     N 5181   0.545   3.804   2.784  0.5249  0.2585 -0.2987
   39MOL0     C 5182   0.314   4.360   2.253 -0.1498  0.0106  0.1284
   39MOL0     C 5183   0.327   4.301   2.124 -0.2679 -0.6119 -0.3179
   39MOL0     C 5184   0.578   4.252   1.714  1.6753  0.6862  0.0946
   39MOL0     C 5185   0.624   4.132   1.654  0.7876 -0.0214  0.1591
   39MOL0     C 5186   0.660   4.131   1.514 -1.1209  0.1773 -0.0523
   39MOL0     C 5187   0.641   4.242   1.435 -0.8069 -0.3814 -0.7583
   39MOL0     O 5188   0.649   4.232   1.305 -0.4384 -0.7851 -0.4744
   39MOL0     C 5189   0.512   4.250   1.240 -0.1048 -0.1961 -0.0159
   39MOL0     C 5190   0.535   4.308   1.103 -0.7312  0.0229 -0.2876
   39MOL0     C 5191   0.401   4.318   1.024 -0.0831 -1.1633  0.5272
   39MOL0     C 5192   0.430   4.381   0.884  1.1364 -0.4964  0.0891
   39MOL0     C 5193   0.470   4.522   0.890 -0.3869 -0.9349  0.0505
   39MOL0     C 5194   0.497   4.636   0.928 -0.4372  0.0331  0.3595
   39MOL0     C 5195   0.609   4.364   1.497 -0.1176  0.5867 -1.0985
   39MOL0     C 5196   0.566   4.367   1.634 -0.0280 -0.7141 -0.1910
   39MOL0     C 5197   0.528   4.498   1.690  0.5693  0.2913 -0.3046
   39MOL0     H 5198   0.624   4.431   2.045  1.7316 -0.1877  1.8822
   39MOL0     H 5199   0.627   4.497   2.276  1.2250 -1.6521  0.6302
   39MOL0     H 5200   0.577   4.559   2.472  1.1315 -1.9846 -0.1408
   39MOL0     H 5201   0.460   4.575   2.598 -1.9478 -0.9361  0.7096
   39MOL0     H 5202   0.602   4.312   2.528 -0.8063  2.1369 -2.4135
   39MOL0     H 5203   0.505   4.345   2.676  1.7566  1.0000  1.8537
   39MOL0     H 5204   0.657   4.481   2.781  0.0103  1.3522 -1.5408
   39MOL0     H 5205   0.747   4.502   2.647 -0.9475  0.7705  1.2960
   39MOL0     H 5206   0.829   4.284   2.629 -2.1650  1.3163 -2.4943
   39MOL0     H 5207   0.865   4.346   2.791  0.4159  2.8293 -2.7896
   39MOL0     H 5208   0.687   4.200   2.894 -0.9845  0.1882 -0.1253
   39MOL0     H 5209   0.635   4.158   2.727  0.7891 -0.5722  0.7622
   39MOL0     H 5210   0.904   4.092   2.869  0.2769  2.4735  0.4534
   39MOL0     H 5211   0.756   3.999   2.883  0.9278  0.1404  1.2254
   39MOL0     H 5212   0.911   3.914   2.686 -0.7431 -0.1603  1.2706
   39MOL0     H 5213   0.846   4.069   2.602 -1.5613  0.6428  1.6773
   39MOL0     H 5214   0.643   3.943   2.584 -1.7153 -0.9663  0.6392
   39MOL0     H 5215   0.769   3.826   2.565 -1.6780 -2.7788  1.4105
   39MOL0     H 5216   0.837   3.658   2.776 -0.4559  0.9975 -3.7253
   39MOL0     H 5217   0.694   3.569   3.098 -0.9796 -0.5492 -0.0921
   39MOL0     H 5218   0.593   3.469   2.988 -0.8877  0.6468 -0.1391
   39MOL0     H 5219   0.778   3.387   2.872 -1.8224  0.2903 -0.0303
   39MOL0     H 5220   0.894   3.499   2.936  2.1777 -2.6825  1.6105
   39MOL0     H 5221   0.911   3.279   3.002 -1.2368 -1.4235 -1.6880
   39MOL0     H 5222   0.755   3.260   3.089  0.5821 -0.7415 -0.4644
   39MOL0     H 5223   0.830   3.451   3.228 -2.8410 -2.2271  2.8215
   39MOL0     H 5224   0.997   3.400   3.182 -0.7248  1.5512 -0.9610
   39MOL0     H 5225   0.886   3.074   3.480 -1.7164 -0.9959 -2.5578
   39MOL0     H 5226   1.044   2.901   3.517 -1.9442  0.2077 -0.3700
   39MOL0     H 5227   1.545   2.847   3.401  0.9847  0.3648  0.1486
   39MOL0     H 5228   1.765   2.725   3.375  0.9171  1.3699 -2.6427
   39MOL0     H 5229   1.874   2.548   3.415 -0.2113  2.7734 -1.0003
   39MOL0     H 5230   1.907   2.398   3.342  0.4480  0.1881 -2.0315
   39MOL0     H 5231   2.026   2.652   3.213 -2.5195 -0.1266  0.7117
   39MOL0     H 5232   2.113   2.573   3.341  0.9976  1.0570 -0.7173
   39MOL0     H 5233   2.153   2.381   3.208 -0.6186  0.1286  0.3928
   39MOL0     H 5234   2.032   2.414   3.081  0.6811  0.5804 -0.6466
   39MOL0     H 5235   2.196   2.634   3.084 -1.2660 -0.0681 -2.2632
   39MOL0     H 5236   2.184   2.526   2.955  1.8772  3.9591  0.1378
   39MOL0     H 5237   2.374   2.384   3.070 -2.5489 -1.5889 -1.3636
   39MOL0     H 5238   2.338   2.466   3.225  0.7509 -0.7884 -0.3035
   39MOL0     H 5239   2.419   2.627   2.973 -0.7713  1.2031  0.3338
   39MOL0     H 5240   2.418   2.677   3.146  2.8339  0.4843 -1.3680
   39MOL0     H 5241   2.594   2.585   3.218 -1.5302 -2.1533  0.8042
   39MOL0     H 5242   2.639   2.655   3.065 -0.2552  0.0457  1.8087
   39MOL0     H 5243   2.614   2.364   3.109 -0.1908 -0.8340 -1.1844
   39MOL0     H 5244   2.619   2.448   2.959 -1.0365  0.4478  0.7106
   39MOL0     H 5245   1.590   2.470   3.081 -1.6826  1.4650 -1.4766
   39MOL0     H 5246   1.359   2.585   3.110 -0.9477  0.6267  2.1162
   39MOL0     H 5247   1.269   3.041   3.171 -1.6000  2.4940 -2.6645
   39MOL0     H 5248   1.137   3.228   3.161 -3.1506  1.1545 -0.1117
   39MOL0     H 5249   0.224   4.343   2.310  0.4221 -0.8741  0.7906
   39MOL0     H 5250   0.252   4.240   2.074  3.1137 -3.4637 -2.3734
   39MOL0     H 5251   0.632   4.040   1.713 -1.3103 -0.7432 -0.6141
   39MOL0     H 5252   0.678   4.034   1.469  0.6250  1.2912 -1.9029
   39MOL0     H 5253   0.450   4.317   1.300  3.0249  1.8734  1.1305
   39MOL0     H 5254   0.459   4.154   1.240  1.8212 -1.4242 -3.6688
   39MOL0     H 5255   0.603   4.250   1.040  2.1045  3.5665 -0.8257
   39MOL0     H 5256   0.587   4.404   1.114  1.5800 -1.0500 -1.1468
   39MOL0     H 5257   0.329   4.375   1.084  1.2663 -2.4746  3.5783
   39MOL0     H 5258   0.348   4.223   1.014  0.0727 -1.2740  0.7667
   39MOL0     H 5259   0.505   4.311   0.846  2.3434 -2.1135  4.6929
   39MOL0     H 5260   0.344   4.394   0.818  3.0634 -0.6767 -2.6086
   39MOL0     H 5261   0.492   4.735   0.967  3.1930  0.6380 -0.3751
   39MOL0     H 5262   0.620   4.454   1.437 -4.0010  0.7563 -1.8121
   39MOL0     H 5263   0.608   4.520   1.761  0.7815 -0.1554 -0.4023
   39MOL0     H 5264   0.515   4.576   1.615  0.5249 -0.0308 -0.6344
   39MOL0     H 5265   0.435   4.499   1.749 -1.0893 -0.0418 -2.7701
   40MOL0     O 5266   3.973  10.970   5.722  0.3541 -0.9970  1.1327
   40MOL0     C 5267   4.061  10.944   5.804 -0.8082 -0.1702 -0.0873
   40MOL0     O 5268   4.048  10.953   5.937  0.5827  0.2040 -0.0405
   40MOL0     C 5269   3.923  10.958   5.992  0.3977  1.2019  0.1065
   40MOL0     C 5270   3.837  10.846   6.007  0.7415 -0.3667  1.0812
   40MOL0     C 5271   3.704  10.855   6.045  0.1130 -0.3675 -0.2810
   40MOL0     C 5272   3.659  10.981   6.099  0.4760 -0.6883 -0.7345
   40MOL0     O 5273   3.541  10.977   6.168  0.9610 -0.0670 -0.0531
   40MOL0     C 5274   3.435  11.032   6.080  0.0562 -0.0924  0.1798
   40MOL0     C 5275   3.300  10.985   6.110 -0.4336  1.2546 -0.6034
   40MOL0     C 5276   3.296  10.834   6.112 -0.7998  0.6537  0.3156
   40MOL0     C 5277   3.241  10.763   6.230  0.7122  0.9209  0.2615
   40MOL0     C 5278   3.339  10.751   6.352  0.9030 -0.4737  0.2833
   40MOL0     C 5279   3.307  10.656   6.462  0.1087 -0.2219 -0.9427
   40MOL0     C 5280   3.380  10.663   6.600 -0.0352  0.1706  0.1102
   40MOL0     C 5281   3.343  10.791   6.679 -0.0133 -0.4626  0.0879
   40MOL0     N 5282   3.407  10.804   6.814 -0.5311  0.3170 -0.1751
   40MOL0     C 5283   3.450  10.707   6.900 -1.0413 -0.4691 -0.1360
   40MOL0     C 5284   3.528  10.774   6.993 -0.8654 -1.1178  0.5612
   40MOL0     C 5285   3.627  10.710   7.086 -0.2159  0.0507  0.0198
   40MOL0     C 5286   3.673  10.575   7.022 -0.0272 -0.2337 -0.7703
   40MOL0     C 5287   3.808  10.536   7.071  0.5716  0.1082  0.2630
   40MOL0     C 5288   3.865  10.421   6.996 -0.0503 -0.3357  0.7444
   40MOL0     O 5289   3.876  10.435   6.857 -0.2245  0.1753 -0.2613
   40MOL0     C 5290   3.946  10.331   6.786 -0.4872 -0.9498 -0.1910
   40MOL0     C 5291   3.977  10.374   6.661 -0.7334  0.0146 -0.1628
   40MOL0     C 5292   4.040  10.284   6.579 -0.3701  0.3450 -0.3860
   40MOL0     C 5293   4.071  10.149   6.624 -0.4785  0.3397 -0.9959
   40MOL0     C 5294   4.142  10.048   6.534  0.4410 -0.8648 -1.0190
   40MOL0     O 5295   4.188   9.930   6.591  0.4900  0.1889  1.1467
   40MOL0     C 5296   4.289   9.865   6.534 -1.4810  0.6446  0.2459
   40MOL0     C 5297   4.417   9.925   6.527  0.6169  0.5127  0.0016
   40MOL0     C 5298   4.528   9.870   6.462  0.3189  0.5172 -0.9063
   40MOL0     C 5299   4.516   9.746   6.407  0.5071 -0.3701 -0.2609
   40MOL0     O 5300   4.617   9.669   6.353  0.2372 -0.2577 -0.3332
   40MOL0     C 5301   4.748   9.709   6.383  0.0254  0.8309 -0.6717
   40MOL0     C 5302   4.855   9.610   6.344  0.7456 -0.3966 -0.4459
   40MOL0     C 5303   4.991   9.686   6.333  0.9063  0.9760 -0.5046
   40MOL0     C 5304   5.093   9.622   6.235 -0.0560  0.7083  0.6350
   40MOL0     C 5305   5.043   9.652   6.091 -0.0828  0.4152 -0.5120
   40MOL0     C 5306   5.155   9.700   5.990 -0.2456  0.1311 -0.4752
   40MOL0     C 5307   5.194   9.580   5.897 -0.9842 -0.3178  0.5190
   40MOL0     C 5308   5.338   9.602   5.834  0.3409  0.1864 -0.4410
   40MOL0    Cl 5309   5.322   9.693   5.675 -0.1371  0.3635  0.1767
   40MOL0     C 5310   4.391   9.683   6.413  0.5753 -0.3229  0.3068
   40MOL0     C 5311   4.282   9.737   6.485  0.4398 -0.0220  0.7785
   40MOL0     O 5312   4.169  10.091   6.416  0.2631  0.0360 -0.3411
   40MOL0     C 5313   4.038  10.108   6.750 -0.5237  0.1462  1.2210
   40MOL0     C 5314   3.963  10.196   6.826  1.1466 -0.2818 -0.4159
   40MOL0     N 5315   3.510  10.915   6.977  0.5137  0.3871 -0.3082
   40MOL0     N 5316   3.451  10.927   6.857  0.0368  0.2834 -1.2823
   40MOL0     C 5317   3.742  11.091   6.094 -0.0331 -0.1511  0.3672
   40MOL0     C 5318   3.874  11.080   6.039 -0.0171  0.2288  0.5938
   40MOL0     C 5319   4.197  10.945   5.754  0.5958  0.7603 -0.5555
   40MOL0     C 5320   4.310  10.936   5.846  0.3018 -0.2256  0.4651
   40MOL0     C 5321   4.441  10.901   5.804 -0.5585  0.8613 -0.2795
   40MOL0     C 5322   4.472  10.868   5.675 -0.6686  1.0944 -0.4970
   40MOL0     O 5323   4.610  10.838   5.636  0.4968  0.1394 -0.5302
   40MOL0     C 5324   4.632  10.734   5.537 -0.8466  0.7281 -0.6076
   40MOL0     C 5325   4.552  10.604   5.578  0.6741  0.2969  0.1780
   40MOL0     C 5326   4.613  10.549   5.708 -0.1267  0.2910  0.8858
   40MOL0     C 5327   4.744  10.478   5.679  0.1227 -0.4268 -0.3630
   40MOL0     C 5328   4.705  10.357   5.594 -0.9323 -0.5772  0.7169
   40MOL0     C 5329   4.675  10.249   5.538  0.5530 -0.1628 -0.1368
   40MOL0     C 5330   4.363  10.881   5.581  0.4664 -0.0565 -0.3832
   40MOL0     C 5331   4.236  10.922   5.617  0.3669 -0.3173 -0.5487
   40MOL0     C 5332   4.143  10.936   5.503  0.4515 -0.4714  0.6927
   40MOL0     H 5333   3.882  10.751   5.978  0.8891 -0.5883  2.0015
   40MOL0     H 5334   3.630  10.775   6.049  0.2893 -0.6322 -1.9174
   40MOL0     H 5335   3.429  11.142   6.078 -1.5885 -0.1631 -0.0251
   40MOL0     H 5336   3.454  11.002   5.977  4.5594  1.2428  0.3876
   40MOL0     H 5337   3.230  11.033   6.041 -1.6954  0.6996  0.2430
   40MOL0     H 5338   3.273  11.029   6.206  1.1977 -0.1078  0.5334
   40MOL0     H 5339   3.393  10.785   6.108 -1.4283 -0.5628 -2.9586
   40MOL0     H 5340   3.247  10.798   6.022 -0.4771  0.2896  0.2861
   40MOL0     H 5341   3.151  10.815   6.263  1.3048  0.6534  2.4971
   40MOL0     H 5342   3.216  10.663   6.193 -1.4781  0.2555  3.1849
   40MOL0     H 5343   3.444  10.745   6.324  1.3076  1.3835  1.1935
   40MOL0     H 5344   3.314  10.846   6.401 -1.5430 -0.8835 -0.0604
   40MOL0     H 5345   3.201  10.632   6.473  0.4835 -1.6332 -0.1765
   40MOL0     H 5346   3.345  10.562   6.420  2.0845 -0.9027  2.0156
   40MOL0     H 5347   3.486  10.658   6.574 -0.4468 -2.0609 -1.3669
   40MOL0     H 5348   3.361  10.572   6.658 -2.7992  2.1313  2.5860
   40MOL0     H 5349   3.359  10.886   6.628  1.4779 -0.0060  1.3354
   40MOL0     H 5350   3.235  10.786   6.697  0.3541 -0.7189  2.6476
   40MOL0     H 5351   3.459  10.601   6.877 -0.2813  0.1799 -3.3343
   40MOL0     H 5352   3.705  10.787   7.091  1.0222 -0.7580 -3.6958
   40MOL0     H 5353   3.597  10.707   7.191 -0.3200  0.5304  0.0065
   40MOL0     H 5354   3.594  10.510   7.062  0.6853 -1.1754 -0.8670
   40MOL0     H 5355   3.672  10.568   6.913  1.2172  0.0264 -0.8060
   40MOL0     H 5356   3.803  10.506   7.176  0.9819  3.6036  1.4187
   40MOL0     H 5357   3.876  10.622   7.071 -1.1689  1.8108  5.0349
   40MOL0     H 5358   3.803  10.332   7.011  1.6318 -2.7207 -4.4163
   40MOL0     H 5359   3.964  10.412   7.041 -1.6703  2.3448  5.5611
   40MOL0     H 5360   3.964  10.474   6.621  1.9852  1.4331  2.1200
   40MOL0     H 5361   4.077  10.298   6.477  3.0199 -2.6796  0.2097
   40MOL0     H 5362   4.430  10.027   6.564  0.8485  0.9015 -1.0996
   40MOL0     H 5363   4.626   9.918   6.461  0.5638  0.1475  1.2565
   40MOL0     H 5364   4.769   9.806   6.336 -0.6283  0.8704 -0.8866
   40MOL0     H 5365   4.760   9.728   6.490 -0.9870 -0.5331 -0.2885
   40MOL0     H 5366   4.865   9.537   6.425  0.2610  2.9902  2.9705
   40MOL0     H 5367   4.830   9.575   6.243  2.8117 -1.1160 -0.7500
   40MOL0     H 5368   4.973   9.792   6.317 -0.1119  0.9489  0.3186
   40MOL0     H 5369   5.036   9.681   6.433  0.4647 -0.1892 -0.3451
   40MOL0     H 5370   5.118   9.516   6.230  1.5648  0.9846 -5.8842
   40MOL0     H 5371   5.182   9.662   6.286 -1.5445  2.7542  1.7691
   40MOL0     H 5372   4.973   9.736   6.086  1.3587  1.8152  1.4005
   40MOL0     H 5373   5.002   9.555   6.061 -1.2317  0.0054  2.1130
   40MOL0     H 5374   5.129   9.781   5.921 -1.8577 -2.2486 -2.8392
   40MOL0     H 5375   5.245   9.730   6.045  0.3759 -0.0823 -1.3606
   40MOL0     H 5376   5.124   9.561   5.815  2.1341 -1.4347 -2.0596
   40MOL0     H 5377   5.193   9.488   5.955 -5.4687 -0.1187  1.1353
   40MOL0     H 5378   5.390   9.664   5.908 -0.9940  0.4534  0.2973
   40MOL0     H 5379   5.389   9.505   5.838 -0.9266 -0.4695  0.9577
   40MOL0     H 5380   4.361   9.589   6.368 -1.8882  0.3215  0.4406
   40MOL0     H 5381   4.186   9.687   6.475  0.5029  0.1931 -1.7232
   40MOL0     H 5382   4.052  10.008   6.789  0.2770 -1.9738 -3.8156
   40MOL0     H 5383   3.929  10.174   6.927  1.6025 -0.2249 -0.2491
   40MOL0     H 5384   3.710  11.186   6.137  0.9096 -1.1441  3.5011
   40MOL0     H 5385   3.947  11.159   6.021 -1.0074  1.8638  3.1799
   40MOL0     H 5386   4.280  10.952   5.949 -3.4543 -3.8005  0.2119
   40MOL0     H 5387   4.519  10.900   5.879 -0.4686  0.0216 -0.3755
   40MOL0     H 5388   4.739  10.716   5.551 -1.2428 -0.0646  1.8140
   40MOL0     H 5389   4.597  10.761   5.437 -0.3812 -1.1090 -1.3160
   40MOL0     H 5390   4.527  10.534   5.498 -2.4922 -0.1693  1.4278
   40MOL0     H 5391   4.449  10.639   5.592 -0.3631 -0.7388 -3.5851
   40MOL0     H 5392   4.541  10.476   5.748  1.2790 -1.7061 -0.0835
   40MOL0     H 5393   4.639  10.628   5.779  2.0441  1.0188 -0.6270
   40MOL0     H 5394   4.811  10.539   5.617 -0.5357 -0.5363 -1.2091
   40MOL0     H 5395   4.792  10.437   5.768  0.3599 -1.2561 -0.8644
   40MOL0     H 5396   4.630  10.162   5.494  1.2750 -0.5834 -0.0692
   40MOL0     H 5397   4.389  10.869   5.476 -3.2980 -0.1075 -1.4417
   40MOL0     H 5398   4.201  10.937   5.410  0.8344 -0.4236  0.9284
   40MOL0     H 5399   4.066  10.858   5.498  1.5866 -1.6189  0.6486
   40MOL0     H 5400   4.077  11.023   5.510  0.8257 -0.0535 -0.6550
   41MOL0     O 5401   7.027   1.455   6.344 -0.4570 -0.8611 -0.0570
   41MOL0     C 5402   6.956   1.390   6.415 -0.7828  0.9999 -0.5670
   41MOL0     O 5403   6.984   1.358   6.543  0.8139  0.1957 -0.4192
   41MOL0     C 5404   7.086   1.422   6.615  0.2191  0.4347  0.0583
   41MOL0     C 5405   7.099   1.564   6.614 -0.5726  0.1179  0.4569
   41MOL0     C 5406   7.193   1.625   6.693 -0.0388  1.0541  0.3628
   41MOL0     C 5407   7.280   1.554   6.773  0.3797  1.1262 -0.8301
   41MOL0     O 5408   7.366   1.633   6.850  0.6318 -0.2257 -0.0083
   41MOL0     C 5409   7.469   1.569   6.933 -0.2200 -0.6882 -0.2708
   41MOL0     C 5410   7.437   1.589   7.080  0.4188  0.4375 -0.3984
   41MOL0     C 5411   7.306   1.523   7.131 -0.4016 -1.5157 -0.1703
   41MOL0     C 5412   7.317   1.369   7.150  0.4175  0.0381 -0.6205
   41MOL0     C 5413   7.399   1.321   7.267  0.2096 -0.5717 -1.3718
   41MOL0     C 5414   7.426   1.168   7.272 -0.9405  0.1267  1.7591
   41MOL0     C 5415   7.505   1.121   7.391 -0.1636 -0.1752  0.5793
   41MOL0     C 5416   7.563   0.983   7.375 -0.0408 -0.1535 -0.8387
   41MOL0     N 5417   7.658   0.942   7.474 -0.3081  0.6689  0.7615
   41MOL0     C 5418   7.631   0.902   7.606  0.1528 -0.1409 -0.8416
   41MOL0     C 5419   7.750   0.851   7.661 -1.0307  0.0218  0.7117
   41MOL0     C 5420   7.782   0.790   7.792  0.2008 -0.2194 -0.3904
   41MOL0     C 5421   7.800   0.631   7.785  0.4872  1.3192 -0.2664
   41MOL0     C 5422   7.766   0.566   7.917  0.0054 -0.3594 -0.0581
   41MOL0     C 5423   7.783   0.424   7.943  0.4008 -0.2393  0.1726
   41MOL0     O 5424   7.883   0.397   8.043  0.7420 -0.1601  0.3142
   41MOL0     C 5425   7.875   0.279   8.102  0.3533  0.1270 -0.9593
   41MOL0     C 5426   7.969   0.270   8.206 -0.3670  0.0673 -0.9879
   41MOL0     C 5427   7.979   0.155   8.281 -0.1577 -2.0625  0.5486
   41MOL0     C 5428   7.900   0.050   8.258 -0.6737  1.1253  0.1442
   41MOL0     C 5429   7.935  -0.074   8.340  0.7601 -0.5418  0.8408
   41MOL0     O 5430   7.985  -0.052   8.455  0.3288 -1.5587 -0.5828
   41MOL0     C 5431   7.997  -0.145   8.558 -0.1485 -0.1738  0.8904
   41MOL0     C 5432   7.927  -0.272   8.559  0.0407 -0.3900  1.3312
   41MOL0     C 5433   7.958  -0.356   8.672  0.5664 -0.1543  1.1765
   41MOL0     C 5434   8.044  -0.313   8.771  0.1365 -0.0035 -0.1518
   41MOL0     O 5435   8.080  -0.400   8.868  0.4671  0.1650  0.0812
   41MOL0     C 5436   8.204  -0.396   8.933 -0.0094  0.7990  1.0183
   41MOL0     C 5437   8.232  -0.535   8.997 -0.8458 -0.0553 -0.2371
   41MOL0     C 5438   8.380  -0.538   9.059  0.5128 -0.3534  0.1309
   41MOL0     C 5439   8.411  -0.683   9.105 -0.5206  0.9605 -0.5775
   41MOL0     C 5440   8.459  -0.704   9.251  0.0794 -0.2765 -0.4816
   41MOL0     C 5441   8.583  -0.628   9.285  0.0579  0.2861 -0.2523
   41MOL0     C 5442   8.702  -0.669   9.190 -0.5588  0.1418  0.4394
   41MOL0     C 5443   8.756  -0.816   9.186 -0.0039 -0.2488 -0.0548
   41MOL0    Cl 5444   8.782  -0.882   9.351  0.5294  0.3559  0.5536
   41MOL0     C 5445   8.088  -0.185   8.771 -0.1806 -1.7139 -0.4052
   41MOL0     C 5446   8.055  -0.088   8.674  0.0004 -0.5649  0.1237
   41MOL0     O 5447   7.928  -0.184   8.280 -0.1826 -0.2374  0.0264
   41MOL0     C 5448   7.805   0.053   8.150  0.1950 -0.0053  0.9657
   41MOL0     C 5449   7.795   0.175   8.071  1.3813 -0.4942  0.5209
   41MOL0     N 5450   7.842   0.856   7.549 -0.0941 -0.2285  0.1175
   41MOL0     N 5451   7.785   0.893   7.441 -0.1253 -0.1204  0.1207
   41MOL0     C 5452   7.266   1.413   6.781 -0.1166  0.0931 -0.0402
   41MOL0     C 5453   7.173   1.348   6.699  0.7040  0.7595 -0.4529
   41MOL0     C 5454   6.836   1.312   6.359  0.1237 -0.6270  0.4621
   41MOL0     C 5455   6.828   1.321   6.220  0.6469 -0.2253  0.4492
   41MOL0     C 5456   6.726   1.244   6.157 -1.6506  0.2582  0.3235
   41MOL0     C 5457   6.634   1.169   6.218 -0.5037 -0.4242 -0.6701
   41MOL0     O 5458   6.547   1.080   6.149 -0.3740 -0.6611  0.5220
   41MOL0     C 5459   6.441   1.155   6.078 -1.7976 -0.2711  0.5002
   41MOL0     C 5460   6.319   1.191   6.158 -0.8391  0.5474  0.5853
   41MOL0     C 5461   6.229   1.065   6.189  0.4108  0.0730  0.1598
   41MOL0     C 5462   6.305   0.943   6.231 -0.7372  0.2946 -0.8857
   41MOL0     C 5463   6.211   0.839   6.288  0.2027 -0.4582 -0.1984
   41MOL0     C 5464   6.134   0.756   6.329 -0.4892  0.0964  0.0564
   41MOL0     C 5465   6.635   1.165   6.357  0.4392 -0.2255  0.0654
   41MOL0     C 5466   6.735   1.233   6.434 -1.1817  0.0983  0.4107
   41MOL0     C 5467   6.727   1.216   6.583 -0.4834  0.4301  0.6263
   41MOL0     H 5468   7.032   1.619   6.548  0.3903  2.6927  1.4721
   41MOL0     H 5469   7.214   1.731   6.688  1.0984  0.7939 -2.4176
   41MOL0     H 5470   7.486   1.463   6.908 -0.6640 -0.5794 -1.0451
   41MOL0     H 5471   7.563   1.618   6.905 -0.0632 -0.6430  0.3133
   41MOL0     H 5472   7.440   1.698   7.096  1.2030  0.5082 -0.9590
   41MOL0     H 5473   7.532   1.559   7.127  0.9906  0.6105 -1.4211
   41MOL0     H 5474   7.227   1.566   7.069 -0.6171 -0.1315  0.9976
   41MOL0     H 5475   7.286   1.570   7.228  0.6501 -0.1286 -0.5798
   41MOL0     H 5476   7.219   1.331   7.181 -0.0008  2.6883  1.7388
   41MOL0     H 5477   7.349   1.319   7.058 -0.4596 -0.5657 -0.6141
   41MOL0     H 5478   7.487   1.382   7.287 -0.2889 -0.8611  2.3699
   41MOL0     H 5479   7.336   1.335   7.355  2.3698  0.7298  0.0447
   41MOL0     H 5480   7.339   1.106   7.250  0.4126 -1.5659  0.9936
   41MOL0     H 5481   7.495   1.162   7.188 -2.0956  4.9239  0.1211
   41MOL0     H 5482   7.436   1.110   7.475 -1.9480 -2.2420 -1.0443
   41MOL0     H 5483   7.572   1.204   7.414 -0.5311 -0.3441  2.3751
   41MOL0     H 5484   7.487   0.904   7.376 -1.5873  1.2503  1.5143
   41MOL0     H 5485   7.613   0.986   7.277  0.8855  3.5880 -0.4019
   41MOL0     H 5486   7.540   0.924   7.660 -0.4024  0.5197 -1.9933
   41MOL0     H 5487   7.871   0.839   7.833  0.2371  1.0703 -1.9346
   41MOL0     H 5488   7.699   0.819   7.856 -0.1370 -1.4843 -0.2152
   41MOL0     H 5489   7.738   0.589   7.705  2.3409 -3.2224  0.3882
   41MOL0     H 5490   7.904   0.602   7.768 -0.1074 -0.1718 -1.6462
   41MOL0     H 5491   7.672   0.594   7.965 -0.1655 -1.5017  0.3121
   41MOL0     H 5492   7.852   0.619   7.959 -0.2229  1.1918 -1.4364
   41MOL0     H 5493   7.814   0.384   7.846  0.8751  0.9613 -0.1956
   41MOL0     H 5494   7.686   0.387   7.977 -0.3327  0.7639 -0.7749
   41MOL0     H 5495   8.040   0.349   8.227  2.8284 -2.2016 -2.3690
   41MOL0     H 5496   8.057   0.157   8.358 -2.9402 -0.4816  3.5743
   41MOL0     H 5497   7.855  -0.297   8.482 -1.5315  2.0236  1.8884
   41MOL0     H 5498   7.911  -0.453   8.684 -2.8875  0.6803 -3.2347
   41MOL0     H 5499   8.279  -0.378   8.856 -0.6931  0.9249  0.3732
   41MOL0     H 5500   8.221  -0.317   9.007 -0.9933  0.8528  1.2011
   41MOL0     H 5501   8.176  -0.553   9.089 -0.1289 -1.9468 -0.1376
   41MOL0     H 5502   8.213  -0.611   8.920  1.2917  0.4438 -1.3257
   41MOL0     H 5503   8.449  -0.500   8.984 -2.2230 -0.2521 -2.5117
   41MOL0     H 5504   8.374  -0.475   9.149  0.2996  0.6206 -0.5554
   41MOL0     H 5505   8.491  -0.714   9.038  1.0442  2.7787  0.3435
   41MOL0     H 5506   8.331  -0.757   9.091  1.7674 -1.7183 -0.4107
   41MOL0     H 5507   8.480  -0.810   9.266 -2.7729 -0.7465  0.7490
   41MOL0     H 5508   8.372  -0.684   9.314 -0.9216  0.0311 -1.9060
   41MOL0     H 5509   8.574  -0.519   9.286  3.1279  0.6277  0.4201
   41MOL0     H 5510   8.590  -0.661   9.389  2.1158 -1.2429 -0.8190
   41MOL0     H 5511   8.789  -0.610   9.219  1.4861 -3.1435  1.4827
   41MOL0     H 5512   8.696  -0.644   9.083  0.2060  0.7650  0.5368
   41MOL0     H 5513   8.678  -0.865   9.126 -1.0814 -0.5556  1.5334
   41MOL0     H 5514   8.848  -0.808   9.128 -1.3585  3.6248 -2.0838
   41MOL0     H 5515   8.146  -0.155   8.858 -2.2938  1.9854 -0.1001
   41MOL0     H 5516   8.085   0.017   8.674 -2.6753  0.4064 -3.5759
   41MOL0     H 5517   7.739  -0.030   8.128 -1.9450  2.3738 -2.8625
   41MOL0     H 5518   7.727   0.177   7.986  1.6028  0.9342  0.3551
   41MOL0     H 5519   7.319   1.344   6.846  1.9977  1.0386 -0.6766
   41MOL0     H 5520   7.150   1.243   6.717  1.1466  0.6758 -0.3525
   41MOL0     H 5521   6.902   1.376   6.163  0.3313 -0.5908 -0.3273
   41MOL0     H 5522   6.732   1.258   6.049 -0.0498  5.1691  0.7784
   41MOL0     H 5523   6.421   1.116   5.978 -0.4475  1.0085 -0.3103
   41MOL0     H 5524   6.496   1.250   6.069 -0.5656 -0.7471  2.3284
   41MOL0     H 5525   6.254   1.261   6.105 -1.2107  1.0549  1.6682
   41MOL0     H 5526   6.349   1.234   6.255  0.8055 -0.9289  0.7772
   41MOL0     H 5527   6.176   1.037   6.098 -0.1668  0.3824  0.3953
   41MOL0     H 5528   6.149   1.091   6.259  0.5672 -0.5171  0.5698
   41MOL0     H 5529   6.358   0.904   6.144 -0.6213 -1.1746 -0.1888
   41MOL0     H 5530   6.377   0.975   6.307 -2.8804  1.0583  0.9328
   41MOL0     H 5531   6.059   0.685   6.358  1.1100 -1.6050  0.2869
   41MOL0     H 5532   6.549   1.115   6.402  0.4865  0.8772  1.4375
   41MOL0     H 5533   6.761   1.308   6.632 -3.0680  1.4222  0.7586
   41MOL0     H 5534   6.620   1.220   6.607 -0.4232 -0.9601  1.2510
   41MOL0     H 5535   6.785   1.129   6.615  1.9755  1.3247 -1.1425
   42MOL0     O 5536   4.791  11.190   5.615  0.3923  0.3866  1.1296
   42MOL0     C 5537   4.673  11.208   5.583 -0.2416  1.9436 -0.7349
   42MOL0     O 5538   4.579  11.256   5.675 -0.2969 -0.9011  0.5838
   42MOL0     C 5539   4.592  11.240   5.815 -0.5963  0.7168 -0.4543
   42MOL0     C 5540   4.470  11.232   5.886  0.1722 -0.7440  1.1900
   42MOL0     C 5541   4.464  11.212   6.020  0.2091  0.4902 -0.3788
   42MOL0     C 5542   4.583  11.200   6.095  0.3195  0.3202  0.1659
   42MOL0     O 5543   4.559  11.148   6.225 -1.1279 -0.7622 -0.1102
   42MOL0     C 5544   4.634  11.204   6.333  0.2186  1.1750 -0.0720
   42MOL0     C 5545   4.598  11.350   6.382 -0.4221  0.0242 -1.3047
   42MOL0     C 5546   4.676  11.396   6.514 -0.1096  0.5736 -0.5017
   42MOL0     C 5547   4.613  11.342   6.637  0.4146 -0.4291 -0.4316
   42MOL0     C 5548   4.701  11.361   6.768  0.3787  0.5396  0.7549
   42MOL0     C 5549   4.804  11.248   6.782  0.4614  0.6563  0.6838
   42MOL0     C 5550   4.858  11.267   6.927 -1.2968 -0.1723  0.8290
   42MOL0     C 5551   4.804  11.164   7.031 -0.4446  0.3640  1.1804
   42MOL0     N 5552   4.864  11.175   7.162 -0.8442 -0.8799  0.2355
   42MOL0     C 5553   4.927  11.072   7.223 -0.2404 -0.3372  0.1509
   42MOL0     C 5554   4.974  11.134   7.337 -0.1358  0.5682  1.2006
   42MOL0     C 5555   5.027  11.063   7.454  0.1403 -0.1923  1.1892
   42MOL0     C 5556   4.917  11.004   7.548 -0.0798 -0.0137  0.3587
   42MOL0     C 5557   4.880  10.871   7.496  0.1097 -0.6150 -0.3338
   42MOL0     C 5558   4.966  10.758   7.534  1.5387  1.4853 -0.1782
   42MOL0     O 5559   4.892  10.633   7.514  0.2960 -0.4809  0.3301
   42MOL0     C 5560   4.930  10.517   7.582 -1.0186  0.0688  0.3730
   42MOL0     C 5561   4.847  10.404   7.571 -0.4617  0.1012 -0.1869
   42MOL0     C 5562   4.896  10.284   7.617 -1.1130  1.0039  0.5839
   42MOL0     C 5563   5.029  10.271   7.671  0.7712 -0.6273 -0.6725
   42MOL0     C 5564   5.074  10.134   7.716 -0.7899  0.3269  0.0796
   42MOL0     O 5565   4.968  10.040   7.735 -0.1803 -0.0610  0.2560
   42MOL0     C 5566   4.990   9.908   7.765 -0.2102 -0.1695  0.8701
   42MOL0     C 5567   4.870   9.826   7.765  0.1145 -0.4743 -0.3541
   42MOL0     C 5568   4.880   9.689   7.794  0.5356 -0.6037  1.0538
   42MOL0     C 5569   5.002   9.620   7.801 -0.6273  0.6478 -1.2596
   42MOL0     O 5570   5.019   9.480   7.815 -0.2259 -0.1656  0.5059
   42MOL0     C 5571   4.903   9.397   7.812  0.1446 -0.2681 -0.2394
   42MOL0     C 5572   4.952   9.259   7.839 -0.3791  0.1374  0.4536
   42MOL0     C 5573   5.057   9.240   7.952 -0.1155  0.2671  0.3639
   42MOL0     C 5574   5.096   9.091   7.960 -0.6942  0.1156 -0.6812
   42MOL0     C 5575   5.226   9.092   8.036 -0.5262  0.6834  0.3551
   42MOL0     C 5576   5.299   8.958   8.072  0.1780 -0.7452 -0.6033
   42MOL0     C 5577   5.228   8.822   8.095  0.6393  0.0397  0.9036
   42MOL0     C 5578   5.298   8.733   8.196  0.2619  0.6834  0.8934
   42MOL0    Cl 5579   5.320   8.576   8.115 -0.5045 -0.1982  0.0637
   42MOL0     C 5580   5.117   9.695   7.797 -1.0722  0.1348  0.1072
   42MOL0     C 5581   5.106   9.835   7.790  0.1389 -0.3514  0.0428
   42MOL0     O 5582   5.196  10.118   7.741 -0.0252 -0.8420  0.1769
   42MOL0     C 5583   5.113  10.387   7.681  0.4388  0.6567 -0.6288
   42MOL0     C 5584   5.055  10.509   7.634  0.2803 -0.6394  0.4492
   42MOL0     N 5585   4.940  11.270   7.334  0.7843 -0.2626 -0.2229
   42MOL0     N 5586   4.868  11.291   7.233 -0.2983 -0.9294 -0.4359
   42MOL0     C 5587   4.700  11.208   6.031  1.1076  0.1842 -0.5746
   42MOL0     C 5588   4.705  11.223   5.896  0.1831 -0.9118  0.0348
   42MOL0     C 5589   4.626  11.188   5.444  0.6136 -0.0839 -0.0037
   42MOL0     C 5590   4.492  11.221   5.420 -0.4133 -1.5554 -0.5489
   42MOL0     C 5591   4.437  11.188   5.293 -1.2105 -0.4507  0.8161
   42MOL0     C 5592   4.507  11.128   5.191  0.4138 -0.1841 -1.1731
   42MOL0     O 5593   4.446  11.100   5.069 -0.5126 -0.3723  0.0133
   42MOL0     C 5594   4.351  10.998   5.084 -0.2520 -0.3252 -0.0334
   42MOL0     C 5595   4.349  10.900   4.966 -0.9159  0.3628 -0.5086
   42MOL0     C 5596   4.433  10.779   4.992 -1.1516 -0.7394 -0.0795
   42MOL0     C 5597   4.352  10.658   5.051 -0.2201  0.3763 -0.3141
   42MOL0     C 5598   4.287  10.677   5.182 -0.0532 -0.2668  0.6691
   42MOL0     C 5599   4.202  10.681   5.273 -0.0206  0.4059  0.2286
   42MOL0     C 5600   4.637  11.089   5.221  0.0170  0.4727 -0.1220
   42MOL0     C 5601   4.702  11.119   5.341  0.8001 -0.1060 -0.2363
   42MOL0     C 5602   4.841  11.082   5.341  0.1729  0.6455 -0.9077
   42MOL0     H 5603   4.385  11.241   5.819  0.2378  1.3159  1.3207
   42MOL0     H 5604   4.373  11.192   6.075  0.9389  0.6018  0.9022
   42MOL0     H 5605   4.624  11.128   6.412  2.5532  0.4218 -0.4033
   42MOL0     H 5606   4.739  11.207   6.301  0.4584 -1.0517  0.3331
   42MOL0     H 5607   4.491  11.355   6.404 -0.2530 -1.0348 -0.0728
   42MOL0     H 5608   4.624  11.429   6.310  2.9155  0.6753  0.3852
   42MOL0     H 5609   4.671  11.505   6.510 -0.9845  0.6206  1.1341
   42MOL0     H 5610   4.783  11.372   6.504 -0.2976 -1.8963  2.0355
   42MOL0     H 5611   4.506  11.364   6.638  0.2740 -1.0981  0.3330
   42MOL0     H 5612   4.616  11.235   6.612 -2.5418 -0.7804  0.4012
   42MOL0     H 5613   4.751  11.458   6.775 -0.0237  1.0593 -2.2875
   42MOL0     H 5614   4.626  11.350   6.846  0.4777 -0.3767  0.7321
   42MOL0     H 5615   4.747  11.156   6.767  0.0716  0.9703  0.2178
   42MOL0     H 5616   4.878  11.252   6.702  0.9648 -1.6436  0.9763
   42MOL0     H 5617   4.855  11.371   6.960 -0.1462  0.5862 -1.2695
   42MOL0     H 5618   4.965  11.245   6.921 -1.0292  1.2075 -0.0093
   42MOL0     H 5619   4.699  11.190   7.048 -0.2867  2.6247 -0.8101
   42MOL0     H 5620   4.811  11.061   6.994 -0.9275  1.1339 -1.2626
   42MOL0     H 5621   4.938  10.969   7.190 -3.5627 -0.7301 -0.0327
   42MOL0     H 5622   5.074  10.974   7.413 -0.3711  1.2826 -3.0855
   42MOL0     H 5623   5.093  11.126   7.515  0.0238  0.9760  0.1387
   42MOL0     H 5624   4.952  10.996   7.652  3.9842 -2.1865 -0.9426
   42MOL0     H 5625   4.826  11.063   7.533  1.0920  1.4665 -1.3696
   42MOL0     H 5626   4.859  10.877   7.389 -2.2883 -0.3540  0.1068
   42MOL0     H 5627   4.782  10.853   7.541  0.5874  2.0576  2.1183
   42MOL0     H 5628   4.985  10.768   7.641 -0.8700 -1.3210  0.6273
   42MOL0     H 5629   5.054  10.750   7.469  0.0174 -3.9333 -2.1132
   42MOL0     H 5630   4.747  10.412   7.529 -0.4920 -1.9205 -0.5646
   42MOL0     H 5631   4.837  10.193   7.617 -0.8622  0.8029 -1.4455
   42MOL0     H 5632   4.774   9.875   7.762  0.1991 -0.3364 -0.8875
   42MOL0     H 5633   4.780   9.647   7.800 -0.9736  2.7002  0.8308
   42MOL0     H 5634   4.828   9.430   7.885 -0.8423  1.7900 -2.0709
   42MOL0     H 5635   4.848   9.414   7.719  3.4164  3.5956 -1.7399
   42MOL0     H 5636   4.863   9.201   7.866 -1.3135  1.2398 -0.1790
   42MOL0     H 5637   4.990   9.221   7.744 -2.5835 -0.9587 -0.0686
   42MOL0     H 5638   5.145   9.299   7.926 -0.2044 -0.5466 -2.1079
   42MOL0     H 5639   5.010   9.271   8.045  0.9055 -1.0407  1.3602
   42MOL0     H 5640   5.109   9.044   7.862 -1.3741 -0.1979 -0.6273
   42MOL0     H 5641   5.018   9.037   8.015  0.7420 -0.8228  0.5043
   42MOL0     H 5642   5.198   9.129   8.135  2.4361  2.2360  0.7285
   42MOL0     H 5643   5.299   9.163   7.995 -1.2412  2.0278  1.3168
   42MOL0     H 5644   5.359   8.926   7.986  0.3207  1.7773 -1.5414
   42MOL0     H 5645   5.363   8.982   8.157  0.3833 -1.3267 -0.5888
   42MOL0     H 5646   5.208   8.762   8.006  1.7617 -0.7487  1.1634
   42MOL0     H 5647   5.134   8.860   8.138 -0.0849 -3.3544  2.7118
   42MOL0     H 5648   5.395   8.776   8.226  0.9902 -0.4521  0.2205
   42MOL0     H 5649   5.246   8.719   8.291  2.5230  1.8284  2.4080
   42MOL0     H 5650   5.222   9.666   7.805 -0.3569  2.0951 -1.2105
   42MOL0     H 5651   5.197   9.895   7.795  0.9370 -1.3225 -1.7691
   42MOL0     H 5652   5.220  10.375   7.698  0.7115 -1.2586 -3.0756
   42MOL0     H 5653   5.125  10.592   7.631 -1.0326  0.5592  1.3415
   42MOL0     H 5654   4.793  11.194   6.085  1.7948  3.0858 -0.8302
   42MOL0     H 5655   4.796  11.232   5.837 -1.7464  1.3344 -2.8994
   42MOL0     H 5656   4.436  11.271   5.499  1.1046 -0.0847 -0.3507
   42MOL0     H 5657   4.332  11.210   5.277 -0.9875  1.1876  1.4821
   42MOL0     H 5658   4.255  11.047   5.103  0.1557  0.3819  0.2640
   42MOL0     H 5659   4.357  10.938   5.175 -0.4219  0.6653  0.6411
   42MOL0     H 5660   4.386  10.950   4.877 -2.6202 -1.8320 -2.6004
   42MOL0     H 5661   4.245  10.871   4.946 -1.5933  1.6355  0.8924
   42MOL0     H 5662   4.518  10.801   5.057 -1.7636  2.1051 -0.1102
   42MOL0     H 5663   4.475  10.745   4.897 -0.8479 -2.2181  0.5515
   42MOL0     H 5664   4.274  10.622   4.983 -1.0935 -1.1267  1.3839
   42MOL0     H 5665   4.418  10.572   5.060 -2.3142 -1.1987  1.0753
   42MOL0     H 5666   4.116  10.690   5.336 -3.0440  1.2934 -3.6615
   42MOL0     H 5667   4.690  11.026   5.150  0.0923  0.0865  0.2727
   42MOL0     H 5668   4.855  11.025   5.433  0.2216  3.6110  1.0611
   42MOL0     H 5669   4.874  11.018   5.259 -0.3187 -1.0125  0.1469
   42MOL0     H 5670   4.904  11.171   5.357 -4.7366  3.9525  3.3559
   43MOL0     O 5671   2.300   8.295   4.330 -0.2677 -0.6754  0.2200
   43MOL0     C 5672   2.357   8.229   4.413 -0.0898 -0.8403 -0.5523
   43MOL0     O 5673   2.472   8.167   4.394 -0.2571  0.4796  0.1394
   43MOL0     C 5674   2.521   8.151   4.266 -0.3960  0.7402 -0.3967
   43MOL0     C 5675   2.662   8.180   4.243  0.6725 -0.2354 -0.1723
   43MOL0     C 5676   2.710   8.147   4.121 -0.8039  0.3254  0.6601
   43MOL0     C 5677   2.631   8.112   4.015  0.6404 -1.1660  0.2988
   43MOL0     O 5678   2.685   8.077   3.892  0.2140 -0.1142  0.8202
   43MOL0     C 5679   2.623   7.968   3.814 -0.8330  0.6547  0.3952
   43MOL0     C 5680   2.637   7.972   3.663 -0.2116 -0.1325  1.2245
   43MOL0     C 5681   2.580   7.843   3.603  0.1809  0.8436  0.1655
   43MOL0     C 5682   2.592   7.814   3.450  0.7024  0.2503 -0.3910
   43MOL0     C 5683   2.473   7.724   3.407 -1.1723  0.5409  0.2138
   43MOL0     C 5684   2.499   7.652   3.269  0.0391 -0.3128 -0.3664
   43MOL0     C 5685   2.380   7.551   3.256 -0.0866  0.1401  0.3647
   43MOL0     C 5686   2.415   7.453   3.145 -0.9199 -0.0678 -0.1110
   43MOL0     N 5687   2.322   7.347   3.150 -0.1864 -0.4165  0.4349
   43MOL0     C 5688   2.194   7.342   3.187  0.6171 -0.0611 -0.3757
   43MOL0     C 5689   2.150   7.210   3.157  0.0942 -0.9520  0.0612
   43MOL0     C 5690   2.016   7.159   3.185 -1.2126 -0.0584  0.1414
   43MOL0     C 5691   1.913   7.190   3.082  0.0896  0.6289  0.4634
   43MOL0     C 5692   1.884   7.332   3.078 -0.4538  0.0467  0.4288
   43MOL0     C 5693   1.771   7.367   2.976  1.4796  0.2929 -0.0798
   43MOL0     O 5694   1.811   7.335   2.853  0.1053 -0.8688  0.6380
   43MOL0     C 5695   1.742   7.395   2.749  0.3319  0.2898  0.0435
   43MOL0     C 5696   1.782   7.364   2.613  0.3622  0.8252 -0.0074
   43MOL0     C 5697   1.714   7.416   2.506 -0.2931 -0.1058 -0.0161
   43MOL0     C 5698   1.607   7.505   2.517 -0.0974  0.0669 -0.8358
   43MOL0     C 5699   1.548   7.556   2.397  0.6998 -0.5821  0.3168
   43MOL0     O 5700   1.627   7.583   2.295  0.6880  0.8214 -0.1021
   43MOL0     C 5701   1.590   7.624   2.174 -0.3072 -0.2361 -0.1423
   43MOL0     C 5702   1.476   7.582   2.099  0.2826 -0.0330 -0.0005
   43MOL0     C 5703   1.433   7.658   1.986  0.2752 -0.5824 -0.6462
   43MOL0     C 5704   1.511   7.758   1.940 -0.9742 -0.2880  0.7773
   43MOL0     O 5705   1.480   7.818   1.818 -0.0489  0.2833 -0.6485
   43MOL0     C 5706   1.483   7.959   1.819  0.1448  0.3896 -0.4815
   43MOL0     C 5707   1.362   8.029   1.870  0.4547 -0.2079 -0.0850
   43MOL0     C 5708   1.355   8.178   1.861 -0.5856 -0.0436 -0.2072
   43MOL0     C 5709   1.212   8.223   1.896 -1.0608  0.3496 -0.7675
   43MOL0     C 5710   1.186   8.364   1.862 -0.0192 -0.2868  0.4002
   43MOL0     C 5711   1.118   8.390   1.721 -0.3156  0.3264 -0.2926
   43MOL0     C 5712   1.191   8.366   1.591 -0.8347 -0.4976 -0.8585
   43MOL0     C 5713   1.104   8.385   1.456  0.1800 -0.0666  0.9214
   43MOL0    Cl 5714   1.101   8.561   1.432  0.0844 -0.1738  0.2051
   43MOL0     C 5715   1.644   7.789   2.006 -0.2314 -0.8118 -0.1934
   43MOL0     C 5716   1.674   7.718   2.125  0.7806  0.4326  1.1347
   43MOL0     O 5717   1.426   7.566   2.390  0.1047  0.1665  0.7684
   43MOL0     C 5718   1.553   7.525   2.651 -0.0200 -0.4900 -0.9078
   43MOL0     C 5719   1.629   7.481   2.760  0.5505 -0.1177 -0.4707
   43MOL0     N 5720   2.271   7.148   3.127  0.8951 -0.2010  0.0984
   43MOL0     N 5721   2.369   7.231   3.116  0.7471 -0.0215 -1.2250
   43MOL0     C 5722   2.487   8.100   4.037  0.2927  0.1111 -0.1979
   43MOL0     C 5723   2.429   8.118   4.164  0.1134  0.8313 -0.6945
   43MOL0     C 5724   2.291   8.239   4.549 -0.6179 -0.6124  0.7107
   43MOL0     C 5725   2.359   8.183   4.662  1.1679 -0.0554 -0.5754
   43MOL0     C 5726   2.303   8.175   4.793  0.3786 -0.1930 -0.1765
   43MOL0     C 5727   2.177   8.236   4.821  0.5074 -0.9051  0.7842
   43MOL0     O 5728   2.122   8.235   4.945  0.9011  1.1111 -0.2383
   43MOL0     C 5729   2.169   8.145   5.047 -0.7057  0.3905  0.3687
   43MOL0     C 5730   2.295   8.210   5.108 -0.4290 -0.0350  0.2361
   43MOL0     C 5731   2.281   8.265   5.248  0.2487  1.0687  0.2339
   43MOL0     C 5732   2.197   8.392   5.236  0.7212 -0.4840 -0.5062
   43MOL0     C 5733   2.167   8.466   5.362 -0.0728 -0.0354  0.7419
   43MOL0     C 5734   2.148   8.522   5.464 -0.3983  0.0622  0.5072
   43MOL0     C 5735   2.107   8.287   4.717  0.0844 -0.3615 -0.4883
   43MOL0     C 5736   2.165   8.287   4.587  0.0387  0.2634 -1.8445
   43MOL0     C 5737   2.077   8.352   4.479  0.4497 -0.4721  0.4331
   43MOL0     H 5738   2.723   8.208   4.328 -2.3985  1.5917  1.6084
   43MOL0     H 5739   2.818   8.147   4.114 -0.7061  1.2863  1.8448
   43MOL0     H 5740   2.680   7.879   3.843  0.8384  2.5831  3.5473
   43MOL0     H 5741   2.519   7.937   3.827 -0.0009 -1.7813  1.7319
   43MOL0     H 5742   2.741   7.991   3.634 -0.3859 -0.5859  0.2582
   43MOL0     H 5743   2.602   8.060   3.610  2.8017  1.7735  2.1743
   43MOL0     H 5744   2.472   7.845   3.624 -0.5303 -3.4465 -1.8181
   43MOL0     H 5745   2.639   7.764   3.649 -1.1549  0.5030  1.3858
   43MOL0     H 5746   2.593   7.911   3.400 -3.0090  0.1211 -0.9794
   43MOL0     H 5747   2.687   7.764   3.431  2.4566  3.1719 -0.0357
   43MOL0     H 5748   2.469   7.653   3.490  2.2667  1.4641  1.3181
   43MOL0     H 5749   2.379   7.781   3.410 -0.0269  2.5319  0.0715
   43MOL0     H 5750   2.513   7.731   3.194  1.4857  0.7972  1.0160
   43MOL0     H 5751   2.593   7.596   3.267 -1.6757 -3.4253 -2.0743
   43MOL0     H 5752   2.286   7.606   3.251  1.1946  2.4947  0.6516
   43MOL0     H 5753   2.360   7.487   3.342 -2.8083  0.1914 -0.1477
   43MOL0     H 5754   2.417   7.495   3.045  0.7689 -2.6387 -1.2547
   43MOL0     H 5755   2.519   7.421   3.159 -0.9557  0.2051  0.8460
   43MOL0     H 5756   2.123   7.413   3.229  1.7526  0.2184  1.1325
   43MOL0     H 5757   2.032   7.052   3.200 -0.4431  0.1914  1.2848
   43MOL0     H 5758   1.973   7.204   3.275 -0.0110  0.9729  0.2333
   43MOL0     H 5759   1.944   7.136   2.991  2.1683  0.1904  1.3734
   43MOL0     H 5760   1.822   7.134   3.106  0.2562  0.1229 -0.0586
   43MOL0     H 5761   1.969   7.390   3.042 -1.2235  0.8329 -0.1905
   43MOL0     H 5762   1.874   7.374   3.179  2.5889  1.0384  0.4078
   43MOL0     H 5763   1.769   7.476   2.985  1.9107  0.4281 -1.4278
   43MOL0     H 5764   1.676   7.322   3.009  1.5032  0.8371  0.7638
   43MOL0     H 5765   1.859   7.293   2.582 -2.7070 -2.9169  0.1853
   43MOL0     H 5766   1.744   7.383   2.407  0.4738 -1.2246  0.5715
   43MOL0     H 5767   1.400   7.512   2.131  0.3395 -0.8219 -1.4953
   43MOL0     H 5768   1.337   7.649   1.936  0.3238  2.5798 -1.5722
   43MOL0     H 5769   1.567   7.993   1.880 -1.9996  1.2608  2.2017
   43MOL0     H 5770   1.494   7.994   1.716 -1.2599  0.7006 -0.5434
   43MOL0     H 5771   1.282   7.994   1.804 -2.1970  3.2143  1.0532
   43MOL0     H 5772   1.343   8.000   1.974  2.5009 -0.2387  0.3228
   43MOL0     H 5773   1.434   8.220   1.923 -0.3774 -4.2786  2.8537
   43MOL0     H 5774   1.370   8.213   1.759 -0.0485  0.6155  0.0888
   43MOL0     H 5775   1.194   8.217   2.004  1.0556  0.0425 -0.3899
   43MOL0     H 5776   1.138   8.158   1.849  0.8991 -3.3589  0.8921
   43MOL0     H 5777   1.278   8.421   1.873  0.3408 -1.0552  1.4256
   43MOL0     H 5778   1.123   8.416   1.934  1.2797  2.8922 -0.5984
   43MOL0     H 5779   1.027   8.332   1.704  0.3764 -1.3136  1.2612
   43MOL0     H 5780   1.106   8.499   1.731 -2.6121 -0.0635  5.3659
   43MOL0     H 5781   1.248   8.273   1.593  3.0429  1.6838 -0.6814
   43MOL0     H 5782   1.264   8.446   1.590 -1.8401  0.4477 -0.5648
   43MOL0     H 5783   1.145   8.331   1.369 -2.9390  1.6594 -1.8786
   43MOL0     H 5784   1.003   8.344   1.458 -0.0418  0.0866 -1.9368
   43MOL0     H 5785   1.719   7.863   1.981 -1.4059  1.6105  2.7824
   43MOL0     H 5786   1.775   7.734   2.160  1.5956  0.2687 -0.9820
   43MOL0     H 5787   1.465   7.586   2.665  0.9727  0.4131  2.1035
   43MOL0     H 5788   1.584   7.502   2.856 -0.3082 -0.9189 -0.6796
   43MOL0     H 5789   2.422   8.077   3.954  0.4143  0.7241 -0.4698
   43MOL0     H 5790   2.321   8.106   4.162  0.2295 -0.2009 -1.7648
   43MOL0     H 5791   2.460   8.150   4.643  1.1480 -1.6019  1.6029
   43MOL0     H 5792   2.364   8.119   4.864  2.9861 -0.4338 -2.3983
   43MOL0     H 5793   2.184   8.047   4.999  1.0085 -0.9164  3.2747
   43MOL0     H 5794   2.099   8.121   5.127 -1.6911 -0.8910 -0.8221
   43MOL0     H 5795   2.341   8.281   5.038  0.7002 -4.0469 -3.4734
   43MOL0     H 5796   2.370   8.133   5.129 -0.9727 -0.6848 -0.1875
   43MOL0     H 5797   2.384   8.287   5.278 -0.5903  0.8681  3.7109
   43MOL0     H 5798   2.258   8.187   5.322 -0.7692  0.0066 -1.1463
   43MOL0     H 5799   2.262   8.458   5.177  3.0200 -1.2480  1.0607
   43MOL0     H 5800   2.108   8.368   5.177  0.5997  1.1087 -1.0353
   43MOL0     H 5801   2.137   8.569   5.560  4.0352  1.7191  0.4023
   43MOL0     H 5802   2.007   8.324   4.733  0.4236  1.4678 -2.1640
   43MOL0     H 5803   1.981   8.379   4.523  2.0061  2.7120  2.2221
   43MOL0     H 5804   2.132   8.440   4.443  1.4890 -0.3052  2.2885
   43MOL0     H 5805   2.057   8.292   4.390 -2.2054  4.3443 -2.7021
   44MOL0     O 5806   7.701  10.730   7.032  0.3303  0.5641 -0.0215
   44MOL0     C 5807   7.697  10.644   6.941  0.0570  0.3668 -0.7300
   44MOL0     O 5808   7.782  10.538   6.940 -0.1312  0.9782 -0.3047
   44MOL0     C 5809   7.907  10.552   6.990  0.6286  0.0806 -1.2688
   44MOL0     C 5810   7.968  10.455   7.073  0.4432  0.4524  0.2412
   44MOL0     C 5811   8.092  10.474   7.124  0.4864 -0.7786  0.2181
   44MOL0     C 5812   8.165  10.598   7.101  0.7144 -0.4811  0.7509
   44MOL0     O 5813   8.282  10.632   7.152 -0.3569  0.5990 -0.6815
   44MOL0     C 5814   8.316  10.572   7.271 -0.0010 -0.2879 -0.1140
   44MOL0     C 5815   8.435  10.625   7.337  0.1650 -0.2929  0.3362
   44MOL0     C 5816   8.544  10.665   7.243  1.0420 -0.7353 -0.4313
   44MOL0     C 5817   8.619  10.567   7.165 -1.0945  0.8632 -1.1824
   44MOL0     C 5818   8.744  10.624   7.112 -0.3420  0.3472 -0.3540
   44MOL0     C 5819   8.827  10.518   7.045 -0.3642  0.5192 -0.2677
   44MOL0     C 5820   8.972  10.563   7.002  0.2698 -0.0160 -0.0259
   44MOL0     C 5821   9.082  10.446   6.996 -0.4908 -0.9370  0.9003
   44MOL0     N 5822   9.059  10.325   6.920  0.7370 -0.6526 -0.4070
   44MOL0     C 5823   9.074  10.312   6.785  0.1514 -0.1769 -0.0896
   44MOL0     C 5824   9.055  10.185   6.758  0.0904  0.5283 -0.0548
   44MOL0     C 5825   9.096  10.113   6.630 -0.6588 -0.8321  0.0801
   44MOL0     C 5826   9.232  10.058   6.653  0.0308  0.1950  0.2857
   44MOL0     C 5827   9.314   9.998   6.536 -0.3294  1.4032  0.1634
   44MOL0     C 5828   9.443   9.915   6.583 -0.2565 -0.4890  0.6381
   44MOL0     O 5829   9.423   9.825   6.690  0.3770  0.6213 -0.0671
   44MOL0     C 5830   9.325   9.738   6.686 -0.4502  0.3763 -0.8140
   44MOL0     C 5831   9.271   9.689   6.570  1.0373 -0.4597  0.6851
   44MOL0     C 5832   9.178   9.587   6.573  0.4698  0.1933  0.7347
   44MOL0     C 5833   9.151   9.519   6.693  0.0159  0.0900  0.1923
   44MOL0     C 5834   9.053   9.406   6.702  0.4003  0.8401 -1.0454
   44MOL0     O 5835   9.032   9.371   6.834 -0.6022 -0.1884  0.2169
   44MOL0     C 5836   8.942   9.280   6.859  0.7993 -0.2341  0.2510
   44MOL0     C 5837   8.999   9.157   6.896  0.0720 -0.9593  0.6375
   44MOL0     C 5838   8.921   9.047   6.933 -0.5620  0.6085  0.4234
   44MOL0     C 5839   8.776   9.055   6.928 -0.3826  0.7015 -0.1782
   44MOL0     O 5840   8.704   8.938   6.959  0.7298 -0.2276  0.6431
   44MOL0     C 5841   8.734   8.867   7.081  0.7594 -0.6316  0.9158
   44MOL0     C 5842   8.664   8.733   7.112 -0.5010 -0.8522  0.3690
   44MOL0     C 5843   8.663   8.701   7.268  0.1757  0.2169  0.5118
   44MOL0     C 5844   8.660   8.550   7.282  0.6751  1.2444 -0.1087
   44MOL0     C 5845   8.588   8.518   7.410  0.6587  1.5665  0.4794
   44MOL0     C 5846   8.581   8.368   7.440  0.0368 -0.1150  0.2380
   44MOL0     C 5847   8.486   8.274   7.351 -0.0177  0.0805 -0.3864
   44MOL0     C 5848   8.379   8.194   7.423  0.5076 -0.0735 -1.4057
   44MOL0    Cl 5849   8.484   8.097   7.549  0.3760 -0.6835 -0.2413
   44MOL0     C 5850   8.729   9.180   6.879  0.2220 -0.2742 -0.2988
   44MOL0     C 5851   8.806   9.290   6.853  1.0742 -0.3476  0.3594
   44MOL0     O 5852   8.983   9.379   6.603  0.0794  0.1529 -0.5122
   44MOL0     C 5853   9.197   9.583   6.807  0.3187  0.9090 -0.0611
   44MOL0     C 5854   9.283   9.692   6.806  0.0158 -0.7311  0.0734
   44MOL0     N 5855   9.012  10.117   6.874 -0.0797  0.4448  0.1255
   44MOL0     N 5856   9.003  10.209   6.965 -0.4939 -0.0556 -0.6762
   44MOL0     C 5857   8.105  10.684   7.009  0.6820 -0.2547  0.6969
   44MOL0     C 5858   7.973  10.669   6.961  0.2086  0.4714 -0.0465
   44MOL0     C 5859   7.599  10.659   6.824 -0.4076 -0.0426 -0.2909
   44MOL0     C 5860   7.618  10.577   6.716 -0.2312 -0.1927  0.4964
   44MOL0     C 5861   7.535  10.585   6.602  0.5316 -0.0472  0.1942
   44MOL0     C 5862   7.436  10.670   6.608 -1.6351 -0.9524 -0.3921
   44MOL0     O 5863   7.349  10.677   6.501  0.2895  0.2646  0.0395
   44MOL0     C 5864   7.290  10.800   6.461  1.0576 -0.4391 -1.2871
   44MOL0     C 5865   7.139  10.806   6.517  0.7677  0.0775  0.3118
   44MOL0     C 5866   7.040  10.726   6.427  0.0295 -0.3445 -0.3768
   44MOL0     C 5867   6.904  10.727   6.495  0.6387 -0.6526  0.7365
   44MOL0     C 5868   6.820  10.642   6.404 -0.5991  0.6083  0.0654
   44MOL0     C 5869   6.760  10.562   6.333  0.1489  0.4467 -0.2449
   44MOL0     C 5870   7.422  10.757   6.717  0.6193  0.4034 -0.2355
   44MOL0     C 5871   7.496  10.749   6.830  0.6042  0.8715  0.4647
   44MOL0     C 5872   7.437  10.812   6.964  0.2644  0.6910 -0.4552
   44MOL0     H 5873   7.923  10.357   7.080  0.1958  0.5521  0.0564
   44MOL0     H 5874   8.153  10.401   7.175  2.1065  1.5349  1.7756
   44MOL0     H 5875   8.228  10.579   7.335  1.4296 -0.8008  2.0032
   44MOL0     H 5876   8.332  10.466   7.250  0.1002 -0.3498  0.2793
   44MOL0     H 5877   8.473  10.549   7.407  0.2299 -0.7125 -0.1432
   44MOL0     H 5878   8.412  10.710   7.402 -0.0449 -1.9719  2.6219
   44MOL0     H 5879   8.613  10.721   7.307  0.9145 -0.1435 -0.8026
   44MOL0     H 5880   8.501  10.746   7.183 -0.1277  1.0552  2.5692
   44MOL0     H 5881   8.631  10.483   7.235  0.7837  0.6585 -1.6938
   44MOL0     H 5882   8.556  10.531   7.083 -0.3158 -2.7892 -0.3533
   44MOL0     H 5883   8.718  10.697   7.035 -4.5623 -1.7455 -1.2138
   44MOL0     H 5884   8.802  10.669   7.193 -0.1765 -2.3162  1.1146
   44MOL0     H 5885   8.850  10.443   7.122  0.7122  1.1596  0.0620
   44MOL0     H 5886   8.777  10.479   6.956  1.5316 -0.5727 -0.9033
   44MOL0     H 5887   9.000  10.648   7.065 -1.3455 -1.8273  3.3642
   44MOL0     H 5888   8.951  10.600   6.901 -3.0504  0.8151  0.8476
   44MOL0     H 5889   9.168  10.499   6.953 -0.6182  0.3320  2.1101
   44MOL0     H 5890   9.112  10.421   7.099  2.1356 -0.0693  0.4372
   44MOL0     H 5891   9.109  10.393   6.722 -0.8958 -1.2102 -2.0961
   44MOL0     H 5892   9.020  10.035   6.625  0.6492 -2.0949 -1.5960
   44MOL0     H 5893   9.072  10.169   6.539  0.2162 -2.6649 -1.3626
   44MOL0     H 5894   9.294  10.142   6.685 -0.5624  1.0327 -0.7201
   44MOL0     H 5895   9.229   9.971   6.720  2.5265 -1.6297 -1.7717
   44MOL0     H 5896   9.336  10.080   6.467 -0.8544  1.0123 -0.4843
   44MOL0     H 5897   9.246   9.929   6.485 -0.7702 -0.8708  3.4965
   44MOL0     H 5898   9.517   9.984   6.625 -1.0797  1.3372 -0.7493
   44MOL0     H 5899   9.503   9.872   6.503  2.0744  2.3439  0.7051
   44MOL0     H 5900   9.317   9.719   6.477  3.8177 -2.3383  1.3467
   44MOL0     H 5901   9.136   9.548   6.481  0.4686  3.0852 -0.6235
   44MOL0     H 5902   9.107   9.151   6.889 -0.0330 -0.8677 -2.0281
   44MOL0     H 5903   8.964   8.956   6.973 -0.2233  0.7721  0.4359
   44MOL0     H 5904   8.838   8.834   7.073  0.5282 -0.9509 -1.2476
   44MOL0     H 5905   8.729   8.940   7.162  1.7448  1.9280 -1.1917
   44MOL0     H 5906   8.563   8.742   7.070  0.4472 -2.1172 -2.4125
   44MOL0     H 5907   8.717   8.659   7.051  0.0447 -0.6221  0.5601
   44MOL0     H 5908   8.757   8.734   7.314 -0.5289 -0.5135  2.5932
   44MOL0     H 5909   8.584   8.748   7.327 -0.9784  0.2778 -1.0298
   44MOL0     H 5910   8.767   8.528   7.287  1.1197  2.6475 -2.1939
   44MOL0     H 5911   8.616   8.492   7.200  2.4305 -0.1488 -0.1091
   44MOL0     H 5912   8.488   8.558   7.395  0.7922  1.7094 -0.0602
   44MOL0     H 5913   8.632   8.566   7.497  0.3629 -0.4838  1.8265
   44MOL0     H 5914   8.683   8.329   7.443 -0.0289 -0.3509 -0.5081
   44MOL0     H 5915   8.540   8.357   7.541 -0.5320  2.1376  0.3079
   44MOL0     H 5916   8.546   8.202   7.294  1.3704  3.1529 -3.0992
   44MOL0     H 5917   8.442   8.345   7.280  0.5351  0.6589 -0.1497
   44MOL0     H 5918   8.311   8.265   7.471  1.2270  0.7192 -1.5370
   44MOL0     H 5919   8.335   8.123   7.351  0.7371 -0.1689 -1.4536
   44MOL0     H 5920   8.622   9.194   6.866  0.2536  1.0930  0.6756
   44MOL0     H 5921   8.746   9.378   6.830 -3.2873 -3.3383 -1.0108
   44MOL0     H 5922   9.154   9.553   6.902  0.5911  2.6449  0.6506
   44MOL0     H 5923   9.307   9.756   6.889  1.0392 -0.4665 -0.4081
   44MOL0     H 5924   8.170  10.771   6.998 -0.3438  0.8603  2.8436
   44MOL0     H 5925   7.929  10.745   6.898 -1.6169 -3.6692 -4.4120
   44MOL0     H 5926   7.687  10.493   6.715 -1.0995 -0.9911  2.4652
   44MOL0     H 5927   7.545  10.532   6.508 -4.4797  3.2659 -2.6665
   44MOL0     H 5928   7.282  10.792   6.353  2.4815 -2.1652 -1.3180
   44MOL0     H 5929   7.345  10.888   6.495  0.0664 -0.6029  0.8878
   44MOL0     H 5930   7.102  10.909   6.523 -1.9187 -0.7399 -0.7843
   44MOL0     H 5931   7.144  10.759   6.616 -0.1620  3.1979  1.9810
   44MOL0     H 5932   7.071  10.621   6.420  1.0137 -0.0339 -0.8991
   44MOL0     H 5933   7.043  10.770   6.327 -0.4363 -0.8475 -0.6144
   44MOL0     H 5934   6.899  10.682   6.594 -0.9349  1.4952  1.7087
   44MOL0     H 5935   6.855  10.825   6.494 -0.8267 -1.3504 -0.0799
   44MOL0     H 5936   6.712  10.482   6.281  4.0355  0.0935 -3.7436
   44MOL0     H 5937   7.339  10.827   6.724  0.8496  0.7268 -0.7324
   44MOL0     H 5938   7.411  10.730   7.032 -1.5114  2.5228  1.1970
   44MOL0     H 5939   7.509  10.875   7.016  0.5341  2.7112 -3.0947
   44MOL0     H 5940   7.353  10.879   6.946 -0.9428 -0.2836  1.1904
   45MOL0     O 5941  10.120   7.343   7.710 -1.1322 -0.5542 -0.6479
   45MOL0     C 5942  10.223   7.406   7.709  0.2241 -1.8114  1.3049
   45MOL0     O 5943  10.249   7.511   7.789 -0.3338  1.3902 -0.2871
   45MOL0     C 5944  10.166   7.530   7.901  0.1699 -0.0274  0.7481
   45MOL0     C 5945  10.040   7.580   7.901 -0.0719  0.6554  0.9676
   45MOL0     C 5946   9.978   7.607   8.020  1.0090  0.0094  0.3178
   45MOL0     C 5947  10.042   7.595   8.144 -0.0371 -0.2411  0.3735
   45MOL0     O 5948   9.985   7.654   8.252  0.1757  0.0020 -1.4726
   45MOL0     C 5949  10.065   7.751   8.319 -0.5953  0.3288 -0.0883
   45MOL0     C 5950  10.027   7.756   8.469 -1.1791  0.0105 -0.3312
   45MOL0     C 5951   9.916   7.855   8.505 -0.5068  0.1346 -0.3925
   45MOL0     C 5952   9.780   7.792   8.502 -0.1736 -0.8532 -0.5484
   45MOL0     C 5953   9.665   7.885   8.560  0.1695  0.5294  0.3141
   45MOL0     C 5954   9.646   8.005   8.467 -0.9496  0.3469 -0.1316
   45MOL0     C 5955   9.496   8.050   8.464 -0.8701 -0.3473  0.3583
   45MOL0     C 5956   9.444   8.172   8.381  0.1236 -0.0623  0.5434
   45MOL0     N 5957   9.453   8.157   8.230  0.9723 -1.3790 -0.4944
   45MOL0     C 5958   9.557   8.200   8.162  0.6894  0.9471  0.5946
   45MOL0     C 5959   9.535   8.162   8.032  0.8243  0.6214 -0.3274
   45MOL0     C 5960   9.620   8.173   7.907  1.3696  0.0379  0.6001
   45MOL0     C 5961   9.730   8.070   7.891  0.0315  0.1420  0.1623
   45MOL0     C 5962   9.857   8.068   7.996 -0.2082  0.5114 -0.1599
   45MOL0     C 5963   9.940   7.938   7.974  0.7100  0.4434  0.0121
   45MOL0     O 5964   9.996   7.923   7.838  0.4450  0.3261 -0.0585
   45MOL0     C 5965  10.124   7.974   7.821  0.6541  0.4721  0.4971
   45MOL0     C 5966  10.219   7.883   7.767 -0.2212 -0.7886 -0.3047
   45MOL0     C 5967  10.352   7.926   7.742  0.3021 -0.8008  0.2732
   45MOL0     C 5968  10.389   8.066   7.768 -0.3244  0.5666 -0.4806
   45MOL0     C 5969  10.528   8.109   7.750  0.9660 -0.1552  0.3590
   45MOL0     O 5970  10.546   8.250   7.767 -0.1305 -0.0282  0.7495
   45MOL0     C 5971  10.649   8.332   7.759 -0.3479  0.6186 -0.6384
   45MOL0     C 5972  10.769   8.273   7.785  0.7059 -0.3485  0.0223
   45MOL0     C 5973  10.890   8.343   7.770 -0.3943  0.0786 -0.7815
   45MOL0     C 5974  10.893   8.473   7.732  0.2315  0.8960  0.1185
   45MOL0     O 5975  11.007   8.556   7.710 -0.3454  0.0159 -0.0533
   45MOL0     C 5976  11.126   8.521   7.781  0.8835 -0.2970 -0.2017
   45MOL0     C 5977  11.225   8.644   7.800  0.4035  0.3284  0.3955
   45MOL0     C 5978  11.360   8.595   7.841 -0.2057 -1.0709 -0.3214
   45MOL0     C 5979  11.473   8.693   7.784 -0.1071  0.2295  0.9662
   45MOL0     C 5980  11.619   8.678   7.843 -0.1850 -0.4603  0.5604
   45MOL0     C 5981  11.707   8.759   7.748  0.2821  0.4222  0.6470
   45MOL0     C 5982  11.862   8.763   7.775  0.5491 -0.0146 -0.8195
   45MOL0     C 5983  11.935   8.648   7.699  0.6269 -0.5592 -0.6467
   45MOL0    Cl 5984  12.111   8.678   7.729  0.7488  0.1252 -0.1262
   45MOL0     C 5985  10.767   8.530   7.694  0.0130  0.1625  0.2973
   45MOL0     C 5986  10.646   8.465   7.720  0.7860 -0.1946 -0.0891
   45MOL0     O 5987  10.616   8.028   7.726 -0.7115 -0.3938  0.1267
   45MOL0     C 5988  10.283   8.159   7.813  0.0230  0.5208  0.2076
   45MOL0     C 5989  10.152   8.109   7.828  0.2882 -0.6237 -0.5650
   45MOL0     N 5990   9.415   8.089   8.031  0.3359  0.3376 -0.7804
   45MOL0     N 5991   9.363   8.091   8.149  1.0441 -0.5652  0.0988
   45MOL0     C 5992  10.167   7.531   8.142 -0.0330  0.7912 -0.4414
   45MOL0     C 5993  10.232   7.499   8.023 -0.0894  0.4137  0.0002
   45MOL0     C 5994  10.318   7.375   7.589  0.5028 -0.6620 -0.1342
   45MOL0     C 5995  10.267   7.274   7.501 -0.1708  0.5927 -0.6432
   45MOL0     C 5996  10.342   7.233   7.387 -0.1804 -0.2847 -0.1911
   45MOL0     C 5997  10.464   7.304   7.353  0.2785  0.2103 -0.5617
   45MOL0     O 5998  10.549   7.290   7.236  0.1468 -0.5912 -0.1129
   45MOL0     C 5999  10.473   7.265   7.109 -0.4212 -0.3344  0.1465
   45MOL0     C 6000  10.373   7.365   7.082 -0.8960 -0.4286  0.3836
   45MOL0     C 6001  10.320   7.365   6.938 -0.4313 -0.1115 -0.6802
   45MOL0     C 6002  10.416   7.429   6.846 -0.0452 -0.3607  0.2590
   45MOL0     C 6003  10.343   7.487   6.729 -0.0556  0.9286  0.3017
   45MOL0     C 6004  10.289   7.550   6.636  0.9024 -0.6996  0.3463
   45MOL0     C 6005  10.511   7.401   7.441  0.7728 -0.3847 -0.2188
   45MOL0     C 6006  10.439   7.447   7.551  0.1329 -0.7628  0.1761
   45MOL0     C 6007  10.499   7.549   7.631  0.9217 -0.9386 -0.1492
   45MOL0     H 6008   9.985   7.604   7.811 -0.3327 -5.0229 -0.7828
   45MOL0     H 6009   9.889   7.668   8.030  3.7324  4.0546  2.4736
   45MOL0     H 6010  10.169   7.721   8.308 -1.7383 -4.4247 -0.0955
   45MOL0     H 6011  10.048   7.847   8.269 -0.2188  2.5689  3.7347
   45MOL0     H 6012  10.105   7.783   8.540 -1.8758 -1.7663  1.1958
   45MOL0     H 6013  10.006   7.655   8.506  0.9945 -1.4053 -2.6162
   45MOL0     H 6014   9.912   7.927   8.423  1.6496  1.7957  0.8566
   45MOL0     H 6015   9.931   7.903   8.602  1.9748 -0.8509 -0.2023
   45MOL0     H 6016   9.750   7.751   8.405 -0.1501 -0.3601 -0.7671
   45MOL0     H 6017   9.789   7.713   8.576  0.2538 -1.3146 -1.0839
   45MOL0     H 6018   9.573   7.825   8.565 -1.2863  2.7184  1.9160
   45MOL0     H 6019   9.687   7.917   8.663 -3.1125  2.4258  0.5643
   45MOL0     H 6020   9.719   8.078   8.504  1.1749 -1.9302  0.4284
   45MOL0     H 6021   9.668   7.968   8.366  0.3840  1.3808 -0.2583
   45MOL0     H 6022   9.497   8.078   8.570  1.9070 -1.7871  0.7981
   45MOL0     H 6023   9.427   7.968   8.441 -1.5506  0.0203  1.0559
   45MOL0     H 6024   9.337   8.177   8.398  0.0327 -1.6458  0.6508
   45MOL0     H 6025   9.487   8.265   8.418 -0.2127  1.5609 -2.8123
   45MOL0     H 6026   9.636   8.251   8.216 -0.3198  2.5024  0.6815
   45MOL0     H 6027   9.560   8.176   7.815  0.8644  3.0085  0.9298
   45MOL0     H 6028   9.660   8.274   7.910  1.2547  0.1893 -1.6125
   45MOL0     H 6029   9.675   7.975   7.897  1.5648 -0.7172  1.1717
   45MOL0     H 6030   9.780   8.077   7.794 -0.8920 -1.8077 -0.5123
   45MOL0     H 6031   9.821   8.063   8.099  1.2803 -1.6886  0.3166
   45MOL0     H 6032   9.907   8.165   7.988 -1.8414  1.4207  0.1367
   45MOL0     H 6033   9.880   7.849   7.993  1.8511 -0.2028  0.7548
   45MOL0     H 6034  10.017   7.917   8.049  2.3082  0.0050 -1.6815
   45MOL0     H 6035  10.195   7.783   7.733  1.2674 -0.8445 -1.2568
   45MOL0     H 6036  10.433   7.866   7.703 -0.1855  0.4244 -2.9172
   45MOL0     H 6037  10.770   8.168   7.813 -2.3262  0.0954  2.2752
   45MOL0     H 6038  10.985   8.291   7.776 -0.2203  0.5476  1.8723
   45MOL0     H 6039  11.098   8.471   7.874  0.8927 -0.0938 -0.0886
   45MOL0     H 6040  11.171   8.444   7.719 -0.4308 -2.1774  1.0854
   45MOL0     H 6041  11.233   8.703   7.709  2.4711 -1.9669 -1.0309
   45MOL0     H 6042  11.189   8.706   7.883  0.3599  0.2156  0.4619
   45MOL0     H 6043  11.377   8.581   7.948  1.6994  4.3014  0.4022
   45MOL0     H 6044  11.375   8.494   7.802  0.6419 -0.5880 -1.2966
   45MOL0     H 6045  11.443   8.798   7.792 -1.7867 -0.0265 -1.1475
   45MOL0     H 6046  11.477   8.670   7.677  2.2255  1.1856  0.7821
   45MOL0     H 6047  11.651   8.573   7.838 -0.0484 -0.4051  0.2752
   45MOL0     H 6048  11.616   8.719   7.944 -0.4388 -1.2964  0.9014
   45MOL0     H 6049  11.695   8.716   7.648 -1.5116 -1.9798  1.7686
   45MOL0     H 6050  11.669   8.861   7.746 -2.0395 -0.3804 -0.5284
   45MOL0     H 6051  11.869   8.738   7.882 -1.8336 -0.4378 -0.7136
   45MOL0     H 6052  11.903   8.862   7.756 -0.1612  0.2837 -0.8291
   45MOL0     H 6053  11.912   8.544   7.724  0.5560  0.1275  2.4782
   45MOL0     H 6054  11.904   8.652   7.594  0.4761 -0.9703 -0.6189
   45MOL0     H 6055  10.754   8.626   7.644  0.6999 -0.0986 -0.3971
   45MOL0     H 6056  10.543   8.499   7.709  0.5937 -1.3768 -2.4832
   45MOL0     H 6057  10.302   8.264   7.833 -3.6220  2.0911 -3.2205
   45MOL0     H 6058  10.078   8.189   7.831 -3.0522 -3.0581 -4.7850
   45MOL0     H 6059  10.219   7.517   8.236 -3.1854 -0.5520  1.2235
   45MOL0     H 6060  10.328   7.449   8.026 -0.8527 -1.1344  2.7478
   45MOL0     H 6061  10.179   7.216   7.526  0.6848  0.5921  2.8067
   45MOL0     H 6062  10.314   7.151   7.321 -0.9534  1.1692 -1.7203
   45MOL0     H 6063  10.437   7.164   7.128 -3.4916  0.8256  1.0952
   45MOL0     H 6064  10.556   7.270   7.038  1.6132 -0.9204  2.3298
   45MOL0     H 6065  10.414   7.467   7.091 -1.4960 -0.0775 -0.7131
   45MOL0     H 6066  10.299   7.355   7.161 -1.1305  0.2165  0.2513
   45MOL0     H 6067  10.229   7.425   6.942 -0.5798 -0.1357 -2.5036
   45MOL0     H 6068  10.280   7.269   6.904  0.7177 -0.5608 -0.8142
   45MOL0     H 6069  10.456   7.523   6.885  0.3000 -0.3805 -0.0462
   45MOL0     H 6070  10.493   7.358   6.816 -0.5278  0.1813 -2.6060
   45MOL0     H 6071  10.236   7.597   6.557 -0.2833 -2.2381  0.1829
   45MOL0     H 6072  10.608   7.443   7.416  1.8219 -2.1997  0.6344
   45MOL0     H 6073  10.439   7.641   7.635  1.1656 -0.6299 -2.1999
   45MOL0     H 6074  10.503   7.505   7.731  2.9429 -3.0528 -1.0556
   45MOL0     H 6075  10.595   7.588   7.594 -0.7820  3.9090 -0.1759
   46MOL0     O 6076   5.867   5.376   5.574  0.0511 -0.5852 -0.3982
   46MOL0     C 6077   5.837   5.461   5.662 -0.0358 -0.7514  0.8188
   46MOL0     O 6078   5.817   5.446   5.798  0.4564 -0.5236  0.4779
   46MOL0     C 6079   5.857   5.327   5.860  0.7452 -0.1965  0.2501
   46MOL0     C 6080   5.858   5.195   5.806  0.5457  0.2093  0.7157
   46MOL0     C 6081   5.872   5.090   5.897 -0.5120 -0.0772 -0.1905
   46MOL0     C 6082   5.882   5.106   6.033 -0.5243  0.5743 -1.4409
   46MOL0     O 6083   5.913   4.995   6.097  0.5229 -0.7549 -0.0235
   46MOL0     C 6084   5.871   4.971   6.235 -0.1720 -0.0131  0.8320
   46MOL0     C 6085   5.960   4.871   6.307 -0.2192 -1.1127  0.0874
   46MOL0     C 6086   5.914   4.731   6.285  0.3177 -0.1444  0.7109
   46MOL0     C 6087   6.035   4.642   6.280  0.5463  0.8167 -0.9756
   46MOL0     C 6088   6.127   4.651   6.406 -0.2337 -0.0834  0.2412
   46MOL0     C 6089   6.263   4.576   6.389  0.8758  0.3529  0.1203
   46MOL0     C 6090   6.241   4.422   6.378 -0.6302  0.2736 -0.4375
   46MOL0     C 6091   6.180   4.367   6.505 -0.2112  0.0046  0.1120
   46MOL0     N 6092   6.274   4.375   6.614 -0.5753 -0.1546  0.1037
   46MOL0     C 6093   6.382   4.296   6.623  0.0726  0.1971 -0.3328
   46MOL0     C 6094   6.451   4.343   6.735 -0.3715 -0.2256 -0.2739
   46MOL0     C 6095   6.579   4.292   6.793  0.7791  0.6458  0.4029
   46MOL0     C 6096   6.571   4.200   6.913  1.0025  0.3593 -0.1895
   46MOL0     C 6097   6.691   4.108   6.929 -0.1312 -0.1106  0.4940
   46MOL0     C 6098   6.810   4.198   6.957  0.2060 -0.3060 -0.6545
   46MOL0     O 6099   6.936   4.126   6.951 -0.1630  0.3508  0.0197
   46MOL0     C 6100   7.050   4.202   6.941 -1.1055  1.7593  0.8264
   46MOL0     C 6101   7.168   4.123   6.913  0.5342 -0.1468 -0.3743
   46MOL0     C 6102   7.289   4.185   6.893  0.5838 -0.5872 -0.2782
   46MOL0     C 6103   7.311   4.324   6.907 -0.1268  0.3374 -0.2288
   46MOL0     C 6104   7.441   4.388   6.916 -0.1523 -0.0333  0.3377
   46MOL0     O 6105   7.449   4.512   6.970 -0.6240 -0.2694 -0.2789
   46MOL0     C 6106   7.566   4.579   6.973 -0.4294 -0.3467 -0.8651
   46MOL0     C 6107   7.656   4.559   7.083  0.1354  0.4519 -0.7024
   46MOL0     C 6108   7.786   4.616   7.106  0.1030  0.3002  0.3183
   46MOL0     C 6109   7.813   4.717   7.012  0.1222  0.6901  0.1340
   46MOL0     O 6110   7.920   4.797   7.023  0.8687 -0.4301 -0.0565
   46MOL0     C 6111   7.967   4.853   7.151  0.0199 -0.0343  0.1558
   46MOL0     C 6112   8.127   4.865   7.153  0.9900  0.6495 -1.3026
   46MOL0     C 6113   8.178   4.928   7.285  0.3492  0.6552 -0.6066
   46MOL0     C 6114   8.176   4.828   7.404  0.1201 -0.3522  0.6470
   46MOL0     C 6115   8.235   4.900   7.524 -0.4094  0.0725 -0.4296
   46MOL0     C 6116   8.231   4.802   7.641  0.1075  0.5850  0.2226
   46MOL0     C 6117   8.296   4.885   7.761 -0.8615  0.0476  0.3250
   46MOL0     C 6118   8.307   4.812   7.887 -0.3167 -0.8576 -0.8083
   46MOL0    Cl 6119   8.360   4.633   7.882  0.1332 -0.3372 -0.5738
   46MOL0     C 6120   7.733   4.736   6.900 -0.0281  0.7087  0.3506
   46MOL0     C 6121   7.606   4.671   6.880  0.1293  0.6089 -0.1952
   46MOL0     O 6122   7.538   4.322   6.883  0.0681  0.7646  0.3752
   46MOL0     C 6123   7.191   4.398   6.929 -0.3075 -0.4532  0.7964
   46MOL0     C 6124   7.064   4.337   6.948  1.4254  0.2989  0.2969
   46MOL0     N 6125   6.382   4.446   6.788 -0.4216  0.6451 -0.2191
   46MOL0     N 6126   6.267   4.462   6.719 -0.3881 -0.1654 -0.7458
   46MOL0     C 6127   5.863   5.229   6.089 -0.7212 -1.2899 -0.7022
   46MOL0     C 6128   5.861   5.340   6.001  0.0557  0.8593 -0.7717
   46MOL0     C 6129   5.834   5.595   5.612  0.4117  0.1782  1.5662
   46MOL0     C 6130   5.950   5.638   5.540  0.7533  0.1928  0.4475
   46MOL0     C 6131   5.967   5.771   5.488  0.4794 -0.9782 -1.1624
   46MOL0     C 6132   5.854   5.860   5.519 -0.2866 -1.1449  0.2455
   46MOL0     O 6133   5.843   5.999   5.482  0.5393  0.0221 -0.1143
   46MOL0     C 6134   5.930   6.035   5.369  0.3923 -1.5210 -1.0209
   46MOL0     C 6135   6.058   6.093   5.427  0.6752 -0.0530 -0.3089
   46MOL0     C 6136   6.034   6.211   5.533  0.5776 -0.5065  0.6731
   46MOL0     C 6137   6.142   6.324   5.511 -0.3461 -0.2632 -0.3399
   46MOL0     C 6138   6.125   6.428   5.414  0.3146 -0.0017 -0.3429
   46MOL0     C 6139   6.134   6.516   5.326  0.4671 -0.1922  0.4424
   46MOL0     C 6140   5.743   5.819   5.591  0.3847 -0.1423  0.4763
   46MOL0     C 6141   5.730   5.689   5.633  0.2234  0.5710  0.0776
   46MOL0     C 6142   5.597   5.658   5.702 -0.6894  0.0637 -0.7666
   46MOL0     H 6143   5.858   5.167   5.701  0.2858 -0.3291  0.8532
   46MOL0     H 6144   5.885   4.992   5.853  0.6511  0.7609 -1.8246
   46MOL0     H 6145   5.874   5.069   6.285  0.0665 -0.2924  1.3754
   46MOL0     H 6146   5.764   4.947   6.233  0.0241 -1.0706 -2.5938
   46MOL0     H 6147   5.947   4.880   6.415  0.5958 -4.9513  0.6499
   46MOL0     H 6148   6.061   4.889   6.270  0.9445 -0.0230  3.4319
   46MOL0     H 6149   5.850   4.723   6.196  1.5384  1.1576 -0.3316
   46MOL0     H 6150   5.855   4.693   6.369 -0.1079 -0.8585  0.0955
   46MOL0     H 6151   5.995   4.540   6.283 -3.4755  2.1906  1.9804
   46MOL0     H 6152   6.092   4.661   6.189 -0.7019 -1.9438 -2.4557
   46MOL0     H 6153   6.157   4.757   6.408 -1.0169  0.5158 -4.9049
   46MOL0     H 6154   6.079   4.629   6.502 -1.9814  2.6029  0.0972
   46MOL0     H 6155   6.317   4.612   6.301  1.7086 -1.8225 -0.3148
   46MOL0     H 6156   6.334   4.581   6.471  4.7178 -0.1977 -2.8799
   46MOL0     H 6157   6.342   4.386   6.356 -1.3228 -1.0644 -1.6258
   46MOL0     H 6158   6.177   4.386   6.297 -0.6773 -1.7835  0.4518
   46MOL0     H 6159   6.077   4.399   6.524 -1.3598 -2.4632 -1.3183
   46MOL0     H 6160   6.169   4.259   6.491  1.2412 -0.3375  1.3362
   46MOL0     H 6161   6.425   4.225   6.553 -2.6456 -1.3545 -0.5805
   46MOL0     H 6162   6.634   4.260   6.704 -0.7085  3.7075 -1.8149
   46MOL0     H 6163   6.628   4.385   6.824  0.7376  0.3857  1.2513
   46MOL0     H 6164   6.544   4.263   6.998 -1.1993  0.4565 -0.9065
   46MOL0     H 6165   6.481   4.140   6.895  0.9513  0.9212 -1.9535
   46MOL0     H 6166   6.708   4.055   6.835 -3.8460 -3.1048  1.2481
   46MOL0     H 6167   6.675   4.026   7.000  1.3856  1.1691  2.4300
   46MOL0     H 6168   6.795   4.242   7.056 -0.3156  1.1461 -1.3558
   46MOL0     H 6169   6.807   4.284   6.889 -1.3666  0.4884  0.3631
   46MOL0     H 6170   7.160   4.015   6.911  1.3925 -0.2859  1.8569
   46MOL0     H 6171   7.379   4.124   6.893  1.6958  0.8816  2.0586
   46MOL0     H 6172   7.627   4.500   7.169 -2.2634  2.1446 -0.2272
   46MOL0     H 6173   7.851   4.586   7.187 -1.2146  1.2903  1.7937
   46MOL0     H 6174   7.933   4.957   7.142  1.3066  0.5685  1.7691
   46MOL0     H 6175   7.923   4.811   7.241 -0.9636 -0.5266 -0.5415
   46MOL0     H 6176   8.169   4.764   7.153  1.2654  0.7056  0.8478
   46MOL0     H 6177   8.179   4.913   7.069 -0.6999 -0.8574 -3.2931
   46MOL0     H 6178   8.282   4.958   7.266  0.0245  3.0375  0.8915
   46MOL0     H 6179   8.116   5.016   7.308 -2.4863 -1.4730  0.4450
   46MOL0     H 6180   8.237   4.739   7.387  2.4586  1.2979  0.0305
   46MOL0     H 6181   8.075   4.793   7.429  0.4228 -2.0844 -0.3761
   46MOL0     H 6182   8.176   4.990   7.538 -2.1221 -1.2088  1.0298
   46MOL0     H 6183   8.343   4.908   7.509  0.1792 -3.0218  1.2660
   46MOL0     H 6184   8.128   4.778   7.668 -1.1956  0.1555 -4.3897
   46MOL0     H 6185   8.291   4.715   7.612 -1.3961  0.2490 -2.0700
   46MOL0     H 6186   8.233   4.973   7.779  2.0259  1.8224  2.5355
   46MOL0     H 6187   8.396   4.926   7.743  0.3834 -2.0089  2.1514
   46MOL0     H 6188   8.367   4.867   7.959 -1.8885 -0.6548  0.4118
   46MOL0     H 6189   8.208   4.830   7.930  0.4679  2.2133 -0.0637
   46MOL0     H 6190   7.749   4.816   6.829  0.2565  0.4723  0.1485
   46MOL0     H 6191   7.539   4.679   6.795 -0.4224 -1.2855  0.0242
   46MOL0     H 6192   7.186   4.506   6.931  0.7626 -0.3993  1.2197
   46MOL0     H 6193   6.979   4.405   6.948  1.4119  0.3793 -2.4253
   46MOL0     H 6194   5.863   5.262   6.192  1.8782 -2.4229 -0.2579
   46MOL0     H 6195   5.870   5.439   6.044 -3.1800  0.4895  1.0237
   46MOL0     H 6196   6.034   5.570   5.532  1.9405  1.5435  0.9754
   46MOL0     H 6197   6.063   5.787   5.439  0.9517 -1.5525 -0.4469
   46MOL0     H 6198   5.875   6.113   5.317 -3.5994 -2.4814  1.3418
   46MOL0     H 6199   5.952   5.957   5.295  1.9948 -1.2378 -0.8876
   46MOL0     H 6200   6.125   6.126   5.348 -0.3334 -2.0219 -2.0795
   46MOL0     H 6201   6.106   6.010   5.480  1.7078  1.6326  1.5254
   46MOL0     H 6202   6.026   6.164   5.631 -1.0686  1.1277  1.3737
   46MOL0     H 6203   5.935   6.255   5.516  1.4978  0.8513 -1.5862
   46MOL0     H 6204   6.151   6.368   5.610 -1.7428 -0.6989 -0.0007
   46MOL0     H 6205   6.240   6.285   5.485  0.2379  1.5534 -1.0879
   46MOL0     H 6206   6.143   6.587   5.246 -3.0651 -2.1806 -1.9778
   46MOL0     H 6207   5.657   5.885   5.598  1.0602  1.5216 -3.8320
   46MOL0     H 6208   5.610   5.592   5.788  0.1190 -0.8930 -1.5951
   46MOL0     H 6209   5.561   5.752   5.744 -1.6767 -1.4591  2.0323
   46MOL0     H 6210   5.532   5.620   5.623 -2.1719 -1.2482  0.9987
   47MOL0     O 6211   0.903   8.293   0.118  0.4827 -0.4178 -0.0150
   47MOL0     C 6212   0.937   8.411   0.121 -0.9837 -0.2881  0.1583
   47MOL0     O 6213   1.035   8.466   0.044  0.3180 -0.3357 -0.2407
   47MOL0     C 6214   1.078   8.399  -0.071  0.1170 -0.2047 -0.2896
   47MOL0     C 6215   0.997   8.370  -0.176  0.7626 -0.3776  0.0134
   47MOL0     C 6216   1.048   8.310  -0.287 -0.8408  0.0090  0.0021
   47MOL0     C 6217   1.184   8.270  -0.304  0.5574 -0.1888  0.2265
   47MOL0     O 6218   1.212   8.212  -0.426  0.2366  0.3234  1.2276
   47MOL0     C 6219   1.346   8.169  -0.448  0.4183 -0.8042  0.4669
   47MOL0     C 6220   1.377   8.092  -0.572 -0.0994  1.0497 -0.0551
   47MOL0     C 6221   1.514   8.030  -0.558 -0.0853  0.2510 -0.7714
   47MOL0     C 6222   1.544   7.938  -0.679 -0.0674  1.1775 -0.0338
   47MOL0     C 6223   1.679   7.864  -0.654  0.1836 -0.1192 -0.4158
   47MOL0     C 6224   1.687   7.736  -0.750  0.1048  0.3812  0.1218
   47MOL0     C 6225   1.785   7.626  -0.700 -0.0485  0.3321  0.2679
   47MOL0     C 6226   1.933   7.668  -0.715  0.5870  1.0488 -1.1102
   47MOL0     N 6227   2.004   7.654  -0.848  0.8479  0.1127 -1.0422
   47MOL0     C 6228   2.001   7.539  -0.925 -0.1239  0.3580  0.2991
   47MOL0     C 6229   2.063   7.571  -1.037  0.0520 -0.7888  0.3269
   47MOL0     C 6230   2.090   7.488  -1.165 -0.1036  0.1101 -0.5710
   47MOL0     C 6231   2.185   7.363  -1.142 -0.4695 -0.2000 -0.9591
   47MOL0     C 6232   2.323   7.414  -1.077  1.5018 -0.8800  0.2490
   47MOL0     C 6233   2.431   7.309  -1.100  0.0750  0.8334 -0.0638
   47MOL0     O 6234   2.543   7.372  -1.048 -0.1528 -0.1278  1.1825
   47MOL0     C 6235   2.664   7.308  -1.042 -0.6088 -0.1273 -0.2074
   47MOL0     C 6236   2.777   7.390  -1.031 -0.0680  0.1009  0.0335
   47MOL0     C 6237   2.908   7.331  -1.040 -0.0043 -0.7525  0.1102
   47MOL0     C 6238   2.924   7.194  -1.049  0.4072  0.6605  0.0238
   47MOL0     C 6239   3.055   7.134  -1.054  0.9113  0.2281  0.1755
   47MOL0     O 6240   3.073   7.008  -1.113 -0.1366 -0.3567 -0.0261
   47MOL0     C 6241   3.200   6.973  -1.150  0.3810 -0.1976 -0.4805
   47MOL0     C 6242   3.289   7.059  -1.220  0.4361  0.1455 -0.5625
   47MOL0     C 6243   3.406   7.007  -1.269  1.1874  1.1193 -0.8332
   47MOL0     C 6244   3.414   6.866  -1.286  0.8139  0.7136  0.2781
   47MOL0     O 6245   3.515   6.803  -1.348 -0.2276  0.0885  0.2895
   47MOL0     C 6246   3.572   6.861  -1.467  0.0151  0.3634  0.4695
   47MOL0     C 6247   3.653   6.748  -1.534 -0.2210 -0.0901  0.7174
   47MOL0     C 6248   3.537   6.650  -1.592  0.1684  0.5510 -0.9919
   47MOL0     C 6249   3.614   6.539  -1.683  1.1292  0.2249 -0.8607
   47MOL0     C 6250   3.519   6.473  -1.776  0.4486 -0.4232  0.4480
   47MOL0     C 6251   3.403   6.383  -1.728 -0.2780  0.1616 -0.4445
   47MOL0     C 6252   3.339   6.299  -1.845 -0.4817 -0.1398  0.0534
   47MOL0     C 6253   3.401   6.159  -1.869 -0.2139 -0.3983  0.7776
   47MOL0    Cl 6254   3.568   6.183  -1.919  0.4650 -0.1779 -0.2709
   47MOL0     C 6255   3.317   6.778  -1.228 -0.6621  0.1010 -0.0593
   47MOL0     C 6256   3.215   6.837  -1.154  0.2594 -0.0986  0.0094
   47MOL0     O 6257   3.144   7.213  -1.021  0.1933  0.3999 -0.1937
   47MOL0     C 6258   2.803   7.120  -1.075  0.3685 -0.1606  0.0534
   47MOL0     C 6259   2.681   7.175  -1.068  0.0547  0.1364  0.2202
   47MOL0     N 6260   2.116   7.700  -1.010  0.3657 -0.1320 -0.8209
   47MOL0     N 6261   2.089   7.743  -0.891 -0.1163  0.0232  0.6350
   47MOL0     C 6262   1.263   8.304  -0.198 -0.7156  0.9470 -1.2848
   47MOL0     C 6263   1.214   8.369  -0.079  0.3440 -0.2782 -0.1418
   47MOL0     C 6264   0.878   8.502   0.212 -0.5463 -0.4314 -0.5484
   47MOL0     C 6265   0.857   8.450   0.340 -1.0127  0.1481 -0.2364
   47MOL0     C 6266   0.793   8.522   0.437 -0.9854 -0.2982  0.3358
   47MOL0     C 6267   0.748   8.649   0.420  0.7500 -1.5627 -0.2776
   47MOL0     O 6268   0.705   8.740   0.519  0.0087  0.0367 -0.2551
   47MOL0     C 6269   0.641   8.691   0.631  0.6716 -0.1849 -0.5328
   47MOL0     C 6270   0.571   8.795   0.722 -0.4714  0.2428 -0.2886
   47MOL0     C 6271   0.529   8.731   0.852  0.4496 -0.2603 -0.8240
   47MOL0     C 6272   0.429   8.809   0.940  0.5468  0.1742  0.1958
   47MOL0     C 6273   0.409   8.736   1.066 -0.3797  0.1445 -0.8584
   47MOL0     C 6274   0.379   8.664   1.164  0.1790 -0.0512 -0.5736
   47MOL0     C 6275   0.753   8.698   0.288 -0.2819  1.4494  0.3676
   47MOL0     C 6276   0.818   8.627   0.187 -0.2113 -0.2359 -0.3608
   47MOL0     C 6277   0.822   8.684   0.048 -0.0318 -0.4006 -0.0537
   47MOL0     H 6278   0.888   8.373  -0.179  0.4619 -4.5158  0.3908
   47MOL0     H 6279   0.984   8.279  -0.369 -1.2267 -0.2418  0.3991
   47MOL0     H 6280   1.405   8.260  -0.464 -1.5906  0.5542  0.5241
   47MOL0     H 6281   1.384   8.113  -0.362 -1.2499 -0.0896  1.7085
   47MOL0     H 6282   1.380   8.156  -0.661  1.3075  4.9340  2.5662
   47MOL0     H 6283   1.297   8.017  -0.583  0.8656 -0.0758  0.3753
   47MOL0     H 6284   1.515   7.964  -0.471  0.2309 -1.8773 -2.2926
   47MOL0     H 6285   1.594   8.103  -0.541 -1.0902  0.6452  3.2026
   47MOL0     H 6286   1.461   7.868  -0.693  0.3885  1.2923 -4.3498
   47MOL0     H 6287   1.550   7.994  -0.772  3.1161  0.5679 -0.3197
   47MOL0     H 6288   1.763   7.928  -0.680  1.2754 -0.7530  1.3135
   47MOL0     H 6289   1.684   7.832  -0.549  0.0266 -0.6617 -0.5703
   47MOL0     H 6290   1.589   7.687  -0.757  1.5493 -3.8064  3.8144
   47MOL0     H 6291   1.722   7.763  -0.849 -0.7145  0.4096 -0.1653
   47MOL0     H 6292   1.760   7.528  -0.743 -2.5146  0.5906  0.9491
   47MOL0     H 6293   1.779   7.624  -0.591  0.6006 -0.8472  0.2878
   47MOL0     H 6294   1.960   7.771  -0.692  2.6727  0.3202 -0.1045
   47MOL0     H 6295   1.990   7.606  -0.646  1.1512  1.2161 -1.4146
   47MOL0     H 6296   1.968   7.439  -0.897 -0.1121  0.1895 -0.2895
   47MOL0     H 6297   1.994   7.458  -1.209 -1.4156  1.4357  1.2309
   47MOL0     H 6298   2.141   7.548  -1.241 -0.5997  0.2622 -0.7887
   47MOL0     H 6299   2.127   7.286  -1.089 -0.8342  0.4750 -0.3695
   47MOL0     H 6300   2.205   7.329  -1.244  2.8484  1.0491 -0.8505
   47MOL0     H 6301   2.312   7.424  -0.968  1.8520  0.0783  0.2031
   47MOL0     H 6302   2.356   7.498  -1.138 -2.2526  0.0866 -0.6971
   47MOL0     H 6303   2.445   7.286  -1.206 -0.9000  1.5627 -0.3701
   47MOL0     H 6304   2.411   7.217  -1.044  2.6216  0.7564  0.8430
   47MOL0     H 6305   2.766   7.497  -1.018 -1.4063 -0.2626  2.5302
   47MOL0     H 6306   2.990   7.399  -1.021 -0.2274  0.6838 -3.3107
   47MOL0     H 6307   3.277   7.166  -1.223  2.1422  0.3711 -0.4675
   47MOL0     H 6308   3.480   7.064  -1.324  2.8185 -1.9158 -2.0504
   47MOL0     H 6309   3.506   6.917  -1.534  1.3390  0.1465 -1.0907
   47MOL0     H 6310   3.641   6.935  -1.425 -0.4798  2.2892 -1.8763
   47MOL0     H 6311   3.715   6.809  -1.601  4.1885 -2.4126  2.2457
   47MOL0     H 6312   3.722   6.689  -1.473  0.6773 -0.5619 -0.7010
   47MOL0     H 6313   3.477   6.606  -1.512 -0.6423  2.2984 -0.5844
   47MOL0     H 6314   3.465   6.714  -1.644  0.8795  2.1750 -0.0550
   47MOL0     H 6315   3.654   6.468  -1.611  1.0407 -1.8692 -2.7679
   47MOL0     H 6316   3.691   6.591  -1.741 -0.4147  1.0872 -2.2364
   47MOL0     H 6317   3.581   6.425  -1.853 -1.7573  1.0260 -2.4242
   47MOL0     H 6318   3.496   6.563  -1.834  0.8717 -0.6527 -0.0876
   47MOL0     H 6319   3.432   6.315  -1.648  0.2252 -0.1049 -0.8485
   47MOL0     H 6320   3.324   6.441  -1.680  2.1102  1.5249  2.0986
   47MOL0     H 6321   3.328   6.356  -1.937 -1.4068  3.1232  2.0398
   47MOL0     H 6322   3.233   6.282  -1.824 -0.5442  1.0687  0.7881
   47MOL0     H 6323   3.405   6.090  -1.784  0.0722 -2.5764 -0.9227
   47MOL0     H 6324   3.353   6.103  -1.950  0.2650 -0.8532  0.7994
   47MOL0     H 6325   3.332   6.671  -1.222 -1.0069  0.0969  0.8993
   47MOL0     H 6326   3.133   6.772  -1.123 -0.5605  0.0682 -1.7047
   47MOL0     H 6327   2.792   7.012  -1.078 -1.4378  0.0236 -0.4967
   47MOL0     H 6328   2.597   7.107  -1.058  0.6053 -0.6401 -0.3639
   47MOL0     H 6329   1.368   8.279  -0.201 -0.6589  1.0498 -0.4550
   47MOL0     H 6330   1.274   8.405   0.004 -2.4283  1.6988  1.2004
   47MOL0     H 6331   0.898   8.353   0.367  0.5179  0.4133 -1.4849
   47MOL0     H 6332   0.771   8.475   0.532 -0.0439 -1.3845  0.0267
   47MOL0     H 6333   0.718   8.666   0.705  1.6344  0.0370 -1.4466
   47MOL0     H 6334   0.567   8.611   0.618  1.0233 -0.0943 -3.9238
   47MOL0     H 6335   0.472   8.818   0.682 -1.0677  1.4820  1.7479
   47MOL0     H 6336   0.641   8.877   0.738  0.5013 -0.9402  2.0979
   47MOL0     H 6337   0.616   8.718   0.916 -1.1441 -0.8363  1.3193
   47MOL0     H 6338   0.476   8.640   0.824  0.4753 -0.5640  0.0838
   47MOL0     H 6339   0.467   8.911   0.954 -0.8122  1.2575 -3.1217
   47MOL0     H 6340   0.339   8.831   0.883  2.0061 -0.6646 -2.5991
   47MOL0     H 6341   0.349   8.589   1.234  0.5949 -2.0120 -2.3723
   47MOL0     H 6342   0.707   8.796   0.273 -4.1710 -0.0797  1.1219
   47MOL0     H 6343   0.829   8.793   0.044 -1.4755 -0.2956 -0.1940
   47MOL0     H 6344   0.907   8.643  -0.008  0.0337 -0.0396 -0.2233
   47MOL0     H 6345   0.729   8.653   0.000 -0.1682 -0.7419  0.4221
   48MOL0     O 6346  10.847   1.359   6.010 -0.6152 -0.6201 -0.1015
   48MOL0     C 6347  10.846   1.389   5.887 -0.3845  1.2294  0.0088
   48MOL0     O 6348  10.831   1.510   5.826 -0.3211 -0.4285  0.0224
   48MOL0     C 6349  10.836   1.618   5.913 -0.6991  0.1065  1.0510
   48MOL0     C 6350  10.922   1.630   6.028  0.3494 -0.0691 -0.4548
   48MOL0     C 6351  10.910   1.733   6.127  0.7683 -0.6472 -0.1298
   48MOL0     C 6352  10.812   1.833   6.092  0.9429  0.0911  0.1680
   48MOL0     O 6353  10.800   1.945   6.166 -0.2046  0.0270 -0.3717
   48MOL0     C 6354  10.847   1.947   6.298  0.4752  0.2731 -0.0775
   48MOL0     C 6355  10.848   2.096   6.341  0.8957  0.1055  0.6233
   48MOL0     C 6356  10.867   2.118   6.486 -0.3457 -0.3742  0.4381
   48MOL0     C 6357  10.844   2.255   6.551 -0.1065 -0.5411  0.2620
   48MOL0     C 6358  10.871   2.235   6.699  0.2684  0.7301 -0.5691
   48MOL0     C 6359  10.828   2.355   6.779 -0.4652 -0.0927 -0.0518
   48MOL0     C 6360  10.858   2.359   6.927  0.4575  0.0709 -0.1705
   48MOL0     C 6361  11.005   2.349   6.944  0.6088  0.1807 -0.1750
   48MOL0     N 6362  11.048   2.421   7.062  0.6786 -0.5268 -0.5201
   48MOL0     C 6363  11.027   2.399   7.197  0.5280  0.2312  0.1470
   48MOL0     C 6364  11.068   2.509   7.264 -0.1753 -0.5446 -0.6167
   48MOL0     C 6365  11.071   2.541   7.414 -0.3543  0.1910  0.2158
   48MOL0     C 6366  11.194   2.476   7.487  0.1585 -0.1501  0.8884
   48MOL0     C 6367  11.197   2.525   7.634  0.9344 -0.8870  1.0828
   48MOL0     C 6368  11.229   2.677   7.636 -0.4617  0.1742  0.0196
   48MOL0     O 6369  11.252   2.719   7.767 -0.7539  0.3370  0.1101
   48MOL0     C 6370  11.300   2.850   7.789 -0.4250  0.7101 -0.1039
   48MOL0     C 6371  11.304   2.950   7.693  0.3102  0.3123 -0.3275
   48MOL0     C 6372  11.368   3.068   7.711 -0.6640 -0.7862 -0.4246
   48MOL0     C 6373  11.412   3.103   7.837 -0.3144 -0.5649  0.1573
   48MOL0     C 6374  11.472   3.240   7.859  0.3076  0.4413 -0.8649
   48MOL0     O 6375  11.571   3.254   7.954 -0.0444  0.3749 -0.6872
   48MOL0     C 6376  11.633   3.371   7.985 -0.5903 -0.1912 -0.2042
   48MOL0     C 6377  11.766   3.369   8.030 -0.1667  0.8407  0.1361
   48MOL0     C 6378  11.827   3.496   8.053 -0.4701 -0.4463 -0.2438
   48MOL0     C 6379  11.755   3.619   8.060  0.0674  0.8421  0.1309
   48MOL0     O 6380  11.825   3.734   8.086  0.3780  0.8913  0.5233
   48MOL0     C 6381  11.790   3.849   8.009  0.2301  0.1035 -0.2360
   48MOL0     C 6382  11.725   3.954   8.108 -0.2552 -0.3655  0.8390
   48MOL0     C 6383  11.692   4.083   8.015 -0.8892  0.0980 -0.0999
   48MOL0     C 6384  11.611   4.179   8.105 -0.0314  0.0693  0.6223
   48MOL0     C 6385  11.609   4.321   8.041  0.5874  0.1818  0.0113
   48MOL0     C 6386  11.729   4.400   8.062  0.9352  0.1354 -0.3173
   48MOL0     C 6387  11.757   4.501   7.948  0.3853 -0.2908  0.3349
   48MOL0     C 6388  11.637   4.601   7.919 -0.4239 -0.1742 -0.6780
   48MOL0    Cl 6389  11.582   4.688   8.069 -0.3839  0.1968  0.1990
   48MOL0     C 6390  11.620   3.612   8.029  1.2121 -0.2991  0.9136
   48MOL0     C 6391  11.567   3.495   7.989  0.6910 -1.0854  0.9662
   48MOL0     O 6392  11.413   3.333   7.810 -0.0266 -0.0274 -0.5642
   48MOL0     C 6393  11.407   3.001   7.937 -0.7950 -0.1783  0.4478
   48MOL0     C 6394  11.349   2.878   7.920  1.0943 -0.8301  0.9169
   48MOL0     N 6395  11.112   2.597   7.166  0.0962 -0.4280 -0.2883
   48MOL0     N 6396  11.104   2.535   7.048  0.4433 -0.0816 -0.1042
   48MOL0     C 6397  10.732   1.829   5.980  0.1945 -0.1937  0.3031
   48MOL0     C 6398  10.746   1.723   5.891  0.0058  0.6754 -0.2660
   48MOL0     C 6399  10.836   1.273   5.797 -0.1869 -1.1386 -0.0877
   48MOL0     C 6400  10.729   1.263   5.700 -0.9239 -1.0476 -0.5054
   48MOL0     C 6401  10.743   1.170   5.598  0.0516  0.0955 -0.0979
   48MOL0     C 6402  10.846   1.067   5.591  0.5080 -0.3123 -0.0412
   48MOL0     O 6403  10.855   0.963   5.503 -0.2840  0.3117  0.2368
   48MOL0     C 6404  10.750   0.922   5.419 -1.0821  0.6543  0.4612
   48MOL0     C 6405  10.763   0.769   5.408 -0.1647 -0.4407 -0.5226
   48MOL0     C 6406  10.664   0.710   5.305  0.1528 -0.7433 -0.3504
   48MOL0     C 6407  10.642   0.780   5.176  0.0620  2.0246 -0.3966
   48MOL0     C 6408  10.767   0.766   5.099 -0.3439  1.2888 -0.3798
   48MOL0     C 6409  10.869   0.753   5.050  0.1323  0.2169  1.0234
   48MOL0     C 6410  10.932   1.068   5.696 -0.4922 -0.1594 -0.4837
   48MOL0     C 6411  10.932   1.166   5.805  0.9229 -0.7075  0.6210
   48MOL0     C 6412  11.059   1.156   5.897  0.2397 -0.3680 -0.1770
   48MOL0     H 6413  11.001   1.557   6.044  2.1054  1.4741 -1.6942
   48MOL0     H 6414  10.977   1.752   6.211 -2.4466  4.5801  1.7143
   48MOL0     H 6415  10.790   1.881   6.364  1.7113 -0.6824  0.0660
   48MOL0     H 6416  10.953   1.923   6.308 -0.1885 -2.9155  0.3899
   48MOL0     H 6417  10.755   2.150   6.320  0.7992 -0.7689 -1.4170
   48MOL0     H 6418  10.925   2.149   6.284  2.1600  0.5620  2.6668
   48MOL0     H 6419  10.969   2.090   6.512 -0.5767 -1.9936 -0.2896
   48MOL0     H 6420  10.794   2.054   6.536 -1.8707 -0.2593 -1.5550
   48MOL0     H 6421  10.908   2.339   6.522 -2.2466  1.1057  0.0189
   48MOL0     H 6422  10.748   2.305   6.535 -0.2012 -1.1286 -1.1507
   48MOL0     H 6423  10.806   2.151   6.725 -0.6532  1.7623  0.6445
   48MOL0     H 6424  10.972   2.204   6.726  0.3446  1.1605 -0.3494
   48MOL0     H 6425  10.853   2.450   6.730 -2.2267  1.9544  2.7413
   48MOL0     H 6426  10.719   2.354   6.780 -0.4804  0.8937  1.0937
   48MOL0     H 6427  10.793   2.281   6.967 -2.2515  1.3572 -1.8270
   48MOL0     H 6428  10.821   2.447   6.980  0.4099  1.1907 -1.9647
   48MOL0     H 6429  11.029   2.243   6.957 -1.9898 -0.4363  0.0433
   48MOL0     H 6430  11.048   2.398   6.856  0.4767  1.5052  0.4709
   48MOL0     H 6431  10.970   2.314   7.234  0.6071 -0.1202 -0.5322
   48MOL0     H 6432  11.078   2.650   7.420  0.1414  0.1872 -0.1750
   48MOL0     H 6433  10.974   2.505   7.450 -0.5427  0.6915  0.2103
   48MOL0     H 6434  11.189   2.367   7.490  1.3931 -0.1924  2.8242
   48MOL0     H 6435  11.289   2.515   7.451  1.1199 -2.2937  0.9733
   48MOL0     H 6436  11.278   2.470   7.684  1.9498  0.0785  0.5356
   48MOL0     H 6437  11.105   2.520   7.692  1.1613  2.2698  1.9041
   48MOL0     H 6438  11.153   2.741   7.590 -0.8409 -0.5666 -0.4028
   48MOL0     H 6439  11.318   2.700   7.576 -0.6624  1.2730  0.1322
   48MOL0     H 6440  11.259   2.935   7.595  0.2238  3.1170 -0.8209
   48MOL0     H 6441  11.367   3.157   7.648  1.5172  0.0702  0.6471
   48MOL0     H 6442  11.805   3.268   8.037 -0.6541  0.6490  0.1775
   48MOL0     H 6443  11.934   3.490   8.074 -0.6735 -0.7078  0.7950
   48MOL0     H 6444  11.870   3.906   7.961 -0.7975 -0.8489 -3.2987
   48MOL0     H 6445  11.732   3.824   7.920  0.3736  0.8436 -0.5513
   48MOL0     H 6446  11.633   3.915   8.153 -0.6843  0.0077  0.2922
   48MOL0     H 6447  11.790   3.995   8.186  0.3698  0.9023 -0.3117
   48MOL0     H 6448  11.774   4.136   7.967 -0.0175  0.3711  1.6073
   48MOL0     H 6449  11.645   4.045   7.924  0.8627 -0.9055 -0.6458
   48MOL0     H 6450  11.663   4.191   8.200  0.5883  2.5210  0.0497
   48MOL0     H 6451  11.514   4.131   8.115  0.2727 -0.2975  1.9326
   48MOL0     H 6452  11.530   4.379   8.090 -1.8864 -2.1213 -1.0135
   48MOL0     H 6453  11.585   4.322   7.935  0.3999  0.7339  0.0496
   48MOL0     H 6454  11.717   4.454   8.157 -0.8430 -0.1475 -0.3432
   48MOL0     H 6455  11.817   4.335   8.065  2.1845  1.7337 -1.0256
   48MOL0     H 6456  11.815   4.453   7.869  0.9746 -1.8034  1.6359
   48MOL0     H 6457  11.829   4.570   7.992 -0.8806 -0.8519  3.5432
   48MOL0     H 6458  11.670   4.685   7.857 -2.5835  0.2739 -1.2742
   48MOL0     H 6459  11.554   4.548   7.872 -3.1417  2.7478  0.5093
   48MOL0     H 6460  11.559   3.701   8.022  2.9208  0.7926 -1.7329
   48MOL0     H 6461  11.467   3.507   7.948  2.3107 -1.3330 -3.6191
   48MOL0     H 6462  11.448   3.010   8.037 -0.5306 -0.5909  0.3810
   48MOL0     H 6463  11.357   2.810   8.004 -0.4966 -2.1303  0.0681
   48MOL0     H 6464  10.669   1.911   5.946  2.3374  1.3680 -0.1063
   48MOL0     H 6465  10.671   1.708   5.815 -2.1883 -1.5028  2.1604
   48MOL0     H 6466  10.652   1.339   5.708  0.1373 -0.0231  0.2641
   48MOL0     H 6467  10.675   1.166   5.513 -0.5475 -0.6112  0.4016
   48MOL0     H 6468  10.776   0.964   5.321 -0.5789  3.3399  1.6507
   48MOL0     H 6469  10.649   0.945   5.454 -1.6756  0.4271 -1.0295
   48MOL0     H 6470  10.739   0.734   5.508  0.2820 -1.8747 -0.8992
   48MOL0     H 6471  10.869   0.760   5.381 -0.0357 -1.3005  0.2478
   48MOL0     H 6472  10.562   0.713   5.345  0.2774 -0.9302 -0.0059
   48MOL0     H 6473  10.700   0.607   5.295  3.5718  0.3162 -0.2314
   48MOL0     H 6474  10.560   0.734   5.119  0.4641 -0.9818  1.2386
   48MOL0     H 6475  10.616   0.886   5.173 -2.6831  1.4422 -0.6634
   48MOL0     H 6476  10.965   0.755   5.001 -1.6923 -0.0963 -2.9175
   48MOL0     H 6477  11.010   0.993   5.703  1.9793  2.2726 -0.3685
   48MOL0     H 6478  11.091   1.052   5.904  1.0863 -0.1866 -1.1831
   48MOL0     H 6479  11.136   1.215   5.847 -0.6294  1.3424  0.4090
   48MOL0     H 6480  11.041   1.185   6.002  2.3464 -1.7216  0.6225
   49MOL0     O 6481  10.067   5.876   2.089 -0.1443  0.3279 -0.2531
   49MOL0     C 6482  10.120   5.861   1.983  1.1953  0.8283 -0.3215
   49MOL0     O 6483  10.117   5.751   1.910 -0.6008 -0.4490  0.2021
   49MOL0     C 6484  10.058   5.637   1.951  0.2416  0.3076 -0.2873
   49MOL0     C 6485   9.948   5.579   1.889 -0.0000 -0.7545 -0.4442
   49MOL0     C 6486   9.899   5.455   1.928  0.0994  0.3065 -1.0903
   49MOL0     C 6487   9.977   5.384   2.032 -0.5595 -1.0655  0.3786
   49MOL0     O 6488   9.945   5.259   2.072  0.7110  0.0148 -0.1474
   49MOL0     C 6489   9.803   5.211   2.049  0.0425 -0.6759  1.0543
   49MOL0     C 6490   9.778   5.090   2.145  0.9983  0.0425 -0.0035
   49MOL0     C 6491   9.734   5.129   2.284  0.1856  0.0884  0.0200
   49MOL0     C 6492   9.601   5.200   2.288  0.3648 -0.0975  0.4893
   49MOL0     C 6493   9.551   5.234   2.430 -0.3519  0.5120 -0.8888
   49MOL0     C 6494   9.404   5.289   2.440 -0.5000 -0.5804 -0.1811
   49MOL0     C 6495   9.351   5.296   2.591  0.2618  0.3917  0.1072
   49MOL0     C 6496   9.343   5.153   2.650 -0.4265 -0.0339  0.5828
   49MOL0     N 6497   9.276   5.064   2.560  0.0277  0.3350 -0.0250
   49MOL0     C 6498   9.144   5.065   2.526 -1.0069 -0.2750  1.6187
   49MOL0     C 6499   9.130   4.954   2.453 -0.9233 -0.1331  0.4028
   49MOL0     C 6500   9.001   4.902   2.392  0.8184  0.5799 -0.1814
   49MOL0     C 6501   8.997   4.900   2.242  0.4861 -0.3137 -0.1660
   49MOL0     C 6502   8.874   4.822   2.195  0.7707  0.8457 -0.4694
   49MOL0     C 6503   8.871   4.793   2.052  0.9239  0.6313  0.9890
   49MOL0     O 6504   8.885   4.919   1.976 -0.7800 -0.0725 -0.3009
   49MOL0     C 6505   8.896   4.913   1.840  0.0949 -0.1556 -0.6454
   49MOL0     C 6506   8.927   4.789   1.776 -0.3120 -0.7210 -0.0448
   49MOL0     C 6507   8.954   4.785   1.643  0.1066 -0.2835  0.2601
   49MOL0     C 6508   8.913   4.889   1.552 -0.5031 -0.2342  0.6123
   49MOL0     C 6509   8.936   4.880   1.399  0.1923  0.2158  1.5514
   49MOL0     O 6510   8.986   4.761   1.340 -0.9546  0.1825  0.0203
   49MOL0     C 6511   9.069   4.756   1.228  0.0380 -0.1193 -0.2566
   49MOL0     C 6512   9.123   4.627   1.208  0.3330  0.3391 -0.1242
   49MOL0     C 6513   9.212   4.597   1.112  1.4018 -0.1585  0.8898
   49MOL0     C 6514   9.240   4.705   1.020  0.3804 -0.6931 -0.1431
   49MOL0     O 6515   9.308   4.689   0.899  0.2074  0.2404 -0.4352
   49MOL0     C 6516   9.222   4.704   0.778  0.5715  0.0359  0.4568
   49MOL0     C 6517   9.134   4.584   0.749  0.8926  0.4447  1.1876
   49MOL0     C 6518   9.072   4.589   0.615  0.1256  1.3189 -0.7934
   49MOL0     C 6519   9.154   4.490   0.520 -0.7015  0.0517  0.7074
   49MOL0     C 6520   9.130   4.514   0.369  0.1067 -0.4225  0.4756
   49MOL0     C 6521   8.990   4.537   0.328  0.0078 -0.7602  0.0436
   49MOL0     C 6522   8.976   4.552   0.171  0.4214 -0.0648 -0.3154
   49MOL0     C 6523   8.834   4.543   0.120 -0.1022  0.2497 -0.4323
   49MOL0    Cl 6524   8.831   4.511  -0.060  0.0903  0.0656 -0.0195
   49MOL0     C 6525   9.188   4.833   1.038  0.6581 -0.3059  0.4707
   49MOL0     C 6526   9.099   4.860   1.144 -0.8989 -0.1606  0.3145
   49MOL0     O 6527   8.926   4.990   1.347  0.0634 -0.0945 -0.3123
   49MOL0     C 6528   8.880   5.014   1.615 -0.0643  0.5304  0.0520
   49MOL0     C 6529   8.882   5.023   1.755 -0.6049  0.2058 -0.1857
   49MOL0     N 6530   9.252   4.896   2.423 -0.1558 -0.8252  0.0442
   49MOL0     N 6531   9.343   4.967   2.488  1.0337  0.0480 -0.1116
   49MOL0     C 6532  10.098   5.437   2.079  0.8767 -0.3775  0.9471
   49MOL0     C 6533  10.127   5.568   2.038 -0.3836  0.3126 -1.2970
   49MOL0     C 6534  10.201   5.972   1.930 -0.4500  0.0557  0.3435
   49MOL0     C 6535  10.171   6.104   1.976 -0.0779  0.5715 -0.0875
   49MOL0     C 6536  10.239   6.214   1.921  0.2640 -0.1042 -0.1613
   49MOL0     C 6537  10.358   6.189   1.851  0.4926 -0.5925  0.9233
   49MOL0     O 6538  10.416   6.297   1.796 -0.8828  0.8458  0.2696
   49MOL0     C 6539  10.528   6.349   1.868  0.2315 -0.7824  0.1312
   49MOL0     C 6540  10.552   6.496   1.830  0.6825  0.4439 -0.1867
   49MOL0     C 6541  10.581   6.513   1.684 -0.0005 -0.1606  0.4344
   49MOL0     C 6542  10.609   6.659   1.654 -0.5418  1.3103  0.0143
   49MOL0     C 6543  10.557   6.764   1.734  0.2641  1.2738 -0.3517
   49MOL0     C 6544  10.531   6.849   1.812 -0.3847 -0.2328 -0.1992
   49MOL0     C 6545  10.392   6.059   1.802 -0.1827 -0.1404 -1.1618
   49MOL0     C 6546  10.311   5.949   1.839  0.5428 -0.6023  0.1440
   49MOL0     C 6547  10.365   5.818   1.764 -0.5025 -0.3105 -0.5931
   49MOL0     H 6548   9.892   5.628   1.810  5.8951 -1.1434 -5.6604
   49MOL0     H 6549   9.819   5.406   1.874 -0.7931 -0.3548  0.7513
   49MOL0     H 6550   9.740   5.297   2.074 -0.6772  0.3096 -3.3715
   49MOL0     H 6551   9.789   5.184   1.944  0.8103 -2.0048  1.2700
   49MOL0     H 6552   9.871   5.034   2.152  2.6014  2.3522 -1.4131
   49MOL0     H 6553   9.706   5.023   2.097  0.3762 -0.9637  2.2103
   49MOL0     H 6554   9.808   5.198   2.326  0.1312 -0.3048  0.7784
   49MOL0     H 6555   9.719   5.038   2.343 -0.8126  1.1132  1.4019
   49MOL0     H 6556   9.588   5.281   2.215 -0.9744 -3.1793 -2.9963
   49MOL0     H 6557   9.525   5.128   2.255 -1.9135  2.1130  0.5878
   49MOL0     H 6558   9.555   5.144   2.493 -2.1691 -1.1040 -2.9197
   49MOL0     H 6559   9.627   5.299   2.474  1.5081 -2.7662  1.1377
   49MOL0     H 6560   9.398   5.390   2.399  3.7432  0.2585  0.7894
   49MOL0     H 6561   9.336   5.233   2.376 -0.4062 -0.7426 -0.1391
   49MOL0     H 6562   9.246   5.323   2.580  0.0403  0.5654  2.1862
   49MOL0     H 6563   9.400   5.376   2.648  0.3898  3.4508 -3.8710
   49MOL0     H 6564   9.437   5.099   2.662 -1.0698 -1.8851 -1.7518
   49MOL0     H 6565   9.288   5.150   2.745 -1.3873  1.5743  0.1061
   49MOL0     H 6566   9.076   5.141   2.564  0.2642  0.7771  1.8690
   49MOL0     H 6567   8.991   4.798   2.426  1.0132  0.1537 -1.4045
   49MOL0     H 6568   8.916   4.958   2.432  0.9281  1.2149 -0.8370
   49MOL0     H 6569   8.987   5.002   2.206  3.1248 -0.6356 -2.1241
   49MOL0     H 6570   9.092   4.860   2.205 -1.4463 -4.5302 -1.1429
   49MOL0     H 6571   8.784   4.876   2.226  0.5309  1.6696 -2.4647
   49MOL0     H 6572   8.869   4.726   2.249 -0.9514  1.4625  0.5606
   49MOL0     H 6573   8.772   4.747   2.045  2.3061 -2.6594  1.4108
   49MOL0     H 6574   8.948   4.722   2.020  0.4649 -0.9486  3.1496
   49MOL0     H 6575   8.959   4.698   1.826 -0.7368  0.8528  3.3795
   49MOL0     H 6576   8.984   4.689   1.602 -2.7396 -2.1739  2.1649
   49MOL0     H 6577   9.090   4.546   1.273  1.0710  0.5721  0.5624
   49MOL0     H 6578   9.258   4.500   1.096  1.4810 -0.6127  3.5406
   49MOL0     H 6579   9.147   4.781   0.800 -1.5507 -2.2238  1.6866
   49MOL0     H 6580   9.282   4.738   0.694 -2.4476 -0.9079 -2.3100
   49MOL0     H 6581   9.196   4.495   0.756 -0.0070 -0.1968  1.1182
   49MOL0     H 6582   9.065   4.568   0.833  0.4919 -1.4472  0.5377
   49MOL0     H 6583   8.963   4.580   0.626  0.3387 -0.1626  0.4332
   49MOL0     H 6584   9.093   4.689   0.575 -0.8055  3.0534  2.6286
   49MOL0     H 6585   9.110   4.392   0.542  1.7284 -1.6311 -1.3509
   49MOL0     H 6586   9.259   4.500   0.548  0.0420  1.4809 -2.2698
   49MOL0     H 6587   9.181   4.435   0.313 -0.0696 -0.1313 -0.1083
   49MOL0     H 6588   9.174   4.606   0.329  0.5807 -1.8100 -2.5317
   49MOL0     H 6589   8.934   4.452   0.369 -0.7514  0.8115  2.5326
   49MOL0     H 6590   8.944   4.626   0.373  0.6947 -1.5903  2.5318
   49MOL0     H 6591   9.039   4.471   0.132  0.1812 -1.5330  2.1886
   49MOL0     H 6592   9.016   4.649   0.138 -0.3960  1.0762  1.8473
   49MOL0     H 6593   8.777   4.456   0.154 -2.1276  0.2412 -3.4253
   49MOL0     H 6594   8.777   4.635   0.134 -1.2997 -0.1671 -2.2794
   49MOL0     H 6595   9.199   4.909   0.962 -0.0919  1.4830  2.0863
   49MOL0     H 6596   9.066   4.960   1.168  1.7710  1.1165 -0.9229
   49MOL0     H 6597   8.856   5.088   1.539  0.8487  0.5064 -0.2630
   49MOL0     H 6598   8.874   5.120   1.804  1.2045 -0.9465  2.7041
   49MOL0     H 6599  10.159   5.379   2.147  1.9748  0.5119  0.7606
   49MOL0     H 6600  10.196   5.634   2.090  2.0340 -0.5063 -3.2125
   49MOL0     H 6601  10.098   6.131   2.051  1.3749 -1.3879  2.1636
   49MOL0     H 6602  10.211   6.316   1.947 -2.4682 -1.4144  2.7361
   49MOL0     H 6603  10.623   6.296   1.854  0.6559  0.6584 -3.7808
   49MOL0     H 6604  10.499   6.337   1.973  1.4085 -5.3863  0.1701
   49MOL0     H 6605  10.642   6.538   1.875  1.7477  0.5819 -2.3303
   49MOL0     H 6606  10.461   6.547   1.861  0.5167  1.1209 -1.6885
   49MOL0     H 6607  10.488   6.481   1.636 -0.3482  1.3895  0.0129
   49MOL0     H 6608  10.659   6.447   1.644  1.7213  0.8089  2.0333
   49MOL0     H 6609  10.719   6.656   1.658 -0.5294 -1.0054 -0.2391
   49MOL0     H 6610  10.574   6.670   1.551 -2.0069 -0.4367  0.2676
   49MOL0     H 6611  10.477   6.922   1.868 -1.4804  0.5217 -2.1370
   49MOL0     H 6612  10.469   6.052   1.725 -1.8304  2.0536 -3.1673
   49MOL0     H 6613  10.383   5.734   1.831  0.6344  2.2475  2.5723
   49MOL0     H 6614  10.316   5.789   1.670  2.3669 -1.7588 -1.7527
   49MOL0     H 6615  10.464   5.846   1.727 -0.8676  1.8013 -0.1004
   50MOL0     O 6616   5.407   1.559  10.065  0.1824  0.4707  0.1652
   50MOL0     C 6617   5.437   1.670  10.036 -0.3531 -0.1638  0.6295
   50MOL0     O 6618   5.361   1.778  10.060  0.4474  0.7710 -0.1323
   50MOL0     C 6619   5.263   1.772  10.154 -0.2761 -0.3383 -0.0703
   50MOL0     C 6620   5.290   1.712  10.288  0.8763  0.4797 -0.1094
   50MOL0     C 6621   5.193   1.718  10.393  0.4890 -0.0257 -0.8746
   50MOL0     C 6622   5.066   1.771  10.359 -0.7671 -0.9240  0.6552
   50MOL0     O 6623   4.968   1.772  10.458 -0.4782  0.7769  0.1766
   50MOL0     C 6624   4.923   1.897  10.524 -0.7558  0.4343 -0.1945
   50MOL0     C 6625   5.038   1.947  10.607  0.2092  0.0739  0.2535
   50MOL0     C 6626   4.986   2.078  10.688 -0.2174  0.3583 -0.0983
   50MOL0     C 6627   5.084   2.126  10.788 -0.1206  0.1008  0.8618
   50MOL0     C 6628   5.224   2.138  10.729  0.0074 -0.8629  0.0212
   50MOL0     C 6629   5.236   2.238  10.616 -0.7203 -0.8229  0.0006
   50MOL0     C 6630   5.195   2.381  10.656  0.5113 -0.3165  0.3355
   50MOL0     C 6631   5.162   2.462  10.528 -0.2970 -0.6183 -0.4312
   50MOL0     N 6632   5.186   2.604  10.531 -0.2728 -0.1802  0.3285
   50MOL0     C 6633   5.140   2.698  10.618 -0.4101  1.0341 -0.4532
   50MOL0     C 6634   5.202   2.813  10.592 -0.5670 -0.1458  1.4349
   50MOL0     C 6635   5.187   2.942  10.670 -0.7826 -0.2577  0.1621
   50MOL0     C 6636   5.283   3.057  10.630  1.0064  1.2330  0.8560
   50MOL0     C 6637   5.230   3.186  10.558  0.9657  0.3813 -0.1098
   50MOL0     C 6638   5.170   3.162  10.422  0.5895  0.0900 -0.3145
   50MOL0     O 6639   5.270   3.208  10.330  0.0035 -0.4242 -0.6786
   50MOL0     C 6640   5.216   3.284  10.228  0.7053  0.6570  0.2393
   50MOL0     C 6641   5.257   3.421  10.222 -0.7032 -0.2285 -0.6639
   50MOL0     C 6642   5.197   3.506  10.127  0.7618  0.2657  0.2445
   50MOL0     C 6643   5.098   3.455  10.043 -0.3304 -1.0464 -1.4043
   50MOL0     C 6644   5.024   3.533   9.935  0.3333 -0.6636 -0.2403
   50MOL0     O 6645   4.945   3.471   9.847 -0.8790  0.1070 -0.4818
   50MOL0     C 6646   4.872   3.546   9.754 -0.4609 -0.3613 -0.6502
   50MOL0     C 6647   4.785   3.652   9.788  0.6301 -0.6953 -0.7667
   50MOL0     C 6648   4.707   3.721   9.691 -0.3398 -0.3410 -0.1826
   50MOL0     C 6649   4.726   3.687   9.552 -1.4342 -0.0849 -0.0318
   50MOL0     O 6650   4.675   3.763   9.453  0.3876  0.6933 -0.2016
   50MOL0     C 6651   4.536   3.801   9.473 -0.1010 -0.6387 -0.4656
   50MOL0     C 6652   4.466   3.858   9.349  0.8753 -1.1296  0.1019
   50MOL0     C 6653   4.314   3.905   9.377 -0.4305  1.3383 -0.4045
   50MOL0     C 6654   4.255   3.947   9.245 -0.8339  0.0347 -0.8042
   50MOL0     C 6655   4.100   3.971   9.263 -0.9611  0.0032 -0.8135
   50MOL0     C 6656   4.044   4.037   9.132  0.0785 -0.4643  0.2298
   50MOL0     C 6657   3.895   4.051   9.148  0.0465  0.4871 -0.1625
   50MOL0     C 6658   3.822   4.040   9.011  0.1551 -0.6269 -0.1837
   50MOL0    Cl 6659   3.868   4.180   8.908 -0.4240 -0.0346  0.4852
   50MOL0     C 6660   4.823   3.588   9.519  0.2559 -0.3479  0.2356
   50MOL0     C 6661   4.890   3.515   9.621 -0.4343  0.5105  0.5510
   50MOL0     O 6662   5.045   3.654   9.938  0.7501  0.6125 -0.5403
   50MOL0     C 6663   5.065   3.322  10.051  1.4959  1.2212  0.2206
   50MOL0     C 6664   5.128   3.234  10.133 -0.0547 -0.2998  0.1678
   50MOL0     N 6665   5.259   2.810  10.461 -0.3694  0.0074  0.5485
   50MOL0     N 6666   5.238   2.689  10.429 -0.5032  0.3257  0.0241
   50MOL0     C 6667   5.041   1.826  10.232  0.3924 -0.5286  0.1310
   50MOL0     C 6668   5.144   1.836  10.131  0.2142  0.1751  0.1963
   50MOL0     C 6669   5.552   1.693   9.936 -0.3212  1.5506 -0.1986
   50MOL0     C 6670   5.609   1.572   9.876  0.2006 -0.1728 -0.5222
   50MOL0     C 6671   5.730   1.576   9.803  0.1833 -1.2824  0.3010
   50MOL0     C 6672   5.779   1.700   9.767  0.1350 -0.4661 -0.0745
   50MOL0     O 6673   5.883   1.699   9.675  0.2859  1.2861 -0.3142
   50MOL0     C 6674   5.893   1.815   9.590  0.0845 -0.0098 -0.4222
   50MOL0     C 6675   5.946   1.784   9.455  0.0703  0.6551  0.4510
   50MOL0     C 6676   5.955   1.912   9.374 -0.9363 -0.1351 -0.6452
   50MOL0     C 6677   5.983   1.896   9.220  0.8426  0.1731 -0.4601
   50MOL0     C 6678   5.855   1.890   9.144 -0.4342  0.2691 -0.1495
   50MOL0     C 6679   5.775   1.908   9.055 -0.0936  0.1647 -0.1596
   50MOL0     C 6680   5.730   1.816   9.818  1.0839  0.4032  0.5070
   50MOL0     C 6681   5.620   1.814   9.908 -0.2598 -0.0716  0.5475
   50MOL0     C 6682   5.571   1.945   9.978 -0.1341  0.6187 -0.0828
   50MOL0     H 6683   5.376   1.646  10.296 -0.7645 -2.0090 -1.4942
   50MOL0     H 6684   5.197   1.682  10.495 -1.4466 -1.9342 -1.3800
   50MOL0     H 6685   4.895   1.982  10.462 -1.8904  1.1303  1.2100
   50MOL0     H 6686   4.847   1.870  10.598  1.9178 -1.1555  2.2257
   50MOL0     H 6687   5.114   1.980  10.536  0.2024 -1.3659 -0.4659
   50MOL0     H 6688   5.077   1.874  10.679 -0.0902 -1.8216 -1.4156
   50MOL0     H 6689   4.897   2.040  10.739 -2.0552  3.5535 -0.7032
   50MOL0     H 6690   4.958   2.152  10.613 -1.0367 -2.7253 -3.0704
   50MOL0     H 6691   5.042   2.213  10.840  2.0600  2.5424 -1.2175
   50MOL0     H 6692   5.085   2.047  10.864 -1.5328  0.6734  1.5223
   50MOL0     H 6693   5.284   2.177  10.812 -0.0714 -0.0995 -0.2710
   50MOL0     H 6694   5.260   2.037  10.708 -0.4526 -2.4224  5.4323
   50MOL0     H 6695   5.342   2.245  10.591 -1.1867  0.6025 -1.7287
   50MOL0     H 6696   5.182   2.203  10.528 -1.6963 -1.4371  0.8234
   50MOL0     H 6697   5.279   2.442  10.692 -1.1435  3.2845 -1.2842
   50MOL0     H 6698   5.116   2.373  10.731  1.3876  0.6452  1.4158
   50MOL0     H 6699   5.240   2.425  10.460  0.4958 -0.6404  0.4724
   50MOL0     H 6700   5.065   2.437  10.483 -0.0522  1.0857 -2.0278
   50MOL0     H 6701   5.080   2.674  10.705  2.8323  0.8748  1.9231
   50MOL0     H 6702   5.087   2.985  10.665 -1.0249 -0.5930  1.5064
   50MOL0     H 6703   5.211   2.912  10.773  3.0958  2.2662  0.1699
   50MOL0     H 6704   5.311   3.106  10.724  1.6697  2.9893 -0.1964
   50MOL0     H 6705   5.367   3.012  10.577 -0.1150 -0.0524  0.1060
   50MOL0     H 6706   5.315   3.254  10.550  2.1564 -1.1660 -1.1851
   50MOL0     H 6707   5.163   3.238  10.626  1.3700  1.2790 -0.3869
   50MOL0     H 6708   5.070   3.204  10.422  1.3068  1.8687 -0.9190
   50MOL0     H 6709   5.169   3.054  10.402  0.3106  0.2307 -1.0896
   50MOL0     H 6710   5.331   3.462  10.290 -0.5486  0.8291 -1.4563
   50MOL0     H 6711   5.214   3.613  10.137  0.2662  0.1977  2.4935
   50MOL0     H 6712   4.769   3.673   9.893 -0.0486 -2.5902 -0.4456
   50MOL0     H 6713   4.634   3.799   9.712 -0.6621 -0.3245 -1.2978
   50MOL0     H 6714   4.479   3.713   9.504 -0.3344 -0.8439 -1.4400
   50MOL0     H 6715   4.532   3.888   9.539  0.1667  0.0124 -1.2870
   50MOL0     H 6716   4.526   3.949   9.331 -1.2376  0.5919  1.2853
   50MOL0     H 6717   4.479   3.783   9.271 -2.2487 -1.3683 -0.2941
   50MOL0     H 6718   4.260   3.825   9.429  2.0810 -1.2966 -1.5682
   50MOL0     H 6719   4.311   3.985   9.451 -0.9364  0.4882  0.5198
   50MOL0     H 6720   4.275   3.878   9.163  0.1137 -0.6928  0.0258
   50MOL0     H 6721   4.313   4.035   9.216  0.5861 -0.7189 -0.3656
   50MOL0     H 6722   4.083   4.024   9.357 -0.3895  0.2040 -0.8221
   50MOL0     H 6723   4.062   3.868   9.267  1.6485 -1.0789 -1.6654
   50MOL0     H 6724   4.094   4.134   9.116  0.6767 -0.8367 -0.1915
   50MOL0     H 6725   4.068   3.961   9.057  1.6029 -1.4382  1.6246
   50MOL0     H 6726   3.877   4.149   9.193 -0.7233 -0.5409  1.8717
   50MOL0     H 6727   3.863   3.974   9.220  0.1341 -0.3792 -1.0253
   50MOL0     H 6728   3.860   3.951   8.960  0.4865 -0.8894  0.5021
   50MOL0     H 6729   3.714   4.030   9.022 -0.3135  2.9001 -0.5565
   50MOL0     H 6730   4.845   3.550   9.420 -0.9950 -1.4180  0.3390
   50MOL0     H 6731   4.943   3.425   9.592  0.8400  0.7582  1.9426
   50MOL0     H 6732   4.985   3.284   9.989 -0.9640 -0.0560  3.8263
   50MOL0     H 6733   5.112   3.127  10.123  0.7310 -0.6593  2.3852
   50MOL0     H 6734   4.958   1.894  10.218  0.6237 -0.5577 -1.6615
   50MOL0     H 6735   5.128   1.880  10.033  0.3335 -1.0634 -0.3961
   50MOL0     H 6736   5.564   1.475   9.896  1.8201 -0.4495  2.3277
   50MOL0     H 6737   5.789   1.502   9.751 -0.1533  0.6103 -3.1320
   50MOL0     H 6738   5.958   1.892   9.633  0.9032 -1.2949  0.7419
   50MOL0     H 6739   5.791   1.853   9.580 -0.3564 -1.4029 -1.6165
   50MOL0     H 6740   5.884   1.714   9.399  0.8107  0.1113  0.2998
   50MOL0     H 6741   6.046   1.742   9.470 -0.5742 -0.8892  0.5561
   50MOL0     H 6742   6.031   1.970   9.427 -1.5906  2.7096 -2.5577
   50MOL0     H 6743   5.868   1.977   9.391  0.1171  1.0453  0.4256
   50MOL0     H 6744   6.041   1.978   9.176  0.7046  1.1848  1.1516
   50MOL0     H 6745   6.048   1.810   9.203  1.3483  0.2834  0.8230
   50MOL0     H 6746   5.715   1.902   8.966 -1.2472 -1.4737  0.6690
   50MOL0     H 6747   5.772   1.913   9.795 -1.2566  1.8275  1.8262
   50MOL0     H 6748   5.627   2.036   9.956 -3.5362  4.2526  4.2866
   50MOL0     H 6749   5.471   1.960   9.935 -2.5210 -2.3903  3.7255
   50MOL0     H 6750   5.557   1.940  10.086 -0.2678 -0.7308 -0.1429
   51MOL0     O 6751   3.496  10.866   2.733  0.0519  0.5847 -0.5793
   51MOL0     C 6752   3.388  10.907   2.787  0.9326 -0.6037 -0.0527
   51MOL0     O 6753   3.287  10.842   2.845  0.0878  0.7495  0.6614
   51MOL0     C 6754   3.307  10.708   2.864 -1.0381  0.4041  1.0093
   51MOL0     C 6755   3.426  10.638   2.898 -1.4469 -0.0329 -0.6351
   51MOL0     C 6756   3.430  10.495   2.909 -0.4959 -0.5351  0.5197
   51MOL0     C 6757   3.301  10.432   2.916  0.1873  0.0289  0.4069
   51MOL0     O 6758   3.287  10.295   2.930 -0.2767  0.8097  0.4738
   51MOL0     C 6759   3.282  10.275   3.076 -0.0085  0.0065 -0.4880
   51MOL0     C 6760   3.185  10.151   3.102  0.4183  0.1527  0.7588
   51MOL0     C 6761   3.035  10.182   3.070  0.4568 -0.7832  0.0853
   51MOL0     C 6762   2.975  10.302   3.145 -0.5345  0.1815 -0.3802
   51MOL0     C 6763   2.966  10.282   3.294 -0.0011 -0.7412 -0.0688
   51MOL0     C 6764   2.873  10.168   3.326  0.9763  0.1873 -0.2666
   51MOL0     C 6765   2.900  10.106   3.462  0.0177 -0.1377  0.1517
   51MOL0     C 6766   2.820  10.179   3.575 -0.8430  0.4040  1.0014
   51MOL0     N 6767   2.901  10.190   3.703  0.1835  0.4415 -0.0816
   51MOL0     C 6768   3.003  10.281   3.734  0.2887  0.1909  0.0214
   51MOL0     C 6769   3.036  10.245   3.862  0.5642  0.2545 -0.3117
   51MOL0     C 6770   3.134  10.317   3.955 -0.6665 -0.6814 -0.9505
   51MOL0     C 6771   3.067  10.449   3.999  1.0641  0.6437  0.1592
   51MOL0     C 6772   3.163  10.527   4.086  0.3627 -0.5918  0.5075
   51MOL0     C 6773   3.126  10.671   4.120  0.2962  0.4770  0.4175
   51MOL0     O 6774   3.113  10.757   4.003 -0.1249  0.0595 -0.5832
   51MOL0     C 6775   3.217  10.811   3.939  0.2363  0.7568  0.5628
   51MOL0     C 6776   3.183  10.905   3.840  1.0812  1.1017 -0.7786
   51MOL0     C 6777   3.284  10.952   3.755 -0.6865  0.1866 -0.0453
   51MOL0     C 6778   3.415  10.941   3.787 -0.2011  1.2074  0.5892
   51MOL0     C 6779   3.509  11.044   3.743 -0.6776  0.3646 -0.2201
   51MOL0     O 6780   3.642  11.042   3.774  0.0466  0.4520  0.0472
   51MOL0     C 6781   3.729  11.121   3.704 -0.4965  0.1118 -0.0659
   51MOL0     C 6782   3.804  11.215   3.778 -0.5751  1.1349  0.1099
   51MOL0     C 6783   3.915  11.271   3.725 -0.1995 -0.2621  0.4022
   51MOL0     C 6784   3.959  11.238   3.593 -0.1838 -0.8677 -0.0048
   51MOL0     O 6785   4.077  11.285   3.545 -0.2643  1.0400  0.2374
   51MOL0     C 6786   4.064  11.388   3.447  0.0262  0.2319 -0.7050
   51MOL0     C 6787   4.194  11.390   3.376 -1.2120 -0.2683 -0.5839
   51MOL0     C 6788   4.306  11.464   3.459 -0.3428  0.4264 -0.0324
   51MOL0     C 6789   4.429  11.470   3.380  0.3251  0.4382  0.0261
   51MOL0     C 6790   4.550  11.390   3.432  0.4750 -1.0591  0.0351
   51MOL0     C 6791   4.675  11.423   3.350 -0.2389 -0.2257 -0.5232
   51MOL0     C 6792   4.791  11.333   3.382  0.1037 -0.2663  0.8200
   51MOL0     C 6793   4.914  11.386   3.312 -0.0590 -0.3896 -0.4297
   51MOL0    Cl 6794   4.963  11.537   3.380  0.2967  0.0454 -0.2684
   51MOL0     C 6795   3.883  11.151   3.504  0.1354 -0.0900 -0.4786
   51MOL0     C 6796   3.777  11.091   3.567 -0.1348  0.3956  0.3052
   51MOL0     O 6797   3.457  11.121   3.663 -0.5533  0.4892 -0.4892
   51MOL0     C 6798   3.452  10.846   3.891 -0.0471 -0.3043 -0.5029
   51MOL0     C 6799   3.351  10.778   3.965  0.7246 -0.4814  0.5904
   51MOL0     N 6800   2.980  10.128   3.908 -0.4184  0.6793 -0.3454
   51MOL0     N 6801   2.901  10.100   3.807 -0.0229 -0.6762 -0.0246
   51MOL0     C 6802   3.186  10.500   2.877 -0.1783  0.8880  0.1328
   51MOL0     C 6803   3.189  10.633   2.848 -0.9967 -1.0477 -0.5683
   51MOL0     C 6804   3.365  11.066   2.783  0.1057  0.1329 -0.2334
   51MOL0     C 6805   3.475  11.143   2.755  0.5201  0.5824  0.4629
   51MOL0     C 6806   3.478  11.278   2.755 -0.7765 -0.6106 -0.5163
   51MOL0     C 6807   3.367  11.345   2.781  0.4913 -0.0368  0.6005
   51MOL0     O 6808   3.349  11.481   2.779  0.4049 -0.3167  0.4160
   51MOL0     C 6809   3.461  11.554   2.725  0.0212  0.5376  1.3124
   51MOL0     C 6810   3.445  11.550   2.569  0.4436 -0.3056 -0.1566
   51MOL0     C 6811   3.557  11.625   2.506 -0.0184 -0.1423 -0.4739
   51MOL0     C 6812   3.541  11.647   2.355 -1.4067  0.4804  0.5448
   51MOL0     C 6813   3.577  11.530   2.278 -0.4604 -0.1836  0.0639
   51MOL0     C 6814   3.613  11.439   2.208 -0.2043 -0.1940 -1.3886
   51MOL0     C 6815   3.246  11.280   2.796  0.5146  0.1450  0.1853
   51MOL0     C 6816   3.244  11.138   2.809 -0.3231 -0.0080  0.0272
   51MOL0     C 6817   3.113  11.071   2.818 -0.3782 -0.1948 -0.3030
   51MOL0     H 6818   3.512  10.700   2.921 -0.7700 -1.1848 -0.0025
   51MOL0     H 6819   3.521  10.439   2.929 -0.2610 -0.4215 -0.1935
   51MOL0     H 6820   3.381  10.252   3.116 -1.1661  0.3972  2.9749
   51MOL0     H 6821   3.254  10.371   3.121  1.0177  0.4627 -0.8044
   51MOL0     H 6822   3.194  10.115   3.205 -0.7665 -1.2319  0.4150
   51MOL0     H 6823   3.207  10.067   3.036  0.9538 -0.4938  1.7368
   51MOL0     H 6824   2.973  10.093   3.080  0.1614 -0.5197  0.6897
   51MOL0     H 6825   3.023  10.216   2.967 -0.9856  1.9173  1.0357
   51MOL0     H 6826   3.034  10.392   3.121  0.1222  0.0982  0.8732
   51MOL0     H 6827   2.872  10.320   3.113 -1.3285  2.0877  2.8587
   51MOL0     H 6828   3.061  10.263   3.345 -1.5491 -3.5398  2.1361
   51MOL0     H 6829   2.921  10.375   3.329  1.3971  0.8580 -2.2526
   51MOL0     H 6830   2.766  10.188   3.316  0.8337  0.6862  1.8517
   51MOL0     H 6831   2.887  10.083   3.259 -1.2898 -1.9786  1.8351
   51MOL0     H 6832   3.006  10.118   3.484  0.8818 -3.3415 -1.5770
   51MOL0     H 6833   2.870  10.001   3.454  0.9045 -0.2549 -4.0401
   51MOL0     H 6834   2.791  10.275   3.533 -1.1027 -0.4794 -0.9607
   51MOL0     H 6835   2.738  10.116   3.610  1.0942 -4.9004 -2.5868
   51MOL0     H 6836   3.060  10.354   3.678 -2.1694  1.0640 -1.4925
   51MOL0     H 6837   3.151  10.263   4.048 -1.4098  1.0021  0.2248
   51MOL0     H 6838   3.235  10.327   3.916 -0.6379  0.9844 -0.5397
   51MOL0     H 6839   3.038  10.511   3.913  3.7359  1.0825 -0.5131
   51MOL0     H 6840   2.979  10.426   4.060  1.0661 -2.7370 -0.9179
   51MOL0     H 6841   3.259  10.531   4.033 -0.1375 -1.4781 -0.5109
   51MOL0     H 6842   3.182  10.470   4.178 -1.8896 -2.0772  0.1200
   51MOL0     H 6843   3.201  10.719   4.184  0.5199  2.8849 -1.4949
   51MOL0     H 6844   3.032  10.674   4.177  0.6949 -0.3462  1.1345
   51MOL0     H 6845   3.081  10.937   3.822  0.4807 -0.7779 -0.9289
   51MOL0     H 6846   3.252  11.010   3.670  1.6451 -0.9880 -1.8581
   51MOL0     H 6847   3.788  11.224   3.885  2.0854  1.6633  0.5485
   51MOL0     H 6848   3.971  11.324   3.802  0.6426 -0.1500 -0.2788
   51MOL0     H 6849   3.979  11.374   3.379  0.7702 -0.7575 -1.4645
   51MOL0     H 6850   4.037  11.479   3.501 -4.3812 -1.4891  0.3872
   51MOL0     H 6851   4.225  11.286   3.361 -0.0760  0.1255 -1.0652
   51MOL0     H 6852   4.180  11.430   3.275 -1.7537  1.5767  0.1759
   51MOL0     H 6853   4.274  11.566   3.485  2.0729  1.4323 -0.7549
   51MOL0     H 6854   4.321  11.421   3.558  0.1095  1.3869  0.3217
   51MOL0     H 6855   4.465  11.571   3.361  0.9271  0.1807 -0.2131
   51MOL0     H 6856   4.411  11.423   3.283  0.3482 -0.0485  0.2518
   51MOL0     H 6857   4.523  11.285   3.440 -1.1744 -0.6834 -0.1686
   51MOL0     H 6858   4.574  11.414   3.536  1.0991 -0.3500 -0.2587
   51MOL0     H 6859   4.666  11.435   3.242  0.8292  1.2860 -0.4874
   51MOL0     H 6860   4.705  11.516   3.401 -0.5961 -0.1818 -0.3928
   51MOL0     H 6861   4.760  11.236   3.342  2.0418 -0.8356  0.6042
   51MOL0     H 6862   4.818  11.307   3.485 -2.0992  0.8708  1.7515
   51MOL0     H 6863   4.997  11.318   3.333 -1.2310 -0.7917  4.0024
   51MOL0     H 6864   4.904  11.396   3.204  4.1421  0.4624 -0.9178
   51MOL0     H 6865   3.918  11.128   3.404  2.4244  2.6230 -0.4164
   51MOL0     H 6866   3.717  11.015   3.517  1.4243 -0.5097 -0.2450
   51MOL0     H 6867   3.554  10.850   3.926 -1.2740  1.2798  3.3849
   51MOL0     H 6868   3.376  10.711   4.046  0.2854  0.7226  1.7732
   51MOL0     H 6869   3.100  10.436   2.862 -0.1662  0.9155 -0.0554
   51MOL0     H 6870   3.098  10.690   2.831 -0.9609 -0.5872  0.6522
   51MOL0     H 6871   3.571  11.098   2.730  2.0388  3.5040  0.5858
   51MOL0     H 6872   3.579  11.312   2.737  0.3468 -2.1903  2.2552
   51MOL0     H 6873   3.561  11.525   2.758  0.3568  0.2031  0.0378
   51MOL0     H 6874   3.443  11.656   2.759 -3.4571  0.4100  0.2219
   51MOL0     H 6875   3.345  11.591   2.551 -0.2017 -2.2600 -1.3906
   51MOL0     H 6876   3.450  11.446   2.535  0.0091 -1.5275  3.1093
   51MOL0     H 6877   3.652  11.578   2.533 -0.4748  0.0764  1.7472
   51MOL0     H 6878   3.557  11.722   2.556 -0.1323  0.4911 -1.6787
   51MOL0     H 6879   3.436  11.666   2.333 -1.8626 -2.8667 -0.6454
   51MOL0     H 6880   3.599  11.735   2.325 -1.1608  0.8747  2.0447
   51MOL0     H 6881   3.637  11.355   2.145 -0.7643 -1.2333 -0.2681
   51MOL0     H 6882   3.154  11.338   2.803  0.1058 -0.5820  1.1256
   51MOL0     H 6883   3.120  11.025   2.917  1.1557  0.2293 -0.1843
   51MOL0     H 6884   3.037  11.149   2.814 -2.2971 -1.9286  0.4104
   51MOL0     H 6885   3.093  10.987   2.750 -0.9729 -1.6118  1.5307
   52MOL0     O 6886   8.230  10.798   7.832  0.2425 -0.2455  0.6149
   52MOL0     C 6887   8.160  10.833   7.924  0.5633 -0.4466 -0.2350
   52MOL0     O 6888   8.025  10.820   7.923 -0.0601  0.2622  0.4187
   52MOL0     C 6889   7.963  10.794   7.806  0.8043 -0.1439  0.3665
   52MOL0     C 6890   7.961  10.667   7.745 -0.4505  0.4538 -0.2477
   52MOL0     C 6891   7.895  10.640   7.620 -0.1603 -0.3999 -0.7280
   52MOL0     C 6892   7.825  10.751   7.552  1.1957 -0.1642 -0.7073
   52MOL0     O 6893   7.766  10.742   7.426  0.2264 -0.4809  0.3563
   52MOL0     C 6894   7.773  10.632   7.344  0.0734 -0.5230  0.6346
   52MOL0     C 6895   7.630  10.570   7.329 -0.1533  0.2640  0.4877
   52MOL0     C 6896   7.644  10.426   7.283 -0.6942 -0.7989  0.3764
   52MOL0     C 6897   7.516  10.344   7.252  0.4923  0.0172  0.2905
   52MOL0     C 6898   7.564  10.204   7.205  0.0002  0.0334  0.2368
   52MOL0     C 6899   7.447  10.134   7.141  1.2747 -0.2597 -0.0302
   52MOL0     C 6900   7.342  10.086   7.245  0.4941  0.7397  0.4064
   52MOL0     C 6901   7.232  10.013   7.166 -0.5125  0.2633 -0.0881
   52MOL0     N 6902   7.278   9.900   7.083 -0.2368 -0.6167 -0.1673
   52MOL0     C 6903   7.295   9.774   7.125  0.8043 -0.3706 -0.3203
   52MOL0     C 6904   7.349   9.713   7.018  0.3333  0.9503  0.1486
   52MOL0     C 6905   7.404   9.575   7.028  0.6123  0.0155 -0.0424
   52MOL0     C 6906   7.524   9.549   6.933  0.6332  0.9127  0.5584
   52MOL0     C 6907   7.607   9.415   6.948 -1.2859 -1.0602 -0.7512
   52MOL0     C 6908   7.690   9.391   6.832  0.8360  0.2900  0.8011
   52MOL0     O 6909   7.795   9.487   6.830 -0.4277  0.2026 -0.8433
   52MOL0     C 6910   7.918   9.472   6.908  0.2991 -0.5159  0.9162
   52MOL0     C 6911   8.030   9.542   6.865 -0.1670 -0.5654  0.9208
   52MOL0     C 6912   8.151   9.515   6.928  0.4441  0.3286 -0.3106
   52MOL0     C 6913   8.167   9.409   7.024 -0.8520 -0.0226  0.2439
   52MOL0     C 6914   8.292   9.393   7.090  0.2279 -0.2203 -0.6200
   52MOL0     O 6915   8.331   9.259   7.121 -0.2990 -1.0820  0.4479
   52MOL0     C 6916   8.455   9.238   7.181 -0.6188  0.1311 -0.5416
   52MOL0     C 6917   8.581   9.292   7.151  0.7877  0.6114 -0.0958
   52MOL0     C 6918   8.695   9.253   7.207 -0.3292 -0.5724 -1.6560
   52MOL0     C 6919   8.696   9.164   7.316 -0.6552 -0.2103  0.0238
   52MOL0     O 6920   8.808   9.111   7.364 -0.5031 -0.7800 -0.6774
   52MOL0     C 6921   8.900   9.205   7.416 -0.2189  0.1991  0.6008
   52MOL0     C 6922   9.002   9.132   7.504 -0.1938  1.1974 -1.3241
   52MOL0     C 6923   9.084   9.226   7.591  0.0159  0.4227 -0.1966
   52MOL0     C 6924   9.192   9.293   7.512  0.0881  0.1441  1.1198
   52MOL0     C 6925   9.207   9.441   7.541  0.9452  0.0952 -0.5767
   52MOL0     C 6926   9.271   9.459   7.682  1.2773 -0.2390 -0.1912
   52MOL0     C 6927   9.317   9.602   7.695 -0.7638  0.2211 -0.4502
   52MOL0     C 6928   9.471   9.599   7.697 -0.4763  0.5957 -0.3860
   52MOL0    Cl 6929   9.532   9.550   7.528 -0.4722  0.1955  0.1128
   52MOL0     C 6930   8.579   9.091   7.338  1.0105 -0.8234  0.2237
   52MOL0     C 6931   8.461   9.138   7.281  1.2986  0.7436 -0.2743
   52MOL0     O 6932   8.349   9.494   7.123 -0.9747  0.6760  0.3684
   52MOL0     C 6933   8.050   9.339   7.066 -0.0935 -0.0204  0.0961
   52MOL0     C 6934   7.930   9.377   7.012  0.9367 -1.0549 -0.3751
   52MOL0     N 6935   7.361   9.811   6.916 -0.6330 -0.1246  0.1214
   52MOL0     N 6936   7.302   9.921   6.954 -0.8585 -0.5073 -0.1175
   52MOL0     C 6937   7.826  10.869   7.626 -0.6881 -0.4301 -0.0391
   52MOL0     C 6938   7.890  10.896   7.743 -0.3098 -0.5119  0.5623
   52MOL0     C 6939   8.214  10.915   8.038  1.0261 -0.8109 -0.4129
   52MOL0     C 6940   8.123  10.941   8.146  0.1858  0.0136 -0.3641
   52MOL0     C 6941   8.168  10.994   8.272 -0.4610 -1.0572 -0.1593
   52MOL0     C 6942   8.304  11.048   8.279 -0.1176  1.7826  0.2419
   52MOL0     O 6943   8.351  11.131   8.381  0.5931 -0.2906  0.1829
   52MOL0     C 6944   8.282  11.136   8.511  0.5655 -0.4797 -0.4361
   52MOL0     C 6945   8.264  11.003   8.581 -0.2820 -0.8477  0.5121
   52MOL0     C 6946   8.400  10.943   8.620 -0.5317  0.5581 -0.4598
   52MOL0     C 6947   8.505  11.036   8.687  0.7997  0.9180 -0.6104
   52MOL0     C 6948   8.618  10.961   8.737 -0.3659  0.2370 -0.9574
   52MOL0     C 6949   8.720  10.901   8.786 -0.2926 -0.6570 -0.5551
   52MOL0     C 6950   8.387  11.031   8.171 -0.7671  0.9276 -0.8420
   52MOL0     C 6951   8.349  10.956   8.055 -0.3972  0.7006 -0.8634
   52MOL0     C 6952   8.467  10.912   7.969 -0.6721 -0.3286  0.5432
   52MOL0     H 6953   8.023  10.589   7.789  1.8846  1.0023 -2.3508
   52MOL0     H 6954   7.896  10.541   7.576  2.5333 -0.7001 -0.1338
   52MOL0     H 6955   7.799  10.670   7.245  2.5560 -0.2463  1.3157
   52MOL0     H 6956   7.842  10.559   7.387  0.4664 -0.1438  0.6593
   52MOL0     H 6957   7.582  10.626   7.249 -3.0118  2.4479  3.4521
   52MOL0     H 6958   7.577  10.579   7.425 -0.9795 -2.1076  0.3287
   52MOL0     H 6959   7.700  10.371   7.359 -1.3451 -0.6381  0.9835
   52MOL0     H 6960   7.707  10.422   7.193 -0.7881  1.4357  0.1549
   52MOL0     H 6961   7.463  10.336   7.348  1.9761  2.7935  1.4635
   52MOL0     H 6962   7.452  10.403   7.185  0.7300 -2.2734 -2.1137
   52MOL0     H 6963   7.630  10.216   7.119 -3.0549  0.6099 -2.1910
   52MOL0     H 6964   7.597  10.144   7.291  0.5814  0.0237  0.0091
   52MOL0     H 6965   7.396  10.196   7.067  2.3200  0.6188 -0.0393
   52MOL0     H 6966   7.489  10.052   7.082  2.5907  3.5346 -5.0783
   52MOL0     H 6967   7.299  10.157   7.315  0.7765 -0.7702  2.1850
   52MOL0     H 6968   7.403  10.012   7.298  0.5099 -0.1486 -0.7822
   52MOL0     H 6969   7.164   9.971   7.241  0.9468  1.4062  1.9663
   52MOL0     H 6970   7.172  10.087   7.112 -0.7692 -1.0673 -1.7053
   52MOL0     H 6971   7.289   9.733   7.225 -0.3746  0.4478 -0.0282
   52MOL0     H 6972   7.436   9.546   7.129  0.5471 -1.6894 -0.4807
   52MOL0     H 6973   7.323   9.504   7.008 -2.9922  2.8341  2.9833
   52MOL0     H 6974   7.472   9.563   6.838 -1.5316 -0.3147  1.4918
   52MOL0     H 6975   7.591   9.635   6.924  2.1201 -0.2029  0.6491
   52MOL0     H 6976   7.546   9.325   6.958 -0.3690 -1.7986 -1.7277
   52MOL0     H 6977   7.660   9.425   7.043 -1.7987 -4.1589 -0.0216
   52MOL0     H 6978   7.632   9.420   6.743 -2.0047  0.4715  2.5907
   52MOL0     H 6979   7.729   9.290   6.821 -0.2353 -0.2280  1.5466
   52MOL0     H 6980   8.021   9.609   6.780 -3.5246  0.3330  1.8426
   52MOL0     H 6981   8.236   9.571   6.890  1.6516 -2.7316 -2.5103
   52MOL0     H 6982   8.588   9.364   7.070 -1.4542 -0.5643 -1.4522
   52MOL0     H 6983   8.793   9.284   7.172 -0.0608  0.3158 -0.1927
   52MOL0     H 6984   8.944   9.256   7.330 -1.8260  0.4196 -0.1288
   52MOL0     H 6985   8.845   9.283   7.469 -1.5190 -0.0005 -0.4051
   52MOL0     H 6986   8.961   9.054   7.568  3.3428 -1.2910 -1.8090
   52MOL0     H 6987   9.067   9.066   7.446  0.1544  0.4384 -0.1166
   52MOL0     H 6988   9.019   9.295   7.646 -1.3393 -2.7043  2.3967
   52MOL0     H 6989   9.133   9.168   7.669 -0.1138  1.9338  1.0777
   52MOL0     H 6990   9.166   9.270   7.408 -0.0502  0.3004  1.1206
   52MOL0     H 6991   9.286   9.236   7.514  0.8407  1.3213  0.4347
   52MOL0     H 6992   9.112   9.493   7.524  0.2525 -0.0756  2.2362
   52MOL0     H 6993   9.263   9.488   7.460 -0.6851  2.5183 -0.4285
   52MOL0     H 6994   9.199   9.435   7.761  0.9981  0.9430 -0.0629
   52MOL0     H 6995   9.353   9.387   7.681 -1.4338 -3.5420  0.0141
   52MOL0     H 6996   9.274   9.649   7.785  1.4430  1.9468 -0.1939
   52MOL0     H 6997   9.289   9.671   7.615 -3.3438 -0.2327 -0.0199
   52MOL0     H 6998   9.500   9.705   7.699 -3.0901  1.3726  0.2745
   52MOL0     H 6999   9.523   9.537   7.771  1.8206  1.3558 -1.2492
   52MOL0     H 7000   8.585   9.016   7.416  3.0970  2.0661  3.1156
   52MOL0     H 7001   8.364   9.106   7.318  1.4117  1.9747  1.1822
   52MOL0     H 7002   8.082   9.282   7.153  3.7059  2.0528  0.2226
   52MOL0     H 7003   7.840   9.328   7.047  0.3534  0.4341  0.2858
   52MOL0     H 7004   7.783  10.957   7.579  1.7028  2.5364  2.9284
   52MOL0     H 7005   7.888  10.991   7.795  2.9742 -0.5144  0.9577
   52MOL0     H 7006   8.016  10.928   8.128  0.6721 -1.7036 -2.4044
   52MOL0     H 7007   8.092  11.022   8.344 -1.2908  0.3385 -1.5314
   52MOL0     H 7008   8.179  11.169   8.494  0.6474 -0.2202 -0.4264
   52MOL0     H 7009   8.325  11.212   8.577  1.7376 -1.9412  0.5356
   52MOL0     H 7010   8.212  10.937   8.511  1.8528  0.0133 -2.0352
   52MOL0     H 7011   8.194  11.016   8.663 -0.4082 -0.8347  0.4020
   52MOL0     H 7012   8.459  10.894   8.541 -2.7145 -1.0973 -1.1318
   52MOL0     H 7013   8.367  10.866   8.690 -2.1882  0.8994 -0.8283
   52MOL0     H 7014   8.547  11.106   8.614 -1.1925  0.7177 -2.0095
   52MOL0     H 7015   8.462  11.102   8.763  1.9986  0.0590  0.8872
   52MOL0     H 7016   8.804  10.849   8.828  1.3266  1.9603 -0.3359
   52MOL0     H 7017   8.477  11.092   8.175 -0.7389  1.0808 -2.7736
   52MOL0     H 7018   8.558  10.957   8.010 -0.6244  1.4145 -1.3403
   52MOL0     H 7019   8.475  10.803   7.979 -3.7580 -0.4673  2.7612
   52MOL0     H 7020   8.464  10.946   7.865  1.1646 -1.0007  0.2235
   53MOL0     O 7021   2.091   4.762   2.815 -0.5098  0.0762  0.2292
   53MOL0     C 7022   2.197   4.825   2.788 -0.1493  0.3419 -0.3741
   53MOL0     O 7023   2.258   4.831   2.661 -0.8463 -0.6068 -0.3923
   53MOL0     C 7024   2.180   4.809   2.551 -0.2331  0.4090 -0.0266
   53MOL0     C 7025   2.038   4.817   2.535 -0.8513  0.5318  0.0574
   53MOL0     C 7026   1.986   4.787   2.406  0.4752  0.9859  0.4907
   53MOL0     C 7027   2.062   4.781   2.290 -0.2984 -0.1630  0.8401
   53MOL0     O 7028   2.013   4.762   2.164 -0.3070  0.6893 -0.3115
   53MOL0     C 7029   2.066   4.847   2.054  0.4606 -0.1231 -0.1595
   53MOL0     C 7030   2.047   4.761   1.923  0.1169  0.0531  0.3048
   53MOL0     C 7031   2.052   4.849   1.797  0.0542  0.1239 -0.2905
   53MOL0     C 7032   2.003   4.763   1.673  0.7326  0.0229 -0.4427
   53MOL0     C 7033   2.026   4.834   1.538 -0.7103 -0.1967  0.1373
   53MOL0     C 7034   1.936   4.951   1.509 -0.0613 -0.0675 -0.7077
   53MOL0     C 7035   1.942   5.004   1.364 -0.6112 -0.0075  0.3230
   53MOL0     C 7036   1.927   5.148   1.358 -0.2431  0.1315  0.4355
   53MOL0     N 7037   1.787   5.178   1.400 -0.3894 -0.2048  0.2428
   53MOL0     C 7038   1.781   5.274   1.500 -0.7776  0.5291  0.4127
   53MOL0     C 7039   1.645   5.286   1.520 -0.1016 -0.4972 -0.4995
   53MOL0     C 7040   1.581   5.362   1.630  0.7033  0.1520 -0.1884
   53MOL0     C 7041   1.597   5.296   1.768  0.3593  1.6154 -0.6576
   53MOL0     C 7042   1.537   5.153   1.772  0.0932 -0.4535  0.1876
   53MOL0     C 7043   1.545   5.085   1.905 -1.1281 -0.8687 -0.5309
   53MOL0     O 7044   1.523   5.182   2.010  0.7959 -0.4055  0.2292
   53MOL0     C 7045   1.545   5.139   2.136  0.0374  0.1144 -0.2558
   53MOL0     C 7046   1.442   5.155   2.227 -0.0782 -0.4719 -0.6972
   53MOL0     C 7047   1.443   5.107   2.361 -1.0693 -0.1922  0.0856
   53MOL0     C 7048   1.565   5.043   2.405  0.5003  0.7395 -1.1816
   53MOL0     C 7049   1.576   5.002   2.543 -0.9229 -0.1482  0.3388
   53MOL0     O 7050   1.687   4.940   2.570 -0.1496 -0.1889  0.0846
   53MOL0     C 7051   1.672   4.845   2.666  0.6385 -0.4896 -0.9941
   53MOL0     C 7052   1.599   4.723   2.652 -0.1998  0.2109  0.0701
   53MOL0     C 7053   1.585   4.629   2.753  0.2013 -1.1558 -0.0783
   53MOL0     C 7054   1.616   4.669   2.886  0.6517 -0.6472 -0.2406
   53MOL0     O 7055   1.576   4.593   2.999  0.0383 -0.3042  0.0206
   53MOL0     C 7056   1.445   4.586   3.021  0.6124 -0.0929 -0.4712
   53MOL0     C 7057   1.410   4.479   3.122  0.0564 -0.5328 -0.3582
   53MOL0     C 7058   1.487   4.513   3.251 -0.8947  0.1207  0.1909
   53MOL0     C 7059   1.446   4.645   3.320 -0.2315  0.0436  0.8846
   53MOL0     C 7060   1.501   4.676   3.460 -1.1084  0.3720 -0.6664
   53MOL0     C 7061   1.652   4.671   3.470  0.8239  0.7400 -0.6619
   53MOL0     C 7062   1.724   4.753   3.362 -0.4031 -0.1870 -0.8155
   53MOL0     C 7063   1.703   4.895   3.371 -0.3053  0.0966 -0.3450
   53MOL0    Cl 7064   1.812   4.968   3.245  0.1155 -0.2096 -0.3480
   53MOL0     C 7065   1.683   4.790   2.908  0.0161 -0.5255  0.4236
   53MOL0     C 7066   1.703   4.882   2.802  0.0735 -0.3886  0.1037
   53MOL0     O 7067   1.483   5.020   2.622  0.3201 -0.5011 -0.5993
   53MOL0     C 7068   1.673   5.021   2.318 -0.5562  0.0593 -0.9268
   53MOL0     C 7069   1.658   5.064   2.179  0.8578  0.0757 -1.2454
   53MOL0     N 7070   1.580   5.215   1.418  0.2518 -0.0799 -0.3457
   53MOL0     N 7071   1.664   5.144   1.349  0.8356 -0.3753  0.2388
   53MOL0     C 7072   2.202   4.774   2.305  0.7820 -0.5823 -0.5602
   53MOL0     C 7073   2.259   4.793   2.437 -1.0288  0.0453 -0.0871
   53MOL0     C 7074   2.278   4.885   2.894 -0.3006  0.2698  0.0018
   53MOL0     C 7075   2.406   4.841   2.913  0.3677  0.0449 -0.4661
   53MOL0     C 7076   2.483   4.887   3.023  0.3538  0.2411 -1.3002
   53MOL0     C 7077   2.434   4.979   3.118  0.2186  0.1019 -0.4465
   53MOL0     O 7078   2.513   5.017   3.218  0.4450 -0.7597 -0.2704
   53MOL0     C 7079   2.463   5.004   3.350 -0.3707 -0.6750  1.0618
   53MOL0     C 7080   2.521   4.891   3.421  0.1229  0.2844 -0.8201
   53MOL0     C 7081   2.454   4.880   3.564 -0.6133 -0.3569 -0.1636
   53MOL0     C 7082   2.320   4.811   3.565  0.6434  0.1372 -0.2763
   53MOL0     C 7083   2.204   4.897   3.535 -0.5431  0.3180  0.5738
   53MOL0     C 7084   2.116   4.961   3.479  0.1507 -0.0222 -0.3707
   53MOL0     C 7085   2.308   5.030   3.100 -0.0024  0.4129 -0.1972
   53MOL0     C 7086   2.230   4.979   2.992 -0.2876 -0.2812  0.5055
   53MOL0     C 7087   2.088   5.034   2.969  0.1109 -0.1849 -0.2458
   53MOL0     H 7088   1.964   4.834   2.613 -1.4290 -2.0199  0.1637
   53MOL0     H 7089   1.879   4.786   2.391  0.5190  1.0094  0.1598
   53MOL0     H 7090   2.005   4.936   2.039  1.8302  1.3693  2.4815
   53MOL0     H 7091   2.171   4.879   2.064 -0.3632  3.5552 -1.5073
   53MOL0     H 7092   1.951   4.710   1.933 -0.1151 -0.2528 -2.6675
   53MOL0     H 7093   2.115   4.677   1.905 -0.5363 -0.0825 -1.7143
   53MOL0     H 7094   2.158   4.865   1.777 -0.2361  2.0970 -0.4192
   53MOL0     H 7095   1.990   4.937   1.816  0.8803  0.4019  1.2416
   53MOL0     H 7096   2.068   4.674   1.670  1.1335  0.3249 -1.3886
   53MOL0     H 7097   1.900   4.729   1.687 -0.0759  2.6278  0.3973
   53MOL0     H 7098   2.123   4.885   1.534 -1.4101  1.1807  0.2174
   53MOL0     H 7099   2.029   4.764   1.454 -1.1031 -1.1318  0.8724
   53MOL0     H 7100   1.837   4.906   1.510  0.4128 -1.2791  2.2555
   53MOL0     H 7101   1.953   5.030   1.582 -1.4952  1.6435 -2.1224
   53MOL0     H 7102   1.865   4.957   1.302  0.7196  0.3927 -1.7206
   53MOL0     H 7103   2.039   4.977   1.321 -1.3860 -1.8439 -0.3693
   53MOL0     H 7104   2.001   5.195   1.424  1.1482 -0.0432 -0.9504
   53MOL0     H 7105   1.956   5.173   1.255  1.7985 -3.9467 -0.1862
   53MOL0     H 7106   1.870   5.324   1.537 -1.1409  1.0580  0.5916
   53MOL0     H 7107   1.629   5.460   1.640 -0.8707  0.8201  1.2949
   53MOL0     H 7108   1.477   5.370   1.600  0.9708 -1.8643 -1.9430
   53MOL0     H 7109   1.703   5.289   1.793 -0.0079  0.2224  0.7183
   53MOL0     H 7110   1.547   5.356   1.845  3.3828 -2.2346  5.0675
   53MOL0     H 7111   1.587   5.088   1.699 -1.0641  2.0569 -3.0984
   53MOL0     H 7112   1.429   5.154   1.751 -0.2502 -0.7739  1.8166
   53MOL0     H 7113   1.645   5.042   1.915  0.5357  2.3880 -1.7408
   53MOL0     H 7114   1.470   5.006   1.903  0.2388 -2.2185 -2.0765
   53MOL0     H 7115   1.352   5.198   2.184 -0.3432 -3.0998 -3.0894
   53MOL0     H 7116   1.354   5.126   2.420 -1.5187  0.9120 -0.9122
   53MOL0     H 7117   1.566   4.686   2.556  2.9658 -0.3043 -0.9424
   53MOL0     H 7118   1.530   4.542   2.720  2.0011 -2.2898 -0.2037
   53MOL0     H 7119   1.422   4.689   3.049  1.3524 -0.0083 -0.1480
   53MOL0     H 7120   1.387   4.568   2.930 -0.6456 -3.9038  0.8825
   53MOL0     H 7121   1.303   4.459   3.138 -0.0324 -0.7482 -1.1837
   53MOL0     H 7122   1.453   4.389   3.078  0.5981  0.6914 -2.4840
   53MOL0     H 7123   1.464   4.436   3.325  1.6584  0.7422  1.7406
   53MOL0     H 7124   1.594   4.521   3.231 -1.2166  0.2490 -1.5647
   53MOL0     H 7125   1.338   4.628   3.324 -0.8957  2.6182 -2.1851
   53MOL0     H 7126   1.463   4.732   3.257  1.2173 -0.3267  0.7365
   53MOL0     H 7127   1.455   4.601   3.526 -0.2353  0.1468 -0.2966
   53MOL0     H 7128   1.473   4.778   3.487  1.3780  1.1405 -0.7386
   53MOL0     H 7129   1.688   4.705   3.568  1.6685  2.7379 -1.6133
   53MOL0     H 7130   1.680   4.566   3.458 -3.4786 -0.4738 -1.7573
   53MOL0     H 7131   1.697   4.720   3.261  0.1822  1.5074 -1.5412
   53MOL0     H 7132   1.828   4.727   3.380 -0.8275 -0.5250  1.5038
   53MOL0     H 7133   1.600   4.917   3.342 -1.1782 -2.0415  0.9196
   53MOL0     H 7134   1.722   4.943   3.468 -3.9175 -0.7149  0.9089
   53MOL0     H 7135   1.698   4.824   3.010 -0.7978  1.3121 -0.0205
   53MOL0     H 7136   1.743   4.982   2.818  2.1711 -0.9969 -1.0279
   53MOL0     H 7137   1.761   4.971   2.356 -2.9893 -2.7066  1.5775
   53MOL0     H 7138   1.735   5.052   2.104  1.9629 -0.2955 -0.0914
   53MOL0     H 7139   2.255   4.747   2.214  1.8544  0.9838 -0.4480
   53MOL0     H 7140   2.366   4.773   2.446 -0.2593  2.2172 -2.8478
   53MOL0     H 7141   2.445   4.771   2.839 -0.8134 -0.3031 -0.7691
   53MOL0     H 7142   2.577   4.838   3.047 -1.1343 -1.7741  0.8377
   53MOL0     H 7143   2.354   5.009   3.362 -0.5964  3.4300 -0.8342
   53MOL0     H 7144   2.507   5.097   3.389  2.2442 -2.0012  1.4400
   53MOL0     H 7145   2.624   4.927   3.416  0.0885  0.4912 -0.0193
   53MOL0     H 7146   2.514   4.795   3.368 -1.5704  1.7143 -3.4430
   53MOL0     H 7147   2.471   4.973   3.619  2.7157  0.0574 -1.6593
   53MOL0     H 7148   2.520   4.806   3.611 -0.9848 -0.7376 -0.2387
   53MOL0     H 7149   2.314   4.723   3.500 -0.0060  1.7280 -2.4935
   53MOL0     H 7150   2.294   4.778   3.666 -1.2995  1.2740 -0.3567
   53MOL0     H 7151   2.052   5.023   3.419  1.6154  0.9613 -0.9936
   53MOL0     H 7152   2.282   5.116   3.161  1.5082  0.2264  0.7596
   53MOL0     H 7153   2.063   5.086   2.876 -0.9961  1.2423  0.8059
   53MOL0     H 7154   2.027   4.945   2.953  0.5196 -0.3215 -1.0925
   53MOL0     H 7155   2.040   5.085   3.053 -1.0974  3.2262 -2.7512
   54MOL0     O 7156   7.731   4.688   9.055  0.0446  0.4119 -0.3839
   54MOL0     C 7157   7.647   4.771   9.099 -0.2759  1.1849 -0.4805
   54MOL0     O 7158   7.521   4.779   9.064  0.4923 -0.1835  0.0353
   54MOL0     C 7159   7.464   4.670   8.996  0.8428  0.3205  0.0445
   54MOL0     C 7160   7.490   4.539   9.039 -0.5254 -0.3268 -0.2857
   54MOL0     C 7161   7.420   4.435   8.990 -0.9552 -1.0731 -0.2932
   54MOL0     C 7162   7.320   4.451   8.898  0.1425  0.0149 -0.1372
   54MOL0     O 7163   7.241   4.344   8.845  0.1121 -0.2831  0.2824
   54MOL0     C 7164   7.279   4.206   8.866 -0.1445 -0.3362  0.4323
   54MOL0     C 7165   7.167   4.100   8.866 -0.3476  0.0615 -0.4207
   54MOL0     C 7166   7.122   4.069   8.715 -0.4508 -0.6280 -0.2227
   54MOL0     C 7167   7.042   3.936   8.720 -0.0273 -0.7633 -0.6188
   54MOL0     C 7168   6.996   3.897   8.577 -0.1029 -0.5288  0.2006
   54MOL0     C 7169   6.874   3.976   8.538  1.2807 -0.1732  0.4791
   54MOL0     C 7170   6.837   3.952   8.385 -0.7059 -1.0411 -1.3588
   54MOL0     C 7171   6.737   4.051   8.330  0.0023  0.4559  0.0181
   54MOL0     N 7172   6.727   4.038   8.178 -0.1416 -0.1260  0.4068
   54MOL0     C 7173   6.795   4.122   8.088 -0.3095 -0.0671 -0.1818
   54MOL0     C 7174   6.770   4.053   7.975  0.6622  0.4268  0.2184
   54MOL0     C 7175   6.813   4.100   7.837  0.0232 -0.1793 -1.6110
   54MOL0     C 7176   6.953   4.159   7.809  0.8297  0.0203 -0.1025
   54MOL0     C 7177   7.057   4.087   7.903 -0.0860 -0.4823  0.0510
   54MOL0     C 7178   7.194   4.128   7.861 -0.7488 -0.0498  0.5801
   54MOL0     O 7179   7.236   4.079   7.725  0.9856  0.1407  0.1664
   54MOL0     C 7180   7.357   4.066   7.679  0.1818 -0.2586  0.4794
   54MOL0     C 7181   7.374   3.959   7.583 -0.5769 -0.9800 -0.3353
   54MOL0     C 7182   7.501   3.919   7.542 -0.2752 -0.6419 -0.0201
   54MOL0     C 7183   7.616   3.993   7.576  0.3393  0.4084  0.0749
   54MOL0     C 7184   7.751   3.963   7.520  0.0780 -0.4229 -0.0681
   54MOL0     O 7185   7.847   3.979   7.606 -0.2826  0.4881 -0.3086
   54MOL0     C 7186   7.975   3.945   7.553 -0.3287 -0.2948 -0.3357
   54MOL0     C 7187   8.040   4.046   7.470  0.7124  1.1879 -0.3202
   54MOL0     C 7188   8.169   4.025   7.431 -0.3867  1.0877  0.4408
   54MOL0     C 7189   8.243   3.918   7.476  0.4443  0.0808  0.7426
   54MOL0     O 7190   8.380   3.899   7.453  0.2244  0.5858  0.6583
   54MOL0     C 7191   8.434   3.780   7.388  0.6052 -1.4764 -0.2853
   54MOL0     C 7192   8.583   3.796   7.422  0.1757 -0.3923 -0.0205
   54MOL0     C 7193   8.659   3.667   7.381 -0.2361  0.1046  0.6074
   54MOL0     C 7194   8.639   3.638   7.230  0.7155  0.1521  0.3467
   54MOL0     C 7195   8.706   3.508   7.168  0.4849 -0.7121 -0.9788
   54MOL0     C 7196   8.689   3.375   7.243 -0.0501 -0.8343 -0.5158
   54MOL0     C 7197   8.770   3.251   7.209  0.3934  0.8646  0.0813
   54MOL0     C 7198   8.697   3.122   7.236  0.2284 -0.4619  0.3912
   54MOL0    Cl 7199   8.668   3.102   7.409  0.2169 -0.0198  0.2169
   54MOL0     C 7200   8.180   3.824   7.558 -0.4605  1.1670  0.2536
   54MOL0     C 7201   8.049   3.837   7.597  1.0960  0.0119 -0.3067
   54MOL0     O 7202   7.754   3.914   7.406 -0.4812 -0.6773 -0.8295
   54MOL0     C 7203   7.595   4.103   7.665  0.7316 -0.1440  0.6518
   54MOL0     C 7204   7.464   4.143   7.712  0.3736  0.3081  0.0672
   54MOL0     N 7205   6.687   3.942   7.986 -0.0245 -0.3567 -0.8163
   54MOL0     N 7206   6.672   3.930   8.117 -0.1307  0.0870  0.2673
   54MOL0     C 7207   7.291   4.585   8.853 -1.1946  0.5437  0.1964
   54MOL0     C 7208   7.358   4.691   8.911 -0.1423  0.7751  0.0658
   54MOL0     C 7209   7.690   4.854   9.211 -0.0480 -0.4153  0.6483
   54MOL0     C 7210   7.594   4.890   9.306 -0.2234 -0.0193 -0.9915
   54MOL0     C 7211   7.623   4.975   9.410  0.9018 -0.4714 -0.7219
   54MOL0     C 7212   7.748   5.039   9.427  0.5518  0.5450  0.7629
   54MOL0     O 7213   7.762   5.110   9.536  1.2392  0.2382 -0.7201
   54MOL0     C 7214   7.885   5.137   9.594 -0.0954  0.0533 -0.7608
   54MOL0     C 7215   7.865   5.194   9.726  0.2571  0.1945 -1.0275
   54MOL0     C 7216   7.832   5.079   9.823 -1.0504 -0.4770 -0.0101
   54MOL0     C 7217   7.822   5.115   9.966  1.7891 -0.4723  0.6682
   54MOL0     C 7218   7.728   5.217  10.001 -0.2857 -1.2235  0.9632
   54MOL0     C 7219   7.643   5.305  10.026 -0.4102  0.1416 -0.2233
   54MOL0     C 7220   7.847   5.006   9.328  0.1666 -0.4376 -0.2679
   54MOL0     C 7221   7.820   4.917   9.228  0.4195 -0.0210  0.4682
   54MOL0     C 7222   7.934   4.897   9.117  0.0522  0.5016  0.0287
   54MOL0     H 7223   7.568   4.500   9.103 -1.1829 -0.5301  0.4156
   54MOL0     H 7224   7.450   4.342   9.037  2.5928  1.1077  2.2268
   54MOL0     H 7225   7.352   4.177   8.789 -1.9086 -1.3306 -0.9544
   54MOL0     H 7226   7.330   4.180   8.959  1.5961  0.0822 -0.3512
   54MOL0     H 7227   7.074   4.134   8.913  0.1022  0.4827  0.1783
   54MOL0     H 7228   7.199   4.008   8.915  0.1758  1.5478  2.1698
   54MOL0     H 7229   7.211   4.069   8.651 -0.3565 -1.7169 -0.1183
   54MOL0     H 7230   7.055   4.147   8.680 -0.0491 -0.9022 -1.6884
   54MOL0     H 7231   7.110   3.858   8.757 -1.4781 -1.6750  0.2157
   54MOL0     H 7232   6.959   3.952   8.788  1.4187  0.7296  0.8952
   54MOL0     H 7233   7.079   3.918   8.509  2.4927 -0.3432  3.1910
   54MOL0     H 7234   6.975   3.790   8.580  1.0603 -0.8021  3.8012
   54MOL0     H 7235   6.790   3.947   8.602  1.5119  1.2340  1.4642
   54MOL0     H 7236   6.867   4.083   8.562 -0.1620 -0.1235 -0.0766
   54MOL0     H 7237   6.801   3.849   8.384 -1.2654 -0.8537 -2.5377
   54MOL0     H 7238   6.933   3.953   8.331  0.1451 -3.3111 -0.0497
   54MOL0     H 7239   6.638   4.029   8.370  0.3630  0.6645  1.0649
   54MOL0     H 7240   6.763   4.156   8.345 -2.9439  2.0121 -4.0465
   54MOL0     H 7241   6.850   4.215   8.102 -3.0747  1.3975  1.8316
   54MOL0     H 7242   6.799   4.009   7.779 -0.3623 -1.7853  0.8372
   54MOL0     H 7243   6.722   4.158   7.820 -3.2798 -4.1108  0.7527
   54MOL0     H 7244   6.976   4.157   7.702  1.4209  0.7332  0.0044
   54MOL0     H 7245   6.949   4.266   7.831 -3.5407  0.0594 -0.2737
   54MOL0     H 7246   7.045   3.979   7.892  0.3047 -0.5722  0.4856
   54MOL0     H 7247   7.043   4.118   8.007  0.7374 -0.3758  0.1365
   54MOL0     H 7248   7.262   4.091   7.937  3.4176  1.6001 -2.0071
   54MOL0     H 7249   7.213   4.235   7.867  2.9413 -0.6112  0.9573
   54MOL0     H 7250   7.288   3.907   7.541 -0.9900 -0.7364  0.2042
   54MOL0     H 7251   7.508   3.833   7.477  2.3069  0.3704 -1.2275
   54MOL0     H 7252   7.985   4.134   7.440 -1.5241  0.0681  0.3201
   54MOL0     H 7253   8.230   4.108   7.397 -0.4496  0.7812 -0.4413
   54MOL0     H 7254   8.388   3.693   7.436 -2.2123 -0.9567 -1.8767
   54MOL0     H 7255   8.410   3.775   7.281 -0.1430 -3.8330 -0.0647
   54MOL0     H 7256   8.628   3.884   7.376 -2.4550  1.8279  1.3697
   54MOL0     H 7257   8.599   3.807   7.530  1.7124  2.0718 -0.4228
   54MOL0     H 7258   8.766   3.680   7.399  0.5710 -2.5561 -1.5855
   54MOL0     H 7259   8.623   3.581   7.439 -3.7908  1.2693  0.3348
   54MOL0     H 7260   8.668   3.728   7.174  2.0041 -0.0366  0.6788
   54MOL0     H 7261   8.532   3.627   7.211  1.0812  1.6763 -3.7386
   54MOL0     H 7262   8.812   3.533   7.158  0.0019  0.6467 -3.5775
   54MOL0     H 7263   8.684   3.503   7.060 -1.4433  0.8976 -0.7157
   54MOL0     H 7264   8.722   3.392   7.346  4.4848 -1.0371 -1.7117
   54MOL0     H 7265   8.584   3.347   7.237 -0.7067  1.5421 -1.2014
   54MOL0     H 7266   8.856   3.246   7.276 -0.5326  2.3661  1.4601
   54MOL0     H 7267   8.807   3.255   7.106  0.9396 -0.4308  0.2138
   54MOL0     H 7268   8.603   3.129   7.180  1.9723 -0.5353 -2.7806
   54MOL0     H 7269   8.756   3.041   7.192 -0.0988 -0.6443  0.2822
   54MOL0     H 7270   8.235   3.739   7.598  0.5705  1.8729  0.3673
   54MOL0     H 7271   7.998   3.770   7.666 -0.3612  0.5634 -0.8235
   54MOL0     H 7272   7.676   4.165   7.703  1.1926 -1.5977  2.1475
   54MOL0     H 7273   7.453   4.229   7.777 -1.2914 -1.7827  2.7954
   54MOL0     H 7274   7.210   4.587   8.781  2.5635 -2.6679 -4.7953
   54MOL0     H 7275   7.331   4.790   8.875  3.9102  0.6279 -4.4099
   54MOL0     H 7276   7.492   4.854   9.297  0.6377 -2.7267 -0.7381
   54MOL0     H 7277   7.545   4.996   9.481  1.5949  2.2388 -0.6759
   54MOL0     H 7278   7.936   5.207   9.528  1.8050  1.3553  1.9189
   54MOL0     H 7279   7.957   5.056   9.601  0.5755  0.7599  2.6569
   54MOL0     H 7280   7.785   5.269   9.726 -2.3017 -2.2008  2.8015
   54MOL0     H 7281   7.953   5.247   9.765  0.0377 -1.4161  1.9490
   54MOL0     H 7282   7.912   5.005   9.813 -2.2320 -1.6991 -0.8825
   54MOL0     H 7283   7.739   5.025   9.799 -1.6675 -0.0655  1.3571
   54MOL0     H 7284   7.786   5.022  10.012 -3.1013 -0.5813 -2.6744
   54MOL0     H 7285   7.921   5.129  10.010  1.6426 -2.7886  1.8675
   54MOL0     H 7286   7.587   5.395  10.041  0.6465  2.2459 -6.1344
   54MOL0     H 7287   7.946   5.052   9.325 -0.4954  1.2570  1.4343
   54MOL0     H 7288   7.972   4.796   9.133  1.0167  0.6506 -1.1132
   54MOL0     H 7289   7.903   4.900   9.012  0.0109 -1.6624 -0.0557
   54MOL0     H 7290   8.016   4.968   9.131  1.3169 -0.6008 -1.3564
   55MOL0     O 7291   7.215   1.425   9.691  0.2713 -0.3101  0.0352
   55MOL0     C 7292   7.136   1.334   9.685  0.5720  0.7551  0.1236
   55MOL0     O 7293   7.140   1.221   9.603 -0.2354 -0.6813  0.1258
   55MOL0     C 7294   7.247   1.199   9.521  0.1594 -0.8576  0.1797
   55MOL0     C 7295   7.367   1.277   9.511 -0.1378  0.9164  0.6473
   55MOL0     C 7296   7.446   1.254   9.398 -0.2579 -0.9258 -0.2967
   55MOL0     C 7297   7.423   1.148   9.316 -1.0751 -0.0846 -1.1927
   55MOL0     O 7298   7.512   1.106   9.216  0.2269  0.1305  0.9254
   55MOL0     C 7299   7.573   1.217   9.151 -0.0287 -0.7397 -0.7482
   55MOL0     C 7300   7.604   1.183   9.005  0.1574  0.6399 -0.9102
   55MOL0     C 7301   7.660   1.299   8.926 -1.3767  0.5070 -0.3896
   55MOL0     C 7302   7.547   1.409   8.887  0.2063 -0.7571 -0.1497
   55MOL0     C 7303   7.501   1.403   8.733 -0.9023  0.3367  0.5380
   55MOL0     C 7304   7.353   1.442   8.703 -0.0974  0.0276 -0.5683
   55MOL0     C 7305   7.316   1.485   8.560  0.5834 -1.2920  0.1280
   55MOL0     C 7306   7.165   1.468   8.513  0.1730  0.2921  0.3044
   55MOL0     N 7307   7.083   1.592   8.541 -0.2519  0.3981 -0.6780
   55MOL0     C 7308   7.036   1.605   8.670 -0.7640  0.3150 -0.0075
   55MOL0     C 7309   7.001   1.733   8.684  0.0135 -0.3497  0.4839
   55MOL0     C 7310   6.950   1.780   8.815 -0.0099  0.2095  0.5722
   55MOL0     C 7311   6.922   1.933   8.814  0.1506 -0.0747  0.2392
   55MOL0     C 7312   6.877   1.982   8.950 -0.1697  0.4531 -0.3593
   55MOL0     C 7313   6.959   1.939   9.066  0.5939 -0.5945 -0.1216
   55MOL0     O 7314   6.940   2.046   9.163  0.0169 -0.8521  0.0376
   55MOL0     C 7315   7.005   2.040   9.287 -0.8338  0.3115  0.5218
   55MOL0     C 7316   6.944   2.128   9.389 -0.0928  0.1613  1.4588
   55MOL0     C 7317   7.001   2.132   9.508 -1.2067 -0.3224  0.1086
   55MOL0     C 7318   7.118   2.069   9.550  0.7446 -0.8980  0.6400
   55MOL0     C 7319   7.177   2.074   9.686 -0.8510  0.1246 -2.1089
   55MOL0     O 7320   7.292   1.998   9.700  0.6313  0.2999  0.6648
   55MOL0     C 7321   7.378   1.995   9.799 -0.5280  0.2164 -0.0604
   55MOL0     C 7322   7.484   1.913   9.777  0.3598 -0.1085 -0.4348
   55MOL0     C 7323   7.593   1.905   9.871  0.0969 -0.4751 -0.5303
   55MOL0     C 7324   7.600   1.986   9.980 -0.5911  0.3710 -0.2455
   55MOL0     O 7325   7.698   1.961  10.070  1.1763 -0.5507  0.8365
   55MOL0     C 7326   7.694   2.015  10.201 -0.3011 -0.5203 -0.3748
   55MOL0     C 7327   7.576   1.964  10.284 -0.0485 -0.4009 -0.1375
   55MOL0     C 7328   7.619   1.839  10.353 -0.2418 -0.4777  0.5569
   55MOL0     C 7329   7.515   1.744  10.407 -0.2373 -0.1868 -0.9820
   55MOL0     C 7330   7.586   1.625  10.464 -0.6195  0.2546  0.2646
   55MOL0     C 7331   7.490   1.507  10.507 -0.2595 -0.5549  1.3522
   55MOL0     C 7332   7.512   1.456  10.652  0.4819  0.7885 -0.5283
   55MOL0     C 7333   7.648   1.417  10.678  0.2381  0.1156  0.1996
   55MOL0    Cl 7334   7.651   1.303  10.819 -0.0359  0.0472 -0.4597
   55MOL0     C 7335   7.488   2.077  10.006 -0.2475 -0.1917  0.6683
   55MOL0     C 7336   7.382   2.076   9.908  0.7324 -0.5147 -0.9133
   55MOL0     O 7337   7.125   2.151   9.770  0.4336  0.4368 -0.8703
   55MOL0     C 7338   7.175   1.984   9.452  0.0670 -0.5735  0.7177
   55MOL0     C 7339   7.115   1.966   9.325  0.3572  0.8130  0.2853
   55MOL0     N 7340   7.024   1.802   8.570 -0.1790  0.7942 -0.8865
   55MOL0     N 7341   7.055   1.718   8.483 -0.3165  0.1987  0.1064
   55MOL0     C 7342   7.318   1.057   9.332  1.0047  0.3730  0.6850
   55MOL0     C 7343   7.227   1.085   9.432  1.3153 -0.5644  0.6781
   55MOL0     C 7344   6.997   1.350   9.752 -0.6270 -0.5320  0.3279
   55MOL0     C 7345   6.888   1.288   9.685 -0.2877 -0.5942  0.1962
   55MOL0     C 7346   6.753   1.317   9.732  0.1906 -0.2380  1.0443
   55MOL0     C 7347   6.734   1.393   9.844 -0.1253 -0.0455  1.0102
   55MOL0     O 7348   6.600   1.415   9.892 -0.3293  0.1644  0.7134
   55MOL0     C 7349   6.564   1.552   9.910 -0.9180 -0.6299 -0.2138
   55MOL0     C 7350   6.427   1.584   9.857 -0.5098  0.4715  0.0470
   55MOL0     C 7351   6.431   1.622   9.703 -0.0919  0.0849 -0.5015
   55MOL0     C 7352   6.471   1.761   9.677  0.6663 -1.1476 -0.7192
   55MOL0     C 7353   6.353   1.844   9.660 -0.1057  0.5754 -0.3202
   55MOL0     C 7354   6.250   1.905   9.690 -0.4259 -0.0046  0.7001
   55MOL0     C 7355   6.846   1.440   9.909  0.7319 -0.1973  0.1595
   55MOL0     C 7356   6.976   1.424   9.870 -0.3235 -0.5824  0.3115
   55MOL0     C 7357   7.090   1.469   9.970  0.3993  0.8169 -0.3318
   55MOL0     H 7358   7.388   1.368   9.566 -2.0366  2.4324 -0.9946
   55MOL0     H 7359   7.520   1.334   9.400 -0.7034 -0.5229  0.2609
   55MOL0     H 7360   7.495   1.292   9.138 -3.0294 -3.8230 -2.0572
   55MOL0     H 7361   7.655   1.253   9.214 -0.4364 -0.0800 -0.5866
   55MOL0     H 7362   7.508   1.163   8.956  0.4646  1.1310 -1.7358
   55MOL0     H 7363   7.662   1.090   9.000 -2.7912 -1.3880 -0.2884
   55MOL0     H 7364   7.713   1.262   8.837 -2.2009 -0.9065 -0.3290
   55MOL0     H 7365   7.744   1.342   8.981  0.3577 -3.9168  0.9321
   55MOL0     H 7366   7.463   1.394   8.956 -0.8456  1.9326 -0.7199
   55MOL0     H 7367   7.586   1.510   8.900  0.1540 -0.5112 -1.7032
   55MOL0     H 7368   7.567   1.470   8.675 -3.3516 -1.0867 -4.4431
   55MOL0     H 7369   7.520   1.303   8.694 -0.7770  0.7467 -0.5061
   55MOL0     H 7370   7.283   1.360   8.721 -0.2885 -0.5601 -3.5743
   55MOL0     H 7371   7.331   1.522   8.774  0.8666  0.1161 -0.3529
   55MOL0     H 7372   7.381   1.427   8.494  1.0483 -2.2730  1.4233
   55MOL0     H 7373   7.346   1.590   8.558  2.2653 -1.7202  1.0201
   55MOL0     H 7374   7.178   1.450   8.405  2.1647  3.0598 -0.0373
   55MOL0     H 7375   7.129   1.374   8.554 -0.3645 -1.0063 -2.8529
   55MOL0     H 7376   7.044   1.536   8.753 -0.1815 -0.0783 -0.3804
   55MOL0     H 7377   6.856   1.727   8.833  1.3306 -2.2488  0.7097
   55MOL0     H 7378   7.034   1.759   8.881  3.0916 -0.2717 -3.1517
   55MOL0     H 7379   7.016   1.981   8.788  0.6549  0.8064  3.2717
   55MOL0     H 7380   6.846   1.955   8.738 -3.3795  0.7859  3.6616
   55MOL0     H 7381   6.771   1.963   8.969 -0.4642  3.2936  1.4379
   55MOL0     H 7382   6.893   2.089   8.935  1.9180  0.1088 -0.9248
   55MOL0     H 7383   7.066   1.929   9.046  0.3183 -0.5251 -1.7522
   55MOL0     H 7384   6.910   1.846   9.097 -1.4032  0.7946  1.0567
   55MOL0     H 7385   6.853   2.182   9.362 -0.6172 -2.1498 -2.1488
   55MOL0     H 7386   6.930   2.183   9.573 -2.4216 -1.4943 -0.2354
   55MOL0     H 7387   7.483   1.854   9.686 -0.5898  1.0168 -1.1792
   55MOL0     H 7388   7.668   1.829   9.851 -0.1488 -1.7315  2.7432
   55MOL0     H 7389   7.787   1.994  10.255 -0.0448  0.3242 -0.4753
   55MOL0     H 7390   7.688   2.122  10.181  0.9531 -0.7459 -2.2273
   55MOL0     H 7391   7.540   2.046  10.346  0.3155  1.3674 -2.1828
   55MOL0     H 7392   7.484   1.936  10.232 -2.0818  3.3703  1.1116
   55MOL0     H 7393   7.706   1.785  10.316  0.8519  0.8262  1.1169
   55MOL0     H 7394   7.666   1.888  10.439  0.5621  3.0779 -1.7196
   55MOL0     H 7395   7.453   1.699  10.329 -1.0815 -2.2312  0.7801
   55MOL0     H 7396   7.450   1.799  10.475  2.1245  2.3155 -0.5914
   55MOL0     H 7397   7.654   1.655  10.545 -0.1958 -1.8411  0.7309
   55MOL0     H 7398   7.652   1.583  10.388  1.6657  2.4344  0.8846
   55MOL0     H 7399   7.383   1.523  10.492  0.1563  3.9415  1.8970
   55MOL0     H 7400   7.514   1.415  10.452 -0.2732 -0.7185  1.6215
   55MOL0     H 7401   7.444   1.372  10.663  0.5602  0.6770 -0.8716
   55MOL0     H 7402   7.496   1.531  10.730  0.6256 -2.1956  2.5902
   55MOL0     H 7403   7.700   1.374  10.592  1.5041  1.9741 -0.0226
   55MOL0     H 7404   7.707   1.505  10.707 -0.5531  0.6756  0.1355
   55MOL0     H 7405   7.485   2.136  10.097 -2.0775  0.4247  0.2539
   55MOL0     H 7406   7.291   2.133   9.923  0.7138  1.0456 -5.3972
   55MOL0     H 7407   7.262   1.920   9.469  0.7039 -0.1085 -0.6206
   55MOL0     H 7408   7.165   1.907   9.249 -1.9738  0.0652 -0.7307
   55MOL0     H 7409   7.291   0.988   9.253  1.7291 -0.1385  0.8724
   55MOL0     H 7410   7.136   1.028   9.446 -0.0632  1.2478 -0.4520
   55MOL0     H 7411   6.904   1.218   9.603  0.3925  2.2640 -2.2972
   55MOL0     H 7412   6.671   1.257   9.693 -1.2428  1.5583  1.1912
   55MOL0     H 7413   6.641   1.620   9.872 -0.5860 -0.9969 -0.2117
   55MOL0     H 7414   6.569   1.566  10.018  1.7250 -1.6359 -0.1254
   55MOL0     H 7415   6.379   1.670   9.904  0.4819  0.6313  0.8002
   55MOL0     H 7416   6.361   1.502   9.886  0.2901  0.9575  3.7172
   55MOL0     H 7417   6.339   1.582   9.660 -0.3318  0.3678 -0.2616
   55MOL0     H 7418   6.511   1.561   9.660  0.9291  2.4639 -2.1741
   55MOL0     H 7419   6.545   1.799   9.748  1.4219 -0.1990 -1.9875
   55MOL0     H 7420   6.531   1.767   9.586  0.8435 -1.7803 -0.6516
   55MOL0     H 7421   6.167   1.969   9.713  0.9609  1.2298  2.5887
   55MOL0     H 7422   6.820   1.484  10.005 -2.1714 -0.3119 -0.4760
   55MOL0     H 7423   7.136   1.561   9.931 -0.0538  1.3125  0.2742
   55MOL0     H 7424   7.054   1.490  10.071  0.3090  0.6560 -0.3322
   55MOL0     H 7425   7.163   1.388   9.976 -1.0269 -0.5036 -0.2391
   56MOL0     O 7426   5.395   5.552  10.885  0.3306  0.7121  0.3198
   56MOL0     C 7427   5.363   5.580  10.768  0.0827 -0.1846  0.1342
   56MOL0     O 7428   5.414   5.520  10.658  0.7057  0.6412 -0.4498
   56MOL0     C 7429   5.528   5.441  10.668  0.8458  0.6000  0.1741
   56MOL0     C 7430   5.542   5.332  10.750 -0.9931  0.3026 -0.0912
   56MOL0     C 7431   5.664   5.262  10.763 -0.6275  0.4970 -0.3175
   56MOL0     C 7432   5.771   5.287  10.671  0.5659  1.0174  0.5292
   56MOL0     O 7433   5.894   5.230  10.659  0.2289  0.5727 -0.2657
   56MOL0     C 7434   5.914   5.116  10.747 -0.8473 -0.4806  0.2427
   56MOL0     C 7435   6.053   5.064  10.718  1.0752 -0.2480  0.5134
   56MOL0     C 7436   6.083   5.042  10.568 -0.0248 -0.4540  0.0506
   56MOL0     C 7437   6.228   5.006  10.553  0.3777  0.3234  0.0540
   56MOL0     C 7438   6.266   4.861  10.598  0.0039 -0.0232  0.4134
   56MOL0     C 7439   6.411   4.855  10.638 -0.2695  0.6235  0.1724
   56MOL0     C 7440   6.511   4.902  10.525  0.1135 -0.6530 -0.8989
   56MOL0     C 7441   6.664   4.882  10.552 -0.1783 -0.7825 -0.0413
   56MOL0     N 7442   6.695   4.750  10.594 -0.8354 -0.5092 -0.1062
   56MOL0     C 7443   6.766   4.709  10.705  0.7335  0.5015  0.2619
   56MOL0     C 7444   6.765   4.569  10.691  0.0548  0.3204 -0.7632
   56MOL0     C 7445   6.850   4.476  10.774  0.3603  0.9340 -1.0195
   56MOL0     C 7446   6.847   4.518  10.926  0.9515 -0.5524 -0.3671
   56MOL0     C 7447   6.873   4.397  11.015 -0.8913 -0.8440 -0.2440
   56MOL0     C 7448   6.800   4.419  11.150 -0.0727 -0.1468  0.8335
   56MOL0     O 7449   6.850   4.306  11.231 -0.2171 -0.1766  0.5243
   56MOL0     C 7450   6.818   4.303  11.365 -0.0410 -0.4374  0.8489
   56MOL0     C 7451   6.885   4.213  11.447  0.5229  0.1434  0.1619
   56MOL0     C 7452   6.851   4.203  11.586 -1.1769  0.0921  0.5339
   56MOL0     C 7453   6.751   4.281  11.646 -0.7573 -0.1582 -0.0782
   56MOL0     C 7454   6.734   4.276  11.794  0.0671 -0.6865  0.5535
   56MOL0     O 7455   6.606   4.298  11.842  0.1885 -0.1917  0.1848
   56MOL0     C 7456   6.558   4.296  11.972 -0.2594 -0.6832  0.4112
   56MOL0     C 7457   6.420   4.313  11.987  1.0101 -0.7372  0.2355
   56MOL0     C 7458   6.363   4.288  12.111  0.3952 -0.2583 -0.6440
   56MOL0     C 7459   6.439   4.268  12.230 -0.2641  0.8218  0.1307
   56MOL0     O 7460   6.383   4.245  12.351  0.5035 -0.1961 -0.1857
   56MOL0     C 7461   6.271   4.154  12.357  0.6027  0.8872 -0.3024
   56MOL0     C 7462   6.300   4.021  12.424  0.3862  0.4076 -0.2039
   56MOL0     C 7463   6.436   3.941  12.386 -0.1141  0.1581 -0.5826
   56MOL0     C 7464   6.428   3.892  12.244  0.1439  0.0545 -0.0530
   56MOL0     C 7465   6.528   3.785  12.204  0.3404  0.3967 -0.5916
   56MOL0     C 7466   6.522   3.648  12.268  0.2821 -0.4825 -0.2888
   56MOL0     C 7467   6.644   3.569  12.226  1.0643 -1.2421  0.7418
   56MOL0     C 7468   6.640   3.428  12.276 -0.2487 -0.0547 -0.1160
   56MOL0    Cl 7469   6.491   3.343  12.224  0.1534 -0.2584  0.4034
   56MOL0     C 7470   6.574   4.269  12.209 -0.5082  0.0337 -0.0270
   56MOL0     C 7471   6.639   4.280  12.083  1.6387 -0.1664 -0.7497
   56MOL0     O 7472   6.830   4.274  11.864 -0.0762  0.4495 -0.4478
   56MOL0     C 7473   6.679   4.381  11.566 -0.2696  0.4560 -0.0411
   56MOL0     C 7474   6.717   4.383  11.428 -0.1522 -0.1985 -0.0447
   56MOL0     N 7475   6.710   4.535  10.572  0.6898  0.2117 -0.1137
   56MOL0     N 7476   6.675   4.640  10.516  1.6253 -0.5924  0.5564
   56MOL0     C 7477   5.747   5.387  10.572 -0.4269  0.5788 -0.5669
   56MOL0     C 7478   5.633   5.465  10.585  0.0548 -0.6574  0.7790
   56MOL0     C 7479   5.220   5.646  10.750 -1.8016 -0.9903 -0.4039
   56MOL0     C 7480   5.156   5.691  10.870  0.4608 -0.5757 -1.0760
   56MOL0     C 7481   5.031   5.749  10.860 -0.2852  0.4054  0.0311
   56MOL0     C 7482   4.974   5.777  10.738 -0.9230 -0.1014 -0.5030
   56MOL0     O 7483   4.864   5.856  10.742 -0.2558  0.4347  0.6462
   56MOL0     C 7484   4.883   5.988  10.691 -0.8548  0.8755  0.4444
   56MOL0     C 7485   4.751   6.046  10.632  0.0852  0.2157 -0.4941
   56MOL0     C 7486   4.710   5.984  10.497  0.7355 -0.1068  0.0357
   56MOL0     C 7487   4.646   5.850  10.502 -1.2184 -0.2512 -0.5486
   56MOL0     C 7488   4.508   5.848  10.560  0.1297  0.0876  0.4688
   56MOL0     C 7489   4.399   5.849  10.617  1.0469  0.7514  0.3878
   56MOL0     C 7490   5.034   5.737  10.622  0.9837 -0.0524  0.3253
   56MOL0     C 7491   5.161   5.674  10.625 -0.4797  0.9576 -0.2946
   56MOL0     C 7492   5.231   5.650  10.491 -0.5836  0.0279  1.2549
   56MOL0     H 7493   5.454   5.311  10.810 -1.0526 -1.2446 -0.6591
   56MOL0     H 7494   5.671   5.191  10.845  1.5583  0.9156 -0.0970
   56MOL0     H 7495   5.909   5.146  10.853 -2.4994  1.0812 -0.2365
   56MOL0     H 7496   5.835   5.044  10.727  0.6200 -1.7884 -1.1101
   56MOL0     H 7497   6.053   4.970  10.775  0.7675 -0.9039 -0.5357
   56MOL0     H 7498   6.125   5.138  10.753  0.1068 -0.4772  3.2056
   56MOL0     H 7499   6.061   5.136  10.517 -3.6925 -0.3582  1.5129
   56MOL0     H 7500   6.017   4.964  10.527 -2.7315  0.2832  2.7189
   56MOL0     H 7501   6.241   5.004  10.444 -1.8850  0.9108 -0.2759
   56MOL0     H 7502   6.285   5.094  10.585 -1.7495  2.7757 -2.3903
   56MOL0     H 7503   6.186   4.835  10.667 -0.8553 -0.6078 -0.7703
   56MOL0     H 7504   6.252   4.795  10.512 -0.2973  0.8109 -0.1945
   56MOL0     H 7505   6.436   4.900  10.734  0.3611  2.2138 -0.6954
   56MOL0     H 7506   6.430   4.748  10.649  0.8863  0.6133 -1.4702
   56MOL0     H 7507   6.502   5.009  10.504  0.2132 -0.8822 -2.1739
   56MOL0     H 7508   6.476   4.851  10.435 -0.2333 -0.8538 -0.6507
   56MOL0     H 7509   6.723   4.887  10.460 -3.1163 -0.3953 -2.0315
   56MOL0     H 7510   6.704   4.949  10.629 -1.4435  0.0701 -0.0926
   56MOL0     H 7511   6.804   4.765  10.790  4.9381 -2.7593  0.8873
   56MOL0     H 7512   6.799   4.380  10.766  2.7512 -0.7909  2.0245
   56MOL0     H 7513   6.952   4.473  10.735  0.9386  1.5120  0.3548
   56MOL0     H 7514   6.920   4.599  10.937 -0.3548  1.3220 -3.8341
   56MOL0     H 7515   6.751   4.560  10.957  0.2981 -2.3931  0.2506
   56MOL0     H 7516   6.980   4.405  11.036 -0.5286 -1.3072 -1.7515
   56MOL0     H 7517   6.843   4.302  10.969  0.7366 -0.4896 -2.2185
   56MOL0     H 7518   6.694   4.399  11.131  0.3226 -0.9968 -0.6264
   56MOL0     H 7519   6.814   4.516  11.197  0.6725  1.1330 -1.8652
   56MOL0     H 7520   6.943   4.142  11.389  0.1931  1.7349 -2.2995
   56MOL0     H 7521   6.906   4.138  11.653  0.1554  1.8196  1.2162
   56MOL0     H 7522   6.362   4.326  11.896  0.6352 -1.7512  0.3256
   56MOL0     H 7523   6.256   4.283  12.132  0.4888 -0.3240 -0.1934
   56MOL0     H 7524   6.184   4.196  12.408  0.3465  1.3583 -1.1280
   56MOL0     H 7525   6.236   4.127  12.257  2.5145  1.0568 -1.0566
   56MOL0     H 7526   6.297   4.032  12.532  1.8632 -1.2762  0.0748
   56MOL0     H 7527   6.215   3.956  12.402 -2.0395  3.3529 -0.1474
   56MOL0     H 7528   6.525   4.004  12.397 -0.1853  0.2962 -0.7832
   56MOL0     H 7529   6.445   3.847  12.441 -1.6107 -0.3054 -1.0958
   56MOL0     H 7530   6.437   3.978  12.177 -4.1935  0.6273 -0.1880
   56MOL0     H 7531   6.330   3.856  12.211 -0.3113  0.3011  0.9896
   56MOL0     H 7532   6.628   3.828  12.214  0.2162  0.5430  0.0816
   56MOL0     H 7533   6.512   3.771  12.097 -0.7613  0.4719 -0.4474
   56MOL0     H 7534   6.514   3.652  12.377  1.9649  0.2391 -0.1527
   56MOL0     H 7535   6.429   3.606  12.228 -0.9847  1.7546  0.1286
   56MOL0     H 7536   6.732   3.623  12.263 -1.5030  1.8911  2.7651
   56MOL0     H 7537   6.650   3.568  12.117 -1.2404 -0.1777  0.5571
   56MOL0     H 7538   6.725   3.374  12.235  0.2809  0.9173 -0.3294
   56MOL0     H 7539   6.659   3.441  12.383 -1.0208  2.9560 -0.2676
   56MOL0     H 7540   6.636   4.246  12.295 -1.4654 -1.2672  0.3365
   56MOL0     H 7541   6.747   4.281  12.074  1.8684 -1.7934  1.0720
   56MOL0     H 7542   6.614   4.454  11.612 -0.6407 -0.6885  1.3367
   56MOL0     H 7543   6.673   4.463  11.370  1.3793  0.1266 -0.8125
   56MOL0     H 7544   5.823   5.436  10.512  0.6294  4.0651  3.1706
   56MOL0     H 7545   5.620   5.550  10.519  1.7843 -1.4273 -0.6377
   56MOL0     H 7546   5.194   5.693  10.971 -1.1235 -2.4572 -0.3865
   56MOL0     H 7547   4.990   5.792  10.951 -0.2452 -0.5426  0.5098
   56MOL0     H 7548   4.959   5.995  10.613 -1.9006  0.2788 -0.6654
   56MOL0     H 7549   4.919   6.060  10.765  2.9783  0.5081 -0.8574
   56MOL0     H 7550   4.759   6.154  10.616  0.0203  0.2589 -0.2485
   56MOL0     H 7551   4.667   6.024  10.699  0.3174 -1.4769 -0.7137
   56MOL0     H 7552   4.796   5.970  10.430  0.6268 -2.0166  0.2437
   56MOL0     H 7553   4.642   6.056  10.450  0.1515 -0.6047  0.1079
   56MOL0     H 7554   4.641   5.799  10.406 -1.0392 -1.6929  0.1809
   56MOL0     H 7555   4.718   5.778  10.541 -1.7807 -0.0391  0.9646
   56MOL0     H 7556   4.297   5.851  10.650  0.8719 -0.3277 -0.0642
   56MOL0     H 7557   4.994   5.762  10.524  0.1087  1.4384  1.0237
   56MOL0     H 7558   5.302   5.728  10.459  0.5699 -1.9959 -1.4995
   56MOL0     H 7559   5.276   5.551  10.493 -2.1718 -0.7777 -0.2721
   56MOL0     H 7560   5.153   5.654  10.414 -0.1850  0.5384  0.8646
   57MOL0     O 7561   6.397   4.197   1.573 -0.1911 -0.3685 -0.0550
   57MOL0     C 7562   6.416   4.191   1.453  0.0440 -0.6589  0.3768
   57MOL0     O 7563   6.486   4.082   1.387 -0.5550  0.0613 -0.5104
   57MOL0     C 7564   6.507   3.974   1.470  0.9167  0.3252  0.0756
   57MOL0     C 7565   6.396   3.888   1.497  0.0194 -0.0039  0.4680
   57MOL0     C 7566   6.431   3.767   1.559 -0.6797 -1.1885  0.3748
   57MOL0     C 7567   6.559   3.742   1.597 -0.6926  0.0063  0.5964
   57MOL0     O 7568   6.587   3.618   1.644 -0.3210  0.0125 -0.0236
   57MOL0     C 7569   6.699   3.548   1.585  0.4497 -0.4940 -0.6849
   57MOL0     C 7570   6.669   3.408   1.603 -0.1034 -0.1890 -0.5048
   57MOL0     C 7571   6.742   3.309   1.502 -0.1759 -0.6688  0.7168
   57MOL0     C 7572   6.899   3.317   1.527  0.6812 -0.7962  0.5944
   57MOL0     C 7573   6.995   3.389   1.438  0.3423 -1.2495 -0.1276
   57MOL0     C 7574   7.139   3.348   1.473  0.1820 -0.3551 -0.4265
   57MOL0     C 7575   7.253   3.444   1.421  1.3116  0.6006  0.1252
   57MOL0     C 7576   7.373   3.435   1.511 -0.7479  0.1878  0.0932
   57MOL0     N 7577   7.423   3.299   1.549 -0.3323 -0.3706  0.3844
   57MOL0     C 7578   7.451   3.209   1.453  0.0219  0.6650 -0.1463
   57MOL0     C 7579   7.498   3.100   1.520  0.3321  0.0446 -0.1120
   57MOL0     C 7580   7.537   2.958   1.472 -0.1648 -0.0907  0.2719
   57MOL0     C 7581   7.584   2.966   1.320  1.4584  0.9515 -0.3033
   57MOL0     C 7582   7.719   3.032   1.307  0.6906  0.2346  0.5637
   57MOL0     C 7583   7.761   3.066   1.167  0.6396  0.1791 -0.0537
   57MOL0     O 7584   7.681   3.163   1.097  0.2389 -0.5392 -0.0088
   57MOL0     C 7585   7.664   3.293   1.145  0.4408 -1.2339  0.2060
   57MOL0     C 7586   7.542   3.356   1.113 -0.2224 -0.7230  0.1219
   57MOL0     C 7587   7.516   3.493   1.146 -0.2644  0.0032  0.4035
   57MOL0     C 7588   7.601   3.569   1.240  1.1534  0.1588 -0.8229
   57MOL0     C 7589   7.560   3.701   1.280 -0.5134 -0.7729  0.1664
   57MOL0     O 7590   7.438   3.749   1.242 -0.1515  0.9307  0.2998
   57MOL0     C 7591   7.407   3.877   1.273  0.2232  0.1574 -0.1774
   57MOL0     C 7592   7.405   3.928   1.401 -1.0241 -0.4804  0.2969
   57MOL0     C 7593   7.349   4.054   1.421  0.4004  0.3512  0.2060
   57MOL0     C 7594   7.284   4.125   1.322 -1.1422  0.5237  0.4126
   57MOL0     O 7595   7.230   4.248   1.334  0.2569 -0.6001 -0.9886
   57MOL0     C 7596   7.215   4.302   1.469 -0.1173 -0.8828  0.5816
   57MOL0     C 7597   7.170   4.448   1.462 -0.1649 -0.0445  0.5502
   57MOL0     C 7598   7.284   4.538   1.402  0.1606  0.0655  0.5259
   57MOL0     C 7599   7.238   4.683   1.411  0.3190 -0.5257 -0.2702
   57MOL0     C 7600   7.349   4.789   1.414 -0.2264  0.0041  0.1032
   57MOL0     C 7601   7.295   4.930   1.435 -0.2620  0.1441  0.2427
   57MOL0     C 7602   7.398   5.037   1.466  0.8231 -0.1074  0.3047
   57MOL0     C 7603   7.338   5.166   1.525 -1.0892  0.9448 -0.3327
   57MOL0    Cl 7604   7.243   5.271   1.409 -0.4415  0.5023 -0.4805
   57MOL0     C 7605   7.267   4.066   1.194  0.0217 -0.4318 -0.1383
   57MOL0     C 7606   7.317   3.938   1.185 -0.1523  0.4991 -0.6321
   57MOL0     O 7607   7.647   3.769   1.341  0.1927 -0.3218  0.0902
   57MOL0     C 7608   7.713   3.504   1.273  0.1479  0.1002 -0.1457
   57MOL0     C 7609   7.744   3.367   1.226 -0.1999  0.6348 -0.6462
   57MOL0     N 7610   7.506   3.127   1.654 -0.7954  0.8476  0.8549
   57MOL0     N 7611   7.470   3.253   1.671  0.0452 -0.3994  0.7877
   57MOL0     C 7612   6.665   3.841   1.583  0.2732  0.4760 -0.7588
   57MOL0     C 7613   6.629   3.959   1.529  0.1756 -0.8080  1.0099
   57MOL0     C 7614   6.395   4.305   1.355 -0.1814  0.2331  0.0341
   57MOL0     C 7615   6.472   4.302   1.234  0.1810 -0.6019  1.4635
   57MOL0     C 7616   6.455   4.411   1.152  1.0265 -1.1571 -0.2905
   57MOL0     C 7617   6.377   4.527   1.185 -0.7612 -0.1014 -0.6450
   57MOL0     O 7618   6.361   4.628   1.093  0.3304  0.3129 -0.9523
   57MOL0     C 7619   6.475   4.687   1.041 -0.8075  0.4052  0.3676
   57MOL0     C 7620   6.449   4.751   0.908 -0.7887  0.4847  0.9201
   57MOL0     C 7621   6.320   4.835   0.909 -0.8771  0.1234  0.0653
   57MOL0     C 7622   6.301   4.928   1.021 -0.4646 -1.0683 -0.3472
   57MOL0     C 7623   6.194   5.019   0.982  0.2996 -0.3973  0.4442
   57MOL0     C 7624   6.106   5.096   0.948  0.6476  0.5083  0.4183
   57MOL0     C 7625   6.304   4.524   1.302 -1.0976  0.3485  1.0669
   57MOL0     C 7626   6.313   4.416   1.399 -0.3979 -0.3189  0.7282
   57MOL0     C 7627   6.249   4.449   1.532  0.4313 -0.1488  0.1756
   57MOL0     H 7628   6.301   3.899   1.447 -0.3319 -1.2886  0.8342
   57MOL0     H 7629   6.358   3.687   1.564  0.9669 -2.6587  2.4650
   57MOL0     H 7630   6.719   3.584   1.484  2.0339  0.8959  0.0801
   57MOL0     H 7631   6.778   3.581   1.653 -0.8196  3.3805 -0.8968
   57MOL0     H 7632   6.562   3.385   1.602  0.1072 -1.2748 -1.6739
   57MOL0     H 7633   6.708   3.381   1.701 -0.4928  0.9834 -0.0145
   57MOL0     H 7634   6.721   3.328   1.396  0.1130 -3.7939  0.0086
   57MOL0     H 7635   6.707   3.209   1.530 -1.0176 -1.1440 -1.8070
   57MOL0     H 7636   6.931   3.343   1.628 -1.2552  4.3890  0.1791
   57MOL0     H 7637   6.940   3.219   1.501 -2.4225 -1.5915 -1.9480
   57MOL0     H 7638   6.971   3.373   1.333  0.0294  1.5772 -0.5832
   57MOL0     H 7639   6.987   3.497   1.456  0.8845 -1.6037  2.8211
   57MOL0     H 7640   7.158   3.331   1.579  3.8599  0.1627 -0.8776
   57MOL0     H 7641   7.160   3.254   1.421  0.2308 -0.7774  0.3488
   57MOL0     H 7642   7.221   3.547   1.404 -3.0867 -0.7806 -1.1180
   57MOL0     H 7643   7.279   3.405   1.322 -0.1515 -0.3556  0.0882
   57MOL0     H 7644   7.455   3.490   1.463  1.3642 -1.3527  1.7201
   57MOL0     H 7645   7.351   3.490   1.602  2.6885  1.4011  0.3497
   57MOL0     H 7646   7.454   3.218   1.345  1.3041  3.0141  0.0267
   57MOL0     H 7647   7.616   2.914   1.534  0.4709  1.2953  0.4832
   57MOL0     H 7648   7.446   2.899   1.478 -1.4862  1.3758 -2.9610
   57MOL0     H 7649   7.594   2.863   1.285 -0.4648  0.6097  0.0820
   57MOL0     H 7650   7.509   3.024   1.267  3.8252  2.4077 -2.2888
   57MOL0     H 7651   7.800   2.976   1.355  0.5580 -1.2413 -0.8465
   57MOL0     H 7652   7.715   3.125   1.365 -0.5842 -0.1423  1.1275
   57MOL0     H 7653   7.754   2.976   1.105  1.4916  0.4610 -0.5662
   57MOL0     H 7654   7.858   3.114   1.177  0.6144 -0.2098  3.9740
   57MOL0     H 7655   7.469   3.300   1.056  0.2103 -1.0408 -0.1240
   57MOL0     H 7656   7.423   3.533   1.106 -1.1708 -0.8648  1.5758
   57MOL0     H 7657   7.467   3.882   1.477  0.6111 -0.2617 -0.8490
   57MOL0     H 7658   7.366   4.082   1.525 -1.7133 -2.1535  1.3741
   57MOL0     H 7659   7.139   4.255   1.532 -0.0821 -1.4114  0.2297
   57MOL0     H 7660   7.313   4.294   1.518 -1.0063  2.5522  3.3370
   57MOL0     H 7661   7.087   4.471   1.395  2.3893 -1.2995 -3.3822
   57MOL0     H 7662   7.152   4.480   1.565  2.7680 -3.3919  2.2942
   57MOL0     H 7663   7.375   4.530   1.461 -0.6372 -1.5532  1.6024
   57MOL0     H 7664   7.304   4.506   1.299 -1.8854 -4.3702  1.2726
   57MOL0     H 7665   7.184   4.694   1.505 -3.4155  0.0603 -2.3005
   57MOL0     H 7666   7.163   4.710   1.336  0.2690 -0.7732 -0.3090
   57MOL0     H 7667   7.408   4.768   1.324 -1.5125  1.0454 -1.0010
   57MOL0     H 7668   7.417   4.762   1.496  1.4961 -3.6791 -2.2343
   57MOL0     H 7669   7.235   4.962   1.349 -2.4263  1.5434  2.1491
   57MOL0     H 7670   7.212   4.929   1.506 -1.5006  1.4419 -1.1005
   57MOL0     H 7671   7.442   5.067   1.370  1.3119 -2.5139 -0.2920
   57MOL0     H 7672   7.472   4.989   1.530  0.2395  0.3379  1.3246
   57MOL0     H 7673   7.272   5.143   1.610 -0.7526  0.0456 -0.3069
   57MOL0     H 7674   7.416   5.232   1.565  1.0362  0.1792 -2.9137
   57MOL0     H 7675   7.218   4.113   1.110  0.5507 -1.9501 -1.3347
   57MOL0     H 7676   7.287   3.892   1.092  1.4235  1.6206 -1.7540
   57MOL0     H 7677   7.782   3.551   1.343 -0.2548  1.9580 -0.9421
   57MOL0     H 7678   7.838   3.325   1.263  0.3118  0.9236 -1.6045
   57MOL0     H 7679   6.770   3.835   1.609  0.5342 -0.0789 -1.8894
   57MOL0     H 7680   6.700   4.032   1.493 -0.7588 -0.0750  0.6196
   57MOL0     H 7681   6.519   4.213   1.193 -1.6187 -1.0333  0.2543
   57MOL0     H 7682   6.503   4.417   1.055  1.9130  1.0258  0.2226
   57MOL0     H 7683   6.571   4.634   1.045  0.4986  2.6693  1.4071
   57MOL0     H 7684   6.508   4.762   1.113 -0.3175 -1.3577  2.0577
   57MOL0     H 7685   6.435   4.681   0.825  0.5336  2.6930 -1.3207
   57MOL0     H 7686   6.526   4.813   0.860 -1.4921 -1.3432 -2.9737
   57MOL0     H 7687   6.244   4.757   0.913 -0.9088  0.0695 -1.1720
   57MOL0     H 7688   6.324   4.879   0.809 -1.0821  0.1884  0.0864
   57MOL0     H 7689   6.261   4.879   1.110 -1.6959  0.1819 -0.1879
   57MOL0     H 7690   6.392   4.983   1.047 -2.1338 -0.1182  4.3658
   57MOL0     H 7691   6.024   5.161   0.923  0.0579  1.2944  3.9701
   57MOL0     H 7692   6.244   4.608   1.336 -0.3144  1.2223  0.3533
   57MOL0     H 7693   6.158   4.505   1.511 -0.9932 -2.2005  0.5965
   57MOL0     H 7694   6.211   4.364   1.589  0.0452  1.0017  1.6923
   57MOL0     H 7695   6.307   4.514   1.598 -0.6011 -0.7332  1.6951
   58MOL0     O 7696   6.256   1.561   8.008  0.4159 -0.3435  0.3050
   58MOL0     C 7697   6.135   1.543   7.965 -0.0997 -1.0935  0.5710
   58MOL0     O 7698   6.061   1.618   7.881 -0.4608 -0.0750 -0.0463
   58MOL0     C 7699   6.110   1.740   7.847  0.6783 -0.8321 -0.4836
   58MOL0     C 7700   6.164   1.829   7.931 -0.3946  0.4004  1.0325
   58MOL0     C 7701   6.222   1.949   7.896 -0.6132  0.0425 -0.4141
   58MOL0     C 7702   6.214   1.984   7.757  0.0649  0.3016 -0.4979
   58MOL0     O 7703   6.253   2.101   7.698 -0.0669  0.4698  0.7231
   58MOL0     C 7704   6.381   2.146   7.739 -0.3409 -0.7681  0.0553
   58MOL0     C 7705   6.366   2.268   7.832 -0.8707 -0.3320  0.2443
   58MOL0     C 7706   6.499   2.318   7.892  0.4768  0.3806 -0.4252
   58MOL0     C 7707   6.479   2.452   7.962  0.1936  0.2751 -0.7630
   58MOL0     C 7708   6.608   2.499   8.026 -0.6161  0.5769 -0.3934
   58MOL0     C 7709   6.596   2.632   8.104  0.3036  0.0243 -0.8072
   58MOL0     C 7710   6.546   2.753   8.011 -0.5875 -0.0975 -0.9838
   58MOL0     C 7711   6.633   2.782   7.891  0.0053  0.1511  0.0489
   58MOL0     N 7712   6.776   2.793   7.931  0.1731 -1.0121  0.5057
   58MOL0     C 7713   6.818   2.901   7.994 -0.5299  0.6170  0.3032
   58MOL0     C 7714   6.953   2.884   8.005  0.5777 -0.5311  0.2099
   58MOL0     C 7715   7.061   2.970   8.066  0.6950 -0.5873  0.9949
   58MOL0     C 7716   7.152   3.042   7.963 -0.8080  0.8885  0.5593
   58MOL0     C 7717   7.091   3.077   7.837 -0.2128  0.8610 -0.3726
   58MOL0     C 7718   7.189   3.177   7.755 -0.2023  0.0718  0.0935
   58MOL0     O 7719   7.301   3.113   7.692 -0.1097  0.3907 -0.3436
   58MOL0     C 7720   7.425   3.112   7.755  0.6520 -1.2099 -1.1944
   58MOL0     C 7721   7.500   3.229   7.773  0.1502 -0.0509 -0.2193
   58MOL0     C 7722   7.618   3.217   7.843  0.2451  0.7849  0.0142
   58MOL0     C 7723   7.669   3.094   7.887 -0.2497  0.7605  1.3654
   58MOL0     C 7724   7.803   3.075   7.941 -0.8004  0.4718  0.7921
   58MOL0     O 7725   7.880   3.189   7.928 -0.6563  0.0221 -0.3990
   58MOL0     C 7726   8.009   3.203   7.966 -0.6874 -0.3022  0.6394
   58MOL0     C 7727   8.028   3.319   8.029 -0.4439  0.4586 -0.5527
   58MOL0     C 7728   8.160   3.343   8.078  0.1196 -1.2001  0.8994
   58MOL0     C 7729   8.262   3.249   8.071 -0.4316 -1.1086 -0.6601
   58MOL0     O 7730   8.388   3.267   8.112  0.6271  1.1473 -1.1386
   58MOL0     C 7731   8.407   3.354   8.222 -0.2525  0.2756  0.0398
   58MOL0     C 7732   8.547   3.336   8.277 -0.4190 -0.1788  0.6114
   58MOL0     C 7733   8.569   3.399   8.406 -0.5700 -0.3096 -0.9468
   58MOL0     C 7734   8.530   3.548   8.404  0.1455 -0.0524  0.3139
   58MOL0     C 7735   8.572   3.618   8.533 -0.1724  0.8395 -1.0613
   58MOL0     C 7736   8.728   3.639   8.554  0.6975  0.0863 -0.2364
   58MOL0     C 7737   8.797   3.762   8.486  1.0825  0.9364  0.0013
   58MOL0     C 7738   8.946   3.753   8.459  0.5188 -0.8541  0.7059
   58MOL0    Cl 7739   8.968   3.619   8.353 -0.1422 -0.3694 -0.1727
   58MOL0     C 7740   8.232   3.122   8.023  0.1745 -0.3405 -0.2133
   58MOL0     C 7741   8.106   3.101   7.955 -0.2230  0.1109 -0.3076
   58MOL0     O 7742   7.837   2.959   7.980 -0.5393 -0.2054 -0.5407
   58MOL0     C 7743   7.588   2.976   7.871 -0.2355  0.4850 -0.0170
   58MOL0     C 7744   7.463   2.993   7.801 -0.5177 -0.0598 -0.7804
   58MOL0     N 7745   6.983   2.762   7.952 -0.7547 -0.5420 -0.4751
   58MOL0     N 7746   6.877   2.707   7.897  0.4059  0.0673 -0.6875
   58MOL0     C 7747   6.149   1.899   7.669 -0.2568  1.5455  0.4427
   58MOL0     C 7748   6.104   1.774   7.718 -0.3564  0.8509  0.7617
   58MOL0     C 7749   6.078   1.405   7.962 -0.5848 -0.4435 -0.2174
   58MOL0     C 7750   6.164   1.313   8.035  0.1329 -0.1326  0.3143
   58MOL0     C 7751   6.131   1.178   8.054  0.0256  0.7433  0.1424
   58MOL0     C 7752   6.013   1.120   8.003 -0.6181 -1.1677  0.0583
   58MOL0     O 7753   5.979   0.991   8.005 -0.7465  0.7737  0.7312
   58MOL0     C 7754   6.006   0.907   8.116 -0.0321  0.7871  0.2194
   58MOL0     C 7755   5.915   0.941   8.235  0.5417 -1.3895  0.5518
   58MOL0     C 7756   5.939   0.876   8.366  0.6166  0.2826  0.5661
   58MOL0     C 7757   5.878   0.737   8.374  0.4105  0.0671  0.1268
   58MOL0     C 7758   5.735   0.741   8.382 -0.6173 -0.3805 -0.9586
   58MOL0     C 7759   5.613   0.750   8.374  0.4530  0.7358 -0.7839
   58MOL0     C 7760   5.932   1.219   7.938  0.0605  0.5032  0.9673
   58MOL0     C 7761   5.953   1.356   7.911 -0.5168 -0.4509  0.2742
   58MOL0     C 7762   5.847   1.430   7.838 -0.3299  0.5119  0.1575
   58MOL0     H 7763   6.158   1.802   8.036 -0.7287 -1.1905  0.6263
   58MOL0     H 7764   6.259   2.025   7.965  2.1178 -2.0466  0.6293
   58MOL0     H 7765   6.441   2.070   7.790 -1.4414 -2.8793 -1.6724
   58MOL0     H 7766   6.443   2.177   7.655  1.4588  1.3400  2.0088
   58MOL0     H 7767   6.309   2.228   7.917  1.8023 -2.7418  1.0762
   58MOL0     H 7768   6.314   2.350   7.782  0.9601  0.3129 -0.6858
   58MOL0     H 7769   6.571   2.319   7.809  0.0552 -1.8104 -0.8659
   58MOL0     H 7770   6.518   2.246   7.972  0.7276  0.6883 -0.2053
   58MOL0     H 7771   6.433   2.534   7.908  0.7891 -0.3556 -2.2861
   58MOL0     H 7772   6.421   2.407   8.044 -0.9083 -0.2299 -1.7995
   58MOL0     H 7773   6.642   2.417   8.089  0.3570  1.1532 -0.1488
   58MOL0     H 7774   6.688   2.504   7.952 -0.7624 -2.5388 -0.8997
   58MOL0     H 7775   6.518   2.614   8.178 -1.3761 -1.8101 -2.8863
   58MOL0     H 7776   6.687   2.656   8.160 -0.2528 -0.7832  0.4908
   58MOL0     H 7777   6.538   2.844   8.073  2.9779 -1.1438  1.2864
   58MOL0     H 7778   6.445   2.737   7.973 -0.7248 -3.5698  0.4964
   58MOL0     H 7779   6.626   2.709   7.811  0.0238  1.5862 -1.3084
   58MOL0     H 7780   6.593   2.871   7.841 -0.2414 -0.2247 -0.4222
   58MOL0     H 7781   6.758   2.983   8.032 -1.2885  1.5353 -2.6426
   58MOL0     H 7782   7.017   3.055   8.120  0.8348  0.5557 -0.5953
   58MOL0     H 7783   7.128   2.912   8.129  0.3555 -2.5630 -0.3796
   58MOL0     H 7784   7.200   3.128   8.010  0.1221  1.0165 -0.5953
   58MOL0     H 7785   7.232   2.968   7.947 -0.7999  1.0322 -0.0673
   58MOL0     H 7786   7.001   3.133   7.862  1.9732  4.1058  0.9496
   58MOL0     H 7787   7.073   2.992   7.771  0.1499  0.7491 -0.3303
   58MOL0     H 7788   7.234   3.256   7.817  3.6121 -0.9510 -1.1089
   58MOL0     H 7789   7.125   3.240   7.692 -1.7036  1.5860  2.9039
   58MOL0     H 7790   7.468   3.325   7.734  1.5250  1.1007  1.3770
   58MOL0     H 7791   7.683   3.301   7.862  1.7914 -0.3246 -0.1207
   58MOL0     H 7792   7.956   3.398   8.049 -1.1137 -0.7503  2.3452
   58MOL0     H 7793   8.181   3.442   8.117 -0.1124 -0.0278 -1.7035
   58MOL0     H 7794   8.416   3.456   8.184  0.8463  1.1790  2.4547
   58MOL0     H 7795   8.325   3.360   8.294  0.5138  3.8662  0.8366
   58MOL0     H 7796   8.575   3.236   8.311 -0.8452  0.2164  2.2182
   58MOL0     H 7797   8.623   3.364   8.204  1.0009  5.7276  3.6874
   58MOL0     H 7798   8.523   3.342   8.487 -0.4617 -3.1170 -2.7313
   58MOL0     H 7799   8.677   3.403   8.424 -0.5159  5.0434 -0.7021
   58MOL0     H 7800   8.424   3.574   8.390 -0.0090 -0.5075  0.6421
   58MOL0     H 7801   8.578   3.592   8.316 -1.8518 -0.9731 -1.3092
   58MOL0     H 7802   8.531   3.558   8.615  0.3630 -0.3324 -1.6286
   58MOL0     H 7803   8.517   3.712   8.540 -3.2093 -0.9006  1.3229
   58MOL0     H 7804   8.742   3.660   8.660 -2.4772  0.8262  0.1244
   58MOL0     H 7805   8.778   3.545   8.532  2.4541  0.5575  1.4454
   58MOL0     H 7806   8.769   3.856   8.535 -0.3165  0.4949  0.1027
   58MOL0     H 7807   8.747   3.757   8.389 -0.2412  0.3091  0.6857
   58MOL0     H 7808   8.989   3.841   8.410  1.2919  0.4356  3.5302
   58MOL0     H 7809   9.002   3.740   8.552 -1.7177  2.4756  2.7357
   58MOL0     H 7810   8.304   3.042   8.018 -0.0767 -0.5657 -0.2788
   58MOL0     H 7811   8.095   3.013   7.892 -0.9335 -0.1932  0.2305
   58MOL0     H 7812   7.618   2.873   7.884  0.7290  0.3627 -2.6544
   58MOL0     H 7813   7.406   2.902   7.792 -0.2702 -0.3315  0.2687
   58MOL0     H 7814   6.149   1.917   7.562 -0.3984  1.2746  0.3980
   58MOL0     H 7815   6.058   1.700   7.654  0.1018  0.1688  1.2040
   58MOL0     H 7816   6.260   1.342   8.076  2.1572 -3.5438 -1.5113
   58MOL0     H 7817   6.195   1.104   8.100  0.6562  1.0766 -0.1757
   58MOL0     H 7818   6.112   0.918   8.138  0.7961 -0.2166 -2.8500
   58MOL0     H 7819   5.985   0.807   8.076  1.7451  0.3653  0.2847
   58MOL0     H 7820   5.810   0.929   8.207 -0.2509  2.3106  1.3807
   58MOL0     H 7821   5.927   1.046   8.264 -1.1385 -0.4700 -1.8307
   58MOL0     H 7822   5.903   0.940   8.447 -3.4933  0.4818 -1.1893
   58MOL0     H 7823   6.045   0.850   8.371  1.3234  2.0246 -2.6004
   58MOL0     H 7824   5.885   0.692   8.274 -7.1562  2.6950 -2.2746
   58MOL0     H 7825   5.933   0.673   8.444  4.6262  1.5749 -1.4791
   58MOL0     H 7826   5.506   0.752   8.379  0.3381 -1.1673 -1.6547
   58MOL0     H 7827   5.834   1.181   7.911  0.1001  1.2413 -0.2908
   58MOL0     H 7828   5.841   1.405   7.731  3.4748  0.8798 -0.2860
   58MOL0     H 7829   5.757   1.392   7.887 -0.6336 -0.3016 -0.9955
   58MOL0     H 7830   5.856   1.539   7.841 -0.9474  0.5604  0.3996
   59MOL0     O 7831   3.136   2.016   2.991 -0.5837 -0.0316  0.2913
   59MOL0     C 7832   3.017   2.000   3.022 -0.6175 -0.1585  0.1460
   59MOL0     O 7833   2.970   1.918   3.129  0.2367  0.0927  0.7799
   59MOL0     C 7834   3.059   1.873   3.225 -0.0701 -1.1347 -0.6256
   59MOL0     C 7835   3.134   1.760   3.210  0.1534 -0.0555  0.6191
   59MOL0     C 7836   3.228   1.726   3.304  0.3785  1.2432  0.3169
   59MOL0     C 7837   3.247   1.807   3.416 -1.2068  0.2532 -0.1154
   59MOL0     O 7838   3.352   1.785   3.499  0.1281  0.2088  0.5587
   59MOL0     C 7839   3.324   1.775   3.641  0.0565  0.4316 -0.2407
   59MOL0     C 7840   3.432   1.853   3.718  0.5006  0.5608 -0.1715
   59MOL0     C 7841   3.574   1.820   3.668 -1.4248 -0.5668 -0.0769
   59MOL0     C 7842   3.687   1.843   3.773  0.4248 -0.3623  0.0066
   59MOL0     C 7843   3.814   1.899   3.706  0.5970  0.2610  0.6276
   59MOL0     C 7844   3.913   1.941   3.807 -1.1878  1.3247 -0.0012
   59MOL0     C 7845   3.966   1.833   3.900 -0.4349  0.2620  0.2464
   59MOL0     C 7846   4.031   1.711   3.835 -0.2504  0.4993  0.3832
   59MOL0     N 7847   4.163   1.738   3.768 -0.0013 -0.1967  0.6709
   59MOL0     C 7848   4.178   1.804   3.650  0.9209  0.7198  0.5441
   59MOL0     C 7849   4.309   1.788   3.620 -0.3386  0.2847 -0.6809
   59MOL0     C 7850   4.355   1.834   3.483 -0.2227 -0.2234 -0.2283
   59MOL0     C 7851   4.404   1.979   3.476 -0.1529 -0.3949 -0.6249
   59MOL0     C 7852   4.528   1.998   3.568  0.1312 -0.6207 -0.6867
   59MOL0     C 7853   4.607   2.128   3.561  0.1709  1.2699 -0.7039
   59MOL0     O 7854   4.688   2.136   3.438  0.6135 -0.4705 -0.0845
   59MOL0     C 7855   4.790   2.046   3.403 -0.1852  0.0409 -1.5230
   59MOL0     C 7856   4.875   1.958   3.489  0.5500 -0.4432  0.4359
   59MOL0     C 7857   4.985   1.899   3.446 -0.1511 -0.1462  0.9925
   59MOL0     C 7858   5.020   1.914   3.309 -0.2649 -0.5593  0.1042
   59MOL0     C 7859   5.132   1.831   3.251  0.1583 -0.1174 -0.4981
   59MOL0     O 7860   5.249   1.823   3.322 -0.0644  0.7339  1.2629
   59MOL0     C 7861   5.290   1.924   3.389  0.0917 -1.0772 -0.1703
   59MOL0     C 7862   5.372   1.897   3.504 -0.4004  0.3363 -0.0113
   59MOL0     C 7863   5.429   2.001   3.579 -0.3486 -0.5992 -0.3068
   59MOL0     C 7864   5.412   2.134   3.535 -0.7429  1.1129 -0.9847
   59MOL0     O 7865   5.468   2.233   3.602  0.7445 -0.6393 -0.1905
   59MOL0     C 7866   5.606   2.234   3.644 -0.3181  0.3280  0.6004
   59MOL0     C 7867   5.634   2.229   3.796  0.0450  1.3715  0.0812
   59MOL0     C 7868   5.533   2.304   3.880 -0.6272 -0.5201 -0.4394
   59MOL0     C 7869   5.421   2.217   3.926 -0.5816  1.3982  0.1725
   59MOL0     C 7870   5.296   2.291   3.981 -0.7399  1.2860  0.0336
   59MOL0     C 7871   5.192   2.212   4.047 -0.1836 -0.5387 -0.4669
   59MOL0     C 7872   5.248   2.156   4.189 -0.1910  0.5711  0.0100
   59MOL0     C 7873   5.146   2.084   4.262  0.7502  0.9451 -0.1275
   59MOL0    Cl 7874   5.114   1.922   4.199 -0.0982  0.0317  0.1443
   59MOL0     C 7875   5.341   2.157   3.418 -0.0326  0.0260 -0.7178
   59MOL0     C 7876   5.279   2.057   3.350  0.4635 -1.2395  0.0464
   59MOL0     O 7877   5.113   1.786   3.140  0.1393 -0.0511 -0.3068
   59MOL0     C 7878   4.945   1.995   3.223 -0.2525  0.5903  0.4310
   59MOL0     C 7879   4.836   2.069   3.268 -0.0035 -0.1328  0.0634
   59MOL0     N 7880   4.368   1.741   3.734 -0.4702 -0.1547 -1.2665
   59MOL0     N 7881   4.282   1.725   3.824 -0.1507 -0.2079 -1.2630
   59MOL0     C 7882   3.162   1.918   3.435  0.1507 -0.2262  0.5607
   59MOL0     C 7883   3.064   1.942   3.341 -0.1565 -0.5706 -0.5315
   59MOL0     C 7884   2.911   2.059   2.934 -0.1872 -0.1950  0.5391
   59MOL0     C 7885   2.798   1.979   2.909  0.2236  0.2771 -1.1417
   59MOL0     C 7886   2.701   2.033   2.828  1.1324  0.5331 -0.2627
   59MOL0     C 7887   2.707   2.155   2.769 -0.7340 -0.0672 -0.4434
   59MOL0     O 7888   2.619   2.229   2.698  0.2436 -0.4815  0.0033
   59MOL0     C 7889   2.474   2.219   2.722 -0.7574 -0.4486 -0.3718
   59MOL0     C 7890   2.389   2.307   2.627  0.7844 -0.1667  0.4742
   59MOL0     C 7891   2.387   2.459   2.678  0.2123  0.7977  0.4628
   59MOL0     C 7892   2.321   2.558   2.581 -0.6698 -0.1506 -0.1899
   59MOL0     C 7893   2.197   2.505   2.531  0.6412 -0.6188 -1.5430
   59MOL0     C 7894   2.099   2.465   2.467 -0.9192 -0.4301 -0.5130
   59MOL0     C 7895   2.820   2.234   2.801  0.2609  0.7447  0.6933
   59MOL0     C 7896   2.926   2.184   2.873 -0.3266 -0.5811 -1.1248
   59MOL0     C 7897   3.041   2.283   2.909  0.5736 -0.2969  0.3245
   59MOL0     H 7898   3.125   1.701   3.120 -2.2737  2.2869 -0.8117
   59MOL0     H 7899   3.294   1.642   3.285 -2.5755 -0.9016 -1.4829
   59MOL0     H 7900   3.229   1.825   3.660  1.0239  2.9741 -1.6157
   59MOL0     H 7901   3.321   1.669   3.666  1.7872 -0.0434 -1.8098
   59MOL0     H 7902   3.413   1.836   3.825  3.1048  1.5183  0.5335
   59MOL0     H 7903   3.414   1.960   3.705 -0.4483  0.1558 -2.9067
   59MOL0     H 7904   3.589   1.878   3.576 -2.7027 -1.3644 -0.8088
   59MOL0     H 7905   3.577   1.712   3.652  2.1219 -0.6993  0.5144
   59MOL0     H 7906   3.652   1.915   3.848  0.6217  1.3415 -1.4512
   59MOL0     H 7907   3.714   1.750   3.822 -0.5812 -2.3690 -2.9823
   59MOL0     H 7908   3.844   1.809   3.651 -0.6679 -0.9664  1.8672
   59MOL0     H 7909   3.801   1.974   3.628 -1.2989 -0.6952 -0.0250
   59MOL0     H 7910   3.992   1.987   3.748 -0.4202 -2.2508 -2.0323
   59MOL0     H 7911   3.881   2.024   3.871  0.9728  1.7554  0.6021
   59MOL0     H 7912   3.884   1.805   3.967 -1.5752  3.3111  0.2759
   59MOL0     H 7913   4.044   1.875   3.964  1.2043  1.5685 -2.4546
   59MOL0     H 7914   4.049   1.633   3.909 -2.4488 -0.6294 -0.1732
   59MOL0     H 7915   3.958   1.664   3.768 -0.9092  0.7181  0.9329
   59MOL0     H 7916   4.093   1.836   3.590  0.6097  0.6355  0.9346
   59MOL0     H 7917   4.442   1.776   3.454  0.8767  0.1180  2.1385
   59MOL0     H 7918   4.271   1.820   3.414 -1.7044 -1.3610  1.6797
   59MOL0     H 7919   4.428   1.999   3.371 -3.6645  2.1044 -1.1388
   59MOL0     H 7920   4.316   2.039   3.501 -1.2226 -1.6181 -1.3890
   59MOL0     H 7921   4.589   1.908   3.566  2.4165  0.8075  0.5455
   59MOL0     H 7922   4.492   2.007   3.671  0.4080 -2.7604 -0.3743
   59MOL0     H 7923   4.674   2.144   3.647  1.5502 -2.2667 -0.9432
   59MOL0     H 7924   4.537   2.211   3.564  0.6268  1.6544 -0.4641
   59MOL0     H 7925   4.848   1.944   3.593 -0.8942  1.6005  0.3896
   59MOL0     H 7926   5.048   1.843   3.514  0.1068 -0.4346  0.5248
   59MOL0     H 7927   5.387   1.790   3.517 -2.3198 -0.9966 -5.5561
   59MOL0     H 7928   5.493   1.979   3.663  1.5102 -1.2145 -1.8119
   59MOL0     H 7929   5.655   2.148   3.596 -2.5169 -1.3011  1.0806
   59MOL0     H 7930   5.646   2.331   3.615 -0.3791  0.2757  0.3418
   59MOL0     H 7931   5.647   2.126   3.830  0.1920  1.7843  1.3185
   59MOL0     H 7932   5.735   2.268   3.812  0.6963 -0.4256  0.5588
   59MOL0     H 7933   5.586   2.364   3.955  0.1023  0.1501 -1.4543
   59MOL0     H 7934   5.475   2.382   3.829 -1.3358  0.9959  2.4713
   59MOL0     H 7935   5.455   2.160   4.013  1.2306  0.7445 -0.9020
   59MOL0     H 7936   5.397   2.142   3.850 -0.5270  1.1344  0.4115
   59MOL0     H 7937   5.259   2.352   3.898  1.5483  0.2607 -1.8491
   59MOL0     H 7938   5.342   2.362   4.050  0.5036 -1.3677  2.1349
   59MOL0     H 7939   5.101   2.266   4.074  1.6300  2.0565  0.8535
   59MOL0     H 7940   5.167   2.130   3.980 -1.0412 -0.8240  0.1862
   59MOL0     H 7941   5.282   2.233   4.260  0.8228 -0.7372  0.9947
   59MOL0     H 7942   5.329   2.085   4.173  2.5439  3.7779 -1.7691
   59MOL0     H 7943   5.178   2.081   4.366  0.4008  1.4834 -0.0047
   59MOL0     H 7944   5.049   2.132   4.248 -0.9050 -2.1129 -0.0999
   59MOL0     H 7945   5.330   2.258   3.381 -3.5883 -0.7987 -2.3711
   59MOL0     H 7946   5.217   2.094   3.269  0.6315 -0.7710  0.1271
   59MOL0     H 7947   4.959   1.989   3.115 -1.4156  0.9777  0.2438
   59MOL0     H 7948   4.790   2.128   3.190  0.8437 -3.3303 -3.0941
   59MOL0     H 7949   3.186   1.974   3.525  2.2475  0.1409 -0.1765
   59MOL0     H 7950   2.995   2.024   3.355 -1.3838 -1.3609 -1.7082
   59MOL0     H 7951   2.781   1.883   2.958  0.2101  0.4696 -0.7661
   59MOL0     H 7952   2.607   1.983   2.804  0.7291  2.0448 -2.0836
   59MOL0     H 7953   2.446   2.238   2.826  0.8530  2.0736 -0.3233
   59MOL0     H 7954   2.459   2.113   2.698 -0.1463 -1.2621  2.4741
   59MOL0     H 7955   2.292   2.258   2.622 -0.1370  1.6863 -1.7492
   59MOL0     H 7956   2.436   2.300   2.528  3.0276  2.5679  1.2104
   59MOL0     H 7957   2.489   2.498   2.679  0.1403  1.1520 -1.4493
   59MOL0     H 7958   2.340   2.477   2.775 -2.9502  1.0972 -0.9998
   59MOL0     H 7959   2.298   2.648   2.638  0.2688 -2.9800  5.3357
   59MOL0     H 7960   2.388   2.588   2.500 -0.2603 -3.2020 -1.1111
   59MOL0     H 7961   2.026   2.418   2.404 -0.3598 -4.9322  1.7161
   59MOL0     H 7962   2.828   2.332   2.755  0.0532  0.2625 -0.4125
   59MOL0     H 7963   3.008   2.387   2.906 -0.6466 -0.6604  0.5140
   59MOL0     H 7964   3.063   2.265   3.015 -2.7813  2.1356  1.6285
   59MOL0     H 7965   3.127   2.280   2.842  0.6226 -0.3428  0.3890
   60MOL0     O 7966   3.287   6.084   8.663  0.5399 -0.3369  0.4872
   60MOL0     C 7967   3.350   6.052   8.565 -0.0245 -0.5570  1.0468
   60MOL0     O 7968   3.471   5.992   8.568  0.4478 -0.0593 -0.8149
   60MOL0     C 7969   3.518   5.938   8.683 -0.6013 -0.0179 -0.5574
   60MOL0     C 7970   3.452   5.867   8.789  0.1802 -0.7078  1.1041
   60MOL0     C 7971   3.515   5.836   8.904  0.7314  0.5223 -0.1097
   60MOL0     C 7972   3.650   5.856   8.912  0.1460 -0.1101 -0.1479
   60MOL0     O 7973   3.729   5.829   9.014 -0.7574 -0.5553  0.4948
   60MOL0     C 7974   3.682   5.777   9.145  0.0668  0.0768  0.4585
   60MOL0     C 7975   3.800   5.707   9.210 -1.1844 -0.6944  0.1192
   60MOL0     C 7976   3.865   5.611   9.099  0.9170  0.4378 -0.9532
   60MOL0     C 7977   3.937   5.490   9.158 -0.5055  0.2320 -0.8627
   60MOL0     C 7978   4.023   5.434   9.052 -0.6620  0.3434  0.3330
   60MOL0     C 7979   3.930   5.393   8.934 -0.9899  0.0507  0.0971
   60MOL0     C 7980   4.003   5.299   8.829 -0.0384  0.3103  0.2614
   60MOL0     C 7981   4.117   5.374   8.743 -0.3543 -0.0560 -0.3823
   60MOL0     N 7982   4.247   5.415   8.804  0.1761 -0.1705 -0.4429
   60MOL0     C 7983   4.341   5.324   8.874 -0.5604  0.1723 -0.7631
   60MOL0     C 7984   4.455   5.399   8.887 -0.1923  0.6585  0.2663
   60MOL0     C 7985   4.589   5.356   8.940 -0.6406  0.8203 -0.2075
   60MOL0     C 7986   4.653   5.442   9.054 -0.2098  0.5960 -0.6612
   60MOL0     C 7987   4.580   5.416   9.187  0.8431  0.1821  1.1021
   60MOL0     C 7988   4.629   5.293   9.256  0.4634  0.2745 -0.2662
   60MOL0     O 7989   4.550   5.187   9.199  0.2664  0.1204 -0.0504
   60MOL0     C 7990   4.491   5.098   9.285  0.4002 -0.2217 -0.7254
   60MOL0     C 7991   4.544   5.057   9.409  0.2973 -0.3204 -0.2948
   60MOL0     C 7992   4.496   4.958   9.493 -0.0109  1.2382 -0.0698
   60MOL0     C 7993   4.402   4.872   9.446 -0.2140 -0.0207 -0.1873
   60MOL0     C 7994   4.362   4.753   9.517 -0.1778 -0.0227  1.0518
   60MOL0     O 7995   4.346   4.639   9.440 -0.7201 -0.5481  0.5060
   60MOL0     C 7996   4.362   4.512   9.499  0.1206 -1.0141 -0.2877
   60MOL0     C 7997   4.311   4.398   9.439 -0.1699 -0.2558 -0.3904
   60MOL0     C 7998   4.318   4.274   9.500  0.1746 -0.5728  1.3567
   60MOL0     C 7999   4.396   4.251   9.616 -0.1857  0.3759  1.5700
   60MOL0     O 8000   4.396   4.125   9.661  0.0209  0.8894  0.1506
   60MOL0     C 8001   4.442   4.098   9.802  0.5964  0.5757 -0.1028
   60MOL0     C 8002   4.360   3.984   9.871 -0.1533 -0.2068  0.0894
   60MOL0     C 8003   4.212   4.022   9.876  0.4088 -0.3654  0.6054
   60MOL0     C 8004   4.141   3.889   9.908 -0.3506 -0.7222  0.0729
   60MOL0     C 8005   3.983   3.905   9.939 -0.6395 -0.2211 -0.0092
   60MOL0     C 8006   3.929   3.770   9.983  0.5328 -0.7697 -0.1607
   60MOL0     C 8007   3.775   3.790   9.990 -0.6143  0.0858  0.0754
   60MOL0     C 8008   3.710   3.642  10.002  0.9235 -0.1893 -0.0800
   60MOL0    Cl 8009   3.527   3.659  10.007  0.2404 -0.2020  0.4026
   60MOL0     C 8010   4.446   4.368   9.672  0.3832 -0.2157  0.0664
   60MOL0     C 8011   4.437   4.483   9.618 -0.0865 -0.5433  0.4662
   60MOL0     O 8012   4.359   4.767   9.639  0.1563 -0.2606  0.1783
   60MOL0     C 8013   4.334   4.909   9.325 -0.0558 -0.5681 -0.1625
   60MOL0     C 8014   4.374   5.021   9.256 -0.2257 -0.6958  0.4396
   60MOL0     N 8015   4.439   5.523   8.824  1.0665  0.0344  0.8309
   60MOL0     N 8016   4.319   5.532   8.774  0.5684  0.5549 -0.1602
   60MOL0     C 8017   3.725   5.910   8.813  0.5276  0.2593  1.1393
   60MOL0     C 8018   3.658   5.945   8.693 -0.3014 -0.6713  0.9247
   60MOL0     C 8019   3.308   6.096   8.429 -0.5391 -0.9727  0.0072
   60MOL0     C 8020   3.406   6.143   8.335 -0.4414  0.1781  0.1749
   60MOL0     C 8021   3.368   6.170   8.205  0.0298 -0.6236 -0.4660
   60MOL0     C 8022   3.236   6.162   8.167  0.3023 -0.3853 -0.1606
   60MOL0     O 8023   3.210   6.196   8.037 -0.0457  0.6901 -0.0028
   60MOL0     C 8024   3.087   6.156   7.963 -0.6353  1.0057 -0.6339
   60MOL0     C 8025   3.116   6.085   7.827  0.1461  0.1184 -0.2402
   60MOL0     C 8026   3.005   6.016   7.759  0.6383  0.3236  0.1795
   60MOL0     C 8027   3.013   5.856   7.761 -0.7261  0.0025 -0.0581
   60MOL0     C 8028   2.915   5.811   7.657  0.2383  0.6398 -0.3120
   60MOL0     C 8029   2.836   5.775   7.571 -0.7897 -0.4502  0.6597
   60MOL0     C 8030   3.143   6.112   8.257  0.5289  0.4295 -0.1907
   60MOL0     C 8031   3.171   6.079   8.390 -0.2895  1.4966 -0.1082
   60MOL0     C 8032   3.066   5.999   8.472  0.5574  0.2303  0.7154
   60MOL0     H 8033   3.345   5.853   8.780 -0.6937  0.6374  6.3064
   60MOL0     H 8034   3.455   5.813   8.991  0.3538 -2.1009 -0.9716
   60MOL0     H 8035   3.652   5.855   9.217 -0.8280  0.3726 -0.2139
   60MOL0     H 8036   3.598   5.708   9.134  0.8192 -0.6167 -1.3436
   60MOL0     H 8037   3.774   5.652   9.301  0.3775 -3.3471 -0.9142
   60MOL0     H 8038   3.875   5.779   9.245 -0.8677 -0.5506 -0.8284
   60MOL0     H 8039   3.932   5.674   9.039  0.8034  0.2610 -1.2653
   60MOL0     H 8040   3.778   5.579   9.041 -0.1605  0.3385  0.6444
   60MOL0     H 8041   3.992   5.507   9.250 -3.1389  1.8112  0.5213
   60MOL0     H 8042   3.862   5.414   9.180  3.2369 -3.5771  0.1935
   60MOL0     H 8043   4.093   5.511   9.015 -0.2976  1.4913  3.1634
   60MOL0     H 8044   4.079   5.347   9.088  2.5399  1.4386 -1.5106
   60MOL0     H 8045   3.847   5.332   8.971 -1.7077  0.5303 -0.6778
   60MOL0     H 8046   3.886   5.477   8.881 -0.4404  0.7393  0.7051
   60MOL0     H 8047   3.926   5.264   8.760 -1.9750 -0.0503  2.4643
   60MOL0     H 8048   4.041   5.217   8.891 -0.9554 -2.4297 -2.5726
   60MOL0     H 8049   4.142   5.328   8.647 -1.9272  0.5048 -1.0984
   60MOL0     H 8050   4.070   5.466   8.706  0.5376  0.5214 -0.1242
   60MOL0     H 8051   4.319   5.225   8.913 -2.0823  1.1712  1.1151
   60MOL0     H 8052   4.593   5.251   8.971  2.7094  0.6920 -0.6576
   60MOL0     H 8053   4.665   5.366   8.862 -0.1166  2.3287  0.4605
   60MOL0     H 8054   4.754   5.404   9.069  0.1507  2.0940  1.0754
   60MOL0     H 8055   4.642   5.550   9.038  0.8374  1.2313  2.2542
   60MOL0     H 8056   4.471   5.416   9.178  0.6462  5.5241  0.2002
   60MOL0     H 8057   4.583   5.510   9.242 -0.9042 -1.7115  4.8074
   60MOL0     H 8058   4.612   5.285   9.363  0.3233 -3.0021 -0.4503
   60MOL0     H 8059   4.734   5.280   9.227 -0.3764 -2.1074 -2.6403
   60MOL0     H 8060   4.616   5.125   9.454 -1.6632  2.7055 -1.4140
   60MOL0     H 8061   4.539   4.929   9.588 -0.3483  0.5216 -0.1284
   60MOL0     H 8062   4.249   4.408   9.351 -0.4510 -0.7821 -0.2545
   60MOL0     H 8063   4.289   4.188   9.441  0.4934  0.1801  0.0754
   60MOL0     H 8064   4.547   4.069   9.791 -0.0583 -1.2122 -2.2677
   60MOL0     H 8065   4.440   4.187   9.866 -0.3478  3.0220 -3.3091
   60MOL0     H 8066   4.377   3.896   9.809  2.8584 -2.4017  3.6506
   60MOL0     H 8067   4.413   3.971   9.965  3.8013 -0.7187 -1.9887
   60MOL0     H 8068   4.192   4.106   9.944 -1.7924 -0.3965  0.0629
   60MOL0     H 8069   4.173   4.061   9.782  0.3201 -1.4290  0.1882
   60MOL0     H 8070   4.187   3.826   9.984 -2.6275 -5.2618 -1.8674
   60MOL0     H 8071   4.142   3.830   9.815 -0.0743 -0.4691 -0.0847
   60MOL0     H 8072   3.948   3.954   9.847 -0.6953  3.0325  1.5971
   60MOL0     H 8073   3.965   3.983  10.014 -1.4830 -0.6048  0.2005
   60MOL0     H 8074   3.943   3.691   9.909 -1.9688 -0.5544 -0.9886
   60MOL0     H 8075   3.976   3.744  10.078  1.9666  0.5487 -0.4704
   60MOL0     H 8076   3.735   3.846   9.905  4.2384  1.6471 -1.5338
   60MOL0     H 8077   3.744   3.844  10.080 -3.6590 -0.2303 -0.6628
   60MOL0     H 8078   3.747   3.582   9.918  0.1906  0.1943 -0.6984
   60MOL0     H 8079   3.741   3.590  10.093  0.7405 -1.7246 -0.8642
   60MOL0     H 8080   4.502   4.367   9.765 -0.7912 -3.7602  0.8742
   60MOL0     H 8081   4.491   4.567   9.660 -3.5308  2.2167 -0.0975
   60MOL0     H 8082   4.248   4.849   9.298 -1.1538 -0.6177  3.0668
   60MOL0     H 8083   4.325   5.036   9.161  0.2138 -0.6115  0.2238
   60MOL0     H 8084   3.829   5.934   8.835  0.3660  2.0126  0.1601
   60MOL0     H 8085   3.717   5.993   8.616  0.0537 -1.5352  0.6435
   60MOL0     H 8086   3.507   6.147   8.375 -0.3047  2.0470 -0.2740
   60MOL0     H 8087   3.443   6.223   8.147  2.4864 -0.8962  2.1666
   60MOL0     H 8088   3.018   6.240   7.958 -1.7749  0.0969 -0.6839
   60MOL0     H 8089   3.036   6.079   8.023  0.9209  0.9117  0.6545
   60MOL0     H 8090   3.205   6.023   7.841  1.8483  0.2396 -7.0000
   60MOL0     H 8091   3.153   6.163   7.759  2.1245  2.3988  3.1242
   60MOL0     H 8092   3.012   6.045   7.653  1.4889 -0.7300 -0.0803
   60MOL0     H 8093   2.909   6.039   7.806  0.9153 -1.6658  1.8571
   60MOL0     H 8094   3.111   5.820   7.731 -1.2353  0.6182 -2.7561
   60MOL0     H 8095   2.992   5.822   7.863  0.5496 -2.4997 -0.5695
   60MOL0     H 8096   2.767   5.743   7.496 -2.3238  1.8845  0.9793
   60MOL0     H 8097   3.039   6.097   8.231 -0.0190 -0.1871  2.1127
   60MOL0     H 8098   3.110   5.899   8.478 -0.9384 -0.5660 -0.7909
   60MOL0     H 8099   3.047   6.054   8.565 -1.4871  2.5877 -0.9535
   60MOL0     H 8100   2.975   5.983   8.414 -1.1088  2.4852  2.5171
   61MOL0     O 8101   0.497   5.770   9.467 -0.4609  0.2209 -0.1777
   61MOL0     C 8102   0.492   5.681   9.555  0.3430 -0.4852  1.0349
   61MOL0     O 8103   0.407   5.568   9.536 -0.7148 -0.4002 -0.1590
   61MOL0     C 8104   0.318   5.581   9.437  0.1712 -0.3250  0.3334
   61MOL0     C 8105   0.358   5.605   9.298  0.7436  0.8495  0.2368
   61MOL0     C 8106   0.258   5.620   9.199 -0.0917 -0.3488 -1.5512
   61MOL0     C 8107   0.121   5.626   9.224 -0.6533 -0.2070 -0.1691
   61MOL0     O 8108   0.041   5.651   9.115  0.3154  0.2798 -0.0876
   61MOL0     C 8109  -0.106   5.659   9.131 -0.2736  0.1164 -0.0894
   61MOL0     C 8110  -0.161   5.802   9.130 -0.6591  0.1025 -0.6791
   61MOL0     C 8111  -0.316   5.801   9.126 -0.3377  0.1419 -0.9169
   61MOL0     C 8112  -0.363   5.910   9.027 -0.6763  0.0017 -0.0603
   61MOL0     C 8113  -0.493   5.959   9.066  0.3857 -0.2133 -0.0361
   61MOL0     C 8114  -0.597   5.841   9.077  0.0266  0.2840 -0.3297
   61MOL0     C 8115  -0.728   5.908   9.125 -0.1190  0.4131 -0.3629
   61MOL0     C 8116  -0.744   5.944   9.273 -0.4752  0.8298  0.0040
   61MOL0     N 8117  -0.880   5.954   9.322 -0.4531  0.6754 -0.4578
   61MOL0     C 8118  -0.948   5.887   9.413 -0.3531 -0.3999  0.2201
   61MOL0     C 8119  -1.080   5.934   9.405 -0.1684  1.4765 -0.1551
   61MOL0     C 8120  -1.180   5.892   9.512  0.7378 -0.1228 -0.3215
   61MOL0     C 8121  -1.220   5.743   9.504 -0.1831  0.1837  0.1717
   61MOL0     C 8122  -1.238   5.688   9.367 -0.1703 -0.7246 -0.0114
   61MOL0     C 8123  -1.342   5.769   9.290 -0.9440 -0.0779 -1.3131
   61MOL0     O 8124  -1.341   5.719   9.157 -0.3127 -0.1655  0.2118
   61MOL0     C 8125  -1.437   5.624   9.113  0.0161  0.3391 -1.2488
   61MOL0     C 8126  -1.538   5.573   9.197 -0.6837 -0.4834  0.6937
   61MOL0     C 8127  -1.603   5.459   9.151  0.3369  0.6694  0.1160
   61MOL0     C 8128  -1.586   5.400   9.029  0.5804 -0.4515  0.9031
   61MOL0     C 8129  -1.655   5.274   8.994  0.5766  0.0688 -0.2816
   61MOL0     O 8130  -1.678   5.252   8.866  0.2614 -0.5448 -0.1369
   61MOL0     C 8131  -1.764   5.158   8.822  0.2310  0.8394  0.3751
   61MOL0     C 8132  -1.726   5.027   8.778  0.3067  0.0582 -0.0925
   61MOL0     C 8133  -1.821   4.940   8.729 -1.0396  1.2126  0.2320
   61MOL0     C 8134  -1.955   4.964   8.747  0.7941 -0.2863  0.6832
   61MOL0     O 8135  -2.054   4.874   8.715  0.6945  1.6690 -0.0404
   61MOL0     C 8136  -2.020   4.762   8.632  0.4197 -0.0052 -0.1327
   61MOL0     C 8137  -2.144   4.673   8.599 -0.1041 -0.4415  0.4990
   61MOL0     C 8138  -2.220   4.748   8.499  0.7901  0.4875 -0.8371
   61MOL0     C 8139  -2.360   4.688   8.487  0.2743 -0.6007 -0.2457
   61MOL0     C 8140  -2.434   4.780   8.386  0.3684  0.4930  0.3573
   61MOL0     C 8141  -2.568   4.722   8.367  0.6828 -0.1574  0.6809
   61MOL0     C 8142  -2.663   4.813   8.294 -0.1472  0.0176  0.3515
   61MOL0     C 8143  -2.784   4.735   8.254  0.1732 -0.3472 -0.8643
   61MOL0    Cl 8144  -2.869   4.822   8.130  0.5682 -0.6223  0.0965
   61MOL0     C 8145  -1.996   5.084   8.785  0.5894 -0.2854 -0.2332
   61MOL0     C 8146  -1.906   5.180   8.825  0.3776  0.6261  0.4025
   61MOL0     O 8147  -1.687   5.202   9.088 -0.1990  0.9595  0.1872
   61MOL0     C 8148  -1.480   5.449   8.951 -0.4815  0.2378 -0.5232
   61MOL0     C 8149  -1.404   5.560   8.995 -0.6823 -0.4111  0.8757
   61MOL0     N 8150  -1.087   6.028   9.302 -0.3193  0.0330  0.0726
   61MOL0     N 8151  -0.964   6.040   9.257  0.7482 -0.0048  0.2182
   61MOL0     C 8152   0.090   5.635   9.360  0.1671  0.5497  0.1572
   61MOL0     C 8153   0.184   5.605   9.463  0.1319 -0.0148 -0.9744
   61MOL0     C 8154   0.594   5.669   9.653 -0.1530  0.6244  0.0079
   61MOL0     C 8155   0.723   5.728   9.630 -0.2146 -0.7270 -0.7975
   61MOL0     C 8156   0.833   5.704   9.705  0.5812 -0.2894 -0.3387
   61MOL0     C 8157   0.822   5.617   9.809  0.1303 -0.1448 -0.9541
   61MOL0     O 8158   0.924   5.580   9.899 -0.1882 -0.1539 -0.3798
   61MOL0     C 8159   1.056   5.629   9.878 -1.0281 -0.2558  0.6230
   61MOL0     C 8160   1.149   5.538   9.791  0.4135  0.2310  0.1857
   61MOL0     C 8161   1.271   5.622   9.757  1.5131 -0.1572  0.3545
   61MOL0     C 8162   1.375   5.544   9.675 -0.8020 -0.4917 -0.2319
   61MOL0     C 8163   1.501   5.619   9.664  0.5220 -0.3096  0.4016
   61MOL0     C 8164   1.605   5.678   9.653 -0.5656  0.6593  0.0951
   61MOL0     C 8165   0.695   5.577   9.856 -0.4646 -0.0665  0.4988
   61MOL0     C 8166   0.584   5.600   9.778 -0.0566 -0.1472 -0.3693
   61MOL0     C 8167   0.454   5.525   9.816 -0.7196  0.5660  0.3520
   61MOL0     H 8168   0.464   5.589   9.283  0.9260  2.4597 -0.3153
   61MOL0     H 8169   0.300   5.634   9.100  1.3079 -0.7728 -1.0397
   61MOL0     H 8170  -0.157   5.617   9.043 -1.5286  0.7631  0.3025
   61MOL0     H 8171  -0.146   5.603   9.215 -1.0523 -1.7633 -1.6223
   61MOL0     H 8172  -0.124   5.856   9.042  2.5099 -0.5985  0.0871
   61MOL0     H 8173  -0.122   5.854   9.218  1.6023  0.7577 -1.9793
   61MOL0     H 8174  -0.365   5.828   9.220 -1.7402  0.0812 -1.5922
   61MOL0     H 8175  -0.353   5.702   9.096  1.8871 -0.5208 -1.6232
   61MOL0     H 8176  -0.295   5.995   9.016 -1.2210  0.4010 -0.3629
   61MOL0     H 8177  -0.368   5.863   8.929 -0.0703 -2.2346  0.9117
   61MOL0     H 8178  -0.490   6.009   9.163  0.1304 -0.9344  0.3439
   61MOL0     H 8179  -0.532   6.035   8.997 -2.6184 -0.9523  0.7346
   61MOL0     H 8180  -0.599   5.797   8.977  0.2079  0.2707 -0.3276
   61MOL0     H 8181  -0.572   5.761   9.147  2.8409  1.6182  0.3394
   61MOL0     H 8182  -0.809   5.837   9.107  1.0547 -2.1678  3.3406
   61MOL0     H 8183  -0.742   6.006   9.078  0.3221  2.0677  2.6601
   61MOL0     H 8184  -0.706   5.859   9.331 -1.2550  0.3542 -0.1608
   61MOL0     H 8185  -0.695   6.030   9.320 -0.3459  0.5916  0.3135
   61MOL0     H 8186  -0.915   5.812   9.484  0.9901  1.0991  1.2410
   61MOL0     H 8187  -1.143   5.910   9.614  2.0705 -0.1213 -0.7945
   61MOL0     H 8188  -1.270   5.951   9.492  1.8164  0.5494 -3.8602
   61MOL0     H 8189  -1.146   5.684   9.559 -0.5476 -0.1317  0.3316
   61MOL0     H 8190  -1.314   5.731   9.558  0.8939 -1.1953  1.8580
   61MOL0     H 8191  -1.274   5.584   9.371 -0.4987 -0.5786  1.3267
   61MOL0     H 8192  -1.152   5.688   9.300 -1.8845  0.4093 -2.3530
   61MOL0     H 8193  -1.314   5.874   9.294 -1.5772  0.0740  1.9163
   61MOL0     H 8194  -1.434   5.764   9.348  0.1310 -2.8907  0.3465
   61MOL0     H 8195  -1.572   5.619   9.289  2.9449 -2.9790  3.5959
   61MOL0     H 8196  -1.673   5.408   9.217  2.3923 -3.2223 -0.4310
   61MOL0     H 8197  -1.621   5.002   8.778  0.0560 -1.0349 -0.2436
   61MOL0     H 8198  -1.775   4.850   8.687 -1.3533  1.2118 -0.1166
   61MOL0     H 8199  -1.967   4.794   8.541  0.3313  0.0580 -0.1621
   61MOL0     H 8200  -1.959   4.690   8.687  3.5361  3.6033  1.6611
   61MOL0     H 8201  -2.109   4.582   8.548  2.2536  0.1261  1.0109
   61MOL0     H 8202  -2.207   4.643   8.683 -0.0893 -2.3017 -0.1110
   61MOL0     H 8203  -2.240   4.850   8.534  0.1949  0.4856 -1.1582
   61MOL0     H 8204  -2.166   4.746   8.404  3.4936  1.3666  0.5795
   61MOL0     H 8205  -2.407   4.676   8.585  0.6031 -0.6146 -0.0867
   61MOL0     H 8206  -2.357   4.589   8.439 -0.6153 -2.0121  2.4311
   61MOL0     H 8207  -2.382   4.788   8.290  1.8562  0.1891  1.1096
   61MOL0     H 8208  -2.450   4.881   8.423  1.2370  0.6348  0.3830
   61MOL0     H 8209  -2.562   4.628   8.310  1.0201  0.1512  0.2021
   61MOL0     H 8210  -2.611   4.700   8.465 -1.0502 -1.6577 -0.3554
   61MOL0     H 8211  -2.619   4.857   8.204 -0.1819  0.5045  0.5705
   61MOL0     H 8212  -2.694   4.891   8.365  3.7691  0.4661  1.8157
   61MOL0     H 8213  -2.771   4.632   8.222 -0.1939  0.0842 -2.4944
   61MOL0     H 8214  -2.842   4.727   8.346 -0.6599  3.7142 -0.8106
   61MOL0     H 8215  -2.103   5.098   8.790  0.2822 -0.5303 -3.7214
   61MOL0     H 8216  -1.939   5.278   8.859  0.5039  1.0108 -0.5538
   61MOL0     H 8217  -1.447   5.402   8.858 -1.2447  0.8886 -1.1378
   61MOL0     H 8218  -1.313   5.601   8.953 -0.7090 -1.0974  0.1219
   61MOL0     H 8219  -0.015   5.648   9.383 -0.5984  0.6607 -2.9726
   61MOL0     H 8220   0.138   5.609   9.561 -1.0564  5.1192 -1.4414
   61MOL0     H 8221   0.733   5.784   9.537 -1.9033 -2.3229 -2.0215
   61MOL0     H 8222   0.923   5.758   9.682 -0.0623  2.3158  2.5404
   61MOL0     H 8223   1.103   5.623   9.977  2.6155  1.7072 -0.7807
   61MOL0     H 8224   1.064   5.735   9.852 -2.9822 -0.3067 -0.3812
   61MOL0     H 8225   1.093   5.513   9.701 -1.8448 -2.6274  2.1766
   61MOL0     H 8226   1.184   5.446   9.839 -1.3985 -0.7223 -0.2329
   61MOL0     H 8227   1.311   5.657   9.853 -1.9508  0.8365  1.5766
   61MOL0     H 8228   1.236   5.713   9.707  0.6222  2.4749  5.1076
   61MOL0     H 8229   1.406   5.453   9.728  2.3232 -0.7665 -2.3038
   61MOL0     H 8230   1.337   5.518   9.576 -1.9092 -3.3673  0.8357
   61MOL0     H 8231   1.702   5.722   9.644 -0.4991  0.7913  1.2872
   61MOL0     H 8232   0.692   5.528   9.952  0.8213  2.8532  2.1543
   61MOL0     H 8233   0.467   5.425   9.775  0.5521 -0.4347  2.9592
   61MOL0     H 8234   0.445   5.511   9.924  2.1877 -1.0447  0.5000
   61MOL0     H 8235   0.378   5.591   9.774  1.0789  0.8542 -2.7833
   62MOL0     O 8236   2.066   5.826   4.730  0.1710 -0.1028 -0.3034
   62MOL0     C 8237   2.163   5.772   4.779  0.7211  0.4916  1.1702
   62MOL0     O 8238   2.289   5.806   4.762 -0.1112 -0.4163  0.3823
   62MOL0     C 8239   2.320   5.908   4.675 -0.3634 -0.3845 -0.4317
   62MOL0     C 8240   2.422   5.993   4.719  0.1202  0.3656 -0.3259
   62MOL0     C 8241   2.486   6.099   4.637  0.5699 -0.1369 -0.4233
   62MOL0     C 8242   2.438   6.112   4.512  0.8063 -0.2621  0.5396
   62MOL0     O 8243   2.496   6.207   4.429  0.1741 -0.2230 -0.6877
   62MOL0     C 8244   2.411   6.263   4.324 -0.2228 -0.2587  0.0107
   62MOL0     C 8245   2.486   6.389   4.285  0.5145  1.0642  0.0546
   62MOL0     C 8246   2.468   6.493   4.391  0.2133 -0.4688 -0.3573
   62MOL0     C 8247   2.521   6.633   4.339 -0.2427  0.6934 -0.9892
   62MOL0     C 8248   2.472   6.739   4.436 -0.4857  0.2567  0.8995
   62MOL0     C 8249   2.517   6.877   4.387 -0.6950  0.7837 -0.1291
   62MOL0     C 8250   2.489   6.997   4.482  0.4208 -0.7771 -0.7364
   62MOL0     C 8251   2.351   7.052   4.480  0.0921  0.4564  0.4919
   62MOL0     N 8252   2.346   7.188   4.530  0.2559 -0.1444 -0.3147
   62MOL0     C 8253   2.350   7.223   4.663 -0.5152  0.5093 -0.1855
   62MOL0     C 8254   2.376   7.353   4.666  0.2843  1.1583  0.5117
   62MOL0     C 8255   2.396   7.438   4.783  0.4958 -0.0242 -0.6063
   62MOL0     C 8256   2.265   7.460   4.862 -0.0325  0.4159 -0.1076
   62MOL0     C 8257   2.195   7.581   4.800  0.4565 -0.4355  0.1292
   62MOL0     C 8258   2.264   7.718   4.815 -0.3420  0.1903 -0.1193
   62MOL0     O 8259   2.182   7.837   4.799  1.3300 -0.8121 -0.6037
   62MOL0     C 8260   2.112   7.858   4.679 -0.8685  0.8090  0.6154
   62MOL0     C 8261   2.028   7.970   4.682 -0.5053  0.3611  0.5911
   62MOL0     C 8262   1.951   8.001   4.574 -0.6385 -0.5295  0.5545
   62MOL0     C 8263   1.958   7.925   4.455 -0.2657  0.1081  0.0080
   62MOL0     C 8264   1.900   7.985   4.343  0.9264  0.4794  0.3205
   62MOL0     O 8265   1.775   8.042   4.352  0.1082  0.1094 -0.5738
   62MOL0     C 8266   1.722   8.097   4.245 -0.4584 -0.1086  1.5056
   62MOL0     C 8267   1.598   8.047   4.196  1.1605 -0.6537  0.0322
   62MOL0     C 8268   1.535   8.097   4.079 -0.0798 -0.2039  0.9448
   62MOL0     C 8269   1.586   8.211   4.013 -0.2424  0.9525 -0.3672
   62MOL0     O 8270   1.525   8.277   3.919  0.1008  0.4100  0.6671
   62MOL0     C 8271   1.418   8.209   3.856  0.3185 -0.1715 -0.1503
   62MOL0     C 8272   1.361   8.284   3.731 -0.0711  0.6759 -0.8117
   62MOL0     C 8273   1.242   8.204   3.664  0.1061  0.3703  0.3121
   62MOL0     C 8274   1.193   8.267   3.533  0.8307  0.7087 -0.0070
   62MOL0     C 8275   1.172   8.413   3.540  0.2328  0.5263 -0.3316
   62MOL0     C 8276   1.096   8.467   3.425 -0.1887 -1.3911  0.6246
   62MOL0     C 8277   1.058   8.615   3.462  0.1740  0.2101  0.4611
   62MOL0     C 8278   0.991   8.702   3.352  0.6404  0.7435 -0.8143
   62MOL0    Cl 8279   0.827   8.646   3.309  0.5602  0.3946 -0.2073
   62MOL0     C 8280   1.703   8.263   4.073  0.1795  0.4637 -0.7949
   62MOL0     C 8281   1.774   8.208   4.181 -0.2086  0.1471  0.2137
   62MOL0     O 8282   1.983   8.009   4.251 -0.3227 -0.2145  0.1768
   62MOL0     C 8283   2.046   7.819   4.454 -0.1450 -0.6763 -0.5755
   62MOL0     C 8284   2.119   7.781   4.568 -0.5740  0.0190  0.8231
   62MOL0     N 8285   2.400   7.390   4.540 -0.7252 -0.1259 -0.1209
   62MOL0     N 8286   2.380   7.297   4.461  0.2906  0.4708 -0.6948
   62MOL0     C 8287   2.330   6.029   4.465 -0.1585 -0.0071 -0.1515
   62MOL0     C 8288   2.281   5.923   4.550  0.2953 -1.3376  0.7586
   62MOL0     C 8289   2.150   5.641   4.842 -0.2849  0.0261  0.5506
   62MOL0     C 8290   2.264   5.551   4.842  0.0413 -1.5217 -0.0839
   62MOL0     C 8291   2.256   5.422   4.889 -0.3571 -1.0981 -0.9192
   62MOL0     C 8292   2.146   5.386   4.962  0.3052  0.1188  0.0094
   62MOL0     O 8293   2.145   5.274   5.035  0.8442 -0.7033 -0.3411
   62MOL0     C 8294   2.274   5.213   5.076  1.0173 -0.1310 -0.0035
   62MOL0     C 8295   2.239   5.163   5.213  0.2033 -0.4393  0.6692
   62MOL0     C 8296   2.194   5.261   5.325  0.9437 -0.0513 -0.7591
   62MOL0     C 8297   2.308   5.348   5.383 -0.3674 -0.2999  0.0904
   62MOL0     C 8298   2.354   5.453   5.297 -0.6732  0.3077  0.0281
   62MOL0     C 8299   2.381   5.542   5.222 -0.0770 -0.7481  0.4979
   62MOL0     C 8300   2.034   5.474   4.965  0.1886 -0.2998 -0.7863
   62MOL0     C 8301   2.029   5.596   4.898  0.7976  0.5756 -1.1849
   62MOL0     C 8302   1.907   5.680   4.928 -0.9423 -0.4425  0.1860
   62MOL0     H 8303   2.443   5.982   4.825 -3.4779  0.1748  0.5279
   62MOL0     H 8304   2.568   6.161   4.672 -0.2228  1.7104 -1.6813
   62MOL0     H 8305   2.417   6.193   4.241  0.2396  1.4058 -1.4300
   62MOL0     H 8306   2.305   6.281   4.347 -0.9377 -3.0810 -0.7361
   62MOL0     H 8307   2.447   6.412   4.186  3.0122 -4.5997 -2.7300
   62MOL0     H 8308   2.593   6.365   4.280 -0.1717 -2.4684 -0.4975
   62MOL0     H 8309   2.517   6.471   4.486 -3.2638 -0.1113  1.6990
   62MOL0     H 8310   2.360   6.500   4.410  0.4952 -1.4520  1.9719
   62MOL0     H 8311   2.630   6.634   4.340 -0.0765 -0.0291  3.2826
   62MOL0     H 8312   2.490   6.662   4.238 -1.1882  2.5843 -0.2095
   62MOL0     H 8313   2.364   6.736   4.447 -0.6824 -1.8670 -0.9428
   62MOL0     H 8314   2.515   6.716   4.534  2.1861  0.0869 -0.2257
   62MOL0     H 8315   2.625   6.862   4.374 -0.8278  0.4311 -0.9024
   62MOL0     H 8316   2.469   6.897   4.290  1.8382 -0.8544 -1.8618
   62MOL0     H 8317   2.561   7.074   4.453 -0.0455 -0.8057 -1.9937
   62MOL0     H 8318   2.508   6.964   4.585 -1.7491 -0.2571 -0.1110
   62MOL0     H 8319   2.319   7.044   4.376 -2.0960  1.6302  1.0082
   62MOL0     H 8320   2.300   6.986   4.550 -1.4978  1.6104  0.4721
   62MOL0     H 8321   2.328   7.166   4.753 -2.8817 -0.9770 -1.6062
   62MOL0     H 8322   2.472   7.389   4.844  0.8148  1.4301  0.2288
   62MOL0     H 8323   2.434   7.532   4.740  0.3096  0.1666 -0.3590
   62MOL0     H 8324   2.209   7.367   4.847  0.7873 -0.1102  0.0732
   62MOL0     H 8325   2.284   7.459   4.969  4.7620 -1.7659 -0.7420
   62MOL0     H 8326   2.091   7.582   4.835  0.0158 -2.6636 -0.9175
   62MOL0     H 8327   2.181   7.560   4.694 -0.7628 -3.1641  0.7356
   62MOL0     H 8328   2.348   7.719   4.745  0.6775  1.6986  1.0463
   62MOL0     H 8329   2.299   7.713   4.918 -1.8736 -3.3450  0.3769
   62MOL0     H 8330   2.014   8.025   4.775 -0.6881 -2.1400  2.1288
   62MOL0     H 8331   1.883   8.085   4.578 -1.6075 -1.2417 -0.3602
   62MOL0     H 8332   1.544   7.962   4.237 -0.9906  0.1269 -1.0111
   62MOL0     H 8333   1.446   8.045   4.045  1.5546 -1.0608 -2.3717
   62MOL0     H 8334   1.454   8.110   3.825 -1.1411 -0.4682 -0.9622
   62MOL0     H 8335   1.338   8.205   3.930  0.1748  2.4787 -0.0869
   62MOL0     H 8336   1.339   8.385   3.765 -0.7164  0.1634  0.3830
   62MOL0     H 8337   1.438   8.307   3.657  1.3382  2.5615  1.1216
   62MOL0     H 8338   1.271   8.100   3.646  2.0539  0.8989  0.1413
   62MOL0     H 8339   1.161   8.197   3.737 -0.2225  2.0429  0.1635
   62MOL0     H 8340   1.099   8.218   3.506  0.1573  2.2919 -0.6196
   62MOL0     H 8341   1.272   8.245   3.459  2.6639 -0.3144  2.1289
   62MOL0     H 8342   1.271   8.460   3.534  0.5671 -0.1539 -0.2109
   62MOL0     H 8343   1.120   8.434   3.634 -1.2625 -2.1486 -0.4599
   62MOL0     H 8344   1.161   8.482   3.337 -2.3282  4.2793 -0.3966
   62MOL0     H 8345   1.002   8.417   3.401  0.3225 -1.7226 -0.8625
   62MOL0     H 8346   1.147   8.663   3.504 -0.4100 -0.4855  2.6149
   62MOL0     H 8347   0.981   8.612   3.540 -2.8670  1.0764 -2.2771
   62MOL0     H 8348   0.982   8.806   3.388  0.4783  0.4201  0.1143
   62MOL0     H 8349   1.046   8.716   3.259  3.0047  0.5344  0.4818
   62MOL0     H 8350   1.742   8.354   4.029  0.6383 -1.3052 -4.4594
   62MOL0     H 8351   1.867   8.245   4.225 -1.1494  1.8931  0.8385
   62MOL0     H 8352   2.058   7.755   4.367 -0.8532 -1.1513 -0.3358
   62MOL0     H 8353   2.200   7.708   4.565 -2.4973 -2.1920 -1.1081
   62MOL0     H 8354   2.271   6.029   4.374 -3.2387 -3.6000  1.5127
   62MOL0     H 8355   2.208   5.853   4.512 -2.0695  1.1624  0.3612
   62MOL0     H 8356   2.358   5.589   4.803 -0.4547 -1.2384 -1.0086
   62MOL0     H 8357   2.344   5.360   4.876  0.8623  0.5602 -0.9656
   62MOL0     H 8358   2.365   5.273   5.080  1.6111 -1.0245  0.3099
   62MOL0     H 8359   2.290   5.121   5.019 -0.6083 -0.9399  0.7649
   62MOL0     H 8360   2.319   5.098   5.250  1.7945  0.6200 -0.7805
   62MOL0     H 8361   2.148   5.103   5.199 -2.0078  3.1083 -1.7141
   62MOL0     H 8362   2.161   5.196   5.407 -1.9389  2.0640 -0.0868
   62MOL0     H 8363   2.108   5.324   5.299 -1.1466 -1.3863  2.2929
   62MOL0     H 8364   2.266   5.399   5.469 -0.0371  1.2599 -0.6372
   62MOL0     H 8365   2.387   5.281   5.419  0.1720  0.2925  0.0170
   62MOL0     H 8366   2.423   5.634   5.187 -0.9638  0.1860  1.8347
   62MOL0     H 8367   1.953   5.436   5.026  0.1219  0.6898 -0.2560
   62MOL0     H 8368   1.830   5.664   4.852 -0.1218 -0.3073 -0.6914
   62MOL0     H 8369   1.876   5.649   5.028 -1.3902 -1.9188 -0.3897
   62MOL0     H 8370   1.927   5.787   4.937 -1.3472 -0.5419  2.9578
   63MOL0     O 8371   4.687   2.563  10.099  0.4039  0.3688  0.7820
   63MOL0     C 8372   4.764   2.563   9.997  0.0183  0.5692  0.0156
   63MOL0     O 8373   4.720   2.525   9.871 -0.0784 -0.1723  0.1927
   63MOL0     C 8374   4.632   2.430   9.846  0.3911 -0.8916  0.1132
   63MOL0     C 8375   4.608   2.324   9.936  0.1189 -0.7692 -0.1951
   63MOL0     C 8376   4.538   2.214   9.907  0.6684 -0.0394 -0.3562
   63MOL0     C 8377   4.470   2.202   9.786 -0.2407 -0.3521  0.1929
   63MOL0     O 8378   4.389   2.090   9.768  0.7736  0.5452 -0.3487
   63MOL0     C 8379   4.381   2.019   9.644 -0.0936  0.6950  0.3440
   63MOL0     C 8380   4.374   1.864   9.660 -0.8469  0.0052 -0.2301
   63MOL0     C 8381   4.413   1.806   9.515  0.6509 -0.3989 -0.3601
   63MOL0     C 8382   4.407   1.645   9.502  0.0463 -1.6958 -0.5106
   63MOL0     C 8383   4.272   1.594   9.469 -0.8108 -0.5538  1.2052
   63MOL0     C 8384   4.288   1.445   9.433 -0.2695 -0.8037  0.3311
   63MOL0     C 8385   4.295   1.370   9.560 -0.9685 -0.0031  0.3828
   63MOL0     C 8386   4.317   1.222   9.528 -0.1865 -0.0726 -0.1804
   63MOL0     N 8387   4.460   1.192   9.498 -0.2384  0.0783 -0.3395
   63MOL0     C 8388   4.503   1.194   9.372  0.9048  0.3721  1.0853
   63MOL0     C 8389   4.614   1.124   9.377 -0.0882  0.3425  0.9201
   63MOL0     C 8390   4.709   1.090   9.259  0.5157 -0.0957  0.5400
   63MOL0     C 8391   4.645   0.987   9.165  0.3009  0.6422 -0.8774
   63MOL0     C 8392   4.575   0.867   9.238  0.0973  0.0826  0.3854
   63MOL0     C 8393   4.671   0.779   9.312 -0.8965 -0.0089 -0.9353
   63MOL0     O 8394   4.604   0.653   9.343  0.0018 -0.3584  0.2936
   63MOL0     C 8395   4.641   0.592   9.462 -0.7831 -0.3033  0.5734
   63MOL0     C 8396   4.764   0.612   9.532  1.7265  0.4161 -0.7823
   63MOL0     C 8397   4.789   0.565   9.659  0.1478  0.3968 -0.3331
   63MOL0     C 8398   4.703   0.468   9.713  0.0873  1.0092 -0.0908
   63MOL0     C 8399   4.713   0.413   9.847 -0.5810  0.7062  0.4515
   63MOL0     O 8400   4.832   0.447   9.913  0.5337  0.0374 -0.1006
   63MOL0     C 8401   4.862   0.378  10.035 -0.3509  0.2366  0.3766
   63MOL0     C 8402   4.874   0.447  10.153 -0.4659  0.9291  0.7436
   63MOL0     C 8403   4.910   0.371  10.267 -0.3690 -0.1042 -0.5809
   63MOL0     C 8404   4.929   0.231  10.261 -0.4040  0.4414  0.2127
   63MOL0     O 8405   4.940   0.156  10.382 -0.1890  0.9287  0.3450
   63MOL0     C 8406   4.837   0.183  10.477 -0.3340  0.1457  0.3927
   63MOL0     C 8407   4.852   0.099  10.608 -0.1328  0.3934  0.1471
   63MOL0     C 8408   4.799   0.147  10.747 -0.1209 -0.0841 -0.7475
   63MOL0     C 8409   4.868   0.275  10.783 -0.5301 -0.6952 -0.7312
   63MOL0     C 8410   4.904   0.280  10.931 -1.0350 -0.2474  0.9731
   63MOL0     C 8411   5.005   0.390  10.962  0.9691 -0.2423 -0.9472
   63MOL0     C 8412   5.036   0.409  11.110 -0.7223  0.2342 -0.0583
   63MOL0     C 8413   5.135   0.527  11.145  0.1442 -0.4691 -0.5375
   63MOL0    Cl 8414   5.023   0.636  11.240  0.4612 -0.0627  0.0948
   63MOL0     C 8415   4.920   0.168  10.138 -0.4238  1.4813 -1.1353
   63MOL0     C 8416   4.905   0.244  10.019 -0.2709  0.3160 -0.5357
   63MOL0     O 8417   4.624   0.339   9.900 -0.0098  0.4307 -0.8528
   63MOL0     C 8418   4.601   0.431   9.626  0.8803  0.1700  0.0595
   63MOL0     C 8419   4.564   0.492   9.504 -0.1111  0.7317  0.0626
   63MOL0     N 8420   4.647   1.091   9.501 -0.5396  0.1593 -0.1598
   63MOL0     N 8421   4.541   1.114   9.575 -0.6126  0.5277 -0.1636
   63MOL0     C 8422   4.474   2.311   9.694  0.1396 -0.0767 -0.6277
   63MOL0     C 8423   4.550   2.427   9.729  1.0336 -0.3875 -0.8036
   63MOL0     C 8424   4.906   2.605  10.019  1.3205 -0.3235 -0.6259
   63MOL0     C 8425   5.014   2.529   9.959 -1.0407  0.3908 -0.4604
   63MOL0     C 8426   5.146   2.562   9.989  0.0569 -0.2708 -0.6770
   63MOL0     C 8427   5.181   2.680  10.056  0.2515 -0.6952  0.0626
   63MOL0     O 8428   5.318   2.698  10.078  0.5873  0.1816  0.4701
   63MOL0     C 8429   5.362   2.828  10.138  0.3717  0.3962 -0.1529
   63MOL0     C 8430   5.494   2.881  10.073 -0.1395  0.5693  0.2773
   63MOL0     C 8431   5.526   3.019  10.125 -0.0692  0.6313  0.5256
   63MOL0     C 8432   5.559   3.021  10.269  0.1520 -0.0320  0.8166
   63MOL0     C 8433   5.606   3.163  10.295 -0.5892  1.3702  0.7750
   63MOL0     C 8434   5.651   3.274  10.286 -0.2968  1.0129 -0.6771
   63MOL0     C 8435   5.080   2.746  10.119  0.8455 -0.8114 -0.3685
   63MOL0     C 8436   4.942   2.717  10.100  0.1239 -0.1585 -0.4391
   63MOL0     C 8437   4.840   2.805  10.167  0.3186 -1.5885  0.2454
   63MOL0     H 8438   4.663   2.324  10.030 -0.9654  2.3322  0.5521
   63MOL0     H 8439   4.543   2.124   9.967 -0.3785  0.3181  0.3036
   63MOL0     H 8440   4.278   2.036   9.609 -1.4500  0.2596  3.7296
   63MOL0     H 8441   4.451   2.053   9.567  0.6064 -0.6846  0.3389
   63MOL0     H 8442   4.273   1.827   9.681 -2.1590  2.1994 -2.2036
   63MOL0     H 8443   4.428   1.816   9.742 -0.0680  1.3726  0.0844
   63MOL0     H 8444   4.520   1.827   9.506  0.3551  0.3448 -3.7519
   63MOL0     H 8445   4.364   1.850   9.428  1.7268 -3.1130 -2.4970
   63MOL0     H 8446   4.472   1.615   9.419  0.7086  0.5690 -0.8788
   63MOL0     H 8447   4.438   1.597   9.594 -2.0727 -1.6530  0.2857
   63MOL0     H 8448   4.203   1.620   9.550  1.5096  1.5980  2.6486
   63MOL0     H 8449   4.242   1.668   9.393  1.0890 -0.4106  0.5463
   63MOL0     H 8450   4.207   1.420   9.364  1.7527  2.2112 -3.5338
   63MOL0     H 8451   4.371   1.428   9.364 -0.8460  1.6681 -1.0822
   63MOL0     H 8452   4.198   1.391   9.606 -1.9349  1.9772 -2.3279
   63MOL0     H 8453   4.372   1.418   9.621 -1.8693  2.0039  0.0467
   63MOL0     H 8454   4.297   1.165   9.619  0.3904  0.4044  0.2537
   63MOL0     H 8455   4.258   1.170   9.452  1.5835 -1.0135 -0.9688
   63MOL0     H 8456   4.454   1.237   9.285 -1.4826 -0.3988  1.9685
   63MOL0     H 8457   4.723   1.174   9.190  0.5189 -3.9651 -4.8060
   63MOL0     H 8458   4.808   1.068   9.300  1.3082  3.3066  0.7545
   63MOL0     H 8459   4.563   1.036   9.113  0.1896  3.0328  1.4196
   63MOL0     H 8460   4.708   0.948   9.084 -0.2604 -0.0272 -1.0049
   63MOL0     H 8461   4.528   0.814   9.155  1.6196  2.0818 -1.9162
   63MOL0     H 8462   4.495   0.894   9.308 -1.1691  1.0814 -1.3631
   63MOL0     H 8463   4.687   0.832   9.406 -0.2287  0.0284 -1.0674
   63MOL0     H 8464   4.766   0.751   9.267  0.3127  2.1727  0.1258
   63MOL0     H 8465   4.833   0.681   9.484 -1.0208  0.9976 -4.3260
   63MOL0     H 8466   4.883   0.605   9.697  0.1950  2.9933 -2.8353
   63MOL0     H 8467   4.854   0.554  10.159  0.8647  1.1538  1.8378
   63MOL0     H 8468   4.913   0.427  10.360 -1.1256  1.1328 -1.2836
   63MOL0     H 8469   4.849   0.290  10.498 -0.6485  0.5219 -1.2105
   63MOL0     H 8470   4.736   0.162  10.439 -1.9527  1.6490  3.5035
   63MOL0     H 8471   4.806   0.000  10.597  1.8113 -0.9376  2.5876
   63MOL0     H 8472   4.958   0.069  10.606 -0.5919 -1.2991 -1.5696
   63MOL0     H 8473   4.689   0.149  10.746 -0.1390  1.1413 -2.5331
   63MOL0     H 8474   4.809   0.065  10.818 -2.4616  0.2549  0.0917
   63MOL0     H 8475   4.794   0.354  10.764  2.2412  1.4918 -3.3052
   63MOL0     H 8476   4.961   0.294  10.730 -0.8568  2.4000 -0.3623
   63MOL0     H 8477   4.942   0.183  10.963 -0.0137  0.1269  0.9231
   63MOL0     H 8478   4.813   0.294  10.990 -1.7453 -0.8763  0.0709
   63MOL0     H 8479   5.088   0.372  10.892  1.8181 -0.5426  0.1173
   63MOL0     H 8480   4.957   0.485  10.939  1.4853 -0.0894 -1.4214
   63MOL0     H 8481   5.087   0.320  11.147  1.8115  1.6038 -0.0205
   63MOL0     H 8482   4.935   0.430  11.145 -1.1409 -0.7100 -0.6910
   63MOL0     H 8483   5.222   0.497  11.205  1.8498  2.1273 -1.5558
   63MOL0     H 8484   5.172   0.578  11.055 -0.6304 -0.9529 -1.1434
   63MOL0     H 8485   4.934   0.061  10.129 -2.9180  0.8565  1.1217
   63MOL0     H 8486   4.906   0.185   9.927 -2.7263 -2.4997  1.0570
   63MOL0     H 8487   4.547   0.343   9.657  2.2268 -1.3961 -1.8167
   63MOL0     H 8488   4.478   0.469   9.441  0.9305 -1.3772 -0.6614
   63MOL0     H 8489   4.422   2.301   9.600 -0.9214 -0.2788 -0.0357
   63MOL0     H 8490   4.580   2.516   9.675  0.3667  1.4121  1.5979
   63MOL0     H 8491   4.993   2.456   9.882  1.0093 -1.0783  0.2903
   63MOL0     H 8492   5.228   2.511   9.940  1.0787  0.7970 -0.1234
   63MOL0     H 8493   5.372   2.821  10.246  2.8721  5.0532  0.1855
   63MOL0     H 8494   5.287   2.905  10.117  0.3601  0.7821  1.2006
   63MOL0     H 8495   5.477   2.887   9.965 -1.4128  0.9221  0.4740
   63MOL0     H 8496   5.576   2.809  10.085  1.1656  2.0364  0.4418
   63MOL0     H 8497   5.448   3.091  10.097 -1.6414 -0.7612  1.1609
   63MOL0     H 8498   5.614   3.048  10.068  0.4965  1.6101  1.8386
   63MOL0     H 8499   5.464   3.012  10.322 -1.6195 -2.5391 -2.4052
   63MOL0     H 8500   5.635   2.947  10.297  2.7225  2.3506  0.5830
   63MOL0     H 8501   5.690   3.373  10.280  0.0719  1.0488  1.4479
   63MOL0     H 8502   5.097   2.832  10.183  0.0231 -1.0363  0.1781
   63MOL0     H 8503   4.798   2.758  10.257 -1.2265  0.5314  0.7162
   63MOL0     H 8504   4.884   2.901  10.194  1.3504 -1.8244 -0.5482
   63MOL0     H 8505   4.762   2.816  10.091  0.6108 -2.1022 -0.1385
   64MOL0     O 8506   6.829   1.748   9.975  0.0174  0.0073 -0.1091
   64MOL0     C 8507   6.942   1.796   9.954  0.2886 -0.3596  1.6951
   64MOL0     O 8508   7.014   1.772   9.836  0.5726 -0.1281 -0.4678
   64MOL0     C 8509   6.961   1.723   9.724  0.5283 -0.4085 -0.8206
   64MOL0     C 8510   7.065   1.698   9.648 -0.8025  0.0030  0.8122
   64MOL0     C 8511   7.055   1.670   9.510 -0.3551  0.1443 -0.6609
   64MOL0     C 8512   6.925   1.655   9.455  0.3739 -0.0058 -0.4715
   64MOL0     O 8513   6.909   1.615   9.323  0.3936  0.4580 -0.1314
   64MOL0     C 8514   6.901   1.471   9.307  0.2830  0.0436 -0.3935
   64MOL0     C 8515   7.037   1.405   9.300  0.5269  0.7395 -0.2930
   64MOL0     C 8516   7.086   1.449   9.164 -0.5146  0.0413  1.2035
   64MOL0     C 8517   7.037   1.344   9.064  0.1227  0.0354  0.3886
   64MOL0     C 8518   7.134   1.231   9.028 -0.7999  0.4146 -0.2728
   64MOL0     C 8519   7.105   1.165   8.893 -0.4739 -0.0032  0.5243
   64MOL0     C 8520   7.000   1.048   8.919 -0.3213  0.2697 -0.8793
   64MOL0     C 8521   6.931   0.991   8.794  0.6573  0.3545  0.4976
   64MOL0     N 8522   6.890   1.104   8.700 -0.1459  0.7016  0.0099
   64MOL0     C 8523   6.762   1.161   8.702 -0.2173  0.2575  0.7300
   64MOL0     C 8524   6.763   1.248   8.596  0.0884  0.5968  0.2581
   64MOL0     C 8525   6.667   1.356   8.555 -0.7651 -0.5057  0.6331
   64MOL0     C 8526   6.698   1.499   8.603 -0.3249  0.2756  0.2564
   64MOL0     C 8527   6.573   1.583   8.549  0.6964 -0.3708 -0.4003
   64MOL0     C 8528   6.546   1.716   8.615  0.2938 -0.5912  0.1572
   64MOL0     O 8529   6.504   1.701   8.753 -0.2096 -0.0751 -0.6350
   64MOL0     C 8530   6.440   1.807   8.811  0.8132  0.1872  0.6827
   64MOL0     C 8531   6.479   1.942   8.800 -0.1813  0.5210 -0.8921
   64MOL0     C 8532   6.384   2.049   8.825  0.0930 -1.6102  0.1949
   64MOL0     C 8533   6.249   2.017   8.870 -0.2535  0.5002  0.2889
   64MOL0     C 8534   6.144   2.117   8.890 -0.3732 -0.5408  0.0206
   64MOL0     O 8535   6.180   2.244   8.889  0.4834 -0.0865 -0.4609
   64MOL0     C 8536   6.111   2.343   8.948 -0.1046  1.2122 -1.4896
   64MOL0     C 8537   6.155   2.475   8.920 -0.2764 -1.4731 -0.1525
   64MOL0     C 8538   6.081   2.591   8.956 -1.0117  0.1662  0.1354
   64MOL0     C 8539   5.973   2.577   9.043  1.3315  1.1335  0.1468
   64MOL0     O 8540   5.907   2.688   9.083  0.5793  0.7018  0.2722
   64MOL0     C 8541   5.869   2.782   8.974  0.4301 -0.3688 -0.0323
   64MOL0     C 8542   5.751   2.871   9.016 -0.2325  0.5692  0.2732
   64MOL0     C 8543   5.716   2.983   8.905  0.5227 -0.7220 -0.1410
   64MOL0     C 8544   5.820   3.090   8.903  0.2422 -0.2733  0.1475
   64MOL0     C 8545   5.783   3.204   8.818  0.5697 -0.2868  0.7353
   64MOL0     C 8546   5.894   3.311   8.824 -0.9922 -0.1521  0.6044
   64MOL0     C 8547   6.031   3.261   8.778  0.1822 -0.6952  1.2204
   64MOL0     C 8548   6.110   3.379   8.740  0.1746 -0.1828 -1.0020
   64MOL0    Cl 8549   6.273   3.322   8.681  0.0524  0.6375  0.2320
   64MOL0     C 8550   5.952   2.452   9.097 -0.3829  1.1666  0.7743
   64MOL0     C 8551   6.021   2.337   9.057  0.1054  1.0613 -0.0791
   64MOL0     O 8552   6.030   2.067   8.910  0.4527 -0.1171 -0.1952
   64MOL0     C 8553   6.222   1.876   8.884  0.6992 -0.4442  0.6149
   64MOL0     C 8554   6.310   1.778   8.856  0.5727 -0.9500 -0.8384
   64MOL0     N 8555   6.892   1.246   8.548  0.1771 -0.5495 -0.5421
   64MOL0     N 8556   6.969   1.162   8.612  0.1257 -0.3579  0.8331
   64MOL0     C 8557   6.810   1.682   9.539 -0.0654 -0.4886  0.3057
   64MOL0     C 8558   6.836   1.723   9.673 -0.3620  0.2141 -1.1670
   64MOL0     C 8559   7.001   1.854  10.068 -0.1425 -0.0874 -0.8578
   64MOL0     C 8560   7.113   1.939  10.049  0.4645 -0.3269  0.9537
   64MOL0     C 8561   7.177   1.988  10.171 -0.3359  1.5581  0.1773
   64MOL0     C 8562   7.151   1.944  10.302  0.5094 -1.3067  1.3190
   64MOL0     O 8563   7.207   1.999  10.412 -0.5180 -0.2099 -0.8635
   64MOL0     C 8564   7.198   2.151  10.416  0.3309 -0.0228 -0.1094
   64MOL0     C 8565   7.253   2.198  10.546 -0.6970 -0.1605  0.4069
   64MOL0     C 8566   7.406   2.164  10.555  0.0525 -0.5123 -0.5995
   64MOL0     C 8567   7.464   2.207  10.689 -0.1791  0.2035  0.6338
   64MOL0     C 8568   7.482   2.352  10.692  1.2000 -0.3264 -0.1158
   64MOL0     C 8569   7.518   2.460  10.720 -0.2857 -0.9560 -0.0027
   64MOL0     C 8570   7.052   1.851  10.312 -0.5991 -0.4969 -0.4225
   64MOL0     C 8571   6.975   1.804  10.205  0.0247  1.0408  0.8385
   64MOL0     C 8572   6.882   1.699  10.245  0.3889 -0.7033  1.1194
   64MOL0     H 8573   7.162   1.710   9.695  1.2205  3.2809 -3.5068
   64MOL0     H 8574   7.137   1.651   9.441  0.5413  2.2823 -0.2485
   64MOL0     H 8575   6.854   1.418   9.389 -1.7127  1.8566 -0.2790
   64MOL0     H 8576   6.828   1.447   9.229 -0.9625  0.0979  0.7277
   64MOL0     H 8577   7.031   1.296   9.313 -4.1837  0.8635  0.2564
   64MOL0     H 8578   7.102   1.441   9.380  0.9262 -1.6904  0.5785
   64MOL0     H 8579   7.195   1.445   9.155 -0.5097  0.3561  1.1101
   64MOL0     H 8580   7.060   1.549   9.129 -0.3586  0.2310  1.6197
   64MOL0     H 8581   6.937   1.307   9.086 -1.2142  2.7149 -0.6579
   64MOL0     H 8582   7.015   1.401   8.973 -1.4874  1.3692  1.5403
   64MOL0     H 8583   7.232   1.281   9.023 -0.5710  0.2411  1.5366
   64MOL0     H 8584   7.155   1.156   9.105  3.0843 -1.9407 -3.2608
   64MOL0     H 8585   7.075   1.238   8.817  0.4551 -1.7052 -1.5996
   64MOL0     H 8586   7.194   1.119   8.849 -1.1471  1.6067 -2.8468
   64MOL0     H 8587   6.922   1.086   8.986 -0.5528  1.5960 -1.8423
   64MOL0     H 8588   7.046   0.974   8.985  2.0200  1.7895 -0.7013
   64MOL0     H 8589   7.015   0.937   8.748 -1.0160 -0.5897 -1.6296
   64MOL0     H 8590   6.851   0.923   8.824 -0.5915  1.0980 -0.9899
   64MOL0     H 8591   6.693   1.134   8.781 -1.0052  1.1381  0.3473
   64MOL0     H 8592   6.659   1.349   8.446  1.0896 -1.3697  0.5198
   64MOL0     H 8593   6.569   1.321   8.590 -0.1915 -2.2846  0.5498
   64MOL0     H 8594   6.696   1.509   8.712  2.5068  0.1564  0.3908
   64MOL0     H 8595   6.791   1.542   8.564 -1.8226  1.2950 -2.4646
   64MOL0     H 8596   6.475   1.537   8.567  0.8290 -1.8904 -3.0151
   64MOL0     H 8597   6.588   1.610   8.444  4.1321  2.5793  0.6556
   64MOL0     H 8598   6.465   1.768   8.562  1.2520  0.6669 -0.1364
   64MOL0     H 8599   6.635   1.780   8.613  0.0100 -0.2002 -0.2587
   64MOL0     H 8600   6.574   1.989   8.777 -0.5421  1.2908 -0.8383
   64MOL0     H 8601   6.409   2.155   8.816  0.0690 -1.5727  0.5746
   64MOL0     H 8602   6.234   2.484   8.845 -1.0854 -0.3608 -0.8966
   64MOL0     H 8603   6.108   2.688   8.917  0.4310 -0.0771  0.4908
   64MOL0     H 8604   5.955   2.844   8.948  0.9156 -0.4694  1.2729
   64MOL0     H 8605   5.830   2.731   8.885  0.6744  0.1224 -0.4246
   64MOL0     H 8606   5.663   2.806   9.027 -1.2120  2.0441  1.7813
   64MOL0     H 8607   5.771   2.918   9.113 -0.7600 -0.4573  0.8921
   64MOL0     H 8608   5.695   2.946   8.804 -1.7323 -2.8841  0.9946
   64MOL0     H 8609   5.621   3.033   8.928  0.5039  1.1047 -3.5328
   64MOL0     H 8610   5.904   3.042   8.853 -0.6889  0.1769 -1.9297
   64MOL0     H 8611   5.839   3.132   9.003  2.1129  1.7638 -0.9602
   64MOL0     H 8612   5.681   3.235   8.839 -0.7535 -3.4876 -0.3326
   64MOL0     H 8613   5.774   3.169   8.715 -0.0626  0.1248  0.6463
   64MOL0     H 8614   5.850   3.399   8.774 -2.9113 -1.5461 -0.2951
   64MOL0     H 8615   5.914   3.343   8.926 -1.5878  2.4011  0.0091
   64MOL0     H 8616   6.013   3.198   8.690 -1.1585 -0.2303  1.1431
   64MOL0     H 8617   6.087   3.197   8.846  2.2639  0.0229  0.2694
   64MOL0     H 8618   6.057   3.443   8.670  0.4660  2.6115  1.1836
   64MOL0     H 8619   6.117   3.429   8.837  0.2568  1.1786 -1.6871
   64MOL0     H 8620   5.877   2.432   9.173 -2.3423 -2.5701 -1.7837
   64MOL0     H 8621   5.990   2.242   9.098  4.2594 -0.9492 -1.0563
   64MOL0     H 8622   6.121   1.847   8.910  1.6624 -1.0915  4.2128
   64MOL0     H 8623   6.284   1.673   8.867  1.6531 -1.1738 -0.2496
   64MOL0     H 8624   6.714   1.667   9.490 -0.4296 -3.6072  1.7343
   64MOL0     H 8625   6.750   1.755   9.731 -0.8339 -0.9243 -1.2128
   64MOL0     H 8626   7.123   1.967   9.945 -0.1211 -2.1747  0.3535
   64MOL0     H 8627   7.259   2.059  10.175  0.1223  1.0434 -0.0236
   64MOL0     H 8628   7.092   2.175  10.409 -0.0463 -1.3810  0.6269
   64MOL0     H 8629   7.253   2.199  10.335 -2.5349  1.2790 -1.3999
   64MOL0     H 8630   7.206   2.146  10.630  1.6459 -0.1381  1.8448
   64MOL0     H 8631   7.237   2.303  10.570 -1.1859 -0.7462  3.0368
   64MOL0     H 8632   7.460   2.218  10.477 -1.2343  2.3053  0.3344
   64MOL0     H 8633   7.412   2.055  10.544 -1.9279 -0.5883 -1.2492
   64MOL0     H 8634   7.395   2.179  10.769 -2.0511  2.3193 -0.1288
   64MOL0     H 8635   7.566   2.171  10.706  0.8467  1.6195 -1.9398
   64MOL0     H 8636   7.565   2.556  10.730  0.0677 -0.7870 -2.6080
   64MOL0     H 8637   7.039   1.834  10.419  0.7662 -1.0844 -0.3376
   64MOL0     H 8638   6.785   1.720  10.199  1.3152  0.0712 -0.5631
   64MOL0     H 8639   6.911   1.599  10.213  1.5422 -0.2560  0.6860
   64MOL0     H 8640   6.854   1.688  10.350 -1.3977 -1.2592  0.6080
   65MOL0     O 8641   0.075   5.035   6.787  0.2135 -1.1163 -0.1582
   65MOL0     C 8642   0.081   5.138   6.712  0.4442  0.5385  0.5181
   65MOL0     O 8643   0.117   5.145   6.583  0.2338  0.0929  0.4150
   65MOL0     C 8644   0.123   5.027   6.505 -0.3979 -0.1931  0.5638
   65MOL0     C 8645   0.216   5.018   6.394  0.6447 -0.7676  0.2058
   65MOL0     C 8646   0.215   4.913   6.310  0.4449 -0.8027  0.9914
   65MOL0     C 8647   0.135   4.795   6.335  0.5460 -1.0360  0.5369
   65MOL0     O 8648   0.137   4.680   6.254  0.1417 -0.0542  0.6275
   65MOL0     C 8649   0.163   4.698   6.115 -0.7722 -0.3340 -0.0490
   65MOL0     C 8650   0.108   4.575   6.044  0.5474  0.6825  0.9299
   65MOL0     C 8651   0.160   4.570   5.897  1.0181 -1.0630 -0.4278
   65MOL0     C 8652   0.090   4.677   5.810  0.1514 -0.3869 -0.4072
   65MOL0     C 8653   0.169   4.691   5.681 -1.0052 -0.9815 -0.2910
   65MOL0     C 8654   0.133   4.818   5.623 -0.1309 -0.4557 -0.5252
   65MOL0     C 8655  -0.009   4.814   5.563 -0.0998 -0.0053 -0.3010
   65MOL0     C 8656  -0.027   4.879   5.423 -0.4581 -0.4783 -1.4311
   65MOL0     N 8657  -0.126   4.798   5.347  1.2245  0.6597 -0.3817
   65MOL0     C 8658  -0.260   4.827   5.342  0.3646 -0.0430 -0.8154
   65MOL0     C 8659  -0.319   4.721   5.276  0.3937  0.0386  0.3602
   65MOL0     C 8660  -0.457   4.699   5.250  0.7629 -0.3375 -0.2776
   65MOL0     C 8661  -0.545   4.725   5.377 -1.0266  0.7630  0.2098
   65MOL0     C 8662  -0.696   4.698   5.343  0.4316 -1.3262 -0.4170
   65MOL0     C 8663  -0.750   4.829   5.278  0.2644 -0.5090 -0.9492
   65MOL0     O 8664  -0.757   4.932   5.373 -0.4043  0.1800 -0.1599
   65MOL0     C 8665  -0.875   5.001   5.386 -0.0218 -0.7617  0.9124
   65MOL0     C 8666  -0.902   5.048   5.512  0.4147 -0.2454 -0.3428
   65MOL0     C 8667  -1.019   5.122   5.540  0.8419  0.1393  0.1505
   65MOL0     C 8668  -1.104   5.168   5.438 -1.0481  1.1927  0.2301
   65MOL0     C 8669  -1.239   5.234   5.450  0.2304  0.8543  0.1848
   65MOL0     O 8670  -1.252   5.340   5.540  0.5639  0.5176  1.1585
   65MOL0     C 8671  -1.372   5.405   5.543  0.7657 -0.4695  0.3423
   65MOL0     C 8672  -1.415   5.484   5.433  0.9566 -0.6196  0.3364
   65MOL0     C 8673  -1.534   5.554   5.432 -0.0125  0.6717  0.5455
   65MOL0     C 8674  -1.611   5.549   5.545 -0.7113  0.0040  0.4065
   65MOL0     O 8675  -1.727   5.609   5.546  0.8945 -0.0752 -0.0375
   65MOL0     C 8676  -1.840   5.527   5.561  0.3043  1.0610 -0.5769
   65MOL0     C 8677  -1.955   5.535   5.447 -0.7306 -0.3676  0.3095
   65MOL0     C 8678  -2.025   5.665   5.446  0.0217 -0.2888  1.4008
   65MOL0     C 8679  -2.126   5.684   5.565 -0.2778 -0.0476 -0.3663
   65MOL0     C 8680  -2.172   5.826   5.595 -0.0918 -0.1053  0.4758
   65MOL0     C 8681  -2.071   5.945   5.586  0.6371 -0.0440 -0.2580
   65MOL0     C 8682  -1.967   5.951   5.703 -0.7374 -0.0364 -1.2290
   65MOL0     C 8683  -1.906   6.089   5.710  0.9058  0.2212 -0.8302
   65MOL0    Cl 8684  -2.023   6.213   5.785 -0.2245  0.1282  0.2671
   65MOL0     C 8685  -1.563   5.479   5.665  0.5379 -0.6047  0.5415
   65MOL0     C 8686  -1.445   5.410   5.663  0.0512  0.6780 -0.2426
   65MOL0     O 8687  -1.326   5.187   5.378 -0.6706 -0.8996 -0.7547
   65MOL0     C 8688  -1.059   5.127   5.305 -0.2131 -0.2855 -0.0452
   65MOL0     C 8689  -0.950   5.047   5.274 -0.3971  0.5782 -0.3997
   65MOL0     N 8690  -0.214   4.644   5.225 -0.1663  0.9803  0.4497
   65MOL0     N 8691  -0.100   4.687   5.281  0.7452  0.6132  0.7901
   65MOL0     C 8692   0.038   4.799   6.437 -0.6111 -0.4821 -0.5810
   65MOL0     C 8693   0.035   4.917   6.520 -0.1607  0.4710 -0.6184
   65MOL0     C 8694   0.065   5.272   6.766 -0.3702  0.0981  0.2410
   65MOL0     C 8695   0.173   5.360   6.771 -0.0829 -0.5476  0.0202
   65MOL0     C 8696   0.178   5.482   6.840  0.4947  0.5795  0.3273
   65MOL0     C 8697   0.058   5.527   6.891  0.4056 -0.5557  0.6394
   65MOL0     O 8698   0.068   5.644   6.959 -0.5066  0.0969  0.0666
   65MOL0     C 8699  -0.030   5.745   6.926  0.8165  0.8375 -0.1567
   65MOL0     C 8700  -0.017   5.873   6.999 -0.0046  0.2531 -0.0056
   65MOL0     C 8701  -0.090   5.985   6.920  0.0666 -0.7303 -0.9719
   65MOL0     C 8702  -0.026   6.120   6.939 -0.2917  0.9220  0.3118
   65MOL0     C 8703  -0.078   6.191   6.820 -0.2305 -0.3663 -1.6181
   65MOL0     C 8704  -0.123   6.246   6.727 -0.1085  0.2247  0.6969
   65MOL0     C 8705  -0.063   5.452   6.881 -0.8554  0.0406  0.7864
   65MOL0     C 8706  -0.062   5.326   6.828 -1.0334  1.7456  0.0209
   65MOL0     C 8707  -0.175   5.237   6.856 -0.0057  0.9743 -0.9464
   65MOL0     H 8708   0.267   5.108   6.363 -2.7416  1.0806 -0.4113
   65MOL0     H 8709   0.262   4.917   6.213 -1.6652 -1.7224 -0.1320
   65MOL0     H 8710   0.127   4.794   6.075 -1.6183 -0.3005  0.7457
   65MOL0     H 8711   0.272   4.688   6.119 -0.8952 -1.4765  1.4923
   65MOL0     H 8712   0.000   4.590   6.039  0.8444  2.8238 -0.8339
   65MOL0     H 8713   0.140   4.483   6.094  1.5935  0.5519  0.0760
   65MOL0     H 8714   0.148   4.475   5.844  3.5346 -0.5424 -2.0780
   65MOL0     H 8715   0.269   4.570   5.896  1.0367 -1.2895  0.3295
   65MOL0     H 8716  -0.017   4.667   5.795  0.0907  1.9957 -2.3989
   65MOL0     H 8717   0.091   4.771   5.866 -1.4623 -2.4496  3.3752
   65MOL0     H 8718   0.276   4.695   5.702 -1.1778  2.9217  0.5049
   65MOL0     H 8719   0.158   4.608   5.610  1.5307 -1.6688  0.0350
   65MOL0     H 8720   0.145   4.890   5.704 -1.0217  0.6738 -1.3613
   65MOL0     H 8721   0.196   4.834   5.535 -1.8931 -2.9073 -2.3757
   65MOL0     H 8722  -0.061   4.886   5.627  0.6007  1.0340 -0.8775
   65MOL0     H 8723  -0.068   4.722   5.571  0.6949 -0.3311  3.4526
   65MOL0     H 8724  -0.063   4.981   5.436 -0.7979 -0.7711  0.1375
   65MOL0     H 8725   0.070   4.872   5.373  0.0021  0.3262 -0.6788
   65MOL0     H 8726  -0.311   4.915   5.378  0.8979  0.9335 -2.3430
   65MOL0     H 8727  -0.485   4.766   5.169 -2.7351 -0.2782  0.8048
   65MOL0     H 8728  -0.460   4.597   5.210  3.6038  0.4953 -2.9898
   65MOL0     H 8729  -0.522   4.656   5.458 -1.5753  2.0663  1.5268
   65MOL0     H 8730  -0.504   4.819   5.417  1.0434  0.1315 -0.2840
   65MOL0     H 8731  -0.743   4.687   5.442  1.5182  0.9715  0.4214
   65MOL0     H 8732  -0.702   4.615   5.272 -2.0770  0.7947 -2.9440
   65MOL0     H 8733  -0.849   4.798   5.241  0.3565 -1.2620 -0.5782
   65MOL0     H 8734  -0.696   4.861   5.188 -1.6078 -0.3126 -2.0613
   65MOL0     H 8735  -0.840   5.006   5.591  0.3399 -2.5935 -1.4482
   65MOL0     H 8736  -1.038   5.161   5.640  0.1855  1.8033 -0.5884
   65MOL0     H 8737  -1.357   5.503   5.342 -0.5031  1.6878 -0.1899
   65MOL0     H 8738  -1.566   5.611   5.345  0.2469  1.4804  0.9681
   65MOL0     H 8739  -1.805   5.429   5.593  3.3320  2.5764  1.2566
   65MOL0     H 8740  -1.892   5.565   5.649  0.2554  0.1289 -0.2027
   65MOL0     H 8741  -1.914   5.510   5.348 -1.7975 -0.3643 -0.1523
   65MOL0     H 8742  -2.037   5.464   5.463 -2.6848  1.8733  0.7847
   65MOL0     H 8743  -1.942   5.735   5.436  1.1950 -1.5949  1.6244
   65MOL0     H 8744  -2.081   5.681   5.354  1.4945  0.7547  0.6536
   65MOL0     H 8745  -2.075   5.660   5.659 -0.7027  1.6166  0.3173
   65MOL0     H 8746  -2.216   5.628   5.540 -2.0788  1.2668  2.6218
   65MOL0     H 8747  -2.217   5.820   5.695 -0.3200  1.8881  0.5387
   65MOL0     H 8748  -2.260   5.841   5.532 -0.3645 -0.1045  0.8509
   65MOL0     H 8749  -2.025   5.945   5.487  2.3238  1.5252  0.4747
   65MOL0     H 8750  -2.139   6.030   5.597 -0.5253 -0.7355 -1.7005
   65MOL0     H 8751  -1.896   5.868   5.694  0.1688  0.5778 -0.1202
   65MOL0     H 8752  -2.016   5.946   5.801  1.8450  1.1905  0.2390
   65MOL0     H 8753  -1.824   6.081   5.781  0.2098 -4.9687 -0.2332
   65MOL0     H 8754  -1.881   6.123   5.609 -2.1973  1.2697 -1.3545
   65MOL0     H 8755  -1.627   5.476   5.752 -2.1713 -5.3239 -1.2240
   65MOL0     H 8756  -1.425   5.346   5.748  0.2257  3.6066  2.0776
   65MOL0     H 8757  -1.125   5.151   5.221  1.1901  1.2651 -0.7782
   65MOL0     H 8758  -0.924   5.009   5.176 -0.9620  0.1730 -0.3971
   65MOL0     H 8759  -0.024   4.714   6.461  0.8062 -1.2261  0.5867
   65MOL0     H 8760  -0.033   4.914   6.604  1.9236 -0.3485  1.1164
   65MOL0     H 8761   0.269   5.322   6.736 -0.7525 -1.8109 -0.5202
   65MOL0     H 8762   0.268   5.536   6.865  0.6685  0.3569  0.1871
   65MOL0     H 8763  -0.131   5.711   6.950  0.5626  2.8963  2.2143
   65MOL0     H 8764  -0.027   5.759   6.818  0.7779  2.3354  0.0192
   65MOL0     H 8765   0.090   5.893   6.990  0.7019 -3.2454 -0.7724
   65MOL0     H 8766  -0.044   5.876   7.105  1.5515  2.1871  0.3883
   65MOL0     H 8767  -0.195   5.982   6.949  0.1752 -2.0868 -0.6816
   65MOL0     H 8768  -0.064   5.961   6.817  3.9526 -0.7786 -0.1323
   65MOL0     H 8769  -0.064   6.162   7.033 -0.7530 -0.5815  0.8240
   65MOL0     H 8770   0.082   6.108   6.937 -0.4010 -0.0692  0.2330
   65MOL0     H 8771  -0.178   6.287   6.645 -3.1384  0.7807  2.8388
   65MOL0     H 8772  -0.146   5.497   6.935 -0.0505  2.2623  0.2786
   65MOL0     H 8773  -0.163   5.129   6.859  0.3440  1.0329 -0.1039
   65MOL0     H 8774  -0.237   5.273   6.939 -0.7694  0.5374 -1.3122
   65MOL0     H 8775  -0.245   5.251   6.773 -1.4301  1.0563  0.2176
   66MOL0     O 8776   6.058   1.859   0.294 -0.5366 -0.6362  0.0246
   66MOL0     C 8777   6.088   1.777   0.375  0.8933 -0.2858  0.3673
   66MOL0     O 8778   6.199   1.712   0.381  0.6137  0.5248 -0.1424
   66MOL0     C 8779   6.315   1.745   0.311  0.8734 -0.1444  0.8206
   66MOL0     C 8780   6.318   1.789   0.173 -0.2743  0.4891  0.5224
   66MOL0     C 8781   6.429   1.811   0.092 -0.6956  0.2262 -1.1286
   66MOL0     C 8782   6.556   1.780   0.158  0.1754 -0.6735 -0.0495
   66MOL0     O 8783   6.669   1.798   0.080 -0.7319 -0.0317  0.4579
   66MOL0     C 8784   6.692   1.908  -0.017 -0.0698  1.2188 -0.1872
   66MOL0     C 8785   6.842   1.925  -0.023 -0.5242  0.5991 -0.3971
   66MOL0     C 8786   6.905   1.967   0.109 -0.4557  1.1092 -0.0988
   66MOL0     C 8787   6.842   2.100   0.149  0.3085  0.6611 -1.2329
   66MOL0     C 8788   6.921   2.169   0.271 -0.2083 -0.1867 -0.2782
   66MOL0     C 8789   6.907   2.327   0.275 -0.4909  0.2427 -0.6463
   66MOL0     C 8790   6.972   2.409   0.159  0.0243 -0.8303 -1.1969
   66MOL0     C 8791   7.007   2.556   0.204  0.7602  0.4461 -0.3413
   66MOL0     N 8792   7.116   2.620   0.133  0.2640  0.4288  0.6543
   66MOL0     C 8793   7.131   2.632  -0.007  0.7583 -0.8285 -0.5111
   66MOL0     C 8794   7.219   2.738  -0.030 -0.8145 -0.5545  0.1876
   66MOL0     C 8795   7.262   2.798  -0.158  0.6692  0.0683 -0.7410
   66MOL0     C 8796   7.344   2.705  -0.252 -0.3444  0.5146  0.7512
   66MOL0     C 8797   7.375   2.779  -0.381 -0.6575 -0.0028 -0.1542
   66MOL0     C 8798   7.278   2.757  -0.494 -0.0895  0.1957 -0.3199
   66MOL0     O 8799   7.257   2.623  -0.544  0.2401 -0.3882 -0.6278
   66MOL0     C 8800   7.156   2.607  -0.630 -0.5924 -0.3405 -1.1913
   66MOL0     C 8801   7.110   2.707  -0.721 -0.4285  0.5770  0.2147
   66MOL0     C 8802   7.001   2.688  -0.800  0.3503 -0.6072  1.0359
   66MOL0     C 8803   6.947   2.559  -0.806 -0.0327  0.6847  0.2769
   66MOL0     C 8804   6.815   2.547  -0.882 -0.6225 -0.0337 -0.0283
   66MOL0     O 8805   6.764   2.661  -0.940  0.4379 -0.2428 -1.2421
   66MOL0     C 8806   6.685   2.651  -1.050 -1.2056  0.0881  1.0410
   66MOL0     C 8807   6.738   2.714  -1.164  0.8341  0.6343  0.4215
   66MOL0     C 8808   6.661   2.731  -1.276 -0.5811  0.8789 -0.2345
   66MOL0     C 8809   6.532   2.670  -1.282  0.6203 -0.0264 -0.1255
   66MOL0     O 8810   6.462   2.690  -1.401 -0.0237  0.3100 -0.6500
   66MOL0     C 8811   6.340   2.619  -1.418  0.7350  0.6257 -0.4048
   66MOL0     C 8812   6.373   2.463  -1.433 -1.2889  0.6210 -0.1291
   66MOL0     C 8813   6.398   2.431  -1.579  0.1301  0.7367  0.4743
   66MOL0     C 8814   6.529   2.488  -1.633 -0.4451 -0.5486 -0.1047
   66MOL0     C 8815   6.568   2.466  -1.777 -0.2108  0.2850 -0.0148
   66MOL0     C 8816   6.550   2.321  -1.809  0.1914  0.3122  0.4738
   66MOL0     C 8817   6.623   2.286  -1.931 -0.4575 -0.2418 -0.3580
   66MOL0     C 8818   6.635   2.128  -1.958  0.2448  0.8464  0.8077
   66MOL0    Cl 8819   6.720   2.027  -1.835 -0.3444 -0.0359 -0.5585
   66MOL0     C 8820   6.482   2.603  -1.175  0.1354  0.4371  0.6319
   66MOL0     C 8821   6.559   2.594  -1.054 -0.6749  0.7705 -0.2506
   66MOL0     O 8822   6.770   2.436  -0.897 -0.5891  0.0455 -0.2744
   66MOL0     C 8823   6.999   2.454  -0.724  0.6128  0.6233  0.7662
   66MOL0     C 8824   7.107   2.476  -0.640 -1.3560 -0.0419  1.2258
   66MOL0     N 8825   7.249   2.788   0.103  0.4937  0.3405  0.7104
   66MOL0     N 8826   7.191   2.718   0.188 -0.8381 -0.5374 -0.3289
   66MOL0     C 8827   6.552   1.722   0.290 -0.1290 -0.5437 -0.9226
   66MOL0     C 8828   6.439   1.710   0.371 -0.7348 -0.3053  0.4925
   66MOL0     C 8829   5.978   1.740   0.464 -0.1319  0.2332  0.2937
   66MOL0     C 8830   5.865   1.827   0.491 -0.2830  1.1008  0.2653
   66MOL0     C 8831   5.764   1.796   0.576 -0.4477  0.0690  0.1669
   66MOL0     C 8832   5.761   1.682   0.650  0.8554  0.1596 -0.4811
   66MOL0     O 8833   5.659   1.671   0.744 -0.5253 -0.1312 -0.3886
   66MOL0     C 8834   5.609   1.536   0.766 -0.5141  0.2676 -0.7585
   66MOL0     C 8835   5.512   1.487   0.660 -0.2439 -0.9243  0.0260
   66MOL0     C 8836   5.382   1.436   0.723  0.6428 -0.4888 -0.0705
   66MOL0     C 8837   5.283   1.392   0.619  0.6843  0.8520  0.2653
   66MOL0     C 8838   5.334   1.265   0.556  0.9844 -0.4396  0.7687
   66MOL0     C 8839   5.378   1.163   0.500 -0.1985  0.4018 -0.0142
   66MOL0     C 8840   5.869   1.588   0.623  0.4883  0.3975  0.4868
   66MOL0     C 8841   5.962   1.608   0.521 -0.3412  0.4302  0.4535
   66MOL0     C 8842   6.049   1.493   0.492  0.4639  0.0991 -0.2650
   66MOL0     H 8843   6.228   1.803   0.114  1.2787  3.6161 -1.4108
   66MOL0     H 8844   6.431   1.854  -0.008  0.9192  2.7682 -0.0938
   66MOL0     H 8845   6.655   1.880  -0.116  2.0999  0.2590 -0.8055
   66MOL0     H 8846   6.655   2.004   0.019  1.9722  1.0031  2.8856
   66MOL0     H 8847   6.873   1.996  -0.100 -1.8417  3.3635  1.4846
   66MOL0     H 8848   6.886   1.831  -0.057 -1.9979  0.4657 -2.0245
   66MOL0     H 8849   7.010   1.993   0.091 -0.8335  2.1665 -0.9601
   66MOL0     H 8850   6.891   1.887   0.182 -2.4533  0.9610 -0.5675
   66MOL0     H 8851   6.840   2.166   0.063 -2.6964 -1.0340 -2.6383
   66MOL0     H 8852   6.740   2.089   0.189  1.1895 -1.8922  0.6215
   66MOL0     H 8853   6.901   2.121   0.368 -1.3178  0.3950 -0.1952
   66MOL0     H 8854   7.029   2.155   0.266 -0.0450  0.4616  1.1012
   66MOL0     H 8855   6.806   2.365   0.288  0.2755  2.7743 -1.4367
   66MOL0     H 8856   6.961   2.363   0.363  0.4399 -2.4311 -0.0239
   66MOL0     H 8857   6.897   2.414   0.081 -1.8541 -1.1235  0.5038
   66MOL0     H 8858   7.065   2.354   0.139  2.0540  1.2044  1.6690
   66MOL0     H 8859   6.917   2.615   0.184 -0.9886 -1.6570  0.8667
   66MOL0     H 8860   7.018   2.564   0.312  0.9798 -0.3213 -0.2977
   66MOL0     H 8861   7.082   2.574  -0.085  1.1580 -0.5556 -0.9716
   66MOL0     H 8862   7.172   2.834  -0.208  2.1966  3.3235 -1.4234
   66MOL0     H 8863   7.315   2.890  -0.130 -1.8219  1.1374  0.7233
   66MOL0     H 8864   7.430   2.685  -0.187  1.8226  0.0745 -2.0531
   66MOL0     H 8865   7.312   2.604  -0.279  1.8660 -0.0684  0.0968
   66MOL0     H 8866   7.478   2.753  -0.407 -0.9459 -2.8400  1.1692
   66MOL0     H 8867   7.379   2.887  -0.363  0.0361 -0.2762  1.6044
   66MOL0     H 8868   7.312   2.815  -0.580 -2.3323  2.4028  0.1815
   66MOL0     H 8869   7.177   2.793  -0.477 -0.6996 -1.0228 -1.1619
   66MOL0     H 8870   7.163   2.801  -0.730 -0.2297  0.5357  0.8509
   66MOL0     H 8871   6.987   2.778  -0.859  1.0541 -1.2138 -0.0745
   66MOL0     H 8872   6.842   2.745  -1.158  0.9420  0.3183  0.2293
   66MOL0     H 8873   6.693   2.775  -1.370 -1.4912 -3.6553 -2.9818
   66MOL0     H 8874   6.278   2.642  -1.331  3.1320  3.0016  0.8407
   66MOL0     H 8875   6.282   2.654  -1.503  0.3759  3.0172  0.7456
   66MOL0     H 8876   6.465   2.438  -1.379 -2.1982 -0.8405  0.8091
   66MOL0     H 8877   6.289   2.412  -1.386 -0.3473 -0.6748  0.2059
   66MOL0     H 8878   6.407   2.322  -1.588  2.0467  0.9902 -1.5491
   66MOL0     H 8879   6.313   2.467  -1.637  0.3191  0.3611 -0.0449
   66MOL0     H 8880   6.613   2.449  -1.575 -1.6491 -1.7186  0.9092
   66MOL0     H 8881   6.524   2.598  -1.628 -1.6537 -0.6457  1.3052
   66MOL0     H 8882   6.669   2.507  -1.791 -0.0882  0.0772  0.2587
   66MOL0     H 8883   6.493   2.522  -1.833  0.2253 -1.5980 -2.6760
   66MOL0     H 8884   6.586   2.256  -1.729 -1.0914  0.2298  1.0125
   66MOL0     H 8885   6.444   2.297  -1.827  0.0582  0.5337  0.9303
   66MOL0     H 8886   6.727   2.316  -1.917 -0.2132 -0.8073 -0.9526
   66MOL0     H 8887   6.581   2.327  -2.023  0.3840 -1.8237 -1.5016
   66MOL0     H 8888   6.530   2.099  -1.971  0.6008 -1.3782  2.3812
   66MOL0     H 8889   6.674   2.102  -2.057 -0.1318 -0.8057  1.0745
   66MOL0     H 8890   6.384   2.558  -1.169 -1.1873  2.7088 -1.7089
   66MOL0     H 8891   6.517   2.549  -0.965  1.9952  2.1533  1.8712
   66MOL0     H 8892   6.957   2.354  -0.724  2.0080  0.0044 -0.7561
   66MOL0     H 8893   7.143   2.408  -0.563  1.1205 -1.5763 -1.0907
   66MOL0     H 8894   6.650   1.689   0.324 -0.3431  0.1402  0.4334
   66MOL0     H 8895   6.432   1.657   0.466 -0.4961  0.6392  1.0539
   66MOL0     H 8896   5.856   1.924   0.442  0.1563  0.8683 -0.2823
   66MOL0     H 8897   5.681   1.861   0.601  1.6092  2.8971  0.0927
   66MOL0     H 8898   5.554   1.534   0.861  1.1718 -1.0942  0.2439
   66MOL0     H 8899   5.680   1.453   0.771 -2.8430 -2.0307 -2.4634
   66MOL0     H 8900   5.554   1.412   0.593 -0.5537 -0.7580 -0.3645
   66MOL0     H 8901   5.494   1.580   0.603 -1.3069  0.9221  3.1282
   66MOL0     H 8902   5.336   1.517   0.780 -2.8126 -1.5125 -1.1795
   66MOL0     H 8903   5.405   1.351   0.788 -1.9723  0.5361  2.4055
   66MOL0     H 8904   5.179   1.384   0.653  1.3831 -3.3349  2.1858
   66MOL0     H 8905   5.294   1.473   0.546 -1.5330  3.0097  2.1457
   66MOL0     H 8906   5.431   1.084   0.450 -1.0856 -0.0428 -0.2851
   66MOL0     H 8907   5.867   1.491   0.671 -1.2912  1.1675  2.1033
   66MOL0     H 8908   6.010   1.398   0.529  0.4584  0.8001  1.6729
   66MOL0     H 8909   6.073   1.488   0.386  3.1674 -0.4507  0.2983
   66MOL0     H 8910   6.139   1.524   0.546  0.5978  1.2747 -1.1266
   67MOL0     O 8911   1.629   0.487   4.115  0.2029 -0.0915  0.3809
   67MOL0     C 8912   1.664   0.476   4.232 -0.0278 -0.7192 -0.4477
   67MOL0     O 8913   1.620   0.385   4.320  0.5487  0.2569 -0.5133
   67MOL0     C 8914   1.487   0.370   4.324  0.4421 -0.3868  0.2845
   67MOL0     C 8915   1.389   0.449   4.268  0.7461  0.5733  0.8038
   67MOL0     C 8916   1.257   0.404   4.283 -0.1246  0.6167  1.0380
   67MOL0     C 8917   1.219   0.282   4.334 -0.1055 -0.0857  0.1198
   67MOL0     O 8918   1.088   0.250   4.361  0.4384  1.1867 -0.2678
   67MOL0     C 8919   0.989   0.348   4.342  0.1665 -0.2636 -0.0402
   67MOL0     C 8920   0.844   0.288   4.376 -0.9790  0.5140 -0.8727
   67MOL0     C 8921   0.795   0.170   4.294  0.5737 -0.7138 -0.3285
   67MOL0     C 8922   0.802   0.183   4.137  0.0350  0.1358 -0.6710
   67MOL0     C 8923   0.734   0.078   4.062 -0.6051 -0.0472 -0.7201
   67MOL0     C 8924   0.766   0.093   3.917 -0.3899 -0.4068 -0.2275
   67MOL0     C 8925   0.696  -0.023   3.846  0.6638 -0.5911  0.7436
   67MOL0     C 8926   0.735  -0.053   3.701  0.8206 -0.1894  0.4662
   67MOL0     N 8927   0.665  -0.170   3.650  0.0666  0.7946 -0.1956
   67MOL0     C 8928   0.720  -0.294   3.624 -1.0681 -0.2095 -0.9041
   67MOL0     C 8929   0.615  -0.364   3.583  0.1250  2.1557  0.1380
   67MOL0     C 8930   0.638  -0.503   3.527  0.5386  1.1554 -0.5752
   67MOL0     C 8931   0.517  -0.582   3.485 -0.0020 -0.5527 -0.7331
   67MOL0     C 8932   0.527  -0.733   3.486 -0.5278 -0.1494  0.6951
   67MOL0     C 8933   0.524  -0.794   3.620  0.1267  0.3835  0.5617
   67MOL0     O 8934   0.509  -0.931   3.597 -0.2261  0.4973 -0.5931
   67MOL0     C 8935   0.574  -1.013   3.694  0.0783  0.2458 -0.6054
   67MOL0     C 8936   0.497  -1.108   3.751 -0.0354 -0.4556  0.0670
   67MOL0     C 8937   0.540  -1.203   3.848 -0.5636 -0.1791 -0.6967
   67MOL0     C 8938   0.675  -1.220   3.865  0.2583 -0.6760 -0.0212
   67MOL0     C 8939   0.739  -1.326   3.947  0.3190 -0.2314 -0.2677
   67MOL0     O 8940   0.860  -1.382   3.923 -1.3593 -0.7290  0.7218
   67MOL0     C 8941   0.908  -1.446   4.035 -0.2973  0.1273  1.2538
   67MOL0     C 8942   0.970  -1.367   4.143 -0.2214  0.4436 -0.0061
   67MOL0     C 8943   1.006  -1.426   4.267  0.2142 -0.4118 -0.3049
   67MOL0     C 8944   0.985  -1.561   4.285 -0.4189 -0.1583  0.6871
   67MOL0     O 8945   1.017  -1.625   4.400  0.1079  1.0937  0.2076
   67MOL0     C 8946   0.982  -1.565   4.525 -0.3094  0.0894  0.5968
   67MOL0     C 8947   0.978  -1.658   4.652 -0.7494 -0.6671 -0.6484
   67MOL0     C 8948   0.833  -1.720   4.656  0.0619  1.9556  0.1665
   67MOL0     C 8949   0.831  -1.840   4.750 -0.6584  0.7777 -0.3765
   67MOL0     C 8950   0.689  -1.896   4.771  0.7798 -0.0893  0.3044
   67MOL0     C 8951   0.700  -2.029   4.847 -1.0818  0.3737  0.4418
   67MOL0     C 8952   0.559  -2.060   4.900  0.2621 -0.3812  0.4749
   67MOL0     C 8953   0.549  -2.184   4.992 -0.6450  0.3939 -0.2244
   67MOL0    Cl 8954   0.592  -2.331   4.888  0.1345 -0.0130 -0.5235
   67MOL0     C 8955   0.934  -1.647   4.174  0.0316  0.1001 -0.7566
   67MOL0     C 8956   0.895  -1.588   4.055  0.7438  0.1716 -0.5688
   67MOL0     O 8957   0.665  -1.352   4.045  0.2642  0.1262  0.7908
   67MOL0     C 8958   0.759  -1.141   3.795  0.4773 -0.4240 -0.6619
   67MOL0     C 8959   0.713  -1.027   3.719  0.8577 -0.3869  0.2241
   67MOL0     N 8960   0.501  -0.285   3.570  0.3888 -0.1231  0.0088
   67MOL0     N 8961   0.531  -0.179   3.628 -1.0619  0.3919 -0.7874
   67MOL0     C 8962   1.322   0.201   4.380 -0.0232 -0.2114 -0.3647
   67MOL0     C 8963   1.452   0.246   4.383 -0.6298  0.2719  0.2865
   67MOL0     C 8964   1.775   0.578   4.276  0.6220  0.5908 -0.4196
   67MOL0     C 8965   1.830   0.562   4.407  0.2867  0.5040  0.1418
   67MOL0     C 8966   1.931   0.643   4.460  0.6787 -0.2336  0.3814
   67MOL0     C 8967   1.968   0.742   4.381 -0.9900 -0.6134 -0.0849
   67MOL0     O 8968   2.069   0.828   4.412 -0.1228  0.5884 -1.0860
   67MOL0     C 8969   2.110   0.843   4.544 -0.0481 -1.1312  0.4493
   67MOL0     C 8970   2.136   0.986   4.561 -0.2044 -0.3459 -0.3275
   67MOL0     C 8971   2.241   1.034   4.465  1.3939  0.2933  1.7393
   67MOL0     C 8972   2.292   1.174   4.502 -0.0088 -0.5167 -0.3945
   67MOL0     C 8973   2.188   1.274   4.492  0.4496  0.2677 -0.4510
   67MOL0     C 8974   2.111   1.370   4.492 -0.9140  0.0119  0.2445
   67MOL0     C 8975   1.915   0.767   4.258 -0.5092 -0.1196  0.0161
   67MOL0     C 8976   1.817   0.685   4.196 -1.0412  0.0462 -0.2403
   67MOL0     C 8977   1.785   0.714   4.047 -0.2930 -0.3548  0.0137
   67MOL0     H 8978   1.399   0.541   4.211  2.6437 -0.7517 -1.1712
   67MOL0     H 8979   1.185   0.456   4.221  0.2286  4.0864  3.2434
   67MOL0     H 8980   1.017   0.438   4.398 -4.3173  2.2375 -1.3102
   67MOL0     H 8981   0.996   0.387   4.240  1.2807  0.2638  0.2242
   67MOL0     H 8982   0.777   0.374   4.368  1.0210  2.0947 -1.6700
   67MOL0     H 8983   0.840   0.248   4.477  0.3974  1.8014 -0.2620
   67MOL0     H 8984   0.690   0.168   4.326  1.0779 -0.1422  1.4774
   67MOL0     H 8985   0.837   0.078   4.337  0.9866 -0.2069  0.3761
   67MOL0     H 8986   0.758   0.281   4.116 -2.2842 -1.1404 -2.2041
   67MOL0     H 8987   0.909   0.185   4.113 -0.2795  0.1815 -2.1530
   67MOL0     H 8988   0.757  -0.022   4.098  0.6730  1.3536  2.7734
   67MOL0     H 8989   0.625   0.074   4.075 -0.9054 -2.5180 -3.1835
   67MOL0     H 8990   0.721   0.183   3.874  0.3344  0.0906  0.0493
   67MOL0     H 8991   0.873   0.102   3.897 -0.1261  0.0026  1.2599
   67MOL0     H 8992   0.589  -0.000   3.853  1.1091  1.2876  2.3825
   67MOL0     H 8993   0.720  -0.118   3.894 -0.9360 -1.9648 -1.0590
   67MOL0     H 8994   0.707   0.034   3.641  0.5842  1.0590  2.3038
   67MOL0     H 8995   0.843  -0.068   3.703  0.9428  0.5500 -0.5400
   67MOL0     H 8996   0.825  -0.320   3.619 -0.5420  1.5008  0.1997
   67MOL0     H 8997   0.702  -0.504   3.438 -2.0230  1.2494 -2.5619
   67MOL0     H 8998   0.685  -0.539   3.619  0.9024  4.7157  0.8002
   67MOL0     H 8999   0.426  -0.560   3.541  0.7220  0.5172  0.0696
   67MOL0     H 9000   0.507  -0.559   3.378 -0.3149  2.9115 -0.0792
   67MOL0     H 9001   0.621  -0.761   3.438  0.6256  2.0734  1.5307
   67MOL0     H 9002   0.449  -0.771   3.420  2.9076 -0.5337 -3.5573
   67MOL0     H 9003   0.444  -0.745   3.677 -2.9352 -1.8364 -1.5212
   67MOL0     H 9004   0.622  -0.775   3.665 -0.8936  1.8374  2.3669
   67MOL0     H 9005   0.395  -1.098   3.714  0.8881  0.1509 -2.6061
   67MOL0     H 9006   0.477  -1.271   3.905  2.3295 -1.5965  1.0472
   67MOL0     H 9007   0.970  -1.259   4.132 -3.3328  0.4265 -1.3310
   67MOL0     H 9008   1.058  -1.377   4.349 -0.0754 -0.1255 -0.2913
   67MOL0     H 9009   1.055  -1.488   4.548 -0.1881  0.6015 -1.3735
   67MOL0     H 9010   0.882  -1.522   4.513 -1.4879 -2.2798  1.2342
   67MOL0     H 9011   1.068  -1.720   4.654  1.5692  2.4330  0.4916
   67MOL0     H 9012   0.990  -1.591   4.738 -3.1774 -1.0255  0.0394
   67MOL0     H 9013   0.764  -1.650   4.705 -2.2309  0.2322 -0.4401
   67MOL0     H 9014   0.794  -1.746   4.558 -0.9608 -1.1493  1.2912
   67MOL0     H 9015   0.880  -1.818   4.845 -1.3719 -0.3732  0.2813
   67MOL0     H 9016   0.891  -1.926   4.719  2.0752  2.2437  0.4802
   67MOL0     H 9017   0.640  -1.899   4.673  2.6965  2.1952 -0.8090
   67MOL0     H 9018   0.636  -1.828   4.839  1.9824  1.6640 -0.4535
   67MOL0     H 9019   0.733  -2.101   4.771 -2.2628 -0.0959  0.3567
   67MOL0     H 9020   0.772  -2.042   4.928  0.6527  1.9147 -0.7811
   67MOL0     H 9021   0.495  -2.078   4.813  4.7365 -3.8068 -2.5826
   67MOL0     H 9022   0.527  -1.968   4.950  3.7819  0.8365  0.7311
   67MOL0     H 9023   0.618  -2.174   5.076  1.9167 -3.7640 -1.5793
   67MOL0     H 9024   0.448  -2.201   5.032  0.3019  0.4916  2.3782
   67MOL0     H 9025   0.913  -1.752   4.186 -3.4028  0.3155 -3.3307
   67MOL0     H 9026   0.849  -1.637   3.970  0.5940 -0.8438  0.0782
   67MOL0     H 9027   0.867  -1.155   3.792  0.4412 -0.6910 -0.6893
   67MOL0     H 9028   0.784  -0.964   3.666 -1.2844 -0.4385 -2.9815
   67MOL0     H 9029   1.294   0.105   4.423  1.2211  0.3678  1.8864
   67MOL0     H 9030   1.527   0.179   4.424 -1.4955  0.3407  2.0517
   67MOL0     H 9031   1.795   0.480   4.469  0.7698  1.2004  1.3640
   67MOL0     H 9032   1.971   0.621   4.559  0.4858 -1.1720  0.2626
   67MOL0     H 9033   2.208   0.795   4.552  0.3529 -0.5739 -0.8999
   67MOL0     H 9034   2.041   0.809   4.622 -0.8365 -2.0673 -0.6235
   67MOL0     H 9035   2.170   1.007   4.663 -2.3462 -2.6478  0.9799
   67MOL0     H 9036   2.041   1.040   4.559 -1.1436 -1.9435 -0.4646
   67MOL0     H 9037   2.192   1.039   4.367 -1.1738  2.5985  3.0227
   67MOL0     H 9038   2.320   0.959   4.454  1.2234 -0.0302  2.6569
   67MOL0     H 9039   2.332   1.159   4.602  1.4324  2.0971 -0.5189
   67MOL0     H 9040   2.369   1.197   4.428  0.3094  0.6401  0.2817
   67MOL0     H 9041   2.044   1.453   4.483 -2.5236 -1.0509  1.9782
   67MOL0     H 9042   1.959   0.847   4.200 -1.9547 -0.0508 -1.0410
   67MOL0     H 9043   1.676   0.724   4.040 -0.1492  3.5916  0.7403
   67MOL0     H 9044   1.824   0.811   4.014  1.6801 -1.3424 -0.7191
   67MOL0     H 9045   1.816   0.624   3.994  0.6037 -0.0644  0.0197
   68MOL0     O 9046   7.269   8.998   2.505 -0.5426  0.2117  0.4984
   68MOL0     C 9047   7.176   8.937   2.454  0.1367 -0.4574 -0.3582
   68MOL0     O 9048   7.124   8.964   2.331  0.3458  0.7768 -0.3037
   68MOL0     C 9049   7.195   9.050   2.256  0.0074 -0.5023 -0.0373
   68MOL0     C 9050   7.140   9.176   2.221  0.6089  0.3749  0.4466
   68MOL0     C 9051   7.223   9.273   2.174  0.1468 -0.2847  0.9782
   68MOL0     C 9052   7.362   9.256   2.164 -0.3222  0.5674 -0.7337
   68MOL0     O 9053   7.431   9.352   2.096  0.8769 -0.0671  0.3191
   68MOL0     C 9054   7.576   9.371   2.115 -0.3441  0.2505  0.5023
   68MOL0     C 9055   7.621   9.454   2.242  0.5019  0.6779  0.5707
   68MOL0     C 9056   7.569   9.594   2.246 -0.7456  0.8054  0.0005
   68MOL0     C 9057   7.690   9.694   2.255 -0.0037 -0.1361 -0.0246
   68MOL0     C 9058   7.622   9.838   2.235 -1.3616  1.2145  0.6772
   68MOL0     C 9059   7.508   9.876   2.335  0.1366  0.2417 -0.6348
   68MOL0     C 9060   7.466  10.020   2.339  0.3741 -0.6662 -0.7178
   68MOL0     C 9061   7.578  10.125   2.350 -0.4031 -0.5442 -0.4035
   68MOL0     N 9062   7.514  10.250   2.374  0.3305  0.6497 -0.0843
   68MOL0     C 9063   7.472  10.314   2.489  0.8052 -0.5652  0.6644
   68MOL0     C 9064   7.418  10.422   2.445 -1.5408  0.1357  0.5191
   68MOL0     C 9065   7.366  10.530   2.528  1.0340 -0.0795  0.0790
   68MOL0     C 9066   7.470  10.641   2.555 -0.4449  0.5599  0.2834
   68MOL0     C 9067   7.413  10.750   2.652  0.1243 -0.0727  0.3282
   68MOL0     C 9068   7.491  10.875   2.674  1.5038  0.3542  0.3360
   68MOL0     O 9069   7.629  10.851   2.703 -0.3935 -0.1239  0.4051
   68MOL0     C 9070   7.707  10.950   2.655 -0.2323  0.1991 -0.0806
   68MOL0     C 9071   7.730  11.073   2.716 -0.5595 -0.3216  0.0118
   68MOL0     C 9072   7.818  11.158   2.647  0.9669 -0.2649 -0.3552
   68MOL0     C 9073   7.880  11.131   2.523  0.3717 -0.6826 -0.5966
   68MOL0     C 9074   7.988  11.211   2.476 -1.0829 -0.3611 -0.0939
   68MOL0     O 9075   7.993  11.336   2.508 -0.1009 -0.0612  0.1784
   68MOL0     C 9076   8.091  11.413   2.450 -1.0633  0.9897  0.2731
   68MOL0     C 9077   8.058  11.532   2.412 -0.5710 -0.2125  0.4963
   68MOL0     C 9078   8.154  11.621   2.364 -0.8225  0.6060  0.9806
   68MOL0     C 9079   8.289  11.587   2.352 -0.5427 -0.1563 -0.2010
   68MOL0     O 9080   8.384  11.669   2.302 -0.4218  0.0064 -0.1182
   68MOL0     C 9081   8.348  11.798   2.239  0.2499 -0.5148  0.2160
   68MOL0     C 9082   8.476  11.906   2.233 -0.4232 -0.4394 -0.3003
   68MOL0     C 9083   8.528  11.939   2.370  0.6949 -0.1175  0.1307
   68MOL0     C 9084   8.457  12.067   2.424  0.1819 -0.4565 -0.3038
   68MOL0     C 9085   8.539  12.113   2.552 -0.1941  0.4477  0.0277
   68MOL0     C 9086   8.477  12.246   2.610  0.2162  1.1249  0.0650
   68MOL0     C 9087   8.515  12.371   2.522 -1.1511 -0.0586 -0.6846
   68MOL0     C 9088   8.451  12.492   2.593  0.4922 -0.4630  0.1928
   68MOL0    Cl 9089   8.277  12.485   2.606  0.2010  0.5678 -0.0052
   68MOL0     C 9090   8.325  11.475   2.405  0.0020 -0.3103 -0.8712
   68MOL0     C 9091   8.224  11.388   2.452 -0.2466  0.4550 -0.2046
   68MOL0     O 9092   8.066  11.156   2.390  0.4529 -0.2618  0.5142
   68MOL0     C 9093   7.850  11.007   2.471 -1.4807 -0.2310  0.3804
   68MOL0     C 9094   7.765  10.919   2.542  0.2414  0.4305  0.8980
   68MOL0     N 9095   7.415  10.426   2.305  0.7873  0.2670  0.7744
   68MOL0     N 9096   7.482  10.323   2.266  0.9581  0.0553  0.3325
   68MOL0     C 9097   7.419   9.136   2.199 -0.5104  0.7073  1.0542
   68MOL0     C 9098   7.330   9.032   2.245 -0.4174  0.1664  1.0169
   68MOL0     C 9099   7.125   8.822   2.537 -1.0923 -0.2718  0.0444
   68MOL0     C 9100   7.207   8.776   2.642  0.7361  0.3388 -0.5959
   68MOL0     C 9101   7.173   8.672   2.728 -0.1696  0.1158  0.2020
   68MOL0     C 9102   7.050   8.604   2.700 -0.8899 -0.0436  0.2555
   68MOL0     O 9103   6.995   8.521   2.790 -0.9693  0.6836 -0.0537
   68MOL0     C 9104   7.071   8.415   2.852  0.7108  0.5050 -0.1315
   68MOL0     C 9105   7.005   8.389   2.987 -0.3970  0.8289  0.5970
   68MOL0     C 9106   6.850   8.353   2.997  0.1826 -0.5454  0.8361
   68MOL0     C 9107   6.815   8.229   2.930 -0.1677 -0.0503 -0.2693
   68MOL0     C 9108   6.839   8.113   3.017  0.5136 -0.1816  0.1769
   68MOL0     C 9109   6.873   8.010   3.079  0.6390 -0.3227 -0.0097
   68MOL0     C 9110   6.977   8.633   2.579  0.3288 -0.2721 -0.1720
   68MOL0     C 9111   7.014   8.737   2.502  0.5347  0.3123 -0.2466
   68MOL0     C 9112   6.932   8.768   2.381 -0.7876 -0.0577 -0.1987
   68MOL0     H 9113   7.035   9.199   2.240  0.0288 -1.4011 -0.3334
   68MOL0     H 9114   7.197   9.368   2.131  1.0390 -0.7757 -0.7405
   68MOL0     H 9115   7.627   9.274   2.113  1.4776  1.1849 -1.2522
   68MOL0     H 9116   7.616   9.423   2.028 -1.1948  2.9243  1.6125
   68MOL0     H 9117   7.731   9.456   2.236  0.4989  1.1559  0.6786
   68MOL0     H 9118   7.582   9.403   2.331 -2.2604  1.4988 -0.0731
   68MOL0     H 9119   7.510   9.612   2.337  1.3834  0.7854  1.4381
   68MOL0     H 9120   7.505   9.603   2.157  0.6594  2.0480 -0.9139
   68MOL0     H 9121   7.731   9.699   2.356 -1.5627  1.1190  0.5769
   68MOL0     H 9122   7.765   9.676   2.177 -2.1843 -4.2507 -1.4994
   68MOL0     H 9123   7.708   9.905   2.249  0.7067 -1.4322  1.2887
   68MOL0     H 9124   7.581   9.862   2.137 -1.4771 -0.2434  0.3574
   68MOL0     H 9125   7.417   9.825   2.305 -2.8321  2.2118  3.8673
   68MOL0     H 9126   7.534   9.853   2.439 -0.4476  0.1252 -0.5129
   68MOL0     H 9127   7.392  10.030   2.419 -1.3976  0.1475 -2.3553
   68MOL0     H 9128   7.413  10.049   2.247  1.6025  1.5029 -0.8192
   68MOL0     H 9129   7.639  10.093   2.435 -1.4477 -3.6212 -0.7125
   68MOL0     H 9130   7.642  10.136   2.262 -0.3933 -0.8606 -0.4352
   68MOL0     H 9131   7.501  10.265   2.582 -0.2543 -3.1939 -0.2736
   68MOL0     H 9132   7.293  10.589   2.472  3.2785  0.2179 -2.6994
   68MOL0     H 9133   7.319  10.494   2.621 -0.4481 -0.2935 -0.7222
   68MOL0     H 9134   7.557  10.599   2.606  0.2788  1.3737 -0.2657
   68MOL0     H 9135   7.511  10.696   2.470 -0.4556 -0.5262 -0.4472
   68MOL0     H 9136   7.392  10.703   2.748  0.2464  2.5673  1.7155
   68MOL0     H 9137   7.321  10.784   2.603  0.5949  2.8231  1.2971
   68MOL0     H 9138   7.445  10.944   2.746  1.1043  0.3429  0.0916
   68MOL0     H 9139   7.495  10.916   2.573  3.4799  0.0559  0.2532
   68MOL0     H 9140   7.694  11.101   2.815  1.0023  1.8022  0.0805
   68MOL0     H 9141   7.842  11.254   2.692  0.1808 -0.7588  1.1914
   68MOL0     H 9142   7.956  11.569   2.406 -0.6064 -0.3033  0.5467
   68MOL0     H 9143   8.109  11.710   2.322 -1.6911 -0.1038  0.3523
   68MOL0     H 9144   8.324  11.780   2.133 -0.0629 -2.4469  0.5856
   68MOL0     H 9145   8.261  11.841   2.289  2.0990  2.6642  0.9710
   68MOL0     H 9146   8.558  11.869   2.171  0.0201 -1.5900  0.9223
   68MOL0     H 9147   8.444  12.001   2.189  1.4030  0.1850 -0.3701
   68MOL0     H 9148   8.528  11.851   2.436  0.3883  0.8493  1.4540
   68MOL0     H 9149   8.633  11.961   2.348  1.1329 -2.0851  0.0309
   68MOL0     H 9150   8.354  12.049   2.455 -0.5308  0.1016 -2.1771
   68MOL0     H 9151   8.463  12.148   2.350  1.8938  0.7236  1.0317
   68MOL0     H 9152   8.645  12.128   2.531  0.4627 -1.2532  1.8599
   68MOL0     H 9153   8.545  12.038   2.631 -0.0790  1.2013  0.7584
   68MOL0     H 9154   8.368  12.234   2.615 -0.0659  2.7300 -1.2246
   68MOL0     H 9155   8.522  12.259   2.709  1.0188  0.9113 -0.2615
   68MOL0     H 9156   8.484  12.358   2.418  2.1307 -2.9324 -1.4888
   68MOL0     H 9157   8.623  12.381   2.531 -1.0400 -1.8863  0.4377
   68MOL0     H 9158   8.493  12.506   2.694  0.6930 -2.5662  0.4358
   68MOL0     H 9159   8.473  12.584   2.538 -0.2445  0.2111  0.9816
   68MOL0     H 9160   8.431  11.454   2.411  0.4162  1.4633 -1.3080
   68MOL0     H 9161   8.251  11.291   2.493 -0.6492 -1.1172 -3.3409
   68MOL0     H 9162   7.911  10.966   2.392  0.4678  4.7422 -1.0812
   68MOL0     H 9163   7.758  10.820   2.498  2.4992  0.4147  0.4575
   68MOL0     H 9164   7.524   9.115   2.180 -1.0417 -1.7183  0.3592
   68MOL0     H 9165   7.366   8.932   2.267  1.2890 -0.7479 -4.4240
   68MOL0     H 9166   7.301   8.824   2.664  1.3149 -1.1272  0.2548
   68MOL0     H 9167   7.245   8.640   2.802  2.3371  1.1725 -1.6035
   68MOL0     H 9168   7.177   8.436   2.873  0.8306 -1.5826  1.6318
   68MOL0     H 9169   7.055   8.324   2.793 -1.0762  0.0387  0.9993
   68MOL0     H 9170   7.029   8.484   3.037  1.3033  1.5332 -1.3842
   68MOL0     H 9171   7.064   8.305   3.025 -0.4060  0.0685 -1.0199
   68MOL0     H 9172   6.791   8.430   2.944 -1.2913 -0.7238  2.1394
   68MOL0     H 9173   6.824   8.352   3.103  1.4443  3.0297  1.3388
   68MOL0     H 9174   6.707   8.228   2.916 -0.2026 -0.7256 -0.0233
   68MOL0     H 9175   6.863   8.216   2.833 -1.9856 -1.8848 -1.0067
   68MOL0     H 9176   6.887   7.924   3.142  4.0206  0.8183  1.0582
   68MOL0     H 9177   6.893   8.566   2.565 -1.0882  0.9622  1.9351
   68MOL0     H 9178   6.854   8.692   2.371  1.0643 -1.8264 -2.0112
   68MOL0     H 9179   6.885   8.868   2.383  0.2651  0.4600  1.8880
   68MOL0     H 9180   6.981   8.759   2.284 -4.5422 -1.6411 -2.1482
   69MOL0     O 9181   5.961  10.222   2.952  0.1451 -0.3500 -0.4960
   69MOL0     C 9182   5.986  10.299   2.858  0.1943  0.3559 -0.0550
   69MOL0     O 9183   6.099  10.373   2.849  0.4556 -0.3634  0.5325
   69MOL0     C 9184   6.179  10.390   2.953 -0.1424 -0.1309  0.3337
   69MOL0     C 9185   6.131  10.437   3.067 -0.2655 -0.4785 -0.0004
   69MOL0     C 9186   6.212  10.447   3.174 -1.1909  0.7232  1.7873
   69MOL0     C 9187   6.344  10.398   3.175 -0.8220  0.2646  0.0674
   69MOL0     O 9188   6.419  10.400   3.298 -0.2053  0.6150 -0.3644
   69MOL0     C 9189   6.561  10.424   3.299  0.0856 -0.0213  0.0951
   69MOL0     C 9190   6.593  10.524   3.400 -0.4008  0.1105 -0.2323
   69MOL0     C 9191   6.600  10.485   3.542  0.3017  0.4652 -0.3091
   69MOL0     C 9192   6.463  10.524   3.613 -0.1424 -0.9172 -0.0701
   69MOL0     C 9193   6.484  10.507   3.767 -0.3484  0.3348 -0.0885
   69MOL0     C 9194   6.598  10.598   3.840  0.1875  0.1500 -0.5228
   69MOL0     C 9195   6.571  10.745   3.842 -0.6320 -0.6439  0.6779
   69MOL0     C 9196   6.705  10.834   3.829  0.2872 -0.0800  0.0218
   69MOL0     N 9197   6.767  10.805   3.697  0.3466  0.1271  0.2535
   69MOL0     C 9198   6.725  10.860   3.574  0.6380  1.0415 -0.7980
   69MOL0     C 9199   6.806  10.796   3.482 -0.2260  1.0097 -1.0497
   69MOL0     C 9200   6.822  10.809   3.339  0.6476  0.7784 -0.0991
   69MOL0     C 9201   6.947  10.903   3.313  0.2420  0.8565  0.5358
   69MOL0     C 9202   6.964  10.914   3.159 -0.0231 -0.5173  0.6851
   69MOL0     C 9203   7.115  10.903   3.123  1.2472  0.1930  0.7025
   69MOL0     O 9204   7.150  10.953   2.996 -0.1363 -0.0824  0.2810
   69MOL0     C 9205   7.115  10.888   2.873 -0.3313 -0.4734 -0.6485
   69MOL0     C 9206   7.100  10.749   2.865  0.5214 -0.7223 -0.6124
   69MOL0     C 9207   7.057  10.691   2.740 -0.0026 -0.9790  0.1464
   69MOL0     C 9208   7.038  10.769   2.623  0.2202  0.6187 -0.2509
   69MOL0     C 9209   6.987  10.709   2.496  0.1348 -0.0194 -0.7156
   69MOL0     O 9210   6.960  10.793   2.397  1.0976  0.4889  0.3127
   69MOL0     C 9211   6.859  10.757   2.305 -0.2738 -0.0050 -0.1405
   69MOL0     C 9212   6.880  10.791   2.166  0.1565  0.2162 -0.7448
   69MOL0     C 9213   6.781  10.760   2.071 -1.0731 -0.8588  0.5111
   69MOL0     C 9214   6.675  10.687   2.101  0.5579  0.0650 -0.1979
   69MOL0     O 9215   6.579  10.661   2.006 -0.1600 -0.7344  0.0346
   69MOL0     C 9216   6.624  10.657   1.869 -0.2514 -0.4353 -0.1086
   69MOL0     C 9217   6.525  10.601   1.779  0.1522 -1.7875 -0.2095
   69MOL0     C 9218   6.580  10.593   1.644  0.6808  0.7008  0.9262
   69MOL0     C 9219   6.468  10.538   1.553 -0.4342  0.3935  0.2613
   69MOL0     C 9220   6.502  10.555   1.407  0.4044 -0.2810 -0.2639
   69MOL0     C 9221   6.401  10.470   1.317 -0.6300  1.2369 -1.0348
   69MOL0     C 9222   6.260  10.533   1.308 -0.1394  0.4983 -0.0109
   69MOL0     C 9223   6.250  10.625   1.195  1.6614 -1.3704 -0.7601
   69MOL0    Cl 9224   6.085  10.689   1.200 -0.3294  0.1105  0.3748
   69MOL0     C 9225   6.655  10.640   2.225 -0.2535 -0.1846  0.3459
   69MOL0     C 9226   6.741  10.680   2.336 -0.1381 -0.7823  1.1517
   69MOL0     O 9227   6.975  10.587   2.485 -0.0771  0.0419 -0.7430
   69MOL0     C 9228   7.087  10.898   2.633 -0.3666 -0.0264 -0.6701
   69MOL0     C 9229   7.135  10.950   2.753 -0.0335  0.3157 -0.4299
   69MOL0     N 9230   6.895  10.725   3.556 -0.5769  0.3190 -0.7572
   69MOL0     N 9231   6.868  10.729   3.686  0.5341  0.5217 -0.8072
   69MOL0     C 9232   6.396  10.336   3.058  0.4701 -0.0213 -0.8208
   69MOL0     C 9233   6.308  10.333   2.949  0.1397 -1.1468 -1.5892
   69MOL0     C 9234   5.910  10.316   2.742 -0.1294 -0.2727 -0.4100
   69MOL0     C 9235   5.868  10.451   2.701 -0.0654  1.0818  0.6617
   69MOL0     C 9236   5.794  10.474   2.588 -0.4060  0.8596  1.1024
   69MOL0     C 9237   5.766  10.360   2.506  0.4424 -0.6279 -0.0699
   69MOL0     O 9238   5.705  10.371   2.385  0.0734  0.9459  0.4156
   69MOL0     C 9239   5.700  10.496   2.312  0.4140 -0.7188  0.6677
   69MOL0     C 9240   5.838  10.527   2.257  0.1740 -0.3012 -0.3834
   69MOL0     C 9241   5.873  10.410   2.159  0.5534  0.1450 -0.1625
   69MOL0     C 9242   5.919  10.478   2.032  0.0930  0.7528 -0.6186
   69MOL0     C 9243   6.064  10.517   2.031  0.5759 -0.5424  0.3895
   69MOL0     C 9244   6.179  10.548   2.022 -0.7529 -0.8413 -0.0636
   69MOL0     C 9245   5.793  10.228   2.553  0.3428 -0.8964  0.1208
   69MOL0     C 9246   5.866  10.207   2.673 -0.7345  0.1167  0.4486
   69MOL0     C 9247   5.924  10.060   2.700  0.6405 -0.4471 -0.1201
   69MOL0     H 9248   6.032  10.482   3.069  0.6034  1.5196  2.3080
   69MOL0     H 9249   6.179  10.507   3.258 -0.0668  1.3310  1.8128
   69MOL0     H 9250   6.620  10.336   3.329 -2.1706 -2.1660 -1.3848
   69MOL0     H 9251   6.588  10.461   3.200 -0.9174 -0.7384 -0.4585
   69MOL0     H 9252   6.528  10.611   3.388 -0.4100  0.4053  1.6113
   69MOL0     H 9253   6.692  10.560   3.369 -0.0572  1.0785  1.7901
   69MOL0     H 9254   6.689  10.524   3.592  0.0948  1.6192 -0.7987
   69MOL0     H 9255   6.610  10.376   3.544 -1.7825  0.2394  0.7147
   69MOL0     H 9256   6.436  10.628   3.597 -1.4571 -1.1522  0.4677
   69MOL0     H 9257   6.386  10.458   3.572 -0.4979 -1.5444  1.4920
   69MOL0     H 9258   6.391  10.536   3.817 -0.5097  3.9491 -2.1554
   69MOL0     H 9259   6.513  10.405   3.797  2.3417 -0.2056 -3.7267
   69MOL0     H 9260   6.617  10.567   3.943  0.4962  0.8179 -0.3724
   69MOL0     H 9261   6.699  10.564   3.814  0.4900  1.9203 -1.8395
   69MOL0     H 9262   6.519  10.788   3.928  2.0427  1.6203  1.3219
   69MOL0     H 9263   6.515  10.765   3.750  0.1890  3.4476  0.8855
   69MOL0     H 9264   6.691  10.942   3.837  2.6415  0.3513 -0.9003
   69MOL0     H 9265   6.771  10.795   3.907 -1.1331 -2.9035 -0.0220
   69MOL0     H 9266   6.651  10.933   3.543  3.4984  3.0550 -3.5328
   69MOL0     H 9267   6.842  10.714   3.288 -1.5123  0.4977 -0.5647
   69MOL0     H 9268   6.734  10.841   3.283  2.2316 -1.5608 -4.3802
   69MOL0     H 9269   6.920  10.994   3.367 -2.8062  0.6959 -0.5241
   69MOL0     H 9270   7.034  10.862   3.365  0.3540  2.3380  1.5640
   69MOL0     H 9271   6.918  11.008   3.127  1.9572 -0.2146 -1.5381
   69MOL0     H 9272   6.911  10.837   3.103  0.6888  0.7299 -1.8328
   69MOL0     H 9273   7.151  10.800   3.134 -0.0768 -0.7708 -2.7603
   69MOL0     H 9274   7.172  10.962   3.196  0.2000  0.1644  1.5798
   69MOL0     H 9275   7.096  10.697   2.960 -0.5092  1.6234  0.7183
   69MOL0     H 9276   7.042  10.583   2.739  3.3475 -1.5423 -0.7284
   69MOL0     H 9277   6.975  10.831   2.133  1.6283 -1.7562  0.8362
   69MOL0     H 9278   6.810  10.776   1.967 -0.1177 -1.4653  0.6687
   69MOL0     H 9279   6.648  10.760   1.842  1.7712 -0.1273  2.3952
   69MOL0     H 9280   6.713  10.598   1.846  0.2169 -1.1920  3.1196
   69MOL0     H 9281   6.484  10.510   1.824 -0.5292  0.3105  3.7866
   69MOL0     H 9282   6.433  10.659   1.778 -1.6419 -4.4050  0.9489
   69MOL0     H 9283   6.592  10.695   1.606 -2.5037  0.7161 -0.3022
   69MOL0     H 9284   6.664  10.522   1.640 -0.5166 -0.8050 -3.3209
   69MOL0     H 9285   6.374  10.585   1.584 -1.4539 -0.9921 -0.5942
   69MOL0     H 9286   6.472  10.430   1.573 -1.9733 -0.6822 -4.0247
   69MOL0     H 9287   6.605  10.538   1.375  0.5554 -0.4893  0.3122
   69MOL0     H 9288   6.486  10.660   1.382  0.9794  0.0696  0.7840
   69MOL0     H 9289   6.447  10.448   1.220  2.0649  0.1146  0.3614
   69MOL0     H 9290   6.390  10.372   1.366  0.7948  1.9443  0.8385
   69MOL0     H 9291   6.230  10.585   1.400  0.1719 -2.1989  1.7489
   69MOL0     H 9292   6.191  10.448   1.299  0.9251 -0.4879  0.8695
   69MOL0     H 9293   6.320  10.709   1.200  0.8954 -0.6812 -1.4020
   69MOL0     H 9294   6.262  10.566   1.104  1.0759 -2.5774 -0.0743
   69MOL0     H 9295   6.564  10.586   2.248 -0.1652  0.1509  1.5523
   69MOL0     H 9296   6.714  10.653   2.438 -0.9886 -0.6666  0.9616
   69MOL0     H 9297   7.074  10.968   2.551  1.3643  0.9376 -0.1700
   69MOL0     H 9298   7.156  11.056   2.765 -2.3231  1.0579 -2.1911
   69MOL0     H 9299   6.495  10.293   3.068  1.0396  1.4708  0.3596
   69MOL0     H 9300   6.329  10.283   2.855  0.3946 -1.0978 -1.5594
   69MOL0     H 9301   5.899  10.534   2.765  7.7998  0.5836 -1.4438
   69MOL0     H 9302   5.752  10.573   2.573 -0.0943  0.8667  0.2070
   69MOL0     H 9303   5.676  10.577   2.381  2.2549 -0.0301  0.5465
   69MOL0     H 9304   5.631  10.492   2.226  1.0157 -2.3524  0.2212
   69MOL0     H 9305   5.901  10.542   2.345 -0.4655  4.1762 -0.4636
   69MOL0     H 9306   5.826  10.624   2.208 -1.6153  0.5085  1.4866
   69MOL0     H 9307   5.780  10.360   2.130  1.8528 -1.2531 -2.0639
   69MOL0     H 9308   5.943  10.336   2.198  0.0198  0.1678  0.8758
   69MOL0     H 9309   5.908  10.403   1.953  1.2917  0.0170 -0.1098
   69MOL0     H 9310   5.856  10.562   2.003 -4.3425 -1.8190  0.5811
   69MOL0     H 9311   6.275  10.595   2.015 -0.8598 -0.5538  0.3371
   69MOL0     H 9312   5.755  10.147   2.492 -1.2851  2.2783 -3.5150
   69MOL0     H 9313   6.025  10.075   2.739  0.6706 -0.1236 -0.3174
   69MOL0     H 9314   5.876  10.019   2.788  0.2282 -0.9548 -0.5758
   69MOL0     H 9315   5.927  10.003   2.607  0.8877  1.2578 -1.2191
   70MOL0     O 9316  10.541   3.331   2.771  0.2265 -0.3635  0.0552
   70MOL0     C 9317  10.478   3.313   2.871  0.5969 -0.0876 -0.4389
   70MOL0     O 9318  10.408   3.413   2.940  1.0675 -0.3605 -0.2876
   70MOL0     C 9319  10.346   3.511   2.880  0.6930  0.4746  0.5287
   70MOL0     C 9320  10.312   3.525   2.749 -1.0884  0.0789 -0.2963
   70MOL0     C 9321  10.243   3.632   2.703 -1.0387  0.6730 -1.3056
   70MOL0     C 9322  10.197   3.733   2.785  1.2583  0.6784 -0.4976
   70MOL0     O 9323  10.121   3.835   2.718 -0.8695 -0.1222 -0.4738
   70MOL0     C 9324  10.139   3.969   2.765  0.3425  0.4966  0.8481
   70MOL0     C 9325  10.202   4.048   2.656  0.0976  0.5076  0.6448
   70MOL0     C 9326  10.278   4.172   2.693  0.2584 -0.0749  0.1409
   70MOL0     C 9327  10.211   4.278   2.796 -0.0390  0.8721  1.0145
   70MOL0     C 9328  10.061   4.312   2.754 -0.4646  0.1055 -0.3538
   70MOL0     C 9329  10.012   4.436   2.826 -0.8988  0.1460  0.0738
   70MOL0     C 9330   9.896   4.502   2.757  0.1255 -0.2811 -0.2865
   70MOL0     C 9331   9.844   4.619   2.829 -0.8397  0.1924  0.7485
   70MOL0     N 9332   9.885   4.741   2.763  0.1074 -0.2400  0.4807
   70MOL0     C 9333   9.909   4.852   2.832 -0.0304  0.6366  0.1504
   70MOL0     C 9334   9.919   4.946   2.735  0.4194  0.4330 -0.4980
   70MOL0     C 9335   9.906   5.096   2.757 -0.2234 -0.6017  0.0097
   70MOL0     C 9336   9.976   5.174   2.640  0.7537  0.2699  0.1723
   70MOL0     C 9337   9.950   5.319   2.658  1.5496 -1.1328  0.0812
   70MOL0     C 9338  10.017   5.415   2.564 -0.0872  0.6770  0.5886
   70MOL0     O 9339   9.987   5.541   2.606  0.3445 -0.0113  0.3237
   70MOL0     C 9340  10.075   5.645   2.575 -0.1552 -0.2097 -0.7876
   70MOL0     C 9341  10.178   5.667   2.662  0.6618 -0.0236 -0.0583
   70MOL0     C 9342  10.274   5.760   2.627 -0.5346 -0.5204 -0.5437
   70MOL0     C 9343  10.265   5.825   2.502  1.4306  0.6932  0.4575
   70MOL0     C 9344  10.361   5.920   2.468  0.4751  0.1246  0.2543
   70MOL0     O 9345  10.357   5.964   2.335  0.6162  0.0654 -0.0143
   70MOL0     C 9346  10.425   6.079   2.297 -0.5188 -0.0553 -0.6431
   70MOL0     C 9347  10.402   6.201   2.364 -0.1107 -0.0577 -0.1119
   70MOL0     C 9348  10.495   6.305   2.341  0.6526 -1.0484  0.8035
   70MOL0     C 9349  10.593   6.293   2.233 -0.1713  0.0120 -0.2732
   70MOL0     O 9350  10.686   6.394   2.210 -0.4217 -0.9036 -0.3159
   70MOL0     C 9351  10.714   6.501   2.299 -0.7040 -0.0525 -0.8383
   70MOL0     C 9352  10.825   6.584   2.246 -0.7258  0.7313 -0.0008
   70MOL0     C 9353  10.789   6.691   2.143  0.1535  0.6543 -0.6750
   70MOL0     C 9354  10.913   6.767   2.085  0.4997  1.8863 -1.3815
   70MOL0     C 9355  10.901   6.890   2.000 -0.6984  0.0161 -0.5773
   70MOL0     C 9356  10.846   7.015   2.065  0.9559 -0.2180  0.0543
   70MOL0     C 9357  10.844   7.127   1.957  0.5906  0.3505 -0.5433
   70MOL0     C 9358  10.794   7.254   2.008  0.4592  0.3474 -0.3101
   70MOL0    Cl 9359  10.925   7.378   2.030 -0.5074  0.3570 -0.2534
   70MOL0     C 9360  10.609   6.167   2.164 -0.5840  0.0619 -1.2075
   70MOL0     C 9361  10.522   6.066   2.195  0.1615 -0.7112  0.3429
   70MOL0     O 9362  10.434   5.965   2.554 -0.0714  0.4842  0.6279
   70MOL0     C 9363  10.158   5.798   2.407  0.6767  0.0570 -0.4532
   70MOL0     C 9364  10.065   5.707   2.450  0.4287  0.0722 -0.7704
   70MOL0     N 9365   9.889   4.885   2.616 -0.7693 -0.6042 -0.4348
   70MOL0     N 9366   9.861   4.763   2.627 -1.2148 -0.5202 -0.2441
   70MOL0     C 9367  10.225   3.726   2.927 -0.0144 -0.4235 -0.3163
   70MOL0     C 9368  10.300   3.613   2.976 -0.3285  0.2134 -0.9957
   70MOL0     C 9369  10.489   3.192   2.963 -0.4961 -0.0463 -1.0196
   70MOL0     C 9370  10.485   3.209   3.105 -0.5960 -0.0670 -0.9233
   70MOL0     C 9371  10.517   3.104   3.186 -0.7179 -0.3569  0.0207
   70MOL0     C 9372  10.518   2.969   3.135 -0.0236 -0.1581 -0.1519
   70MOL0     O 9373  10.533   2.855   3.214  0.2530 -0.4969  0.0724
   70MOL0     C 9374  10.545   2.874   3.355 -0.2068  0.2911  0.8766
   70MOL0     C 9375  10.690   2.923   3.393 -0.4199 -0.1964 -0.2287
   70MOL0     C 9376  10.709   2.912   3.550 -0.0209  0.1731  0.2277
   70MOL0     C 9377  10.593   2.953   3.631  0.6495 -0.9194  0.0428
   70MOL0     C 9378  10.545   3.079   3.598 -0.1466 -0.0863 -0.3099
   70MOL0     C 9379  10.502   3.185   3.571 -0.5667 -0.4010  0.1022
   70MOL0     C 9380  10.517   2.956   3.000  0.2087 -0.1855  0.2833
   70MOL0     C 9381  10.514   3.062   2.909 -0.8849 -0.3120 -0.3716
   70MOL0     C 9382  10.483   3.018   2.768  0.5738  0.2855  0.1056
   70MOL0     H 9383  10.334   3.445   2.679  1.5482 -0.3573  0.9382
   70MOL0     H 9384  10.220   3.632   2.597  1.0146 -1.0871 -1.8206
   70MOL0     H 9385  10.037   4.010   2.763 -0.6070 -1.7520 -1.1511
   70MOL0     H 9386  10.186   3.982   2.863  3.6128 -1.7530 -0.2606
   70MOL0     H 9387  10.140   4.081   2.572  0.9430 -1.4856 -0.8227
   70MOL0     H 9388  10.273   3.972   2.624 -2.3932 -0.8544 -2.0425
   70MOL0     H 9389  10.311   4.219   2.600  0.1160  0.9505  0.5976
   70MOL0     H 9390  10.372   4.144   2.741  1.4553  3.1295 -0.0745
   70MOL0     H 9391  10.213   4.239   2.898  2.8807  2.6523  1.7575
   70MOL0     H 9392  10.283   4.358   2.812  2.2758 -0.8094 -0.3645
   70MOL0     H 9393  10.062   4.336   2.647 -1.1867  0.2920 -0.3236
   70MOL0     H 9394   9.985   4.234   2.763 -1.8254  1.5933  2.1974
   70MOL0     H 9395   9.992   4.399   2.927  0.4635  1.6457  0.9435
   70MOL0     H 9396  10.095   4.507   2.830  0.1104 -0.8654 -1.5503
   70MOL0     H 9397   9.809   4.436   2.767  0.5701 -0.9063 -0.4745
   70MOL0     H 9398   9.905   4.528   2.651 -2.7028  2.2456 -0.0311
   70MOL0     H 9399   9.739   4.608   2.857 -1.0385 -3.5190 -0.8869
   70MOL0     H 9400   9.890   4.608   2.928 -2.9161  1.7321  1.9597
   70MOL0     H 9401   9.912   4.885   2.936 -0.7549  5.6420 -1.1494
   70MOL0     H 9402   9.805   5.136   2.763  0.1022  0.6138 -1.8679
   70MOL0     H 9403   9.949   5.123   2.854 -2.3129  0.5266  0.6669
   70MOL0     H 9404  10.084   5.155   2.642  0.7557  0.2033 -0.4274
   70MOL0     H 9405   9.934   5.135   2.547 -0.1565  3.4858 -0.8780
   70MOL0     H 9406   9.976   5.339   2.762 -0.0566 -0.8362  0.4523
   70MOL0     H 9407   9.841   5.324   2.643  1.8241 -0.8778 -2.2493
   70MOL0     H 9408   9.974   5.383   2.469 -1.0604 -0.3159  1.3473
   70MOL0     H 9409  10.126   5.407   2.576  0.7907  4.3007 -2.6220
   70MOL0     H 9410  10.185   5.614   2.756 -0.6553  5.5868  3.6785
   70MOL0     H 9411  10.352   5.776   2.702 -1.6189 -1.2553  0.7802
   70MOL0     H 9412  10.322   6.199   2.437  0.3227  0.7564  0.3929
   70MOL0     H 9413  10.473   6.402   2.384  0.5942  0.3514 -2.1324
   70MOL0     H 9414  10.627   6.565   2.316 -0.4016  0.4172 -1.0667
   70MOL0     H 9415  10.751   6.445   2.385  1.1977 -2.4550 -3.0275
   70MOL0     H 9416  10.881   6.629   2.329  0.7841  0.5259 -0.8629
   70MOL0     H 9417  10.901   6.519   2.201  2.2781  3.9735 -0.0235
   70MOL0     H 9418  10.744   6.656   2.049  3.6507  1.6032 -2.9071
   70MOL0     H 9419  10.734   6.757   2.211  0.4057 -1.8369  2.1254
   70MOL0     H 9420  10.969   6.690   2.032  3.0364  0.4558  2.8570
   70MOL0     H 9421  10.973   6.793   2.173  0.3991  1.4072 -1.1661
   70MOL0     H 9422  10.828   6.862   1.923 -0.5473  2.7410 -1.8488
   70MOL0     H 9423  10.997   6.916   1.955 -1.3378  0.9623 -1.4684
   70MOL0     H 9424  10.744   6.987   2.095  2.2663 -1.7904  3.5784
   70MOL0     H 9425  10.903   7.044   2.153  1.6492 -2.1552  0.3021
   70MOL0     H 9426  10.774   7.091   1.881  1.1355 -1.6183 -0.1657
   70MOL0     H 9427  10.944   7.139   1.913  1.4789 -0.1332  1.2747
   70MOL0     H 9428  10.715   7.288   1.940  1.8030 -0.5628 -2.4087
   70MOL0     H 9429  10.744   7.238   2.104 -2.4202  2.9356 -1.2240
   70MOL0     H 9430  10.665   6.155   2.073 -1.4729 -0.1613 -1.7415
   70MOL0     H 9431  10.530   5.977   2.134  1.5994  1.0440 -2.2677
   70MOL0     H 9432  10.150   5.845   2.309  0.6024  1.2797  0.1245
   70MOL0     H 9433   9.982   5.687   2.382 -0.3192 -2.8832  0.8426
   70MOL0     H 9434  10.179   3.795   2.996 -1.0719 -3.1791  1.9711
   70MOL0     H 9435  10.313   3.601   3.084  0.2188  0.9056 -0.9803
   70MOL0     H 9436  10.464   3.305   3.149  0.6386 -0.4559  0.6245
   70MOL0     H 9437  10.529   3.120   3.293 -2.0941 -2.1121  0.4856
   70MOL0     H 9438  10.515   2.778   3.398  1.0097  0.1901  1.5360
   70MOL0     H 9439  10.469   2.946   3.386 -0.5893  1.3540 -2.1558
   70MOL0     H 9440  10.709   3.021   3.348 -1.1294  0.3684  0.6701
   70MOL0     H 9441  10.767   2.862   3.344  0.4467  2.4452 -2.3879
   70MOL0     H 9442  10.796   2.971   3.580  0.1038 -0.2330  0.6807
   70MOL0     H 9443  10.715   2.804   3.564 -1.8171 -0.1013 -0.8332
   70MOL0     H 9444  10.509   2.883   3.628  0.2630 -0.4219 -1.3236
   70MOL0     H 9445  10.622   2.958   3.736 -4.7289 -0.0722  1.8062
   70MOL0     H 9446  10.465   3.280   3.538  0.9480  0.0723 -0.3021
   70MOL0     H 9447  10.507   2.854   2.965  1.5114 -1.0366  2.2291
   70MOL0     H 9448  10.374   3.010   2.773  0.6447 -0.3903  0.6740
   70MOL0     H 9449  10.497   3.085   2.682  5.1245 -5.1382 -4.1088
   70MOL0     H 9450  10.523   2.927   2.723 -0.3996 -1.0223  1.7959
   71MOL0     O 9451   6.940   1.294  11.068  0.2263 -0.0650 -0.3338
   71MOL0     C 9452   7.051   1.296  11.128 -0.2791  1.5329  0.1827
   71MOL0     O 9453   7.173   1.244  11.079 -0.5293 -0.8468 -0.3565
   71MOL0     C 9454   7.182   1.172  10.967  0.0137 -0.4261 -0.1080
   71MOL0     C 9455   7.075   1.095  10.917  0.4322 -0.2395 -0.4745
   71MOL0     C 9456   7.096   1.012  10.802  0.2815  0.1417  0.4025
   71MOL0     C 9457   7.210   1.031  10.728  0.3069 -0.0252  0.3404
   71MOL0     O 9458   7.231   0.949  10.620  0.2756 -0.5073  0.0022
   71MOL0     C 9459   7.248   1.002  10.491  0.1331  0.2984  0.3539
   71MOL0     C 9460   7.139   1.094  10.441 -0.3585  0.2580 -0.2906
   71MOL0     C 9461   7.053   1.024  10.344 -0.7833 -0.7658 -0.1453
   71MOL0     C 9462   6.930   1.118  10.308  0.4864  0.1009  0.7649
   71MOL0     C 9463   6.837   1.040  10.206 -0.0636 -0.5362 -1.6252
   71MOL0     C 9464   6.729   1.123  10.142  0.5919 -1.0203  0.2203
   71MOL0     C 9465   6.631   1.030  10.071 -1.0873 -0.3141  1.0869
   71MOL0     C 9466   6.687   0.967   9.939  0.5616 -1.3887  0.2665
   71MOL0     N 9467   6.592   0.932   9.837  0.3340  0.0380 -0.9261
   71MOL0     C 9468   6.513   0.821   9.838  0.2335  0.3048  0.0368
   71MOL0     C 9469   6.408   0.845   9.756  0.2497  0.7686  0.6652
   71MOL0     C 9470   6.312   0.733   9.719  0.2999 -0.1722 -0.6925
   71MOL0     C 9471   6.201   0.789   9.615 -0.1680 -0.1549 -0.3474
   71MOL0     C 9472   6.071   0.722   9.616  0.0277  0.0180 -0.1351
   71MOL0     C 9473   6.086   0.570   9.587 -0.8320 -0.6694  0.0302
   71MOL0     O 9474   6.135   0.492   9.699  0.3915 -0.0263  0.4810
   71MOL0     C 9475   6.184   0.367   9.674 -0.8161 -0.3209 -0.2325
   71MOL0     C 9476   6.191   0.308   9.548 -0.8697  1.3621  0.7325
   71MOL0     C 9477   6.236   0.178   9.540 -0.3945 -0.7587 -0.2994
   71MOL0     C 9478   6.293   0.108   9.648 -0.4980  0.1336 -0.2143
   71MOL0     C 9479   6.344  -0.034   9.642  0.2354 -0.2273  0.3249
   71MOL0     O 9480   6.388  -0.079   9.761  0.0333  0.3149 -0.3744
   71MOL0     C 9481   6.447  -0.209   9.774  1.4509 -0.1466  0.4093
   71MOL0     C 9482   6.564  -0.237   9.853 -0.7060  0.4220  0.1473
   71MOL0     C 9483   6.602  -0.372   9.876 -0.5107 -0.1667  0.0380
   71MOL0     C 9484   6.540  -0.478   9.812 -0.6192  1.7735  0.2482
   71MOL0     O 9485   6.571  -0.611   9.807 -0.2429 -0.0505 -0.3284
   71MOL0     C 9486   6.693  -0.656   9.856 -0.6906 -0.7010  0.6033
   71MOL0     C 9487   6.710  -0.814   9.855 -0.0676  0.2157 -1.2876
   71MOL0     C 9488   6.622  -0.876   9.964  0.2879  0.7088  0.4348
   71MOL0     C 9489   6.632  -1.028   9.981 -0.8254 -0.7621  0.8965
   71MOL0     C 9490   6.531  -1.094  10.079 -0.5720  0.3610 -0.2675
   71MOL0     C 9491   6.580  -1.073  10.224  0.2322 -0.3504  0.6239
   71MOL0     C 9492   6.487  -1.135  10.320  0.1960 -0.5028  0.7121
   71MOL0     C 9493   6.535  -1.278  10.360  0.7741  0.1454 -0.4188
   71MOL0    Cl 9494   6.471  -1.322  10.521 -0.6091 -0.4428  0.0285
   71MOL0     C 9495   6.430  -0.457   9.731  0.3994 -0.0998  0.9348
   71MOL0     C 9496   6.382  -0.322   9.715 -0.7173  0.4733  0.5053
   71MOL0     O 9497   6.343  -0.094   9.529 -0.4999  0.7303  0.1237
   71MOL0     C 9498   6.305   0.178   9.769 -0.6945 -0.2235  0.7715
   71MOL0     C 9499   6.240   0.297   9.781 -0.1903  0.0523  0.1391
   71MOL0     N 9500   6.420   0.968   9.707 -0.3141 -1.1558  0.6413
   71MOL0     N 9501   6.529   1.027   9.755 -0.5033  0.3935 -0.6164
   71MOL0     C 9502   7.304   1.126  10.770  0.0640 -0.6172 -0.2433
   71MOL0     C 9503   7.286   1.192  10.892 -0.6411 -0.2793  0.1250
   71MOL0     C 9504   7.040   1.344  11.269  1.7888 -0.4165  0.7677
   71MOL0     C 9505   6.994   1.248  11.368  0.2433  1.0674 -0.2123
   71MOL0     C 9506   6.994   1.282  11.505 -0.2330 -0.6185 -0.3882
   71MOL0     C 9507   7.000   1.423  11.539 -0.1378 -0.6782  0.4980
   71MOL0     O 9508   6.976   1.458  11.672  0.1623 -0.2173  0.0315
   71MOL0     C 9509   6.950   1.589  11.713 -0.4263 -0.2140  0.7781
   71MOL0     C 9510   6.897   1.607  11.848 -0.0144 -0.5453  1.1775
   71MOL0     C 9511   6.991   1.565  11.955 -0.0876 -0.4890 -1.0032
   71MOL0     C 9512   7.005   1.655  12.073  0.2313 -0.1234 -0.3703
   71MOL0     C 9513   7.057   1.785  12.029  0.0053 -0.4144 -0.3016
   71MOL0     C 9514   7.107   1.898  12.003 -0.4992  0.4823 -0.6132
   71MOL0     C 9515   7.031   1.519  11.444  0.0781 -0.1991  0.1819
   71MOL0     C 9516   7.067   1.476  11.310  0.1628  0.6702 -0.7563
   71MOL0     C 9517   7.122   1.579  11.213  0.5710 -0.1983  0.2308
   71MOL0     H 9518   6.981   1.086  10.970  0.6623  2.1937  0.5100
   71MOL0     H 9519   7.024   0.938  10.770 -0.1477  1.0484 -0.8311
   71MOL0     H 9520   7.349   1.046  10.486  0.6909 -1.0642 -2.1503
   71MOL0     H 9521   7.237   0.916  10.424  0.4445  1.2381 -0.9526
   71MOL0     H 9522   7.185   1.174  10.383 -0.0488  0.3533  0.0811
   71MOL0     H 9523   7.083   1.135  10.526  0.5690  1.2217 -0.1259
   71MOL0     H 9524   7.009   0.933  10.384 -2.9262  0.5824  0.7351
   71MOL0     H 9525   7.114   1.019  10.253 -1.5551 -2.1236 -0.6044
   71MOL0     H 9526   6.875   1.122  10.403 -3.0593 -1.9649 -1.0038
   71MOL0     H 9527   6.969   1.213  10.271 -0.8659  0.1423 -0.6672
   71MOL0     H 9528   6.903   0.988  10.135  1.9527 -1.1530  0.5514
   71MOL0     H 9529   6.797   0.956  10.264 -0.2777 -0.0039 -0.9945
   71MOL0     H 9530   6.665   1.172  10.215 -2.1089 -0.0136 -2.6197
   71MOL0     H 9531   6.754   1.200  10.068 -2.3528  0.7578  0.9139
   71MOL0     H 9532   6.540   1.081  10.038 -2.0053 -1.5263  1.6685
   71MOL0     H 9533   6.594   0.952  10.138  3.2665 -3.4424  0.3164
   71MOL0     H 9534   6.753   1.037   9.885 -3.6579  3.2967  0.4859
   71MOL0     H 9535   6.743   0.877   9.967 -2.2565 -2.9597  1.1724
   71MOL0     H 9536   6.539   0.725   9.883  1.1941 -1.0092 -2.9994
   71MOL0     H 9537   6.368   0.647   9.682  0.7262  0.2614 -1.0789
   71MOL0     H 9538   6.265   0.701   9.812  0.5575 -0.4647 -0.6613
   71MOL0     H 9539   6.176   0.894   9.635 -1.2727 -0.7151  1.3688
   71MOL0     H 9540   6.254   0.770   9.521 -0.5148  0.8444 -0.7646
   71MOL0     H 9541   6.013   0.759   9.532  2.6040  0.0635 -2.0045
   71MOL0     H 9542   6.027   0.739   9.715  1.0706 -0.3127  0.4102
   71MOL0     H 9543   6.148   0.558   9.497  0.4132 -0.4038  0.8257
   71MOL0     H 9544   5.986   0.531   9.569 -0.7864 -0.6244 -0.3464
   71MOL0     H 9545   6.147   0.356   9.460 -0.0937  3.1992  1.3042
   71MOL0     H 9546   6.222   0.133   9.442 -0.9406  0.5417 -0.8444
   71MOL0     H 9547   6.618  -0.149   9.889  4.0142 -2.1026  0.0548
   71MOL0     H 9548   6.680  -0.397   9.946  1.3074 -4.4458 -3.0767
   71MOL0     H 9549   6.781  -0.612   9.808  0.1502  1.7884  3.9829
   71MOL0     H 9550   6.696  -0.633   9.963 -1.1979  1.7838  0.1516
   71MOL0     H 9551   6.690  -0.855   9.755 -2.6906  3.7317 -2.4223
   71MOL0     H 9552   6.811  -0.851   9.875 -1.1160 -1.3519  1.8653
   71MOL0     H 9553   6.641  -0.822  10.056  3.0400  1.1394 -0.2982
   71MOL0     H 9554   6.519  -0.865   9.930 -0.1730 -1.4222  1.0016
   71MOL0     H 9555   6.730  -1.058  10.018  0.1329  2.0719  0.8428
   71MOL0     H 9556   6.626  -1.075   9.883  1.2141 -1.0423  0.8614
   71MOL0     H 9557   6.530  -1.201  10.055  1.2804  0.1402  0.4799
   71MOL0     H 9558   6.432  -1.050  10.063 -0.6103  0.7525  0.9427
   71MOL0     H 9559   6.676  -1.124  10.233  0.5444  0.0992 -0.0622
   71MOL0     H 9560   6.577  -0.964  10.235 -3.3274  0.2986 -3.6079
   71MOL0     H 9561   6.381  -1.129  10.298  0.4547 -1.6600 -1.0068
   71MOL0     H 9562   6.501  -1.078  10.412 -1.3359  1.8050 -0.3982
   71MOL0     H 9563   6.491  -1.348  10.289  1.0173 -0.4587  0.0187
   71MOL0     H 9564   6.644  -1.281  10.357  1.0512  4.2149 -0.1406
   71MOL0     H 9565   6.362  -0.528   9.684  0.3265  1.6622 -1.8693
   71MOL0     H 9566   6.287  -0.327   9.663 -0.2174  0.9441 -0.4945
   71MOL0     H 9567   6.363   0.124   9.844  0.3648 -1.7934 -1.0675
   71MOL0     H 9568   6.245   0.336   9.883  2.7065 -0.0694  0.1461
   71MOL0     H 9569   7.398   1.145  10.719 -0.0905  2.5936  0.4493
   71MOL0     H 9570   7.353   1.268  10.929 -2.5564  1.1290  0.8383
   71MOL0     H 9571   6.955   1.148  11.356  1.6047  0.4699  0.1035
   71MOL0     H 9572   6.956   1.217  11.583 -0.7258  1.4595  1.2242
   71MOL0     H 9573   6.877   1.632  11.643 -0.0104 -0.0967  0.4101
   71MOL0     H 9574   7.046   1.643  11.712 -0.7373  0.3540  0.8590
   71MOL0     H 9575   6.802   1.552  11.846 -0.6510  0.5597 -0.0178
   71MOL0     H 9576   6.869   1.711  11.862  2.4786  0.3440  0.1760
   71MOL0     H 9577   7.091   1.558  11.912 -0.4977  0.1852 -2.1415
   71MOL0     H 9578   6.953   1.470  11.992 -0.0925  1.0551  3.5217
   71MOL0     H 9579   6.913   1.665  12.131  1.1939  2.1297  0.9069
   71MOL0     H 9580   7.073   1.603  12.140  0.6423 -0.2636 -0.8875
   71MOL0     H 9581   7.157   1.989  11.975 -0.4456  1.1619  1.5076
   71MOL0     H 9582   7.045   1.625  11.462  0.5224 -0.0210 -1.1200
   71MOL0     H 9583   7.127   1.538  11.112 -0.0839  1.6238 -0.5928
   71MOL0     H 9584   7.068   1.674  11.208 -0.1989 -0.6981 -2.4917
   71MOL0     H 9585   7.219   1.614  11.251  0.7644  2.5681 -2.4454
   72MOL0     O 9586   4.791   3.676   7.539 -0.3605  0.2593  0.3788
   72MOL0     C 9587   4.818   3.749   7.633  1.3062  0.6330 -0.1615
   72MOL0     O 9588   4.758   3.732   7.756 -0.0066 -0.1997  0.9154
   72MOL0     C 9589   4.640   3.661   7.751  0.0692  0.0308 -0.2574
   72MOL0     C 9590   4.637   3.526   7.738 -0.7343  0.0149 -0.2006
   72MOL0     C 9591   4.527   3.447   7.750  0.4151 -0.4057 -0.1699
   72MOL0     C 9592   4.410   3.504   7.782  0.0983 -0.3160  0.0031
   72MOL0     O 9593   4.315   3.410   7.803 -1.1653 -0.2793 -0.0484
   72MOL0     C 9594   4.197   3.448   7.868  0.2127  0.2295 -0.6985
   72MOL0     C 9595   4.117   3.324   7.911  0.5570 -0.0447 -0.0948
   72MOL0     C 9596   4.074   3.261   7.773 -0.0229 -0.9388 -0.4554
   72MOL0     C 9597   3.966   3.155   7.787 -0.9063  0.9428 -0.2656
   72MOL0     C 9598   3.823   3.207   7.833 -0.1571 -1.0122 -0.0501
   72MOL0     C 9599   3.714   3.102   7.826 -1.8189 -0.0815  0.1317
   72MOL0     C 9600   3.585   3.160   7.885  0.9818  0.6606  0.3505
   72MOL0     C 9601   3.465   3.074   7.858  0.4236  0.8695 -0.1992
   72MOL0     N 9602   3.465   2.951   7.944 -1.3142  0.2153 -0.4468
   72MOL0     C 9603   3.478   2.951   8.078  0.0001 -1.2061 -0.4018
   72MOL0     C 9604   3.523   2.826   8.104  0.0161  0.4830 -0.7502
   72MOL0     C 9605   3.559   2.780   8.244  0.4507 -0.0671  0.5974
   72MOL0     C 9606   3.629   2.646   8.228 -0.4145 -0.9095 -0.3778
   72MOL0     C 9607   3.679   2.619   8.371  0.5548 -0.6349  0.1769
   72MOL0     C 9608   3.759   2.493   8.368 -0.5509 -1.5895  0.3182
   72MOL0     O 9609   3.799   2.458   8.499  0.8064  0.3827 -0.1226
   72MOL0     C 9610   3.880   2.347   8.523  1.0427  0.0519  0.8305
   72MOL0     C 9611   3.930   2.336   8.649 -0.4188 -1.0912 -0.1053
   72MOL0     C 9612   4.007   2.225   8.681 -0.4092 -0.5506  0.8293
   72MOL0     C 9613   4.038   2.127   8.590  0.5196  0.4753  0.2313
   72MOL0     C 9614   4.131   2.021   8.620 -0.2083 -0.1100  0.8288
   72MOL0     O 9615   4.142   1.918   8.533 -0.2845 -0.2494  0.0755
   72MOL0     C 9616   4.205   1.806   8.559 -0.4815 -0.3880 -0.2047
   72MOL0     C 9617   4.158   1.682   8.521  0.9752  0.6785  0.6188
   72MOL0     C 9618   4.231   1.559   8.539 -0.2468 -0.4614 -0.9559
   72MOL0     C 9619   4.362   1.557   8.578  0.4601  0.3612 -0.2662
   72MOL0     O 9620   4.434   1.445   8.584  0.3549  0.4872  1.0643
   72MOL0     C 9621   4.440   1.361   8.469  0.0343  0.7378  0.8959
   72MOL0     C 9622   4.393   1.236   8.522 -0.4348  0.7857 -0.6579
   72MOL0     C 9623   4.446   1.119   8.434 -1.3561 -0.5055 -0.0180
   72MOL0     C 9624   4.348   1.010   8.405  0.6639 -0.8273  0.1742
   72MOL0     C 9625   4.410   0.908   8.303 -0.1202  0.3817  0.0057
   72MOL0     C 9626   4.344   0.774   8.292 -0.3231  0.0382  0.2501
   72MOL0     C 9627   4.400   0.688   8.176 -0.1062  0.4743  0.2212
   72MOL0     C 9628   4.298   0.645   8.076 -0.2883 -0.2146  0.7298
   72MOL0    Cl 9629   4.184   0.529   8.137 -0.2432  0.0822  0.0480
   72MOL0     C 9630   4.422   1.676   8.611 -0.3445  0.3337 -0.7525
   72MOL0     C 9631   4.340   1.792   8.604 -1.4833  1.0047 -0.4237
   72MOL0     O 9632   4.177   2.023   8.736 -0.0490  0.7760 -0.3089
   72MOL0     C 9633   3.969   2.124   8.460 -0.0771  0.4485  0.3183
   72MOL0     C 9634   3.883   2.240   8.426 -0.4212 -0.2554 -0.1172
   72MOL0     N 9635   3.531   2.761   7.980  0.0121  1.1825 -0.1898
   72MOL0     N 9636   3.500   2.835   7.885 -0.5226  0.3189 -0.1320
   72MOL0     C 9637   4.403   3.641   7.800 -0.6569 -1.0375 -0.2520
   72MOL0     C 9638   4.514   3.718   7.775 -0.0987  0.0912 -0.1180
   72MOL0     C 9639   4.918   3.865   7.623 -0.3027 -0.3616 -0.7195
   72MOL0     C 9640   4.993   3.871   7.505  0.5631 -0.6801  0.2119
   72MOL0     C 9641   5.096   3.972   7.480  0.0566  0.1600 -0.4545
   72MOL0     C 9642   5.121   4.064   7.574  0.1349 -0.5245 -1.2227
   72MOL0     O 9643   5.231   4.147   7.554  0.7480 -0.4410 -0.4150
   72MOL0     C 9644   5.273   4.229   7.661  0.0889 -0.1719 -0.0232
   72MOL0     C 9645   5.366   4.344   7.613 -0.4386 -0.3951  0.9611
   72MOL0     C 9646   5.276   4.467   7.567 -0.5447 -0.0733 -0.8612
   72MOL0     C 9647   5.352   4.594   7.545  0.0609  0.5594 -0.2631
   72MOL0     C 9648   5.467   4.581   7.459 -0.2096 -0.2600 -0.6224
   72MOL0     C 9649   5.567   4.558   7.398 -0.5038 -0.2724 -0.2280
   72MOL0     C 9650   5.039   4.059   7.695 -0.1144 -0.7110 -0.4073
   72MOL0     C 9651   4.946   3.968   7.722 -0.1746  0.3615 -0.4641
   72MOL0     C 9652   4.883   3.989   7.860 -0.5668  0.6168  0.5807
   72MOL0     H 9653   4.729   3.472   7.716 -1.7171 -0.5502 -3.4768
   72MOL0     H 9654   4.530   3.339   7.757  0.1147 -0.4185 -0.2333
   72MOL0     H 9655   4.224   3.511   7.954  0.4051  1.1544 -1.4071
   72MOL0     H 9656   4.129   3.504   7.803 -2.8285 -2.4472 -0.0196
   72MOL0     H 9657   4.032   3.353   7.973  2.8278 -1.8523  4.2877
   72MOL0     H 9658   4.178   3.248   7.961  1.1004 -0.4834 -1.3812
   72MOL0     H 9659   4.155   3.203   7.729  1.2898 -1.1445  2.0589
   72MOL0     H 9660   4.030   3.328   7.699 -0.9953 -0.0188  0.8893
   72MOL0     H 9661   3.954   3.113   7.686  3.8001  0.7883 -0.9568
   72MOL0     H 9662   3.997   3.078   7.857 -2.6693  0.9712  0.6025
   72MOL0     H 9663   3.835   3.246   7.934 -1.1118 -0.7726 -0.0238
   72MOL0     H 9664   3.799   3.293   7.770  2.7951 -1.3142 -1.8010
   72MOL0     H 9665   3.695   3.071   7.723 -1.0936  0.1004 -0.0667
   72MOL0     H 9666   3.749   3.015   7.881 -1.3016 -1.8751 -2.7983
   72MOL0     H 9667   3.576   3.257   7.836  2.9516 -0.5883 -2.8175
   72MOL0     H 9668   3.598   3.184   7.991  0.1477 -1.0187  0.8689
   72MOL0     H 9669   3.376   3.136   7.867  1.0529  1.7552  0.0738
   72MOL0     H 9670   3.473   3.041   7.754 -4.2392 -1.9430  0.0446
   72MOL0     H 9671   3.469   3.031   8.150  0.8000 -0.8038 -0.7400
   72MOL0     H 9672   3.625   2.854   8.291 -0.7780 -0.0641  2.4226
   72MOL0     H 9673   3.460   2.780   8.289 -0.8339  0.3209 -2.0302
   72MOL0     H 9674   3.565   2.569   8.183 -2.6177  0.7648 -0.2558
   72MOL0     H 9675   3.717   2.660   8.165  0.8752 -0.5114  1.4567
   72MOL0     H 9676   3.589   2.606   8.433  1.7705 -2.1691  1.7195
   72MOL0     H 9677   3.748   2.694   8.411  1.4346 -2.4096  2.2337
   72MOL0     H 9678   3.850   2.530   8.320 -0.5313  0.9567  2.1261
   72MOL0     H 9679   3.705   2.414   8.314  1.7934 -1.5203 -2.3830
   72MOL0     H 9680   3.909   2.406   8.729  0.8023 -1.5607  0.6449
   72MOL0     H 9681   4.048   2.223   8.781 -0.6437 -0.7674  0.9222
   72MOL0     H 9682   4.060   1.673   8.475  3.0090 -3.9239 -3.8630
   72MOL0     H 9683   4.173   1.474   8.503 -3.1050  1.0211 -0.1878
   72MOL0     H 9684   4.379   1.413   8.394  2.7011  0.0634 -1.9335
   72MOL0     H 9685   4.544   1.360   8.435  0.2522 -4.0482  1.0725
   72MOL0     H 9686   4.430   1.220   8.624  1.6208  1.9471 -1.1768
   72MOL0     H 9687   4.284   1.245   8.522 -0.4984  0.1522 -1.0264
   72MOL0     H 9688   4.487   1.160   8.341 -1.9272  1.0591  0.3778
   72MOL0     H 9689   4.530   1.069   8.483 -1.3194 -0.0153  0.4231
   72MOL0     H 9690   4.267   1.064   8.354  1.0038  0.4493  0.9542
   72MOL0     H 9691   4.318   0.964   8.499  1.3686  0.8760  1.2859
   72MOL0     H 9692   4.513   0.886   8.332 -0.2480  2.0099  1.9063
   72MOL0     H 9693   4.420   0.956   8.205  0.6477  1.8317  0.7574
   72MOL0     H 9694   4.362   0.716   8.384 -2.2425 -2.5085 -0.8764
   72MOL0     H 9695   4.236   0.785   8.289 -1.0042 -4.1027  2.4818
   72MOL0     H 9696   4.446   0.595   8.210 -0.2796 -0.7627 -2.6074
   72MOL0     H 9697   4.469   0.753   8.123 -2.6391  1.5947 -1.9416
   72MOL0     H 9698   4.244   0.736   8.049 -0.7518 -0.1547  1.8177
   72MOL0     H 9699   4.352   0.610   7.987 -0.8605 -1.0951  0.7141
   72MOL0     H 9700   4.527   1.682   8.636 -0.2542 -2.3100 -0.1556
   72MOL0     H 9701   4.387   1.890   8.614 -2.2484  1.3740 -0.3770
   72MOL0     H 9702   3.976   2.041   8.391 -2.0923 -0.4125  1.0653
   72MOL0     H 9703   3.841   2.249   8.327 -0.7027 -1.9234 -0.1752
   72MOL0     H 9704   4.312   3.694   7.827  1.5814  4.2416 -1.7713
   72MOL0     H 9705   4.501   3.825   7.780 -2.5290 -0.1952  2.1651
   72MOL0     H 9706   4.987   3.796   7.427 -0.1714 -0.1235 -0.2748
   72MOL0     H 9707   5.150   3.980   7.387  1.9994 -3.3099  0.1902
   72MOL0     H 9708   5.337   4.171   7.728  1.7084  2.1561  0.5661
   72MOL0     H 9709   5.203   4.278   7.728  0.3096  2.5950 -1.6361
   72MOL0     H 9710   5.424   4.311   7.527 -2.3767  0.3331 -0.7158
   72MOL0     H 9711   5.427   4.379   7.696 -1.2839  0.1007  1.3864
   72MOL0     H 9712   5.217   4.492   7.656  0.7909 -1.2295  0.4107
   72MOL0     H 9713   5.210   4.446   7.482  1.8475 -0.5630 -2.6793
   72MOL0     H 9714   5.280   4.669   7.511 -1.0361 -0.4852 -0.2685
   72MOL0     H 9715   5.376   4.651   7.636 -0.8007 -0.2236  0.4708
   72MOL0     H 9716   5.662   4.545   7.350 -0.7354  2.2336 -1.5769
   72MOL0     H 9717   5.064   4.134   7.769 -1.2265  0.8253 -1.5343
   72MOL0     H 9718   4.788   4.042   7.849  0.6205  2.7119  0.0030
   72MOL0     H 9719   4.861   3.892   7.907  0.4836  0.3225  0.4865
   72MOL0     H 9720   4.947   4.037   7.935 -0.2503  1.4708 -0.2135
   73MOL0     O 9721   3.421   1.804   6.382 -0.0407 -0.0669 -0.2508
   73MOL0     C 9722   3.533   1.797   6.434 -1.1650  0.0622  0.7804
   73MOL0     O 9723   3.608   1.900   6.497 -0.0352 -0.6132  0.3057
   73MOL0     C 9724   3.540   2.013   6.529 -0.2684  0.1343  0.0103
   73MOL0     C 9725   3.505   2.101   6.430  0.2474  0.2566 -1.1391
   73MOL0     C 9726   3.431   2.217   6.464 -1.0016  0.4070  0.4180
   73MOL0     C 9727   3.409   2.253   6.601  0.0862 -0.4637 -0.0124
   73MOL0     O 9728   3.334   2.359   6.639 -0.9408  0.9460  0.1235
   73MOL0     C 9729   3.234   2.412   6.554 -1.0833  0.5680  0.0072
   73MOL0     C 9730   3.126   2.493   6.631 -0.1523  1.0432 -0.2562
   73MOL0     C 9731   3.044   2.393   6.715  0.7899  0.1672 -0.2127
   73MOL0     C 9732   2.892   2.404   6.702  0.2175 -0.7266 -0.0716
   73MOL0     C 9733   2.826   2.314   6.804 -0.0462 -0.4633 -0.0586
   73MOL0     C 9734   2.676   2.312   6.791 -0.6949  0.7442  0.2600
   73MOL0     C 9735   2.632   2.202   6.701 -0.2638  0.4859  0.4899
   73MOL0     C 9736   2.610   2.067   6.768 -0.8607 -0.7656  0.1854
   73MOL0     N 9737   2.586   1.980   6.649 -0.7653  0.9136 -0.1671
   73MOL0     C 9738   2.488   1.987   6.553  0.4652 -0.3252  0.2782
   73MOL0     C 9739   2.516   1.892   6.455  0.7030  0.9321  1.0733
   73MOL0     C 9740   2.446   1.848   6.331 -0.5826  0.0070  0.1116
   73MOL0     C 9741   2.349   1.950   6.283  0.5395  0.4764 -0.3419
   73MOL0     C 9742   2.410   2.056   6.192 -0.0017 -1.1193 -0.0581
   73MOL0     C 9743   2.504   2.150   6.267 -0.7465  0.3283 -0.0772
   73MOL0     O 9744   2.431   2.222   6.374  0.6533 -0.1980 -0.0931
   73MOL0     C 9745   2.482   2.344   6.406  0.0304 -0.8144 -0.2281
   73MOL0     C 9746   2.395   2.450   6.431  0.1597  0.3250  0.4191
   73MOL0     C 9747   2.441   2.577   6.450 -0.1956 -0.1097 -0.5432
   73MOL0     C 9748   2.581   2.607   6.464  0.8490 -0.0900  0.0814
   73MOL0     C 9749   2.621   2.742   6.508 -0.7332 -0.3236 -0.6140
   73MOL0     O 9750   2.533   2.850   6.517  0.3830  0.0164  0.7070
   73MOL0     C 9751   2.576   2.967   6.571 -0.5838 -0.0233  0.5844
   73MOL0     C 9752   2.667   3.052   6.516 -0.0631 -0.0281  0.1169
   73MOL0     C 9753   2.720   3.156   6.587 -0.6649 -0.5118  0.0497
   73MOL0     C 9754   2.676   3.187   6.714  0.8313  0.4760  1.0613
   73MOL0     O 9755   2.718   3.288   6.793 -0.6631  0.1109  0.1414
   73MOL0     C 9756   2.793   3.411   6.753 -0.2979 -0.7634 -0.9242
   73MOL0     C 9757   2.822   3.490   6.873  0.0249 -0.0044 -0.8629
   73MOL0     C 9758   2.876   3.630   6.843 -0.2313 -0.8931  0.3773
   73MOL0     C 9759   2.783   3.750   6.860  1.2803 -0.8670 -0.2383
   73MOL0     C 9760   2.843   3.889   6.842  0.6519 -0.0846 -1.4251
   73MOL0     C 9761   2.892   3.914   6.699  0.4795 -0.1251 -0.2285
   73MOL0     C 9762   2.936   4.058   6.681 -0.5126 -0.5065  0.4517
   73MOL0     C 9763   3.048   4.122   6.759  0.6880 -0.1453  0.2284
   73MOL0    Cl 9764   3.182   4.008   6.737 -0.0352 -0.4476 -0.1282
   73MOL0     C 9765   2.601   3.086   6.771 -0.6049  0.0196  0.2425
   73MOL0     C 9766   2.550   2.986   6.702  0.2391  0.1989  0.5672
   73MOL0     O 9767   2.735   2.753   6.543 -0.8222  0.0697 -0.2519
   73MOL0     C 9768   2.667   2.504   6.446  0.3626  0.4035 -0.4649
   73MOL0     C 9769   2.617   2.371   6.407 -1.0644  0.0541 -0.7469
   73MOL0     N 9770   2.629   1.833   6.486 -0.9301 -0.7921  0.4927
   73MOL0     N 9771   2.672   1.882   6.601  0.3642 -0.4572  0.7144
   73MOL0     C 9772   3.472   2.168   6.700  0.7609 -0.6550  0.5612
   73MOL0     C 9773   3.520   2.048   6.662 -1.2880 -0.1213 -0.4401
   73MOL0     C 9774   3.604   1.658   6.437 -0.5818  0.5825  0.6953
   73MOL0     C 9775   3.548   1.546   6.501  1.0360 -0.8578  0.0548
   73MOL0     C 9776   3.621   1.424   6.506  0.7301  0.1417 -0.1093
   73MOL0     C 9777   3.745   1.408   6.439 -0.7566  0.1771  1.0929
   73MOL0     O 9778   3.795   1.287   6.439 -0.9299  0.4538  0.1610
   73MOL0     C 9779   3.939   1.265   6.407 -0.5166  0.7750  0.1022
   73MOL0     C 9780   3.973   1.114   6.401  0.1271 -0.9989  0.1882
   73MOL0     C 9781   4.121   1.072   6.365 -0.0959 -0.6519 -0.4443
   73MOL0     C 9782   4.111   0.929   6.310  0.4275  0.3513 -0.6303
   73MOL0     C 9783   4.100   0.830   6.406 -0.0043  0.6507 -0.1460
   73MOL0     C 9784   4.077   0.759   6.508  0.9312 -0.7562  0.4037
   73MOL0     C 9785   3.798   1.524   6.379  0.2709 -0.8078  0.3948
   73MOL0     C 9786   3.721   1.642   6.364  0.1069  0.0123 -0.7012
   73MOL0     C 9787   3.779   1.756   6.288  0.4915 -0.0019  0.2943
   73MOL0     H 9788   3.523   2.067   6.328  3.4896  4.4845 -2.2726
   73MOL0     H 9789   3.406   2.285   6.384  1.8930  0.7501 -0.3245
   73MOL0     H 9790   3.282   2.493   6.499 -2.5844  2.8843  1.8882
   73MOL0     H 9791   3.199   2.337   6.482  1.6478 -0.5442 -0.3021
   73MOL0     H 9792   3.059   2.542   6.561  1.7686 -0.2195 -3.1934
   73MOL0     H 9793   3.175   2.572   6.689  3.4751 -0.7796 -0.4856
   73MOL0     H 9794   3.067   2.393   6.822  1.1629 -3.2550 -0.2012
   73MOL0     H 9795   3.066   2.291   6.683  0.1369 -1.9039  4.9139
   73MOL0     H 9796   2.858   2.507   6.707  2.3644  0.0317 -0.0371
   73MOL0     H 9797   2.878   2.379   6.596  0.5337  1.9963 -0.8296
   73MOL0     H 9798   2.874   2.215   6.802 -0.6810 -0.8035  0.9052
   73MOL0     H 9799   2.849   2.352   6.904  1.0159 -0.4875 -0.2808
   73MOL0     H 9800   2.626   2.276   6.882 -0.1594 -2.1612 -0.4935
   73MOL0     H 9801   2.642   2.409   6.754 -0.6532  0.2767 -1.0705
   73MOL0     H 9802   2.715   2.198   6.631  2.5224  2.0354  3.4638
   73MOL0     H 9803   2.539   2.229   6.649 -0.3653 -0.1634  0.3306
   73MOL0     H 9804   2.702   2.049   6.826 -2.5454 -0.6482  3.0929
   73MOL0     H 9805   2.525   2.072   6.837 -1.4063  1.9640 -0.5682
   73MOL0     H 9806   2.407   2.058   6.541  2.0837  1.9373  1.9107
   73MOL0     H 9807   2.513   1.812   6.253 -0.8821  1.1239 -0.6718
   73MOL0     H 9808   2.396   1.757   6.367  2.6217 -1.3514  1.5293
   73MOL0     H 9809   2.285   1.893   6.214  0.1964  1.9837 -1.3342
   73MOL0     H 9810   2.292   1.990   6.368  1.4271 -1.8349  1.4283
   73MOL0     H 9811   2.330   2.120   6.153 -0.4810 -2.3740 -1.2037
   73MOL0     H 9812   2.454   2.000   6.109  2.1004 -0.4455  0.5236
   73MOL0     H 9813   2.553   2.218   6.198  1.7408 -1.2172  0.0634
   73MOL0     H 9814   2.585   2.099   6.320 -1.4876  1.3486  2.1753
   73MOL0     H 9815   2.294   2.412   6.443  0.9286 -2.4566 -0.9928
   73MOL0     H 9816   2.365   2.643   6.491  1.0875  0.4081  1.0941
   73MOL0     H 9817   2.694   3.030   6.413 -4.6496 -2.1650 -0.9126
   73MOL0     H 9818   2.800   3.219   6.550 -0.0242 -0.8580  0.8078
   73MOL0     H 9819   2.890   3.392   6.708  0.5808  0.1537  0.5108
   73MOL0     H 9820   2.730   3.473   6.688 -0.7806  4.2467  3.5560
   73MOL0     H 9821   2.729   3.496   6.931 -0.4568 -1.0729 -1.5096
   73MOL0     H 9822   2.893   3.426   6.927 -0.0055 -0.1518 -1.0003
   73MOL0     H 9823   2.957   3.642   6.916  2.0963 -1.6266 -1.9396
   73MOL0     H 9824   2.914   3.644   6.742 -0.1363 -0.1121  0.5119
   73MOL0     H 9825   2.743   3.745   6.962  0.0201 -0.4340 -0.6960
   73MOL0     H 9826   2.690   3.744   6.802 -0.0360  1.2586  1.5005
   73MOL0     H 9827   2.924   3.891   6.915 -1.3566 -2.6138  1.0807
   73MOL0     H 9828   2.761   3.961   6.854  0.6021 -0.5667  2.1072
   73MOL0     H 9829   2.978   3.855   6.665  1.5723  0.7642  0.8804
   73MOL0     H 9830   2.807   3.899   6.632 -1.6574 -1.1181  2.5179
   73MOL0     H 9831   2.848   4.122   6.690 -0.6881 -0.6710 -0.1040
   73MOL0     H 9832   2.961   4.074   6.576  2.2832  2.4449  1.3678
   73MOL0     H 9833   3.069   4.218   6.712 -3.0089  0.5615 -0.2848
   73MOL0     H 9834   3.023   4.121   6.866 -0.2487  0.1161  0.0164
   73MOL0     H 9835   2.591   3.107   6.877  0.3131  1.6332  0.0367
   73MOL0     H 9836   2.489   2.905   6.742  3.4961 -3.4778 -1.1573
   73MOL0     H 9837   2.770   2.538   6.452 -0.1604  1.8815  0.7437
   73MOL0     H 9838   2.676   2.285   6.377 -0.9488 -0.0888 -0.1173
   73MOL0     H 9839   3.459   2.191   6.805 -2.7779  1.0108 -0.0845
   73MOL0     H 9840   3.552   1.976   6.736 -2.9253  0.4602  0.8771
   73MOL0     H 9841   3.448   1.562   6.542  1.2566 -0.0510  0.2934
   73MOL0     H 9842   3.577   1.342   6.562 -1.9577  0.6862 -1.2482
   73MOL0     H 9843   3.994   1.314   6.488 -2.6823  0.5089  1.8473
   73MOL0     H 9844   3.971   1.317   6.317  1.4046 -0.3123  0.1023
   73MOL0     H 9845   3.900   1.069   6.333 -1.8833  2.5220 -0.2452
   73MOL0     H 9846   3.951   1.071   6.499  0.7700  1.4038  1.4607
   73MOL0     H 9847   4.184   1.077   6.454 -0.0585 -3.4758 -0.2338
   73MOL0     H 9848   4.151   1.144   6.288 -0.9138 -0.2481 -0.3973
   73MOL0     H 9849   4.030   0.924   6.236 -0.5654 -3.0588  0.4982
   73MOL0     H 9850   4.201   0.904   6.253  0.7494 -0.9119  0.4119
   73MOL0     H 9851   4.077   0.690   6.591 -2.3623  1.0135  2.1104
   73MOL0     H 9852   3.891   1.517   6.322 -0.0457 -1.8245 -0.0117
   73MOL0     H 9853   3.823   1.815   6.369 -1.5455  0.0663  1.4238
   73MOL0     H 9854   3.858   1.725   6.218  0.7501  1.2512  0.0107
   73MOL0     H 9855   3.708   1.815   6.229  0.4680 -1.5702 -1.3343
   74MOL0     O 9856   3.924   5.903   4.672  0.1108  0.1756  0.0360
   74MOL0     C 9857   3.827   5.909   4.602  0.3257  1.1090  0.3388
   74MOL0     O 9858   3.722   5.816   4.602 -0.2098 -0.8214  0.0750
   74MOL0     C 9859   3.736   5.714   4.687 -0.0062  0.2027 -0.0696
   74MOL0     C 9860   3.773   5.715   4.831  0.5939  1.2166  1.1574
   74MOL0     C 9861   3.762   5.587   4.894 -0.1906  0.4455  0.7198
   74MOL0     C 9862   3.727   5.476   4.821 -0.2739 -0.0524  0.0874
   74MOL0     O 9863   3.748   5.362   4.891  0.1672  0.0128  0.4440
   74MOL0     C 9864   3.841   5.275   4.818  0.7163 -1.2165  0.4150
   74MOL0     C 9865   3.900   5.173   4.912 -0.2932 -0.5470 -0.2762
   74MOL0     C 9866   3.999   5.236   5.014  0.1442  0.0252  0.2129
   74MOL0     C 9867   4.140   5.271   4.953 -0.4262  0.2396 -0.3794
   74MOL0     C 9868   4.252   5.310   5.051 -0.5765 -0.7615  0.1276
   74MOL0     C 9869   4.276   5.208   5.158  0.0003  1.1197  0.3215
   74MOL0     C 9870   4.364   5.277   5.271 -0.1056 -0.1351  0.2698
   74MOL0     C 9871   4.312   5.403   5.351  0.3330 -0.1271 -0.1024
   74MOL0     N 9872   4.164   5.389   5.382  0.2322  0.0985 -0.2176
   74MOL0     C 9873   4.096   5.274   5.417 -0.1166  0.3989 -1.0150
   74MOL0     C 9874   3.965   5.311   5.430 -0.6004  0.3822  0.5375
   74MOL0     C 9875   3.839   5.227   5.440  0.4642  0.0624 -0.2275
   74MOL0     C 9876   3.840   5.115   5.334  0.7785 -0.2057 -1.5491
   74MOL0     C 9877   3.708   5.025   5.360  0.4071  0.4160  0.1780
   74MOL0     C 9878   3.716   4.886   5.294  0.2417 -0.5676  0.3075
   74MOL0     O 9879   3.662   4.915   5.159  0.8744 -1.5358 -0.0222
   74MOL0     C 9880   3.678   4.833   5.057 -0.1381 -0.9781  0.9005
   74MOL0     C 9881   3.595   4.848   4.948 -0.1242 -0.2088  1.0269
   74MOL0     C 9882   3.594   4.748   4.852  0.3746 -0.4804 -0.1427
   74MOL0     C 9883   3.682   4.644   4.849  0.2269 -0.2018  0.3361
   74MOL0     C 9884   3.674   4.544   4.734 -0.1254 -0.3203 -0.5816
   74MOL0     O 9885   3.605   4.583   4.616 -0.0317  0.3410 -0.1074
   74MOL0     C 9886   3.587   4.507   4.504  0.1689 -0.5903  0.4534
   74MOL0     C 9887   3.478   4.546   4.434 -0.8026  0.2813  0.2091
   74MOL0     C 9888   3.432   4.473   4.327 -0.7588 -1.6793  0.6390
   74MOL0     C 9889   3.496   4.357   4.292  0.2553  0.0877  0.2652
   74MOL0     O 9890   3.436   4.288   4.192 -0.2255  0.2994 -0.0574
   74MOL0     C 9891   3.537   4.253   4.085  0.4515 -0.8556  0.1717
   74MOL0     C 9892   3.475   4.250   3.944 -0.0152 -0.5709 -1.5092
   74MOL0     C 9893   3.384   4.126   3.908  0.2405  0.5016 -0.0457
   74MOL0     C 9894   3.373   4.087   3.754  0.4265  0.6668  0.7151
   74MOL0     C 9895   3.355   3.942   3.719 -0.5318 -0.0668 -0.0380
   74MOL0     C 9896   3.215   3.903   3.774  0.3461 -0.0856  0.1707
   74MOL0     C 9897   3.174   3.752   3.751 -0.1995 -0.5785 -0.3805
   74MOL0     C 9898   3.118   3.683   3.876 -0.7956 -0.6165 -0.2153
   74MOL0    Cl 9899   3.010   3.543   3.831 -0.5138  0.0753 -0.2108
   74MOL0     C 9900   3.614   4.316   4.356  0.4929  0.3016  0.2351
   74MOL0     C 9901   3.661   4.384   4.469 -0.1852  0.1123  0.0356
   74MOL0     O 9902   3.734   4.442   4.754  0.3365  0.5039  0.3207
   74MOL0     C 9903   3.757   4.627   4.963  0.0558 -0.1787  0.3720
   74MOL0     C 9904   3.764   4.724   5.061 -0.6971  0.3793 -1.7090
   74MOL0     N 9905   3.950   5.446   5.411 -0.2210  0.6405 -0.1973
   74MOL0     N 9906   4.070   5.494   5.374 -0.4584  0.9194  0.3937
   74MOL0     C 9907   3.677   5.485   4.690 -0.0091 -0.0849 -0.0664
   74MOL0     C 9908   3.694   5.604   4.619 -0.0341 -0.2243  0.1907
   74MOL0     C 9909   3.803   6.028   4.514  0.2961 -0.1631 -0.6350
   74MOL0     C 9910   3.669   6.062   4.473 -0.5185 -0.1906  0.6636
   74MOL0     C 9911   3.639   6.158   4.378 -0.0513 -0.1006  0.0815
   74MOL0     C 9912   3.736   6.250   4.336 -0.4586 -0.3882  0.6030
   74MOL0     O 9913   3.692   6.365   4.276  0.1720 -0.1522  0.7977
   74MOL0     C 9914   3.781   6.454   4.203 -0.0838  0.3600  0.5936
   74MOL0     C 9915   3.693   6.554   4.129  0.3554 -0.1034 -0.3102
   74MOL0     C 9916   3.712   6.700   4.167 -0.7762 -0.0206 -0.7865
   74MOL0     C 9917   3.640   6.785   4.071  0.3011  0.1805 -0.1927
   74MOL0     C 9918   3.499   6.744   4.044  0.2652  0.4299 -0.4885
   74MOL0     C 9919   3.384   6.711   4.023 -0.3055 -0.1964 -0.0007
   74MOL0     C 9920   3.871   6.226   4.370 -0.4116 -0.8104 -0.9127
   74MOL0     C 9921   3.912   6.118   4.461  0.1875  1.1403 -0.1077
   74MOL0     C 9922   4.052   6.115   4.511 -0.0326 -0.7417 -0.3635
   74MOL0     H 9923   3.809   5.807   4.876 -0.2537  2.0403  0.1900
   74MOL0     H 9924   3.795   5.562   4.994 -1.0647  1.1683  1.2092
   74MOL0     H 9925   3.795   5.217   4.738 -1.9007  0.8056  0.3344
   74MOL0     H 9926   3.922   5.338   4.778 -0.9476  1.6239  1.2417
   74MOL0     H 9927   3.948   5.103   4.842  0.2983  2.8413 -3.5678
   74MOL0     H 9928   3.826   5.112   4.965 -2.5079  0.7686 -1.7041
   74MOL0     H 9929   4.009   5.161   5.093  0.7304  1.5988  1.7069
   74MOL0     H 9930   3.950   5.331   5.039  1.5985  0.4642  1.5393
   74MOL0     H 9931   4.181   5.184   4.902 -1.5136 -0.2800 -0.3918
   74MOL0     H 9932   4.117   5.351   4.882 -2.2152 -1.5008 -1.8841
   74MOL0     H 9933   4.337   5.333   4.986 -1.0409 -1.2893 -0.6944
   74MOL0     H 9934   4.243   5.410   5.093  1.1079 -0.7389  0.4848
   74MOL0     H 9935   4.185   5.167   5.204 -0.1512  0.5009 -0.5152
   74MOL0     H 9936   4.322   5.123   5.107  1.5654  1.8490  0.4697
   74MOL0     H 9937   4.456   5.320   5.231 -0.2165  1.9485  2.0565
   74MOL0     H 9938   4.389   5.204   5.349 -0.3921 -0.6784 -0.1424
   74MOL0     H 9939   4.366   5.415   5.445  1.2051 -2.0158 -0.3146
   74MOL0     H 9940   4.311   5.501   5.303  0.4179 -0.5035 -0.9001
   74MOL0     H 9941   4.126   5.174   5.446 -1.1210  0.5777  0.7907
   74MOL0     H 9942   3.840   5.187   5.542  0.1172 -1.2853 -0.7305
   74MOL0     H 9943   3.744   5.278   5.425  1.2039  1.2985 -0.8863
   74MOL0     H 9944   3.826   5.164   5.237 -1.3512  2.4939 -0.0299
   74MOL0     H 9945   3.926   5.049   5.341 -2.1495 -4.2393  0.9050
   74MOL0     H 9946   3.631   5.094   5.324  0.7348  0.7738  0.1462
   74MOL0     H 9947   3.675   5.012   5.463 -1.6736  2.8735 -0.0719
   74MOL0     H 9948   3.652   4.816   5.348 -3.3599  1.7962 -0.4713
   74MOL0     H 9949   3.822   4.868   5.310  0.2856  0.8034  1.9743
   74MOL0     H 9950   3.534   4.938   4.938  0.3276 -0.0389 -0.3425
   74MOL0     H 9951   3.522   4.762   4.772  0.8294  3.1210 -0.0743
   74MOL0     H 9952   3.424   4.632   4.472  0.8522  2.0154 -1.1851
   74MOL0     H 9953   3.339   4.490   4.272  0.4987 -0.7662 -1.3224
   74MOL0     H 9954   3.607   4.337   4.084  2.6051 -2.5305 -2.1900
   74MOL0     H 9955   3.598   4.165   4.108  1.9369  0.8039  3.2159
   74MOL0     H 9956   3.405   4.334   3.933 -1.1892 -1.6114 -2.4353
   74MOL0     H 9957   3.557   4.262   3.873  1.7127  2.5138  0.7907
   74MOL0     H 9958   3.422   4.042   3.967 -1.4020  0.4052  0.9477
   74MOL0     H 9959   3.292   4.143   3.965  0.4429  0.9769  0.1470
   74MOL0     H 9960   3.470   4.114   3.710 -0.4920 -0.7962 -2.4791
   74MOL0     H 9961   3.302   4.143   3.693  2.6341  3.1377  0.2276
   74MOL0     H 9962   3.433   3.885   3.770 -1.2410  1.0991  2.4680
   74MOL0     H 9963   3.373   3.942   3.611  0.3417  1.6233  0.0817
   74MOL0     H 9964   3.210   3.913   3.883  5.2801 -3.9605  1.1193
   74MOL0     H 9965   3.140   3.965   3.724 -0.1132 -0.3788  0.4844
   74MOL0     H 9966   3.264   3.701   3.716 -0.9231 -0.7792 -2.0186
   74MOL0     H 9967   3.096   3.739   3.676  0.7785 -2.3917 -1.1335
   74MOL0     H 9968   3.205   3.642   3.929 -0.3599 -2.9171 -2.4644
   74MOL0     H 9969   3.062   3.756   3.935  0.2704  0.3272 -0.3471
   74MOL0     H 9970   3.652   4.221   4.320 -1.5963 -0.8881  1.0217
   74MOL0     H 9971   3.748   4.357   4.528  0.0600  2.2664  0.7256
   74MOL0     H 9972   3.813   4.538   4.987 -0.4813 -0.4911  0.4837
   74MOL0     H 9973   3.819   4.707   5.153 -1.3361  1.1223 -1.1768
   74MOL0     H 9974   3.649   5.393   4.640 -0.6028 -0.3600  0.7588
   74MOL0     H 9975   3.644   5.602   4.523 -1.1317 -2.5608  0.7231
   74MOL0     H 9976   3.586   6.002   4.508 -1.4647 -1.5240 -3.3202
   74MOL0     H 9977   3.540   6.173   4.336 -0.3085 -1.9710 -0.0756
   74MOL0     H 9978   3.836   6.398   4.127 -1.4424  0.0639 -0.2100
   74MOL0     H 9979   3.857   6.500   4.267  0.4511 -3.2867  2.8459
   74MOL0     H 9980   3.591   6.532   4.164  1.2123 -4.6534 -0.0156
   74MOL0     H 9981   3.702   6.527   4.024  0.1125 -2.7677  0.2670
   74MOL0     H 9982   3.819   6.720   4.160  0.1841 -3.3248  1.5981
   74MOL0     H 9983   3.687   6.721   4.272  0.5612 -1.0697 -0.2327
   74MOL0     H 9984   3.630   6.885   4.113  0.1227 -0.2875  0.9050
   74MOL0     H 9985   3.700   6.792   3.979 -1.9599  2.0815 -1.6465
   74MOL0     H 9986   3.286   6.701   3.982 -0.4773  0.6242  0.1938
   74MOL0     H 9987   3.954   6.294   4.355 -0.4989 -0.0829  1.4413
   74MOL0     H 9988   4.122   6.149   4.435 -0.1900 -1.1244 -0.6824
   74MOL0     H 9989   4.061   6.178   4.600  1.2547 -1.5252  0.1022
   74MOL0     H 9990   4.084   6.011   4.527  1.4032 -0.1393  0.9402
   75MOL0     O 9991   1.991   9.021   7.233 -0.5078  0.8113  0.0777
   75MOL0     C 9992   2.073   8.961   7.304 -0.2788 -0.7458  0.2807
   75MOL0     O 9993   2.139   9.014   7.406  0.2983  0.3635  0.5222
   75MOL0     C 9994   2.145   9.147   7.426 -0.4802 -0.2400  0.6720
   75MOL0     C 9995   2.035   9.234   7.448 -0.3561  0.2923  0.3179
   75MOL0     C 9996   2.066   9.364   7.475  0.2036  0.8271  0.0144
   75MOL0     C 9997   2.200   9.411   7.489 -1.0083  0.2281 -0.4485
   75MOL0     O 9998   2.232   9.540   7.515  0.7785 -1.0301  0.7075
   75MOL0     C 9999   2.142   9.635   7.586  0.6532 -0.6180  0.0076
   75MOL0     C10000   2.086   9.593   7.718 -1.6309 -0.0917 -1.2664
   75MOL0     C10001   1.998   9.708   7.789  0.9273  0.3151  0.2116
   75MOL0     C10002   2.071   9.836   7.833 -0.6005  0.6527  0.5127
   75MOL0     C10003   1.987   9.928   7.914  0.6436  0.0295 -0.1902
   75MOL0     C10004   2.066  10.043   7.948 -1.7896 -0.2226 -0.1120
   75MOL0     C10005   1.995  10.147   8.033  0.5007  0.0692 -0.3576
   75MOL0     C10006   2.076  10.270   8.072  0.1534  0.4387  0.2727
   75MOL0     N10007   2.125  10.272   8.213 -0.3546  0.3706 -0.3853
   75MOL0     C10008   2.066  10.332   8.322  1.2986  0.2836 -0.3432
   75MOL0     C10009   2.140  10.304   8.425 -0.4106 -0.2825 -0.4383
   75MOL0     C10010   2.101  10.334   8.566 -0.3096  0.6489 -1.1142
   75MOL0     C10011   2.095  10.207   8.657 -0.3525  0.3248  1.1161
   75MOL0     C10012   2.217  10.193   8.741 -0.7929 -0.5958  0.2898
   75MOL0     C10013   2.340  10.110   8.674  0.3776 -0.3674  0.4645
   75MOL0     O10014   2.304   9.984   8.630  0.4199 -0.1034 -0.1545
   75MOL0     C10015   2.414   9.916   8.609 -0.0145  0.4363  0.4040
   75MOL0     C10016   2.473   9.896   8.486 -0.2308 -0.3149 -0.3319
   75MOL0     C10017   2.585   9.817   8.468  0.5755 -1.3281 -0.1740
   75MOL0     C10018   2.655   9.761   8.579 -0.0305 -0.6400 -0.1221
   75MOL0     C10019   2.786   9.694   8.563  0.4609  0.0642 -0.2549
   75MOL0     O10020   2.833   9.653   8.441  0.5706  0.2194 -0.0870
   75MOL0     C10021   2.950   9.583   8.439  0.2349  0.4125  0.6799
   75MOL0     C10022   3.012   9.585   8.316  0.9764  0.2422  0.2507
   75MOL0     C10023   3.133   9.532   8.294  0.5891 -0.5009 -0.4164
   75MOL0     C10024   3.204   9.466   8.397 -0.7594  0.4757  0.1162
   75MOL0     O10025   3.335   9.424   8.364 -0.4293 -0.2084 -0.3929
   75MOL0     C10026   3.386   9.313   8.444  0.4355 -0.2854  1.0958
   75MOL0     C10027   3.418   9.188   8.367  0.2562  0.5370 -0.0257
   75MOL0     C10028   3.498   9.095   8.462 -0.6121 -0.2318 -0.1075
   75MOL0     C10029   3.549   8.977   8.385 -0.3156 -0.4898 -0.0421
   75MOL0     C10030   3.635   8.878   8.475  0.5112 -0.6252 -0.0228
   75MOL0     C10031   3.751   8.810   8.401 -0.6107  0.3822  1.3463
   75MOL0     C10032   3.705   8.702   8.300 -0.5455 -0.4180 -0.0610
   75MOL0     C10033   3.811   8.598   8.263  0.1565 -1.3186 -0.2014
   75MOL0    Cl10034   3.804   8.464   8.385  0.1477  0.2477 -0.3515
   75MOL0     C10035   3.144   9.468   8.520  0.7382 -0.0789  0.5382
   75MOL0     C10036   3.015   9.521   8.540  0.5371 -0.2829  0.8741
   75MOL0     O10037   2.845   9.694   8.664  0.3028 -0.8911 -0.1519
   75MOL0     C10038   2.587   9.771   8.702  0.2311  0.5612  0.4914
   75MOL0     C10039   2.464   9.836   8.706 -0.3683 -0.0511 -0.2033
   75MOL0     N10040   2.241  10.218   8.383  0.2504 -0.0969  0.0703
   75MOL0     N10041   2.233  10.202   8.255  0.1246 -1.1648 -0.8168
   75MOL0     C10042   2.308   9.318   7.475 -0.2941 -1.1102 -0.2761
   75MOL0     C10043   2.277   9.184   7.447  0.6075  0.0264 -0.3683
   75MOL0     C10044   2.091   8.819   7.254  0.3302 -0.4428  1.2618
   75MOL0     C10045   2.177   8.751   7.338 -0.0954  0.5870 -0.3135
   75MOL0     C10046   2.203   8.618   7.322 -0.2329 -0.6748 -0.2329
   75MOL0     C10047   2.161   8.546   7.219 -0.1124 -0.1128 -0.7152
   75MOL0     O10048   2.174   8.408   7.207  0.1715 -0.8960 -0.3444
   75MOL0     C10049   2.277   8.334   7.276  0.0140  0.4934  0.2537
   75MOL0     C10050   2.322   8.217   7.194 -0.8081 -0.4163  0.0666
   75MOL0     C10051   2.436   8.129   7.244 -0.0831  0.7191  0.0839
   75MOL0     C10052   2.570   8.194   7.270  0.0115  0.3941 -0.3600
   75MOL0     C10053   2.565   8.239   7.406  0.3988  0.4913  0.4163
   75MOL0     C10054   2.543   8.273   7.519  0.5981 -0.3964  0.3684
   75MOL0     C10055   2.071   8.608   7.124 -0.0315  0.0977  0.1026
   75MOL0     C10056   2.032   8.746   7.141 -0.0777  0.3948  0.1255
   75MOL0     C10057   1.950   8.809   7.031 -0.8567 -0.3005 -0.4438
   75MOL0     H10058   1.929   9.210   7.439 -0.9564  2.0565  2.0187
   75MOL0     H10059   1.977   9.425   7.489 -1.3061  0.0445 -4.4494
   75MOL0     H10060   2.185   9.735   7.597  0.7577 -0.0194 -4.3009
   75MOL0     H10061   2.061   9.656   7.515  1.8321  0.5285 -1.0625
   75MOL0     H10062   2.177   9.581   7.778 -1.1753  1.6716 -1.5434
   75MOL0     H10063   2.041   9.494   7.724 -1.1148 -0.2679 -0.0237
   75MOL0     H10064   1.963   9.669   7.885 -4.4150  0.8709 -1.1922
   75MOL0     H10065   1.907   9.727   7.731  0.5544 -0.8724  0.3677
   75MOL0     H10066   2.165   9.799   7.875  0.2984 -0.9105 -2.5567
   75MOL0     H10067   2.095   9.901   7.749 -0.6491 -0.7003 -0.5964
   75MOL0     H10068   1.906   9.960   7.847 -0.1885  0.3795  0.9429
   75MOL0     H10069   1.943   9.882   8.003 -0.2720 -1.9199 -1.5729
   75MOL0     H10070   2.150  10.014   8.012 -1.3041  3.7363  1.2854
   75MOL0     H10071   2.111  10.090   7.861  3.4453 -3.6912  0.2401
   75MOL0     H10072   1.958  10.089   8.117 -0.1205 -0.4743 -0.9927
   75MOL0     H10073   1.908  10.181   7.975  0.1950 -1.2095 -0.6865
   75MOL0     H10074   2.156  10.271   7.998 -1.4194  1.6369 -1.4975
   75MOL0     H10075   2.036  10.371   8.056  2.2082  1.0272 -1.6594
   75MOL0     H10076   1.980  10.398   8.321  1.2031  0.1542 -1.1202
   75MOL0     H10077   2.187  10.392   8.602 -0.1079  0.1078 -0.7057
   75MOL0     H10078   2.007  10.389   8.578 -0.4544 -0.1761  2.9115
   75MOL0     H10079   1.996  10.210   8.704 -1.2741 -0.4487 -0.6947
   75MOL0     H10080   2.094  10.124   8.587  2.2268 -0.7176  2.2063
   75MOL0     H10081   2.174  10.151   8.833 -1.8019 -2.9795 -1.1607
   75MOL0     H10082   2.263  10.286   8.774  2.3461 -1.7180 -0.5827
   75MOL0     H10083   2.417  10.107   8.752  0.7993  1.9429  0.1938
   75MOL0     H10084   2.382  10.175   8.597 -0.4873  1.4850  1.4828
   75MOL0     H10085   2.435   9.951   8.400  0.0581  2.5247  1.2290
   75MOL0     H10086   2.622   9.809   8.366  0.0384 -4.4702 -0.2458
   75MOL0     H10087   2.968   9.646   8.238  0.7668 -1.3891 -0.9565
   75MOL0     H10088   3.181   9.544   8.197  4.0000 -0.6130  1.0966
   75MOL0     H10089   3.476   9.352   8.492  1.5499 -1.3223 -0.0771
   75MOL0     H10090   3.321   9.284   8.527 -0.1910 -2.2032  0.0074
   75MOL0     H10091   3.322   9.136   8.357 -0.3584  0.7014  3.4832
   75MOL0     H10092   3.475   9.202   8.275 -1.5276  1.4281 -1.0437
   75MOL0     H10093   3.584   9.150   8.500 -0.8320  0.1466 -0.1554
   75MOL0     H10094   3.429   9.065   8.541 -0.4031  0.4660  0.3457
   75MOL0     H10095   3.597   9.017   8.295 -1.0160 -1.4857 -0.8914
   75MOL0     H10096   3.471   8.917   8.337  2.2943 -3.5553 -0.8418
   75MOL0     H10097   3.581   8.802   8.532  2.9090 -1.2022  1.6165
   75MOL0     H10098   3.667   8.947   8.553 -3.0054 -0.1603  1.1911
   75MOL0     H10099   3.817   8.874   8.341 -3.2153 -0.0959 -2.3778
   75MOL0     H10100   3.820   8.771   8.476  0.5001  2.3119  1.3894
   75MOL0     H10101   3.679   8.751   8.205 -0.5659  4.6533  2.2440
   75MOL0     H10102   3.625   8.647   8.349  0.5734 -0.8059  1.3866
   75MOL0     H10103   3.781   8.559   8.165  2.6226  1.0032 -2.0430
   75MOL0     H10104   3.913   8.636   8.262  0.0291 -0.8263 -2.9747
   75MOL0     H10105   3.193   9.415   8.601  0.9739 -4.7663 -2.3136
   75MOL0     H10106   2.969   9.503   8.636  0.5431 -1.6055  0.6571
   75MOL0     H10107   2.612   9.716   8.793 -0.7915 -1.9182 -0.6670
   75MOL0     H10108   2.401   9.835   8.794 -1.1358 -1.0746 -0.7517
   75MOL0     H10109   2.409   9.355   7.489  0.0988 -2.6971  1.4637
   75MOL0     H10110   2.358   9.112   7.440 -3.2267 -4.6372 -2.6441
   75MOL0     H10111   2.201   8.791   7.436  0.9490 -1.4140  0.2991
   75MOL0     H10112   2.255   8.569   7.404 -1.5956 -2.3656 -0.2959
   75MOL0     H10113   2.221   8.291   7.360  0.3162 -3.3260 -1.2717
   75MOL0     H10114   2.361   8.381   7.327  0.2997 -2.0850  2.4193
   75MOL0     H10115   2.351   8.251   7.094  3.3808 -2.4081  0.4038
   75MOL0     H10116   2.236   8.157   7.166 -1.1172  0.5866 -1.2603
   75MOL0     H10117   2.446   8.048   7.172 -0.2347  1.6400 -0.9911
   75MOL0     H10118   2.402   8.078   7.335 -2.3203  0.7363 -0.6900
   75MOL0     H10119   2.642   8.112   7.260 -2.0588 -1.1991 -5.1489
   75MOL0     H10120   2.595   8.274   7.200  0.2729 -0.3661 -1.1537
   75MOL0     H10121   2.531   8.305   7.620  2.7629 -0.6464  0.7487
   75MOL0     H10122   2.022   8.540   7.054 -2.9664  1.7533  0.3682
   75MOL0     H10123   1.998   8.907   7.018 -0.5852  0.0439  2.4732
   75MOL0     H10124   1.957   8.741   6.946  1.6912 -1.1271  0.3395
   75MOL0     H10125   1.843   8.819   7.052 -0.4917  2.5366  0.5820
   76MOL0     O10126   6.094   8.327   8.532 -0.3106 -0.6664 -0.1568
   76MOL0     C10127   5.988   8.282   8.483 -0.2975 -0.0987 -0.4909
   76MOL0     O10128   5.981   8.167   8.415 -0.3666 -0.6457  0.1065
   76MOL0     C10129   6.099   8.089   8.366 -0.2844  0.0658  0.2653
   76MOL0     C10130   6.071   7.978   8.289 -0.2987 -0.0039  0.5248
   76MOL0     C10131   6.168   7.888   8.237 -0.5201 -0.6904  0.2225
   76MOL0     C10132   6.301   7.912   8.269  0.2444  0.8203 -0.0950
   76MOL0     O10133   6.415   7.840   8.234  0.2200  0.1404  0.6849
   76MOL0     C10134   6.404   7.727   8.156 -0.6440  0.1739 -0.4686
   76MOL0     C10135   6.530   7.651   8.199  0.2240  0.1303  0.6326
   76MOL0     C10136   6.591   7.563   8.084  0.3088  0.1059  1.2611
   76MOL0     C10137   6.473   7.465   8.033 -0.4540 -0.1039  0.6556
   76MOL0     C10138   6.504   7.414   7.889  0.5582  0.1425  0.5795
   76MOL0     C10139   6.393   7.327   7.832  0.0806 -0.1318  0.0155
   76MOL0     C10140   6.402   7.299   7.684 -0.2834 -0.3617 -0.0925
   76MOL0     C10141   6.286   7.226   7.628  0.5359  0.6811  0.3510
   76MOL0     N10142   6.314   7.203   7.476  0.5135 -1.0497 -0.0926
   76MOL0     C10143   6.313   7.310   7.385  0.4689 -1.1939  0.6369
   76MOL0     C10144   6.341   7.252   7.269  0.3768  0.1463  0.1851
   76MOL0     C10145   6.345   7.321   7.143 -1.0067 -0.1665 -0.0815
   76MOL0     C10146   6.339   7.224   7.018 -0.3206 -0.3007  0.4455
   76MOL0     C10147   6.321   7.298   6.892  0.1567 -0.0241  0.3979
   76MOL0     C10148   6.188   7.380   6.891 -0.3233  1.0070 -0.2719
   76MOL0     O10149   6.174   7.411   6.750 -0.7928 -0.2850 -0.0528
   76MOL0     C10150   6.195   7.538   6.702  0.5747  0.3351 -0.7882
   76MOL0     C10151   6.264   7.640   6.780  1.1833 -0.5620 -0.3076
   76MOL0     C10152   6.286   7.764   6.721 -0.0703  0.5896 -0.6400
   76MOL0     C10153   6.240   7.797   6.596  0.8337 -1.4156 -0.5239
   76MOL0     C10154   6.259   7.934   6.535  0.6590  0.7928 -0.1512
   76MOL0     O10155   6.237   7.946   6.400 -0.8119 -0.4207  0.4460
   76MOL0     C10156   6.261   8.048   6.308 -0.8621  0.4516 -0.5171
   76MOL0     C10157   6.304   8.177   6.351 -0.4079 -0.1731 -0.2667
   76MOL0     C10158   6.333   8.278   6.265 -0.7248 -0.0797  0.5869
   76MOL0     C10159   6.335   8.253   6.124 -0.8567 -0.5219  0.1295
   76MOL0     O10160   6.364   8.340   6.024  1.0452  0.1024  0.1788
   76MOL0     C10161   6.370   8.476   6.064 -0.2396 -0.5635  1.1301
   76MOL0     C10162   6.377   8.566   5.945  0.5469  0.5251 -0.4079
   76MOL0     C10163   6.245   8.554   5.858 -0.1664 -0.0276  0.4472
   76MOL0     C10164   6.262   8.639   5.738 -0.2994  0.2369 -0.0809
   76MOL0     C10165   6.138   8.630   5.650 -0.0788 -0.8016 -0.4264
   76MOL0     C10166   6.061   8.757   5.622  0.3686  0.0550  0.3911
   76MOL0     C10167   5.948   8.737   5.524  0.2674 -0.1553 -0.3415
   76MOL0     C10168   5.918   8.856   5.435 -0.0511 -0.6385  0.3657
   76MOL0    Cl10169   5.923   9.017   5.520  0.1836  0.2013  0.2201
   76MOL0     C10170   6.298   8.129   6.083 -0.1207  0.0608 -0.1400
   76MOL0     C10171   6.265   8.023   6.172  0.4632  0.6119  0.5476
   76MOL0     O10172   6.311   8.017   6.608  0.2424  0.0500 -0.3209
   76MOL0     C10173   6.191   7.703   6.508 -0.4767  1.2014 -0.4531
   76MOL0     C10174   6.161   7.572   6.575  0.3919 -0.3696 -0.0328
   76MOL0     N10175   6.369   7.118   7.290  0.1061  0.7350  0.3049
   76MOL0     N10176   6.366   7.097   7.418 -0.2257 -0.8942  1.2457
   76MOL0     C10177   6.335   8.030   8.352  1.1305  0.6888 -0.2881
   76MOL0     C10178   6.228   8.107   8.400 -1.5286 -0.8407  0.3992
   76MOL0     C10179   5.858   8.353   8.509  0.6933 -0.5143  0.4828
   76MOL0     C10180   5.742   8.305   8.443 -0.9227 -0.4005  0.0712
   76MOL0     C10181   5.614   8.344   8.479  0.0708 -0.1559  0.6846
   76MOL0     C10182   5.595   8.437   8.577  0.8388 -0.5403 -0.3865
   76MOL0     O10183   5.469   8.483   8.619 -0.1182 -0.2300  0.9168
   76MOL0     C10184   5.350   8.462   8.547  0.0203 -0.1097  0.6593
   76MOL0     C10185   5.236   8.478   8.644  0.6562 -0.1253  0.0684
   76MOL0     C10186   5.234   8.619   8.715  0.4858 -0.3761 -0.2643
   76MOL0     C10187   5.194   8.740   8.635 -0.4508 -0.0313  0.8320
   76MOL0     C10188   5.056   8.774   8.665 -0.1878 -0.3371  0.0185
   76MOL0     C10189   4.947   8.808   8.676 -0.1615 -0.0702  0.2535
   76MOL0     C10190   5.708   8.477   8.647  0.1688 -1.4378  0.2407
   76MOL0     C10191   5.836   8.452   8.605 -0.3183  0.1200  0.2856
   76MOL0     C10192   5.950   8.520   8.676 -0.6061 -0.1870 -1.2832
   76MOL0     H10193   5.971   7.952   8.258 -0.8155  0.7348  1.5157
   76MOL0     H10194   6.119   7.820   8.169 -0.5163  0.8291 -1.3891
   76MOL0     H10195   6.312   7.677   8.185  0.0665 -0.3929  0.9024
   76MOL0     H10196   6.402   7.750   8.049  0.8491 -1.9830 -1.0164
   76MOL0     H10197   6.511   7.601   8.295 -0.6355 -1.5423 -0.3631
   76MOL0     H10198   6.615   7.716   8.222  1.4159 -0.4255 -1.8443
   76MOL0     H10199   6.679   7.504   8.109  1.3924 -0.3011 -2.7953
   76MOL0     H10200   6.625   7.626   8.001  0.1298 -1.8325 -0.3579
   76MOL0     H10201   6.469   7.383   8.105 -2.9889  1.3348  2.2728
   76MOL0     H10202   6.378   7.518   8.038  0.6267  1.8743  2.1165
   76MOL0     H10203   6.526   7.499   7.824  1.7971 -0.3846  0.2897
   76MOL0     H10204   6.592   7.351   7.902  1.7232  1.8854  1.3606
   76MOL0     H10205   6.391   7.237   7.893 -1.4801  0.4886  0.9425
   76MOL0     H10206   6.298   7.378   7.851 -0.3715 -2.1603  4.3199
   76MOL0     H10207   6.490   7.238   7.663 -1.6867 -2.5553  0.1372
   76MOL0     H10208   6.427   7.393   7.633  0.0402 -1.5165 -2.1658
   76MOL0     H10209   6.271   7.127   7.671  0.1459 -0.0791 -1.4585
   76MOL0     H10210   6.189   7.277   7.637 -0.7872 -1.7135  0.4012
   76MOL0     H10211   6.287   7.415   7.393  1.2796 -0.5669 -3.0464
   76MOL0     H10212   6.274   7.404   7.145  1.8912  2.5794 -2.0195
   76MOL0     H10213   6.442   7.371   7.144 -0.2993 -1.3357  3.2471
   76MOL0     H10214   6.442   7.187   7.011  0.9112  2.5881  1.3968
   76MOL0     H10215   6.266   7.143   7.027  1.4530 -2.2049 -1.2245
   76MOL0     H10216   6.317   7.235   6.802  2.1305  2.3787 -1.5144
   76MOL0     H10217   6.408   7.362   6.880 -0.8241  0.8711 -3.2909
   76MOL0     H10218   6.193   7.467   6.958  0.1843  0.5416  0.3050
   76MOL0     H10219   6.101   7.320   6.915  0.1960  0.2007 -0.3725
   76MOL0     H10220   6.300   7.620   6.880 -0.5893 -4.2330 -0.2258
   76MOL0     H10221   6.338   7.847   6.769 -2.4478  2.1713 -0.6229
   76MOL0     H10222   6.303   8.205   6.456  0.6555  1.4454 -0.6460
   76MOL0     H10223   6.368   8.374   6.303  0.2995 -0.4112  0.5299
   76MOL0     H10224   6.283   8.505   6.124 -0.6842 -0.0766  0.2674
   76MOL0     H10225   6.465   8.499   6.112 -1.8129  3.1382  2.8864
   76MOL0     H10226   6.392   8.670   5.976 -1.9827  1.2665 -1.4493
   76MOL0     H10227   6.463   8.549   5.879  2.6573  1.6369  1.8876
   76MOL0     H10228   6.213   8.456   5.822 -1.1591  0.8036 -1.0056
   76MOL0     H10229   6.161   8.589   5.919 -0.4267 -5.2741  3.7207
   76MOL0     H10230   6.342   8.578   5.694 -0.6022 -2.6574  2.9844
   76MOL0     H10231   6.304   8.739   5.750  4.5397 -1.7923  3.3175
   76MOL0     H10232   6.063   8.563   5.692  1.0817 -1.8932 -0.0629
   76MOL0     H10233   6.160   8.595   5.548 -1.3797  0.7026 -1.2815
   76MOL0     H10234   6.011   8.796   5.710 -0.0934 -0.2134  0.2499
   76MOL0     H10235   6.131   8.833   5.585  0.5267 -0.3846 -0.2402
   76MOL0     H10236   5.865   8.705   5.587  0.2780  2.2917  1.0275
   76MOL0     H10237   5.964   8.655   5.453 -2.1233  0.3240 -1.5358
   76MOL0     H10238   6.001   8.860   5.364  0.2151  2.2099  0.6971
   76MOL0     H10239   5.824   8.846   5.379  0.0348  2.7193 -0.5807
   76MOL0     H10240   6.301   8.111   5.976  1.6171 -1.3164  0.1026
   76MOL0     H10241   6.250   7.923   6.132 -0.7892  0.0585  2.2855
   76MOL0     H10242   6.165   7.724   6.405  2.5357  2.8920 -0.9809
   76MOL0     H10243   6.104   7.503   6.513  0.9306  1.1166 -2.3145
   76MOL0     H10244   6.443   8.034   8.367  1.4059 -0.7167 -1.6066
   76MOL0     H10245   6.265   8.197   8.449  3.7788 -1.0339 -2.5166
   76MOL0     H10246   5.737   8.215   8.382 -1.7899  0.8890 -1.8636
   76MOL0     H10247   5.531   8.305   8.421  1.9610 -0.8614 -1.7037
   76MOL0     H10248   5.346   8.358   8.513  2.6574  0.9204 -3.5682
   76MOL0     H10249   5.330   8.517   8.454 -2.0199 -1.5100  0.2138
   76MOL0     H10250   5.250   8.405   8.725 -1.1122 -0.0853  0.4421
   76MOL0     H10251   5.133   8.463   8.608 -0.5000  1.1502  2.6153
   76MOL0     H10252   5.334   8.633   8.757 -0.2037  0.8859  1.0413
   76MOL0     H10253   5.165   8.601   8.798  0.4029 -1.6308 -0.5790
   76MOL0     H10254   5.257   8.826   8.659  2.0059 -0.7220 -2.3642
   76MOL0     H10255   5.219   8.720   8.530  0.4269  1.4628  0.7241
   76MOL0     H10256   4.850   8.853   8.678 -0.3928 -0.5821  0.6094
   76MOL0     H10257   5.696   8.557   8.720 -3.4128 -0.6751 -1.0040
   76MOL0     H10258   6.030   8.560   8.612 -0.4826  0.4280 -0.7584
   76MOL0     H10259   5.935   8.603   8.746  2.9431 -0.3631 -0.0846
   76MOL0     H10260   6.001   8.446   8.738 -0.3368  0.5565 -0.6062
   77MOL0     O10261  11.017   5.472   9.007 -0.5100 -0.2091  0.2007
   77MOL0     C10262  10.929   5.416   9.082 -1.5441 -0.1909 -0.6767
   77MOL0     O10263  10.853   5.314   9.047  0.5373 -0.7616  0.5138
   77MOL0     C10264  10.875   5.260   8.918 -0.6410 -0.5367  1.1057
   77MOL0     C10265  11.003   5.246   8.856 -0.0285 -0.6677  0.5084
   77MOL0     C10266  11.021   5.207   8.719  0.1985  0.1609  0.0204
   77MOL0     C10267  10.913   5.177   8.639  0.5523 -0.8437  0.2137
   77MOL0     O10268  10.925   5.141   8.504  0.5012  0.0413 -0.2263
   77MOL0     C10269  11.042   5.073   8.445 -0.2661  0.7368  0.0043
   77MOL0     C10270  11.032   4.918   8.460 -0.0286 -1.0364  0.1245
   77MOL0     C10271  11.082   4.886   8.594 -0.4674 -0.0065 -0.1203
   77MOL0     C10272  11.087   4.735   8.623 -0.5193  0.4479  0.3510
   77MOL0     C10273  11.111   4.627   8.510 -1.1095 -0.3878  1.2949
   77MOL0     C10274  11.119   4.484   8.574  0.6424 -0.4557  0.1505
   77MOL0     C10275  11.155   4.384   8.456 -0.9931 -0.2772 -0.4421
   77MOL0     C10276  11.203   4.254   8.527 -0.1931 -0.6297  0.0596
   77MOL0     N10277  11.231   4.153   8.431 -0.3285 -0.9996 -0.1885
   77MOL0     C10278  11.154   4.102   8.332  1.2159 -0.3150  0.3614
   77MOL0     C10279  11.236   4.032   8.253  1.1450  0.1577 -0.3939
   77MOL0     C10280  11.197   3.971   8.122 -0.6780  0.5317  0.1279
   77MOL0     C10281  11.176   3.818   8.130 -0.5181  0.0712 -0.0024
   77MOL0     C10282  11.282   3.731   8.186  0.6827 -0.2036 -0.0014
   77MOL0     C10283  11.263   3.599   8.128  0.7016 -0.6879 -0.3812
   77MOL0     O10284  11.125   3.555   8.135  0.6251  0.0365 -0.1760
   77MOL0     C10285  11.087   3.444   8.071  0.2878 -1.4448 -0.0913
   77MOL0     C10286  10.951   3.428   8.057  0.5144  0.2854  0.9571
   77MOL0     C10287  10.893   3.323   7.983  1.4189 -0.5491 -0.8835
   77MOL0     C10288  10.982   3.232   7.931 -0.3901  0.8212 -0.3126
   77MOL0     C10289  10.926   3.118   7.861 -0.2009  0.0507 -0.0121
   77MOL0     O10290  10.795   3.130   7.815 -0.0393 -0.2089 -0.7975
   77MOL0     C10291  10.739   3.042   7.730 -0.1135  0.1117  0.8377
   77MOL0     C10292  10.633   3.088   7.664 -0.3160 -0.2869 -0.3351
   77MOL0     C10293  10.561   3.009   7.577 -0.7528  0.2888  0.4484
   77MOL0     C10294  10.606   2.878   7.548  0.8536  0.3973  0.8024
   77MOL0     O10295  10.523   2.809   7.461 -0.2620 -0.9359  0.1604
   77MOL0     C10296  10.583   2.694   7.399  0.3083  0.4736 -0.0655
   77MOL0     C10297  10.479   2.622   7.307  0.3722 -0.1640  0.0513
   77MOL0     C10298  10.541   2.494   7.256  0.0551  0.1604 -0.4702
   77MOL0     C10299  10.448   2.413   7.161  0.1637 -0.4935  0.0135
   77MOL0     C10300  10.431   2.490   7.018  0.4707  0.1882 -0.7225
   77MOL0     C10301  10.374   2.406   6.911 -0.1120  0.2921 -0.1254
   77MOL0     C10302  10.386   2.461   6.771 -0.0182 -0.6006  0.3695
   77MOL0     C10303  10.312   2.596   6.752  0.8764  0.0268  0.4830
   77MOL0    Cl10304  10.134   2.560   6.763 -0.1234  0.0029 -0.2734
   77MOL0     C10305  10.730   2.843   7.597  0.0403 -0.6272 -0.1724
   77MOL0     C10306  10.792   2.914   7.700 -0.6070 -0.1134 -0.1261
   77MOL0     O10307  11.001   3.018   7.852 -0.1601 -0.7704  1.2884
   77MOL0     C10308  11.119   3.251   7.939 -0.5457  0.0926 -0.4820
   77MOL0     C10309  11.176   3.351   8.011  0.5613 -0.0374  0.1778
   77MOL0     N10310  11.364   4.047   8.302 -0.4014  0.0711  0.8503
   77MOL0     N10311  11.360   4.127   8.394  0.1320 -0.9123 -1.0605
   77MOL0     C10312  10.788   5.189   8.703  0.3551  0.2936  0.2105
   77MOL0     C10313  10.780   5.213   8.841 -0.1756  0.1477  0.1446
   77MOL0     C10314  10.898   5.473   9.213 -0.5561 -1.5350 -0.3152
   77MOL0     C10315  11.006   5.509   9.297 -0.5543 -0.0514  0.3500
   77MOL0     C10316  10.966   5.568   9.417 -0.0446 -0.6152  1.0980
   77MOL0     C10317  10.836   5.588   9.469  0.2304  1.4157  0.0445
   77MOL0     O10318  10.814   5.631   9.600 -0.5010  0.4010 -0.5685
   77MOL0     C10319  10.685   5.581   9.664 -0.0303  0.0700  0.5003
   77MOL0     C10320  10.666   5.636   9.803  0.3537 -0.7059  0.2992
   77MOL0     C10321  10.541   5.575   9.883 -0.5740  0.2966  0.0843
   77MOL0     C10322  10.504   5.656  10.005  0.6127  0.7693  0.6736
   77MOL0     C10323  10.615   5.664  10.101 -0.4397  0.7660  0.4888
   77MOL0     C10324  10.673   5.692  10.199  0.2944 -0.1183  0.2346
   77MOL0     C10325  10.734   5.570   9.371 -0.1834 -0.3034 -0.6845
   77MOL0     C10326  10.769   5.521   9.240 -0.7912 -0.6186 -0.6156
   77MOL0     C10327  10.659   5.507   9.137 -0.7146 -1.8358 -0.2265
   77MOL0     H10328  11.093   5.276   8.909 -1.0917 -0.1024  2.0669
   77MOL0     H10329  11.121   5.211   8.678  1.7544 -1.8364  3.1774
   77MOL0     H10330  11.048   5.093   8.338 -0.1913 -0.1606 -0.1643
   77MOL0     H10331  11.138   5.110   8.483 -0.4001  3.0713 -1.7204
   77MOL0     H10332  11.110   4.876   8.396  0.5456  0.6561 -0.3442
   77MOL0     H10333  10.929   4.884   8.449 -0.2677 -0.4279  0.4123
   77MOL0     H10334  11.007   4.934   8.657 -1.2289 -1.0537 -0.2081
   77MOL0     H10335  11.179   4.936   8.608 -0.1984 -0.2439 -1.0969
   77MOL0     H10336  11.160   4.718   8.702  0.0879  1.3272 -0.0111
   77MOL0     H10337  10.993   4.713   8.675 -1.5455  0.4948 -1.3893
   77MOL0     H10338  11.036   4.635   8.431 -0.2164  3.5780  0.6077
   77MOL0     H10339  11.206   4.662   8.468 -2.0915  1.7058  0.6759
   77MOL0     H10340  11.198   4.501   8.648  0.1117  4.1238 -0.0870
   77MOL0     H10341  11.028   4.448   8.622 -0.2187  1.4282 -0.0153
   77MOL0     H10342  11.247   4.422   8.412 -1.3414  0.8708 -0.2118
   77MOL0     H10343  11.083   4.374   8.374 -0.9283  0.9891 -0.6631
   77MOL0     H10344  11.292   4.283   8.584  1.3802  1.5383 -3.1658
   77MOL0     H10345  11.127   4.208   8.590 -1.4217  0.8839 -0.2711
   77MOL0     H10346  11.047   4.095   8.320  1.3527  0.8530 -2.3510
   77MOL0     H10347  11.105   4.020   8.089 -0.6028  0.6880  0.1475
   77MOL0     H10348  11.283   3.987   8.056 -2.7279 -0.2753 -2.9384
   77MOL0     H10349  11.081   3.808   8.183 -0.9176 -0.4233 -0.7901
   77MOL0     H10350  11.148   3.770   8.035  1.2187 -1.5388  0.2385
   77MOL0     H10351  11.275   3.738   8.294  3.9670  2.6994  0.1873
   77MOL0     H10352  11.380   3.759   8.146  2.9448 -2.7049  3.3237
   77MOL0     H10353  11.312   3.527   8.194 -2.3296 -0.7664  1.9992
   77MOL0     H10354  11.285   3.603   8.021 -1.8989  0.2991 -0.9583
   77MOL0     H10355  10.886   3.492   8.116  3.3756  0.7257  3.9489
   77MOL0     H10356  10.785   3.324   7.974  1.1879 -0.9457  1.3580
   77MOL0     H10357  10.600   3.189   7.685  1.0518  0.2123 -0.5151
   77MOL0     H10358  10.466   3.035   7.532 -0.4802 -0.2391 -0.4646
   77MOL0     H10359  10.666   2.738   7.342 -0.1711  0.8697 -0.4610
   77MOL0     H10360  10.614   2.619   7.472 -0.6807 -1.5939 -1.6574
   77MOL0     H10361  10.398   2.593   7.376  1.5610 -3.1597  0.3361
   77MOL0     H10362  10.441   2.692   7.233 -1.7887  0.5224  1.6987
   77MOL0     H10363  10.628   2.509   7.192 -0.1147  0.3852 -0.6481
   77MOL0     H10364  10.573   2.437   7.344 -0.7956 -1.8352 -1.3944
   77MOL0     H10365  10.354   2.386   7.211  1.2348 -1.2657  1.6715
   77MOL0     H10366  10.493   2.315   7.145  0.3717 -0.0230 -3.0633
   77MOL0     H10367  10.524   2.538   6.986  0.0018  0.9637 -0.9652
   77MOL0     H10368  10.372   2.579   7.046  1.7833  1.9225 -3.1156
   77MOL0     H10369  10.427   2.310   6.907 -0.5096  0.0664 -0.0987
   77MOL0     H10370  10.272   2.372   6.931  0.4576 -2.4008 -1.2322
   77MOL0     H10371  10.347   2.384   6.704  0.3890 -2.0451  1.7151
   77MOL0     H10372  10.488   2.488   6.745 -0.5170 -0.5416 -1.6414
   77MOL0     H10373  10.337   2.674   6.824 -2.7563  3.2349 -1.3535
   77MOL0     H10374  10.333   2.630   6.650  2.1473  1.4188  1.1726
   77MOL0     H10375  10.766   2.745   7.565  0.5563 -0.1456 -1.1031
   77MOL0     H10376  10.879   2.856   7.729  0.2049  0.8841 -0.4945
   77MOL0     H10377  11.187   3.184   7.889 -1.3302  1.5389 -3.7284
   77MOL0     H10378  11.285   3.353   8.010  0.6914 -2.7956 -1.1694
   77MOL0     H10379  10.704   5.164   8.639  2.6469 -0.8064 -2.5636
   77MOL0     H10380  10.680   5.202   8.882 -0.4772 -2.6441 -1.0941
   77MOL0     H10381  11.111   5.493   9.280 -0.5127 -0.5572  1.0355
   77MOL0     H10382  11.058   5.593   9.469  0.8767  0.0106 -0.7355
   77MOL0     H10383  10.686   5.471   9.668  3.3378 -0.0892 -1.5844
   77MOL0     H10384  10.597   5.614   9.608 -0.4501  1.6867  2.0057
   77MOL0     H10385  10.661   5.745   9.792  0.5616 -0.4974  2.0164
   77MOL0     H10386  10.756   5.623   9.864 -1.2720 -1.0094  2.7549
   77MOL0     H10387  10.567   5.472   9.907 -0.9792 -0.4992 -2.5526
   77MOL0     H10388  10.459   5.560   9.812  0.4052 -1.1215 -0.7952
   77MOL0     H10389  10.472   5.753   9.965  0.3954  0.0946 -0.8654
   77MOL0     H10390  10.412   5.613  10.047  0.2251  3.6842  3.1371
   77MOL0     H10391  10.739   5.709  10.282  2.0837 -1.5127 -0.8171
   77MOL0     H10392  10.631   5.599   9.392  0.3986  2.0832 -0.8585
   77MOL0     H10393  10.561   5.539   9.173 -0.4408  0.3778 -1.2945
   77MOL0     H10394  10.672   5.581   9.057  2.5489 -1.7240  0.2887
   77MOL0     H10395  10.645   5.405   9.101 -1.6455 -1.4129 -1.0906
   78MOL0     O10396   4.713   3.827   2.817  0.3759  0.0219  0.3865
   78MOL0     C10397   4.791   3.844   2.914 -0.5378 -0.7626 -0.4175
   78MOL0     O10398   4.789   3.948   3.006  0.5925  0.1862  0.4753
   78MOL0     C10399   4.681   4.024   3.021  0.3298  0.2002  0.0940
   78MOL0     C10400   4.698   4.158   3.031  0.0054 -0.4001 -0.3685
   78MOL0     C10401   4.600   4.251   3.039 -0.1274  0.2635  0.8499
   78MOL0     C10402   4.467   4.206   3.040 -0.8807 -0.1584 -0.5921
   78MOL0     O10403   4.357   4.282   3.046  0.3368  0.4704  0.3499
   78MOL0     C10404   4.369   4.422   3.038  0.8662  0.0051 -0.4367
   78MOL0     C10405   4.413   4.489   3.172 -0.3641 -0.1358  0.0722
   78MOL0     C10406   4.413   4.638   3.151  0.0094  1.3500  0.9102
   78MOL0     C10407   4.426   4.712   3.282 -0.1365 -0.6918 -0.5255
   78MOL0     C10408   4.428   4.869   3.255 -0.0999  0.7947  1.0363
   78MOL0     C10409   4.402   4.947   3.372  0.0001 -1.5901 -1.3792
   78MOL0     C10410   4.487   4.912   3.493  0.2752 -0.0734 -0.0233
   78MOL0     C10411   4.467   5.007   3.614  0.5201 -0.1436 -0.1968
   78MOL0     N10412   4.335   4.998   3.685  0.0645  0.6719 -0.0470
   78MOL0     C10413   4.273   5.087   3.772 -0.5520  0.9573 -0.7066
   78MOL0     C10414   4.149   5.027   3.796 -0.7455  0.5991 -0.3486
   78MOL0     C10415   4.039   5.095   3.887 -0.3012  0.7870  0.7835
   78MOL0     C10416   4.010   5.230   3.826  0.5848 -0.4308 -0.7072
   78MOL0     C10417   3.917   5.220   3.714  0.4708  0.3777  1.0328
   78MOL0     C10418   3.901   5.361   3.652  0.3576  0.4614  0.3838
   78MOL0     O10419   3.871   5.460   3.757 -0.8364 -0.8291  0.8639
   78MOL0     C10420   3.759   5.526   3.760 -0.0029  0.2718 -0.3124
   78MOL0     C10421   3.752   5.663   3.796  0.6199  0.3745  0.3023
   78MOL0     C10422   3.636   5.740   3.781  0.0285  0.5076  0.2007
   78MOL0     C10423   3.527   5.680   3.717 -0.3130 -0.6087  0.8439
   78MOL0     C10424   3.414   5.766   3.679  0.1178 -1.1585 -0.8176
   78MOL0     O10425   3.423   5.901   3.693  0.2431 -0.6841  0.2094
   78MOL0     C10426   3.337   5.982   3.618  0.1539  0.3525 -0.5553
   78MOL0     C10427   3.382   6.023   3.495 -0.5663  0.0538  0.3100
   78MOL0     C10428   3.307   6.120   3.413 -0.3490 -0.1981 -0.0064
   78MOL0     C10429   3.184   6.170   3.453  0.8716 -0.1401 -0.0735
   78MOL0     O10430   3.118   6.270   3.374  0.2797 -0.0699 -0.3691
   78MOL0     C10431   2.973   6.293   3.392  0.3713 -1.2505  0.0951
   78MOL0     C10432   2.946   6.408   3.300  0.7208  0.3417  0.3691
   78MOL0     C10433   2.914   6.352   3.165  0.0985  0.2982  0.1902
   78MOL0     C10434   2.873   6.466   3.072  0.9118 -0.2203 -0.0590
   78MOL0     C10435   2.841   6.404   2.932 -0.2541 -0.1898  0.5639
   78MOL0     C10436   2.799   6.496   2.827  0.1282 -0.0379 -0.7182
   78MOL0     C10437   2.817   6.436   2.677 -0.7279 -0.2225 -0.3815
   78MOL0     C10438   2.700   6.472   2.575  0.2938  0.4036  0.0641
   78MOL0    Cl10439   2.677   6.638   2.550  0.2201 -0.7407  0.1014
   78MOL0     C10440   3.131   6.125   3.578  0.7528 -0.2680 -0.3805
   78MOL0     C10441   3.212   6.039   3.657 -1.0555 -0.1798 -0.2556
   78MOL0     O10442   3.315   5.712   3.643  0.6016  0.5485 -0.4326
   78MOL0     C10443   3.529   5.537   3.688 -0.9380  0.0875 -0.4597
   78MOL0     C10444   3.643   5.463   3.706 -0.2548 -0.6730 -0.4857
   78MOL0     N10445   4.137   4.915   3.729 -0.0407  1.4007 -0.3368
   78MOL0     N10446   4.256   4.889   3.667 -0.2325  0.4549 -0.5212
   78MOL0     C10447   4.442   4.069   3.027  0.1071  0.2872 -0.3265
   78MOL0     C10448   4.547   3.981   3.003 -0.0460 -0.8945 -0.5218
   78MOL0     C10449   4.902   3.757   2.916 -0.1733  0.6559  1.0442
   78MOL0     C10450   4.881   3.611   2.905  1.4762 -0.4436 -0.6619
   78MOL0     C10451   4.995   3.524   2.918 -0.5693 -0.5522  0.2822
   78MOL0     C10452   5.123   3.575   2.944  0.4863  0.2666  0.2367
   78MOL0     O10453   5.229   3.487   2.967  0.7106  0.0747  0.0149
   78MOL0     C10454   5.346   3.540   3.022 -0.4268 -0.5195  0.9528
   78MOL0     C10455   5.464   3.448   3.001 -0.0290  0.8617 -0.9715
   78MOL0     C10456   5.493   3.405   2.854  0.0220  0.2595 -0.2644
   78MOL0     C10457   5.629   3.348   2.826  0.6902 -0.1443 -1.1339
   78MOL0     C10458   5.737   3.448   2.806 -0.8308  0.2728  0.6400
   78MOL0     C10459   5.827   3.529   2.779  0.4176 -0.1589  0.0562
   78MOL0     C10460   5.136   3.710   2.958 -0.4863 -0.5357  0.4319
   78MOL0     C10461   5.033   3.803   2.931  0.6365  0.7143 -0.1780
   78MOL0     C10462   5.068   3.957   2.935  0.4526  0.0902 -0.7212
   78MOL0     H10463   4.801   4.189   3.042  0.1773 -0.4862 -1.6143
   78MOL0     H10464   4.622   4.356   3.057  0.4476  0.0766  1.3043
   78MOL0     H10465   4.432   4.455   2.954 -0.5766 -0.8860 -1.9276
   78MOL0     H10466   4.276   4.466   2.998  2.9131  4.2002 -1.1932
   78MOL0     H10467   4.505   4.448   3.215 -2.8483 -3.0658  3.1177
   78MOL0     H10468   4.344   4.471   3.254 -0.3465 -0.9158 -0.0791
   78MOL0     H10469   4.317   4.669   3.108  1.3738  2.8253 -1.3614
   78MOL0     H10470   4.482   4.656   3.068 -2.4992 -1.9749 -2.2164
   78MOL0     H10471   4.333   4.688   3.334  0.8879  1.2086  2.4366
   78MOL0     H10472   4.514   4.686   3.342 -0.5031 -1.2499 -0.2158
   78MOL0     H10473   4.526   4.894   3.212  0.1910 -0.2836  1.0456
   78MOL0     H10474   4.352   4.900   3.183  1.3622 -0.0589 -0.9735
   78MOL0     H10475   4.422   5.050   3.344  1.2771 -1.6131 -0.6313
   78MOL0     H10476   4.296   4.940   3.400  0.3556  1.0982  1.0111
   78MOL0     H10477   4.594   4.908   3.472  1.5363  1.6758  4.7966
   78MOL0     H10478   4.461   4.818   3.541  0.4261  1.6067  3.7007
   78MOL0     H10479   4.549   4.975   3.678 -1.6666 -2.5128  1.6108
   78MOL0     H10480   4.479   5.114   3.591 -2.5010  0.3297 -0.1213
   78MOL0     H10481   4.323   5.178   3.806  1.2645  0.3579 -1.6213
   78MOL0     H10482   3.950   5.032   3.876  1.4217 -1.6975  0.2726
   78MOL0     H10483   4.069   5.095   3.992  0.4495  0.4776  0.5722
   78MOL0     H10484   3.966   5.284   3.910 -1.2317 -4.1667  1.0332
   78MOL0     H10485   4.104   5.281   3.802  0.2610  1.6327  1.9568
   78MOL0     H10486   3.817   5.187   3.743  0.5133 -0.6080  0.1243
   78MOL0     H10487   3.949   5.147   3.639 -2.3181 -1.1225  1.1776
   78MOL0     H10488   3.837   5.359   3.564 -0.2593 -3.7680  0.7021
   78MOL0     H10489   3.991   5.394   3.600  1.0226 -1.8047  0.0058
   78MOL0     H10490   3.840   5.710   3.838  1.3404 -0.9577  0.3565
   78MOL0     H10491   3.636   5.847   3.803  0.5949  0.6159 -0.3192
   78MOL0     H10492   3.476   5.986   3.457 -0.2380  2.8211 -1.9418
   78MOL0     H10493   3.344   6.159   3.318 -0.4824 -1.1564 -0.4658
   78MOL0     H10494   2.912   6.205   3.367 -0.5480 -0.2077 -1.5259
   78MOL0     H10495   2.954   6.331   3.493 -0.2529  1.3933 -0.9382
   78MOL0     H10496   2.866   6.469   3.342  0.4321  1.1525 -1.2611
   78MOL0     H10497   3.033   6.475   3.304  1.5241 -0.7299  2.4215
   78MOL0     H10498   2.997   6.295   3.123 -1.3160 -2.4077  0.8249
   78MOL0     H10499   2.830   6.282   3.176 -1.0024  1.6069  0.3279
   78MOL0     H10500   2.949   6.545   3.066  0.6116  0.4212  3.1073
   78MOL0     H10501   2.781   6.505   3.115 -0.2902 -0.9972 -1.7841
   78MOL0     H10502   2.758   6.335   2.949 -2.8648  2.0141 -2.0086
   78MOL0     H10503   2.922   6.348   2.886  0.7512  3.1616 -2.1835
   78MOL0     H10504   2.700   6.538   2.845 -0.5088 -1.8987  0.4619
   78MOL0     H10505   2.866   6.582   2.834 -0.5511  0.3820  1.2657
   78MOL0     H10506   2.818   6.327   2.682 -4.1443 -0.5673 -3.4367
   78MOL0     H10507   2.917   6.471   2.648 -1.5732  2.3551 -0.4509
   78MOL0     H10508   2.724   6.426   2.479  1.0968 -0.0462  0.4633
   78MOL0     H10509   2.606   6.433   2.614  0.9594 -0.8817  0.4250
   78MOL0     H10510   3.038   6.162   3.620  0.2106 -2.3762  0.3744
   78MOL0     H10511   3.184   6.009   3.758 -2.1043  0.8735 -0.2240
   78MOL0     H10512   3.439   5.484   3.658 -0.9472 -0.6090  0.7108
   78MOL0     H10513   3.648   5.355   3.697 -1.2532 -0.9303  1.4939
   78MOL0     H10514   4.338   4.038   3.033 -0.7623  3.1130  2.0503
   78MOL0     H10515   4.517   3.878   2.988 -0.2040 -0.6773 -1.8400
   78MOL0     H10516   4.782   3.569   2.891  1.1331  0.8316 -2.3862
   78MOL0     H10517   4.992   3.415   2.915  2.5660 -1.2165  6.1129
   78MOL0     H10518   5.348   3.568   3.128 -2.5783 -1.3820  1.2655
   78MOL0     H10519   5.379   3.632   2.972 -2.0977  0.9857  2.4511
   78MOL0     H10520   5.459   3.358   3.063 -1.6496  2.9553  2.1565
   78MOL0     H10521   5.556   3.490   3.041  1.1392 -0.6757 -1.9109
   78MOL0     H10522   5.484   3.491   2.787 -0.2574  0.2022 -0.3016
   78MOL0     H10523   5.428   3.326   2.816 -1.3431  0.5824  1.3024
   78MOL0     H10524   5.663   3.277   2.901 -0.5305 -0.8740 -1.2498
   78MOL0     H10525   5.620   3.299   2.728  2.8653 -2.9426 -0.0533
   78MOL0     H10526   5.892   3.611   2.759  0.1558  0.8995  3.0051
   78MOL0     H10527   5.229   3.761   2.983  0.8129 -2.0586 -1.0338
   78MOL0     H10528   5.005   4.025   2.876  1.8559  0.0065 -2.3739
   78MOL0     H10529   5.061   3.971   3.043  0.7130 -2.9192 -0.2477
   78MOL0     H10530   5.170   3.971   2.897  1.1328  0.0652  1.0109
   79MOL0     O10531   5.708   5.726   3.111 -0.3979  0.2942  0.3461
   79MOL0     C10532   5.804   5.787   3.061 -0.2427 -0.7318 -1.0083
   79MOL0     O10533   5.911   5.723   2.990  0.3287  0.8425  0.5121
   79MOL0     C10534   5.883   5.632   2.897  0.5064 -0.4893 -0.1211
   79MOL0     C10535   5.993   5.612   2.812  0.2453 -0.1500 -0.7985
   79MOL0     C10536   5.983   5.520   2.705  0.1489 -0.1502 -0.1844
   79MOL0     C10537   5.870   5.444   2.689  0.1980 -0.0965  0.6212
   79MOL0     O10538   5.844   5.380   2.563 -0.1427  0.1673  0.9959
   79MOL0     C10539   5.891   5.424   2.439 -0.2244 -0.6500  0.5679
   79MOL0     C10540   6.007   5.342   2.410  0.2889  0.4996  0.5620
   79MOL0     C10541   5.980   5.186   2.414 -0.5970 -0.2088  0.3518
   79MOL0     C10542   6.107   5.103   2.394  0.2571  0.3975  0.5184
   79MOL0     C10543   6.069   4.958   2.433 -0.1710 -0.6301 -0.2002
   79MOL0     C10544   6.198   4.873   2.443  0.5197  1.0732 -0.4600
   79MOL0     C10545   6.170   4.731   2.490  0.1037  0.6995  0.0442
   79MOL0     C10546   6.104   4.650   2.382 -0.2983 -0.6242  0.3143
   79MOL0     N10547   6.135   4.517   2.407 -0.6247 -0.2270 -1.3904
   79MOL0     C10548   6.219   4.444   2.327  0.4255 -0.3437  0.4388
   79MOL0     C10549   6.230   4.333   2.401 -1.2326 -0.6569  1.5135
   79MOL0     C10550   6.327   4.220   2.362 -0.0568  1.2045  0.4749
   79MOL0     C10551   6.282   4.072   2.392  0.7953 -0.5217 -0.2209
   79MOL0     C10552   6.188   4.001   2.294 -0.4022 -0.5275  0.8971
   79MOL0     C10553   6.054   4.071   2.286  0.2059 -0.3322 -0.0711
   79MOL0     O10554   5.961   4.000   2.208 -0.2526  0.3190 -0.2476
   79MOL0     C10555   5.859   4.062   2.138  1.0875  0.7110 -0.9280
   79MOL0     C10556   5.810   4.186   2.178 -0.0359  0.4636 -0.0416
   79MOL0     C10557   5.707   4.257   2.112  0.3811  0.4809 -0.6562
   79MOL0     C10558   5.652   4.198   1.991  0.2406  0.8518 -0.0983
   79MOL0     C10559   5.550   4.265   1.922  0.3341 -0.3052  0.7540
   79MOL0     O10560   5.460   4.201   1.839 -0.7090  0.2805  1.3787
   79MOL0     C10561   5.339   4.252   1.813  0.1965 -0.0994  0.7411
   79MOL0     C10562   5.272   4.349   1.905 -1.1593 -0.6638 -0.2185
   79MOL0     C10563   5.157   4.414   1.854  0.2622 -0.3620  0.6602
   79MOL0     C10564   5.086   4.374   1.745 -1.1571  0.5685  0.5919
   79MOL0     O10565   4.965   4.432   1.730  0.1856  0.7000 -0.4548
   79MOL0     C10566   4.890   4.401   1.613 -0.7216 -0.3404 -0.4300
   79MOL0     C10567   4.763   4.492   1.613 -0.0535  0.2879  0.3789
   79MOL0     C10568   4.785   4.643   1.563  0.7463  0.7111  0.0325
   79MOL0     C10569   4.644   4.723   1.562 -0.1051 -0.7868  0.1893
   79MOL0     C10570   4.638   4.869   1.621 -0.3887  0.2406 -0.4680
   79MOL0     C10571   4.501   4.934   1.596  0.5281 -0.4251 -0.9446
   79MOL0     C10572   4.470   5.073   1.663 -0.4729  0.3853 -1.3766
   79MOL0     C10573   4.499   5.104   1.814  0.0638  0.2163  0.8561
   79MOL0    Cl10574   4.403   5.253   1.837 -0.4278 -0.1777 -0.1975
   79MOL0     C10575   5.142   4.276   1.662 -0.4265 -0.7792 -0.7683
   79MOL0     C10576   5.264   4.220   1.700 -1.2094 -0.4225 -0.2524
   79MOL0     O10577   5.554   4.386   1.930  0.1352  0.0471 -0.2969
   79MOL0     C10578   5.701   4.072   1.953  0.6085 -0.4516  0.2117
   79MOL0     C10579   5.797   4.002   2.025 -0.1540 -0.7506 -0.5911
   79MOL0     N10580   6.151   4.333   2.508 -0.2414 -0.7083 -0.8088
   79MOL0     N10581   6.097   4.454   2.516  0.2612  1.0165  0.3508
   79MOL0     C10582   5.764   5.467   2.778 -0.7833 -1.3493 -0.0396
   79MOL0     C10583   5.767   5.552   2.896  0.0211 -0.4716  1.0009
   79MOL0     C10584   5.820   5.931   3.096 -0.1688 -0.3424  0.1073
   79MOL0     C10585   5.952   5.978   3.085 -1.2280  0.2724  0.7694
   79MOL0     C10586   5.972   6.119   3.115  0.4066 -0.3215  1.7403
   79MOL0     C10587   5.858   6.202   3.152  0.8398 -0.5996 -0.4308
   79MOL0     O10588   5.889   6.334   3.188  0.4486  0.6668 -0.3745
   79MOL0     C10589   5.800   6.439   3.222  0.0830 -0.6552  0.2323
   79MOL0     C10590   5.888   6.570   3.217 -0.1387  0.2576  0.4611
   79MOL0     C10591   5.883   6.649   3.083 -0.3986 -0.1563  0.3614
   79MOL0     C10592   5.997   6.749   3.075  0.2620  0.6953 -0.9551
   79MOL0     C10593   5.955   6.848   2.966 -0.4718  0.4675 -0.2886
   79MOL0     C10594   5.905   6.911   2.878  0.0996  0.2398 -0.7026
   79MOL0     C10595   5.743   6.141   3.194 -0.0736 -0.2466 -0.3120
   79MOL0     C10596   5.714   6.012   3.147  0.3476 -0.5583  0.9415
   79MOL0     C10597   5.563   5.968   3.169  0.4000  0.2775 -0.3129
   79MOL0     H10598   6.083   5.669   2.832  0.1624 -0.4705  0.5927
   79MOL0     H10599   6.072   5.496   2.647  1.7145  0.4881  1.8052
   79MOL0     H10600   5.812   5.423   2.363  0.4264 -3.0145 -0.1573
   79MOL0     H10601   5.915   5.530   2.453 -0.6303 -0.7005  1.7373
   79MOL0     H10602   6.095   5.372   2.468  2.4627  2.5798 -3.3541
   79MOL0     H10603   6.037   5.368   2.308 -0.8527 -1.2413 -0.2660
   79MOL0     H10604   5.910   5.163   2.334  2.5799 -0.5175 -2.5332
   79MOL0     H10605   5.940   5.167   2.515 -2.2685  1.1760  0.0014
   79MOL0     H10606   6.140   5.100   2.289  1.6664 -0.1766  0.9559
   79MOL0     H10607   6.183   5.142   2.463 -1.5756 -0.1688  2.9607
   79MOL0     H10608   6.024   4.960   2.532 -2.3726 -0.4619 -1.1348
   79MOL0     H10609   5.989   4.902   2.383 -0.8035 -1.3608  1.5577
   79MOL0     H10610   6.239   4.867   2.341 -1.1013  0.7326 -1.1294
   79MOL0     H10611   6.268   4.929   2.506 -0.2179 -0.4459  1.8123
   79MOL0     H10612   6.114   4.706   2.581  0.5950  1.4521  0.5673
   79MOL0     H10613   6.268   4.686   2.508  0.0502 -0.6078 -2.5144
   79MOL0     H10614   5.996   4.662   2.388 -0.4800 -2.4636  1.6892
   79MOL0     H10615   6.133   4.684   2.283 -2.0395  2.2012  0.6743
   79MOL0     H10616   6.276   4.484   2.244 -1.6600  0.0567 -0.8623
   79MOL0     H10617   6.359   4.224   2.258  0.0305  0.6422  0.4768
   79MOL0     H10618   6.418   4.232   2.421  1.5946 -0.7715 -1.4810
   79MOL0     H10619   6.367   4.004   2.402  2.2505  0.7923 -2.6769
   79MOL0     H10620   6.230   4.076   2.488 -1.0981  2.0756 -1.2194
   79MOL0     H10621   6.183   3.897   2.328  1.4880 -0.1330  2.6009
   79MOL0     H10622   6.223   4.001   2.190 -2.8091  2.8206 -0.0664
   79MOL0     H10623   6.077   4.166   2.236  0.5981  0.4322  1.4763
   79MOL0     H10624   6.022   4.097   2.387  1.1108 -1.6009  0.5644
   79MOL0     H10625   5.851   4.242   2.262 -1.5843 -0.8667  1.7039
   79MOL0     H10626   5.685   4.361   2.134  1.8264  0.3412  1.8854
   79MOL0     H10627   5.302   4.386   2.002  1.4301  1.1870 -1.6009
   79MOL0     H10628   5.109   4.491   1.913 -1.4965 -0.6499 -0.3158
   79MOL0     H10629   4.945   4.410   1.519  0.9075  0.7529  0.5912
   79MOL0     H10630   4.838   4.305   1.602  0.3610 -1.0437  0.4918
   79MOL0     H10631   4.702   4.459   1.528  1.5759 -0.1412 -0.6723
   79MOL0     H10632   4.722   4.471   1.712  3.6947  0.2013  2.0953
   79MOL0     H10633   4.858   4.682   1.634  1.3095 -1.8064  0.9278
   79MOL0     H10634   4.821   4.649   1.460 -2.0065 -0.3726 -1.0997
   79MOL0     H10635   4.574   4.667   1.624 -1.5972  1.8702  1.0926
   79MOL0     H10636   4.600   4.714   1.462 -0.3122 -2.7199  0.4170
   79MOL0     H10637   4.707   4.930   1.561 -4.2063  3.6633 -1.8890
   79MOL0     H10638   4.664   4.855   1.726 -0.0052 -0.7733 -0.6901
   79MOL0     H10639   4.486   4.952   1.489 -3.9688 -1.4731 -0.6766
   79MOL0     H10640   4.433   4.859   1.636  1.2007 -0.0967  0.9092
   79MOL0     H10641   4.365   5.100   1.650 -0.0149  3.2106 -0.0318
   79MOL0     H10642   4.509   5.156   1.604 -2.8449  3.2660  0.7887
   79MOL0     H10643   4.467   5.028   1.887  2.9442 -2.3418 -0.3287
   79MOL0     H10644   4.604   5.132   1.819 -0.4575  2.4397  0.4688
   79MOL0     H10645   5.098   4.260   1.564  1.2746 -2.1537 -1.3654
   79MOL0     H10646   5.316   4.159   1.627 -0.5305  2.0200 -1.9666
   79MOL0     H10647   5.652   4.019   1.871 -1.2842  0.8469  0.4467
   79MOL0     H10648   5.816   3.898   2.004 -2.4383 -1.2604 -0.4400
   79MOL0     H10649   5.675   5.407   2.760 -0.9819 -1.2421  0.5481
   79MOL0     H10650   5.682   5.548   2.963 -1.0190 -0.2551 -0.2768
   79MOL0     H10651   6.043   5.923   3.066 -0.2069  1.8685  0.8724
   79MOL0     H10652   6.069   6.166   3.104  0.4023 -0.9380 -2.4892
   79MOL0     H10653   5.754   6.428   3.321 -2.3229  0.1107 -0.7158
   79MOL0     H10654   5.716   6.451   3.152 -1.2262 -0.6162  1.7716
   79MOL0     H10655   5.990   6.530   3.218 -0.8303 -1.6481 -0.4653
   79MOL0     H10656   5.885   6.641   3.301  1.9015  1.4648 -0.3893
   79MOL0     H10657   5.789   6.703   3.074  0.4836  1.4681  0.5527
   79MOL0     H10658   5.877   6.569   3.008 -0.8298  1.1869 -1.1051
   79MOL0     H10659   6.014   6.811   3.163 -0.8531  0.2583 -0.4191
   79MOL0     H10660   6.094   6.703   3.053  0.4274  0.0963  0.8548
   79MOL0     H10661   5.869   6.955   2.787  2.0720  2.0181 -0.6911
   79MOL0     H10662   5.658   6.194   3.237  1.2188  0.9186  0.8947
   79MOL0     H10663   5.489   6.043   3.199 -1.4561 -1.2697 -0.8877
   79MOL0     H10664   5.527   5.919   3.079 -0.3156  1.6434 -0.8067
   79MOL0     H10665   5.567   5.898   3.253  0.6480  1.6312  0.8525
   80MOL0     O10666   6.988   0.232   6.632  0.6370 -0.0290 -0.3885
   80MOL0     C10667   7.022   0.320   6.710  0.6311  0.1719  0.2571
   80MOL0     O10668   6.946   0.376   6.816 -0.8750  0.9386 -0.3327
   80MOL0     C10669   6.831   0.330   6.855 -0.0721 -0.6100  0.7830
   80MOL0     C10670   6.807   0.199   6.875  0.2126  0.5974 -0.5513
   80MOL0     C10671   6.683   0.146   6.915  0.2950  0.9726 -0.0543
   80MOL0     C10672   6.578   0.233   6.945 -0.0887 -0.4062  0.5624
   80MOL0     O10673   6.445   0.201   6.975  0.2294  0.0312 -0.4727
   80MOL0     C10674   6.404   0.060   6.968  0.3470  0.4911  0.2267
   80MOL0     C10675   6.270   0.044   7.031 -0.1990 -0.3643 -0.3402
   80MOL0     C10676   6.238  -0.114   7.068 -0.0280  0.0174  0.1082
   80MOL0     C10677   6.240  -0.142   7.226 -0.2300 -0.2093 -0.1518
   80MOL0     C10678   6.122  -0.084   7.306 -0.1433  0.2090  0.4026
   80MOL0     C10679   6.115  -0.180   7.433  0.1738 -0.1985  0.1277
   80MOL0     C10680   6.002  -0.126   7.528 -1.1899 -0.4488 -0.1160
   80MOL0     C10681   6.009   0.013   7.593 -1.5020 -0.0874  0.4293
   80MOL0     N10682   6.135   0.008   7.675 -0.3373 -0.2110  0.5871
   80MOL0     C10683   6.242   0.083   7.659 -0.4371 -0.6195  0.5257
   80MOL0     C10684   6.324   0.062   7.761  0.0910  0.1467 -0.7616
   80MOL0     C10685   6.449   0.127   7.805 -0.2556 -0.7473 -0.1903
   80MOL0     C10686   6.405   0.251   7.893 -0.4453 -0.5143  0.0922
   80MOL0     C10687   6.530   0.312   7.968  1.0505 -0.7914 -0.3243
   80MOL0     C10688   6.575   0.225   8.086  0.0081 -0.2710 -0.2062
   80MOL0     O10689   6.477   0.218   8.194 -0.0775 -0.4090  0.1381
   80MOL0     C10690   6.500   0.138   8.306  0.8339 -0.4034 -0.7646
   80MOL0     C10691   6.569   0.013   8.297 -0.3823 -0.2850 -0.9192
   80MOL0     C10692   6.543  -0.095   8.379 -0.2625 -0.0441  0.3462
   80MOL0     C10693   6.467  -0.068   8.498  0.6561  0.3917  0.0928
   80MOL0     C10694   6.450  -0.173   8.597  0.2184 -0.3531 -0.0847
   80MOL0     O10695   6.376  -0.146   8.713  0.0704  1.2672  0.1923
   80MOL0     C10696   6.391  -0.231   8.823 -0.5856  1.0031  0.3138
   80MOL0     C10697   6.520  -0.264   8.874 -0.2970  0.4491 -0.1491
   80MOL0     C10698   6.541  -0.343   8.986 -0.6073  0.4734  0.7977
   80MOL0     C10699   6.430  -0.397   9.052  0.7740  0.0330  0.1050
   80MOL0     O10700   6.444  -0.486   9.155  0.2854 -1.0102 -0.0833
   80MOL0     C10701   6.547  -0.463   9.255  0.5739 -0.7013  0.2908
   80MOL0     C10702   6.523  -0.544   9.390 -0.3261  0.0674  0.1507
   80MOL0     C10703   6.646  -0.569   9.480  0.4987 -0.5063 -0.0838
   80MOL0     C10704   6.770  -0.646   9.440  0.3224 -1.1991  0.1587
   80MOL0     C10705   6.746  -0.766   9.353 -1.0077  0.2629 -0.2722
   80MOL0     C10706   6.883  -0.792   9.290 -0.0495  0.7952 -0.7382
   80MOL0     C10707   6.932  -0.691   9.178 -0.3898  0.3906  0.1349
   80MOL0     C10708   7.061  -0.728   9.113  0.1827  0.3434  0.2891
   80MOL0    Cl10709   7.191  -0.764   9.233 -0.1435 -0.3362 -0.0491
   80MOL0     C10710   6.305  -0.370   8.998  0.0675  0.5081  0.4179
   80MOL0     C10711   6.286  -0.292   8.887  0.5089 -0.0883  0.0614
   80MOL0     O10712   6.503  -0.278   8.565  0.2732 -0.1865  0.7533
   80MOL0     C10713   6.418   0.062   8.526  0.8651 -0.1127 -0.2174
   80MOL0     C10714   6.417   0.154   8.424  0.0246  0.3839  0.7911
   80MOL0     N10715   6.271  -0.037   7.841  0.3401 -0.2875  0.5410
   80MOL0     N10716   6.153  -0.069   7.787 -0.5239 -0.3616 -0.1732
   80MOL0     C10717   6.607   0.370   6.940 -0.3934  0.3180 -0.4768
   80MOL0     C10718   6.732   0.420   6.893 -0.0595 -0.2366 -0.5919
   80MOL0     C10719   7.159   0.370   6.695 -0.2515  0.3654 -0.7788
   80MOL0     C10720   7.208   0.380   6.567  0.1325 -0.7388  0.8638
   80MOL0     C10721   7.332   0.435   6.539  0.6977  0.2994  0.8410
   80MOL0     C10722   7.418   0.480   6.641 -0.2110 -0.4812  0.4896
   80MOL0     O10723   7.535   0.543   6.617 -0.2515 -0.2718 -0.1584
   80MOL0     C10724   7.560   0.619   6.497 -0.2063  0.5756 -0.1241
   80MOL0     C10725   7.452   0.717   6.457  0.3186 -0.2504  0.2936
   80MOL0     C10726   7.475   0.786   6.326 -0.3012 -0.3992 -1.3279
   80MOL0     C10727   7.559   0.920   6.333 -0.3142 -0.0971 -0.3884
   80MOL0     C10728   7.500   1.026   6.407  0.5290  1.0737 -0.9676
   80MOL0     C10729   7.440   1.109   6.470  1.2318  0.2516  0.1871
   80MOL0     C10730   7.371   0.475   6.775 -0.1432 -0.6294 -0.1621
   80MOL0     C10731   7.240   0.421   6.802  0.8044 -0.9664 -0.2874
   80MOL0     C10732   7.201   0.429   6.939  0.3097 -0.1224 -0.5411
   80MOL0     H10733   6.886   0.125   6.861  0.0193  0.7779 -3.1009
   80MOL0     H10734   6.663   0.039   6.915 -1.5437  1.2681  0.5203
   80MOL0     H10735   6.406   0.013   6.869 -1.0883 -0.6312  0.6926
   80MOL0     H10736   6.474  -0.000   7.028  2.0300  0.9748 -1.1822
   80MOL0     H10737   6.191   0.084   6.967  1.0626  1.5805 -0.7615
   80MOL0     H10738   6.281   0.098   7.126 -2.4260  0.0932 -0.2995
   80MOL0     H10739   6.311  -0.184   7.028  0.1998 -3.0148  5.0280
   80MOL0     H10740   6.138  -0.148   7.039 -0.2603  1.2170 -0.5910
   80MOL0     H10741   6.227  -0.250   7.235  2.7460 -0.5413  1.8976
   80MOL0     H10742   6.331  -0.111   7.279 -0.3070 -1.3903  0.6896
   80MOL0     H10743   6.128   0.023   7.327  0.5247  0.7377 -2.1946
   80MOL0     H10744   6.037  -0.107   7.241 -0.4281  2.1644  0.0370
   80MOL0     H10745   6.102  -0.287   7.415  2.6923 -1.5325  4.6790
   80MOL0     H10746   6.215  -0.165   7.474  0.5386  2.2045 -1.4187
   80MOL0     H10747   5.984  -0.204   7.602 -2.5332 -1.0572 -1.0396
   80MOL0     H10748   5.913  -0.107   7.467  0.5772  4.7411 -1.6720
   80MOL0     H10749   6.019   0.089   7.515  1.2090 -3.1611 -2.5494
   80MOL0     H10750   5.924   0.036   7.658 -2.4321 -2.5400  0.1784
   80MOL0     H10751   6.266   0.140   7.569  0.8454 -1.8454  0.0461
   80MOL0     H10752   6.520   0.064   7.859  3.5110  2.6475 -0.6874
   80MOL0     H10753   6.517   0.165   7.728  0.5629  1.4517  1.4985
   80MOL0     H10754   6.365   0.333   7.832 -2.4073 -1.1371  0.4561
   80MOL0     H10755   6.334   0.212   7.967 -1.1163 -1.4316 -0.9824
   80MOL0     H10756   6.492   0.406   8.011 -0.0534 -0.6440 -1.5666
   80MOL0     H10757   6.608   0.348   7.901  1.3758 -0.3721  0.2647
   80MOL0     H10758   6.662   0.270   8.134 -0.5655  0.1756  0.4378
   80MOL0     H10759   6.590   0.124   8.044  3.2694 -0.1798  0.4888
   80MOL0     H10760   6.638   0.013   8.213  0.2158 -2.1964 -0.4760
   80MOL0     H10761   6.571  -0.197   8.354 -0.1723 -0.0763  0.5728
   80MOL0     H10762   6.602  -0.227   8.814 -1.1786  0.3948 -1.4394
   80MOL0     H10763   6.642  -0.374   9.012  0.5665 -0.5167 -3.8626
   80MOL0     H10764   6.650  -0.472   9.220  0.2708 -1.0593 -0.5320
   80MOL0     H10765   6.536  -0.361   9.294 -0.7463 -1.7788  3.0250
   80MOL0     H10766   6.457  -0.489   9.457  0.6043  0.5841  0.6589
   80MOL0     H10767   6.463  -0.635   9.374 -0.0339 -0.1573  0.3311
   80MOL0     H10768   6.655  -0.484   9.547  0.4638 -2.3205  2.3771
   80MOL0     H10769   6.597  -0.634   9.554  0.7939 -1.1787 -0.4629
   80MOL0     H10770   6.816  -0.679   9.534  2.3664 -4.2663 -1.7473
   80MOL0     H10771   6.848  -0.576   9.408  0.3116 -0.6660  1.2611
   80MOL0     H10772   6.671  -0.736   9.280 -1.0814  1.7947  0.3877
   80MOL0     H10773   6.713  -0.854   9.408 -0.6601 -0.6074 -1.4278
   80MOL0     H10774   6.950  -0.796   9.376  0.3728 -1.9354 -1.0905
   80MOL0     H10775   6.870  -0.889   9.240 -2.2574  0.1873  0.8571
   80MOL0     H10776   6.935  -0.589   9.218  0.4912 -0.0641  1.2716
   80MOL0     H10777   6.856  -0.697   9.099 -1.1660  0.9175  0.8295
   80MOL0     H10778   7.042  -0.818   9.053  0.6020  1.1672 -1.1177
   80MOL0     H10779   7.101  -0.657   9.040  1.0687 -1.3452 -0.9532
   80MOL0     H10780   6.223  -0.422   9.046 -0.1267  0.6939  0.2918
   80MOL0     H10781   6.187  -0.287   8.845  0.5621 -0.2413 -0.0846
   80MOL0     H10782   6.382   0.090   8.625 -3.0459 -2.6223 -0.7369
   80MOL0     H10783   6.346   0.237   8.423 -0.3558  0.3006 -4.2185
   80MOL0     H10784   6.530   0.443   6.963 -1.6164 -0.4652 -1.9133
   80MOL0     H10785   6.748   0.524   6.868 -0.1242 -0.3443 -1.0850
   80MOL0     H10786   7.149   0.357   6.479  0.1173  2.4719 -0.1247
   80MOL0     H10787   7.360   0.446   6.434 -1.6906 -1.7457 -0.1128
   80MOL0     H10788   7.583   0.549   6.416  3.1929  2.1187 -0.6703
   80MOL0     H10789   7.651   0.680   6.508  1.3517 -1.0221 -2.9839
   80MOL0     H10790   7.448   0.788   6.540  2.4812 -1.1354  1.2346
   80MOL0     H10791   7.359   0.667   6.429  0.7260  0.6553 -3.0973
   80MOL0     H10792   7.374   0.811   6.293 -0.6533  1.5455  0.9819
   80MOL0     H10793   7.538   0.730   6.255  0.0857  0.3983 -1.6214
   80MOL0     H10794   7.657   0.885   6.368  2.1965  1.9108 -4.5253
   80MOL0     H10795   7.580   0.948   6.229 -1.4642  0.9391 -0.3579
   80MOL0     H10796   7.395   1.185   6.531  1.4345  0.7683 -0.3017
   80MOL0     H10797   7.436   0.519   6.851  0.6075  1.6618 -2.0069
   80MOL0     H10798   7.129   0.509   6.962 -0.4647 -0.0154 -3.0861
   80MOL0     H10799   7.165   0.329   6.963  0.7582 -0.3032 -0.6129
   80MOL0     H10800   7.280   0.432   7.015 -1.6174  0.7722  1.5483
   81MOL0     O10801   0.974   6.619  11.508 -1.2129 -0.1555 -0.7669
   81MOL0     C10802   0.998   6.543  11.414 -0.2246  0.3290 -0.2491
   81MOL0     O10803   1.116   6.474  11.398  0.3240  0.5193  0.1184
   81MOL0     C10804   1.228   6.483  11.472  0.1156 -0.8370  0.2828
   81MOL0     C10805   1.235   6.555  11.590 -0.6111 -0.3198 -0.7909
   81MOL0     C10806   1.363   6.561  11.651  0.6501  0.3011 -0.2529
   81MOL0     C10807   1.483   6.521  11.590 -1.1132  0.4392 -1.5870
   81MOL0     O10808   1.597   6.534  11.675  0.4533  0.4025  0.0029
   81MOL0     C10809   1.727   6.503  11.636  0.2674  0.7718 -0.5937
   81MOL0     C10810   1.795   6.617  11.562  0.7552 -0.1078 -0.0451
   81MOL0     C10811   1.814   6.736  11.667 -0.3325 -0.5558 -0.0136
   81MOL0     C10812   1.708   6.847  11.669 -0.0168  0.6928  0.3879
   81MOL0     C10813   1.715   6.953  11.788  0.0009  1.1451 -0.4076
   81MOL0     C10814   1.848   7.028  11.778 -0.1851  0.4794  0.1495
   81MOL0     C10815   1.847   7.158  11.854 -1.1997 -0.4262 -0.6703
   81MOL0     C10816   1.844   7.145  12.009 -1.4719 -0.8798  0.3670
   81MOL0     N10817   1.900   7.256  12.081  0.9502 -0.0018  0.1889
   81MOL0     C10818   2.015   7.270  12.155 -0.1389  0.6503  0.1598
   81MOL0     C10819   2.035   7.402  12.186 -0.5108 -0.4835 -1.0647
   81MOL0     C10820   2.148   7.474  12.258 -0.5495 -0.5910  0.0959
   81MOL0     C10821   2.104   7.517  12.397  0.2995  0.4992 -0.1831
   81MOL0     C10822   2.215   7.594  12.480 -0.9150 -0.3359  0.1103
   81MOL0     C10823   2.174   7.641  12.619  0.3815 -0.6986  0.3667
   81MOL0     O10824   2.085   7.742  12.573 -0.1504 -0.5335 -0.2901
   81MOL0     C10825   2.032   7.803  12.681  0.3971 -0.0958 -0.0075
   81MOL0     C10826   2.007   7.753  12.810 -0.1365 -0.5653 -0.5961
   81MOL0     C10827   1.953   7.837  12.904  0.8699 -0.2042  0.2008
   81MOL0     C10828   1.920   7.976  12.871  1.2011  0.2787 -0.7296
   81MOL0     C10829   1.881   8.069  12.986 -0.5845 -0.4240 -0.6934
   81MOL0     O10830   1.897   8.198  12.958  0.2253 -0.0692 -0.6203
   81MOL0     C10831   1.855   8.287  13.047  0.3053 -0.2867 -0.1257
   81MOL0     C10832   1.946   8.379  13.082 -0.2598 -0.4108 -0.6711
   81MOL0     C10833   1.908   8.485  13.165  0.8722  0.0122 -0.2161
   81MOL0     C10834   1.776   8.499  13.213  0.1138  0.3533  0.8413
   81MOL0     O10835   1.733   8.617  13.272  0.0049 -0.5449  1.2940
   81MOL0     C10836   1.716   8.610  13.412 -0.1772  0.2989  0.3161
   81MOL0     C10837   1.698   8.751  13.476 -0.0589 -0.6813 -0.0351
   81MOL0     C10838   1.556   8.806  13.447 -0.2764  1.0037 -0.2200
   81MOL0     C10839   1.466   8.761  13.556  0.4581  0.5621 -1.1326
   81MOL0     C10840   1.432   8.875  13.651 -0.2412 -0.3440 -1.0365
   81MOL0     C10841   1.325   8.819  13.741  1.5123  0.2481 -1.0580
   81MOL0     C10842   1.284   8.901  13.860 -0.0481  0.3000 -0.2240
   81MOL0     C10843   1.160   8.851  13.932 -0.6306 -0.5045  0.0993
   81MOL0    Cl10844   1.118   8.951  14.075 -0.2329  0.2674 -0.1211
   81MOL0     C10845   1.670   8.410  13.164 -0.6843 -0.0663 -0.7709
   81MOL0     C10846   1.721   8.300  13.091 -0.2992 -0.2626  0.6556
   81MOL0     O10847   1.842   8.016  13.093 -1.2704  0.2813  0.4486
   81MOL0     C10848   1.937   8.018  12.741 -0.2812 -0.0349 -0.1746
   81MOL0     C10849   1.990   7.928  12.648  0.0246 -0.0828  0.0754
   81MOL0     N10850   1.923   7.470  12.137  0.3510  0.4937 -0.1673
   81MOL0     N10851   1.839   7.382  12.079 -0.7316 -0.6357  0.1242
   81MOL0     C10852   1.472   6.453  11.464  0.7649 -0.6320  1.1654
   81MOL0     C10853   1.339   6.430  11.410 -1.3797 -0.7698  0.6769
   81MOL0     C10854   0.887   6.511  11.315 -0.2341  0.1503  0.4361
   81MOL0     C10855   0.914   6.535  11.180  0.0776 -0.1336 -0.1042
   81MOL0     C10856   0.841   6.476  11.081  0.8613  0.2477 -0.2202
   81MOL0     C10857   0.732   6.401  11.112 -0.3587  0.3556  0.6945
   81MOL0     O10858   0.657   6.324  11.024  0.6856  0.4515  0.0471
   81MOL0     C10859   0.653   6.368  10.888 -0.0943 -0.0087 -0.2978
   81MOL0     C10860   0.542   6.286  10.819 -0.3802 -0.6986 -0.3902
   81MOL0     C10861   0.515   6.339  10.674  0.6114 -0.3202 -0.3835
   81MOL0     C10862   0.448   6.241  10.576 -0.2368 -0.4616  0.1501
   81MOL0     C10863   0.543   6.128  10.554 -0.8734 -0.1498  0.7626
   81MOL0     C10864   0.637   6.059  10.511  0.7595  0.0318  0.1824
   81MOL0     C10865   0.689   6.386  11.242  0.4321  0.2000  0.1364
   81MOL0     C10866   0.771   6.432  11.344  0.6338 -0.1699  0.1308
   81MOL0     C10867   0.729   6.413  11.490 -0.8220 -0.2638  0.6695
   81MOL0     H10868   1.146   6.584  11.645 -0.6228 -0.0982 -0.9272
   81MOL0     H10869   1.376   6.602  11.751 -2.3640 -2.4657  1.4632
   81MOL0     H10870   1.783   6.485  11.728 -2.5317  3.5099  1.8839
   81MOL0     H10871   1.719   6.411  11.577  0.4102  0.2703  0.1633
   81MOL0     H10872   1.720   6.657  11.493  1.6886  3.4831  0.7848
   81MOL0     H10873   1.893   6.603  11.515  1.6040  1.3618  1.1695
   81MOL0     H10874   1.907   6.789  11.647  0.0087 -1.7266 -1.6652
   81MOL0     H10875   1.816   6.701  11.771 -2.6309  0.7890  0.5768
   81MOL0     H10876   1.728   6.896  11.573  6.3685  0.6095  1.2535
   81MOL0     H10877   1.607   6.805  11.665  0.0577  0.5153 -3.5906
   81MOL0     H10878   1.632   7.023  11.775 -1.6688 -0.9154 -1.3870
   81MOL0     H10879   1.728   6.902  11.884 -1.2956 -2.6279 -2.0553
   81MOL0     H10880   1.929   6.960  11.805 -0.6765  0.3671  1.4202
   81MOL0     H10881   1.878   7.048  11.675 -0.6403  0.4305  0.0029
   81MOL0     H10882   1.772   7.232  11.826  0.2544  2.3252  2.0507
   81MOL0     H10883   1.945   7.200  11.828 -1.6297  0.0819 -1.4992
   81MOL0     H10884   1.742   7.134  12.049 -0.0352 -0.8640  4.5511
   81MOL0     H10885   1.904   7.057  12.037 -2.5310 -2.2323 -1.4081
   81MOL0     H10886   2.089   7.193  12.173 -1.6695 -1.6293 -2.3949
   81MOL0     H10887   2.236   7.411  12.268 -0.3145 -0.0480  1.8988
   81MOL0     H10888   2.170   7.561  12.195 -3.8480  0.6034  0.3737
   81MOL0     H10889   2.023   7.590  12.395 -0.8794 -0.8010 -1.5168
   81MOL0     H10890   2.061   7.433  12.452  1.3971  1.1347  1.7564
   81MOL0     H10891   2.245   7.682  12.422  0.6656  1.1777  2.9563
   81MOL0     H10892   2.296   7.522  12.495  0.1451  1.2026  2.2567
   81MOL0     H10893   2.243   7.678  12.695  1.8631  0.0667 -1.2611
   81MOL0     H10894   2.114   7.565  12.669  0.4184 -3.2636 -3.0815
   81MOL0     H10895   2.039   7.655  12.843 -0.8474 -0.8896 -0.8576
   81MOL0     H10896   1.947   7.808  13.008  2.8949  0.6461  0.6054
   81MOL0     H10897   2.044   8.381  13.036  1.5480 -0.1308  2.8849
   81MOL0     H10898   1.982   8.563  13.176  2.5750 -1.5778 -0.0196
   81MOL0     H10899   1.629   8.547  13.434  2.1447 -4.0010 -1.6252
   81MOL0     H10900   1.807   8.570  13.457  2.2374  2.1992 -2.5195
   81MOL0     H10901   1.707   8.735  13.584 -0.8716 -3.6341 -0.3107
   81MOL0     H10902   1.777   8.819  13.443 -0.2496 -0.5696 -0.2689
   81MOL0     H10903   1.564   8.915  13.446 -1.2058  1.1290 -3.0717
   81MOL0     H10904   1.517   8.781  13.348 -1.0978  0.7178  0.1644
   81MOL0     H10905   1.506   8.675  13.609  1.8784 -0.2906 -3.4207
   81MOL0     H10906   1.368   8.723  13.523 -2.5010  3.3139  3.4418
   81MOL0     H10907   1.397   8.963  13.596  1.5136 -0.0450 -1.7481
   81MOL0     H10908   1.521   8.909  13.705  0.4180  1.1331 -2.9089
   81MOL0     H10909   1.239   8.811  13.673  1.1196  0.4867 -0.5999
   81MOL0     H10910   1.357   8.723  13.784 -0.2023 -0.6853 -1.7764
   81MOL0     H10911   1.271   9.005  13.831  3.7825  0.5189 -1.7170
   81MOL0     H10912   1.365   8.890  13.933 -2.8835 -1.4028  2.9690
   81MOL0     H10913   1.075   8.881  13.871 -1.0890  0.5870  1.2358
   81MOL0     H10914   1.172   8.742  13.943 -0.3093 -0.5301 -0.4477
   81MOL0     H10915   1.563   8.424  13.177 -0.5193 -0.0689  0.7639
   81MOL0     H10916   1.660   8.228  13.036  1.4589 -0.9502 -0.4855
   81MOL0     H10917   1.921   8.123  12.719 -0.5927  0.1872  1.0444
   81MOL0     H10918   1.998   7.978  12.552 -2.2844  0.7639  0.2796
   81MOL0     H10919   1.560   6.409  11.418 -0.6679 -1.2949 -1.1245
   81MOL0     H10920   1.337   6.371  11.318  2.3169 -0.0477 -0.0180
   81MOL0     H10921   1.005   6.588  11.157  0.9321 -1.3582  0.3244
   81MOL0     H10922   0.846   6.483  10.972 -3.9878  0.2602 -0.6219
   81MOL0     H10923   0.750   6.359  10.840  1.4970  1.8796  2.2873
   81MOL0     H10924   0.618   6.471  10.876 -4.5101 -1.3269 -0.6989
   81MOL0     H10925   0.445   6.281  10.868 -0.6448 -0.7240 -0.9116
   81MOL0     H10926   0.586   6.186  10.813 -0.2294 -0.8310  2.1317
   81MOL0     H10927   0.602   6.378  10.621 -3.1323  3.7372 -4.3148
   81MOL0     H10928   0.460   6.433  10.682 -2.1924 -1.6345 -2.4810
   81MOL0     H10929   0.364   6.200  10.633  1.5680 -1.3936  2.3239
   81MOL0     H10930   0.429   6.294  10.483  1.6965 -1.9646 -1.1804
   81MOL0     H10931   0.722   5.999  10.484  0.2040  0.3435 -2.4922
   81MOL0     H10932   0.608   6.318  11.266  0.7511 -0.0602  0.4796
   81MOL0     H10933   0.626   6.447  11.507 -0.3724  1.8765 -0.4839
   81MOL0     H10934   0.742   6.309  11.520 -1.1382 -0.5390 -0.1265
   81MOL0     H10935   0.785   6.470  11.566  0.4727 -1.4855  0.6746
   82MOL0     O10936   9.136   5.075   5.827  0.1676 -0.2306  0.4154
   82MOL0     C10937   9.141   4.961   5.873 -0.6355 -0.1537  0.7205
   82MOL0     O10938   9.171   4.851   5.802  0.3959  0.3671  0.7090
   82MOL0     C10939   9.208   4.857   5.668 -0.2727 -0.0922  0.4112
   82MOL0     C10940   9.303   4.946   5.622  0.1051  0.3396 -0.2855
   82MOL0     C10941   9.347   4.958   5.493  0.4679  0.2627 -0.8480
   82MOL0     C10942   9.281   4.886   5.392  0.2705 -0.1877 -0.3610
   82MOL0     O10943   9.308   4.870   5.261 -0.1209  0.6212  0.0696
   82MOL0     C10944   9.448   4.886   5.226 -0.5516  0.6268 -0.3632
   82MOL0     C10945   9.535   4.767   5.274 -0.1473  0.4229  0.1718
   82MOL0     C10946   9.516   4.622   5.214  0.6220 -0.2623 -0.1231
   82MOL0     C10947   9.603   4.513   5.273  1.1167  0.6017  0.6870
   82MOL0     C10948   9.624   4.399   5.184  0.4428 -0.2917 -0.6700
   82MOL0     C10949   9.697   4.281   5.260 -0.3557 -0.4802 -0.0551
   82MOL0     C10950   9.848   4.298   5.308  0.3565  0.4262  0.5939
   82MOL0     C10951   9.945   4.375   5.215 -0.0842  1.0621 -0.0414
   82MOL0     N10952   9.968   4.316   5.083  0.8688 -0.3127 -0.5390
   82MOL0     C10953   9.987   4.380   4.967  0.9474 -0.3216  0.2741
   82MOL0     C10954  10.012   4.291   4.875 -0.8312  0.4252 -0.4259
   82MOL0     C10955  10.047   4.315   4.727  0.0753  0.5316  0.5729
   82MOL0     C10956  10.176   4.385   4.701  0.8632  0.4993 -0.6701
   82MOL0     C10957  10.306   4.307   4.743 -1.1184  0.4254  1.1311
   82MOL0     C10958  10.425   4.393   4.690  0.6991 -0.0012 -0.0328
   82MOL0     O10959  10.532   4.321   4.620  0.6690 -1.1008  0.3378
   82MOL0     C10960  10.653   4.377   4.574 -0.2744 -0.6392 -0.2194
   82MOL0     C10961  10.687   4.514   4.604 -0.0967  0.0144  0.2450
   82MOL0     C10962  10.806   4.579   4.547  0.1910  0.4418  0.6517
   82MOL0     C10963  10.880   4.506   4.451 -0.0759  0.0004 -0.4541
   82MOL0     C10964  10.988   4.568   4.375  0.1635  0.7482  1.0852
   82MOL0     O10965  11.016   4.695   4.409 -0.5134 -0.1251 -0.2214
   82MOL0     C10966  11.129   4.753   4.362  0.6791 -0.3824 -0.1289
   82MOL0     C10967  11.221   4.825   4.451  0.5344 -0.2689  0.4798
   82MOL0     C10968  11.342   4.881   4.409 -0.3524  0.6289  0.2436
   82MOL0     C10969  11.370   4.868   4.274 -0.2783 -0.0552  0.5265
   82MOL0     O10970  11.481   4.927   4.214 -0.4562 -0.0191 -0.6581
   82MOL0     C10971  11.488   5.072   4.233 -0.2999  0.6913 -0.4136
   82MOL0     C10972  11.591   5.138   4.140  0.6164 -0.2941  0.2746
   82MOL0     C10973  11.735   5.154   4.192 -0.4060  0.1579 -0.4975
   82MOL0     C10974  11.815   5.240   4.091  1.0360  0.9442  0.1081
   82MOL0     C10975  11.966   5.256   4.142 -0.2882 -0.1814  0.7268
   82MOL0     C10976  12.062   5.337   4.045  0.4557  0.1643  0.7414
   82MOL0     C10977  12.083   5.259   3.921  0.4611  0.6117 -0.0553
   82MOL0     C10978  12.065   5.350   3.798 -0.3456  0.6523  0.0372
   82MOL0    Cl10979  12.234   5.403   3.768 -0.2678 -0.2913  0.2613
   82MOL0     C10980  11.286   4.804   4.192 -0.4519  0.2636  0.3385
   82MOL0     C10981  11.169   4.746   4.233  0.3069 -0.1336 -0.1435
   82MOL0     O10982  11.056   4.498   4.295  0.9695 -0.0028  0.4813
   82MOL0     C10983  10.849   4.367   4.440 -0.2669  0.4839  1.0075
   82MOL0     C10984  10.732   4.312   4.490 -0.4177  1.1082 -0.2900
   82MOL0     N10985  10.021   4.162   4.934 -0.7005  0.9592  0.0990
   82MOL0     N10986   9.987   4.182   5.056 -1.2814 -0.2199  0.1868
   82MOL0     C10987   9.174   4.796   5.437  0.3818 -0.5887  0.1813
   82MOL0     C10988   9.151   4.781   5.571 -0.3569 -0.4037  0.1364
   82MOL0     C10989   9.114   4.944   6.020 -0.0615  0.2606  0.4284
   82MOL0     C10990   9.074   5.054   6.090  0.3795  0.5218 -0.0584
   82MOL0     C10991   9.058   5.057   6.228  0.4592 -0.8896 -0.4974
   82MOL0     C10992   9.104   4.955   6.303 -0.0982 -0.5191 -0.5451
   82MOL0     O10993   9.101   4.979   6.438 -0.4166 -0.9840 -0.4419
   82MOL0     C10994   9.215   4.923   6.500 -0.9420  0.6658 -0.0579
   82MOL0     C10995   9.254   4.999   6.623  0.4340  0.5220 -0.3337
   82MOL0     C10996   9.150   5.000   6.726  0.3597 -0.5432  0.3525
   82MOL0     C10997   9.185   5.078   6.851 -0.3293  0.0981  0.5013
   82MOL0     C10998   9.144   5.217   6.825 -0.6384  0.3794 -0.3558
   82MOL0     C10999   9.092   5.324   6.819  0.5803  0.2505  0.5684
   82MOL0     C11000   9.138   4.838   6.234  0.1102  0.8451 -0.6620
   82MOL0     C11001   9.142   4.823   6.096 -0.0690  0.1957 -1.1109
   82MOL0     C11002   9.189   4.685   6.047  0.7905  0.6602  0.3378
   82MOL0     H11003   9.351   5.012   5.694  2.2693 -0.0373 -1.2872
   82MOL0     H11004   9.435   5.018   5.469  1.0541 -0.5227 -0.7135
   82MOL0     H11005   9.456   4.890   5.116 -0.0242 -5.3895 -0.8555
   82MOL0     H11006   9.483   4.986   5.254 -1.3364  0.3434  1.7974
   82MOL0     H11007   9.516   4.764   5.382 -3.7346 -1.0036 -0.3530
   82MOL0     H11008   9.639   4.796   5.255  0.6384 -0.6052  2.5424
   82MOL0     H11009   9.542   4.629   5.108 -0.3824  1.2492 -0.3028
   82MOL0     H11010   9.413   4.587   5.229  1.5407 -1.6117  5.8919
   82MOL0     H11011   9.704   4.552   5.287  1.4002  0.3695 -0.5493
   82MOL0     H11012   9.555   4.475   5.364 -1.1949  1.1801 -0.2223
   82MOL0     H11013   9.525   4.368   5.150 -0.1079  2.6741 -2.0453
   82MOL0     H11014   9.677   4.429   5.094  0.9137 -0.0297 -0.3127
   82MOL0     H11015   9.638   4.256   5.348  1.3906 -1.7639  0.8365
   82MOL0     H11016   9.697   4.197   5.189 -0.6418 -0.3043 -0.2644
   82MOL0     H11017   9.877   4.193   5.318 -1.0216 -0.1002 -0.6158
   82MOL0     H11018   9.849   4.339   5.410  2.8178  2.1490 -0.0411
   82MOL0     H11019   9.901   4.474   5.200  0.9914  1.2755 -2.3979
   82MOL0     H11020  10.045   4.389   5.258 -0.7084  2.8243  0.9436
   82MOL0     H11021   9.983   4.485   4.940  1.5927 -1.3990 -5.2786
   82MOL0     H11022  10.038   4.218   4.677  1.8169  0.5357  0.1998
   82MOL0     H11023   9.968   4.373   4.677 -1.7390 -3.5819 -1.9152
   82MOL0     H11024  10.182   4.407   4.594  4.3483 -2.8303 -1.3810
   82MOL0     H11025  10.181   4.469   4.772  2.7299 -0.0458 -0.0995
   82MOL0     H11026  10.296   4.209   4.696  1.4173  0.7376 -0.2765
   82MOL0     H11027  10.308   4.308   4.852  1.4938 -0.9532  1.1881
   82MOL0     H11028  10.473   4.423   4.783 -2.0154 -1.2941  1.9026
   82MOL0     H11029  10.400   4.486   4.637  0.0692 -0.5790 -0.7654
   82MOL0     H11030  10.619   4.574   4.664 -2.6477 -2.9932  0.6433
   82MOL0     H11031  10.826   4.685   4.560 -2.2094  1.0998 -0.5283
   82MOL0     H11032  11.194   4.836   4.555 -0.6320  1.0039  0.0605
   82MOL0     H11033  11.410   4.934   4.476 -1.4745  2.2314  0.1610
   82MOL0     H11034  11.389   5.114   4.212 -2.5730 -2.5815  2.5109
   82MOL0     H11035  11.516   5.097   4.336  1.9350  0.8757 -1.0255
   82MOL0     H11036  11.599   5.088   4.043  0.3661  0.2912 -0.0563
   82MOL0     H11037  11.555   5.236   4.108 -2.3427 -1.8635 -1.7306
   82MOL0     H11038  11.731   5.212   4.285 -3.6360  4.5603 -3.0102
   82MOL0     H11039  11.778   5.055   4.208 -3.2633 -1.2864 -0.9451
   82MOL0     H11040  11.772   5.339   4.076 -0.6793  0.0384 -1.4987
   82MOL0     H11041  11.811   5.183   3.998 -5.1827 -4.6404  2.8570
   82MOL0     H11042  12.000   5.152   4.149  0.8470 -0.0386 -1.7156
   82MOL0     H11043  11.961   5.302   4.242 -1.3797 -1.7383  1.4276
   82MOL0     H11044  12.002   5.427   4.027 -1.1966 -0.7282  1.5239
   82MOL0     H11045  12.162   5.361   4.083  0.4931 -0.7351  1.2337
   82MOL0     H11046  12.011   5.178   3.908 -2.0786  2.9551 -1.8501
   82MOL0     H11047  12.179   5.211   3.904 -0.4791 -0.3806 -3.2511
   82MOL0     H11048  12.028   5.298   3.709 -3.6634  1.0951  1.0281
   82MOL0     H11049  12.010   5.444   3.808  2.6435  2.8159 -1.9847
   82MOL0     H11050  11.334   4.782   4.097 -1.2114 -0.8506  0.1860
   82MOL0     H11051  11.114   4.686   4.162  2.0682 -0.8324 -0.9921
   82MOL0     H11052  10.915   4.297   4.389 -0.7910  0.6607  0.0668
   82MOL0     H11053  10.723   4.209   4.456  2.2885  0.3477  1.0141
   82MOL0     H11054   9.130   4.738   5.357 -0.9469 -1.2418  1.3528
   82MOL0     H11055   9.076   4.707   5.596  0.4511 -0.9249  1.1026
   82MOL0     H11056   9.057   5.146   6.035  0.6266  0.1422 -0.7949
   82MOL0     H11057   9.029   5.152   6.273  2.2291 -1.1018  1.1984
   82MOL0     H11058   9.300   4.914   6.432 -0.8325 -0.3752  0.1981
   82MOL0     H11059   9.190   4.826   6.545  1.9732 -0.9454 -1.6392
   82MOL0     H11060   9.281   5.102   6.598 -0.1980  0.0977 -3.1895
   82MOL0     H11061   9.349   4.965   6.666 -0.3230 -2.1470 -0.5823
   82MOL0     H11062   9.129   4.898   6.759 -0.4758  0.4222  3.0335
   82MOL0     H11063   9.054   5.033   6.684  0.6903 -0.2240 -0.1626
   82MOL0     H11064   9.117   5.049   6.932  0.6408  0.6906  1.5654
   82MOL0     H11065   9.291   5.084   6.878 -0.2621  2.0436 -0.1109
   82MOL0     H11066   9.053   5.423   6.808 -0.5915 -0.3656 -1.5868
   82MOL0     H11067   9.153   4.750   6.297 -1.1010 -0.2865 -1.8889
   82MOL0     H11068   9.197   4.612   6.129  0.2605 -1.7369 -1.6080
   82MOL0     H11069   9.121   4.645   5.971  0.8195  2.0554 -0.4471
   82MOL0     H11070   9.287   4.698   5.999  0.6108  1.4883  0.1915
   83MOL0     O11071   8.095   8.941   0.623 -0.2291  0.0213  0.2011
   83MOL0     C11072   8.081   8.934   0.746 -0.9623  0.4991  0.0189
   83MOL0     O11073   8.087   8.823   0.824  0.5869  0.1523  0.3629
   83MOL0     C11074   8.112   8.705   0.753  1.1222  0.3591  0.5008
   83MOL0     C11075   7.997   8.613   0.769 -0.1582 -1.0910 -0.5812
   83MOL0     C11076   8.009   8.487   0.715 -0.8024 -0.5584  0.4643
   83MOL0     C11077   8.133   8.443   0.659  0.8674  0.5638 -0.2157
   83MOL0     O11078   8.140   8.304   0.608  0.1853 -0.2981 -0.2588
   83MOL0     C11079   8.211   8.287   0.484  0.5038  0.0312 -0.5703
   83MOL0     C11080   8.195   8.151   0.443 -0.3504  0.1767 -0.3167
   83MOL0     C11081   8.301   8.128   0.332  0.3055  0.3207  0.1013
   83MOL0     C11082   8.271   8.166   0.183 -0.1611  0.4958  0.1041
   83MOL0     C11083   8.401   8.179   0.103  0.0298 -0.1207 -0.5711
   83MOL0     C11084   8.486   8.049   0.097  1.0525 -0.3152  0.2105
   83MOL0     C11085   8.603   8.056  -0.006  0.5573  1.2942  0.0513
   83MOL0     C11086   8.671   7.917   0.013 -0.1754  0.3761 -0.3754
   83MOL0     N11087   8.792   7.898  -0.066  0.2917  0.4629 -0.2723
   83MOL0     C11088   8.836   7.953  -0.190 -0.2439 -0.3594 -1.0495
   83MOL0     C11089   8.972   7.933  -0.195 -0.5425  0.2315  0.8021
   83MOL0     C11090   9.056   7.982  -0.316 -0.0473  0.3255  0.3702
   83MOL0     C11091   9.073   7.872  -0.414  0.4901  0.7271 -0.3631
   83MOL0     C11092   8.978   7.870  -0.534  0.7781 -0.6636 -0.1917
   83MOL0     C11093   8.987   7.735  -0.622 -0.0795  0.0205 -0.5293
   83MOL0     O11094   9.099   7.727  -0.710  0.3417 -0.3584 -0.9432
   83MOL0     C11095   9.118   7.840  -0.788 -0.4443  0.8868 -0.1228
   83MOL0     C11096   9.014   7.907  -0.851  0.3382  0.4498  0.6277
   83MOL0     C11097   9.034   8.012  -0.940 -0.4038 -0.3948 -0.6573
   83MOL0     C11098   9.165   8.048  -0.971  0.8970  0.5789  1.3215
   83MOL0     C11099   9.187   8.152  -1.073  0.5241  0.2200 -0.3191
   83MOL0     O11100   9.315   8.175  -1.110  0.5467 -0.4159 -0.1514
   83MOL0     C11101   9.344   8.250  -1.229 -0.0343  0.0742 -0.1613
   83MOL0     C11102   9.242   8.294  -1.327  0.2141  0.4253 -0.0592
   83MOL0     C11103   9.291   8.381  -1.432 -1.4608  0.6110  0.4149
   83MOL0     C11104   9.417   8.428  -1.434 -1.3521 -0.3426  0.4073
   83MOL0     O11105   9.470   8.509  -1.539 -0.8819 -0.1978  0.1927
   83MOL0     C11106   9.593   8.461  -1.602  0.1380  0.2111  0.9398
   83MOL0     C11107   9.717   8.536  -1.553  0.0176 -0.2649 -0.0593
   83MOL0     C11108   9.809   8.612  -1.650  0.7900  0.0807 -0.1118
   83MOL0     C11109   9.932   8.667  -1.572 -0.4439  0.2689  0.0228
   83MOL0     C11110  10.043   8.729  -1.676 -0.0841  0.2215 -0.0036
   83MOL0     C11111  10.111   8.624  -1.761  0.2613 -0.4074 -0.3797
   83MOL0     C11112  10.232   8.667  -1.848 -0.3828 -0.2450  1.2517
   83MOL0     C11113  10.234   8.575  -1.968  0.3706 -0.4585 -0.6123
   83MOL0    Cl11114  10.315   8.411  -1.929 -0.0237 -0.2387  0.1329
   83MOL0     C11115   9.512   8.395  -1.329  0.3551  0.0663  1.0375
   83MOL0     C11116   9.474   8.307  -1.231  0.1165 -0.1160 -0.3761
   83MOL0     O11117   9.085   8.217  -1.103 -0.3229 -0.0072 -0.1010
   83MOL0     C11118   9.271   7.970  -0.923  0.2073 -0.2122  0.0434
   83MOL0     C11119   9.245   7.866  -0.827 -0.2000  0.6505 -0.4750
   83MOL0     N11120   9.000   7.861  -0.079 -0.1710 -1.5031 -0.7076
   83MOL0     N11121   8.895   7.843  -0.002  0.4236  1.0527 -0.0160
   83MOL0     C11122   8.233   8.534   0.653 -0.0333 -0.2442 -0.3145
   83MOL0     C11123   8.224   8.661   0.689 -0.1719 -0.2876  0.1160
   83MOL0     C11124   8.031   9.056   0.801  1.0880  0.5816  0.1567
   83MOL0     C11125   7.895   9.085   0.777  1.3639 -0.1410 -0.9478
   83MOL0     C11126   7.827   9.189   0.835  0.5600  0.3229 -0.8320
   83MOL0     C11127   7.881   9.263   0.932  0.5349  0.2383 -0.1262
   83MOL0     O11128   7.819   9.372   0.986  0.2717 -0.1850 -0.2477
   83MOL0     C11129   7.798   9.469   0.887  0.9984 -0.6867 -0.3567
   83MOL0     C11130   7.677   9.557   0.932 -0.6675  0.3099  0.6529
   83MOL0     C11131   7.557   9.456   0.907  0.3478  0.7472 -0.2929
   83MOL0     C11132   7.426   9.509   0.956  0.0726  0.5124 -0.1497
   83MOL0     C11133   7.414   9.533   1.098 -0.2601  0.1178 -0.3857
   83MOL0     C11134   7.423   9.547   1.218 -0.7585 -0.2796 -0.5155
   83MOL0     C11135   8.027   9.246   0.951  0.6247 -0.3812  0.5901
   83MOL0     C11136   8.098   9.150   0.873 -0.6485 -0.4813 -0.3578
   83MOL0     C11137   8.251   9.138   0.900 -0.3014  0.1243  0.9868
   83MOL0     H11138   7.904   8.649   0.813 -0.5787 -1.5626 -1.0840
   83MOL0     H11139   7.923   8.421   0.724  0.6477 -2.4653  1.1262
   83MOL0     H11140   8.182   8.362   0.409  2.4413 -1.1672 -2.6557
   83MOL0     H11141   8.316   8.302   0.511  0.8116 -1.6110 -0.7473
   83MOL0     H11142   8.100   8.145   0.390  1.6294  1.0298 -4.3639
   83MOL0     H11143   8.214   8.083   0.527  2.0487 -0.8848 -1.6084
   83MOL0     H11144   8.315   8.020   0.317 -0.5863  0.2430 -0.2560
   83MOL0     H11145   8.397   8.167   0.367  1.0622 -2.1948  1.0700
   83MOL0     H11146   8.205   8.099   0.128  0.4345  2.0506 -2.6861
   83MOL0     H11147   8.225   8.265   0.184  1.9400  1.5682 -1.4554
   83MOL0     H11148   8.383   8.217   0.002 -0.8938  1.8532  0.2672
   83MOL0     H11149   8.473   8.247   0.148 -0.5220  0.1066 -0.0033
   83MOL0     H11150   8.527   8.031   0.197 -1.3847 -3.1275  0.8366
   83MOL0     H11151   8.417   7.965   0.087 -0.9139  1.2843 -0.3262
   83MOL0     H11152   8.675   8.132   0.025  2.8803 -1.3596  1.6986
   83MOL0     H11153   8.584   8.069  -0.113  3.5661 -0.4312 -0.8291
   83MOL0     H11154   8.678   7.900   0.121 -3.8586  1.8614  0.2461
   83MOL0     H11155   8.608   7.835  -0.025  2.7467 -1.7854 -0.9539
   83MOL0     H11156   8.781   7.998  -0.271  0.9436  2.1376 -0.5545
   83MOL0     H11157   9.021   8.071  -0.370 -1.1446 -0.3037  0.0010
   83MOL0     H11158   9.156   7.994  -0.273  0.2349  3.7404 -0.9244
   83MOL0     H11159   9.170   7.883  -0.464 -0.8444  0.2589 -3.2567
   83MOL0     H11160   9.062   7.776  -0.363  1.1513  0.5465 -0.5434
   83MOL0     H11161   8.997   7.959  -0.594  0.9134 -1.2183 -0.9771
   83MOL0     H11162   8.879   7.878  -0.489  1.0216 -1.6944  0.5798
   83MOL0     H11163   8.893   7.714  -0.674  0.6264 -0.7717 -1.5434
   83MOL0     H11164   9.001   7.648  -0.557 -0.6142 -0.4478 -1.0298
   83MOL0     H11165   8.909   7.881  -0.842  0.6383 -1.2050 -0.2656
   83MOL0     H11166   8.953   8.072  -0.978  0.9094  1.2771 -0.9358
   83MOL0     H11167   9.136   8.273  -1.329 -1.4587  6.8965 -0.3419
   83MOL0     H11168   9.228   8.402  -1.518 -2.5295 -1.4490  0.6270
   83MOL0     H11169   9.610   8.353  -1.599 -0.8827  0.0455  0.9679
   83MOL0     H11170   9.587   8.495  -1.706  3.1003 -0.0566  0.6077
   83MOL0     H11171   9.692   8.609  -1.475  1.7990 -0.3533  0.6423
   83MOL0     H11172   9.776   8.458  -1.503  1.2403  0.2403 -0.6916
   83MOL0     H11173   9.850   8.536  -1.718  2.0125 -0.5344  1.2608
   83MOL0     H11174   9.764   8.703  -1.691 -0.4002 -0.1782  0.5725
   83MOL0     H11175   9.979   8.587  -1.515  1.3675 -0.5777 -2.4793
   83MOL0     H11176   9.886   8.736  -1.501 -0.7543 -0.2989  0.3776
   83MOL0     H11177  10.117   8.784  -1.616  0.3288  2.2801 -2.2253
   83MOL0     H11178   9.991   8.790  -1.751 -2.0794 -0.5284  0.7119
   83MOL0     H11179  10.139   8.549  -1.686 -0.8913  2.1653  2.8364
   83MOL0     H11180  10.024   8.584  -1.814  0.8423 -2.3119  0.0290
   83MOL0     H11181  10.325   8.662  -1.792 -0.8874 -3.0669  1.9824
   83MOL0     H11182  10.222   8.768  -1.890  0.6577 -0.6340  0.0098
   83MOL0     H11183  10.135   8.558  -2.011 -0.3327  1.0508  0.3324
   83MOL0     H11184  10.296   8.632  -2.038 -1.1859 -0.1757 -1.8106
   83MOL0     H11185   9.612   8.435  -1.337  0.3342  0.3476  2.0464
   83MOL0     H11186   9.541   8.284  -1.149 -1.0830 -1.2150  0.3288
   83MOL0     H11187   9.374   7.993  -0.951 -0.4564  2.8717 -0.2763
   83MOL0     H11188   9.316   7.790  -0.796  1.8730  1.3693 -3.1170
   83MOL0     H11189   8.330   8.501   0.620 -1.1632 -1.5404 -2.5470
   83MOL0     H11190   8.317   8.716   0.688  1.2895 -2.4994  2.4984
   83MOL0     H11191   7.844   9.016   0.710  0.0254 -2.4129  2.1314
   83MOL0     H11192   7.728   9.202   0.792 -0.3025 -1.5743  0.4257
   83MOL0     H11193   7.768   9.422   0.793 -3.9985 -0.3049  0.7811
   83MOL0     H11194   7.888   9.531   0.874 -0.4481  0.9877 -3.2179
   83MOL0     H11195   7.674   9.648   0.870  2.9681  1.2204  1.5504
   83MOL0     H11196   7.684   9.581   1.038 -3.6799 -0.9455  1.2293
   83MOL0     H11197   7.575   9.361   0.957 -0.8274  0.0359 -1.1526
   83MOL0     H11198   7.534   9.436   0.802  0.2185 -1.5251  0.1212
   83MOL0     H11199   7.394   9.602   0.908 -2.2798 -1.4714 -2.7755
   83MOL0     H11200   7.346   9.436   0.940  1.8819 -1.7392  0.5332
   83MOL0     H11201   7.437   9.554   1.323 -3.0592 -1.0609 -0.0843
   83MOL0     H11202   8.096   9.312   1.002 -0.0316  0.4740  0.3838
   83MOL0     H11203   8.283   9.047   0.848 -0.7992 -0.7318  2.1508
   83MOL0     H11204   8.299   9.226   0.855 -3.0051  2.6915  2.7930
   83MOL0     H11205   8.259   9.120   1.007  4.8060 -1.7406  0.5623
   84MOL0     O11206   0.902   7.717   5.865  0.5176  0.3216 -0.0212
   84MOL0     C11207   0.901   7.793   5.764  0.5095  0.5407  0.1905
   84MOL0     O11208   0.974   7.767   5.646 -0.6270  0.5807 -0.6241
   84MOL0     C11209   1.066   7.661   5.648  0.6623 -1.2105 -0.9966
   84MOL0     C11210   1.058   7.585   5.532 -1.0984  0.2306 -0.1630
   84MOL0     C11211   1.154   7.487   5.500  0.5348 -0.0365 -0.0736
   84MOL0     C11212   1.249   7.450   5.601  0.1381 -0.2465 -0.2458
   84MOL0     O11213   1.317   7.334   5.601  0.9477 -0.4551  0.5900
   84MOL0     C11214   1.378   7.310   5.476 -0.2873 -0.0492 -0.2032
   84MOL0     C11215   1.509   7.395   5.451 -0.8179  0.6361  0.6610
   84MOL0     C11216   1.560   7.387   5.309  1.1390  0.4516  0.5274
   84MOL0     C11217   1.463   7.434   5.196 -0.1992  0.6845  0.1543
   84MOL0     C11218   1.415   7.582   5.206  0.4905  1.3193  0.0576
   84MOL0     C11219   1.519   7.689   5.207 -0.3815  0.2927 -0.6005
   84MOL0     C11220   1.468   7.826   5.199 -0.8129  0.1140 -0.5889
   84MOL0     C11221   1.409   7.877   5.341 -0.0790 -0.2453 -0.0249
   84MOL0     N11222   1.380   8.023   5.346  0.3953  0.0173 -0.2083
   84MOL0     C11223   1.405   8.114   5.254 -0.6306 -0.4380 -0.5566
   84MOL0     C11224   1.368   8.232   5.311  0.6859  0.0081 -0.3608
   84MOL0     C11225   1.382   8.368   5.246 -0.4388  0.4423 -0.5334
   84MOL0     C11226   1.325   8.493   5.331 -0.4704 -0.1562  1.2721
   84MOL0     C11227   1.455   8.561   5.398 -0.2130  0.0255 -0.4520
   84MOL0     C11228   1.487   8.490   5.526 -0.0127  0.5833 -1.3023
   84MOL0     O11229   1.595   8.553   5.609  0.3194 -0.3122  0.1238
   84MOL0     C11230   1.670   8.470   5.690  0.7128 -0.4016 -0.2557
   84MOL0     C11231   1.622   8.345   5.737  0.1380  0.2321 -0.2308
   84MOL0     C11232   1.702   8.270   5.821  0.7323 -0.1015  1.0146
   84MOL0     C11233   1.831   8.303   5.843  0.0999  0.0374  1.0005
   84MOL0     C11234   1.929   8.205   5.894 -0.4414  0.2106  0.2248
   84MOL0     O11235   1.878   8.082   5.905 -0.2461  0.6514 -0.2170
   84MOL0     C11236   1.966   7.972   5.926  0.6503  0.1240  0.2395
   84MOL0     C11237   1.955   7.863   5.853 -0.1546  0.4920  0.4399
   84MOL0     C11238   2.038   7.751   5.864 -0.5995  0.2917 -0.4697
   84MOL0     C11239   2.130   7.746   5.963 -0.1687 -1.6397 -0.4484
   84MOL0     O11240   2.200   7.635   5.981  0.0391  0.6478 -0.3220
   84MOL0     C11241   2.223   7.600   6.119 -0.0399  0.0962  1.0772
   84MOL0     C11242   2.262   7.449   6.120  0.3881  0.5942  0.8205
   84MOL0     C11243   2.245   7.386   6.256 -0.3116  0.0446 -0.3000
   84MOL0     C11244   2.337   7.271   6.256  0.7384 -0.3238 -0.0429
   84MOL0     C11245   2.319   7.206   6.391  0.0673  0.0338  0.0640
   84MOL0     C11246   2.419   7.260   6.496  0.7494 -0.6402 -0.1355
   84MOL0     C11247   2.462   7.148   6.603 -0.2651 -0.3083  0.9279
   84MOL0     C11248   2.497   7.024   6.521 -0.7132  0.2231 -1.3483
   84MOL0    Cl11249   2.627   6.926   6.615 -0.3333  0.1255  0.0652
   84MOL0     C11250   2.138   7.858   6.053 -0.2206 -0.0518  0.0634
   84MOL0     C11251   2.053   7.968   6.030 -0.0137  0.6864  0.3194
   84MOL0     O11252   2.050   8.245   5.905 -0.1493  1.0064  0.2181
   84MOL0     C11253   1.888   8.424   5.792  0.2612  0.2602  0.0472
   84MOL0     C11254   1.805   8.511   5.717 -0.5066  0.1346  0.0753
   84MOL0     N11255   1.315   8.208   5.434 -0.6779  0.2165  0.3385
   84MOL0     N11256   1.324   8.081   5.452  0.5435  0.4802 -0.0627
   84MOL0     C11257   1.265   7.529   5.715  0.0090  0.5055  0.0375
   84MOL0     C11258   1.169   7.629   5.744 -0.5847 -0.4291  0.7961
   84MOL0     C11259   0.809   7.898   5.747  0.2880  0.0275  0.3045
   84MOL0     C11260   0.676   7.898   5.784 -0.0646 -0.0887  0.2999
   84MOL0     C11261   0.595   8.003   5.768 -0.1236  0.7956  0.1016
   84MOL0     C11262   0.635   8.123   5.723  0.3620 -1.3041  0.0445
   84MOL0     O11263   0.541   8.220   5.696 -0.8583 -0.3326 -0.3565
   84MOL0     C11264   0.580   8.351   5.651 -0.1874 -0.5269  0.6407
   84MOL0     C11265   0.637   8.431   5.768  0.0573 -0.2879 -0.4313
   84MOL0     C11266   0.520   8.491   5.849  0.6844  0.3512  0.2325
   84MOL0     C11267   0.574   8.578   5.961  0.1173  0.3013  0.0049
   84MOL0     C11268   0.469   8.593   6.064 -0.6206  0.4217  0.0020
   84MOL0     C11269   0.391   8.601   6.158  1.1840  0.1055  0.5626
   84MOL0     C11270   0.766   8.142   5.682 -0.7705  0.3634 -0.3966
   84MOL0     C11271   0.854   8.027   5.693 -1.3387 -0.4600 -0.1587
   84MOL0     C11272   1.005   8.066   5.676 -0.5582 -0.0872  0.3853
   84MOL0     H11273   0.980   7.600   5.458 -2.4107 -0.1553  1.1136
   84MOL0     H11274   1.126   7.419   5.421  1.0315 -1.6728  1.1056
   84MOL0     H11275   1.408   7.205   5.467 -1.0019 -0.0478 -4.0649
   84MOL0     H11276   1.303   7.320   5.398 -1.6616  2.7293  1.3285
   84MOL0     H11277   1.578   7.345   5.521 -0.0318 -2.0561 -1.8490
   84MOL0     H11278   1.493   7.500   5.475  1.9315  0.6723  2.9388
   84MOL0     H11279   1.594   7.288   5.278  0.2938  0.0449  0.8965
   84MOL0     H11280   1.652   7.446   5.299  1.4094 -0.0719 -0.1601
   84MOL0     H11281   1.518   7.420   5.102  1.7994  1.6637  1.1166
   84MOL0     H11282   1.378   7.368   5.210 -0.0938  0.1123 -1.6186
   84MOL0     H11283   1.349   7.603   5.121  1.2431  0.1098 -0.8667
   84MOL0     H11284   1.349   7.581   5.293  0.6733 -0.9920  0.2397
   84MOL0     H11285   1.564   7.681   5.307 -2.5635 -1.0185  0.3586
   84MOL0     H11286   1.602   7.682   5.136 -0.9490  1.8923 -1.4609
   84MOL0     H11287   1.404   7.837   5.111 -2.2222 -0.8615  0.2630
   84MOL0     H11288   1.561   7.879   5.175 -0.8071  0.2230 -0.3287
   84MOL0     H11289   1.313   7.829   5.360 -0.6586  0.3312 -1.3610
   84MOL0     H11290   1.463   7.850   5.432 -1.5600 -1.0009  0.6631
   84MOL0     H11291   1.453   8.096   5.158 -1.4345  0.5315 -1.1511
   84MOL0     H11292   1.484   8.382   5.209 -0.2329 -0.6469 -0.4083
   84MOL0     H11293   1.336   8.362   5.147  3.5744 -3.8808 -2.5683
   84MOL0     H11294   1.282   8.564   5.259 -4.6901 -1.0961  2.5504
   84MOL0     H11295   1.243   8.445   5.385 -1.8216 -1.5978 -1.8069
   84MOL0     H11296   1.432   8.667   5.418 -3.4288 -0.4865 -0.8042
   84MOL0     H11297   1.545   8.563   5.338  0.3994 -1.0093  0.4073
   84MOL0     H11298   1.511   8.385   5.504  3.9687  1.0304  0.0376
   84MOL0     H11299   1.394   8.500   5.582  0.6736 -0.1117  0.0199
   84MOL0     H11300   1.519   8.315   5.726  0.8351 -2.0381 -1.1408
   84MOL0     H11301   1.666   8.179   5.867  2.0163 -1.6820 -0.9272
   84MOL0     H11302   1.891   7.853   5.766 -0.2693 -1.2449  0.6919
   84MOL0     H11303   2.027   7.666   5.797  0.2875 -0.3358  0.1650
   84MOL0     H11304   2.305   7.655   6.165  1.2478 -3.9392  4.2160
   84MOL0     H11305   2.124   7.614   6.164  0.1668  3.6996  0.6829
   84MOL0     H11306   2.200   7.390   6.051  1.6601 -1.7163  1.5621
   84MOL0     H11307   2.362   7.439   6.077  0.2158 -0.9489  0.7016
   84MOL0     H11308   2.266   7.444   6.346 -1.0252 -0.8085  0.4393
   84MOL0     H11309   2.142   7.350   6.262  0.0728 -1.2187 -0.7544
   84MOL0     H11310   2.441   7.307   6.255  0.2628  1.1358  0.6494
   84MOL0     H11311   2.317   7.208   6.169  2.4342 -3.3808  1.5898
   84MOL0     H11312   2.304   7.099   6.376  0.0281  0.1879 -1.1076
   84MOL0     H11313   2.222   7.232   6.435 -0.7205 -0.8495 -1.0873
   84MOL0     H11314   2.503   7.302   6.440 -0.3746 -0.5120 -1.7979
   84MOL0     H11315   2.369   7.349   6.535  0.8105  0.5277 -2.5358
   84MOL0     H11316   2.380   7.133   6.675  1.1141 -2.1252  2.2078
   84MOL0     H11317   2.557   7.182   6.646  1.0046  0.1125 -1.9651
   84MOL0     H11318   2.409   6.959   6.517 -1.0507  0.5613  0.0957
   84MOL0     H11319   2.532   7.053   6.421  3.0908  1.4612  0.1598
   84MOL0     H11320   2.205   7.855   6.138 -1.5818 -0.8660  1.1570
   84MOL0     H11321   2.065   8.056   6.094 -1.5374  0.3567  1.0927
   84MOL0     H11322   1.994   8.446   5.805  0.2130  1.0142 -0.7754
   84MOL0     H11323   1.830   8.605   5.669  4.1150 -1.2379 -0.6506
   84MOL0     H11324   1.346   7.508   5.784 -0.6797 -1.3253  0.3415
   84MOL0     H11325   1.156   7.674   5.842 -6.2618  2.0292 -0.6369
   84MOL0     H11326   0.629   7.805   5.814 -1.7696 -0.1915 -2.3517
   84MOL0     H11327   0.488   7.993   5.779 -0.2731 -1.0326 -2.2619
   84MOL0     H11328   0.490   8.404   5.619  0.4653  2.2003  2.8346
   84MOL0     H11329   0.651   8.336   5.570 -2.8584 -0.6251 -1.8195
   84MOL0     H11330   0.702   8.505   5.721 -1.6137  2.1423  0.9093
   84MOL0     H11331   0.701   8.363   5.824  2.9292  1.5068 -1.3085
   84MOL0     H11332   0.480   8.401   5.897 -1.8760  0.6357 -1.1706
   84MOL0     H11333   0.439   8.544   5.797 -0.1082 -0.0999  0.9704
   84MOL0     H11334   0.658   8.534   6.016 -1.8283  0.5219  3.4330
   84MOL0     H11335   0.614   8.678   5.945 -1.7517  1.2742  1.0898
   84MOL0     H11336   0.320   8.601   6.238  0.7734  3.7030  0.3518
   84MOL0     H11337   0.813   8.233   5.648 -0.6681 -0.0201 -1.3040
   84MOL0     H11338   1.039   8.042   5.574  3.2530 -1.6633  1.8298
   84MOL0     H11339   1.026   8.169   5.704  0.7642 -0.4502  0.7965
   84MOL0     H11340   1.062   8.011   5.751 -0.1069  0.8411  0.7368
   85MOL0     O11341   4.173   3.187  11.126 -0.7707  0.6057  0.6089
   85MOL0     C11342   4.138   3.291  11.168 -0.7230  0.0809  0.0000
   85MOL0     O11343   4.206   3.379  11.241  0.0396  0.1187  0.3157
   85MOL0     C11344   4.342   3.363  11.260  0.1821  0.3606  0.2271
   85MOL0     C11345   4.375   3.415  11.385 -0.6604  1.0899  0.6527
   85MOL0     C11346   4.509   3.390  11.434  0.6563  0.8928 -1.4131
   85MOL0     C11347   4.608   3.331  11.360 -1.7930  0.6293  1.1929
   85MOL0     O11348   4.742   3.302  11.397 -0.2871 -0.2515 -0.6794
   85MOL0     C11349   4.784   3.357  11.520 -0.3117 -0.4302 -0.3540
   85MOL0     C11350   4.800   3.511  11.512 -0.4680 -0.4233  0.7436
   85MOL0     C11351   4.888   3.551  11.394  0.5229  0.0959 -0.0798
   85MOL0     C11352   4.896   3.706  11.386 -0.4211 -0.5587  0.7270
   85MOL0     C11353   4.944   3.775  11.517  0.5096  0.2623 -0.0876
   85MOL0     C11354   4.979   3.921  11.498 -0.2724 -0.2125 -0.0948
   85MOL0     C11355   4.950   4.009  11.618  0.0397 -0.1442 -1.3243
   85MOL0     C11356   4.799   4.018  11.628  1.3136  0.1494 -0.6222
   85MOL0     N11357   4.777   4.102  11.742  1.5204 -0.4657  0.4221
   85MOL0     C11358   4.715   4.226  11.730  0.2569 -0.2045  0.9343
   85MOL0     C11359   4.735   4.292  11.847 -0.1623 -0.0041  0.4121
   85MOL0     C11360   4.695   4.437  11.867  0.5549  0.3307 -0.3351
   85MOL0     C11361   4.563   4.454  11.960  0.0421 -0.0836 -0.8714
   85MOL0     C11362   4.607   4.396  12.102  0.6892 -0.3423 -0.3450
   85MOL0     C11363   4.495   4.409  12.211 -0.7503 -0.2376  0.7110
   85MOL0     O11364   4.496   4.535  12.273 -0.0443 -0.1139 -0.2511
   85MOL0     C11365   4.378   4.564  12.339  1.8201  0.4530  0.6015
   85MOL0     C11366   4.357   4.702  12.358  0.5900  0.9277 -0.2633
   85MOL0     C11367   4.241   4.750  12.422  0.4951 -0.4255 -0.5004
   85MOL0     C11368   4.151   4.652  12.476  0.4834  0.2254  0.2138
   85MOL0     C11369   4.043   4.695  12.574 -0.0472  0.0308  0.3339
   85MOL0     O11370   3.933   4.612  12.593 -0.1148 -0.4102  0.2155
   85MOL0     C11371   3.827   4.667  12.658  0.1043  0.6508  0.1365
   85MOL0     C11372   3.711   4.717  12.585  0.1441 -0.2879  0.2810
   85MOL0     C11373   3.590   4.758  12.643  0.6987 -1.3117 -0.0824
   85MOL0     C11374   3.573   4.750  12.786 -1.6049 -0.5549 -0.3324
   85MOL0     O11375   3.459   4.785  12.854  0.0142  0.6415  0.0127
   85MOL0     C11376   3.334   4.790  12.772  0.7280  0.6251 -0.1665
   85MOL0     C11377   3.203   4.831  12.836  0.7293  1.0179  1.0135
   85MOL0     C11378   3.192   4.980  12.848 -0.4116  1.1123 -0.0103
   85MOL0     C11379   3.306   5.043  12.940  0.5958 -0.0339 -0.0242
   85MOL0     C11380   3.265   5.184  12.975 -0.3720 -0.6470  0.9160
   85MOL0     C11381   3.170   5.197  13.090 -0.2443 -0.5100 -0.6246
   85MOL0     C11382   3.118   5.338  13.116 -1.3900  0.3901  0.8281
   85MOL0     C11383   2.966   5.351  13.115  0.0966  0.4642  0.2054
   85MOL0    Cl11384   2.915   5.309  12.952  0.5502  0.0114  0.2967
   85MOL0     C11385   3.681   4.692  12.844 -0.1656  0.2333 -1.4353
   85MOL0     C11386   3.802   4.638  12.791  0.6364  0.1479  0.1956
   85MOL0     O11387   4.057   4.804  12.621  0.3453  0.0247 -0.6625
   85MOL0     C11388   4.176   4.524  12.447  0.6866  0.1404  0.0207
   85MOL0     C11389   4.276   4.473  12.365  0.0497  0.8365 -0.1758
   85MOL0     N11390   4.801   4.204  11.923  0.1467 -0.4950  0.1447
   85MOL0     N11391   4.818   4.091  11.867 -0.8600 -0.1034 -0.2194
   85MOL0     C11392   4.575   3.292  11.230  0.4102  0.7340  0.2836
   85MOL0     C11393   4.445   3.295  11.178 -0.4672 -0.0755  0.9490
   85MOL0     C11394   3.998   3.334  11.149  0.5150  0.5705 -0.1290
   85MOL0     C11395   3.894   3.284  11.227  0.5876  0.1013 -0.1929
   85MOL0     C11396   3.760   3.311  11.203  0.2270 -0.2344  0.5181
   85MOL0     C11397   3.725   3.407  11.103  0.3913  0.3377 -1.2126
   85MOL0     O11398   3.595   3.431  11.077  0.8915  0.1132  0.1170
   85MOL0     C11399   3.510   3.460  11.194  0.3290 -0.6455 -0.4555
   85MOL0     C11400   3.441   3.591  11.173 -0.2068  0.1200 -0.5849
   85MOL0     C11401   3.330   3.603  11.277  0.2635 -0.4446  0.2115
   85MOL0     C11402   3.221   3.712  11.252  0.2725 -0.3948  0.3893
   85MOL0     C11403   3.185   3.738  11.108 -0.7610  0.9636  0.2529
   85MOL0     C11404   3.173   3.753  10.993  0.5352  0.1454 -0.4477
   85MOL0     C11405   3.817   3.447  11.017 -0.7552  0.5205  0.2064
   85MOL0     C11406   3.958   3.428  11.045 -0.1865 -1.1253 -0.2141
   85MOL0     C11407   4.048   3.492  10.946  1.3679 -0.6812 -0.2779
   85MOL0     H11408   4.293   3.460  11.440 -2.0158 -0.7568  0.2237
   85MOL0     H11409   4.520   3.412  11.540  0.0041  0.5176 -1.2586
   85MOL0     H11410   4.718   3.347  11.607  1.3556 -0.9430  0.9033
   85MOL0     H11411   4.885   3.321  11.543 -0.8339 -2.5852 -1.2064
   85MOL0     H11412   4.838   3.545  11.609  2.1789 -0.9916  0.0100
   85MOL0     H11413   4.704   3.560  11.495  0.5943  1.6639  0.4706
   85MOL0     H11414   4.848   3.523  11.295 -1.7868  1.2515  0.4537
   85MOL0     H11415   4.984   3.501  11.410  0.3252  0.7148  4.2098
   85MOL0     H11416   4.980   3.723  11.318 -0.5340  1.1933  0.9858
   85MOL0     H11417   4.803   3.751  11.349  0.2476 -0.1459 -0.5183
   85MOL0     H11418   4.862   3.760  11.588 -1.7974  0.3054 -2.5838
   85MOL0     H11419   5.034   3.728  11.556  0.7022  0.8052  0.1233
   85MOL0     H11420   5.085   3.928  11.469  0.1576  2.9622  1.7630
   85MOL0     H11421   4.917   3.956  11.415 -0.6941  0.5210  0.5223
   85MOL0     H11422   4.985   4.113  11.621 -0.3759  0.1614  4.5116
   85MOL0     H11423   4.985   3.958  11.708 -2.0763  0.0545 -0.3197
   85MOL0     H11424   4.756   4.056  11.535 -0.7139 -1.7791 -0.5570
   85MOL0     H11425   4.753   3.920  11.645 -1.6834  2.1282  6.0493
   85MOL0     H11426   4.656   4.262  11.647 -0.9361 -2.7961  0.5464
   85MOL0     H11427   4.783   4.485  11.910 -0.0008  1.9113 -0.8911
   85MOL0     H11428   4.683   4.490  11.772 -1.0107  0.3145 -0.1820
   85MOL0     H11429   4.542   4.562  11.956  1.0403  0.0908 -2.7698
   85MOL0     H11430   4.484   4.401  11.907 -0.2086 -0.5835 -0.0207
   85MOL0     H11431   4.694   4.459  12.122  1.1211 -0.6410 -1.2165
   85MOL0     H11432   4.635   4.292  12.084 -1.5111 -0.6766 -2.4806
   85MOL0     H11433   4.519   4.324  12.276  3.7896 -1.9177 -2.6366
   85MOL0     H11434   4.400   4.375  12.167 -0.0020 -1.6231  0.0949
   85MOL0     H11435   4.448   4.761  12.348 -0.4573  2.5636 -0.6144
   85MOL0     H11436   4.213   4.853  12.443  1.5430 -0.2748  0.2932
   85MOL0     H11437   3.706   4.711  12.477 -0.8897  0.5066  0.2735
   85MOL0     H11438   3.519   4.813  12.582  1.6586  0.2291  0.1202
   85MOL0     H11439   3.348   4.873  12.702 -1.4493 -0.0753 -1.5361
   85MOL0     H11440   3.320   4.696  12.717 -3.1143  1.0863 -0.2068
   85MOL0     H11441   3.129   4.803  12.761  3.9366 -0.2138 -1.9821
   85MOL0     H11442   3.171   4.780  12.927 -2.8345  0.3340 -0.4545
   85MOL0     H11443   3.204   5.026  12.750 -0.8969  1.2043 -0.0298
   85MOL0     H11444   3.090   5.011  12.875 -1.6372 -0.9742 -1.9308
   85MOL0     H11445   3.401   5.043  12.885  0.1307  1.1219 -0.8568
   85MOL0     H11446   3.318   4.984  13.031 -2.1586  1.8041  1.6665
   85MOL0     H11447   3.234   5.249  12.892  1.4273  2.1778  2.2751
   85MOL0     H11448   3.353   5.235  13.015 -0.7328  2.2899 -1.6249
   85MOL0     H11449   3.093   5.121  13.081  1.5257 -2.7746  1.8542
   85MOL0     H11450   3.231   5.186  13.181  2.4038  0.7363 -2.1180
   85MOL0     H11451   3.152   5.404  13.036 -1.4239  0.1353  0.6044
   85MOL0     H11452   3.161   5.378  13.209  0.8430  1.5749 -0.6205
   85MOL0     H11453   2.917   5.280  13.183 -2.7991  1.3691 -0.8120
   85MOL0     H11454   2.936   5.455  13.131  2.7790  1.9860 -3.4331
   85MOL0     H11455   3.672   4.677  12.952 -0.7394  1.0068 -1.3730
   85MOL0     H11456   3.871   4.572  12.843 -0.7544 -1.5490 -0.0239
   85MOL0     H11457   4.092   4.457  12.459 -0.3578  1.7235  2.2779
   85MOL0     H11458   4.281   4.365  12.355 -4.2127  0.5232 -0.8901
   85MOL0     H11459   4.659   3.256  11.170  2.9688 -0.5604  4.2323
   85MOL0     H11460   4.419   3.239  11.089  1.3621 -0.5198  0.6554
   85MOL0     H11461   3.930   3.205  11.292  2.0650  0.3795 -0.6460
   85MOL0     H11462   3.697   3.255  11.271  0.8564  1.1254  2.3109
   85MOL0     H11463   3.563   3.463  11.289 -1.7027  0.4217  0.7190
   85MOL0     H11464   3.438   3.379  11.177 -1.7843  0.8387  1.0386
   85MOL0     H11465   3.402   3.587  11.070 -0.9501 -3.1817 -0.2894
   85MOL0     H11466   3.515   3.672  11.173 -0.3434  0.2425 -0.0429
   85MOL0     H11467   3.380   3.607  11.374  3.3391 -3.0569 -1.0788
   85MOL0     H11468   3.273   3.509  11.283 -3.7993  1.7412 -0.6430
   85MOL0     H11469   3.135   3.671  11.306 -1.3759  1.1523 -0.9382
   85MOL0     H11470   3.239   3.810  11.299 -2.0964  0.3977 -0.2208
   85MOL0     H11471   3.150   3.757  10.888 -1.1627  1.1715 -0.0529
   85MOL0     H11472   3.779   3.508  10.935 -2.7836 -2.8323 -1.5923
   85MOL0     H11473   4.051   3.598  10.972  0.5359 -0.8192  0.4111
   85MOL0     H11474   4.148   3.449  10.953  2.0592  1.0500  2.0962
   85MOL0     H11475   4.000   3.482  10.848  2.4324 -1.0790 -0.7709
   86MOL0     O11476  10.024   5.667   8.391 -0.5613 -0.8344  0.2246
   86MOL0     C11477  10.059   5.619   8.501 -0.3285 -0.0419  0.8539
   86MOL0     O11478  10.179   5.553   8.523 -0.3422 -0.5735 -0.7962
   86MOL0     C11479  10.278   5.563   8.416 -0.2418  0.1290  0.3194
   86MOL0     C11480  10.390   5.647   8.439 -0.0295 -0.3433 -0.3426
   86MOL0     C11481  10.490   5.653   8.344 -0.7198  0.1526 -0.4906
   86MOL0     C11482  10.491   5.570   8.223 -0.8684 -0.3696 -0.7438
   86MOL0     O11483  10.589   5.559   8.131  0.6371  0.2005  0.0726
   86MOL0     C11484  10.688   5.659   8.133 -1.1432 -0.4395  0.7747
   86MOL0     C11485  10.790   5.629   8.231 -0.4489  0.2312 -0.2592
   86MOL0     C11486  10.879   5.750   8.283 -0.4228 -0.6245  0.6721
   86MOL0     C11487  10.943   5.829   8.165  1.1888  0.0827 -0.6003
   86MOL0     C11488  11.054   5.927   8.210  0.0810 -0.0347 -0.2837
   86MOL0     C11489  11.173   5.854   8.254 -0.6931 -1.3311  0.3696
   86MOL0     C11490  11.297   5.950   8.286 -0.7181  0.9461 -0.1542
   86MOL0     C11491  11.379   5.998   8.164 -0.3540  0.0540 -0.1179
   86MOL0     N11492  11.411   6.144   8.176 -0.7442 -0.8138 -0.5267
   86MOL0     C11493  11.534   6.185   8.229 -0.5786 -0.9205 -0.1222
   86MOL0     C11494  11.515   6.320   8.236  0.1116  0.3800 -0.2751
   86MOL0     C11495  11.625   6.407   8.285 -0.3810 -0.6504 -0.3368
   86MOL0     C11496  11.585   6.469   8.420  0.0947  0.3420  0.4193
   86MOL0     C11497  11.707   6.526   8.499 -0.1447 -0.2475 -0.3868
   86MOL0     C11498  11.739   6.669   8.460 -0.4230 -0.8796  0.5284
   86MOL0     O11499  11.858   6.709   8.532 -0.3630  1.2091  1.2290
   86MOL0     C11500  11.934   6.812   8.497  0.3249  0.4394  0.4685
   86MOL0     C11501  11.889   6.915   8.414  0.5459 -0.5833 -0.1762
   86MOL0     C11502  11.978   7.025   8.395  0.2634  0.1111  0.2135
   86MOL0     C11503  12.105   7.027   8.449 -0.0718 -0.7296 -1.0326
   86MOL0     C11504  12.200   7.140   8.416  0.0539 -0.6924  1.1068
   86MOL0     O11505  12.331   7.132   8.443  0.5283 -0.7904  0.2968
   86MOL0     C11506  12.413   7.241   8.437  0.6292  0.2173 -1.2692
   86MOL0     C11507  12.383   7.382   8.445 -0.0827  0.2755 -0.5653
   86MOL0     C11508  12.475   7.486   8.423 -0.9182  0.2757 -0.3181
   86MOL0     C11509  12.603   7.449   8.380  0.0165  0.1137 -0.0168
   86MOL0     O11510  12.689   7.550   8.349  0.2633 -0.5766  0.3879
   86MOL0     C11511  12.791   7.537   8.258 -0.1023  0.6815 -0.9845
   86MOL0     C11512  12.828   7.686   8.254  0.0314 -0.0739  0.2153
   86MOL0     C11513  12.915   7.702   8.131 -0.1581 -0.2208 -0.0804
   86MOL0     C11514  13.035   7.773   8.176 -0.0085 -0.0949  0.4694
   86MOL0     C11515  13.135   7.776   8.055 -0.6155 -0.0478 -0.0545
   86MOL0     C11516  13.284   7.830   8.097  0.3731  0.0101 -0.5442
   86MOL0     C11517  13.387   7.821   7.983 -0.3105 -0.4244  0.5927
   86MOL0     C11518  13.360   7.896   7.857  0.7785 -0.1243 -1.1329
   86MOL0    Cl11519  13.504   7.861   7.749  0.1003 -0.4085 -0.3784
   86MOL0     C11520  12.642   7.314   8.375 -0.8085  0.7571  0.6110
   86MOL0     C11521  12.551   7.218   8.412 -0.3551  0.0260  0.5651
   86MOL0     O11522  12.147   7.247   8.375  0.8986 -0.9622  0.4225
   86MOL0     C11523  12.133   6.929   8.542  0.2942 -0.0117  0.7205
   86MOL0     C11524  12.054   6.821   8.560  0.8465 -0.3186 -0.4595
   86MOL0     N11525  11.390   6.366   8.186 -0.2866  0.4119 -0.8122
   86MOL0     N11526  11.334   6.258   8.145  0.0052 -0.0482  0.7932
   86MOL0     C11527  10.375   5.487   8.204 -0.4518  0.4784 -0.2913
   86MOL0     C11528  10.267   5.487   8.296 -0.3981  0.4262 -0.1627
   86MOL0     C11529   9.984   5.646   8.611 -0.6625  0.5344 -0.6366
   86MOL0     C11530  10.003   5.772   8.683 -0.0561  0.4872 -1.2176
   86MOL0     C11531   9.920   5.799   8.792  0.2689  0.4245 -0.7239
   86MOL0     C11532   9.820   5.711   8.841 -0.0674 -0.2155  0.1199
   86MOL0     O11533   9.744   5.733   8.954  0.1923 -0.4276 -0.3864
   86MOL0     C11534   9.763   5.850   9.041  0.1885 -0.4197  0.2924
   86MOL0     C11535   9.628   5.912   9.069  0.0761 -0.0305 -1.1097
   86MOL0     C11536   9.514   5.822   9.114 -1.0672  0.1792 -0.7254
   86MOL0     C11537   9.383   5.873   9.119  0.2171 -0.4245  0.0486
   86MOL0     C11538   9.337   5.901   8.989 -1.2242  0.1062  0.7847
   86MOL0     C11539   9.279   5.915   8.883 -0.0088 -0.1455 -0.8894
   86MOL0     C11540   9.797   5.593   8.768  0.9366 -0.3998  1.1761
   86MOL0     C11541   9.874   5.563   8.650  0.7855  0.8621  0.7647
   86MOL0     C11542   9.849   5.430   8.582  0.2253  0.4984 -0.1884
   86MOL0     H11543  10.388   5.695   8.536 -0.7248 -1.1989  0.0813
   86MOL0     H11544  10.576   5.716   8.364  0.5018 -1.8738  1.0131
   86MOL0     H11545  10.731   5.665   8.032  0.8084  0.1134  1.5899
   86MOL0     H11546  10.651   5.759   8.159 -0.1636  1.0546 -2.8164
   86MOL0     H11547  10.854   5.555   8.182 -3.6849 -2.9146 -0.1540
   86MOL0     H11548  10.742   5.584   8.318  2.1594  0.3584  1.3723
   86MOL0     H11549  10.955   5.708   8.349 -1.6953 -0.4884  2.2727
   86MOL0     H11550  10.808   5.819   8.331 -1.2756 -0.0312 -1.3138
   86MOL0     H11551  10.985   5.767   8.085  0.8678  2.4261 -2.7268
   86MOL0     H11552  10.874   5.890   8.106  2.0099  0.2400 -1.4251
   86MOL0     H11553  11.086   5.973   8.116  2.8129 -2.3227 -0.6305
   86MOL0     H11554  11.028   5.996   8.290  1.1662  2.2962 -1.8420
   86MOL0     H11555  11.146   5.824   8.356 -0.6351  3.9230  2.2762
   86MOL0     H11556  11.200   5.769   8.192  0.6995  0.1493 -1.1578
   86MOL0     H11557  11.361   5.891   8.352 -3.5506 -0.8520  1.2238
   86MOL0     H11558  11.282   6.040   8.345  1.9016  0.2574  1.7190
   86MOL0     H11559  11.477   5.949   8.161  1.0179  2.6590 -2.3137
   86MOL0     H11560  11.317   5.956   8.085 -1.3796 -3.2509  2.2268
   86MOL0     H11561  11.620   6.123   8.251  0.9119  1.3955  0.8287
   86MOL0     H11562  11.714   6.347   8.305 -1.0885 -1.3927  0.7021
   86MOL0     H11563  11.648   6.475   8.202  0.3309  0.5350  0.7879
   86MOL0     H11564  11.498   6.535   8.414 -1.4111 -1.4598  1.3183
   86MOL0     H11565  11.554   6.384   8.481  3.2164 -2.5162 -1.6358
   86MOL0     H11566  11.787   6.452   8.505 -0.1235 -0.1408  3.9393
   86MOL0     H11567  11.671   6.529   8.603 -1.2434  0.1239 -0.7616
   86MOL0     H11568  11.657   6.739   8.480 -2.0792 -3.1527  2.3397
   86MOL0     H11569  11.758   6.664   8.353 -2.5057 -1.3528  0.1376
   86MOL0     H11570  11.784   6.929   8.389  1.1684  1.7862 -1.7950
   86MOL0     H11571  11.954   7.116   8.341  0.0304  0.3232  0.6681
   86MOL0     H11572  12.287   7.421   8.476  1.5293  4.1848  0.2037
   86MOL0     H11573  12.459   7.592   8.440  1.4754  0.4047  1.8455
   86MOL0     H11574  12.873   7.476   8.296  1.7780  3.5316 -0.0958
   86MOL0     H11575  12.754   7.501   8.162  0.7687 -2.9482 -0.1098
   86MOL0     H11576  12.733   7.740   8.244  0.4679  0.2541 -4.5051
   86MOL0     H11577  12.880   7.698   8.349  1.6182  1.0361 -0.7382
   86MOL0     H11578  12.945   7.615   8.071  3.1471  1.6875 -1.4590
   86MOL0     H11579  12.878   7.773   8.056  2.4225 -0.7500 -2.0018
   86MOL0     H11580  13.086   7.727   8.261  1.4431  3.2177  1.5958
   86MOL0     H11581  13.019   7.876   8.212 -1.9596 -0.6194  1.2190
   86MOL0     H11582  13.101   7.839   7.972 -1.7987 -0.5586  0.0223
   86MOL0     H11583  13.147   7.673   8.018 -0.6054 -0.3343  0.7263
   86MOL0     H11584  13.284   7.933   8.134  3.6158  1.4285 -3.8930
   86MOL0     H11585  13.317   7.764   8.178  2.6370  2.5288  0.7270
   86MOL0     H11586  13.398   7.713   7.968 -2.7571 -0.8896  1.6418
   86MOL0     H11587  13.484   7.856   8.019  0.4272 -0.1397 -1.5019
   86MOL0     H11588  13.271   7.843   7.824  1.1231 -0.7958 -1.0030
   86MOL0     H11589  13.343   8.002   7.880 -2.6930 -0.6896 -0.5875
   86MOL0     H11590  12.742   7.279   8.354 -1.5753 -0.7976 -0.7317
   86MOL0     H11591  12.598   7.121   8.392 -0.3062  0.6841 -3.1517
   86MOL0     H11592  12.224   6.928   8.600  2.0640  5.1323 -1.4269
   86MOL0     H11593  12.079   6.738   8.625 -0.5469  0.8310  1.6827
   86MOL0     H11594  10.364   5.450   8.102 -0.8788  1.8672 -0.7728
   86MOL0     H11595  10.181   5.423   8.282  0.1149 -0.8178  1.8943
   86MOL0     H11596  10.071   5.852   8.653 -0.6514  1.1671 -0.7980
   86MOL0     H11597   9.935   5.892   8.845  1.7344  0.8919 -1.8866
   86MOL0     H11598   9.811   5.934   8.990 -0.0067 -0.5299 -0.0784
   86MOL0     H11599   9.805   5.826   9.139 -1.4989 -4.2462  0.2656
   86MOL0     H11600   9.592   5.968   8.982  1.9960  0.8231 -1.4137
   86MOL0     H11601   9.638   5.988   9.147 -4.0604 -1.7466  1.3904
   86MOL0     H11602   9.537   5.783   9.214 -0.1916  0.9252 -0.6218
   86MOL0     H11603   9.524   5.732   9.052  0.9644 -0.8005  0.8907
   86MOL0     H11604   9.328   5.805   9.184  1.1974 -1.3639 -0.0801
   86MOL0     H11605   9.386   5.969   9.171  0.0427  0.3129 -1.2484
   86MOL0     H11606   9.229   5.923   8.789  3.8621 -1.4019 -3.2775
   86MOL0     H11607   9.720   5.526   8.803 -0.1276  0.2608  0.1556
   86MOL0     H11608   9.765   5.422   8.512  0.4800 -0.1620 -0.4346
   86MOL0     H11609   9.941   5.390   8.539 -1.4804 -1.4458 -2.2934
   86MOL0     H11610   9.835   5.349   8.654  0.0330  0.2404 -0.5134
   87MOL0     O11611   3.736   9.413   5.600  0.9754 -0.3905 -0.1000
   87MOL0     C11612   3.709   9.350   5.501 -0.2403 -0.0237  0.4249
   87MOL0     O11613   3.733   9.394   5.370 -0.5704 -0.9132 -0.5309
   87MOL0     C11614   3.693   9.524   5.345  0.1268  0.1299  0.4641
   87MOL0     C11615   3.569   9.564   5.388  1.3926  0.8688  0.2278
   87MOL0     C11616   3.525   9.687   5.365  0.6444  0.0944 -0.4152
   87MOL0     C11617   3.587   9.773   5.274  0.0934 -0.3767 -0.2494
   87MOL0     O11618   3.559   9.906   5.258  0.4046 -0.3878  0.2561
   87MOL0     C11619   3.429   9.932   5.199  0.3090  0.2250  0.5112
   87MOL0     C11620   3.449  10.022   5.076 -0.6859 -0.5802  0.3511
   87MOL0     C11621   3.503  10.161   5.118  0.8420 -0.3651 -1.0631
   87MOL0     C11622   3.394  10.248   5.178  0.6023 -0.3405  0.5005
   87MOL0     C11623   3.417  10.403   5.140 -0.4186 -0.1993 -0.0710
   87MOL0     C11624   3.543  10.471   5.202  0.5700 -0.0287 -0.0973
   87MOL0     C11625   3.562  10.452   5.363  0.0575 -0.5186 -0.2525
   87MOL0     C11626   3.636  10.340   5.409 -0.0069  0.4934 -0.2862
   87MOL0     N11627   3.779  10.346   5.362  0.7264 -0.6638 -0.0094
   87MOL0     C11628   3.851  10.249   5.293  0.3479 -1.5070 -0.3280
   87MOL0     C11629   3.972  10.310   5.278  0.3340 -0.4174 -0.2820
   87MOL0     C11630   4.096  10.247   5.229 -0.7446 -0.1698  0.7209
   87MOL0     C11631   4.094  10.094   5.243  0.2664 -0.0390  0.8516
   87MOL0     C11632   4.235  10.031   5.223  0.0565 -0.7817  1.7129
   87MOL0     C11633   4.235   9.878   5.248 -0.8980  0.3948 -0.1993
   87MOL0     O11634   4.125   9.801   5.188  0.1411 -0.4963  0.8718
   87MOL0     C11635   4.140   9.664   5.199 -0.6091  0.6933  0.0495
   87MOL0     C11636   4.088   9.594   5.311 -0.0683  0.2059  0.0889
   87MOL0     C11637   4.088   9.455   5.338 -0.3361 -0.1078 -0.6137
   87MOL0     C11638   4.162   9.379   5.256  0.4406 -0.4163  0.3090
   87MOL0     C11639   4.166   9.232   5.274 -0.5889 -0.0893  0.8307
   87MOL0     O11640   4.067   9.172   5.349  0.5796 -0.2312  0.1875
   87MOL0     C11641   4.069   9.032   5.345  0.6267 -0.4246  0.1194
   87MOL0     C11642   4.084   8.944   5.234  0.6692  0.5714 -0.1456
   87MOL0     C11643   4.086   8.805   5.244 -1.0232  0.1723 -0.0602
   87MOL0     C11644   4.035   8.757   5.361  0.9304  0.6310 -1.0319
   87MOL0     O11645   4.029   8.621   5.384 -0.0844 -0.1232  0.0909
   87MOL0     C11646   4.157   8.549   5.404  0.8169 -0.0272 -0.3654
   87MOL0     C11647   4.135   8.436   5.508 -0.2328  0.0615  1.2345
   87MOL0     C11648   4.260   8.345   5.512  0.9461 -0.6448 -0.6074
   87MOL0     C11649   4.262   8.244   5.634  0.4811  0.3462  0.5020
   87MOL0     C11650   4.398   8.191   5.677  0.5086 -0.0671  1.2786
   87MOL0     C11651   4.371   8.060   5.752 -0.6056 -0.6206  0.3223
   87MOL0     C11652   4.499   7.997   5.815  0.2535  0.7482  0.1472
   87MOL0     C11653   4.470   7.859   5.868 -0.8842 -0.2529 -0.3523
   87MOL0    Cl11654   4.366   7.859   6.025  0.1136 -0.1483  0.1738
   87MOL0     C11655   3.997   8.846   5.470 -1.0114 -1.6626  1.1419
   87MOL0     C11656   4.023   8.977   5.466  0.6567  0.0412 -0.2701
   87MOL0     O11657   4.254   9.169   5.205 -0.1172 -0.8214  0.7184
   87MOL0     C11658   4.218   9.442   5.136  0.0193  0.1969 -0.8852
   87MOL0     C11659   4.190   9.576   5.102 -0.0820 -0.7388  0.8636
   87MOL0     N11660   3.965  10.436   5.320  1.1097  0.0385 -0.2690
   87MOL0     N11661   3.847  10.459   5.372  0.4508  0.5919  0.8333
   87MOL0     C11662   3.703   9.726   5.222 -0.3553 -0.0971 -0.2969
   87MOL0     C11663   3.763   9.608   5.260 -0.7059 -0.3410 -0.1647
   87MOL0     C11664   3.660   9.207   5.518  0.6695  0.3714  0.8024
   87MOL0     C11665   3.608   9.173   5.642 -0.1355 -0.1708  0.8201
   87MOL0     C11666   3.563   9.046   5.673  0.4235  0.1469 -0.0797
   87MOL0     C11667   3.584   8.943   5.584  0.2514  0.6602  0.2221
   87MOL0     O11668   3.546   8.810   5.616  0.2207  0.3704 -0.3231
   87MOL0     C11669   3.617   8.704   5.566  0.3995  0.1254 -0.4220
   87MOL0     C11670   3.650   8.596   5.671  0.3712  0.0386 -0.3084
   87MOL0     C11671   3.742   8.654   5.775  0.1608 -0.0397 -1.1346
   87MOL0     C11672   3.822   8.554   5.862  0.6965  0.7520 -1.0514
   87MOL0     C11673   3.865   8.425   5.800 -0.0405 -0.0072  0.3945
   87MOL0     C11674   3.896   8.319   5.749  0.5172 -0.4837  0.7212
   87MOL0     C11675   3.641   8.969   5.459 -1.0825  0.5323 -0.0507
   87MOL0     C11676   3.684   9.101   5.428 -0.0237  0.6730 -0.7863
   87MOL0     C11677   3.735   9.124   5.283  0.1187 -0.7905  0.5133
   87MOL0     H11678   3.504   9.502   5.450 -0.6154  1.0990 -1.5273
   87MOL0     H11679   3.435   9.730   5.407  0.5787  2.3259 -2.6059
   87MOL0     H11680   3.388   9.835   5.170 -2.4979  0.4040  3.2248
   87MOL0     H11681   3.361   9.978   5.273  4.2957  5.0562  1.7213
   87MOL0     H11682   3.351  10.034   5.028 -0.9154 -1.2053  0.6570
   87MOL0     H11683   3.519   9.972   5.009  3.1419  1.9797  2.0854
   87MOL0     H11684   3.546  10.221   5.038  3.3014  0.5498  0.8115
   87MOL0     H11685   3.588  10.147   5.186  2.5016  0.9167 -2.7839
   87MOL0     H11686   3.296  10.218   5.140  0.1470  0.8488  0.6804
   87MOL0     H11687   3.385  10.222   5.284 -0.3608 -1.5926  0.1355
   87MOL0     H11688   3.427  10.416   5.032 -0.7716 -0.8804 -0.1900
   87MOL0     H11689   3.331  10.461   5.174  0.0693 -1.1071  3.0418
   87MOL0     H11690   3.624  10.418   5.151  0.0657 -0.8814 -0.0363
   87MOL0     H11691   3.540  10.577   5.177  1.3022  0.5096  1.8982
   87MOL0     H11692   3.461  10.439   5.402 -0.1428 -0.2930 -0.6786
   87MOL0     H11693   3.601  10.550   5.395 -0.3125 -0.8378  1.2057
   87MOL0     H11694   3.627  10.343   5.518  0.2759  0.3663 -0.2591
   87MOL0     H11695   3.596  10.247   5.367  2.6330  0.4812 -3.1534
   87MOL0     H11696   3.820  10.146   5.276  0.5852 -2.0268  1.9777
   87MOL0     H11697   4.121  10.280   5.128  4.0566  0.9808  2.0249
   87MOL0     H11698   4.178  10.279   5.295 -0.5014 -0.2707  0.4672
   87MOL0     H11699   4.053  10.064   5.340  1.1799  2.6687  2.1666
   87MOL0     H11700   4.021  10.060   5.168  1.5798 -0.4602 -0.2842
   87MOL0     H11701   4.310  10.085   5.281 -0.5393  0.3870  1.4269
   87MOL0     H11702   4.253  10.057   5.119 -1.0311  0.6240  1.8379
   87MOL0     H11703   4.237   9.855   5.355  2.9753  2.1678  0.2918
   87MOL0     H11704   4.323   9.841   5.194 -1.0617 -0.4688  0.1088
   87MOL0     H11705   4.030   9.654   5.381 -0.4651 -0.6819  0.5340
   87MOL0     H11706   4.040   9.406   5.422 -0.5958 -1.0684 -1.3019
   87MOL0     H11707   4.108   8.984   5.136  0.9867  2.7399  0.7525
   87MOL0     H11708   4.094   8.730   5.166 -3.4658 -2.0555  1.6785
   87MOL0     H11709   4.188   8.512   5.306  0.6815  2.3302 -1.3619
   87MOL0     H11710   4.233   8.624   5.427 -1.2561  1.7815  1.0694
   87MOL0     H11711   4.107   8.483   5.603  0.1268  0.8152  0.9762
   87MOL0     H11712   4.047   8.379   5.476  0.5058  0.4821 -1.8965
   87MOL0     H11713   4.257   8.277   5.426 -0.8944 -0.1054 -1.0209
   87MOL0     H11714   4.347   8.411   5.519 -0.8803  1.7818  0.2969
   87MOL0     H11715   4.191   8.165   5.608  0.4060  1.5723 -3.6477
   87MOL0     H11716   4.211   8.296   5.715  0.4080  0.8551  0.1304
   87MOL0     H11717   4.424   8.274   5.744 -2.1469  1.3467  0.7164
   87MOL0     H11718   4.466   8.180   5.593  0.4017 -0.9205  1.3023
   87MOL0     H11719   4.297   8.071   5.832  1.4273 -0.8538  2.3793
   87MOL0     H11720   4.336   7.982   5.685 -0.2649 -1.3293  0.9428
   87MOL0     H11721   4.538   8.057   5.898 -0.3233  3.3385 -1.3392
   87MOL0     H11722   4.584   7.980   5.748 -0.1708  0.8964 -0.4340
   87MOL0     H11723   4.429   7.800   5.786 -0.4747 -0.5547 -0.3399
   87MOL0     H11724   4.565   7.817   5.901 -0.4898  0.5600 -0.4243
   87MOL0     H11725   3.952   8.794   5.554 -0.9062 -0.1199  2.1778
   87MOL0     H11726   3.992   9.042   5.547 -1.5797  0.6903 -1.5499
   87MOL0     H11727   4.273   9.388   5.059  2.1283  0.9482  0.0163
   87MOL0     H11728   4.228   9.624   5.012 -2.8589  1.6446  0.8126
   87MOL0     H11729   3.776   9.782   5.165 -1.5908  0.1122 -1.7625
   87MOL0     H11730   3.850   9.567   5.210 -2.0680 -4.9406  0.7818
   87MOL0     H11731   3.603   9.239   5.728  0.0794 -2.1902  2.4373
   87MOL0     H11732   3.525   9.018   5.771  4.2179 -0.9487  1.2708
   87MOL0     H11733   3.720   8.735   5.550  1.8684 -3.7654  0.3250
   87MOL0     H11734   3.568   8.661   5.478 -2.3733  0.4421  0.8726
   87MOL0     H11735   3.709   8.527   5.610  0.4140  0.7239 -1.0592
   87MOL0     H11736   3.565   8.545   5.718  0.4086 -0.5030 -0.8066
   87MOL0     H11737   3.685   8.723   5.838  1.3560 -1.3176  1.5195
   87MOL0     H11738   3.829   8.703   5.729  1.7046  0.0758  1.6844
   87MOL0     H11739   3.885   8.620   5.923 -2.8019  4.0057 -0.5340
   87MOL0     H11740   3.755   8.523   5.943 -0.2238  2.9303 -0.8918
   87MOL0     H11741   3.940   8.239   5.693  1.2711  0.1692  0.3498
   87MOL0     H11742   3.660   8.895   5.382 -0.3506  0.5832  0.0734
   87MOL0     H11743   3.775   9.034   5.234 -0.1824  1.0447 -3.4326
   87MOL0     H11744   3.651   9.162   5.225 -0.8720 -3.7919 -0.2299
   87MOL0     H11745   3.823   9.187   5.268  1.4217 -2.4649  0.8351
   88MOL0     O11746  11.132   5.060  11.357 -0.5191  1.0570  0.2512
   88MOL0     C11747  11.087   4.994  11.452  0.3541 -0.0642 -0.5795
   88MOL0     O11748  11.005   5.043  11.552 -0.5131  0.4953  0.3025
   88MOL0     C11749  10.978   5.179  11.533 -0.2180  0.9551 -0.5112
   88MOL0     C11750  10.857   5.213  11.477 -0.0782  0.2741 -0.8594
   88MOL0     C11751  10.830   5.343  11.428  0.0126 -0.2352 -0.1638
   88MOL0     C11752  10.915   5.445  11.464 -0.1456  1.5041 -0.2031
   88MOL0     O11753  10.880   5.570  11.436 -0.2391  0.8781  0.3032
   88MOL0     C11754  10.980   5.664  11.383  0.4112  0.2249  0.0813
   88MOL0     C11755  10.916   5.793  11.340  0.5845  0.1466 -0.3246
   88MOL0     C11756  11.024   5.906  11.338 -0.3726  0.9692  0.8731
   88MOL0     C11757  10.979   6.047  11.287 -0.2665 -1.1402 -0.6207
   88MOL0     C11758  11.113   6.130  11.302 -0.2235 -0.6770  0.8347
   88MOL0     C11759  11.080   6.273  11.247  0.1826 -1.0465  0.6191
   88MOL0     C11760  11.199   6.363  11.225  0.3006 -0.1810 -0.2531
   88MOL0     C11761  11.142   6.504  11.238  0.2420 -0.3606  0.6935
   88MOL0     N11762  11.004   6.532  11.184 -0.1286 -0.7446  0.2603
   88MOL0     C11763  10.958   6.539  11.052  0.6115 -0.3604  0.0935
   88MOL0     C11764  10.833   6.587  11.068  0.7254  1.6742 -0.5092
   88MOL0     C11765  10.745   6.623  10.965  0.6374 -0.0137  1.1209
   88MOL0     C11766  10.642   6.519  10.907  0.0822 -0.0676 -0.0417
   88MOL0     C11767  10.729   6.402  10.850  0.6549  0.0698 -0.1721
   88MOL0     C11768  10.665   6.335  10.721 -0.5865 -1.0324  0.9736
   88MOL0     O11769  10.749   6.233  10.661 -0.1548 -0.2074 -0.7794
   88MOL0     C11770  10.704   6.100  10.647  0.1553  0.8513 -0.4722
   88MOL0     C11771  10.590   6.044  10.705 -0.8034  0.1455  0.5007
   88MOL0     C11772  10.555   5.913  10.685  0.3872 -0.3965  0.5747
   88MOL0     C11773  10.643   5.825  10.616  0.2589  0.3505 -0.4188
   88MOL0     C11774  10.612   5.680  10.617 -1.2049 -0.3402  0.3022
   88MOL0     O11775  10.624   5.614  10.501  0.0400 -0.0466 -0.0595
   88MOL0     C11776  10.608   5.479  10.507 -0.7928  0.4013  0.5297
   88MOL0     C11777  10.685   5.395  10.594  1.1024 -0.6495 -0.0026
   88MOL0     C11778  10.659   5.259  10.601 -0.4391 -0.2097 -0.9640
   88MOL0     C11779  10.563   5.204  10.520  0.6733  0.9775 -0.6086
   88MOL0     O11780  10.544   5.074  10.546  0.1215  0.5791 -0.0959
   88MOL0     C11781  10.436   5.007  10.473 -0.4500  0.3680 -1.0876
   88MOL0     C11782  10.403   4.861  10.527  0.5895 -0.4762 -0.0398
   88MOL0     C11783  10.491   4.755  10.466 -0.0971 -0.4098  0.5092
   88MOL0     C11784  10.450   4.707  10.332 -0.6911 -0.7660 -0.1293
   88MOL0     C11785  10.551   4.603  10.279  0.2227  1.2248  0.2221
   88MOL0     C11786  10.479   4.478  10.245  0.3604 -0.2392  0.7330
   88MOL0     C11787  10.556   4.366  10.172 -0.4635  0.4471  0.3665
   88MOL0     C11788  10.459   4.271  10.094 -0.4970  0.4578  0.5942
   88MOL0    Cl11789  10.370   4.173  10.206  0.2216  0.1594 -0.7009
   88MOL0     C11790  10.494   5.279  10.423  0.0911 -0.6695 -0.2241
   88MOL0     C11791  10.508   5.422  10.418  0.0759  0.3735  1.2493
   88MOL0     O11792  10.581   5.629  10.728  0.4889  0.1063  0.4983
   88MOL0     C11793  10.751   5.891  10.542 -0.8213  1.1198  1.1811
   88MOL0     C11794  10.783   6.024  10.573  0.6381  0.3692  0.0400
   88MOL0     N11795  10.803   6.591  11.201  0.6922 -0.0987 -0.0710
   88MOL0     N11796  10.904   6.556  11.266 -0.8344 -0.6068 -1.2587
   88MOL0     C11797  11.029   5.411  11.538  0.5539 -0.5900 -0.2268
   88MOL0     C11798  11.064   5.278  11.565  0.3105 -0.1302  0.7823
   88MOL0     C11799  11.135   4.854  11.458  0.2194  0.4172  0.1429
   88MOL0     C11800  11.146   4.797  11.585  1.0915 -0.1200 -0.8391
   88MOL0     C11801  11.175   4.661  11.604  0.0687 -0.4509 -0.1504
   88MOL0     C11802  11.214   4.575  11.500  0.3110  0.1166 -1.5364
   88MOL0     O11803  11.244   4.437  11.515  0.1679 -0.1411 -0.0966
   88MOL0     C11804  11.226   4.365  11.635 -0.5765  0.4841  0.0877
   88MOL0     C11805  11.271   4.218  11.630 -0.4391 -0.0193  0.2777
   88MOL0     C11806  11.197   4.134  11.725 -0.0323 -0.3492  0.0864
   88MOL0     C11807  11.253   3.993  11.715 -0.6873  1.6388  0.4166
   88MOL0     C11808  11.394   3.980  11.769  0.1831  0.8183  0.5310
   88MOL0     C11809  11.512   3.997  11.811  0.1616 -0.5950  0.4883
   88MOL0     C11810  11.209   4.628  11.368  0.1681 -0.2879 -0.1168
   88MOL0     C11811  11.169   4.763  11.348  0.2743 -0.7623  0.2664
   88MOL0     C11812  11.143   4.806  11.204  0.1316 -0.1981 -1.0193
   88MOL0     H11813  10.784   5.132  11.473  2.4201 -2.2292  0.4692
   88MOL0     H11814  10.744   5.367  11.366  0.3384 -0.9358 -0.9044
   88MOL0     H11815  11.047   5.673  11.469  1.5841 -1.1150 -0.6471
   88MOL0     H11816  11.030   5.618  11.297  0.2546  1.3607 -0.6406
   88MOL0     H11817  10.838   5.825  11.410  1.6245  2.8685 -0.2691
   88MOL0     H11818  10.876   5.778  11.240  0.6639 -0.8527 -0.2153
   88MOL0     H11819  11.107   5.877  11.273  1.3048  3.0956  1.9554
   88MOL0     H11820  11.054   5.911  11.443  3.1847  0.8060 -0.0068
   88MOL0     H11821  10.951   6.027  11.184 -4.0792 -1.1663  0.2510
   88MOL0     H11822  10.885   6.078  11.334 -0.8220 -3.2718 -0.1920
   88MOL0     H11823  11.144   6.132  11.407 -0.5070  3.1853  0.9676
   88MOL0     H11824  11.190   6.090  11.236  0.7124  3.1918 -0.6620
   88MOL0     H11825  11.032   6.257  11.150  3.7817  0.5058 -1.6272
   88MOL0     H11826  11.001   6.309  11.315 -2.0606 -1.8574 -1.4157
   88MOL0     H11827  11.247   6.356  11.127  0.9581 -2.2382  0.1799
   88MOL0     H11828  11.277   6.351  11.301  0.4318 -2.7515 -0.7256
   88MOL0     H11829  11.143   6.515  11.347  3.0605 -0.5987  0.7610
   88MOL0     H11830  11.212   6.582  11.206 -1.1658  1.8672  2.7211
   88MOL0     H11831  11.018   6.517  10.964 -1.1853 -2.0563 -0.7688
   88MOL0     H11832  10.694   6.714  10.998  2.2413  1.0159  0.8778
   88MOL0     H11833  10.804   6.659  10.880 -0.4844 -1.8015 -0.5008
   88MOL0     H11834  10.578   6.479  10.986 -0.0149  0.7755  0.3193
   88MOL0     H11835  10.572   6.557  10.833  0.8818  0.0017 -0.7805
   88MOL0     H11836  10.737   6.339  10.939  2.8643  5.0413  3.6117
   88MOL0     H11837  10.826   6.443  10.823 -0.0254  2.6118  0.9170
   88MOL0     H11838  10.644   6.424  10.661  1.3103  1.0272  3.1537
   88MOL0     H11839  10.568   6.288  10.741 -1.7708 -0.1976 -2.2209
   88MOL0     H11840  10.514   6.099  10.760 -1.0410 -1.3670  1.7758
   88MOL0     H11841  10.460   5.882  10.728  0.2736  0.8281  1.2474
   88MOL0     H11842  10.757   5.449  10.654 -1.3302  0.2513  2.3523
   88MOL0     H11843  10.715   5.194  10.667 -0.5480 -0.3293 -0.9892
   88MOL0     H11844  10.350   5.072  10.493  0.3969  1.3212 -0.4633
   88MOL0     H11845  10.448   5.007  10.364  0.8680 -1.0721 -0.9807
   88MOL0     H11846  10.403   4.867  10.636 -2.6362  3.0477 -0.0171
   88MOL0     H11847  10.301   4.825  10.507  0.8766 -1.1150 -0.4044
   88MOL0     H11848  10.594   4.791  10.462 -0.0722 -0.5570 -0.5890
   88MOL0     H11849  10.497   4.675  10.540 -1.2708 -3.2896 -2.2485
   88MOL0     H11850  10.449   4.794  10.265 -2.6149 -0.3111  0.4201
   88MOL0     H11851  10.344   4.680  10.341 -0.7194 -0.0164  2.9050
   88MOL0     H11852  10.617   4.559  10.354 -0.7368 -2.9593 -1.1089
   88MOL0     H11853  10.615   4.629  10.194  0.9392  0.1627  0.4113
   88MOL0     H11854  10.430   4.432  10.332 -0.5915 -0.4827  0.0737
   88MOL0     H11855  10.405   4.506  10.170  1.2989 -0.1547 -0.1871
   88MOL0     H11856  10.619   4.312  10.244  1.6931  2.4119  0.0674
   88MOL0     H11857  10.628   4.407  10.100 -0.6374 -2.1663 -1.4341
   88MOL0     H11858  10.400   4.329  10.023 -1.2451  2.9934  3.1287
   88MOL0     H11859  10.514   4.190  10.045 -2.9072 -2.2015  1.9633
   88MOL0     H11860  10.417   5.236  10.361  0.8274 -0.3498 -1.3911
   88MOL0     H11861  10.440   5.488  10.365 -1.1570 -1.3585  0.6087
   88MOL0     H11862  10.820   5.830  10.484 -2.2978  0.3978  0.1176
   88MOL0     H11863  10.882   6.061  10.551  0.8040  0.4338  0.8585
   88MOL0     H11864  11.095   5.488  11.576 -1.8367  2.2154 -1.3508
   88MOL0     H11865  11.159   5.265  11.616  0.6714 -1.2563 -0.1257
   88MOL0     H11866  11.107   4.853  11.669 -1.0936  0.2511 -2.0336
   88MOL0     H11867  11.187   4.618  11.703  1.0826 -1.6591 -0.7704
   88MOL0     H11868  11.117   4.359  11.648 -0.4071 -2.1264  0.7611
   88MOL0     H11869  11.276   4.412  11.720 -1.0869  1.2037  0.0067
   88MOL0     H11870  11.379   4.215  11.647 -0.3440 -1.6482 -0.4155
   88MOL0     H11871  11.251   4.179  11.530  1.8693  1.7776 -1.0051
   88MOL0     H11872  11.088   4.132  11.711 -0.1758 -1.7670  1.1720
   88MOL0     H11873  11.226   4.164  11.826  3.9469 -1.6994 -0.4905
   88MOL0     H11874  11.196   3.935  11.788  2.0600  2.2352  3.2363
   88MOL0     H11875  11.241   3.953  11.614 -0.1209 -0.8576  1.2757
   88MOL0     H11876  11.603   4.028  11.858  0.0554  1.9012 -0.7800
   88MOL0     H11877  11.216   4.568  11.278 -0.6930  2.1245 -1.8979
   88MOL0     H11878  11.194   4.901  11.187 -1.2946  0.6457 -0.7268
   88MOL0     H11879  11.191   4.734  11.137  0.1657  0.4086 -1.6608
   88MOL0     H11880  11.035   4.821  11.194 -0.5109 -2.7855  1.0409
   89MOL0     O11881   6.726   9.618  10.627 -0.0134 -0.1227  0.4339
   89MOL0     C11882   6.626   9.553  10.660  0.4262 -0.4466  0.2945
   89MOL0     O11883   6.629   9.412  10.664 -0.3558  0.1152  0.5278
   89MOL0     C11884   6.752   9.351  10.643 -1.2546 -0.6331  0.3422
   89MOL0     C11885   6.804   9.280  10.742 -0.6773  0.1208 -0.3423
   89MOL0     C11886   6.937   9.226  10.736 -0.2597  0.1918  1.3382
   89MOL0     C11887   7.011   9.238  10.618  1.1222  1.1912  0.3736
   89MOL0     O11888   7.145   9.214  10.598  0.2686 -0.4982  0.0357
   89MOL0     C11889   7.219   9.149  10.707 -0.5444 -0.5297 -0.1561
   89MOL0     C11890   7.353   9.088  10.673  0.0243  0.0794  1.0022
   89MOL0     C11891   7.400   9.003  10.783 -0.3787  0.5173 -0.0095
   89MOL0     C11892   7.541   8.940  10.762 -0.0167 -0.1424 -0.2325
   89MOL0     C11893   7.579   8.865  10.888  0.7849 -0.1783  0.2516
   89MOL0     C11894   7.724   8.828  10.877 -0.0528  0.3699 -0.4586
   89MOL0     C11895   7.773   8.764  11.015  0.8649 -0.2777 -0.1417
   89MOL0     C11896   7.921   8.724  10.997 -0.5090 -0.7938 -0.1849
   89MOL0     N11897   7.979   8.676  11.126 -0.2791 -0.8845  1.0884
   89MOL0     C11898   8.106   8.625  11.150  0.4234 -0.0680  0.7076
   89MOL0     C11899   8.110   8.598  11.286  0.8580 -0.0473  0.5913
   89MOL0     C11900   8.221   8.522  11.365 -1.0200 -0.9920  0.2644
   89MOL0     C11901   8.355   8.595  11.349 -0.7658 -1.2388  0.5777
   89MOL0     C11902   8.371   8.679  11.478 -0.2712  0.2371  0.3331
   89MOL0     C11903   8.400   8.590  11.604 -0.1173 -0.6398  0.0226
   89MOL0     O11904   8.513   8.633  11.676 -0.2297  0.1544 -1.4165
   89MOL0     C11905   8.510   8.746  11.760 -0.0507  0.0451 -0.9010
   89MOL0     C11906   8.387   8.794  11.816 -0.7122  0.1909  0.3569
   89MOL0     C11907   8.397   8.890  11.919  0.1562  0.6323  1.2166
   89MOL0     C11908   8.506   8.940  11.959  0.3600  0.6563  0.3582
   89MOL0     C11909   8.504   9.048  12.065  0.0057  0.3866  0.6705
   89MOL0     O11910   8.617   9.121  12.093 -0.8496 -0.7925 -0.9071
   89MOL0     C11911   8.622   9.170  12.220 -0.1086 -0.2874  0.8762
   89MOL0     C11912   8.669   9.298  12.249 -1.2532 -0.6417  0.9933
   89MOL0     C11913   8.688   9.341  12.382  0.0593 -0.3583  0.6215
   89MOL0     C11914   8.655   9.253  12.488 -0.3513  0.4874 -0.4886
   89MOL0     O11915   8.658   9.303  12.619  0.2347  0.7690  0.1686
   89MOL0     C11916   8.530   9.310  12.695  0.9470 -0.6804  0.8019
   89MOL0     C11917   8.496   9.190  12.781 -0.3086 -0.1466  0.2129
   89MOL0     C11918   8.393   9.240  12.889 -0.2920  0.3094  0.3369
   89MOL0     C11919   8.260   9.283  12.823  0.8964 -0.4166  0.9783
   89MOL0     C11920   8.146   9.306  12.931  0.4895 -0.2402  0.8159
   89MOL0     C11921   8.004   9.322  12.870 -0.4604  0.0040  0.1751
   89MOL0     C11922   7.894   9.321  12.969 -1.2093 -0.4480  0.3675
   89MOL0     C11923   7.754   9.324  12.902 -1.0413 -0.0397 -0.6992
   89MOL0    Cl11924   7.618   9.360  13.008 -0.1688  0.3285  0.2801
   89MOL0     C11925   8.605   9.132  12.456 -0.9665  0.0892 -0.3490
   89MOL0     C11926   8.584   9.090  12.332  0.2909  0.0998  0.6298
   89MOL0     O11927   8.396   9.053  12.125 -0.2981  0.5068 -0.4747
   89MOL0     C11928   8.623   8.894  11.919  0.1032  0.1669 -0.7466
   89MOL0     C11929   8.630   8.800  11.818 -0.9161  0.1412 -0.0585
   89MOL0     N11930   7.983   8.638  11.336  0.3610  0.5125 -0.8926
   89MOL0     N11931   7.913   8.686  11.244 -0.2627 -0.0063  0.2315
   89MOL0     C11932   6.950   9.297  10.502 -0.1746 -0.7751  0.6669
   89MOL0     C11933   6.820   9.350  10.521 -0.1467  0.1960  0.7377
   89MOL0     C11934   6.489   9.612  10.655 -0.2126 -0.1635  0.0220
   89MOL0     C11935   6.374   9.524  10.647 -0.2129 -0.2954 -0.2324
   89MOL0     C11936   6.242   9.571  10.620 -0.3809  0.1297  0.3489
   89MOL0     C11937   6.220   9.706  10.619  0.6314  0.9396  0.7380
   89MOL0     O11938   6.092   9.738  10.610 -0.4338 -0.7018 -0.6376
   89MOL0     C11939   6.050   9.847  10.531 -0.6499 -0.0030 -0.8127
   89MOL0     C11940   6.047   9.980  10.604  0.1841  0.2595 -0.4456
   89MOL0     C11941   5.932  10.077  10.552  0.0716  0.8895  0.0011
   89MOL0     C11942   5.789  10.022  10.562  0.5725  0.0769 -0.1535
   89MOL0     C11943   5.689  10.123  10.524  0.3938  0.3929  0.9514
   89MOL0     C11944   5.605  10.210  10.511  0.5565  0.4632  0.1747
   89MOL0     C11945   6.323   9.804  10.636 -0.6829 -0.3347 -0.1971
   89MOL0     C11946   6.456   9.754  10.646  0.5170 -0.6935  0.5490
   89MOL0     C11947   6.564   9.863  10.641 -0.3563  0.3020 -0.9546
   89MOL0     H11948   6.747   9.249  10.829 -1.9441 -1.8046 -1.7708
   89MOL0     H11949   6.978   9.186  10.828  0.5885 -1.8233  0.1405
   89MOL0     H11950   7.233   9.220  10.789  1.4518 -0.7870 -0.2281
   89MOL0     H11951   7.160   9.062  10.738  1.8436 -1.6137  1.7662
   89MOL0     H11952   7.420   9.171  10.651  1.2516 -0.3724  2.7610
   89MOL0     H11953   7.342   9.034  10.578 -0.4770  1.2306  0.3923
   89MOL0     H11954   7.330   8.922  10.807 -2.4017  3.0894  3.7737
   89MOL0     H11955   7.409   9.060  10.876  1.1365 -2.0522  1.5652
   89MOL0     H11956   7.549   8.868  10.680  0.3905 -2.2881  1.5980
   89MOL0     H11957   7.615   9.020  10.754 -3.5314  3.2166 -2.3831
   89MOL0     H11958   7.557   8.923  10.978 -3.0321  0.5333 -0.9508
   89MOL0     H11959   7.522   8.772  10.893 -1.1140  0.8676 -0.7483
   89MOL0     H11960   7.752   8.769  10.790 -1.1485 -1.4002  0.3240
   89MOL0     H11961   7.778   8.922  10.868  1.5983 -0.6182 -1.3310
   89MOL0     H11962   7.719   8.670  11.033  0.6332 -0.6041 -2.2452
   89MOL0     H11963   7.756   8.838  11.094  2.5688  2.0024 -1.7650
   89MOL0     H11964   7.935   8.643  10.925 -1.8400 -0.4946 -0.8121
   89MOL0     H11965   7.976   8.808  10.955 -1.6403  0.1176  0.1061
   89MOL0     H11966   8.187   8.601  11.082  0.8102  1.5978  0.5352
   89MOL0     H11967   8.191   8.525  11.470 -3.5031  0.4146 -0.4035
   89MOL0     H11968   8.219   8.418  11.331 -0.0788 -1.5829  1.9372
   89MOL0     H11969   8.439   8.526  11.337  1.2370  1.2317 -0.4629
   89MOL0     H11970   8.349   8.658  11.260 -1.8043  3.0127  3.3546
   89MOL0     H11971   8.292   8.753  11.494  0.8241  2.2043 -2.4417
   89MOL0     H11972   8.464   8.730  11.449 -0.3886  0.5411  0.4904
   89MOL0     H11973   8.414   8.484  11.584  3.0046 -0.0071 -1.8638
   89MOL0     H11974   8.306   8.601  11.659 -0.2765  1.1619 -0.5424
   89MOL0     H11975   8.290   8.751  11.791 -1.1017  0.9279  0.5480
   89MOL0     H11976   8.297   8.915  11.953 -2.6507 -2.7859 -3.3854
   89MOL0     H11977   8.698   9.364  12.167 -0.4240 -1.5808  0.5103
   89MOL0     H11978   8.708   9.447  12.395  2.0947 -0.4387 -1.3236
   89MOL0     H11979   8.526   9.406  12.748  0.7620  0.6561 -1.4942
   89MOL0     H11980   8.445   9.320  12.627 -0.4671  0.1719  2.6115
   89MOL0     H11981   8.450   9.108  12.725 -1.7774 -0.5138  1.8334
   89MOL0     H11982   8.585   9.143  12.825 -0.7663 -0.4556  0.8407
   89MOL0     H11983   8.378   9.152  12.953  0.5450  0.4655  0.7673
   89MOL0     H11984   8.436   9.324  12.945 -4.1167  0.5328  3.3475
   89MOL0     H11985   8.225   9.209  12.751 -2.1422 -0.5505  2.3955
   89MOL0     H11986   8.290   9.373  12.769  0.1322 -1.7241 -1.7647
   89MOL0     H11987   8.154   9.399  12.988 -0.5936  1.3281 -1.4243
   89MOL0     H11988   8.141   9.216  12.993 -1.2382 -0.3581  0.5585
   89MOL0     H11989   8.000   9.409  12.803  0.4380  0.1594  0.3163
   89MOL0     H11990   7.992   9.231  12.810 -2.1029 -1.0357  1.9631
   89MOL0     H11991   7.915   9.415  13.020 -1.1487 -0.6191  0.6636
   89MOL0     H11992   7.903   9.239  13.041  1.6351 -2.0142 -1.5503
   89MOL0     H11993   7.761   9.403  12.826 -2.5477  0.0575 -0.7575
   89MOL0     H11994   7.735   9.228  12.852  2.8706 -1.7619  0.7025
   89MOL0     H11995   8.578   9.066  12.539  1.1500  2.5237  2.5082
   89MOL0     H11996   8.557   8.985  12.341 -1.0408  0.3744  0.0656
   89MOL0     H11997   8.716   8.926  11.965 -0.5359  0.3329  0.4693
   89MOL0     H11998   8.728   8.763  11.791 -0.6581 -0.4787  1.5836
   89MOL0     H11999   7.014   9.320  10.416 -0.2619  1.2553  1.0820
   89MOL0     H12000   6.769   9.385  10.432 -1.5292  1.8350  2.0925
   89MOL0     H12001   6.388   9.417  10.632  2.5046 -0.2495  1.3423
   89MOL0     H12002   6.157   9.512  10.587 -0.1305  0.1947 -0.4311
   89MOL0     H12003   5.948   9.820  10.504 -2.5523  2.0947  3.3829
   89MOL0     H12004   6.113   9.854  10.441  2.2625 -1.1420  0.9691
   89MOL0     H12005   6.143  10.024  10.579  1.6865 -2.4932  0.1106
   89MOL0     H12006   6.047   9.964  10.712 -1.7033  0.1763 -0.4128
   89MOL0     H12007   5.956  10.113  10.452  1.2846  3.1854  1.0483
   89MOL0     H12008   5.932  10.163  10.619 -0.1801 -0.1371  1.3718
   89MOL0     H12009   5.770   9.943  10.489 -4.0021  1.7794 -1.1383
   89MOL0     H12010   5.771   9.984  10.663  4.6136 -0.0138  0.7192
   89MOL0     H12011   5.531  10.285  10.489 -0.6888 -0.9572 -0.7292
   89MOL0     H12012   6.302   9.909  10.616 -2.6214 -0.7230 -0.3530
   89MOL0     H12013   6.521   9.942  10.703 -2.0115  0.0700 -1.7213
   89MOL0     H12014   6.662   9.838  10.681 -0.4021  1.0537 -0.3654
   89MOL0     H12015   6.579   9.903  10.540 -1.1139  1.4985 -0.6188
   90MOL0     O12016  11.173   5.211   5.108  0.5278 -0.6981  1.1198
   90MOL0     C12017  11.065   5.166   5.076  0.5710  0.1720  0.7035
   90MOL0     O12018  10.945   5.206   5.128 -0.9237 -0.6385 -0.6237
   90MOL0     C12019  10.943   5.324   5.204 -0.5354 -1.0556 -0.4303
   90MOL0     C12020  11.002   5.438   5.148  0.8486 -0.0630 -0.4583
   90MOL0     C12021  11.014   5.563   5.218  0.2408  0.6750 -1.0436
   90MOL0     C12022  10.949   5.571   5.349  0.6001  0.0644  0.8172
   90MOL0     O12023  10.942   5.683   5.442  0.5275 -0.1071  0.5199
   90MOL0     C12024  10.969   5.803   5.387 -0.0703 -0.7380  0.3963
   90MOL0     C12025  10.957   5.908   5.494 -0.1478 -0.8634 -0.5326
   90MOL0     C12026  10.968   6.057   5.436 -0.1141  0.5814  0.0222
   90MOL0     C12027  10.835   6.101   5.372  0.0975 -0.2111  0.2606
   90MOL0     C12028  10.856   6.227   5.292 -0.1856  0.5356 -0.0231
   90MOL0     C12029  10.884   6.211   5.136 -0.1407 -0.6863  0.3408
   90MOL0     C12030  10.755   6.196   5.053  0.6935  0.3966 -0.6156
   90MOL0     C12031  10.778   6.264   4.920 -1.2257 -0.8689  0.0236
   90MOL0     N12032  10.871   6.204   4.819  0.5077 -0.3471 -0.2997
   90MOL0     C12033  10.874   6.078   4.759 -0.4588 -0.1065 -0.1042
   90MOL0     C12034  10.980   6.084   4.669 -0.5670 -0.5898  0.2409
   90MOL0     C12035  11.040   5.970   4.591 -0.1073  0.3704  0.9791
   90MOL0     C12036  11.165   5.988   4.515 -0.2655 -0.1105 -0.6191
   90MOL0     C12037  11.236   5.862   4.473  1.0395 -0.0816  0.8187
   90MOL0     C12038  11.166   5.779   4.366  0.0620 -0.3591 -0.6186
   90MOL0     O12039  11.257   5.672   4.331  0.1686  0.1127  0.0737
   90MOL0     C12040  11.367   5.692   4.247  0.0468  0.4824 -0.6385
   90MOL0     C12041  11.409   5.805   4.178 -0.5485 -0.7846 -0.4094
   90MOL0     C12042  11.518   5.801   4.093  0.2665 -0.5364 -0.2659
   90MOL0     C12043  11.590   5.681   4.065 -0.1219 -1.0515 -0.7236
   90MOL0     C12044  11.704   5.668   3.980  0.7448 -0.4702  0.2630
   90MOL0     O12045  11.757   5.794   3.944  0.1237  0.4862  0.0123
   90MOL0     C12046  11.876   5.798   3.877  1.1795  0.1779  0.2764
   90MOL0     C12047  11.981   5.891   3.902 -0.9749 -0.2449  0.4722
   90MOL0     C12048  12.084   5.907   3.813  0.1339  1.1108 -0.7231
   90MOL0     C12049  12.099   5.825   3.710  0.6561  0.0830  0.5607
   90MOL0     O12050  12.197   5.862   3.623  0.3444  0.0034  0.6669
   90MOL0     C12051  12.225   5.772   3.511 -0.4022 -0.1398 -0.7401
   90MOL0     C12052  12.361   5.835   3.446 -1.1617  0.5335  0.3024
   90MOL0     C12053  12.486   5.744   3.484 -0.9914  0.2495  0.1181
   90MOL0     C12054  12.624   5.821   3.465 -0.0160  0.3369 -0.1345
   90MOL0     C12055  12.743   5.725   3.479  0.0873 -0.2995  0.0356
   90MOL0     C12056  12.758   5.621   3.362  0.1404 -0.4161 -0.2169
   90MOL0     C12057  12.882   5.535   3.395  0.6207 -0.6102 -0.6857
   90MOL0     C12058  13.004   5.610   3.340 -0.3551  0.3377 -0.8000
   90MOL0    Cl12059  13.003   5.635   3.160 -0.0039 -0.1304 -0.0145
   90MOL0     C12060  12.001   5.721   3.687 -0.5625 -1.0605  0.7449
   90MOL0     C12061  11.891   5.710   3.765  0.0920 -1.3989  0.5491
   90MOL0     O12062  11.739   5.558   3.935 -0.2951 -0.0049  0.2773
   90MOL0     C12063  11.546   5.567   4.131 -0.2660 -1.0499  0.9546
   90MOL0     C12064  11.430   5.572   4.217 -1.1111  0.3238  0.5747
   90MOL0     N12065  11.031   6.215   4.683 -0.2758  0.1410 -0.2910
   90MOL0     N12066  10.972   6.283   4.772 -0.1323 -0.4901 -0.4110
   90MOL0     C12067  10.887   5.452   5.402 -0.4197  0.1101  0.5865
   90MOL0     C12068  10.891   5.331   5.329 -0.2522 -0.7266 -0.5325
   90MOL0     C12069  11.070   5.046   4.992  0.4250 -0.0293  0.4451
   90MOL0     C12070  11.186   4.969   5.008  0.2815 -0.6391 -0.4493
   90MOL0     C12071  11.194   4.847   4.943  1.1625 -0.3307 -0.1258
   90MOL0     C12072  11.097   4.795   4.855 -1.2202 -0.2346  0.0177
   90MOL0     O12073  11.102   4.680   4.792 -0.3359  0.5248 -0.7823
   90MOL0     C12074  11.202   4.581   4.807 -0.4164  0.0134 -0.1418
   90MOL0     C12075  11.214   4.487   4.691  0.2419  0.0887  0.0749
   90MOL0     C12076  11.288   4.350   4.727 -0.1611  0.1414  0.4346
   90MOL0     C12077  11.213   4.270   4.842  0.5304  0.1342  0.3513
   90MOL0     C12078  11.067   4.257   4.814  0.2502  0.1948  0.6846
   90MOL0     C12079  10.945   4.262   4.790 -0.6929  0.0832  0.0992
   90MOL0     C12080  10.996   4.891   4.819  0.7429  0.3718 -0.4061
   90MOL0     C12081  10.977   5.012   4.888  0.7388  1.4561  0.5851
   90MOL0     C12082  10.861   5.090   4.864 -0.3211  0.0567  0.2173
   90MOL0     H12083  11.046   5.416   5.051  2.8748 -0.8463  0.5851
   90MOL0     H12084  11.076   5.642   5.178  1.8809  0.8911  1.7151
   90MOL0     H12085  11.073   5.806   5.355  0.6252  1.5496  2.5401
   90MOL0     H12086  10.901   5.823   5.303  0.8479 -3.7273 -1.1960
   90MOL0     H12087  11.033   5.894   5.572 -1.9559 -2.2228  1.0925
   90MOL0     H12088  10.862   5.898   5.546 -0.4849  0.2112 -0.9020
   90MOL0     H12089  11.045   6.072   5.360 -1.5923  1.6357 -1.3375
   90MOL0     H12090  10.995   6.110   5.528  0.2224  1.7661 -0.7350
   90MOL0     H12091  10.801   6.024   5.302 -0.3672 -0.8455  1.1628
   90MOL0     H12092  10.759   6.113   5.450 -2.4155 -5.2729 -0.9321
   90MOL0     H12093  10.768   6.292   5.288 -0.4390  0.1824 -0.3152
   90MOL0     H12094  10.934   6.293   5.331 -0.7652  1.8612 -1.0286
   90MOL0     H12095  10.926   6.309   5.113 -0.2614 -1.0637 -1.6597
   90MOL0     H12096  10.953   6.133   5.103  2.3226  2.5030 -2.8044
   90MOL0     H12097  10.675   6.260   5.092  1.0915  1.5695 -1.6530
   90MOL0     H12098  10.707   6.098   5.045 -3.2612  2.2367 -2.1045
   90MOL0     H12099  10.679   6.287   4.880 -2.6780  3.0832  4.7678
   90MOL0     H12100  10.816   6.364   4.943 -3.2469  0.2213 -1.0832
   90MOL0     H12101  10.809   5.991   4.771 -0.8243  0.3489  1.3615
   90MOL0     H12102  11.060   5.883   4.653  1.3567  0.3825  0.5622
   90MOL0     H12103  10.966   5.942   4.516  1.4930  3.6549 -2.1291
   90MOL0     H12104  11.144   6.048   4.426  1.5109  2.7396  0.7351
   90MOL0     H12105  11.227   6.055   4.575 -0.8216 -0.4638  0.3835
   90MOL0     H12106  11.251   5.798   4.560 -1.0123 -0.0531  1.2257
   90MOL0     H12107  11.332   5.892   4.429  1.6648 -2.3204  0.5733
   90MOL0     H12108  11.137   5.836   4.278 -0.4446  3.0995  1.5674
   90MOL0     H12109  11.070   5.740   4.400  0.6312 -2.4948 -1.3558
   90MOL0     H12110  11.353   5.899   4.176  1.7132  0.7311  1.4753
   90MOL0     H12111  11.557   5.888   4.041 -3.3662  1.3199 -0.2019
   90MOL0     H12112  11.971   5.944   3.996 -0.7181 -1.7305  1.3691
   90MOL0     H12113  12.173   5.959   3.846  2.0315 -1.6146 -1.2664
   90MOL0     H12114  12.229   5.671   3.551  0.9326  0.1897  0.0295
   90MOL0     H12115  12.141   5.765   3.442 -2.8068 -0.7345  2.0756
   90MOL0     H12116  12.373   5.847   3.338  0.0704 -0.8560  0.2561
   90MOL0     H12117  12.371   5.940   3.475  2.7634  0.4061  0.0116
   90MOL0     H12118  12.471   5.734   3.592  0.8977  0.1971  0.4054
   90MOL0     H12119  12.474   5.647   3.436 -3.0408 -0.3660  1.7081
   90MOL0     H12120  12.627   5.901   3.540  2.4227  0.1085  0.0934
   90MOL0     H12121  12.617   5.869   3.367 -0.7919 -1.9521 -1.2565
   90MOL0     H12122  12.725   5.663   3.567 -0.1424 -0.2184  0.0468
   90MOL0     H12123  12.834   5.784   3.495 -0.1663  0.0785  0.0850
   90MOL0     H12124  12.671   5.555   3.352  0.5284 -1.4556  2.5056
   90MOL0     H12125  12.769   5.679   3.270 -1.7466  1.6356  0.7280
   90MOL0     H12126  12.867   5.440   3.343 -1.1815 -2.6588  3.1634
   90MOL0     H12127  12.892   5.509   3.501  0.0863  2.7330  0.3005
   90MOL0     H12128  13.035   5.706   3.382 -2.7211  1.9888 -2.5799
   90MOL0     H12129  13.088   5.547   3.374 -0.5122 -1.4538 -3.4223
   90MOL0     H12130  12.006   5.650   3.605  0.1647  0.9312 -1.0254
   90MOL0     H12131  11.813   5.643   3.732 -0.9178 -0.3408  0.7323
   90MOL0     H12132  11.596   5.476   4.099 -1.4970 -0.4069 -3.5387
   90MOL0     H12133  11.404   5.475   4.259  0.0433 -0.4511 -0.4317
   90MOL0     H12134  10.821   5.462   5.488 -1.3733  0.1066 -0.1278
   90MOL0     H12135  10.839   5.247   5.373  1.7099 -2.3133 -1.1029
   90MOL0     H12136  11.263   5.001   5.078  0.3543  0.3173 -0.9464
   90MOL0     H12137  11.271   4.781   4.983  1.1790 -0.1372  0.1688
   90MOL0     H12138  11.198   4.534   4.905  0.8988  0.1873  0.0144
   90MOL0     H12139  11.304   4.620   4.807  0.2208 -1.5800  0.1156
   90MOL0     H12140  11.273   4.531   4.610 -1.5411 -0.0135 -1.3463
   90MOL0     H12141  11.112   4.466   4.657 -0.1375  2.6347 -0.5432
   90MOL0     H12142  11.395   4.358   4.747  1.0558 -1.8282 -4.0177
   90MOL0     H12143  11.284   4.282   4.641 -1.4307 -0.9997  1.3392
   90MOL0     H12144  11.261   4.172   4.845  1.1389  0.4341  0.9211
   90MOL0     H12145  11.216   4.318   4.941 -0.2124  0.8295  0.0468
   90MOL0     H12146  10.838   4.258   4.788 -0.6785 -4.4192 -0.5088
   90MOL0     H12147  10.935   4.854   4.737  1.3038  1.4141 -1.3316
   90MOL0     H12148  10.866   5.194   4.898 -1.7849 -0.1851  1.2684
   90MOL0     H12149  10.841   5.090   4.757 -1.5241  0.3243  0.4181
   90MOL0     H12150  10.775   5.036   4.905 -1.2464  0.1162 -1.5348
   91MOL0     O12151   1.872   8.741  10.351 -0.6063  0.6696 -0.0141
   91MOL0     C12152   1.802   8.672  10.428  0.1117  0.2137 -0.2813
   91MOL0     O12153   1.729   8.711  10.531 -0.8632 -0.2300 -0.0370
   91MOL0     C12154   1.717   8.846  10.549 -0.1644  0.0307 -0.1816
   91MOL0     C12155   1.736   8.891  10.683 -0.6002 -0.0891 -0.0361
   91MOL0     C12156   1.749   9.028  10.710  0.0935 -0.6049  0.0578
   91MOL0     C12157   1.725   9.117  10.603 -0.0429 -0.3972 -0.0319
   91MOL0     O12158   1.738   9.247  10.637 -0.3111 -0.5562 -0.5526
   91MOL0     C12159   1.696   9.347  10.542  0.1843  0.4548 -0.2468
   91MOL0     C12160   1.711   9.486  10.608  0.1023 -0.2231  0.2124
   91MOL0     C12161   1.666   9.596  10.524  0.5887 -1.1234  0.6133
   91MOL0     C12162   1.663   9.728  10.602 -0.0910 -0.8426  1.2356
   91MOL0     C12163   1.605   9.846  10.513 -0.4090  0.9719 -0.2253
   91MOL0     C12164   1.618   9.983  10.581 -0.7182 -1.2280  0.0032
   91MOL0     C12165   1.559  10.090  10.489 -0.5157 -0.5615 -0.9591
   91MOL0     C12166   1.593  10.232  10.544 -0.1207 -0.5562  0.3964
   91MOL0     N12167   1.521  10.258  10.673 -0.2493  0.0127  0.0462
   91MOL0     C12168   1.395  10.238  10.689  0.5792 -1.1536 -0.8676
   91MOL0     C12169   1.366  10.276  10.812  1.0525  0.4431  0.1685
   91MOL0     C12170   1.238  10.255  10.881  1.1289  0.0067 -0.3440
   91MOL0     C12171   1.190  10.381  10.944 -0.2280 -0.6773  0.1932
   91MOL0     C12172   1.192  10.522  10.861 -0.4782  0.9319  0.5563
   91MOL0     C12173   1.103  10.626  10.928  0.4270 -0.3460  0.2071
   91MOL0     O12174   1.124  10.669  11.064 -0.2085  0.0157 -1.2253
   91MOL0     C12175   1.207  10.777  11.075  1.5194 -0.5901 -0.6784
   91MOL0     C12176   1.170  10.907  11.043  0.3820  0.5703 -1.1040
   91MOL0     C12177   1.253  11.007  11.065  0.2651 -0.0305  0.8411
   91MOL0     C12178   1.374  10.987  11.130 -0.3103 -0.1418  1.0012
   91MOL0     C12179   1.469  11.099  11.136 -0.1565  0.2751 -1.0227
   91MOL0     O12180   1.425  11.224  11.094  0.1020 -0.1623 -0.1568
   91MOL0     C12181   1.508  11.325  11.113 -0.7573 -0.5249 -0.5740
   91MOL0     C12182   1.616  11.341  11.031 -0.1568 -0.5517 -0.1736
   91MOL0     C12183   1.720  11.432  11.068  0.0319 -0.2276  1.0530
   91MOL0     C12184   1.705  11.511  11.185  0.4219  0.3975  0.1413
   91MOL0     O12185   1.810  11.599  11.228  0.5346  0.3716  0.8830
   91MOL0     C12186   1.947  11.595  11.176 -0.6357 -0.8200  0.3241
   91MOL0     C12187   1.999  11.732  11.105  0.0080  0.3352  0.1161
   91MOL0     C12188   1.956  11.735  10.956  0.8397 -0.2179  0.2417
   91MOL0     C12189   2.028  11.649  10.857  0.3272 -0.3079 -0.7898
   91MOL0     C12190   1.949  11.625  10.718 -0.2000  0.0335  0.6375
   91MOL0     C12191   2.047  11.558  10.618 -0.3037  0.0574 -0.0257
   91MOL0     C12192   1.973  11.469  10.514  0.0162 -0.4926  0.2579
   91MOL0     C12193   1.888  11.353  10.568 -0.3786 -0.7734 -0.1214
   91MOL0    Cl12194   1.829  11.266  10.428 -0.1716 -0.1650 -0.1655
   91MOL0     C12195   1.584  11.502  11.259 -0.2334 -0.2049  0.1551
   91MOL0     C12196   1.486  11.405  11.218 -0.3883 -0.2221 -0.0523
   91MOL0     O12197   1.574  11.076  11.192 -0.3674  0.8231 -0.2836
   91MOL0     C12198   1.408  10.857  11.176  0.5426  0.8678 -0.3060
   91MOL0     C12199   1.331  10.752  11.140 -0.3489 -0.0642  0.7997
   91MOL0     N12200   1.483  10.331  10.868  1.0307  0.5899 -0.3132
   91MOL0     N12201   1.577  10.319  10.775  0.3608 -0.3709 -0.0595
   91MOL0     C12202   1.705   9.071  10.470  0.7652 -0.0721 -0.6266
   91MOL0     C12203   1.701   8.937  10.444 -0.2338  0.1024  0.1531
   91MOL0     C12204   1.788   8.528  10.410  0.1234 -0.4675 -0.5195
   91MOL0     C12205   1.659   8.469  10.439  1.1243  0.7244  1.1669
   91MOL0     C12206   1.633   8.332  10.397  0.5803  0.1085 -0.9290
   91MOL0     C12207   1.739   8.245  10.363  0.6162 -0.5095 -0.4714
   91MOL0     O12208   1.700   8.116  10.347  0.9182 -0.2338 -0.3102
   91MOL0     C12209   1.798   8.014  10.364 -0.3576  1.0945 -0.6162
   91MOL0     C12210   1.738   7.867  10.384 -1.0300 -0.2367  0.7997
   91MOL0     C12211   1.595   7.877  10.431 -0.3605  0.3541  0.9277
   91MOL0     C12212   1.532   7.739  10.445  0.3174  0.0112  0.1048
   91MOL0     C12213   1.392   7.756  10.495 -0.0054  0.1473  1.0267
   91MOL0     C12214   1.283   7.766  10.537  0.1015 -0.8674 -0.3017
   91MOL0     C12215   1.861   8.305  10.345  0.1485  0.2284 -0.5605
   91MOL0     C12216   1.891   8.438  10.358 -0.4255 -0.2985 -1.0160
   91MOL0     C12217   2.032   8.487  10.335 -0.6865  0.0996  0.1226
   91MOL0     H12218   1.755   8.811  10.754 -4.7534 -0.8926  0.4272
   91MOL0     H12219   1.780   9.071  10.805 -1.8847  1.5033 -0.1631
   91MOL0     H12220   1.753   9.345  10.449 -1.8694 -1.2688 -1.5879
   91MOL0     H12221   1.591   9.337  10.511  0.0093  2.6320 -0.5202
   91MOL0     H12222   1.818   9.506  10.620  0.6732 -2.7678 -0.0604
   91MOL0     H12223   1.648   9.492  10.697 -0.6019 -0.2340 -0.2742
   91MOL0     H12224   1.565   9.596  10.481 -0.1325  1.0742  2.0965
   91MOL0     H12225   1.739   9.608  10.444  1.2725 -0.7040  1.2894
   91MOL0     H12226   1.597   9.716  10.689 -2.5124 -1.4851 -0.5801
   91MOL0     H12227   1.763   9.748  10.641 -0.6928 -1.0839  3.0168
   91MOL0     H12228   1.653   9.835  10.415 -1.3865  0.2886 -0.6380
   91MOL0     H12229   1.501   9.817  10.497  0.2092  0.2655 -3.9994
   91MOL0     H12230   1.553   9.989  10.669 -0.7244 -0.1249 -0.0545
   91MOL0     H12231   1.724  10.000  10.600  0.2055 -1.4871 -4.0317
   91MOL0     H12232   1.452  10.069  10.479 -0.4223 -1.0194 -1.0077
   91MOL0     H12233   1.604  10.080  10.390  0.9326 -1.7808 -0.2223
   91MOL0     H12234   1.699  10.235  10.572  0.1063  2.0030 -0.4203
   91MOL0     H12235   1.592  10.314  10.471  1.4356 -0.3455  0.5746
   91MOL0     H12236   1.340  10.185  10.612  1.3973 -1.9059 -0.9521
   91MOL0     H12237   1.164  10.228  10.806 -0.0477  1.2353  0.3191
   91MOL0     H12238   1.260  10.185  10.962  0.4744  0.9530  0.6847
   91MOL0     H12239   1.091  10.361  10.986  0.6619  1.8072  3.9768
   91MOL0     H12240   1.251  10.398  11.033  2.7876 -1.1857 -1.6386
   91MOL0     H12241   1.155  10.516  10.758  1.9362  1.8425 -0.4379
   91MOL0     H12242   1.293  10.563  10.855 -0.8791  1.9814  0.7846
   91MOL0     H12243   1.009  10.572  10.942 -0.5895  1.8406  2.8255
   91MOL0     H12244   1.084  10.716  10.869 -2.8500 -0.4419  0.9033
   91MOL0     H12245   1.072  10.923  11.000  0.2004  0.3335 -0.7770
   91MOL0     H12246   1.225  11.106  11.030  1.3549  1.1679  3.1420
   91MOL0     H12247   1.622  11.275  10.944  5.1716 -2.2503  1.0874
   91MOL0     H12248   1.812  11.442  11.010  1.4104  0.2615  3.1770
   91MOL0     H12249   2.013  11.602  11.264  1.3623  2.5270 -1.2356
   91MOL0     H12250   1.986  11.508  11.123  1.6829 -1.3206  2.6493
   91MOL0     H12251   1.953  11.811  11.164 -0.1302  2.4534 -2.6432
   91MOL0     H12252   2.108  11.739  11.115 -0.1433  2.2066  0.9600
   91MOL0     H12253   1.848  11.720  10.954  0.7993  0.0657 -1.3785
   91MOL0     H12254   1.971  11.836  10.918  1.0373 -0.9794 -1.8641
   91MOL0     H12255   2.055  11.552  10.900  1.0266  0.6106  0.9073
   91MOL0     H12256   2.126  11.687  10.827  1.2233 -2.5874 -0.9674
   91MOL0     H12257   1.917  11.718  10.670  1.7846 -0.4292 -1.8124
   91MOL0     H12258   1.862  11.566  10.748 -1.4021  2.5611  2.5121
   91MOL0     H12259   2.101  11.621  10.548  0.2335 -1.8860 -1.4399
   91MOL0     H12260   2.117  11.502  10.681  2.2660  0.8860 -1.9884
   91MOL0     H12261   2.038  11.433  10.433 -0.4759  1.5704 -1.1531
   91MOL0     H12262   1.901  11.528  10.456 -1.8788 -4.6434 -2.1027
   91MOL0     H12263   1.960  11.295  10.627  0.7770  0.4731 -0.2583
   91MOL0     H12264   1.799  11.388  10.620 -1.2010  0.2475 -2.0912
   91MOL0     H12265   1.567  11.564  11.346 -1.6484  3.8326 -2.7177
   91MOL0     H12266   1.399  11.389  11.281 -0.4961  3.2817  0.8925
   91MOL0     H12267   1.497  10.833  11.232  0.8293 -1.9890 -1.7677
   91MOL0     H12268   1.364  10.652  11.166  1.6873  1.1627  3.2864
   91MOL0     H12269   1.683   9.144  10.393 -1.8840 -1.5822 -1.4144
   91MOL0     H12270   1.695   8.903  10.341 -1.9885 -0.8298  0.5236
   91MOL0     H12271   1.574   8.516  10.486 -0.2309 -1.0517  0.6319
   91MOL0     H12272   1.534   8.290  10.405  1.5325 -1.8811  2.5637
   91MOL0     H12273   1.867   8.031  10.447  2.3798 -2.2868 -1.9375
   91MOL0     H12274   1.861   8.021  10.275  3.5575 -0.6208  1.7634
   91MOL0     H12275   1.790   7.807  10.458 -0.8365 -2.0049 -0.6998
   91MOL0     H12276   1.734   7.809  10.291 -1.3429  1.0554 -0.0271
   91MOL0     H12277   1.545   7.937  10.355 -0.0245  1.5649  1.6267
   91MOL0     H12278   1.592   7.940  10.521 -0.4652  0.5319  0.8015
   91MOL0     H12279   1.543   7.689  10.348  1.9631  0.9755 -0.2436
   91MOL0     H12280   1.586   7.680  10.520 -0.3455 -0.8201 -0.0569
   91MOL0     H12281   1.192   7.774  10.592 -1.6362 -0.2763 -3.0704
   91MOL0     H12282   1.945   8.238  10.331  2.0824  2.2408  0.8325
   91MOL0     H12283   2.099   8.402  10.320 -0.0732  0.5918  0.0471
   91MOL0     H12284   2.048   8.567  10.263 -1.4370  2.2376  2.2090
   91MOL0     H12285   2.071   8.533  10.426 -0.1681  1.7821 -0.9048
   92MOL0     O12286   1.358   1.932   6.799 -0.5187  0.4901  0.2724
   92MOL0     C12287   1.418   1.957   6.906 -0.2516  0.4605  0.2782
   92MOL0     O12288   1.393   1.872   7.019 -0.6164 -0.3099  0.2592
   92MOL0     C12289   1.463   1.890   7.144  0.2547  0.2219 -0.2473
   92MOL0     C12290   1.542   1.785   7.190  1.0541 -0.3162  0.8131
   92MOL0     C12291   1.613   1.788   7.304  0.9778 -0.3651  0.2910
   92MOL0     C12292   1.601   1.900   7.388  0.5079 -0.1642 -0.4234
   92MOL0     O12293   1.637   1.890   7.515 -0.1969  0.0980  0.1412
   92MOL0     C12294   1.717   1.778   7.565 -0.6393 -0.4327 -0.1452
   92MOL0     C12295   1.730   1.802   7.716  0.1280 -0.7078 -0.1455
   92MOL0     C12296   1.773   1.949   7.753  0.2479 -0.9573 -0.1455
   92MOL0     C12297   1.800   1.962   7.902  0.1529 -0.0593 -0.1492
   92MOL0     C12298   1.862   2.097   7.937 -0.2156 -0.6202  0.5090
   92MOL0     C12299   1.886   2.110   8.094 -1.2565 -0.6952  0.4218
   92MOL0     C12300   1.931   2.251   8.119 -0.5130  0.3908 -0.1191
   92MOL0     C12301   1.920   2.280   8.275 -0.5640  0.2192  0.0504
   92MOL0     N12302   1.972   2.179   8.363  0.1700 -0.3957  0.0560
   92MOL0     C12303   2.098   2.181   8.428  0.5308  0.1978  0.4254
   92MOL0     C12304   2.103   2.059   8.487 -0.7600  0.2255 -0.4732
   92MOL0     C12305   2.223   1.992   8.546 -0.7437  0.0742  0.4921
   92MOL0     C12306   2.175   1.910   8.662 -0.2328  1.0079 -0.8190
   92MOL0     C12307   2.296   1.838   8.737 -0.1061  0.3918 -0.2627
   92MOL0     C12308   2.280   1.795   8.883  0.0564 -0.6198  0.2323
   92MOL0     O12309   2.160   1.717   8.906  0.4212 -0.7236 -0.2820
   92MOL0     C12310   2.145   1.668   9.034  0.1964  0.6624 -0.8182
   92MOL0     C12311   2.051   1.566   9.051 -0.4688 -0.5200 -1.0310
   92MOL0     C12312   2.010   1.514   9.173  0.8329 -0.4937  0.0022
   92MOL0     C12313   2.057   1.578   9.295 -0.0626  0.2952 -0.1097
   92MOL0     C12314   2.004   1.542   9.428  0.5677 -0.5714 -0.3059
   92MOL0     O12315   2.077   1.585   9.537 -0.2206 -0.0337 -0.9518
   92MOL0     C12316   2.034   1.619   9.657 -0.4773 -0.5331 -0.5630
   92MOL0     C12317   1.913   1.564   9.710 -1.1301 -0.0650  0.6272
   92MOL0     C12318   1.868   1.617   9.838 -0.9709  0.4139  1.3109
   92MOL0     C12319   1.922   1.730   9.895 -0.3358  0.4483  0.0003
   92MOL0     O12320   1.880   1.785  10.012 -0.4361 -0.7656 -0.5151
   92MOL0     C12321   1.757   1.753  10.073  0.4157  1.0416  1.2473
   92MOL0     C12322   1.710   1.845  10.189 -0.4371 -0.2846 -0.4682
   92MOL0     C12323   1.715   1.990  10.136 -0.0117  0.2107 -0.2779
   92MOL0     C12324   1.654   2.080  10.243 -0.0630 -0.2006  0.3473
   92MOL0     C12325   1.750   2.118  10.357 -0.3019 -0.0555 -0.5316
   92MOL0     C12326   1.725   2.261  10.423  0.1413  1.0606 -0.5046
   92MOL0     C12327   1.594   2.280  10.492  0.0913  0.0946 -0.0014
   92MOL0     C12328   1.591   2.382  10.608  0.7846  0.8978  0.0915
   92MOL0    Cl12329   1.707   2.325  10.732 -0.0249 -0.0810  0.3094
   92MOL0     C12330   2.039   1.777   9.835 -0.2434  0.2728 -0.5553
   92MOL0     C12331   2.096   1.732   9.719 -0.3681  1.0957 -0.1526
   92MOL0     O12332   1.885   1.494   9.432 -0.0050 -0.4079  0.5556
   92MOL0     C12333   2.161   1.674   9.281 -0.1110 -0.6660  0.0161
   92MOL0     C12334   2.201   1.728   9.156 -0.2755  0.5553  0.9967
   92MOL0     N12335   1.981   1.993   8.459 -0.6131  0.1811 -0.7519
   92MOL0     N12336   1.895   2.073   8.397 -0.7579 -0.2131  0.9340
   92MOL0     C12337   1.533   2.014   7.337 -0.8293  0.5434 -0.5911
   92MOL0     C12338   1.472   2.013   7.221 -0.2619  0.1772 -0.1203
   92MOL0     C12339   1.511   2.076   6.901  0.5412  0.6972  1.1738
   92MOL0     C12340   1.644   2.040   6.884 -1.2398  0.3207 -0.2180
   92MOL0     C12341   1.742   2.135   6.854 -0.7804  0.3656  0.1663
   92MOL0     C12342   1.704   2.274   6.842  0.6990 -0.1014  0.3744
   92MOL0     O12343   1.806   2.361   6.817 -0.0913 -0.3375 -0.6613
   92MOL0     C12344   1.779   2.496   6.776  0.5956 -0.1456  0.3037
   92MOL0     C12345   1.894   2.588   6.752 -1.0614 -0.1606 -0.1598
   92MOL0     C12346   1.999   2.583   6.871  0.2185 -0.3348  1.1055
   92MOL0     C12347   2.088   2.711   6.880 -0.3844 -0.5112  0.6189
   92MOL0     C12348   2.149   2.740   6.748  0.2590 -0.0358 -0.2956
   92MOL0     C12349   2.197   2.785   6.644 -0.4300  1.1657 -0.5130
   92MOL0     C12350   1.569   2.309   6.857  1.4184  0.7209  0.6002
   92MOL0     C12351   1.473   2.211   6.893 -0.2071 -0.1320  0.3321
   92MOL0     C12352   1.328   2.246   6.893  0.9653 -0.3628  1.1148
   92MOL0     H12353   1.545   1.693   7.133 -0.4146 -1.4402  2.4598
   92MOL0     H12354   1.668   1.696   7.326  0.9616 -0.9677 -1.9595
   92MOL0     H12355   1.674   1.684   7.529  1.1738  0.3916 -5.4207
   92MOL0     H12356   1.816   1.788   7.519 -0.1710  0.8241  1.0740
   92MOL0     H12357   1.799   1.731   7.763  0.0509 -0.2052  0.7496
   92MOL0     H12358   1.631   1.786   7.759 -0.3450 -2.0540 -1.6363
   92MOL0     H12359   1.691   2.015   7.723  1.5292  1.0327  0.5771
   92MOL0     H12360   1.849   1.992   7.688  1.3835 -2.6274  0.0082
   92MOL0     H12361   1.706   1.943   7.955  1.3757 -2.3536  1.3246
   92MOL0     H12362   1.877   1.888   7.925 -0.1828  0.2329  2.1317
   92MOL0     H12363   1.952   2.093   7.876 -0.1826  0.6329  0.4622
   92MOL0     H12364   1.793   2.176   7.905  0.0525  0.8038  3.1097
   92MOL0     H12365   1.791   2.095   8.145 -1.5921 -1.5036 -0.4014
   92MOL0     H12366   1.965   2.040   8.124  1.4795  0.8898 -2.5124
   92MOL0     H12367   1.856   2.308   8.064 -2.0374 -2.9288 -1.7983
   92MOL0     H12368   2.033   2.268   8.084 -0.5982  1.3989  0.0935
   92MOL0     H12369   1.984   2.363   8.305 -0.3729 -0.5673  1.9347
   92MOL0     H12370   1.815   2.299   8.298 -0.6437 -1.0857  0.8072
   92MOL0     H12371   2.171   2.262   8.424  0.3749  0.2905 -0.8790
   92MOL0     H12372   2.257   1.932   8.461  0.8423  1.7414 -0.1056
   92MOL0     H12373   2.320   2.040   8.559 -0.7342  0.5516 -1.0825
   92MOL0     H12374   2.117   1.969   8.734 -0.7804 -0.4253 -0.0432
   92MOL0     H12375   2.100   1.841   8.622  0.0319 -2.0109  3.2224
   92MOL0     H12376   2.379   1.909   8.742 -1.5822  2.1427  0.7360
   92MOL0     H12377   2.328   1.752   8.677  2.3120  0.6132  0.6181
   92MOL0     H12378   2.287   1.881   8.950  1.3142 -0.2131 -0.4018
   92MOL0     H12379   2.363   1.730   8.911 -0.0560 -0.3051  1.3442
   92MOL0     H12380   2.016   1.529   8.955  1.2137 -2.1003 -1.0966
   92MOL0     H12381   1.940   1.431   9.168  1.5278 -1.0293 -1.8060
   92MOL0     H12382   1.849   1.490   9.664 -0.6380  1.1073 -2.1810
   92MOL0     H12383   1.773   1.579   9.874  0.9508 -1.7256  4.6286
   92MOL0     H12384   1.680   1.754   9.995  0.0654  0.6059  1.5803
   92MOL0     H12385   1.764   1.652  10.113 -3.8442 -0.2272 -0.6763
   92MOL0     H12386   1.611   1.824  10.230  0.4263  1.2458  2.6778
   92MOL0     H12387   1.773   1.835  10.277  1.4278 -1.5953 -1.8733
   92MOL0     H12388   1.820   2.016  10.119  0.5415  0.2736  2.7490
   92MOL0     H12389   1.657   2.008  10.045  1.8493  0.6161 -1.4238
   92MOL0     H12390   1.557   2.035  10.265  1.6789 -3.9463  1.2117
   92MOL0     H12391   1.652   2.178  10.194  4.4372 -0.4100 -0.6514
   92MOL0     H12392   1.852   2.088  10.332 -0.9501 -2.1204 -0.8622
   92MOL0     H12393   1.740   2.040  10.433 -0.1778  1.7505  1.4393
   92MOL0     H12394   1.813   2.276  10.486 -0.9034  2.5378  0.6680
   92MOL0     H12395   1.741   2.330  10.341  2.0560  2.1922  0.7499
   92MOL0     H12396   1.539   2.193  10.529  2.1573 -1.1966  0.2003
   92MOL0     H12397   1.524   2.319  10.417 -0.8007 -1.4166  0.0010
   92MOL0     H12398   1.628   2.480  10.578  1.5797  0.3798 -0.6673
   92MOL0     H12399   1.492   2.364  10.650  1.3089  0.3899  1.1601
   92MOL0     H12400   2.082   1.868   9.876 -1.9394  0.4580  0.9434
   92MOL0     H12401   2.193   1.771   9.689  0.2864 -0.8137 -0.6279
   92MOL0     H12402   2.190   1.735   9.366 -4.1580  0.3834  0.8358
   92MOL0     H12403   2.275   1.806   9.164 -0.2728  0.4214  2.6729
   92MOL0     H12404   1.519   2.110   7.384 -1.4208  1.7119 -3.0150
   92MOL0     H12405   1.425   2.108   7.196 -0.4258  0.7960  2.2446
   92MOL0     H12406   1.670   1.937   6.906 -2.7512 -0.9479 -3.6544
   92MOL0     H12407   1.848   2.110   6.846 -0.7841  0.8858 -2.4186
   92MOL0     H12408   1.712   2.538   6.853  0.3051 -0.6097  0.3089
   92MOL0     H12409   1.731   2.500   6.678  1.1403 -2.8387 -0.1370
   92MOL0     H12410   1.863   2.693   6.745  2.7343  1.0693 -0.9919
   92MOL0     H12411   1.953   2.561   6.665  3.6484 -2.5353  3.2860
   92MOL0     H12412   2.061   2.493   6.870 -0.6468 -0.9485 -0.0379
   92MOL0     H12413   1.934   2.576   6.959 -1.0690  0.6191  0.2790
   92MOL0     H12414   2.018   2.793   6.900 -0.8733 -0.6353 -0.5399
   92MOL0     H12415   2.166   2.714   6.956  0.0693  1.5803  0.1300
   92MOL0     H12416   2.226   2.834   6.553 -2.1847  1.3392 -1.0128
   92MOL0     H12417   1.540   2.412   6.838  4.7043  1.4861 -0.9815
   92MOL0     H12418   1.252   2.167   6.883 -0.6767  1.3511 -0.7146
   92MOL0     H12419   1.301   2.299   6.986 -0.0919 -0.2205  0.7417
   92MOL0     H12420   1.301   2.319   6.817 -4.2752 -2.2490  0.7191
   93MOL0     O12421   2.666  11.038   0.050 -0.3703 -0.4033 -0.2963
   93MOL0     C12422   2.778  11.070   0.078  0.8422 -1.4520 -0.3884
   93MOL0     O12423   2.836  11.057   0.199  0.3244  0.0911 -0.6121
   93MOL0     C12424   2.785  10.976   0.299  0.5719 -0.9200 -0.4254
   93MOL0     C12425   2.670  10.887   0.292  0.4333 -0.3252  0.8340
   93MOL0     C12426   2.633  10.825   0.410 -0.4378  0.1778  0.2046
   93MOL0     C12427   2.719  10.812   0.522  1.0598 -0.1246 -0.5364
   93MOL0     O12428   2.687  10.733   0.626 -0.5450 -0.8177 -0.0708
   93MOL0     C12429   2.746  10.755   0.758  0.0699 -0.7810 -0.1626
   93MOL0     C12430   2.691  10.889   0.838 -0.6393 -0.0404  0.8790
   93MOL0     C12431   2.652  10.854   0.977  0.2834 -0.0605 -1.0913
   93MOL0     C12432   2.582  10.967   1.045  0.6473  0.0593 -0.6746
   93MOL0     C12433   2.597  10.961   1.203 -0.1640  1.2052  0.2165
   93MOL0     C12434   2.530  11.084   1.263 -0.4363  0.8480 -0.3173
   93MOL0     C12435   2.536  11.089   1.414 -0.2161 -0.0680 -0.6883
   93MOL0     C12436   2.482  11.226   1.465 -0.1706 -0.3506 -0.1011
   93MOL0     N12437   2.572  11.337   1.456 -1.3677 -0.4638  0.2510
   93MOL0     C12438   2.543  11.467   1.498  0.4629  0.1014  0.0421
   93MOL0     C12439   2.649  11.545   1.464 -0.5702  0.0841  0.7221
   93MOL0     C12440   2.677  11.694   1.479  0.3713  0.4723  0.0856
   93MOL0     C12441   2.660  11.752   1.337 -0.5218  0.1462  0.3220
   93MOL0     C12442   2.642  11.903   1.346 -0.0640 -0.4464  0.4513
   93MOL0     C12443   2.639  11.968   1.204 -0.2033 -0.2617 -0.9042
   93MOL0     O12444   2.634  12.108   1.215 -0.0551 -0.8177  0.7523
   93MOL0     C12445   2.742  12.187   1.221  1.1353 -0.5491  0.1953
   93MOL0     C12446   2.717  12.327   1.227  0.1623  0.7435 -1.3055
   93MOL0     C12447   2.819  12.426   1.218 -0.0779 -0.2607  0.4658
   93MOL0     C12448   2.950  12.379   1.220  0.4713  0.0440 -0.9595
   93MOL0     C12449   3.062  12.476   1.198 -0.4174  0.6606  0.1692
   93MOL0     O12450   3.033  12.583   1.113  0.3175  0.2766 -0.1333
   93MOL0     C12451   3.121  12.679   1.077 -0.3722  0.5933  0.2300
   93MOL0     C12452   3.177  12.767   1.170  0.3174 -0.2087  0.5280
   93MOL0     C12453   3.253  12.878   1.117  0.1151 -0.5439  0.0173
   93MOL0     C12454   3.277  12.894   0.979  0.6815 -0.6465  0.1033
   93MOL0     O12455   3.330  13.012   0.951 -0.4512 -0.2953 -0.6709
   93MOL0     C12456   3.359  13.043   0.814 -0.2897 -0.3469 -0.4590
   93MOL0     C12457   3.505  13.055   0.806  0.2294  0.6107  0.1561
   93MOL0     C12458   3.557  13.102   0.671 -0.1039  1.3741  0.8053
   93MOL0     C12459   3.539  13.250   0.653  0.5454  0.5578  0.1881
   93MOL0     C12460   3.606  13.283   0.521  0.6310 -0.6532 -0.0618
   93MOL0     C12461   3.599  13.434   0.490  0.2092 -0.8654  0.6967
   93MOL0     C12462   3.651  13.462   0.352  1.2741  0.5979 -0.8903
   93MOL0     C12463   3.539  13.427   0.244  0.1170  0.2756  1.1588
   93MOL0    Cl12464   3.602  13.451   0.073  0.0223  0.0155 -0.0371
   93MOL0     C12465   3.231  12.791   0.891  0.6351 -0.2167 -0.6900
   93MOL0     C12466   3.148  12.684   0.942 -0.4949  0.5847  0.9520
   93MOL0     O12467   3.169  12.457   1.257 -0.3999 -0.2053  0.0894
   93MOL0     C12468   2.976  12.243   1.228 -0.3239  0.4033  0.0069
   93MOL0     C12469   2.880  12.148   1.223  1.1007  0.0636  0.3093
   93MOL0     N12470   2.741  11.453   1.399 -0.5136 -0.5686 -0.2848
   93MOL0     N12471   2.703  11.330   1.399 -0.1188 -0.7853  0.3508
   93MOL0     C12472   2.828  10.898   0.535  0.3333 -1.0464 -0.0053
   93MOL0     C12473   2.863  10.968   0.415  0.0932  0.1168 -0.5309
   93MOL0     C12474   2.873  11.114  -0.031 -0.0729 -0.3496  0.4828
   93MOL0     C12475   3.013  11.132  -0.005  0.2080  0.7442 -0.7484
   93MOL0     C12476   3.104  11.189  -0.097  0.7743  0.4560 -0.2262
   93MOL0     C12477   3.055  11.235  -0.224 -0.2995 -0.3776 -0.4536
   93MOL0     O12478   3.146  11.294  -0.306 -0.0726  0.0302  0.5564
   93MOL0     C12479   3.111  11.423  -0.360 -0.3626 -0.8618 -0.2906
   93MOL0     C12480   3.236  11.496  -0.410 -0.1823  0.4027 -0.1445
   93MOL0     C12481   3.181  11.614  -0.490  0.5366  1.5478 -0.1305
   93MOL0     C12482   3.297  11.708  -0.517 -0.8696 -0.1303  0.9132
   93MOL0     C12483   3.271  11.804  -0.621  1.1077  0.6529  0.2114
   93MOL0     C12484   3.263  11.881  -0.716  0.6490  0.1113  0.1781
   93MOL0     C12485   2.917  11.212  -0.255  0.2659 -1.0147 -0.1613
   93MOL0     C12486   2.826  11.166  -0.154 -0.7600 -0.1605  0.2448
   93MOL0     C12487   2.694  11.132  -0.215 -0.0446 -0.8330 -0.1119
   93MOL0     H12488   2.620  10.863   0.199 -1.4298 -1.4017  2.0614
   93MOL0     H12489   2.534  10.780   0.408 -2.0660  3.4659 -0.1535
   93MOL0     H12490   2.708  10.669   0.815 -1.3635  0.3323  0.6413
   93MOL0     H12491   2.854  10.752   0.767 -0.0365 -2.2757  0.9569
   93MOL0     H12492   2.600  10.920   0.785 -0.9378  3.5634  3.1575
   93MOL0     H12493   2.772  10.962   0.844  0.1496 -0.9984  2.9174
   93MOL0     H12494   2.744  10.831   1.031  0.8430  0.2200 -1.9052
   93MOL0     H12495   2.580  10.771   0.973 -0.7621  0.6032  1.9204
   93MOL0     H12496   2.627  11.062   1.017  3.0339 -0.5777  0.7354
   93MOL0     H12497   2.476  10.969   1.015  1.0383 -2.4890 -2.5342
   93MOL0     H12498   2.572  10.864   1.247 -1.1841  1.6208  0.5817
   93MOL0     H12499   2.702  10.966   1.232 -0.1304  0.5724  0.2146
   93MOL0     H12500   2.574  11.176   1.224 -1.4977  0.9651 -1.3104
   93MOL0     H12501   2.429  11.088   1.219 -0.4175  0.5859 -0.3887
   93MOL0     H12502   2.634  11.063   1.453 -0.2786  1.2253  0.3704
   93MOL0     H12503   2.475  11.011   1.462  1.6467 -1.1930 -0.0412
   93MOL0     H12504   2.392  11.244   1.406  0.7946 -1.0268 -1.8594
   93MOL0     H12505   2.473  11.202   1.572 -1.3182 -0.5578 -0.2293
   93MOL0     H12506   2.449  11.496   1.543  0.5464 -0.1367  0.3734
   93MOL0     H12507   2.611  11.742   1.551  1.0409  1.0071  0.3453
   93MOL0     H12508   2.778  11.703   1.519  0.0700 -2.2072  1.6406
   93MOL0     H12509   2.748  11.729   1.275 -0.5636 -0.0087  0.3191
   93MOL0     H12510   2.575  11.703   1.290 -1.7919  0.1502  2.4934
   93MOL0     H12511   2.725  11.940   1.408  1.0641  1.6503 -2.1057
   93MOL0     H12512   2.547  11.937   1.387 -0.1334 -0.3497  0.2105
   93MOL0     H12513   2.555  11.930   1.144  1.4646 -1.8112 -2.3817
   93MOL0     H12514   2.728  11.942   1.146 -1.5017 -1.4855 -2.4600
   93MOL0     H12515   2.612  12.351   1.226 -0.5919 -1.6703  2.2814
   93MOL0     H12516   2.801  12.533   1.215 -0.3478 -0.2172  2.4464
   93MOL0     H12517   3.146  12.756   1.273 -2.0472  0.8424  0.0121
   93MOL0     H12518   3.285  12.940   1.199 -0.3133  1.4428 -1.2448
   93MOL0     H12519   3.310  12.982   0.737 -2.7625  2.6368 -1.4865
   93MOL0     H12520   3.317  13.142   0.793 -2.8833 -1.5656 -1.5657
   93MOL0     H12521   3.539  13.123   0.884  0.4716  2.9605 -1.8763
   93MOL0     H12522   3.538  12.955   0.834  0.3043  1.7834  5.2669
   93MOL0     H12523   3.661  13.070   0.661 -0.3553 -2.2231  5.8894
   93MOL0     H12524   3.495  13.059   0.592 -0.5804  0.7430  1.5226
   93MOL0     H12525   3.582  13.309   0.734  1.1060  1.0395 -0.4478
   93MOL0     H12526   3.433  13.278   0.649  0.3839 -0.1147 -1.5351
   93MOL0     H12527   3.545  13.234   0.444 -0.4966  0.4062  0.1141
   93MOL0     H12528   3.711  13.255   0.516  1.2233  1.5096 -1.2373
   93MOL0     H12529   3.499  13.473   0.507 -0.1024 -2.6031  3.2012
   93MOL0     H12530   3.660  13.479   0.569  0.6929 -1.2412  0.5467
   93MOL0     H12531   3.735  13.397   0.327  0.3361 -2.5239  3.0903
   93MOL0     H12532   3.681  13.567   0.341  1.8885  0.6479  0.8878
   93MOL0     H12533   3.512  13.322   0.253  0.2670  0.1392  0.1395
   93MOL0     H12534   3.453  13.495   0.247 -0.6581 -0.3171 -2.5914
   93MOL0     H12535   3.249  12.788   0.784 -0.6780 -0.8428 -0.9134
   93MOL0     H12536   3.108  12.613   0.871  1.8126  0.6699 -0.5655
   93MOL0     H12537   3.077  12.208   1.210 -0.9718 -0.7128 -1.6854
   93MOL0     H12538   2.902  12.042   1.210  0.3477 -0.0264 -0.3190
   93MOL0     H12539   2.890  10.904   0.624 -1.2971  1.8884  1.0783
   93MOL0     H12540   2.957  11.022   0.414  1.1198 -1.5685  0.2513
   93MOL0     H12541   3.051  11.084   0.085  4.6801  2.5493 -1.4073
   93MOL0     H12542   3.209  11.211  -0.076  0.6636  1.4330 -0.6322
   93MOL0     H12543   3.054  11.488  -0.293  0.1892 -0.7051  0.0342
   93MOL0     H12544   3.041  11.407  -0.443 -1.2007  2.3565 -0.3526
   93MOL0     H12545   3.295  11.425  -0.469 -0.2892  1.2776 -1.3494
   93MOL0     H12546   3.304  11.533  -0.334 -1.6196  0.2292  1.2718
   93MOL0     H12547   3.096  11.656  -0.434 -0.3176 -1.9839  1.5041
   93MOL0     H12548   3.143  11.583  -0.587  2.3767  4.3371 -1.8974
   93MOL0     H12549   3.337  11.755  -0.426 -2.1062  0.9689  0.9231
   93MOL0     H12550   3.374  11.639  -0.553 -4.5846 -4.3914  0.2695
   93MOL0     H12551   3.241  11.937  -0.805  1.7259 -0.2478 -0.3274
   93MOL0     H12552   2.879  11.234  -0.354  3.5148 -3.3837 -2.1181
   93MOL0     H12553   2.694  11.030  -0.254 -1.4140 -1.1472  0.6557
   93MOL0     H12554   2.608  11.157  -0.153  0.0124 -0.2525 -0.2541
   93MOL0     H12555   2.660  11.205  -0.289  0.2059 -0.2662  0.3205
   94MOL0     O12556   8.325   1.153   3.607 -1.0449 -1.0255  0.1812
   94MOL0     C12557   8.345   1.142   3.488  0.0946  0.7194  0.4290
   94MOL0     O12558   8.465   1.091   3.421  0.7700  0.0383  0.0245
   94MOL0     C12559   8.582   1.058   3.483 -1.4534  0.6442 -1.4675
   94MOL0     C12560   8.620   1.083   3.618  1.3542  0.4777  0.3696
   94MOL0     C12561   8.744   1.058   3.669  0.0812  0.2816 -1.2533
   94MOL0     C12562   8.846   1.019   3.577 -0.2959  0.9317 -0.4156
   94MOL0     O12563   8.981   1.001   3.619 -0.4096  0.2848 -0.7742
   94MOL0     C12564   9.022   1.065   3.736  0.2281 -0.0944  0.0343
   94MOL0     C12565   9.173   1.037   3.761  0.0623  0.0139  0.1816
   94MOL0     C12566   9.224   1.101   3.886  0.0369  0.0178 -0.2301
   94MOL0     C12567   9.269   1.247   3.862 -0.6878 -0.5662  0.5869
   94MOL0     C12568   9.304   1.318   3.993  0.1045  0.2977 -0.2119
   94MOL0     C12569   9.222   1.280   4.107  0.2992 -0.0812 -0.7059
   94MOL0     C12570   9.256   1.369   4.233  0.4966 -0.5433 -0.3374
   94MOL0     C12571   9.185   1.296   4.353 -0.6134 -0.7566 -1.0840
   94MOL0     N12572   9.256   1.173   4.388  0.3035 -0.5509 -0.2576
   94MOL0     C12573   9.389   1.174   4.426 -0.3607 -0.4484 -0.4127
   94MOL0     C12574   9.421   1.042   4.419 -0.2204 -0.8511  0.6406
   94MOL0     C12575   9.544   0.983   4.472 -0.6107  0.9164  0.6817
   94MOL0     C12576   9.543   0.917   4.609  0.4498 -1.0275  0.9656
   94MOL0     C12577   9.609   1.004   4.717  0.7942  0.0941  0.8418
   94MOL0     C12578   9.669   0.932   4.846 -0.6425  0.3941 -0.0707
   94MOL0     O12579   9.752   1.017   4.933  0.2357 -0.0445 -0.6915
   94MOL0     C12580   9.814   0.962   5.038  0.0647  0.5797 -0.1550
   94MOL0     C12581   9.770   0.833   5.090 -0.8152 -0.1281  0.3951
   94MOL0     C12582   9.842   0.771   5.195  0.2867 -0.8046 -0.2158
   94MOL0     C12583   9.934   0.850   5.272 -0.5614 -0.1587 -0.3712
   94MOL0     C12584  10.012   0.795   5.386  0.1197  0.9280  0.3377
   94MOL0     O12585  10.119   0.864   5.431 -0.6926 -0.5373  0.3949
   94MOL0     C12586  10.180   0.832   5.545 -0.7556 -1.0906  0.4936
   94MOL0     C12587  10.193   0.935   5.637  0.2305  0.6941 -0.2188
   94MOL0     C12588  10.262   0.908   5.754 -0.0197 -0.0539  0.4851
   94MOL0     C12589  10.324   0.791   5.778  0.1786 -0.0240  0.2758
   94MOL0     O12590  10.401   0.761   5.893 -0.1438 -0.5818 -0.3558
   94MOL0     C12591  10.497   0.861   5.942  0.2431  0.1909  0.3203
   94MOL0     C12592  10.569   0.802   6.061  0.5751  0.1656 -0.1167
   94MOL0     C12593  10.635   0.908   6.141 -0.3811  0.1999 -0.6678
   94MOL0     C12594  10.672   0.852   6.278  0.2903 -0.6890  0.8233
   94MOL0     C12595  10.722   0.963   6.376  0.0052 -0.7611  1.0864
   94MOL0     C12596  10.712   0.915   6.524  0.0970 -0.8863 -0.8140
   94MOL0     C12597  10.569   0.920   6.571  0.1779 -0.4134  0.1899
   94MOL0     C12598  10.519   0.813   6.663 -0.0547  0.9446  0.0274
   94MOL0    Cl12599  10.355   0.863   6.710  0.1341  0.2574  0.2007
   94MOL0     C12600  10.317   0.690   5.689  0.7454  0.3196  0.0588
   94MOL0     C12601  10.233   0.710   5.571  0.4862  0.5691  1.0128
   94MOL0     O12602   9.966   0.692   5.430  0.3384 -0.2804  0.1347
   94MOL0     C12603   9.968   0.985   5.227  1.1052 -1.0192 -0.1589
   94MOL0     C12604   9.906   1.035   5.110 -0.6865 -0.0560  1.4270
   94MOL0     N12605   9.320   0.965   4.370 -0.1512 -0.8568 -0.3865
   94MOL0     N12606   9.226   1.043   4.352 -0.4907  0.0582  0.3410
   94MOL0     C12607   8.816   0.995   3.442  0.0076  0.2824 -0.4704
   94MOL0     C12608   8.685   1.016   3.402  0.2222  0.8112  0.4324
   94MOL0     C12609   8.243   1.191   3.394 -0.1067  0.2299 -0.8816
   94MOL0     C12610   8.122   1.122   3.396 -0.3476  0.1148  0.2996
   94MOL0     C12611   8.027   1.145   3.304  0.1693  0.4238 -0.2616
   94MOL0     C12612   8.037   1.246   3.208  0.1103 -0.8083 -0.2687
   94MOL0     O12613   7.934   1.266   3.122 -0.1278  0.5970  0.3610
   94MOL0     C12614   7.913   1.399   3.081  0.3025 -0.6401 -0.3694
   94MOL0     C12615   7.777   1.410   3.026  0.5431  0.6003 -0.3448
   94MOL0     C12616   7.665   1.364   3.134 -0.2923  0.9821  0.7546
   94MOL0     C12617   7.525   1.410   3.092  0.9996  0.5473  0.6783
   94MOL0     C12618   7.441   1.435   3.212 -0.5618  0.3003 -0.9954
   94MOL0     C12619   7.373   1.469   3.307  0.9873  0.2157  0.6304
   94MOL0     C12620   8.161   1.316   3.199 -0.1159  0.3901  0.1990
   94MOL0     C12621   8.269   1.283   3.295 -0.5307 -0.4537  0.0228
   94MOL0     C12622   8.389   1.366   3.285  0.0249 -0.4204 -0.1921
   94MOL0     H12623   8.534   1.104   3.681 -3.0643 -1.3517 -4.2961
   94MOL0     H12624   8.770   1.074   3.774 -0.2051  0.7909 -1.2571
   94MOL0     H12625   9.004   1.172   3.746  5.0786  0.8971  0.3168
   94MOL0     H12626   8.966   1.014   3.815  0.9406 -3.9389 -1.6825
   94MOL0     H12627   9.229   1.086   3.680 -2.0437  1.5164 -0.4665
   94MOL0     H12628   9.192   0.930   3.773 -1.7768 -0.4333 -0.5587
   94MOL0     H12629   9.305   1.036   3.920 -1.8279 -2.2751  0.0543
   94MOL0     H12630   9.142   1.104   3.959  0.8159 -1.0227  0.7244
   94MOL0     H12631   9.353   1.263   3.795 -0.6101 -2.5869  0.1488
   94MOL0     H12632   9.185   1.304   3.820  0.2562  0.7072  0.3474
   94MOL0     H12633   9.412   1.319   4.013 -0.0735  0.2731  0.7945
   94MOL0     H12634   9.290   1.425   3.976  0.1439  0.9515  3.1607
   94MOL0     H12635   9.114   1.285   4.091 -0.3279 -2.3266  1.9504
   94MOL0     H12636   9.244   1.174   4.126  0.3931  0.3354  1.9411
   94MOL0     H12637   9.222   1.473   4.230 -0.0033 -0.6188  1.4572
   94MOL0     H12638   9.365   1.362   4.244  0.4058 -2.2221 -0.2556
   94MOL0     H12639   9.168   1.364   4.437 -3.4681 -2.5119 -0.0898
   94MOL0     H12640   9.084   1.265   4.324 -2.4185  0.8580  2.7796
   94MOL0     H12641   9.447   1.260   4.460 -1.8608 -0.5542  2.7881
   94MOL0     H12642   9.567   0.903   4.401 -1.0979  0.4163  1.0807
   94MOL0     H12643   9.621   1.061   4.474 -2.7297  3.2496 -0.7389
   94MOL0     H12644   9.443   0.885   4.640  0.4376 -2.4944 -0.4654
   94MOL0     H12645   9.609   0.830   4.598  1.9463  0.3242 -1.6933
   94MOL0     H12646   9.536   1.077   4.755  0.0056 -0.2072 -0.0598
   94MOL0     H12647   9.686   1.072   4.682  0.9637 -1.0908 -1.2525
   94MOL0     H12648   9.742   0.868   4.795 -0.9511  0.0576 -0.0995
   94MOL0     H12649   9.591   0.879   4.901 -1.3909  1.3694 -0.1670
   94MOL0     H12650   9.692   0.779   5.036 -3.7625  1.7045  2.5775
   94MOL0     H12651   9.833   0.666   5.222 -0.2926 -1.6268 -3.2347
   94MOL0     H12652  10.138   1.028   5.629  1.4633  1.5228  0.6758
   94MOL0     H12653  10.268   0.988   5.828  2.3597  0.5085 -0.2239
   94MOL0     H12654  10.567   0.898   5.867  2.4705  0.9226  2.6234
   94MOL0     H12655  10.433   0.943   5.978  0.2654  0.2830  0.1494
   94MOL0     H12656  10.491   0.754   6.121  0.8107 -1.1391 -0.8220
   94MOL0     H12657  10.631   0.715   6.038  0.0750  0.0056 -0.8965
   94MOL0     H12658  10.725   0.956   6.102  0.0483 -0.3906 -0.4022
   94MOL0     H12659  10.560   0.987   6.156 -0.5133 -0.2006  1.0353
   94MOL0     H12660  10.753   0.780   6.263  0.5904 -0.5055  1.5618
   94MOL0     H12661  10.585   0.802   6.322 -0.0332  0.8275  1.9764
   94MOL0     H12662  10.678   1.061   6.356 -1.2525 -1.7365 -1.3309
   94MOL0     H12663  10.827   0.975   6.349  0.0003  2.6724  2.1088
   94MOL0     H12664  10.755   0.814   6.531 -1.8239 -1.6899  0.0870
   94MOL0     H12665  10.773   0.981   6.586 -1.6590  0.5869 -0.5606
   94MOL0     H12666  10.497   0.923   6.488 -1.8087 -1.7217  1.7571
   94MOL0     H12667  10.553   1.013   6.625 -0.5625 -0.7758  0.6157
   94MOL0     H12668  10.519   0.714   6.615  1.1146  1.6311 -1.4698
   94MOL0     H12669  10.582   0.806   6.752 -1.4611  0.1457  1.0008
   94MOL0     H12670  10.365   0.597   5.717  0.7988  0.6046  0.9296
   94MOL0     H12671  10.219   0.625   5.506 -2.8800  0.5599  1.5623
   94MOL0     H12672  10.043   1.048   5.274  1.4045 -0.9192 -0.7691
   94MOL0     H12673   9.929   1.131   5.065  1.6542 -2.3227 -2.8710
   94MOL0     H12674   8.882   0.939   3.376  0.2060  0.1099 -0.1251
   94MOL0     H12675   8.673   0.985   3.298 -0.3623 -1.0613  1.0257
   94MOL0     H12676   8.093   1.052   3.473  0.6346  0.1635  0.7261
   94MOL0     H12677   7.943   1.077   3.303 -0.2434  0.8604  1.6708
   94MOL0     H12678   7.987   1.438   3.011  0.8620  1.0924  1.0892
   94MOL0     H12679   7.912   1.463   3.170  2.0529  2.0955 -2.1497
   94MOL0     H12680   7.779   1.358   2.930  1.1290  2.0679 -1.1460
   94MOL0     H12681   7.761   1.515   3.001  1.2343  0.3116 -2.1249
   94MOL0     H12682   7.682   1.417   3.228 -1.4056  0.2815  1.3732
   94MOL0     H12683   7.661   1.256   3.153  2.3522  1.1705  2.9459
   94MOL0     H12684   7.525   1.488   3.015  1.3126 -1.9576 -2.0622
   94MOL0     H12685   7.479   1.325   3.041 -1.2461  3.3837 -2.4602
   94MOL0     H12686   7.312   1.502   3.389 -0.7904 -2.4869  0.5192
   94MOL0     H12687   8.179   1.386   3.119 -3.2520  2.4278  1.1008
   94MOL0     H12688   8.371   1.462   3.235 -1.4287 -0.1617  0.7513
   94MOL0     H12689   8.419   1.390   3.388  3.0667 -3.3171 -0.2444
   94MOL0     H12690   8.468   1.312   3.231 -1.2433 -0.7953 -1.7400
   95MOL0     O12691   4.235  10.044   0.817 -0.4255 -0.1467  0.3527
   95MOL0     C12692   4.291  10.153   0.827 -0.5684  0.3923  0.2276
   95MOL0     O12693   4.233  10.268   0.873 -0.2584 -0.1147 -0.3809
   95MOL0     C12694   4.099  10.280   0.881 -0.9892 -0.3673  0.0081
   95MOL0     C12695   4.018  10.184   0.932 -0.7786  0.9499  0.9233
   95MOL0     C12696   3.881  10.200   0.939  0.3752  0.0916  0.6037
   95MOL0     C12697   3.820  10.321   0.902 -0.3946 -0.0590 -0.5322
   95MOL0     O12698   3.687  10.341   0.939 -0.1463 -0.1550 -0.6698
   95MOL0     C12699   3.600  10.445   0.883 -0.7936  0.6581 -0.4480
   95MOL0     C12700   3.569  10.416   0.734  0.4633  0.3257 -0.4078
   95MOL0     C12701   3.608  10.539   0.650  0.0779  1.2018 -0.0655
   95MOL0     C12702   3.560  10.498   0.505 -0.0724  0.6498  0.7390
   95MOL0     C12703   3.634  10.595   0.409 -0.9491 -0.7012  0.3495
   95MOL0     C12704   3.594  10.619   0.262  0.3837  0.1746  0.1217
   95MOL0     C12705   3.477  10.720   0.256  0.4282 -0.2698 -0.3047
   95MOL0     C12706   3.526  10.861   0.253  0.9233 -1.1322  0.6340
   95MOL0     N12707   3.418  10.957   0.272  0.6577  0.3712  0.4895
   95MOL0     C12708   3.392  11.036   0.384 -0.6219 -0.2039 -0.0167
   95MOL0     C12709   3.315  11.132   0.339  0.0121  0.2469  1.2546
   95MOL0     C12710   3.297  11.262   0.415  0.3671 -0.2478  0.0676
   95MOL0     C12711   3.157  11.327   0.394 -0.4790 -0.6690 -0.2180
   95MOL0     C12712   3.150  11.372   0.245 -0.7108 -0.1020 -0.0091
   95MOL0     C12713   3.277  11.443   0.193  0.8915 -0.2915  0.1014
   95MOL0     O12714   3.259  11.514   0.076  0.0536 -0.2929  0.2385
   95MOL0     C12715   3.298  11.644   0.066  0.2918  0.4618  0.6025
   95MOL0     C12716   3.425  11.686   0.038  0.1768 -0.3784  0.7716
   95MOL0     C12717   3.446  11.822  -0.006  0.4794 -0.3376  0.2953
   95MOL0     C12718   3.349  11.914  -0.005  1.1607 -1.0079 -0.3122
   95MOL0     C12719   3.374  12.058  -0.024  0.0983 -0.0825  0.3401
   95MOL0     O12720   3.491  12.086  -0.090 -0.6710  0.0987  1.1132
   95MOL0     C12721   3.485  12.210  -0.155 -0.8950  0.1678  0.5651
   95MOL0     C12722   3.474  12.222  -0.293 -0.0693 -0.0073  0.0197
   95MOL0     C12723   3.469  12.344  -0.356  0.2487  0.6147 -0.0848
   95MOL0     C12724   3.504  12.461  -0.277  0.0206  0.9821 -0.4634
   95MOL0     O12725   3.494  12.583  -0.341 -0.7785 -1.1005 -0.1727
   95MOL0     C12726   3.539  12.694  -0.269  0.6356 -1.1595 -0.4008
   95MOL0     C12727   3.475  12.817  -0.337 -0.1838  0.7534  0.6338
   95MOL0     C12728   3.511  12.944  -0.260  0.0681  0.8837 -0.3749
   95MOL0     C12729   3.454  13.066  -0.329  0.3105  0.1606 -0.0791
   95MOL0     C12730   3.472  13.198  -0.264 -0.4552 -0.4224 -0.2621
   95MOL0     C12731   3.423  13.305  -0.365  0.1883  0.8336 -0.5460
   95MOL0     C12732   3.472  13.442  -0.310  0.1465 -1.2103  0.3922
   95MOL0     C12733   3.365  13.497  -0.214  0.6487 -0.2340 -0.4428
   95MOL0    Cl12734   3.398  13.659  -0.166 -0.1361 -0.3239 -0.0085
   95MOL0     C12735   3.522  12.445  -0.136  0.4995 -0.4313 -0.0963
   95MOL0     C12736   3.503  12.323  -0.079  0.6694  0.4673 -0.8917
   95MOL0     O12737   3.283  12.137   0.010 -0.1046  0.1409 -0.0501
   95MOL0     C12738   3.218  11.876   0.033 -0.9021 -0.4096  1.3334
   95MOL0     C12739   3.201  11.745   0.066  0.7477  0.4822 -0.1872
   95MOL0     N12740   3.288  11.104   0.206  0.4360 -0.0388  0.3609
   95MOL0     N12741   3.341  10.999   0.161 -0.3769  0.7479 -0.6734
   95MOL0     C12742   3.902  10.423   0.857  0.0041  0.5428 -0.5705
   95MOL0     C12743   4.038  10.401   0.846  0.2765 -0.2003 -0.4254
   95MOL0     C12744   4.434  10.165   0.807 -0.7471 -0.0300  0.8247
   95MOL0     C12745   4.487  10.302   0.830 -0.8171  0.3096 -0.2768
   95MOL0     C12746   4.628  10.323   0.813  1.3244  0.1768 -0.2592
   95MOL0     C12747   4.710  10.221   0.775  0.1156 -0.0863 -0.0933
   95MOL0     O12748   4.848  10.233   0.754  0.0487  0.0855  0.1414
   95MOL0     C12749   4.910  10.359   0.773 -0.1440  0.5078  0.1916
   95MOL0     C12750   4.935  10.385   0.923  0.6014 -0.1291 -0.1463
   95MOL0     C12751   4.983  10.521   0.964  0.0921 -0.8588 -0.2086
   95MOL0     C12752   5.020  10.525   1.114 -1.1736  0.2617  0.7795
   95MOL0     C12753   5.029  10.670   1.147  0.2003  0.1446 -1.1737
   95MOL0     C12754   5.034  10.788   1.185 -0.3037 -0.6057  0.3721
   95MOL0     C12755   4.656  10.091   0.751 -0.2150 -0.1569  0.1356
   95MOL0     C12756   4.524  10.060   0.774 -0.0455 -0.6072  0.0681
   95MOL0     C12757   4.484   9.920   0.755 -0.2780 -0.1749 -0.6002
   95MOL0     H12758   4.064  10.096   0.977  0.3440 -0.4399 -2.6197
   95MOL0     H12759   3.806  10.139   0.990  0.0716  0.1034  0.1776
   95MOL0     H12760   3.507  10.444   0.941 -1.1199  2.3427 -0.8884
   95MOL0     H12761   3.634  10.547   0.903  1.4562 -0.2584  0.7866
   95MOL0     H12762   3.466  10.381   0.723  1.1967 -2.0614 -0.0577
   95MOL0     H12763   3.620  10.327   0.698  2.3661  1.2523 -0.1240
   95MOL0     H12764   3.715  10.561   0.657  0.2803  1.6803 -3.1247
   95MOL0     H12765   3.547  10.626   0.674 -2.0061 -0.5010  1.2461
   95MOL0     H12766   3.585  10.394   0.483 -1.1935 -0.1669  3.0312
   95MOL0     H12767   3.451  10.504   0.495 -0.0269 -1.0280 -1.9500
   95MOL0     H12768   3.646  10.694   0.455 -3.2144  0.0211 -0.5032
   95MOL0     H12769   3.736  10.554   0.405 -0.3397  0.7391  0.2332
   95MOL0     H12770   3.676  10.656   0.200  1.2325 -1.4403  0.2325
   95MOL0     H12771   3.563  10.524   0.216 -0.1676  0.6231 -0.4562
   95MOL0     H12772   3.399  10.693   0.328  0.0415  3.2048  0.7746
   95MOL0     H12773   3.437  10.702   0.155  1.7962  1.2245 -1.1574
   95MOL0     H12774   3.603  10.872   0.330  2.9582  0.8686 -1.5219
   95MOL0     H12775   3.571  10.880   0.156  1.2301 -2.7225  0.4271
   95MOL0     H12776   3.431  11.041   0.486  1.2396  1.7947 -0.7531
   95MOL0     H12777   3.306  11.244   0.522 -2.8797  0.4225  0.5479
   95MOL0     H12778   3.371  11.339   0.390 -2.4009  1.9542 -2.0715
   95MOL0     H12779   3.079  11.259   0.430  3.1713 -4.0728  2.0157
   95MOL0     H12780   3.143  11.416   0.456 -0.5997 -1.4112  0.8602
   95MOL0     H12781   3.059  11.429   0.225 -2.2651 -3.0190 -2.0612
   95MOL0     H12782   3.126  11.286   0.181 -0.9451  0.0552 -0.1334
   95MOL0     H12783   3.353  11.366   0.180  0.2266 -1.5004  2.7606
   95MOL0     H12784   3.323  11.502   0.272 -2.4487  0.1754  1.8861
   95MOL0     H12785   3.502  11.611   0.021  0.0942 -0.3183  0.0762
   95MOL0     H12786   3.549  11.855  -0.015  0.4369  0.2784  1.7044
   95MOL0     H12787   3.463  12.129  -0.348 -0.9677 -0.4970  0.9822
   95MOL0     H12788   3.459  12.360  -0.463 -0.0700  0.9549 -0.0041
   95MOL0     H12789   3.487  12.688  -0.173  1.1457 -2.4318 -0.1784
   95MOL0     H12790   3.648  12.693  -0.257  0.3985 -2.0157  2.3127
   95MOL0     H12791   3.508  12.816  -0.441 -1.2077  0.5029  0.2952
   95MOL0     H12792   3.365  12.816  -0.336 -0.2848 -3.2386  1.6300
   95MOL0     H12793   3.465  12.945  -0.161  3.9115 -1.0284  1.6607
   95MOL0     H12794   3.618  12.959  -0.250  0.2111 -0.4305  0.4177
   95MOL0     H12795   3.345  13.059  -0.342  0.0255 -0.6751  2.2542
   95MOL0     H12796   3.496  13.087  -0.428  2.4525 -0.5339  0.6458
   95MOL0     H12797   3.576  13.211  -0.232 -0.5725 -0.0339 -0.0206
   95MOL0     H12798   3.417  13.200  -0.169  2.1672  0.5908  1.3553
   95MOL0     H12799   3.476  13.298  -0.460  1.9526  0.8118  0.3806
   95MOL0     H12800   3.318  13.292  -0.393  0.8097 -0.6781 -2.3144
   95MOL0     H12801   3.484  13.526  -0.380 -2.5371  1.7796  3.1894
   95MOL0     H12802   3.570  13.433  -0.262  1.3902 -1.7522 -2.0776
   95MOL0     H12803   3.274  13.504  -0.274 -0.6239 -2.0304  1.1572
   95MOL0     H12804   3.336  13.438  -0.127 -0.0502  1.7407  0.7415
   95MOL0     H12805   3.549  12.536  -0.083  1.4454  0.5289 -2.0914
   95MOL0     H12806   3.507  12.309   0.028  3.2721  1.1532 -0.8505
   95MOL0     H12807   3.133  11.943   0.033 -1.4912 -1.1170  2.6336
   95MOL0     H12808   3.101  11.710   0.088  0.7118  1.0084  0.5098
   95MOL0     H12809   3.867  10.526   0.865  1.6984  1.0392  1.0986
   95MOL0     H12810   4.108  10.481   0.822 -2.9930  2.7506 -0.9685
   95MOL0     H12811   4.429  10.390   0.855  0.0430  0.4743  1.2982
   95MOL0     H12812   4.656  10.425   0.834 -0.8389  0.3054  2.6866
   95MOL0     H12813   4.842  10.431   0.728 -0.3582 -0.2808 -0.7872
   95MOL0     H12814   4.999  10.348   0.711 -0.0551 -0.6129  0.4960
   95MOL0     H12815   5.013  10.319   0.961  1.7225  1.3195  0.1440
   95MOL0     H12816   4.841  10.377   0.979  1.0244  1.0238  0.7699
   95MOL0     H12817   4.905  10.596   0.950 -0.0342 -0.9159  0.1834
   95MOL0     H12818   5.065  10.546   0.895  1.1946 -3.4549  0.0642
   95MOL0     H12819   4.947  10.463   1.168 -0.6913 -0.8467  0.2033
   95MOL0     H12820   5.111  10.464   1.118 -0.7063  0.9548  0.6780
   95MOL0     H12821   5.030  10.894   1.204 -1.5573  0.0603 -2.9109
   95MOL0     H12822   4.716  10.004   0.728 -0.8376 -1.4742  2.9946
   95MOL0     H12823   4.566   9.863   0.712 -0.7901 -2.0214  0.7179
   95MOL0     H12824   4.465   9.874   0.852  3.5433  2.0337  1.4421
   95MOL0     H12825   4.399   9.897   0.689 -2.2992 -0.3062  1.8824
   96MOL0     O12826   8.494   9.794   0.881  0.0491  0.3214  0.9060
   96MOL0     C12827   8.508   9.722   0.781 -0.6479  1.0573  0.5283
   96MOL0     O12828   8.621   9.724   0.708  0.1879  0.5549  1.0023
   96MOL0     C12829   8.709   9.823   0.734  0.0788 -0.2053 -0.6252
   96MOL0     C12830   8.760   9.897   0.626  1.2051 -0.6127 -0.1939
   96MOL0     C12831   8.863   9.988   0.656  1.0165 -0.2880 -0.3722
   96MOL0     C12832   8.931   9.999   0.779 -0.7690 -0.6176  0.7996
   96MOL0     O12833   9.035  10.084   0.800  0.2258 -0.0984 -0.2530
   96MOL0     C12834   9.050  10.208   0.733 -0.0947 -0.8656 -0.6629
   96MOL0     C12835   9.161  10.286   0.808  0.1210  0.2585  0.0016
   96MOL0     C12836   9.209  10.415   0.728 -0.3029 -0.2256  0.3170
   96MOL0     C12837   9.230  10.382   0.575 -0.0385  0.3086 -0.4460
   96MOL0     C12838   9.105  10.407   0.483  0.0010  0.1451  0.3598
   96MOL0     C12839   9.135  10.378   0.331 -1.1140  0.3120  0.0415
   96MOL0     C12840   9.226  10.489   0.273  0.2000 -0.0383 -0.3326
   96MOL0     C12841   9.250  10.455   0.128 -0.0166 -0.7417  0.2950
   96MOL0     N12842   9.298  10.313   0.099  0.8893  0.0442 -0.9764
   96MOL0     C12843   9.398  10.234   0.151 -0.5368  0.1652 -0.7233
   96MOL0     C12844   9.398  10.114   0.089  0.9249 -0.6047 -0.6319
   96MOL0     C12845   9.489   9.992   0.111 -0.1684 -0.0797  0.1125
   96MOL0     C12846   9.550   9.978   0.254 -0.4506 -0.1384  0.0072
   96MOL0     C12847   9.645   9.856   0.259 -0.0243  0.0994 -0.2397
   96MOL0     C12848   9.705   9.835   0.393  0.2060  0.2548  0.6724
   96MOL0     O12849   9.773   9.711   0.400 -0.6617  1.0261 -0.0100
   96MOL0     C12850   9.848   9.681   0.516  0.1311  0.0567 -0.2180
   96MOL0     C12851   9.803   9.704   0.652 -0.0069 -0.3340  0.0166
   96MOL0     C12852   9.869   9.649   0.761 -0.5983 -0.0516 -0.6080
   96MOL0     C12853   9.985   9.573   0.741  0.1355 -0.6341 -0.0805
   96MOL0     C12854  10.050   9.503   0.863  0.2492 -0.3654  0.8241
   96MOL0     O12855  10.154   9.417   0.845 -0.3847 -0.5704  0.0312
   96MOL0     C12856  10.200   9.334   0.946 -0.1908  0.0303  0.6186
   96MOL0     C12857  10.334   9.318   0.979 -1.5300 -0.0680  0.7966
   96MOL0     C12858  10.382   9.235   1.078  0.0074 -0.0461  0.2992
   96MOL0     C12859  10.293   9.141   1.132 -0.5886  0.2480  0.1055
   96MOL0     O12860  10.342   9.043   1.216  0.1528 -0.2839  0.9619
   96MOL0     C12861  10.298   8.908   1.171 -0.4545 -0.4011 -0.3366
   96MOL0     C12862  10.420   8.827   1.207 -0.5011  0.6727 -0.0342
   96MOL0     C12863  10.424   8.790   1.356 -0.5460  0.0551 -1.2305
   96MOL0     C12864  10.306   8.694   1.397 -0.0162  0.1391  0.4729
   96MOL0     C12865  10.296   8.559   1.332 -0.0845  0.6765  0.0605
   96MOL0     C12866  10.187   8.475   1.389 -0.4437 -0.3243  0.4245
   96MOL0     C12867  10.211   8.423   1.536  0.2930 -0.0895  0.5614
   96MOL0     C12868  10.096   8.319   1.594  0.9660  1.0949 -0.0228
   96MOL0    Cl12869   9.927   8.372   1.568 -0.1162 -0.1976  0.0426
   96MOL0     C12870  10.156   9.149   1.103  0.3268  0.3283  0.7290
   96MOL0     C12871  10.118   9.250   1.016 -0.0801  0.1398  1.3740
   96MOL0     O12872   9.989   9.518   0.969  0.0021  0.1780 -0.5415
   96MOL0     C12873  10.033   9.553   0.616  0.3819  0.0924  0.1713
   96MOL0     C12874   9.958   9.597   0.503 -0.5820 -0.9633  0.4075
   96MOL0     N12875   9.280  10.110   0.017  0.7004 -0.5809 -0.7585
   96MOL0     N12876   9.218  10.225   0.018 -1.1396  0.2208 -0.0296
   96MOL0     C12877   8.883   9.924   0.885 -1.3289  0.7931  0.1607
   96MOL0     C12878   8.776   9.838   0.866  0.6869 -0.4579 -0.3929
   96MOL0     C12879   8.396   9.636   0.726 -0.4328  0.4837  0.8804
   96MOL0     C12880   8.429   9.546   0.623  0.1454 -1.2451  0.6809
   96MOL0     C12881   8.336   9.469   0.553 -0.1103  0.0221 -0.4014
   96MOL0     C12882   8.203   9.479   0.594 -0.2718 -0.2192  0.8642
   96MOL0     O12883   8.107   9.407   0.527 -1.0282 -0.6945  0.3275
   96MOL0     C12884   8.143   9.301   0.446  0.2242 -0.0928 -0.1424
   96MOL0     C12885   8.143   9.319   0.297 -1.1936 -0.6516 -0.7881
   96MOL0     C12886   8.142   9.179   0.228 -1.2167  0.1054  1.0557
   96MOL0     C12887   8.171   9.205   0.085  0.2025  0.0202 -0.2594
   96MOL0     C12888   8.134   9.086  -0.005 -0.0605 -0.1817 -0.1032
   96MOL0     C12889   8.095   8.982  -0.064  0.2256 -0.1722 -0.2031
   96MOL0     C12890   8.167   9.565   0.701  0.5832  0.5710  0.4227
   96MOL0     C12891   8.261   9.637   0.776  1.5183  0.0681  0.4041
   96MOL0     C12892   8.220   9.714   0.900  0.4694 -0.1598 -0.8434
   96MOL0     H12893   8.731   9.902   0.522  2.0939  1.7079 -0.3834
   96MOL0     H12894   8.911  10.043   0.576  1.3341  1.0645  0.7248
   96MOL0     H12895   9.089  10.182   0.634  2.5216  1.0288 -0.2475
   96MOL0     H12896   8.958  10.266   0.728  1.5688  1.9297 -1.5873
   96MOL0     H12897   9.244  10.223   0.839  1.7665  2.0192 -0.6461
   96MOL0     H12898   9.118  10.313   0.905 -2.1142 -0.1630 -0.7951
   96MOL0     H12899   9.306  10.451   0.766 -1.3817  1.2236  1.8259
   96MOL0     H12900   9.139  10.499   0.733  0.2017  0.1357  1.8173
   96MOL0     H12901   9.315  10.440   0.538  0.9636 -0.6010  0.3669
   96MOL0     H12902   9.259  10.278   0.557  2.7979  1.3984 -2.9498
   96MOL0     H12903   9.022  10.341   0.511  1.1018 -2.2101 -1.4880
   96MOL0     H12904   9.069  10.508   0.503 -1.5625 -0.1419 -0.8332
   96MOL0     H12905   9.191  10.285   0.322 -3.2446 -0.9208 -1.3857
   96MOL0     H12906   9.043  10.372   0.272 -0.9903  2.9092 -0.5320
   96MOL0     H12907   9.319  10.496   0.330 -0.8344  3.3865  1.1727
   96MOL0     H12908   9.176  10.586   0.269 -2.7157 -1.4548 -1.1009
   96MOL0     H12909   9.165  10.490   0.069  0.2010  1.1149  1.0172
   96MOL0     H12910   9.321  10.525   0.084  1.2074 -1.8661  0.4044
   96MOL0     H12911   9.483  10.268   0.209 -0.5301 -2.8466  1.2677
   96MOL0     H12912   9.433   9.902   0.084  0.1747 -0.6621  1.3043
   96MOL0     H12913   9.571  10.010   0.041 -0.2002  2.8456  0.6785
   96MOL0     H12914   9.605  10.072   0.266 -1.8076  1.2592 -3.4868
   96MOL0     H12915   9.466   9.959   0.322 -3.3136 -1.7281 -3.6403
   96MOL0     H12916   9.731   9.874   0.193  0.0416 -0.0091 -0.1830
   96MOL0     H12917   9.588   9.767   0.229 -0.4072 -0.8128  2.9004
   96MOL0     H12918   9.630   9.838   0.473 -1.2076  2.4076 -0.6267
   96MOL0     H12919   9.771   9.920   0.415 -0.5449  0.1823  3.5832
   96MOL0     H12920   9.710   9.757   0.672  0.2433 -0.9272  3.2402
   96MOL0     H12921   9.825   9.649   0.861 -1.8708  0.2204 -1.1498
   96MOL0     H12922  10.410   9.375   0.925  1.5648 -3.8803  0.6731
   96MOL0     H12923  10.485   9.215   1.107  0.1585  0.2826 -0.0039
   96MOL0     H12924  10.208   8.887   1.230 -1.8603  6.9415  1.1229
   96MOL0     H12925  10.283   8.905   1.063 -2.8008  0.2410 -0.0815
   96MOL0     H12926  10.414   8.729   1.159 -0.7434  0.3176  0.7011
   96MOL0     H12927  10.513   8.879   1.186 -0.9798  2.1387  1.3099
   96MOL0     H12928  10.521   8.743   1.372  0.0013  0.3835 -3.3521
   96MOL0     H12929  10.421   8.882   1.415 -0.5983 -1.1026  0.6772
   96MOL0     H12930  10.210   8.738   1.370 -1.5567 -3.1560  0.0921
   96MOL0     H12931  10.297   8.689   1.506 -1.2959 -0.7147  0.3532
   96MOL0     H12932  10.394   8.511   1.339 -1.0377 -1.1301  1.8993
   96MOL0     H12933  10.276   8.577   1.226  1.9698  1.6979 -0.1981
   96MOL0     H12934  10.101   8.543   1.388  0.1918  0.5085  0.6125
   96MOL0     H12935  10.187   8.397   1.313  4.3952  0.6824 -0.9493
   96MOL0     H12936  10.200   8.507   1.605  2.3540 -0.7622  1.8164
   96MOL0     H12937  10.312   8.381   1.541  0.1414 -0.5654 -0.1595
   96MOL0     H12938  10.113   8.219   1.553  2.5996  1.6691 -0.8421
   96MOL0     H12939  10.114   8.298   1.699 -4.4309  3.2437  1.6786
   96MOL0     H12940  10.079   9.087   1.150 -0.0364 -1.2901 -1.8101
   96MOL0     H12941  10.012   9.264   1.002 -0.1418 -1.0302  0.5414
   96MOL0     H12942  10.128   9.500   0.609  0.7489  0.7093  0.4220
   96MOL0     H12943   9.998   9.565   0.407  1.4556 -1.3701  1.3359
   96MOL0     H12944   8.928   9.917   0.983  1.5258 -4.4654 -1.1456
   96MOL0     H12945   8.750   9.781   0.954 -0.4420  0.4937 -0.0816
   96MOL0     H12946   8.531   9.535   0.586  0.8311 -2.1008  2.6792
   96MOL0     H12947   8.376   9.407   0.474  0.2942 -1.3762  0.8488
   96MOL0     H12948   8.067   9.227   0.471  0.8288 -0.5483  0.3762
   96MOL0     H12949   8.238   9.256   0.477  1.3365  1.5509 -0.9948
   96MOL0     H12950   8.234   9.376   0.276 -1.4029 -0.4121 -1.0503
   96MOL0     H12951   8.050   9.368   0.265 -0.0347  2.7657  0.5615
   96MOL0     H12952   8.040   9.143   0.237 -2.5951  3.4679  0.3743
   96MOL0     H12953   8.218   9.121   0.280 -0.2172 -1.0451 -1.4869
   96MOL0     H12954   8.116   9.288   0.039  4.9820  2.3136 -2.5296
   96MOL0     H12955   8.272   9.242   0.068 -0.0746  0.4063 -1.1434
   96MOL0     H12956   8.070   8.890  -0.113  2.3231 -1.7062  1.4218
   96MOL0     H12957   8.062   9.566   0.729  0.6109  0.0343  0.5562
   96MOL0     H12958   8.123   9.674   0.928  1.3807 -2.3576 -0.6001
   96MOL0     H12959   8.289   9.698   0.983  1.9524  0.8723 -1.8221
   96MOL0     H12960   8.223   9.822   0.882 -0.4173 -0.1400 -0.9062
   97MOL0     O12961   2.280  10.749   4.573  0.6718  0.4544  0.5010
   97MOL0     C12962   2.244  10.800   4.467  0.0508  0.0207  0.0120
   97MOL0     O12963   2.273  10.930   4.437  0.1228 -0.1108  0.1887
   97MOL0     C12964   2.269  11.027   4.539 -0.9599  0.0936  0.5904
   97MOL0     C12965   2.349  11.137   4.535  0.5726  0.1061  0.4146
   97MOL0     C12966   2.379  11.226   4.638  0.2574  0.4135 -0.2357
   97MOL0     C12967   2.320  11.199   4.764 -0.1896 -0.0793  0.1341
   97MOL0     O12968   2.350  11.269   4.879  0.2764  0.1707 -0.7583
   97MOL0     C12969   2.463  11.365   4.872 -0.6782  0.3680 -0.3618
   97MOL0     C12970   2.407  11.508   4.852 -0.2366  0.0742 -0.2498
   97MOL0     C12971   2.472  11.589   4.739 -0.7072 -0.4886  0.6259
   97MOL0     C12972   2.611  11.651   4.768  0.3965  0.0369 -0.8767
   97MOL0     C12973   2.724  11.545   4.791 -0.5148  0.0439  0.3544
   97MOL0     C12974   2.850  11.614   4.745 -0.2599  0.0825  0.4781
   97MOL0     C12975   2.975  11.542   4.820  0.2175  1.1889 -0.5868
   97MOL0     C12976   3.107  11.634   4.833 -0.2726 -0.4567  0.2551
   97MOL0     N12977   3.143  11.689   4.695 -0.2762  0.5044  0.5145
   97MOL0     C12978   3.201  11.628   4.590  0.8052 -0.2799  0.4583
   97MOL0     C12979   3.215  11.723   4.499  0.0462 -0.9621  0.3470
   97MOL0     C12980   3.293  11.700   4.368 -0.8517  0.1339  0.1301
   97MOL0     C12981   3.406  11.591   4.382  0.4083 -0.4829  0.0247
   97MOL0     C12982   3.511  11.633   4.476 -0.1833  0.2430 -1.3496
   97MOL0     C12983   3.580  11.773   4.463 -1.0708 -0.0379  0.3100
   97MOL0     O12984   3.670  11.756   4.351 -0.6863 -0.6586  0.6650
   97MOL0     C12985   3.675  11.846   4.248  0.6798  0.1005 -0.7826
   97MOL0     C12986   3.789  11.927   4.229  0.4495 -0.2169 -0.0151
   97MOL0     C12987   3.788  12.034   4.136 -0.4764  0.6589  0.0604
   97MOL0     C12988   3.684  12.040   4.042  0.1680 -0.9612  0.4477
   97MOL0     C12989   3.697  12.115   3.921  0.6888 -0.6997  0.2115
   97MOL0     O12990   3.617  12.074   3.810 -0.2086  0.4620  0.8047
   97MOL0     C12991   3.649  12.100   3.671  0.5666 -0.2300 -0.5905
   97MOL0     C12992   3.733  12.203   3.624  0.0071  0.4091 -0.5276
   97MOL0     C12993   3.749  12.211   3.486  0.4828 -0.3536  0.6213
   97MOL0     C12994   3.694  12.122   3.394 -0.8822 -0.4540 -0.4407
   97MOL0     O12995   3.713  12.151   3.263  0.0596  0.0418 -0.1544
   97MOL0     C12996   3.845  12.169   3.224  0.7195 -0.9293  0.5401
   97MOL0     C12997   3.860  12.176   3.074  0.0300  0.4511  0.6002
   97MOL0     C12998   4.004  12.198   3.027 -0.6212 -0.0252  0.1801
   97MOL0     C12999   4.030  12.346   2.995 -0.0867  0.5737 -0.0663
   97MOL0     C13000   4.176  12.361   2.961 -0.6484 -0.7579 -0.3782
   97MOL0     C13001   4.205  12.360   2.808  1.2852 -0.0135 -0.1784
   97MOL0     C13002   4.351  12.381   2.779 -0.1861  0.0661  0.2005
   97MOL0     C13003   4.391  12.392   2.630 -0.4039  1.2659  0.2408
   97MOL0    Cl13004   4.564  12.405   2.603 -0.2121  0.0496 -0.1554
   97MOL0     C13005   3.621  12.015   3.440 -0.2726  0.2497  0.1086
   97MOL0     C13006   3.593  12.014   3.576  0.2023  0.5087 -0.1592
   97MOL0     O13007   3.787  12.201   3.923  0.3939  0.2030 -1.0323
   97MOL0     C13008   3.569  11.964   4.067  0.5810  0.2220  0.3721
   97MOL0     C13009   3.576  11.861   4.157  1.4160  0.5605  0.1885
   97MOL0     N13010   3.173  11.843   4.545 -0.1819  0.1400 -0.4710
   97MOL0     N13011   3.113  11.813   4.661 -0.6454 -0.5702 -0.4733
   97MOL0     C13012   2.220  11.092   4.769 -0.2093  0.3781  0.3305
   97MOL0     C13013   2.203  11.006   4.656  0.0779 -0.0124 -0.0942
   97MOL0     C13014   2.205  10.717   4.354  0.9408  0.7094  0.9913
   97MOL0     C13015   2.231  10.770   4.225  0.6925 -0.5026 -0.0868
   97MOL0     C13016   2.202  10.693   4.114  0.0178  0.3934  1.0741
   97MOL0     C13017   2.164  10.561   4.122 -0.5425  0.7208 -0.6040
   97MOL0     O13018   2.139  10.490   4.012 -0.1617 -0.3039 -0.3661
   97MOL0     C13019   2.103  10.542   3.896 -0.0446  0.7716  0.6214
   97MOL0     C13020   2.052  10.420   3.829 -0.6264  0.5852 -0.1953
   97MOL0     C13021   2.046  10.435   3.676 -0.9357 -0.3491 -1.0434
   97MOL0     C13022   1.964  10.324   3.610 -1.0908  0.0091  0.5765
   97MOL0     C13023   1.986  10.309   3.464  0.2234 -0.3964 -0.7552
   97MOL0     C13024   1.994  10.315   3.344  0.4318 -0.2286  0.3175
   97MOL0     C13025   2.152  10.497   4.258 -0.2029 -0.7038 -0.0275
   97MOL0     C13026   2.162  10.577   4.374  0.1175  0.3967 -0.0642
   97MOL0     C13027   2.127  10.511   4.507  0.6048 -0.4148  0.2167
   97MOL0     H13028   2.387  11.150   4.435  0.9576  0.0117  0.5458
   97MOL0     H13029   2.452  11.306   4.628  3.0420 -1.0954  4.4100
   97MOL0     H13030   2.524  11.366   4.963 -0.3339 -0.0215 -0.5868
   97MOL0     H13031   2.541  11.331   4.804 -0.5857  0.8225 -0.4896
   97MOL0     H13032   2.432  11.557   4.947 -0.7972  0.0911 -0.1079
   97MOL0     H13033   2.298  11.504   4.855 -0.1804 -1.4379  0.7137
   97MOL0     H13034   2.410  11.679   4.734  0.4637  0.3768  1.2495
   97MOL0     H13035   2.479  11.537   4.643 -1.9194  0.2666  0.1078
   97MOL0     H13036   2.627  11.735   4.700 -1.5857 -0.8926 -2.5998
   97MOL0     H13037   2.610  11.714   4.857  2.8403  1.2391 -1.6080
   97MOL0     H13038   2.725  11.512   4.896  1.4054  0.3451  0.4532
   97MOL0     H13039   2.715  11.455   4.730 -0.8903  0.5992 -0.4250
   97MOL0     H13040   2.855  11.612   4.636  0.7504  1.1716  0.4859
   97MOL0     H13041   2.846  11.720   4.769 -1.1363  1.0954 -3.4916
   97MOL0     H13042   3.003  11.446   4.776  3.5537 -0.2214  3.8008
   97MOL0     H13043   2.955  11.529   4.927 -1.4100  1.2757 -0.8529
   97MOL0     H13044   3.095  11.711   4.909 -0.7733 -0.2515 -0.0283
   97MOL0     H13045   3.195  11.570   4.848  0.6284  0.6106 -0.3039
   97MOL0     H13046   3.234  11.524   4.581 -2.4444 -1.3714 -0.0165
   97MOL0     H13047   3.222  11.666   4.293 -3.1685 -1.4860  2.8627
   97MOL0     H13048   3.344  11.788   4.328  1.1539 -0.8853  0.2770
   97MOL0     H13049   3.353  11.502   4.415 -1.5840  0.9833  1.0164
   97MOL0     H13050   3.452  11.562   4.287 -1.9001 -0.1352 -1.2803
   97MOL0     H13051   3.589  11.557   4.481 -0.1271  0.3238 -0.9089
   97MOL0     H13052   3.462  11.638   4.574  1.6772  3.9580 -0.3811
   97MOL0     H13053   3.645  11.807   4.544 -2.0468  1.5020  0.4868
   97MOL0     H13054   3.514  11.858   4.445  1.3767  2.0332  0.4658
   97MOL0     H13055   3.873  11.923   4.298 -1.4180 -2.5779  2.3479
   97MOL0     H13056   3.876  12.094   4.114  0.2877 -0.2942  0.4333
   97MOL0     H13057   3.776  12.268   3.699 -0.6469 -2.0035  2.1095
   97MOL0     H13058   3.811  12.294   3.452  1.6596 -1.2234  0.5810
   97MOL0     H13059   3.886  12.266   3.255 -1.7645  0.5042 -0.4165
   97MOL0     H13060   3.910  12.087   3.259 -0.2486 -2.5072 -1.1668
   97MOL0     H13061   3.827  12.078   3.037  3.8168 -1.6144  2.1492
   97MOL0     H13062   3.791  12.257   3.052 -0.8647 -0.5512 -0.4423
   97MOL0     H13063   4.075  12.156   3.099  2.1432  0.4145 -2.1280
   97MOL0     H13064   4.015  12.139   2.936 -1.5602 -1.0289  0.6839
   97MOL0     H13065   4.006  12.418   3.075 -0.3619 -0.3547  0.7044
   97MOL0     H13066   3.968  12.364   2.907  2.1146 -4.4531 -3.0483
   97MOL0     H13067   4.248  12.298   3.015  0.1921 -0.5256 -1.1915
   97MOL0     H13068   4.203  12.457   3.007  0.3762 -0.6279 -1.1983
   97MOL0     H13069   4.176  12.264   2.763  1.1154  0.7765 -1.8255
   97MOL0     H13070   4.146  12.443   2.768 -2.8814 -2.0198  1.2667
   97MOL0     H13071   4.403  12.300   2.829 -2.3660  0.3117  3.1750
   97MOL0     H13072   4.379  12.471   2.835 -2.3672  0.4801  0.7472
   97MOL0     H13073   4.350  12.301   2.585  0.5571 -0.4037  2.4995
   97MOL0     H13074   4.333  12.476   2.592 -2.4032  1.5499  3.5490
   97MOL0     H13075   3.594  11.943   3.364 -1.4998  1.5301 -0.7295
   97MOL0     H13076   3.548  11.932   3.632  2.8275  1.5151  3.7896
   97MOL0     H13077   3.482  11.995   4.010 -0.3289  0.5450  1.8867
   97MOL0     H13078   3.487  11.798   4.152  1.5221  0.4039  0.2782
   97MOL0     H13079   2.168  11.064   4.861 -2.7294 -1.5037 -1.5223
   97MOL0     H13080   2.152  10.920   4.698  1.1318 -0.4637  0.3152
   97MOL0     H13081   2.262  10.874   4.226 -1.1443  0.0952  2.1322
   97MOL0     H13082   2.215  10.737   4.016  2.0653  0.8091  1.5030
   97MOL0     H13083   2.194  10.569   3.841 -0.3908 -2.2506 -1.7049
   97MOL0     H13084   2.041  10.633   3.899 -0.0553  0.8711 -1.4511
   97MOL0     H13085   1.953  10.395   3.870  0.7505 -0.3567  2.8604
   97MOL0     H13086   2.126  10.340   3.840 -0.0712  1.0817 -0.2899
   97MOL0     H13087   2.146  10.438   3.632 -0.6288  0.4475 -0.3095
   97MOL0     H13088   2.001  10.532   3.654 -1.0188 -0.2609 -0.4778
   97MOL0     H13089   2.004  10.228   3.643 -1.2145 -0.2523 -0.0211
   97MOL0     H13090   1.861  10.333   3.645 -2.1988 -2.5476 -1.6126
   97MOL0     H13091   2.006  10.317   3.237 -3.2581  2.2352 -0.2155
   97MOL0     H13092   2.108  10.400   4.278 -0.1954 -0.7962 -0.4548
   97MOL0     H13093   2.044  10.441   4.498  0.7459 -0.5932  0.3023
   97MOL0     H13094   2.216  10.457   4.540 -0.2729 -1.1193  1.5344
   97MOL0     H13095   2.096  10.586   4.580 -0.4952 -0.2490 -0.4017
   98MOL0     O13096   8.109   7.326   9.334 -0.0479 -0.1405 -0.0166
   98MOL0     C13097   8.102   7.224   9.264 -0.2552 -0.5980 -0.1294
   98MOL0     O13098   8.130   7.095   9.303 -0.5368  0.5281 -0.0362
   98MOL0     C13099   8.223   7.075   9.407  0.2428  0.0169  0.1856
   98MOL0     C13100   8.363   7.057   9.388 -2.3800 -0.3421  0.1576
   98MOL0     C13101   8.458   7.029   9.493  0.2302  0.2158  0.6337
   98MOL0     C13102   8.404   7.007   9.625 -0.9162  0.1579 -0.6178
   98MOL0     O13103   8.483   6.985   9.734 -0.4934 -0.2083 -0.6357
   98MOL0     C13104   8.626   6.959   9.739 -0.6126  0.0910  0.7462
   98MOL0     C13105   8.660   6.805   9.717  0.6240 -0.1468 -0.4072
   98MOL0     C13106   8.802   6.787   9.656 -0.3580  0.3803  0.6795
   98MOL0     C13107   8.914   6.831   9.750 -0.1032 -0.4364  0.9312
   98MOL0     C13108   9.044   6.780   9.685  0.8386 -0.1021 -0.1627
   98MOL0     C13109   9.092   6.838   9.557  0.2113  0.2172 -0.8023
   98MOL0     C13110   9.242   6.808   9.542  0.8732 -0.6881  0.9616
   98MOL0     C13111   9.296   6.873   9.422  0.1866  0.6722 -0.0104
   98MOL0     N13112   9.422   6.813   9.372  0.4449 -0.1463 -0.2580
   98MOL0     C13113   9.529   6.884   9.347  0.3971 -0.2543  0.5585
   98MOL0     C13114   9.610   6.792   9.285 -0.7856 -0.4416  0.9088
   98MOL0     C13115   9.748   6.830   9.225 -0.9929 -0.5373  0.2162
   98MOL0     C13116   9.776   6.988   9.205  0.2246 -1.0489 -0.2458
   98MOL0     C13117   9.923   7.029   9.192 -0.6596  0.5555 -0.1238
   98MOL0     C13118   9.945   7.179   9.221 -1.4013 -0.4018  0.5255
   98MOL0     O13119  10.090   7.196   9.240 -0.1189 -0.1659  0.6056
   98MOL0     C13120  10.131   7.278   9.344 -0.8406 -0.8878 -1.7330
   98MOL0     C13121  10.258   7.251   9.392 -0.2867  0.3652 -0.0223
   98MOL0     C13122  10.324   7.332   9.483 -0.1101  0.5445 -0.4164
   98MOL0     C13123  10.247   7.422   9.558  0.4767 -1.0433 -0.1219
   98MOL0     C13124  10.290   7.489   9.679 -0.2369 -0.3581  0.5515
   98MOL0     O13125  10.205   7.582   9.734  0.3878  0.0116  0.1958
   98MOL0     C13126  10.248   7.624   9.860 -0.1645 -0.2569  0.2268
   98MOL0     C13127  10.264   7.534   9.962 -0.4360  0.2158 -1.0819
   98MOL0     C13128  10.314   7.580  10.095 -0.0645 -0.6963  0.0629
   98MOL0     C13129  10.347   7.719  10.108  0.1910 -0.5901  0.2051
   98MOL0     O13130  10.407   7.771  10.219  0.5724 -0.2965  0.3104
   98MOL0     C13131  10.441   7.683  10.325  0.0235 -0.1388 -0.1350
   98MOL0     C13132  10.495   7.773  10.432  1.2478 -0.3010  0.8672
   98MOL0     C13133  10.556   7.685  10.547  0.3135  1.2249 -0.2493
   98MOL0     C13134  10.566   7.760  10.683  0.3276 -0.4292  1.5822
   98MOL0     C13135  10.624   7.904  10.688 -1.0420  0.0715  0.0517
   98MOL0     C13136  10.776   7.900  10.655 -0.5114 -0.3064  1.0150
   98MOL0     C13137  10.821   8.045  10.642 -0.6589  0.8740 -0.2993
   98MOL0     C13138  10.968   8.048  10.606  0.9267  0.1652 -0.2560
   98MOL0    Cl13139  11.016   8.220  10.565 -0.1374 -0.3090  0.4265
   98MOL0     C13140  10.338   7.806  10.000  1.3963  0.8674  0.4063
   98MOL0     C13141  10.287   7.757   9.880  0.4076  0.1221  0.8018
   98MOL0     O13142  10.407   7.475   9.708 -0.5459  0.4457 -0.5653
   98MOL0     C13143  10.114   7.447   9.515 -0.0573 -0.5481  1.3037
   98MOL0     C13144  10.055   7.374   9.415  0.5179  0.4953 -0.3872
   98MOL0     N13145   9.540   6.677   9.261  0.2282  0.2987  0.9441
   98MOL0     N13146   9.425   6.689   9.312  0.5121  0.4468 -0.0250
   98MOL0     C13147   8.267   7.018   9.644 -0.4032 -1.1252 -0.0775
   98MOL0     C13148   8.178   7.060   9.546  0.4794  0.6928  0.6091
   98MOL0     C13149   8.039   7.236   9.133  0.9842 -1.3781  0.5150
   98MOL0     C13150   7.961   7.128   9.091  0.3322 -0.7230 -0.1440
   98MOL0     C13151   7.886   7.122   8.974 -0.5738 -0.2538 -0.2860
   98MOL0     C13152   7.900   7.221   8.876  0.1991 -0.5855 -0.8717
   98MOL0     O13153   7.827   7.209   8.759 -0.0958 -0.3459  0.0568
   98MOL0     C13154   7.845   7.287   8.635 -0.1375  0.2367 -0.2399
   98MOL0     C13155   7.751   7.231   8.536 -0.0557 -0.3997 -0.7363
   98MOL0     C13156   7.632   7.334   8.525  0.1468  1.4257 -0.3292
   98MOL0     C13157   7.563   7.365   8.658  0.6896  0.6145  0.9491
   98MOL0     C13158   7.447   7.275   8.678  0.2396  0.2555  0.0545
   98MOL0     C13159   7.374   7.185   8.678  0.4155  0.1696 -0.4592
   98MOL0     C13160   7.996   7.323   8.906 -0.3819  0.4240  0.0600
   98MOL0     C13161   8.065   7.333   9.035  0.4372  0.4169  0.3653
   98MOL0     C13162   8.164   7.442   9.035  0.3803 -0.6334 -0.9807
   98MOL0     H13163   8.412   7.062   9.291  2.4318 -0.5093  2.3140
   98MOL0     H13164   8.560   7.014   9.457 -0.3564 -0.8658 -0.6903
   98MOL0     H13165   8.693   7.011   9.670  0.9531  0.1092  2.2178
   98MOL0     H13166   8.663   6.979   9.840 -3.2231  0.0617  1.7924
   98MOL0     H13167   8.585   6.764   9.649 -1.7233  2.6641  0.2697
   98MOL0     H13168   8.655   6.759   9.816 -0.8671 -1.5020 -1.0707
   98MOL0     H13169   8.813   6.840   9.560  0.1557 -2.1040 -0.7338
   98MOL0     H13170   8.809   6.680   9.634  3.3056  0.9858 -2.1461
   98MOL0     H13171   8.929   6.939   9.757  2.9960 -0.5320 -1.8691
   98MOL0     H13172   8.910   6.784   9.849  0.0576  0.2858  1.2830
   98MOL0     H13173   9.124   6.779   9.760  2.6246 -1.1579 -1.9896
   98MOL0     H13174   9.037   6.673   9.662  0.8574 -0.5817  1.8576
   98MOL0     H13175   9.019   6.808   9.481 -0.4473 -1.7368  0.5167
   98MOL0     H13176   9.083   6.947   9.568  1.3958  0.0877  2.8078
   98MOL0     H13177   9.250   6.699   9.542 -4.6009 -1.3650 -0.2157
   98MOL0     H13178   9.298   6.844   9.630 -0.9890 -0.4744  2.1081
   98MOL0     H13179   9.219   6.870   9.344  0.2390  2.3100 -0.1676
   98MOL0     H13180   9.312   6.978   9.451 -0.7692  0.6004  0.8388
   98MOL0     H13181   9.530   6.985   9.387 -2.3044 -0.8341  2.3833
   98MOL0     H13182   9.829   6.794   9.289  0.8652  2.9688  0.1113
   98MOL0     H13183   9.767   6.786   9.126  0.2469  0.5252 -0.0583
   98MOL0     H13184   9.723   7.032   9.120  3.2691 -0.1616 -1.8412
   98MOL0     H13185   9.734   7.039   9.292 -1.2094 -2.0692 -0.2979
   98MOL0     H13186   9.954   7.010   9.089 -2.8821  1.7286 -1.0960
   98MOL0     H13187   9.983   6.984   9.271  0.9047  3.4766  0.5031
   98MOL0     H13188   9.874   7.222   9.292 -1.4732  4.1990 -1.9219
   98MOL0     H13189   9.902   7.229   9.133 -2.6915  0.4559  1.5914
   98MOL0     H13190  10.302   7.166   9.340 -1.6056 -0.9583  0.9473
   98MOL0     H13191  10.423   7.296   9.508 -0.6838 -2.6329 -2.1701
   98MOL0     H13192  10.241   7.428   9.956  4.0638 -0.8701 -2.8759
   98MOL0     H13193  10.344   7.504  10.167 -1.5040 -1.7147 -0.3556
   98MOL0     H13194  10.352   7.630  10.358  0.6638  0.4431  2.7351
   98MOL0     H13195  10.511   7.602  10.301 -0.8325 -0.3844 -1.9654
   98MOL0     H13196  10.575   7.830  10.384 -1.5845  0.5093 -3.4205
   98MOL0     H13197  10.419   7.846  10.462 -1.2801 -2.3418 -0.1825
   98MOL0     H13198  10.484   7.606  10.572  0.3309  1.4575  0.5626
   98MOL0     H13199  10.643   7.635  10.504 -2.6463 -5.4492  0.3250
   98MOL0     H13200  10.617   7.703  10.761 -0.2961  2.1386  4.0499
   98MOL0     H13201  10.461   7.772  10.711  0.0779 -0.2538  0.6230
   98MOL0     H13202  10.601   7.962  10.778  0.6989  2.6640 -1.0495
   98MOL0     H13203  10.578   7.977  10.622 -1.4147  0.3683  0.6348
   98MOL0     H13204  10.835   7.851  10.733 -0.5352  1.3522  2.1302
   98MOL0     H13205  10.807   7.853  10.562 -0.4052 -0.9765  1.3872
   98MOL0     H13206  10.797   8.093  10.737 -0.7434  3.0390 -1.3522
   98MOL0     H13207  10.761   8.086  10.560  1.0823  0.7180 -1.7214
   98MOL0     H13208  11.032   8.021  10.691 -2.2684  1.4819  2.8427
   98MOL0     H13209  10.996   7.981  10.525  1.0856  1.7745 -1.5846
   98MOL0     H13210  10.374   7.904  10.031  3.1024 -0.2775  2.2889
   98MOL0     H13211  10.281   7.813   9.787 -0.7469  1.3382  1.5705
   98MOL0     H13212  10.051   7.516   9.569  0.5367  0.3037  0.9417
   98MOL0     H13213   9.954   7.397   9.385 -0.1656 -1.1063  0.5470
   98MOL0     H13214   8.239   7.005   9.748  1.3645  1.6646  0.8436
   98MOL0     H13215   8.072   7.079   9.559 -0.5073 -1.0982 -3.4777
   98MOL0     H13216   7.954   7.036   9.148 -0.3916 -2.0714 -2.2866
   98MOL0     H13217   7.839   7.028   8.948 -0.4147 -0.7560  1.1398
   98MOL0     H13218   7.946   7.251   8.613  0.4883  2.2043 -0.8007
   98MOL0     H13219   7.841   7.396   8.631 -3.0205  0.1807 -0.9362
   98MOL0     H13220   7.701   7.137   8.557  0.7587 -0.7997 -0.5474
   98MOL0     H13221   7.801   7.221   8.439  2.7350  0.4151  0.5143
   98MOL0     H13222   7.560   7.284   8.458 -0.1438 -0.7617  1.4923
   98MOL0     H13223   7.676   7.425   8.484  1.0169  1.7150  1.1786
   98MOL0     H13224   7.627   7.358   8.747  1.5431  2.9795  0.5778
   98MOL0     H13225   7.537   7.471   8.661  1.2497  0.7359  2.8065
   98MOL0     H13226   7.293   7.115   8.678 -2.1960  2.9319 -2.1967
   98MOL0     H13227   8.003   7.415   8.848 -0.7624  2.2846  2.7605
   98MOL0     H13228   8.210   7.444   8.936  1.1876 -2.3946 -0.6780
   98MOL0     H13229   8.111   7.535   9.062  1.5493 -0.8246  2.4987
   98MOL0     H13230   8.232   7.425   9.119  0.0814 -0.0902 -0.6185
   99MOL0     O13231   7.976   1.604   9.138  0.3872  0.1612  0.8353
   99MOL0     C13232   8.026   1.517   9.069 -0.0728 -0.8303 -1.2828
   99MOL0     O13233   8.094   1.540   8.952 -0.6358  0.0503 -0.7339
   99MOL0     C13234   8.048   1.627   8.858  0.1687  0.4629 -0.8396
   99MOL0     C13235   7.914   1.661   8.825 -1.2719 -0.0045  0.4233
   99MOL0     C13236   7.891   1.748   8.724 -0.4269  0.0307 -0.2940
   99MOL0     C13237   7.993   1.808   8.644 -0.1744  0.2228  1.4390
   99MOL0     O13238   7.969   1.892   8.543  0.1825  0.0816  0.1973
   99MOL0     C13239   7.906   1.833   8.429  0.9134 -0.3131  1.0285
   99MOL0     C13240   8.018   1.811   8.325 -0.0590 -1.0348 -0.0923
   99MOL0     C13241   7.980   1.715   8.218  0.1479  0.5132 -0.0084
   99MOL0     C13242   8.056   1.757   8.090  0.2421  0.1992  0.6653
   99MOL0     C13243   8.114   1.650   7.998  0.0079  0.5546  0.1703
   99MOL0     C13244   8.226   1.569   8.069 -0.5948  0.9347  0.4073
   99MOL0     C13245   8.256   1.431   7.999  0.2237  0.5373 -0.0435
   99MOL0     C13246   8.188   1.317   8.088 -0.7138 -0.5768  0.2722
   99MOL0     N13247   8.211   1.186   8.039  0.0558  0.0450 -0.3717
   99MOL0     C13248   8.161   1.140   7.917 -0.2437 -0.6342  0.7188
   99MOL0     C13249   8.177   1.007   7.924 -0.5263 -0.1423  0.0220
   99MOL0     C13250   8.146   0.906   7.818 -0.3682  0.2882  0.4944
   99MOL0     C13251   8.257   0.885   7.716  0.6303 -0.3071 -0.0996
   99MOL0     C13252   8.391   0.821   7.759  0.8255  0.3481  0.9728
   99MOL0     C13253   8.472   0.789   7.637 -1.2377  0.7256  0.5446
   99MOL0     O13254   8.435   0.646   7.600 -0.0293 -0.2405  0.4963
   99MOL0     C13255   8.518   0.574   7.511  1.0533  0.2591 -0.0069
   99MOL0     C13256   8.606   0.639   7.423 -0.1715 -0.7841 -0.8322
   99MOL0     C13257   8.695   0.568   7.345  0.6213 -0.0688 -0.2881
   99MOL0     C13258   8.696   0.428   7.350 -0.1205 -0.8544 -0.4341
   99MOL0     C13259   8.788   0.349   7.261 -0.3768 -0.0357  1.0700
   99MOL0     O13260   8.830   0.427   7.144 -0.5576 -0.2366  0.3134
   99MOL0     C13261   8.886   0.367   7.040  0.5719  0.0617 -0.5829
   99MOL0     C13262   8.976   0.440   6.956 -0.3352 -0.5652 -1.2225
   99MOL0     C13263   9.027   0.386   6.826  0.5546 -0.6507 -0.8331
   99MOL0     C13264   8.983   0.269   6.782 -0.5168  0.2792 -0.1307
   99MOL0     O13265   9.032   0.233   6.661  0.5167 -0.5651 -0.3513
   99MOL0     C13266   9.099   0.112   6.659  0.0955 -0.2129 -0.2104
   99MOL0     C13267   9.238   0.116   6.716  0.1678  0.6467  0.7536
   99MOL0     C13268   9.321  -0.013   6.681 -0.1576  0.1186 -0.5592
   99MOL0     C13269   9.470  -0.001   6.706 -0.5341  0.0622  0.4487
   99MOL0     C13270   9.532  -0.130   6.652  0.0089 -0.4561  1.4465
   99MOL0     C13271   9.677  -0.139   6.661 -0.4914  0.0683 -0.7031
   99MOL0     C13272   9.738  -0.082   6.530 -0.3632  0.3977  0.8132
   99MOL0     C13273   9.847   0.017   6.560 -0.0295  0.3218 -0.2679
   99MOL0    Cl13274   9.912   0.052   6.388  0.4554 -0.0723 -0.3268
   99MOL0     C13275   8.888   0.199   6.856  0.4067  1.0139  0.6125
   99MOL0     C13276   8.845   0.240   6.984  0.3244 -0.5672 -1.3221
   99MOL0     O13277   8.820   0.228   7.280 -0.0644 -0.1230 -0.6293
   99MOL0     C13278   8.617   0.360   7.445  0.0856  0.4363 -0.2458
   99MOL0     C13279   8.516   0.435   7.517 -0.3862 -0.8686 -0.2239
   99MOL0     N13280   8.236   0.977   8.037 -0.1175 -0.8541  0.0830
   99MOL0     N13281   8.262   1.081   8.107  0.1370 -0.7616 -0.3303
   99MOL0     C13282   8.125   1.769   8.669 -0.8052 -0.2239 -0.3864
   99MOL0     C13283   8.150   1.693   8.785 -0.5030  0.4143  0.0639
   99MOL0     C13284   7.996   1.378   9.101 -1.2954 -0.5901 -0.2481
   99MOL0     C13285   8.001   1.276   9.009  0.6379  0.0329  0.1306
   99MOL0     C13286   7.983   1.137   9.038  0.0293  0.0317  0.5162
   99MOL0     C13287   7.946   1.102   9.170 -0.6992 -0.5307  0.7734
   99MOL0     O13288   7.911   0.969   9.185  0.0914  0.5114 -0.5490
   99MOL0     C13289   7.907   0.921   9.318  0.6800 -0.9099 -0.4532
   99MOL0     C13290   7.894   0.768   9.321  0.0524 -0.1175 -0.7325
   99MOL0     C13291   8.016   0.695   9.268  0.6572 -0.1619  0.2259
   99MOL0     C13292   7.973   0.543   9.239 -0.5743  0.8709  0.1817
   99MOL0     C13293   8.101   0.475   9.210  0.4282  1.0876  0.2713
   99MOL0     C13294   8.213   0.432   9.215  0.7353  0.5228  0.9565
   99MOL0     C13295   7.947   1.198   9.260 -0.6114 -1.0359 -0.2477
   99MOL0     C13296   7.960   1.337   9.236  0.7302 -0.0593 -0.2742
   99MOL0     C13297   7.920   1.425   9.347 -0.2405  0.3570 -0.0058
   99MOL0     H13298   7.829   1.615   8.875 -2.2620  1.5952  0.2957
   99MOL0     H13299   7.791   1.778   8.696 -0.9226 -2.3434 -1.3716
   99MOL0     H13300   7.856   1.737   8.447 -0.8271  0.5700  1.0909
   99MOL0     H13301   7.832   1.902   8.390  2.0948  0.4623  0.1027
   99MOL0     H13302   8.102   1.777   8.387  0.7761 -1.7850 -1.6005
   99MOL0     H13303   8.045   1.911   8.288  1.1883 -1.4286 -0.3039
   99MOL0     H13304   7.875   1.721   8.187 -0.5112 -3.3121  1.0068
   99MOL0     H13305   7.986   1.609   8.242  0.0540  0.9689  2.2120
   99MOL0     H13306   7.991   1.822   8.031 -1.0089 -2.1471 -0.7208
   99MOL0     H13307   8.144   1.816   8.116 -0.1887  1.2681 -0.2401
   99MOL0     H13308   8.022   1.600   7.965 -1.4710  2.5318  1.0585
   99MOL0     H13309   8.161   1.694   7.910 -2.8474  1.6023 -0.9562
   99MOL0     H13310   8.324   1.617   8.060  2.2502 -3.8677  1.9637
   99MOL0     H13311   8.213   1.558   8.177  1.0976  1.8870  0.7580
   99MOL0     H13312   8.362   1.409   7.985 -0.0604  0.4292 -2.5721
   99MOL0     H13313   8.211   1.425   7.899  2.0809 -0.8434 -0.8594
   99MOL0     H13314   8.228   1.306   8.189  1.5220 -1.2991 -0.6380
   99MOL0     H13315   8.079   1.326   8.092 -0.7534 -1.3434  1.8660
   99MOL0     H13316   8.116   1.188   7.830  2.6512  0.0517 -0.5140
   99MOL0     H13317   8.142   0.811   7.871 -2.7110 -0.6280 -1.1687
   99MOL0     H13318   8.059   0.940   7.760  1.3717  2.9779 -0.7618
   99MOL0     H13319   8.225   0.820   7.634 -0.5754  0.1770 -0.0324
   99MOL0     H13320   8.283   0.983   7.675  0.8932 -1.5420 -3.1806
   99MOL0     H13321   8.383   0.730   7.819 -0.5670  0.9486  1.7365
   99MOL0     H13322   8.442   0.896   7.821  3.6418 -3.1083  3.2336
   99MOL0     H13323   8.578   0.805   7.660 -0.6472 -2.4797  0.5287
   99MOL0     H13324   8.449   0.853   7.551 -0.6897  2.0610  1.3545
   99MOL0     H13325   8.606   0.747   7.433 -0.8464 -1.0225  3.7957
   99MOL0     H13326   8.759   0.620   7.275 -0.0340  2.2787  0.7584
   99MOL0     H13327   9.011   0.528   7.008 -3.0074 -1.3100  2.2302
   99MOL0     H13328   9.094   0.447   6.766  0.0812 -0.4580 -1.1724
   99MOL0     H13329   9.040   0.044   6.721 -0.9894  0.2976 -0.6668
   99MOL0     H13330   9.092   0.073   6.557 -4.3182 -0.2457 -0.0845
   99MOL0     H13331   9.298   0.197   6.672  1.3805  0.5622  2.1582
   99MOL0     H13332   9.233   0.136   6.823 -1.1752 -5.0732  2.0702
   99MOL0     H13333   9.291  -0.093   6.749  0.2576  1.0500  0.7424
   99MOL0     H13334   9.303  -0.041   6.576 -0.4867  1.5749 -0.9123
   99MOL0     H13335   9.496   0.013   6.811 -1.3966  1.9041  0.4616
   99MOL0     H13336   9.513   0.090   6.661 -0.6126  0.7404  1.7063
   99MOL0     H13337   9.495  -0.159   6.554  2.7967  4.8685 -1.6882
   99MOL0     H13338   9.511  -0.206   6.727  0.8188 -0.4108  1.7358
   99MOL0     H13339   9.704  -0.091   6.756  0.1009 -0.5206 -0.5730
   99MOL0     H13340   9.713  -0.242   6.666  2.0020  0.7626 -2.4524
   99MOL0     H13341   9.673  -0.034   6.457  0.3593  0.6997  0.3567
   99MOL0     H13342   9.777  -0.168   6.475 -1.2808 -0.6955  1.7969
   99MOL0     H13343   9.818   0.105   6.618  2.9588  1.7452 -0.7711
   99MOL0     H13344   9.929  -0.024   6.619 -1.2471  1.5721  2.4669
   99MOL0     H13345   8.840   0.118   6.802 -1.2092  1.3302  1.5060
   99MOL0     H13346   8.789   0.175   7.051  0.5694  2.7227  2.4222
   99MOL0     H13347   8.629   0.252   7.455  0.3506  0.7171  5.1835
   99MOL0     H13348   8.457   0.393   7.598 -1.4036  1.6752  0.4286
   99MOL0     H13349   8.201   1.810   8.604  1.9759 -2.0573  1.4952
   99MOL0     H13350   8.248   1.668   8.825 -0.2437  2.9633  1.2179
   99MOL0     H13351   8.034   1.313   8.913 -0.3530  0.9727  0.1361
   99MOL0     H13352   7.980   1.067   8.955  1.6119  2.6314 -1.9181
   99MOL0     H13353   7.823   0.976   9.361  1.0099  0.4308 -1.4504
   99MOL0     H13354   7.991   0.957   9.379 -0.9340  0.1159  1.2407
   99MOL0     H13355   7.811   0.755   9.251  0.6150  1.9157 -1.8636
   99MOL0     H13356   7.879   0.731   9.423 -3.3972 -1.5736 -1.6080
   99MOL0     H13357   8.096   0.688   9.342 -1.9917 -1.2443  3.2567
   99MOL0     H13358   8.049   0.747   9.178 -0.4945  0.7282  0.2934
   99MOL0     H13359   7.938   0.497   9.331  3.6054  0.2359  1.6772
   99MOL0     H13360   7.906   0.543   9.152 -3.2011  6.5475  1.7368
   99MOL0     H13361   8.316   0.407   9.227  1.0199  0.9942 -0.3980
   99MOL0     H13362   7.903   1.172   9.356 -0.4265 -2.0204 -0.4184
   99MOL0     H13363   7.895   1.374   9.440  1.4190  0.5558  0.5895
   99MOL0     H13364   8.015   1.474   9.372  0.8871 -1.8733  0.3437
   99MOL0     H13365   7.844   1.500   9.323  0.6425  1.3061  0.0786
  100MOL0     O13366   1.624   2.787   7.512 -0.2650  0.7357  0.6036
  100MOL0     C13367   1.589   2.744   7.406  0.5720 -0.2712 -1.1005
  100MOL0     O13368   1.511   2.628   7.386 -0.5302  0.6573  0.1348
  100MOL0     C13369   1.479   2.557   7.492 -0.2958  0.8436  0.0307
  100MOL0     C13370   1.405   2.606   7.609 -0.9750 -0.2751  0.0237
  100MOL0     C13371   1.376   2.517   7.714 -0.4111  0.9607 -0.3945
  100MOL0     C13372   1.420   2.391   7.703  0.3305  0.1625 -1.2717
  100MOL0     O13373   1.400   2.302   7.806 -0.0611  0.5538 -0.7336
  100MOL0     C13374   1.525   2.258   7.861  0.5237 -0.8255 -0.2117
  100MOL0     C13375   1.506   2.192   7.998  0.5097  0.3302 -0.2333
  100MOL0     C13376   1.485   2.278   8.115  0.4000  1.0263 -0.7752
  100MOL0     C13377   1.519   2.215   8.249  0.6303  0.5496  0.5285
  100MOL0     C13378   1.504   2.307   8.367 -0.1611 -0.4125 -0.6350
  100MOL0     C13379   1.532   2.218   8.490  0.5007 -0.0521 -0.9602
  100MOL0     C13380   1.536   2.292   8.625  0.6584  0.2763  0.4736
  100MOL0     C13381   1.674   2.361   8.661  0.4081 -0.5266 -0.3893
  100MOL0     N13382   1.697   2.485   8.590 -0.1093  0.6521 -0.1253
  100MOL0     C13383   1.626   2.602   8.596  0.0223  0.5242  0.1655
  100MOL0     C13384   1.688   2.684   8.509 -0.1255  0.5941 -0.0102
  100MOL0     C13385   1.662   2.827   8.473 -0.5034 -0.2239  0.3422
  100MOL0     C13386   1.587   2.834   8.341  0.8055 -0.7271 -0.3426
  100MOL0     C13387   1.434   2.802   8.360 -0.5431 -0.3513 -0.6385
  100MOL0     C13388   1.351   2.865   8.255  0.7151  0.0464  0.3409
  100MOL0     O13389   1.253   2.774   8.207 -0.0384  0.1646  1.5627
  100MOL0     C13390   1.159   2.726   8.299 -0.3819 -0.4245  0.0137
  100MOL0     C13391   1.123   2.795   8.428  0.0444 -0.1725  1.1018
  100MOL0     C13392   1.026   2.755   8.503  0.8307 -0.3217 -0.5110
  100MOL0     C13393   0.951   2.647   8.478  1.0255  0.8518  0.3020
  100MOL0     C13394   0.840   2.600   8.576  0.8192 -0.3571 -0.0147
  100MOL0     O13395   0.766   2.505   8.531  0.2021  0.5079  0.9614
  100MOL0     C13396   0.680   2.441   8.607  0.0813  0.5069  0.1439
  100MOL0     C13397   0.595   2.498   8.698  0.0694 -0.1544  0.2055
  100MOL0     C13398   0.518   2.417   8.780 -0.6681  1.1133 -1.3418
  100MOL0     C13399   0.504   2.281   8.762 -0.7765  0.7275 -1.4320
  100MOL0     O13400   0.411   2.219   8.840  0.5922 -0.3247  0.5582
  100MOL0     C13401   0.366   2.079   8.819 -0.5009  0.3983  0.4002
  100MOL0     C13402   0.282   2.074   8.691 -0.2266  0.0630  0.1878
  100MOL0     C13403   0.239   1.928   8.661 -0.7256 -0.6211 -0.1422
  100MOL0     C13404   0.154   1.923   8.528  0.7160  0.2829 -0.5024
  100MOL0     C13405   0.091   1.788   8.494  0.0835  0.3213  0.3210
  100MOL0     C13406   0.194   1.667   8.462  0.5935  0.7667  0.2602
  100MOL0     C13407   0.323   1.703   8.371  0.2873 -0.5969  0.0185
  100MOL0     C13408   0.388   1.576   8.355  1.0893 -1.4537 -0.2308
  100MOL0    Cl13409   0.545   1.608   8.267  0.3379  0.2822 -0.2146
  100MOL0     C13410   0.590   2.215   8.678  0.0019 -0.1353  0.0023
  100MOL0     C13411   0.680   2.300   8.604  0.9068  0.0954  0.3061
  100MOL0     O13412   0.840   2.653   8.687  0.4958 -0.3396  0.1363
  100MOL0     C13413   0.987   2.572   8.362  0.5217 -0.1151  0.1586
  100MOL0     C13414   1.090   2.612   8.279  0.0745 -0.4755 -0.0162
  100MOL0     N13415   1.789   2.612   8.451  0.2808 -0.5287 -0.0973
  100MOL0     N13416   1.795   2.493   8.502 -0.0634  0.0980  0.3233
  100MOL0     C13417   1.469   2.336   7.591 -0.9054  0.4254 -0.7163
  100MOL0     C13418   1.509   2.418   7.486 -0.5458 -0.6833  0.6258
  100MOL0     C13419   1.615   2.835   7.301  1.0494  0.0761 -0.0581
  100MOL0     C13420   1.513   2.919   7.262 -0.2321 -0.4195  0.1529
  100MOL0     C13421   1.527   3.008   7.163 -0.0648  0.0783  1.4399
  100MOL0     C13422   1.645   3.035   7.096 -0.0882  0.2728 -0.0908
  100MOL0     O13423   1.653   3.134   6.998  0.1821  1.0232 -0.0086
  100MOL0     C13424   1.743   3.130   6.885 -0.1495  0.0967  0.8575
  100MOL0     C13425   1.682   3.086   6.753  0.2297 -0.1992 -0.2045
  100MOL0     C13426   1.538   3.137   6.728  0.6265 -0.1646 -0.7673
  100MOL0     C13427   1.473   3.093   6.598  0.4321 -0.4602 -0.0033
  100MOL0     C13428   1.528   3.174   6.492  0.3724  1.6345 -0.0608
  100MOL0     C13429   1.566   3.245   6.394 -0.2597  0.3232 -0.1277
  100MOL0     C13430   1.764   2.957   7.127 -0.3748  0.3068  0.5482
  100MOL0     C13431   1.741   2.848   7.227 -0.5014 -2.1919 -0.7030
  100MOL0     C13432   1.859   2.759   7.247  0.3741 -0.6494 -0.4017
  100MOL0     H13433   1.373   2.710   7.609 -1.0357 -0.2641 -1.7014
  100MOL0     H13434   1.329   2.545   7.807  0.1577  0.5504  0.0252
  100MOL0     H13435   1.570   2.186   7.792 -1.3932 -2.0262 -0.2684
  100MOL0     H13436   1.597   2.338   7.881 -5.2975  4.9452  1.0965
  100MOL0     H13437   1.588   2.122   8.015 -0.4907 -0.5848  1.1422
  100MOL0     H13438   1.416   2.132   7.980 -0.0991  1.2230 -0.2542
  100MOL0     H13439   1.383   2.313   8.137  0.7987  1.0914  1.1243
  100MOL0     H13440   1.553   2.364   8.112 -0.2024  1.5779  0.7396
  100MOL0     H13441   1.447   2.133   8.253 -0.1397  1.1650 -0.2876
  100MOL0     H13442   1.621   2.175   8.257  0.5737  0.3816  0.4083
  100MOL0     H13443   1.564   2.398   8.373  0.4854 -0.9356  1.6071
  100MOL0     H13444   1.401   2.346   8.373  0.2845  0.6651  0.3456
  100MOL0     H13445   1.444   2.154   8.503  1.0938 -0.4554  1.8806
  100MOL0     H13446   1.620   2.154   8.485  0.4756 -0.3605  1.2855
  100MOL0     H13447   1.504   2.221   8.701 -0.9308 -1.1178 -1.4008
  100MOL0     H13448   1.455   2.366   8.625 -0.7298 -1.1708 -1.5924
  100MOL0     H13449   1.667   2.384   8.767 -2.2563 -2.6513  0.0210
  100MOL0     H13450   1.753   2.288   8.643  2.0036  1.0992 -0.1723
  100MOL0     H13451   1.542   2.613   8.664 -0.4291 -2.9680  0.3539
  100MOL0     H13452   1.614   2.881   8.555 -0.1486  1.5600 -0.5630
  100MOL0     H13453   1.757   2.872   8.442 -0.5384  0.3108  0.9842
  100MOL0     H13454   1.597   2.935   8.301  1.5109 -0.4804  0.4223
  100MOL0     H13455   1.617   2.759   8.267 -0.4417 -2.7504  1.1054
  100MOL0     H13456   1.397   2.850   8.451 -0.4257 -3.1795  1.0110
  100MOL0     H13457   1.423   2.696   8.384 -2.3742 -0.4561 -1.8173
  100MOL0     H13458   1.411   2.900   8.170 -1.0287 -0.7787 -1.3061
  100MOL0     H13459   1.295   2.946   8.303  1.6527 -0.3984  2.2526
  100MOL0     H13460   1.157   2.895   8.455 -1.6354  0.8752 -0.4553
  100MOL0     H13461   0.998   2.815   8.590 -2.3560 -1.8619 -0.3281
  100MOL0     H13462   0.604   2.607   8.697  2.9583 -0.2526 -2.4159
  100MOL0     H13463   0.442   2.453   8.850 -0.4532 -2.9190  1.3084
  100MOL0     H13464   0.455   2.016   8.817  1.1534  2.6019  0.0028
  100MOL0     H13465   0.300   2.051   8.901  1.3542  1.4637  2.3654
  100MOL0     H13466   0.197   2.142   8.705  0.5547  1.2521 -0.6330
  100MOL0     H13467   0.347   2.114   8.613 -1.1331  3.3695  0.9718
  100MOL0     H13468   0.332   1.871   8.652  0.7399  1.4130  1.3062
  100MOL0     H13469   0.183   1.891   8.748  0.9844 -0.0993  1.2390
  100MOL0     H13470   0.230   1.952   8.454  4.0704  1.8013  3.1873
  100MOL0     H13471   0.075   1.996   8.543  0.6446 -0.2061  1.8572
  100MOL0     H13472   0.031   1.809   8.405  0.5399  0.1385 -0.0335
  100MOL0     H13473   0.025   1.763   8.577 -2.0856 -0.3411 -1.5075
  100MOL0     H13474   0.229   1.619   8.554  0.8200 -5.6182 -2.6168
  100MOL0     H13475   0.143   1.592   8.400  1.5587 -0.3625  0.7787
  100MOL0     H13476   0.389   1.779   8.413  1.8988 -1.9002 -0.0746
  100MOL0     H13477   0.282   1.748   8.280 -3.9086  1.4371  2.6141
  100MOL0     H13478   0.409   1.540   8.456  0.1315 -0.4586  0.3527
  100MOL0     H13479   0.306   1.517   8.313 -1.8366  1.8896  0.2465
  100MOL0     H13480   0.574   2.108   8.670  0.2039 -0.2106  0.5248
  100MOL0     H13481   0.744   2.249   8.532  0.2893 -4.2715  2.5188
  100MOL0     H13482   0.937   2.480   8.336 -1.3596  1.6221 -3.1178
  100MOL0     H13483   1.103   2.546   8.194 -3.6251  0.1261 -1.2484
  100MOL0     H13484   1.481   2.229   7.581  0.4599  0.6318 -1.6388
  100MOL0     H13485   1.559   2.371   7.402  0.8945 -1.0285  1.6367
  100MOL0     H13486   1.417   2.912   7.311 -2.4899  2.6181 -3.2695
  100MOL0     H13487   1.456   3.079   7.123  2.2626  0.8635 -1.7289
  100MOL0     H13488   1.829   3.064   6.899 -0.7360 -1.0590 -0.6550
  100MOL0     H13489   1.778   3.233   6.873  0.1177  0.0354  1.1185
  100MOL0     H13490   1.687   2.978   6.739 -0.4586 -0.2460 -0.1416
  100MOL0     H13491   1.750   3.127   6.678 -0.3963 -0.2702 -0.8154
  100MOL0     H13492   1.533   3.246   6.731 -0.4076 -0.1885 -1.1439
  100MOL0     H13493   1.483   3.087   6.808  2.9450 -1.7064 -0.0233
  100MOL0     H13494   1.491   2.986   6.588 -1.8556 -1.1939  2.5422
  100MOL0     H13495   1.364   3.105   6.595  0.5766  0.8220 -1.1305
  100MOL0     H13496   1.606   3.307   6.317  0.7341 -0.3369 -0.1657
  100MOL0     H13497   1.862   2.970   7.082 -0.9078 -0.6345 -0.9606
  100MOL0     H13498   1.860   2.686   7.166 -1.9921 -1.8495  0.5637
  100MOL0     H13499   1.952   2.815   7.262 -1.0729  1.1624  2.8526
  100MOL0     H13500   1.851   2.718   7.348  4.0119  2.8030  1.5969
  101MOL0     O13501   4.266   5.423  10.133 -0.0465  0.5871  0.4475
  101MOL0     C13502   4.316   5.530  10.106 -0.4515  0.1427  0.3445
  101MOL0     O13503   4.394   5.603  10.188 -0.4814 -0.5071  0.2027
  101MOL0     C13504   4.473   5.527  10.270 -1.0512  0.5571  0.1967
  101MOL0     C13505   4.481   5.563  10.402 -0.8716 -0.0205 -0.0762
  101MOL0     C13506   4.580   5.511  10.483  0.2602  0.3446 -0.2670
  101MOL0     C13507   4.654   5.403  10.439 -0.0441  0.2705  0.1145
  101MOL0     O13508   4.732   5.319  10.514  0.0274 -0.1679 -0.5725
  101MOL0     C13509   4.802   5.361  10.636  0.0306  0.2888  0.6426
  101MOL0     C13510   4.952   5.369  10.623  0.6176  0.4442 -0.0322
  101MOL0     C13511   5.026   5.250  10.554  0.6281 -0.5437  0.4825
  101MOL0     C13512   5.166   5.230  10.592 -0.1344 -1.0617  0.8584
  101MOL0     C13513   5.212   5.106  10.524 -0.0013  0.3895 -0.2715
  101MOL0     C13514   5.135   4.976  10.565  1.1946  0.3696  0.3008
  101MOL0     C13515   5.219   4.846  10.574  0.1310 -0.7024  0.1334
  101MOL0     C13516   5.155   4.738  10.649 -0.4783  0.5013 -0.4007
  101MOL0     N13517   5.253   4.625  10.644  1.0601 -0.4173  1.0377
  101MOL0     C13518   5.225   4.503  10.585  0.5238 -1.4284 -1.3311
  101MOL0     C13519   5.334   4.428  10.614  0.0049 -1.0688 -0.2533
  101MOL0     C13520   5.375   4.287  10.560  0.6905  0.4325 -0.2323
  101MOL0     C13521   5.459   4.215  10.665 -0.6353 -0.3187 -0.3768
  101MOL0     C13522   5.502   4.083  10.595 -0.8026  0.0594 -0.4797
  101MOL0     C13523   5.635   4.018  10.647  0.4308 -0.0795  0.3386
  101MOL0     O13524   5.609   3.968  10.778  0.6025  0.1443  0.9933
  101MOL0     C13525   5.708   3.933  10.866  0.0986 -0.2308 -0.2070
  101MOL0     C13526   5.847   3.945  10.849  0.5624 -0.1732  0.4061
  101MOL0     C13527   5.938   3.917  10.947 -0.4067 -0.1015 -0.0988
  101MOL0     C13528   5.887   3.850  11.067  0.1443  0.2461  0.3607
  101MOL0     C13529   5.979   3.786  11.163  0.1294 -0.1866  0.5990
  101MOL0     O13530   5.921   3.703  11.264 -0.1568 -0.5165  0.4979
  101MOL0     C13531   6.010   3.674  11.364 -0.8512 -0.3415 -0.5274
  101MOL0     C13532   6.001   3.736  11.486  0.5006 -1.4267 -0.1529
  101MOL0     C13533   6.094   3.704  11.594  0.4765 -0.7542 -0.3766
  101MOL0     C13534   6.178   3.600  11.578 -0.1753 -0.1475 -0.2447
  101MOL0     O13535   6.252   3.572  11.687 -0.3936 -0.3950 -0.8722
  101MOL0     C13536   6.353   3.464  11.693 -0.2871  0.2230 -0.3285
  101MOL0     C13537   6.413   3.447  11.842  0.4880 -0.2379 -0.1999
  101MOL0     C13538   6.520   3.333  11.840  0.0876  0.0407  0.4490
  101MOL0     C13539   6.637   3.366  11.751  0.3926 -0.2142 -0.7252
  101MOL0     C13540   6.762   3.285  11.768  0.1094 -0.6970 -0.7382
  101MOL0     C13541   6.731   3.146  11.720 -0.7418 -0.4270 -1.3595
  101MOL0     C13542   6.857   3.068  11.763  0.4394 -0.2248 -0.4982
  101MOL0     C13543   6.851   2.927  11.705  0.6134 -0.4694 -0.2483
  101MOL0    Cl13544   6.735   2.824  11.802  0.3010  0.3216  0.6715
  101MOL0     C13545   6.190   3.529  11.451  1.0678 -0.2363 -0.3414
  101MOL0     C13546   6.093   3.568  11.351 -0.7677  0.6361  0.2000
  101MOL0     O13547   6.098   3.805  11.158 -0.4073  0.1313  0.8359
  101MOL0     C13548   5.748   3.846  11.097  0.8833  0.5928  0.9393
  101MOL0     C13549   5.661   3.887  10.989  0.1900  1.5243  0.2033
  101MOL0     N13550   5.408   4.505  10.716  0.2895 -0.0918 -0.1099
  101MOL0     N13551   5.359   4.617  10.731 -0.6733 -0.0743  0.3037
  101MOL0     C13552   4.640   5.356  10.306  1.2611 -0.0864 -0.9131
  101MOL0     C13553   4.567   5.430  10.214  0.3057  0.0641 -1.0736
  101MOL0     C13554   4.282   5.583   9.972 -0.9102 -0.2474  0.1088
  101MOL0     C13555   4.159   5.548   9.918 -0.0260 -0.4075 -0.1326
  101MOL0     C13556   4.128   5.581   9.785  0.1411  0.3906 -0.4183
  101MOL0     C13557   4.213   5.668   9.705  0.2175 -0.5264 -0.6170
  101MOL0     O13558   4.163   5.705   9.579 -0.4026  0.2673  0.3904
  101MOL0     C13559   4.230   5.809   9.507 -0.1814  0.3568  0.0459
  101MOL0     C13560   4.139   5.864   9.396 -0.4456  0.9325 -0.1378
  101MOL0     C13561   4.086   5.998   9.453  0.4141  0.7439  0.7577
  101MOL0     C13562   3.974   6.033   9.363 -0.0811 -0.3339  1.0720
  101MOL0     C13563   4.024   6.103   9.241 -0.4420  0.9426 -0.2435
  101MOL0     C13564   4.037   6.163   9.139 -0.9267 -1.4406 -0.2989
  101MOL0     C13565   4.332   5.717   9.767  0.4230 -0.1631  0.8818
  101MOL0     C13566   4.367   5.667   9.896  0.4507  0.7598  0.9778
  101MOL0     C13567   4.503   5.709   9.939 -0.2434  0.1870 -0.0865
  101MOL0     H13568   4.415   5.643  10.434 -1.9320 -0.4518 -1.1387
  101MOL0     H13569   4.575   5.528  10.590 -4.2906 -0.9600 -0.0531
  101MOL0     H13570   4.754   5.449  10.681 -0.8693  0.0703  0.1363
  101MOL0     H13571   4.789   5.277  10.704  3.2229 -1.2374 -0.4163
  101MOL0     H13572   4.982   5.380  10.728  0.4140 -0.6867  0.1576
  101MOL0     H13573   4.961   5.461  10.564 -2.9871 -1.0325 -3.2489
  101MOL0     H13574   5.003   5.244  10.447 -1.7116 -3.3861  0.9943
  101MOL0     H13575   4.966   5.168  10.595 -1.1182  1.1675  1.5055
  101MOL0     H13576   5.227   5.317  10.565 -1.8367 -0.0998 -0.0458
  101MOL0     H13577   5.189   5.232  10.699  4.1398  4.5144  0.3191
  101MOL0     H13578   5.212   5.103  10.415 -0.8140 -2.7761 -0.2871
  101MOL0     H13579   5.316   5.094  10.554 -0.2712  0.6893  0.8110
  101MOL0     H13580   5.089   4.990  10.663  3.2226  1.5697  1.1520
  101MOL0     H13581   5.049   4.953  10.502  1.3202 -0.1755  0.3256
  101MOL0     H13582   5.317   4.873  10.615 -0.4779  4.5054 -1.0788
  101MOL0     H13583   5.239   4.826  10.468  3.8669 -1.6144  0.8612
  101MOL0     H13584   5.130   4.767  10.751  0.2784 -1.5044  0.3964
  101MOL0     H13585   5.068   4.721  10.585 -0.9240 -2.7550  0.9300
  101MOL0     H13586   5.134   4.474  10.533 -0.6970  0.4392 -0.3662
  101MOL0     H13587   5.289   4.232  10.520 -0.5801  0.3942  2.3156
  101MOL0     H13588   5.442   4.311  10.477  0.6429  1.9903  0.1444
  101MOL0     H13589   5.548   4.271  10.696  0.7597 -2.5276 -0.1855
  101MOL0     H13590   5.406   4.192  10.758  0.2871  0.8210  0.4742
  101MOL0     H13591   5.517   4.103  10.489  3.5756  1.0166  0.1501
  101MOL0     H13592   5.427   4.007  10.620  0.2170 -0.7474  0.2304
  101MOL0     H13593   5.712   4.094  10.637  1.9747 -1.5165  0.9380
  101MOL0     H13594   5.663   3.930  10.588  1.8324  0.7926 -0.3362
  101MOL0     H13595   5.864   3.987  10.750 -1.7215 -1.9284 -0.8187
  101MOL0     H13596   6.046   3.928  10.935  0.3237 -3.4393  2.0014
  101MOL0     H13597   5.932   3.818  11.500 -0.2061 -1.2340 -3.7648
  101MOL0     H13598   6.084   3.759  11.687  0.7184  1.1059 -1.3885
  101MOL0     H13599   6.295   3.373  11.674  0.2035 -1.0006  3.2377
  101MOL0     H13600   6.426   3.486  11.615 -2.7487  1.8684 -2.3048
  101MOL0     H13601   6.460   3.540  11.875 -1.9493  0.5998  1.1984
  101MOL0     H13602   6.321   3.420  11.896 -2.3922  1.2203 -3.9314
  101MOL0     H13603   6.549   3.303  11.942 -1.0467  1.5351  1.2471
  101MOL0     H13604   6.477   3.239  11.804  1.4674 -0.7012  0.6380
  101MOL0     H13605   6.667   3.468  11.776  0.4688 -0.5934  0.8519
  101MOL0     H13606   6.612   3.366  11.645 -1.1828  0.8467 -0.3891
  101MOL0     H13607   6.792   3.284  11.873 -0.9475  1.9419 -0.3144
  101MOL0     H13608   6.837   3.334  11.705 -5.2130  6.6367 -2.7428
  101MOL0     H13609   6.645   3.093  11.762 -2.5093  0.8011 -3.2551
  101MOL0     H13610   6.709   3.138  11.614 -0.0895 -2.3092 -1.3849
  101MOL0     H13611   6.853   3.061  11.872 -1.5477  0.6783 -0.4725
  101MOL0     H13612   6.951   3.113  11.729  0.3533 -1.4083 -2.4590
  101MOL0     H13613   6.832   2.937  11.598 -0.6326 -0.4696 -0.0447
  101MOL0     H13614   6.949   2.879  11.717  1.1603  0.9984  1.6329
  101MOL0     H13615   6.264   3.452  11.433  1.3107  0.3402 -1.9493
  101MOL0     H13616   6.098   3.499  11.267  1.7129 -1.4877  1.9404
  101MOL0     H13617   5.692   3.809  11.182  1.0521 -3.5028 -0.4985
  101MOL0     H13618   5.553   3.885  10.994  0.0137  1.1542 -2.2210
  101MOL0     H13619   4.677   5.260  10.271  0.7918 -2.1576  3.5403
  101MOL0     H13620   4.565   5.393  10.112 -1.7835 -1.0603 -0.6777
  101MOL0     H13621   4.079   5.495   9.967 -0.6977  0.3342 -0.4061
  101MOL0     H13622   4.034   5.546   9.744  0.7032 -2.7739  0.7619
  101MOL0     H13623   4.317   5.763   9.460  2.0064  1.1573  3.0310
  101MOL0     H13624   4.268   5.892   9.566 -0.3084 -0.8152  1.8779
  101MOL0     H13625   4.060   5.792   9.373 -1.2250  1.0304  2.0419
  101MOL0     H13626   4.202   5.888   9.310 -0.3483 -0.4270 -0.4703
  101MOL0     H13627   4.169   6.068   9.459  0.7689  0.5533 -1.2355
  101MOL0     H13628   4.047   5.995   9.555  1.3078 -2.6902  1.1564
  101MOL0     H13629   3.917   5.944   9.336  1.7006 -0.9910 -0.7868
  101MOL0     H13630   3.912   6.103   9.419  1.1974  2.3338 -0.6286
  101MOL0     H13631   4.052   6.207   9.042 -0.1640  1.2277  0.9192
  101MOL0     H13632   4.409   5.776   9.719 -0.8335 -0.0354 -1.0856
  101MOL0     H13633   4.576   5.725   9.858  2.4284 -2.7613  1.4851
  101MOL0     H13634   4.503   5.796  10.004  0.3788  0.7577 -0.8160
  101MOL0     H13635   4.537   5.617   9.988 -3.2268  1.5028  5.0830
  102MOL0     O13636   2.301   8.955  11.008 -0.3080 -0.6117 -0.7391
  102MOL0     C13637   2.315   9.077  11.025 -1.0766  0.8859  0.0611
  102MOL0     O13638   2.410   9.163  10.971  0.1546 -0.2639  0.1430
  102MOL0     C13639   2.466   9.151  10.845 -0.2745 -0.7084  0.0548
  102MOL0     C13640   2.582   9.226  10.813 -0.4641 -0.4344 -0.2575
  102MOL0     C13641   2.651   9.196  10.696 -0.1119  0.0269 -0.2214
  102MOL0     C13642   2.618   9.089  10.610 -0.3582 -0.3495  0.4608
  102MOL0     O13643   2.706   9.072  10.504 -0.2866 -0.8616  0.0121
  102MOL0     C13644   2.677   9.010  10.385 -0.9026 -0.0719  0.7699
  102MOL0     C13645   2.577   9.096  10.307 -0.3604 -1.0305  1.2274
  102MOL0     C13646   2.540   9.062  10.156 -0.8126 -0.2210 -0.0190
  102MOL0     C13647   2.575   8.929  10.108  0.8769  0.2009  0.8109
  102MOL0     C13648   2.529   8.902   9.965  0.1931 -0.0395  0.6015
  102MOL0     C13649   2.498   8.753   9.936  0.0959  0.1134  0.3514
  102MOL0     C13650   2.632   8.688   9.932  0.2133  0.5988 -0.8443
  102MOL0     C13651   2.617   8.526   9.950 -0.6355 -1.1901  1.0403
  102MOL0     N13652   2.599   8.475  10.088  0.3974  0.3383 -0.5158
  102MOL0     C13653   2.494   8.512  10.178  0.0673 -0.6296  0.2088
  102MOL0     C13654   2.525   8.449  10.292 -0.9320  0.5483 -0.5148
  102MOL0     C13655   2.457   8.472  10.422  0.2982  0.0246  0.9920
  102MOL0     C13656   2.500   8.599  10.483 -0.6625 -0.8072 -0.5095
  102MOL0     C13657   2.457   8.592  10.631 -1.4584  0.2511 -0.1233
  102MOL0     C13658   2.554   8.513  10.722 -0.3122  0.4180  0.2247
  102MOL0     O13659   2.494   8.421  10.821 -0.2519 -0.4723  0.8763
  102MOL0     C13660   2.389   8.452  10.908  0.8129  0.1869 -1.2794
  102MOL0     C13661   2.294   8.352  10.941 -0.8245 -0.4992  0.0282
  102MOL0     C13662   2.183   8.387  11.022 -1.0360  0.2676  0.6819
  102MOL0     C13663   2.158   8.517  11.056  0.0323  0.6067 -0.4961
  102MOL0     C13664   2.044   8.536  11.147  0.3726 -0.9088 -0.1445
  102MOL0     O13665   2.021   8.662  11.195  0.0348  0.1465 -0.2500
  102MOL0     C13666   1.977   8.686  11.328 -0.8159 -0.6297  0.0706
  102MOL0     C13667   1.971   8.598  11.443 -0.2683 -0.5387  0.3424
  102MOL0     C13668   1.925   8.650  11.563  0.1080 -0.2001 -0.1953
  102MOL0     C13669   1.904   8.785  11.586 -0.1849 -0.1316  0.5582
  102MOL0     O13670   1.860   8.815  11.707  0.1243 -0.0387 -0.5250
  102MOL0     C13671   1.718   8.796  11.732  0.6031 -0.1061 -1.6076
  102MOL0     C13672   1.660   8.935  11.781  0.3253  0.5151  0.0217
  102MOL0     C13673   1.666   9.046  11.678 -0.1230 -0.0123  1.4941
  102MOL0     C13674   1.585   9.171  11.713  0.5310 -0.2630  0.3270
  102MOL0     C13675   1.639   9.238  11.854  0.0343  0.3917 -0.4536
  102MOL0     C13676   1.578   9.368  11.887 -0.2824 -0.3624 -0.7170
  102MOL0     C13677   1.642   9.422  12.017 -0.3106  0.8360  0.4621
  102MOL0     C13678   1.553   9.533  12.069 -0.1773  0.3285  0.5356
  102MOL0    Cl13679   1.653   9.612  12.183  0.5802 -0.1565  0.4728
  102MOL0     C13680   1.939   8.880  11.487 -0.1635  1.8659  0.0125
  102MOL0     C13681   1.970   8.825  11.356  0.6022  0.5122  0.9194
  102MOL0     O13682   1.969   8.445  11.172 -0.5858 -0.4273  0.4749
  102MOL0     C13683   2.241   8.615  11.013 -0.1546  0.2962  0.1545
  102MOL0     C13684   2.352   8.586  10.933 -0.6071  0.0908 -0.1946
  102MOL0     N13685   2.643   8.380  10.271  0.2442  0.0371  0.0730
  102MOL0     N13686   2.687   8.398  10.151 -0.7451 -1.1669 -0.6145
  102MOL0     C13687   2.502   9.022  10.637  1.0575 -0.6333 -0.1236
  102MOL0     C13688   2.424   9.060  10.752  0.3274  0.2996 -0.0553
  102MOL0     C13689   2.236   9.126  11.137  0.5021  0.1971  0.5129
  102MOL0     C13690   2.296   9.177  11.258 -0.0250  0.1497  1.5724
  102MOL0     C13691   2.224   9.249  11.354  0.5162 -0.1426 -1.3186
  102MOL0     C13692   2.085   9.251  11.346 -0.3095  0.2531  0.0243
  102MOL0     O13693   2.018   9.327  11.449  0.2802  0.6170  0.1548
  102MOL0     C13694   1.876   9.353  11.427 -0.3403  0.4094  0.6778
  102MOL0     C13695   1.846   9.451  11.542 -1.1009 -0.3959 -0.0870
  102MOL0     C13696   1.872   9.598  11.510  0.4885  0.1707  0.3474
  102MOL0     C13697   2.002   9.639  11.452 -0.0144  0.3654 -0.1819
  102MOL0     C13698   2.124   9.597  11.533  0.0847  0.2586 -0.5141
  102MOL0     C13699   2.225   9.559  11.592  0.2062  0.5782 -0.8043
  102MOL0     C13700   2.023   9.173  11.246  0.5423  0.0010 -0.0421
  102MOL0     C13701   2.097   9.115  11.138 -0.2640 -0.1894 -0.0252
  102MOL0     C13702   2.010   9.031  11.046 -0.4294  0.1325  0.1913
  102MOL0     H13703   2.623   9.307  10.873 -1.5232 -0.2638  0.2721
  102MOL0     H13704   2.735   9.262  10.675 -0.4994 -0.2925 -3.1979
  102MOL0     H13705   2.759   8.992  10.315 -3.0253 -0.3757 -1.8109
  102MOL0     H13706   2.647   8.906  10.403  0.8279 -1.1924 -2.1667
  102MOL0     H13707   2.609   9.201  10.305  3.5748 -2.0845 -1.0667
  102MOL0     H13708   2.477   9.093  10.352 -1.6422 -1.4759 -1.4389
  102MOL0     H13709   2.596   9.125  10.086  0.8440 -1.6188 -0.0026
  102MOL0     H13710   2.435   9.081  10.129 -0.0817 -0.4868 -3.5119
  102MOL0     H13711   2.684   8.922  10.104  0.9020  0.9529 -2.6560
  102MOL0     H13712   2.537   8.848  10.171  3.3613 -1.1020  0.7718
  102MOL0     H13713   2.433   8.954   9.955 -0.0930 -0.3673  1.5427
  102MOL0     H13714   2.601   8.942   9.891  0.3795 -1.9572 -0.3077
  102MOL0     H13715   2.430   8.721  10.015 -3.1840 -0.7469 -2.5586
  102MOL0     H13716   2.435   8.729   9.850 -0.3315 -0.5304  0.8381
  102MOL0     H13717   2.706   8.733  10.000  0.5227 -1.4677  0.3066
  102MOL0     H13718   2.663   8.707   9.829 -2.3402 -2.1016 -2.2432
  102MOL0     H13719   2.532   8.493   9.889 -0.3455  3.4243 -2.4632
  102MOL0     H13720   2.707   8.479   9.908  1.2756  0.5038  2.9707
  102MOL0     H13721   2.413   8.583  10.161  0.9983  0.7842  1.4465
  102MOL0     H13722   2.352   8.459  10.392  1.0570 -0.9595 -1.5700
  102MOL0     H13723   2.478   8.384  10.482  6.5069 -0.9968 -1.9255
  102MOL0     H13724   2.608   8.591  10.471 -0.4967 -1.8149  1.3570
  102MOL0     H13725   2.460   8.692  10.439 -2.5263 -0.9839  0.7028
  102MOL0     H13726   2.355   8.553  10.637 -2.4516  2.8281  1.5029
  102MOL0     H13727   2.464   8.696  10.665  1.4813  0.4966 -1.1729
  102MOL0     H13728   2.616   8.583  10.779  2.8566  1.1069 -3.6561
  102MOL0     H13729   2.619   8.462  10.650 -1.5966 -1.5276  0.3652
  102MOL0     H13730   2.323   8.252  10.907  2.4791  0.5707 -0.7334
  102MOL0     H13731   2.118   8.303  11.043  1.1707 -1.9372 -0.7144
  102MOL0     H13732   1.987   8.491  11.444  2.1351 -0.2290  1.6642
  102MOL0     H13733   1.902   8.582  11.645  0.6015 -1.5991 -1.1895
  102MOL0     H13734   1.662   8.752  11.649 -3.2511  0.7175  0.3087
  102MOL0     H13735   1.720   8.722  11.812  0.6371 -1.8428 -3.1520
  102MOL0     H13736   1.555   8.916  11.808 -0.3398 -0.9391 -3.0830
  102MOL0     H13737   1.716   8.969  11.868 -0.9560  0.7349  0.7944
  102MOL0     H13738   1.770   9.065  11.649 -0.5291  0.1985  0.1035
  102MOL0     H13739   1.632   9.003  11.584  1.1465 -1.1178  1.5103
  102MOL0     H13740   1.479   9.150  11.733 -0.1220  2.9390  0.8192
  102MOL0     H13741   1.586   9.246  11.633 -2.3996  0.3139  0.7157
  102MOL0     H13742   1.748   9.249  11.853  0.3223 -1.7114 -2.9924
  102MOL0     H13743   1.609   9.175  11.938 -0.1190  2.2255  0.9466
  102MOL0     H13744   1.601   9.444  11.811  1.8249 -1.0965 -0.8619
  102MOL0     H13745   1.470   9.357  11.902 -0.0297  0.9055  2.9114
  102MOL0     H13746   1.747   9.445  11.995 -0.2992 -1.9655 -3.4655
  102MOL0     H13747   1.647   9.351  12.100 -0.8418  1.5108  1.0843
  102MOL0     H13748   1.535   9.611  11.996 -2.2318 -0.6543 -0.0769
  102MOL0     H13749   1.459   9.488  12.103  0.6556 -3.2821 -1.3762
  102MOL0     H13750   1.923   8.985  11.505  1.8899  1.9867  1.3863
  102MOL0     H13751   1.992   8.900  11.280 -0.9376 -1.4133 -1.6041
  102MOL0     H13752   2.215   8.719  11.031 -2.0934  0.1710 -1.5207
  102MOL0     H13753   2.418   8.667  10.906  0.6082  0.6504  3.8438
  102MOL0     H13754   2.457   8.947  10.572  1.0134  1.3070 -2.4691
  102MOL0     H13755   2.329   9.010  10.769  1.0339 -1.1336 -0.1382
  102MOL0     H13756   2.403   9.194  11.256 -0.0192  0.8419 -3.2936
  102MOL0     H13757   2.262   9.312  11.434 -2.9383  1.2531 -0.5755
  102MOL0     H13758   1.813   9.264  11.428  0.5010 -0.2324 -0.1823
  102MOL0     H13759   1.868   9.392  11.325  0.2501 -1.1073  0.0130
  102MOL0     H13760   1.906   9.425  11.630 -2.3091 -2.0905  0.2989
  102MOL0     H13761   1.748   9.433  11.588 -0.9202 -2.3659 -0.3644
  102MOL0     H13762   1.861   9.656  11.602 -1.6188  0.7867 -0.2246
  102MOL0     H13763   1.792   9.624  11.439  2.2660  2.9064 -0.8090
  102MOL0     H13764   2.017   9.588  11.356  0.9575  1.8411 -0.8585
  102MOL0     H13765   2.002   9.747  11.438  0.4954  0.5610  1.1229
  102MOL0     H13766   2.307   9.517  11.647  0.0225 -1.9458 -2.3224
  102MOL0     H13767   1.915   9.163  11.240  0.3054  1.8855 -6.0628
  102MOL0     H13768   2.055   8.935  11.021  0.8943  0.1543  2.2319
  102MOL0     H13769   1.912   9.007  11.089  0.0633 -1.5405  0.4422
  102MOL0     H13770   2.003   9.088  10.953  1.1365 -0.6655 -0.4612
  103MOL0     O13771   5.398  11.506   4.206 -0.6598 -0.4957  0.3693
  103MOL0     C13772   5.330  11.507   4.113  0.0064 -0.7478 -0.2069
  103MOL0     O13773   5.369  11.446   3.997  0.4955  0.2441  0.0182
  103MOL0     C13774   5.478  11.360   3.993  0.5197  0.1313  0.4110
  103MOL0     C13775   5.523  11.265   4.096 -0.2707 -0.4841 -0.4664
  103MOL0     C13776   5.635  11.189   4.074  0.0834 -0.9227 -0.3615
  103MOL0     C13777   5.708  11.204   3.958  0.2207  0.0461 -0.2224
  103MOL0     O13778   5.833  11.140   3.961  0.3873 -0.6816 -0.2591
  103MOL0     C13779   5.897  11.125   3.833 -1.2024  0.3722  1.4496
  103MOL0     C13780   5.839  11.003   3.752  0.9634  0.1662  0.4973
  103MOL0     C13781   5.851  10.873   3.830 -0.2390  0.4005  0.5089
  103MOL0     C13782   5.718  10.794   3.856  0.3232  0.8735  0.5182
  103MOL0     C13783   5.739  10.672   3.946  0.2305 -0.5267 -0.0852
  103MOL0     C13784   5.616  10.656   4.036 -0.8741  0.9769 -0.4063
  103MOL0     C13785   5.634  10.582   4.166  0.2498 -0.2937 -0.1173
  103MOL0     C13786   5.645  10.437   4.149  0.0177 -0.0501  0.1292
  103MOL0     N13787   5.684  10.368   4.281  0.9729  0.3347 -0.1167
  103MOL0     C13788   5.597  10.350   4.390  0.8407  0.6886  0.6273
  103MOL0     C13789   5.664  10.308   4.501 -0.3893  0.4952  1.1850
  103MOL0     C13790   5.606  10.233   4.621 -0.4364 -0.1443 -0.1218
  103MOL0     C13791   5.702  10.176   4.730  0.1042 -0.1610  0.5562
  103MOL0     C13792   5.635  10.059   4.807  0.2409  0.0911 -0.4243
  103MOL0     C13793   5.670  10.078   4.957  0.9629  0.2493 -0.0992
  103MOL0     O13794   5.581  10.176   5.010 -0.1349  0.9060  0.0032
  103MOL0     C13795   5.576  10.176   5.148  0.2214 -0.2370  0.8701
  103MOL0     C13796   5.476  10.263   5.195  0.1523 -0.7309  0.1804
  103MOL0     C13797   5.460  10.273   5.327 -0.6321  0.7008  0.2740
  103MOL0     C13798   5.529  10.191   5.422  0.1713  1.1797 -0.4014
  103MOL0     C13799   5.495  10.208   5.568 -0.1423 -0.2626 -0.9489
  103MOL0     O13800   5.559  10.140   5.661 -0.0222  0.0325 -0.5088
  103MOL0     C13801   5.503  10.139   5.781 -0.1053 -0.5746  0.3764
  103MOL0     C13802   5.555  10.214   5.879 -0.0766 -0.7536 -0.3016
  103MOL0     C13803   5.503  10.222   6.011 -0.2308  0.8263 -0.5832
  103MOL0     C13804   5.392  10.137   6.041  0.3012 -0.5280 -0.4323
  103MOL0     O13805   5.344  10.152   6.161 -0.0288 -0.4681 -0.3282
  103MOL0     C13806   5.298  10.038   6.247 -0.8495 -0.3486  0.4541
  103MOL0     C13807   5.396  10.028   6.365 -0.7485  0.3819 -0.2258
  103MOL0     C13808   5.355   9.924   6.470  0.1234 -1.2862 -1.0345
  103MOL0     C13809   5.220   9.972   6.534 -0.0450 -0.3124 -1.4289
  103MOL0     C13810   5.219   9.907   6.680  0.5456 -0.8119  0.4596
  103MOL0     C13811   5.089   9.947   6.761 -0.0782 -0.2418 -0.6010
  103MOL0     C13812   5.091   9.898   6.910 -1.3066 -0.1556 -0.5810
  103MOL0     C13813   5.133   9.758   6.959  0.9251  0.7440  0.2549
  103MOL0    Cl13814   5.013   9.638   6.904  0.3413  0.0519  0.2566
  103MOL0     C13815   5.337  10.059   5.938 -0.7171 -0.0648 -0.1039
  103MOL0     C13816   5.397  10.050   5.817 -0.3738  0.0259  0.7741
  103MOL0     O13817   5.419  10.300   5.591 -0.8100  0.2267  0.7215
  103MOL0     C13818   5.633  10.103   5.383  0.9219 -0.6883 -1.2915
  103MOL0     C13819   5.657  10.103   5.244 -0.8244  0.1701  1.2035
  103MOL0     N13820   5.799  10.306   4.458  0.4343  0.2940  0.1336
  103MOL0     N13821   5.810  10.345   4.331  1.2904 -0.0888 -0.0832
  103MOL0     C13822   5.651  11.275   3.852 -0.2417  0.0794 -0.0611
  103MOL0     C13823   5.536  11.350   3.866 -1.1162  0.2161  0.7706
  103MOL0     C13824   5.233  11.622   4.113  0.5218 -0.4825 -0.2008
  103MOL0     C13825   5.197  11.680   3.991 -0.8506 -0.4890 -0.4130
  103MOL0     C13826   5.105  11.783   3.977 -0.2341 -0.4805  0.7481
  103MOL0     C13827   5.052  11.840   4.095 -0.1992  1.2018  0.3998
  103MOL0     O13828   4.974  11.951   4.095 -0.4173 -0.2299  0.4320
  103MOL0     C13829   4.963  12.027   3.978 -0.4624  0.7170 -0.3862
  103MOL0     C13830   4.900  12.152   4.028 -0.2579 -0.7605  0.2274
  103MOL0     C13831   4.747  12.134   4.029 -0.0125 -0.1921  0.3241
  103MOL0     C13832   4.675  12.246   4.111 -0.0206 -0.1880 -0.2671
  103MOL0     C13833   4.693  12.383   4.042  0.5073  0.3422  0.0295
  103MOL0     C13834   4.707  12.493   3.998 -0.1974  0.4824 -0.8871
  103MOL0     C13835   5.078  11.775   4.218  0.3439  0.3069 -0.4889
  103MOL0     C13836   5.165  11.675   4.223 -0.9330  0.4103 -0.2371
  103MOL0     C13837   5.182  11.598   4.355 -0.2626 -1.1294  0.9048
  103MOL0     H13838   5.485  11.260   4.197 -2.1820  1.2979 -1.0298
  103MOL0     H13839   5.688  11.125   4.144  0.1737  0.7122  1.1305
  103MOL0     H13840   5.906  11.218   3.776  0.3315 -1.1073 -0.9299
  103MOL0     H13841   6.004  11.103   3.842 -1.1196 -0.4502 -0.9799
  103MOL0     H13842   5.889  10.974   3.659 -0.2054 -0.4614  0.0448
  103MOL0     H13843   5.739  11.025   3.714  0.5215 -1.0142  0.9308
  103MOL0     H13844   5.898  10.890   3.927  3.2254 -1.6344 -0.6286
  103MOL0     H13845   5.917  10.807   3.772 -0.9970  0.8890 -0.9716
  103MOL0     H13846   5.647  10.866   3.898 -1.1170 -1.0608  1.5491
  103MOL0     H13847   5.671  10.767   3.760  1.3084 -1.3331  0.6075
  103MOL0     H13848   5.751  10.581   3.887 -2.7743 -0.0640 -1.6168
  103MOL0     H13849   5.829  10.687   4.006  0.7029 -1.4620 -0.5561
  103MOL0     H13850   5.587  10.757   4.066 -1.3718  1.2971 -1.8886
  103MOL0     H13851   5.529  10.611   3.987 -0.8048 -0.1838  0.5045
  103MOL0     H13852   5.533  10.597   4.206  0.9293  4.5222  0.3725
  103MOL0     H13853   5.706  10.624   4.238 -0.2580  0.6381 -0.1456
  103MOL0     H13854   5.565  10.381   4.100  3.9045 -5.5384 -0.9218
  103MOL0     H13855   5.726  10.413   4.079 -2.2628 -0.0591 -2.6905
  103MOL0     H13856   5.488  10.348   4.386  0.7206  3.7100 -1.8927
  103MOL0     H13857   5.538  10.299   4.675 -2.5771 -1.9322 -0.4706
  103MOL0     H13858   5.545  10.156   4.572  0.4432 -0.9676  0.0428
  103MOL0     H13859   5.797  10.144   4.685  0.8721  1.7260  0.7379
  103MOL0     H13860   5.726  10.262   4.792 -2.2703  2.4983 -1.9441
  103MOL0     H13861   5.669   9.962   4.770 -0.8729 -0.8604  0.9327
  103MOL0     H13862   5.527  10.057   4.788  0.0000  2.5697  0.2995
  103MOL0     H13863   5.770  10.121   4.963  0.1858  1.9663  1.0134
  103MOL0     H13864   5.659   9.980   5.004 -1.4764 -0.1512 -1.3071
  103MOL0     H13865   5.412  10.319   5.127 -2.1284 -0.7425  2.1712
  103MOL0     H13866   5.398  10.358   5.355 -1.1644  0.0890  1.0066
  103MOL0     H13867   5.646  10.270   5.858 -0.7438  0.7754  0.7378
  103MOL0     H13868   5.540  10.298   6.079 -0.3861 -0.3293  0.8294
  103MOL0     H13869   5.197  10.040   6.287 -0.8884 -1.8991  0.4600
  103MOL0     H13870   5.318   9.940   6.203  2.9389  0.7201 -0.6051
  103MOL0     H13871   5.491   9.987   6.330 -1.6402 -1.9846 -0.0419
  103MOL0     H13872   5.406  10.121   6.421 -2.2532 -0.1926  1.0846
  103MOL0     H13873   5.340   9.828   6.419  0.3306 -2.4536  1.0017
  103MOL0     H13874   5.435   9.907   6.542 -0.7678 -4.3979 -0.6199
  103MOL0     H13875   5.132   9.939   6.478 -1.2230  2.6207 -1.5009
  103MOL0     H13876   5.225  10.081   6.545 -0.5984 -0.3963 -0.0757
  103MOL0     H13877   5.311   9.927   6.734 -0.8970  1.1407  2.3779
  103MOL0     H13878   5.226   9.799   6.664  2.6646 -0.4878 -1.2175
  103MOL0     H13879   5.076  10.055   6.772 -1.8544 -0.3362 -1.2740
  103MOL0     H13880   5.001   9.898   6.718  0.4064  0.6017 -2.6758
  103MOL0     H13881   5.002   9.932   6.963 -1.6511 -0.3227 -1.0430
  103MOL0     H13882   5.182   9.947   6.946 -0.9923 -1.9223  1.1889
  103MOL0     H13883   5.234   9.736   6.924 -0.0008 -0.5801 -1.7824
  103MOL0     H13884   5.128   9.758   7.069 -0.4967 -1.6425  0.2610
  103MOL0     H13885   5.247  10.004   5.963 -0.0633 -0.1988  2.1471
  103MOL0     H13886   5.363   9.986   5.737  1.4851  2.7865 -2.5119
  103MOL0     H13887   5.684  10.040   5.456  0.2458  0.9261  0.6661
  103MOL0     H13888   5.746  10.054   5.207 -1.5331 -0.4202  0.2106
  103MOL0     H13889   5.699  11.282   3.755  0.0394  3.8087  0.2310
  103MOL0     H13890   5.499  11.392   3.773 -1.2945 -0.6927  0.4154
  103MOL0     H13891   5.242  11.647   3.898 -2.4876 -1.5400 -0.8647
  103MOL0     H13892   5.090  11.827   3.879  0.4860 -0.7843  0.4925
  103MOL0     H13893   4.898  11.969   3.912 -0.1380 -1.1166  0.8232
  103MOL0     H13894   5.063  12.041   3.937  0.4822  2.3151  2.2205
  103MOL0     H13895   4.911  12.234   3.957 -0.6190 -3.0650 -2.6357
  103MOL0     H13896   4.939  12.182   4.126  1.6652 -2.6567  0.1238
  103MOL0     H13897   4.731  12.034   4.072  1.4520 -0.3788  0.4893
  103MOL0     H13898   4.698  12.122   3.932 -1.9347 -3.1149  1.4913
  103MOL0     H13899   4.569  12.219   4.121 -0.0830 -0.6428 -1.9010
  103MOL0     H13900   4.712  12.253   4.214 -1.6938  0.4781  0.3312
  103MOL0     H13901   4.731  12.592   3.967 -1.1426  0.4313 -1.8364
  103MOL0     H13902   5.046  11.827   4.308 -1.1808  2.0066 -1.9086
  103MOL0     H13903   5.287  11.600   4.387  1.3886  1.0619 -3.6279
  103MOL0     H13904   5.122  11.635   4.438  0.4284  1.8100  0.2196
  103MOL0     H13905   5.145  11.498   4.334  2.1252 -1.6574 -1.4623
  104MOL0     O13906   6.899   3.718   3.427 -0.3912  0.0212 -0.0645
  104MOL0     C13907   6.883   3.638   3.521  1.3677  0.2386  0.0172
  104MOL0     O13908   6.842   3.504   3.508 -0.4755  0.0413  0.0546
  104MOL0     C13909   6.820   3.461   3.381  0.7915  0.5789  0.5530
  104MOL0     C13910   6.863   3.329   3.368 -0.5169  0.8540  0.1400
  104MOL0     C13911   6.822   3.262   3.249  0.2846 -0.7379  0.6200
  104MOL0     C13912   6.764   3.325   3.140  0.4129 -0.4178 -0.4813
  104MOL0     O13913   6.733   3.260   3.029  1.0234 -0.0128 -0.8735
  104MOL0     C13914   6.669   3.319   2.907  0.1621 -0.1952 -0.1514
  104MOL0     C13915   6.764   3.364   2.798 -0.3379 -0.9645 -0.9226
  104MOL0     C13916   6.874   3.256   2.755  1.1079 -0.3170  0.4437
  104MOL0     C13917   6.999   3.333   2.712  0.2609  0.0703 -0.4833
  104MOL0     C13918   7.116   3.233   2.718  0.0303 -0.3809  0.3775
  104MOL0     C13919   7.157   3.216   2.865  0.1461 -0.1305 -0.2771
  104MOL0     C13920   7.284   3.136   2.867 -0.6309 -0.2235  0.3905
  104MOL0     C13921   7.340   3.117   3.011 -0.0966  0.2481  0.0989
  104MOL0     N13922   7.247   3.052   3.109 -0.1527 -0.5239 -0.6270
  104MOL0     C13923   7.199   3.128   3.213 -0.1573  1.0153  1.0965
  104MOL0     C13924   7.174   3.032   3.313  0.5296 -0.3265  0.1984
  104MOL0     C13925   7.117   3.054   3.454  0.8946  0.8381  0.0810
  104MOL0     C13926   7.167   3.175   3.522 -0.8039 -0.7578 -0.2881
  104MOL0     C13927   7.099   3.212   3.653 -0.1355 -1.5078  0.8286
  104MOL0     C13928   7.136   3.350   3.696  0.3966 -0.3961  0.3451
  104MOL0     O13929   7.256   3.352   3.773  0.0970 -0.3021 -0.5927
  104MOL0     C13930   7.277   3.448   3.868  0.1686 -0.2038  0.2694
  104MOL0     C13931   7.363   3.416   3.976  0.0436  0.1214  0.3921
  104MOL0     C13932   7.379   3.502   4.084 -0.6758 -0.8702 -1.1122
  104MOL0     C13933   7.315   3.623   4.086  0.7341  0.2467 -0.4487
  104MOL0     C13934   7.334   3.715   4.192 -0.0198  0.1400  0.8003
  104MOL0     O13935   7.246   3.826   4.198 -0.8228 -0.8969  0.0123
  104MOL0     C13936   7.254   3.908   4.309 -0.1454 -0.1686 -0.1593
  104MOL0     C13937   7.371   3.979   4.350 -0.1793 -0.0717 -0.0402
  104MOL0     C13938   7.362   4.065   4.459  0.4856 -0.1823 -0.0163
  104MOL0     C13939   7.245   4.101   4.508  0.0192  0.8062 -1.3896
  104MOL0     O13940   7.250   4.189   4.615 -0.1339  0.1683 -0.7821
  104MOL0     C13941   7.128   4.241   4.668 -0.4938 -0.0717  0.5376
  104MOL0     C13942   7.179   4.316   4.790 -0.5820  0.8070  0.2636
  104MOL0     C13943   7.063   4.403   4.848  0.1256  0.8751 -0.0681
  104MOL0     C13944   7.090   4.461   4.992  0.2331  0.4895 -0.0887
  104MOL0     C13945   6.978   4.553   5.035  0.3795 -0.1615 -0.1750
  104MOL0     C13946   6.995   4.589   5.185 -0.1145  0.9056  0.4819
  104MOL0     C13947   6.874   4.677   5.235 -0.0465  0.2818  0.1522
  104MOL0     C13948   6.893   4.729   5.371  0.5020  0.2309  0.6926
  104MOL0    Cl13949   6.757   4.820   5.418  0.3952 -0.1302  0.0928
  104MOL0     C13950   7.135   4.021   4.481  0.9036  0.1226  0.2250
  104MOL0     C13951   7.138   3.923   4.383 -0.7069  0.5492 -0.5015
  104MOL0     O13952   7.420   3.688   4.278 -0.0545  1.1141  0.6584
  104MOL0     C13953   7.235   3.656   3.990  0.7080 -0.5434 -0.2600
  104MOL0     C13954   7.204   3.569   3.880 -0.2444  0.6800  0.2183
  104MOL0     N13955   7.214   2.908   3.266 -0.0331 -0.4280 -0.8573
  104MOL0     N13956   7.271   2.921   3.154  0.2287  0.4186  0.5732
  104MOL0     C13957   6.726   3.458   3.161 -0.3581  0.0192 -0.6943
  104MOL0     C13958   6.755   3.526   3.276 -0.6427 -1.1166 -0.4698
  104MOL0     C13959   6.902   3.685   3.669 -0.1119  0.5178  0.1692
  104MOL0     C13960   6.980   3.806   3.696 -0.3888 -0.3465 -0.6042
  104MOL0     C13961   6.987   3.862   3.824 -0.6636 -0.2793 -0.9246
  104MOL0     C13962   6.927   3.802   3.940  0.0353  0.2777  0.2820
  104MOL0     O13963   6.897   3.869   4.053  0.6710 -0.4450  0.2376
  104MOL0     C13964   6.798   3.974   4.036 -0.1182 -0.3807 -1.2017
  104MOL0     C13965   6.717   3.980   4.164  0.2830 -0.6114  0.5559
  104MOL0     C13966   6.632   4.109   4.179  1.2554 -0.2104  0.7929
  104MOL0     C13967   6.504   4.113   4.102  0.6199 -0.1525  0.0654
  104MOL0     C13968   6.510   4.143   3.954  0.4394 -0.5742  0.1064
  104MOL0     C13969   6.499   4.146   3.834 -0.7308  0.4885 -0.5560
  104MOL0     C13970   6.848   3.693   3.907 -0.7613  1.0351  0.4394
  104MOL0     C13971   6.834   3.631   3.774 -0.2383 -1.0172  0.1474
  104MOL0     C13972   6.737   3.519   3.765  0.2364  0.9723  0.8486
  104MOL0     H13973   6.912   3.273   3.446  0.8003 -1.6124 -2.2668
  104MOL0     H13974   6.822   3.154   3.236 -0.5795 -0.5408 -1.5224
  104MOL0     H13975   6.612   3.238   2.861 -0.7291  0.7360 -0.7169
  104MOL0     H13976   6.595   3.388   2.946  0.8310 -0.5971  1.9472
  104MOL0     H13977   6.813   3.454   2.835  3.9185 -3.6679  0.9140
  104MOL0     H13978   6.696   3.385   2.715 -1.7016 -1.3082  0.0639
  104MOL0     H13979   6.830   3.202   2.671 -1.2868  3.0359 -0.6831
  104MOL0     H13980   6.891   3.184   2.835 -0.2135  0.4023  1.4262
  104MOL0     H13981   6.976   3.360   2.609 -0.2362 -1.1164 -0.6915
  104MOL0     H13982   7.023   3.424   2.769  1.8178 -0.8320  0.3786
  104MOL0     H13983   7.080   3.139   2.675 -3.4445  0.4482  1.1202
  104MOL0     H13984   7.200   3.277   2.663 -1.5435  2.2948 -0.0700
  104MOL0     H13985   7.172   3.311   2.917 -5.3916 -0.7143  3.2965
  104MOL0     H13986   7.084   3.154   2.918 -0.1458 -0.5157 -1.1122
  104MOL0     H13987   7.357   3.185   2.803 -2.6689  1.6786 -0.6297
  104MOL0     H13988   7.256   3.034   2.838  1.2321 -0.5443 -0.3992
  104MOL0     H13989   7.433   3.060   2.998  0.1308  0.7768 -0.7234
  104MOL0     H13990   7.362   3.221   3.038  4.5905 -0.1376 -1.3328
  104MOL0     H13991   7.192   3.235   3.199  1.0533  0.9030 -0.7004
  104MOL0     H13992   7.008   3.040   3.446  1.2348 -2.1241 -0.5936
  104MOL0     H13993   7.149   2.967   3.511 -2.7440 -0.1836  0.8537
  104MOL0     H13994   7.273   3.158   3.547 -1.1791 -0.3387  1.8124
  104MOL0     H13995   7.155   3.249   3.442 -2.0988 -2.2487 -1.5228
  104MOL0     H13996   7.127   3.134   3.725  0.1519 -2.4108 -0.2406
  104MOL0     H13997   6.991   3.196   3.642 -0.1425  0.2772 -3.9816
  104MOL0     H13998   7.045   3.388   3.743 -0.6432  0.9162 -2.5331
  104MOL0     H13999   7.164   3.412   3.610 -0.8032 -2.3963 -1.5785
  104MOL0     H14000   7.406   3.316   3.972 -0.3692 -0.1058  1.3902
  104MOL0     H14001   7.445   3.479   4.168  2.2997  0.0876 -3.0222
  104MOL0     H14002   7.466   3.960   4.303  1.9759 -0.4616  4.0193
  104MOL0     H14003   7.458   4.099   4.497  1.1803 -1.5548 -0.4898
  104MOL0     H14004   7.084   4.313   4.599  2.6992  2.3887  0.8488
  104MOL0     H14005   7.059   4.157   4.684  2.1664 -3.3780 -3.2094
  104MOL0     H14006   7.212   4.237   4.859  0.8851 -1.8179 -3.1247
  104MOL0     H14007   7.267   4.378   4.774 -0.9380  0.9757 -1.1803
  104MOL0     H14008   7.048   4.484   4.776 -1.6723  1.5890  1.0528
  104MOL0     H14009   6.978   4.334   4.850  0.9535 -0.1621  0.9184
  104MOL0     H14010   7.181   4.521   4.986 -0.5601  1.9599  1.6302
  104MOL0     H14011   7.112   4.391   5.074  2.8363  1.3422  0.0041
  104MOL0     H14012   6.885   4.496   5.026  1.8295 -2.3337 -4.1509
  104MOL0     H14013   6.975   4.639   4.968  0.7463 -2.4789 -3.4620
  104MOL0     H14014   7.007   4.498   5.245  0.5836  0.2572 -0.6120
  104MOL0     H14015   7.091   4.642   5.184  1.1589 -1.2854 -0.2431
  104MOL0     H14016   6.786   4.612   5.240 -0.3876  0.7826  0.8571
  104MOL0     H14017   6.859   4.755   5.160 -0.0673 -0.1919 -0.3471
  104MOL0     H14018   6.914   4.636   5.425 -1.0627 -0.9564 -0.6426
  104MOL0     H14019   6.984   4.788   5.384  0.0597  1.4779 -1.4497
  104MOL0     H14020   7.043   4.023   4.538  1.4190  1.2496  1.0486
  104MOL0     H14021   7.045   3.870   4.364  0.9362 -1.3294 -4.6399
  104MOL0     H14022   7.198   3.758   3.986 -0.7406 -0.9897  0.8123
  104MOL0     H14023   7.127   3.585   3.805 -1.0498 -0.1966  0.8329
  104MOL0     H14024   6.664   3.514   3.091 -0.3572  0.0456 -0.6738
  104MOL0     H14025   6.714   3.626   3.284 -0.0718 -0.8478 -0.8331
  104MOL0     H14026   7.041   3.853   3.619  1.4531  0.0910  1.0561
  104MOL0     H14027   7.050   3.949   3.842  4.1455 -3.6550  0.9145
  104MOL0     H14028   6.727   3.957   3.954 -0.3844 -0.3637 -0.9765
  104MOL0     H14029   6.839   4.075   4.025 -2.5124  0.4855 -3.0903
  104MOL0     H14030   6.786   3.989   4.248  0.6967 -0.0220  0.1604
  104MOL0     H14031   6.646   3.898   4.176 -0.3185 -0.2949 -0.6946
  104MOL0     H14032   6.692   4.197   4.155  1.9648  0.0385  3.1555
  104MOL0     H14033   6.608   4.129   4.284  2.4567  1.8513  0.7309
  104MOL0     H14034   6.465   4.011   4.100  1.0943 -0.3657  1.0293
  104MOL0     H14035   6.433   4.179   4.153 -0.6538 -0.4437 -1.2767
  104MOL0     H14036   6.480   4.139   3.729  0.6427 -0.2489 -0.7680
  104MOL0     H14037   6.795   3.650   3.992  1.7048  0.7802  1.9733
  104MOL0     H14038   6.683   3.495   3.857 -1.5826  1.1491 -0.1476
  104MOL0     H14039   6.662   3.547   3.691  0.7950  0.4981  0.0777
  104MOL0     H14040   6.790   3.428   3.734 -1.9931  0.4923 -1.9082
  105MOL0     O14041  10.252   4.320   5.385 -0.4587 -0.4625  0.8794
  105MOL0     C14042  10.189   4.226   5.416  0.7829  0.8379 -0.0588
  105MOL0     O14043  10.116   4.219   5.533  0.1680  0.4010 -0.4539
  105MOL0     C14044  10.113   4.316   5.624 -0.2601 -0.8690 -0.2461
  105MOL0     C14045  10.101   4.453   5.589 -0.6026 -0.2496  0.2919
  105MOL0     C14046  10.105   4.552   5.697 -0.2313 -0.2772 -0.5800
  105MOL0     C14047  10.117   4.518   5.837 -0.1297  0.3821  0.3118
  105MOL0     O14048  10.122   4.618   5.927 -0.8200 -0.2321  0.4578
  105MOL0     C14049  10.222   4.606   6.022 -0.4083 -0.5524  0.3413
  105MOL0     C14050  10.248   4.739   6.085  0.1354 -0.6530 -0.1619
  105MOL0     C14051  10.333   4.724   6.209  0.3834  0.2895  0.0466
  105MOL0     C14052  10.482   4.746   6.167 -0.1709 -1.0218  0.2861
  105MOL0     C14053  10.588   4.687   6.262  0.0813  0.1764  0.4279
  105MOL0     C14054  10.730   4.700   6.203 -0.0212 -0.3693  0.0040
  105MOL0     C14055  10.782   4.849   6.219 -0.4463  0.4939 -0.1310
  105MOL0     C14056  10.931   4.861   6.179 -0.4884 -0.0224 -0.2058
  105MOL0     N14057  10.976   4.999   6.135  0.3369 -0.1816 -0.7866
  105MOL0     C14058  11.077   5.026   6.050 -0.0043  0.1908 -0.2826
  105MOL0     C14059  11.121   5.150   6.067  1.3702  0.3398  0.4811
  105MOL0     C14060  11.234   5.231   5.998  0.3778  0.3234  0.2811
  105MOL0     C14061  11.191   5.353   5.926 -0.0121 -0.1735  0.6088
  105MOL0     C14062  11.102   5.325   5.809  0.7201 -0.4014  0.7769
  105MOL0     C14063  11.016   5.445   5.748 -1.3779  0.3197  0.6881
  105MOL0     O14064  10.955   5.519   5.853 -0.5158 -0.1786 -0.0831
  105MOL0     C14065  10.834   5.465   5.878 -0.5139 -0.4235  0.0900
  105MOL0     C14066  10.724   5.492   5.793 -0.2070 -0.3346 -0.9390
  105MOL0     C14067  10.603   5.447   5.826  0.7391  0.3849  0.4269
  105MOL0     C14068  10.584   5.363   5.938  0.1488 -0.8035 -0.1923
  105MOL0     C14069  10.452   5.307   5.956  0.4786 -0.3296 -0.8439
  105MOL0     O14070  10.444   5.173   6.002  1.0360  0.7623  0.7914
  105MOL0     C14071  10.318   5.130   6.041 -0.8506 -0.6968  0.2329
  105MOL0     C14072  10.232   5.088   5.942 -0.0613 -1.1011 -0.2596
  105MOL0     C14073  10.103   5.064   5.977  1.6470  0.0667 -1.1917
  105MOL0     C14074  10.064   5.049   6.107 -0.8848  0.0055  0.2911
  105MOL0     O14075   9.936   5.006   6.129 -0.3257  0.2249  0.0954
  105MOL0     C14076   9.872   5.075   6.236  0.2882  0.1520 -0.0683
  105MOL0     C14077   9.738   5.006   6.293 -0.0095 -0.8019  0.4348
  105MOL0     C14078   9.727   5.002   6.453 -1.2703  0.3831  0.2314
  105MOL0     C14079   9.671   5.130   6.510 -0.7743 -0.0990 -0.9458
  105MOL0     C14080   9.682   5.113   6.664  0.7991  1.0902 -0.3888
  105MOL0     C14081   9.604   5.240   6.720  0.3987  0.0504  0.2917
  105MOL0     C14082   9.624   5.238   6.869 -0.0243  0.4230 -0.2526
  105MOL0     C14083   9.571   5.113   6.957  0.1704  0.3153  0.1887
  105MOL0    Cl14084   9.704   5.045   7.054 -0.2736  0.1088  0.0046
  105MOL0     C14085  10.159   5.075   6.205  0.2923  0.6792  0.3598
  105MOL0     C14086  10.293   5.123   6.179 -0.4472  0.2420  0.6088
  105MOL0     O14087  10.357   5.389   5.951  0.4955 -0.0478 -0.0685
  105MOL0     C14088  10.688   5.343   6.027 -0.3420  0.0848 -0.2532
  105MOL0     C14089  10.811   5.392   5.992 -0.3416  0.1801 -0.7526
  105MOL0     N14090  11.040   5.202   6.173 -0.6373  0.5354  0.1423
  105MOL0     N14091  10.963   5.108   6.218  0.3652 -0.7375 -0.0585
  105MOL0     C14092  10.134   4.380   5.863 -0.5606 -0.2073  0.6163
  105MOL0     C14093  10.131   4.285   5.756  0.0350  0.6365  0.1279
  105MOL0     C14094  10.211   4.086   5.351  0.7291  0.0087 -0.4637
  105MOL0     C14095  10.170   3.969   5.418  0.1772 -0.4969 -0.1417
  105MOL0     C14096  10.214   3.839   5.388 -1.0019 -1.2226 -1.0035
  105MOL0     C14097  10.306   3.822   5.290 -0.1432  0.8903  0.1318
  105MOL0     O14098  10.364   3.700   5.289  0.3670  0.6249  0.6805
  105MOL0     C14099  10.489   3.673   5.216  0.8364  0.5963 -0.4866
  105MOL0     C14100  10.615   3.738   5.276  0.2251 -0.1112 -0.9551
  105MOL0     C14101  10.643   3.672   5.415  1.2619  0.4857  0.2241
  105MOL0     C14102  10.775   3.711   5.480  0.2712 -0.5486 -0.3086
  105MOL0     C14103  10.884   3.688   5.386  1.0456 -0.7489 -0.0232
  105MOL0     C14104  10.978   3.685   5.309  0.2014  0.0880  0.0652
  105MOL0     C14105  10.345   3.925   5.216 -0.2852 -0.0823  0.0048
  105MOL0     C14106  10.290   4.059   5.240 -0.5267 -0.4233  0.0149
  105MOL0     C14107  10.314   4.163   5.136  0.6584  0.0729  0.0658
  105MOL0     H14108  10.103   4.492   5.487 -2.2406  1.6600  0.9229
  105MOL0     H14109  10.087   4.653   5.660  4.2599  0.5847 -0.9054
  105MOL0     H14110  10.190   4.549   6.109 -2.2255  3.6541  2.7191
  105MOL0     H14111  10.312   4.583   5.963 -0.6194  4.4823 -2.5206
  105MOL0     H14112  10.158   4.792   6.119  0.8275  0.9831 -0.7864
  105MOL0     H14113  10.286   4.813   6.014 -0.7348 -1.5330 -1.5888
  105MOL0     H14114  10.312   4.625   6.249 -2.9323 -0.0451 -2.1105
  105MOL0     H14115  10.301   4.789   6.290 -1.1363 -0.5675  0.1642
  105MOL0     H14116  10.498   4.690   6.075 -0.6109 -0.2388 -0.2805
  105MOL0     H14117  10.498   4.854   6.155  1.1291 -1.3385 -1.1369
  105MOL0     H14118  10.580   4.723   6.365  1.5724  0.0614  0.6156
  105MOL0     H14119  10.569   4.580   6.255 -0.7570  0.4238 -3.0910
  105MOL0     H14120  10.790   4.623   6.251 -3.0152 -5.1166 -3.0383
  105MOL0     H14121  10.725   4.672   6.097 -0.5456  2.0073 -0.6745
  105MOL0     H14122  10.785   4.874   6.325  3.6588  2.1275 -0.4638
  105MOL0     H14123  10.722   4.912   6.153  2.4018  2.0960 -1.3629
  105MOL0     H14124  10.986   4.829   6.268  2.0783  1.2971 -1.2358
  105MOL0     H14125  10.948   4.785   6.102  2.9648  0.5549 -0.1519
  105MOL0     H14126  11.126   4.952   5.987  0.2718  0.0322  0.1152
  105MOL0     H14127  11.301   5.264   6.078 -1.0763 -0.3210  1.8265
  105MOL0     H14128  11.285   5.166   5.926  0.4955  2.1033 -1.3187
  105MOL0     H14129  11.146   5.419   6.001  0.2244 -1.1830  1.6728
  105MOL0     H14130  11.287   5.388   5.887  0.5103 -2.5889 -0.4355
  105MOL0     H14131  11.031   5.245   5.833  0.3845 -0.3006  0.1328
  105MOL0     H14132  11.168   5.288   5.730  0.8577 -0.1255  0.7633
  105MOL0     H14133  10.952   5.404   5.670  1.0312  1.3688 -2.0555
  105MOL0     H14134  11.077   5.519   5.694 -0.5443 -0.1440  0.9676
  105MOL0     H14135  10.760   5.547   5.707  3.0761  0.5125  0.8074
  105MOL0     H14136  10.520   5.466   5.759  1.7105  1.1884 -0.5868
  105MOL0     H14137  10.270   5.083   5.840 -0.0016 -1.4084 -0.2235
  105MOL0     H14138  10.039   5.043   5.892 -1.6990  0.9690  0.8741
  105MOL0     H14139   9.939   5.075   6.323  2.6234  0.5060 -1.7692
  105MOL0     H14140   9.851   5.181   6.216 -1.7699 -0.3922 -1.0654
  105MOL0     H14141   9.653   5.048   6.238 -1.1935 -3.7489 -0.1940
  105MOL0     H14142   9.729   4.901   6.261 -1.4632 -1.4993  2.8847
  105MOL0     H14143   9.667   4.915   6.479  1.3234 -1.4156  0.5560
  105MOL0     H14144   9.822   4.972   6.498 -1.4589 -1.7369 -0.6714
  105MOL0     H14145   9.574   5.144   6.462 -1.2845  1.5738  0.4708
  105MOL0     H14146   9.732   5.213   6.475 -1.0817  0.2214 -0.7274
  105MOL0     H14147   9.790   5.114   6.679  1.2151 -1.7301 -2.3834
  105MOL0     H14148   9.649   5.021   6.713  0.1052  1.6727  0.2591
  105MOL0     H14149   9.654   5.326   6.675 -0.4325  0.0585 -0.6475
  105MOL0     H14150   9.497   5.233   6.698  0.7912 -0.0621 -1.8394
  105MOL0     H14151   9.576   5.326   6.912  2.7128  1.4127  1.0334
  105MOL0     H14152   9.729   5.259   6.890 -0.2648  0.4513  0.9862
  105MOL0     H14153   9.486   5.147   7.016 -0.2679  1.5526 -1.0981
  105MOL0     H14154   9.522   5.032   6.903  1.0826 -0.0498 -0.1133
  105MOL0     H14155  10.134   5.061   6.310  0.7122  0.1285  0.3916
  105MOL0     H14156  10.382   5.123   6.242  1.1471 -0.2307 -1.5339
  105MOL0     H14157  10.657   5.279   6.108 -1.9806 -1.2014 -1.8080
  105MOL0     H14158  10.902   5.377   6.048  0.2268 -2.0641 -2.1453
  105MOL0     H14159  10.172   4.348   5.960  1.8918 -1.1834 -0.5775
  105MOL0     H14160  10.142   4.183   5.792 -2.2416 -1.6713 -4.7030
  105MOL0     H14161  10.100   3.983   5.499  1.0468  2.5252  0.2343
  105MOL0     H14162  10.189   3.750   5.446  0.9733 -1.6080 -0.6608
  105MOL0     H14163  10.470   3.688   5.109  0.0714  0.5628 -0.3637
  105MOL0     H14164  10.509   3.565   5.212  2.7523  0.7840  1.8426
  105MOL0     H14165  10.604   3.847   5.284 -0.9959 -0.3226  1.0715
  105MOL0     H14166  10.694   3.721   5.202 -1.0763 -0.0782 -2.4057
  105MOL0     H14167  10.635   3.563   5.423 -1.6382  0.7354  1.8355
  105MOL0     H14168  10.560   3.699   5.480  1.6935 -0.5354  1.2396
  105MOL0     H14169  10.778   3.816   5.510  1.8913 -0.0897 -1.9046
  105MOL0     H14170  10.787   3.640   5.563  2.0973 -1.3049 -1.1798
  105MOL0     H14171  11.061   3.700   5.243  0.8336  0.1053  0.8460
  105MOL0     H14172  10.401   3.902   5.125 -1.6009 -0.2586 -0.7885
  105MOL0     H14173  10.272   4.122   5.044  1.4083 -1.6413  0.4329
  105MOL0     H14174  10.260   4.255   5.159  0.5487 -0.6129  2.9141
  105MOL0     H14175  10.422   4.183   5.144  0.5731  0.0718  1.6541
  106MOL0     O14176   5.657   0.378  10.922 -0.6812 -0.0537 -0.3994
  106MOL0     C14177   5.609   0.326  11.020  0.1207  0.3126  0.4895
  106MOL0     O14178   5.663   0.327  11.144 -0.0340  0.7298 -0.1103
  106MOL0     C14179   5.776   0.401  11.161  0.8622 -0.6536 -0.6021
  106MOL0     C14180   5.900   0.365  11.113  0.0023 -0.2538 -0.0529
  106MOL0     C14181   6.010   0.440  11.151 -0.0438  0.0911  0.5494
  106MOL0     C14182   6.001   0.559  11.228 -0.3960 -0.4700 -0.5333
  106MOL0     O14183   6.109   0.641  11.227  0.1768  0.0718  0.3283
  106MOL0     C14184   6.159   0.680  11.350 -0.6124  0.2785 -0.3603
  106MOL0     C14185   6.270   0.792  11.337 -0.8572 -0.2645  0.1255
  106MOL0     C14186   6.236   0.897  11.444 -0.4485  0.0703  0.7893
  106MOL0     C14187   6.125   0.993  11.401 -0.1164 -0.0400  0.8959
  106MOL0     C14188   6.188   1.105  11.318  0.2020 -1.7593  0.7398
  106MOL0     C14189   6.103   1.133  11.196  0.8156 -0.5826 -0.0882
  106MOL0     C14190   6.006   1.251  11.214  0.5257 -0.4743  0.4960
  106MOL0     C14191   5.901   1.226  11.326  0.9651  0.2244 -0.4740
  106MOL0     N14192   5.787   1.321  11.315 -0.4921  0.4271  0.1719
  106MOL0     C14193   5.697   1.335  11.211  0.0713  0.6798  0.4688
  106MOL0     C14194   5.594   1.396  11.257 -1.2023 -0.1776  0.6752
  106MOL0     C14195   5.477   1.436  11.172  0.4629  0.7138 -0.0881
  106MOL0     C14196   5.341   1.360  11.203  0.5747 -0.1769  0.0170
  106MOL0     C14197   5.234   1.399  11.096  0.0820  0.7294  1.2070
  106MOL0     C14198   5.094   1.341  11.147 -0.5332 -0.1481 -0.7468
  106MOL0     O14199   5.087   1.196  11.168 -0.4578 -0.4463 -0.4038
  106MOL0     C14200   5.117   1.119  11.060  0.3453 -0.5873  0.1514
  106MOL0     C14201   5.052   1.124  10.937  1.4452 -1.0539 -0.3214
  106MOL0     C14202   5.091   1.034  10.834 -0.0915  0.6163 -0.3992
  106MOL0     C14203   5.186   0.929  10.857  0.2083  0.3209  0.7075
  106MOL0     C14204   5.240   0.843  10.748 -0.5928 -1.6022  0.2567
  106MOL0     O14205   5.306   0.729  10.784  0.4824 -0.4612 -0.4281
  106MOL0     C14206   5.310   0.627  10.692 -0.9991  1.3123  0.7330
  106MOL0     C14207   5.439   0.573  10.662  0.2175 -0.0606  0.9581
  106MOL0     C14208   5.450   0.465  10.577  1.4459  0.3115  0.0104
  106MOL0     C14209   5.336   0.390  10.541  0.6304  1.1033 -1.3451
  106MOL0     O14210   5.351   0.266  10.486  0.1276 -0.2460  0.2252
  106MOL0     C14211   5.289   0.262  10.363 -0.1034  1.2466  0.0387
  106MOL0     C14212   5.279   0.114  10.311  0.4703  0.1996 -0.0680
  106MOL0     C14213   5.415   0.046  10.294  0.3252  0.1439 -0.1126
  106MOL0     C14214   5.435   0.012  10.145  0.9731  1.1219 -0.1580
  106MOL0     C14215   5.576  -0.028  10.119  0.5703  0.5441  0.4647
  106MOL0     C14216   5.617  -0.029   9.966  0.4065  0.0600  1.0309
  106MOL0     C14217   5.624   0.112   9.896  0.3631 -1.1401  0.0920
  106MOL0     C14218   5.628   0.110   9.742  0.1765 -0.3326  0.1975
  106MOL0    Cl14219   5.457   0.075   9.697  0.1951 -0.1269  0.1082
  106MOL0     C14220   5.215   0.438  10.580  0.6428 -0.1780  0.5273
  106MOL0     C14221   5.197   0.566  10.647  0.1037  0.9170  0.1345
  106MOL0     O14222   5.189   0.863  10.640  0.4037 -0.1952  0.5366
  106MOL0     C14223   5.251   0.925  10.985  0.9321 -0.5476  1.2315
  106MOL0     C14224   5.213   1.017  11.083  0.0988  0.2745 -0.3998
  106MOL0     N14225   5.604   1.412  11.397 -0.0214 -0.1500 -0.1484
  106MOL0     N14226   5.730   1.380  11.425  0.3749  1.1100  1.0777
  106MOL0     C14227   5.878   0.607  11.266 -0.1257  0.4655 -0.1865
  106MOL0     C14228   5.767   0.515  11.249  0.1698  0.9515 -0.2670
  106MOL0     C14229   5.483   0.257  10.993 -0.1541  0.2703 -0.4340
  106MOL0     C14230   5.429   0.267  10.867  0.2297  0.5817  0.4010
  106MOL0     C14231   5.311   0.200  10.836 -0.5147 -0.9295  0.1254
  106MOL0     C14232   5.246   0.124  10.935  0.1997 -0.5134  0.1428
  106MOL0     O14233   5.139   0.043  10.906  0.4570  0.4420 -0.9992
  106MOL0     C14234   5.154  -0.033  10.786 -1.7670 -0.2945 -0.6574
  106MOL0     C14235   5.263  -0.137  10.796 -0.5459 -0.3940  0.3172
  106MOL0     C14236   5.272  -0.233  10.683 -1.2224  0.3036 -0.3637
  106MOL0     C14237   5.148  -0.330  10.667  0.9913  0.7837  0.5981
  106MOL0     C14238   5.186  -0.457  10.598 -0.6518  0.1872 -0.3745
  106MOL0     C14239   5.227  -0.555  10.544 -0.5813  0.6657  0.1119
  106MOL0     C14240   5.296   0.115  11.060  0.3945 -1.2479  0.2564
  106MOL0     C14241   5.418   0.172  11.093 -0.5593  0.5241  0.1356
  106MOL0     C14242   5.462   0.155  11.239  0.7893 -0.5442  1.1439
  106MOL0     H14243   5.908   0.277  11.050 -0.7176 -1.8075  1.9220
  106MOL0     H14244   6.107   0.408  11.116  0.8179  1.3703  1.6696
  106MOL0     H14245   6.083   0.707  11.423 -1.8248 -1.1599 -1.0432
  106MOL0     H14246   6.216   0.601  11.400  0.3303  0.8236 -0.5337
  106MOL0     H14247   6.278   0.840  11.239 -2.7725 -0.8850 -0.3883
  106MOL0     H14248   6.368   0.751  11.361 -1.1004  0.0401  1.7169
  106MOL0     H14249   6.323   0.947  11.488 -1.2029 -1.6947  4.6570
  106MOL0     H14250   6.200   0.845  11.533  2.5191 -1.3768  1.3069
  106MOL0     H14251   6.036   0.946  11.359  1.6388 -2.8263  0.0679
  106MOL0     H14252   6.087   1.033  11.496 -1.2264 -0.2133  0.5326
  106MOL0     H14253   6.203   1.196  11.376  1.1520  1.1608 -3.6327
  106MOL0     H14254   6.292   1.088  11.286  0.6916  0.2442  1.1636
  106MOL0     H14255   6.165   1.160  11.110 -2.1178  2.3249 -1.5149
  106MOL0     H14256   6.048   1.050  11.151  2.0538 -0.2811 -2.3098
  106MOL0     H14257   5.951   1.270  11.121 -0.4246  0.1936  1.1769
  106MOL0     H14258   6.071   1.335  11.242  1.9918 -1.7102  0.9178
  106MOL0     H14259   5.862   1.124  11.318  1.7666  0.0065 -1.9884
  106MOL0     H14260   5.941   1.247  11.426 -2.6789  2.2791  0.7327
  106MOL0     H14261   5.708   1.295  11.111  0.5617  3.6720 -0.7752
  106MOL0     H14262   5.473   1.544  11.194 -1.3003  0.7950 -0.6425
  106MOL0     H14263   5.507   1.437  11.067  0.7670  0.2523 -0.0076
  106MOL0     H14264   5.354   1.256  11.232 -1.9117 -0.7771 -0.7823
  106MOL0     H14265   5.304   1.404  11.296  0.1761  0.9963 -0.6713
  106MOL0     H14266   5.257   1.360  10.996 -2.1398  2.3145 -0.0104
  106MOL0     H14267   5.221   1.508  11.090 -0.3298  0.6014 -1.1570
  106MOL0     H14268   5.007   1.366  11.085 -0.6327 -2.1462 -1.4859
  106MOL0     H14269   5.087   1.377  11.250  2.9746  1.4340 -0.9329
  106MOL0     H14270   4.967   1.192  10.929  0.7603 -1.8796 -0.1964
  106MOL0     H14271   5.035   1.029  10.741 -2.5156  0.1816  0.9892
  106MOL0     H14272   5.521   0.623  10.713  0.9713  0.6891 -0.9208
  106MOL0     H14273   5.542   0.416  10.548  0.8622 -0.1150 -1.1907
  106MOL0     H14274   5.187   0.302  10.362 -0.7060 -0.0872  2.0028
  106MOL0     H14275   5.347   0.325  10.294 -1.0288  0.2451 -1.7383
  106MOL0     H14276   5.215   0.060  10.382  2.6271 -1.3293  0.8270
  106MOL0     H14277   5.220   0.105  10.220 -0.9225 -0.3390  0.8499
  106MOL0     H14278   5.492   0.112  10.334  0.3627 -0.4389  0.7791
  106MOL0     H14279   5.411  -0.048  10.350  2.6904  0.4515  0.6558
  106MOL0     H14280   5.408   0.103  10.092 -0.9971  1.0945  0.7099
  106MOL0     H14281   5.367  -0.069  10.117  1.4388  0.7230 -0.1566
  106MOL0     H14282   5.584  -0.129  10.161 -2.4628  0.4269  0.9265
  106MOL0     H14283   5.650   0.039  10.164  0.9951 -1.4002  2.9535
  106MOL0     H14284   5.717  -0.069   9.951  1.2442  3.0432 -3.3381
  106MOL0     H14285   5.548  -0.087   9.904  3.3826  0.7866 -3.4099
  106MOL0     H14286   5.718   0.159   9.924  1.2149 -2.4389 -0.4785
  106MOL0     H14287   5.543   0.177   9.932  0.5970 -0.7694 -0.0513
  106MOL0     H14288   5.670   0.204   9.705 -1.1011 -1.2407 -4.1563
  106MOL0     H14289   5.687   0.022   9.712 -2.4602 -1.5204 -1.9469
  106MOL0     H14290   5.124   0.397  10.538  0.4555 -2.5833  2.9830
  106MOL0     H14291   5.099   0.610  10.658 -0.9251 -1.3809  0.7937
  106MOL0     H14292   5.335   0.861  11.008  2.9426  1.2914 -0.4936
  106MOL0     H14293   5.241   0.987  11.183  2.2560 -1.9175 -1.5653
  106MOL0     H14294   5.871   0.705  11.313 -1.7990 -0.1151  0.8297
  106MOL0     H14295   5.677   0.551  11.298 -0.1623 -1.1854  0.7752
  106MOL0     H14296   5.496   0.298  10.788  0.8783 -0.3513  0.5712
  106MOL0     H14297   5.268   0.213  10.738  2.1615 -1.0403 -1.1650
  106MOL0     H14298   5.173   0.041  10.708  0.4778 -0.7770 -0.6413
  106MOL0     H14299   5.065  -0.084  10.748 -0.8318 -0.2589 -3.0570
  106MOL0     H14300   5.235  -0.198  10.883 -0.3710 -2.3060 -0.9242
  106MOL0     H14301   5.363  -0.096  10.811 -1.0622  1.2103 -0.3882
  106MOL0     H14302   5.358  -0.300  10.694 -0.3482  1.7639  2.6439
  106MOL0     H14303   5.270  -0.186  10.584  2.1228  0.3018 -0.5407
  106MOL0     H14304   5.107  -0.368  10.761 -0.5213 -0.4983 -0.5289
  106MOL0     H14305   5.057  -0.286  10.625 -0.9974 -2.7723  0.7893
  106MOL0     H14306   5.273  -0.648  10.517 -0.8974  0.1997  1.1237
  106MOL0     H14307   5.260   0.037  11.126 -0.4609 -1.0672  0.0147
  106MOL0     H14308   5.414   0.066  11.282 -0.7051 -2.2395 -3.4248
  106MOL0     H14309   5.566   0.122  11.252  0.7070 -1.7840 -0.9155
  106MOL0     H14310   5.447   0.253  11.286  1.9743  1.2767 -1.9871
  107MOL0     O14311   9.999   0.167   3.114  0.3609  0.5160 -0.3624
  107MOL0     C14312   9.910   0.139   3.030  0.0953 -0.3968 -1.2561
  107MOL0     O14313   9.924   0.104   2.899 -0.2536 -0.1493  0.1554
  107MOL0     C14314  10.058   0.084   2.872  0.0697  0.7944  0.6388
  107MOL0     C14315  10.112  -0.039   2.866 -0.9562  0.1994  0.4939
  107MOL0     C14316  10.246  -0.059   2.848  0.5351  0.0355  0.3790
  107MOL0     C14317  10.332   0.045   2.820  0.2602  0.1281  0.7576
  107MOL0     O14318  10.461   0.011   2.783 -0.5156  0.1926 -0.2946
  107MOL0     C14319  10.512   0.072   2.666  1.0980 -0.7773  1.2465
  107MOL0     C14320  10.457   0.029   2.530 -0.1045  0.0526  0.2851
  107MOL0     C14321  10.536   0.099   2.407 -0.4619 -0.0581  0.5521
  107MOL0     C14322  10.470   0.054   2.268  0.0224 -0.5146  0.8666
  107MOL0     C14323  10.543   0.095   2.132  0.1803 -1.0001 -0.9367
  107MOL0     C14324  10.662   0.001   2.114  0.2775 -0.2859  0.3419
  107MOL0     C14325  10.744   0.031   1.992 -0.5999 -0.6279 -0.4057
  107MOL0     C14326  10.667   0.022   1.866  0.8924 -0.4948  0.5727
  107MOL0     N14327  10.761   0.039   1.748 -0.1364  0.3172  0.3674
  107MOL0     C14328  10.888  -0.001   1.727  0.7638 -0.4889  0.9654
  107MOL0     C14329  10.918   0.069   1.614  0.6492 -0.5534  0.8414
  107MOL0     C14330  11.035   0.047   1.524  0.2844 -0.5423  0.6091
  107MOL0     C14331  11.156   0.138   1.539  0.5356 -0.4374  0.0610
  107MOL0     C14332  11.115   0.271   1.485 -0.3825 -0.4717  0.2856
  107MOL0     C14333  11.239   0.368   1.498  0.0760 -0.0834  0.2278
  107MOL0     O14334  11.213   0.487   1.425  0.3315  0.3410  0.0756
  107MOL0     C14335  11.287   0.497   1.312 -0.0705  0.5069  0.2103
  107MOL0     C14336  11.238   0.473   1.188  0.2168 -0.7983 -0.0876
  107MOL0     C14337  11.316   0.505   1.073  0.7366  0.0701  0.1497
  107MOL0     C14338  11.450   0.545   1.083  0.0300 -0.4141 -0.2592
  107MOL0     C14339  11.533   0.578   0.962 -0.5853  0.4153  0.3332
  107MOL0     O14340  11.463   0.568   0.856 -0.4267  0.1193  0.2769
  107MOL0     C14341  11.506   0.623   0.738 -0.6258 -0.0257 -0.9180
  107MOL0     C14342  11.462   0.581   0.610 -1.0868  0.1465  0.5353
  107MOL0     C14343  11.511   0.638   0.487 -0.1207 -1.1829 -0.1820
  107MOL0     C14344  11.605   0.744   0.492 -0.1642 -0.4777  0.3952
  107MOL0     O14345  11.646   0.811   0.374 -0.0399 -0.3674 -0.3248
  107MOL0     C14346  11.586   0.791   0.250  0.2992  0.8956 -0.0952
  107MOL0     C14347  11.644   0.905   0.167 -0.7463 -0.5490  0.6951
  107MOL0     C14348  11.794   0.875   0.119 -0.1534 -0.1340 -0.0409
  107MOL0     C14349  11.870   0.983   0.054 -0.0276 -0.9355  0.2252
  107MOL0     C14350  11.794   1.078  -0.035  0.5995 -0.7189  0.8795
  107MOL0     C14351  11.886   1.188  -0.115  0.0857  0.2801 -0.4154
  107MOL0     C14352  11.815   1.288  -0.203 -0.2188  0.3179  1.0407
  107MOL0     C14353  11.751   1.393  -0.111 -0.3586 -0.5962  0.1492
  107MOL0    Cl14354  11.702   1.533  -0.212 -0.3182 -0.4967 -0.3274
  107MOL0     C14355  11.643   0.783   0.619  1.1408  0.0431  0.5461
  107MOL0     C14356  11.606   0.720   0.741  0.6335 -0.1681  0.2241
  107MOL0     O14357  11.657   0.605   0.981  0.1413 -0.3950 -0.1669
  107MOL0     C14358  11.494   0.562   1.217 -0.3038 -0.9190 -0.0274
  107MOL0     C14359  11.425   0.540   1.328  0.8924  0.4510  0.1076
  107MOL0     N14360  10.813   0.135   1.570  0.5986  0.0884  0.9171
  107MOL0     N14361  10.713   0.121   1.644  0.0640  0.3004  0.4729
  107MOL0     C14362  10.280   0.179   2.803  0.2879  0.0235  0.0964
  107MOL0     C14363  10.143   0.196   2.837 -0.4386  0.5189  0.1040
  107MOL0     C14364   9.778   0.148   3.062  0.2709  0.1953  0.1129
  107MOL0     C14365   9.682   0.204   2.967  0.0308  0.4903 -0.2871
  107MOL0     C14366   9.545   0.211   3.009  0.5615 -0.5035  0.0397
  107MOL0     C14367   9.501   0.158   3.127  0.4030  0.3691 -0.5690
  107MOL0     O14368   9.368   0.144   3.153  1.2759  0.4585 -0.3538
  107MOL0     C14369   9.292   0.273   3.167 -0.1674  0.8315 -0.5296
  107MOL0     C14370   9.142   0.248   3.207  0.2444  0.0720 -0.1369
  107MOL0     C14371   9.131   0.228   3.364  0.0422 -0.3335  1.1241
  107MOL0     C14372   8.987   0.211   3.416  0.7320 -1.3048  0.3305
  107MOL0     C14373   8.997   0.198   3.563 -0.7602  0.2959  0.0444
  107MOL0     C14374   9.008   0.182   3.677 -0.3945 -0.1601 -0.9928
  107MOL0     C14375   9.590   0.104   3.216  0.3306 -0.4109  0.3243
  107MOL0     C14376   9.726   0.104   3.190 -0.0390  0.6938  0.7608
  107MOL0     C14377   9.805   0.043   3.304  0.4863  0.9032 -0.4547
  107MOL0     H14378  10.062  -0.128   2.906  2.0408 -1.3571  1.0675
  107MOL0     H14379  10.288  -0.159   2.850 -2.6018 -1.3930  0.1879
  107MOL0     H14380  10.515   0.181   2.674  3.8750 -0.7848  1.4656
  107MOL0     H14381  10.619   0.050   2.658  1.6417  2.0476 -0.9334
  107MOL0     H14382  10.348   0.041   2.522  0.1123  2.8044  0.8413
  107MOL0     H14383  10.493  -0.075   2.529  0.2182  0.1661 -0.4532
  107MOL0     H14384  10.638   0.061   2.411 -0.4391  0.0680  3.1304
  107MOL0     H14385  10.530   0.208   2.413  2.4615  0.1485  1.2287
  107MOL0     H14386  10.464  -0.055   2.266 -0.4156 -0.5082  1.4725
  107MOL0     H14387  10.364   0.084   2.270  0.0149  0.1014 -2.9180
  107MOL0     H14388  10.471   0.104   2.050 -0.7340 -1.1120 -0.1680
  107MOL0     H14389  10.589   0.191   2.159  0.9827 -0.9297 -2.4494
  107MOL0     H14390  10.726   0.010   2.202 -0.4612 -0.7692  0.9435
  107MOL0     H14391  10.620  -0.101   2.116 -3.3480  1.0343 -0.9228
  107MOL0     H14392  10.821  -0.047   1.996 -0.7835 -0.9417 -2.3585
  107MOL0     H14393  10.795   0.127   2.000 -0.7830 -0.6542  1.9597
  107MOL0     H14394  10.604  -0.067   1.864 -0.7001  0.5967 -0.8072
  107MOL0     H14395  10.593   0.102   1.878 -0.3469 -1.7054  1.1805
  107MOL0     H14396  10.942  -0.076   1.784 -0.9805 -2.2919  0.3652
  107MOL0     H14397  11.073  -0.053   1.547 -0.3999 -1.5112 -2.1262
  107MOL0     H14398  11.003   0.051   1.419 -0.8012 -1.0739  0.9072
  107MOL0     H14399  11.179   0.138   1.645  1.9053 -0.7685 -0.2188
  107MOL0     H14400  11.233   0.112   1.466  0.4589  0.5214 -0.3781
  107MOL0     H14401  11.042   0.300   1.561 -0.5105 -2.7017  1.0623
  107MOL0     H14402  11.084   0.287   1.382 -0.5430 -0.2131  0.3722
  107MOL0     H14403  11.321   0.314   1.450 -1.7032 -0.3294 -2.7923
  107MOL0     H14404  11.262   0.386   1.604  1.7109 -2.1405  0.2966
  107MOL0     H14405  11.133   0.445   1.178 -1.0577  3.1832  0.3184
  107MOL0     H14406  11.281   0.477   0.974  3.7437  2.2220 -1.6762
  107MOL0     H14407  11.389   0.501   0.606 -2.3874  1.2672  1.1087
  107MOL0     H14408  11.484   0.593   0.392 -1.7716 -3.2036  1.1604
  107MOL0     H14409  11.598   0.694   0.200  0.2792 -0.2298  1.9561
  107MOL0     H14410  11.479   0.812   0.254  0.0544 -0.3776  0.4795
  107MOL0     H14411  11.576   0.927   0.084 -0.9366  2.2663  1.4911
  107MOL0     H14412  11.645   0.995   0.229  3.3515  1.1172 -1.4568
  107MOL0     H14413  11.864   0.854   0.201  1.4349 -0.6859 -1.4999
  107MOL0     H14414  11.791   0.787   0.056 -1.7588 -0.2255  0.1331
  107MOL0     H14415  11.944   0.935  -0.011 -1.7286 -1.5784 -1.3039
  107MOL0     H14416  11.921   1.041   0.132 -2.2272  2.2833 -0.5070
  107MOL0     H14417  11.723   1.140   0.021 -1.3104  2.0955 -3.9962
  107MOL0     H14418  11.750   1.018  -0.115  2.8251 -0.8716 -0.3162
  107MOL0     H14419  11.945   1.245  -0.044 -1.9251  0.8023  0.9223
  107MOL0     H14420  11.954   1.128  -0.176  0.2558 -0.9391  0.9264
  107MOL0     H14421  11.731   1.241  -0.256  0.3652 -0.0803  0.4500
  107MOL0     H14422  11.882   1.328  -0.280 -0.5178 -2.3616 -0.7643
  107MOL0     H14423  11.659   1.352  -0.068 -0.6036 -2.0172 -1.6116
  107MOL0     H14424  11.807   1.428  -0.023  2.3166 -0.9268 -1.3172
  107MOL0     H14425  11.718   0.861   0.625 -1.3603  2.6351  0.2377
  107MOL0     H14426  11.664   0.759   0.824  0.1461  0.7783  0.1408
  107MOL0     H14427  11.594   0.602   1.231 -0.5090  0.9971 -3.1309
  107MOL0     H14428  11.460   0.561   1.428  1.1657  2.9785 -0.4445
  107MOL0     H14429  10.351   0.258   2.781  0.1159 -0.1034 -0.9545
  107MOL0     H14430  10.115   0.300   2.846 -1.5548  0.4163 -1.6795
  107MOL0     H14431   9.712   0.214   2.864  3.7984  0.7911  0.6904
  107MOL0     H14432   9.473   0.236   2.931 -0.9776  0.7930  1.7907
  107MOL0     H14433   9.285   0.311   3.065 -0.6130 -0.8433 -1.1539
  107MOL0     H14434   9.339   0.348   3.232 -1.6971  0.5218  1.0136
  107MOL0     H14435   9.085   0.168   3.159 -1.2258  1.3871 -0.6886
  107MOL0     H14436   9.084   0.336   3.176 -3.0751 -1.6867  0.6186
  107MOL0     H14437   9.181   0.318   3.400  0.9232  0.3461 -1.5360
  107MOL0     H14438   9.186   0.136   3.388  1.2572 -0.5446 -1.9506
  107MOL0     H14439   8.924   0.294   3.385  1.5686 -0.2893  1.2789
  107MOL0     H14440   8.944   0.127   3.360  0.8413 -1.1399 -0.0054
  107MOL0     H14441   9.019   0.162   3.782  1.4259 -0.4260 -1.2072
  107MOL0     H14442   9.542   0.070   3.308 -4.9243  0.6497 -1.7077
  107MOL0     H14443   9.746  -0.035   3.353  2.4465 -0.7250 -0.5102
  107MOL0     H14444   9.904  -0.004   3.297  0.6562  1.2299 -0.2833
  107MOL0     H14445   9.819   0.128   3.372 -0.1479  1.1960 -0.6903
  108MOL0     O14446   9.037   4.148   2.089  0.2723  0.4207  0.2333
  108MOL0     C14447   8.965   4.151   1.991 -1.0091  0.6135 -1.1303
  108MOL0     O14448   8.983   4.233   1.892  0.3720  0.1035  0.5667
  108MOL0     C14449   9.063   4.343   1.901 -0.8830 -0.5314 -0.5950
  108MOL0     C14450   9.144   4.370   1.792  0.0642 -0.5036  0.0644
  108MOL0     C14451   9.241   4.480   1.794 -0.1868 -0.4979  0.3383
  108MOL0     C14452   9.251   4.556   1.912  0.1589  0.3606 -0.0476
  108MOL0     O14453   9.361   4.639   1.928 -0.3037 -0.3195 -0.0235
  108MOL0     C14454   9.386   4.710   2.049 -0.5911 -0.4824  0.2008
  108MOL0     C14455   9.473   4.830   2.026  0.9326 -0.0619 -0.1284
  108MOL0     C14456   9.413   4.938   1.951 -0.4783  0.4057 -0.6396
  108MOL0     C14457   9.509   5.026   1.865 -0.0937 -0.1852 -0.7846
  108MOL0     C14458   9.443   5.149   1.814 -0.2739 -0.4128 -0.4742
  108MOL0     C14459   9.424   5.262   1.917  0.1227 -0.6509 -0.1152
  108MOL0     C14460   9.395   5.401   1.856  0.2338  0.5346 -0.8759
  108MOL0     C14461   9.525   5.474   1.802  0.2270  0.7177 -0.2438
  108MOL0     N14462   9.492   5.606   1.764  0.3066 -0.2876  0.2716
  108MOL0     C14463   9.579   5.699   1.715  0.1343 -0.6595  0.2702
  108MOL0     C14464   9.508   5.813   1.690 -0.1135 -0.1259 -0.7400
  108MOL0     C14465   9.563   5.935   1.626  0.2485  0.1275 -0.1309
  108MOL0     C14466   9.542   5.916   1.477  0.3428 -0.2872 -0.1596
  108MOL0     C14467   9.588   6.032   1.389 -0.8092 -0.6153  0.5628
  108MOL0     C14468   9.592   6.008   1.234  0.0406  0.4051 -0.1470
  108MOL0     O14469   9.463   5.988   1.165  1.0947 -1.1021 -1.1982
  108MOL0     C14470   9.433   6.046   1.036  1.2174 -0.5585 -0.8924
  108MOL0     C14471   9.490   6.158   0.979  0.6090 -0.3047  0.7877
  108MOL0     C14472   9.468   6.194   0.842  0.1604 -0.2665  0.8703
  108MOL0     C14473   9.373   6.118   0.772  0.4717 -0.8868 -0.5720
  108MOL0     C14474   9.326   6.150   0.632  0.7309 -1.0031  0.4744
  108MOL0     O14475   9.425   6.209   0.560 -0.9558  0.1236 -0.0272
  108MOL0     C14476   9.407   6.254   0.430  0.7766 -0.3518  0.1668
  108MOL0     C14477   9.510   6.228   0.346 -1.5959 -1.0636 -0.0539
  108MOL0     C14478   9.516   6.284   0.213  0.3000 -0.6632 -0.3563
  108MOL0     C14479   9.406   6.355   0.170  0.3195  0.2271  0.3504
  108MOL0     O14480   9.425   6.384   0.036 -0.5310 -0.4149  0.2874
  108MOL0     C14481   9.310   6.412  -0.043 -0.0771 -0.9970 -0.1410
  108MOL0     C14482   9.320   6.349  -0.190  1.2625 -0.4972 -0.6692
  108MOL0     C14483   9.365   6.207  -0.196 -0.5098 -0.1448  0.1137
  108MOL0     C14484   9.397   6.154  -0.337 -0.1468 -0.1274  0.3551
  108MOL0     C14485   9.442   6.011  -0.343 -0.2168  0.4752  0.3506
  108MOL0     C14486   9.509   5.985  -0.475  0.2887  0.6454 -0.3145
  108MOL0     C14487   9.403   6.009  -0.594  0.4063 -0.4132 -0.4571
  108MOL0     C14488   9.473   5.981  -0.727 -1.0005  1.2698  0.5808
  108MOL0    Cl14489   9.519   5.808  -0.707 -0.1602  0.2768  0.2751
  108MOL0     C14490   9.293   6.375   0.247  0.8783  0.1725  0.5104
  108MOL0     C14491   9.296   6.328   0.375  0.5446  0.1663 -0.2792
  108MOL0     O14492   9.211   6.136   0.605  0.0889 -0.2890 -0.1126
  108MOL0     C14493   9.312   6.011   0.833  0.2164  0.9769 -0.4046
  108MOL0     C14494   9.333   5.974   0.963  0.3343  0.1628  0.1579
  108MOL0     N14495   9.377   5.787   1.737  0.0851  0.4444 -0.5200
  108MOL0     N14496   9.367   5.670   1.774 -0.4223  0.3328 -0.4193
  108MOL0     C14497   9.172   4.532   2.026  1.2284 -0.6138  0.3747
  108MOL0     C14498   9.072   4.428   2.016  0.3658  0.4482 -0.4674
  108MOL0     C14499   8.865   4.039   1.972 -1.2263  0.8128  0.1650
  108MOL0     C14500   8.832   4.013   1.835  0.2848  0.2314 -0.0714
  108MOL0     C14501   8.756   3.907   1.799 -0.2644  0.9693  0.1839
  108MOL0     C14502   8.691   3.826   1.902 -0.0898 -0.5136  0.4924
  108MOL0     O14503   8.630   3.723   1.850 -0.1302 -0.3800  0.5638
  108MOL0     C14504   8.567   3.617   1.924 -1.7628  0.7220  0.5856
  108MOL0     C14505   8.417   3.640   1.942  0.0379  0.2619 -0.4307
  108MOL0     C14506   8.351   3.537   2.039 -0.0311  0.0079 -0.9267
  108MOL0     C14507   8.315   3.413   1.956 -0.7266 -0.4510 -0.5568
  108MOL0     C14508   8.237   3.322   2.050  0.6413  0.4486 -0.0070
  108MOL0     C14509   8.179   3.235   2.117  0.0075  0.1131 -1.1517
  108MOL0     C14510   8.707   3.855   2.037  0.3098  0.2579  0.2789
  108MOL0     C14511   8.797   3.955   2.069 -0.6692  0.5488  1.1485
  108MOL0     C14512   8.823   3.975   2.215  0.2149 -0.5069  0.5253
  108MOL0     H14513   9.110   4.320   1.703 -2.8764 -1.8370  1.7753
  108MOL0     H14514   9.311   4.493   1.712  0.0587  1.3935  0.8055
  108MOL0     H14515   9.292   4.748   2.089 -1.4003  0.6329 -2.5195
  108MOL0     H14516   9.449   4.648   2.112 -0.3627 -1.3673 -0.8619
  108MOL0     H14517   9.571   4.797   1.991  1.4819  0.6410  0.7159
  108MOL0     H14518   9.486   4.871   2.126 -2.6445  5.0949 -1.3765
  108MOL0     H14519   9.363   5.003   2.024 -0.9283 -1.9465  1.2677
  108MOL0     H14520   9.340   4.880   1.893  2.5935 -3.6832 -0.8462
  108MOL0     H14521   9.598   5.053   1.922  3.1390 -2.7099 -4.1454
  108MOL0     H14522   9.550   4.952   1.795  1.4590  1.2250 -1.4351
  108MOL0     H14523   9.510   5.191   1.738 -0.9965  2.2197  0.2116
  108MOL0     H14524   9.349   5.123   1.765  0.5856 -2.0804 -1.3181
  108MOL0     H14525   9.331   5.235   1.966 -0.3151 -2.6688 -1.9393
  108MOL0     H14526   9.514   5.259   1.980  1.2550 -5.2013 -1.5522
  108MOL0     H14527   9.346   5.458   1.935  0.7739 -1.3660  0.9286
  108MOL0     H14528   9.320   5.392   1.777 -3.7394  2.2131  2.3557
  108MOL0     H14529   9.584   5.486   1.894 -0.8335 -0.7355  0.6718
  108MOL0     H14530   9.591   5.433   1.725  0.4459  1.0827 -0.2522
  108MOL0     H14531   9.683   5.678   1.691 -0.0903 -0.4002 -0.9520
  108MOL0     H14532   9.497   6.017   1.656  0.9464 -0.3110  2.9502
  108MOL0     H14533   9.664   5.959   1.663  0.7991 -3.1938  0.8282
  108MOL0     H14534   9.594   5.822   1.458 -2.6203 -2.0050 -0.3618
  108MOL0     H14535   9.442   5.882   1.448 -0.1133  1.3078 -0.5579
  108MOL0     H14536   9.687   6.059   1.426 -0.1488  0.9894 -2.1276
  108MOL0     H14537   9.533   6.126   1.403 -1.1941 -0.9395  1.3048
  108MOL0     H14538   9.664   5.929   1.210 -0.7215 -0.5073  0.4791
  108MOL0     H14539   9.636   6.098   1.191  0.7068 -0.9368 -2.4381
  108MOL0     H14540   9.571   6.209   1.030  1.9769 -1.3764 -0.2357
  108MOL0     H14541   9.519   6.282   0.804 -1.2782  0.7344  1.1571
  108MOL0     H14542   9.591   6.170   0.387 -0.6802  0.5682  0.5610
  108MOL0     H14543   9.605   6.272   0.152 -0.9809  1.3799 -2.8050
  108MOL0     H14544   9.228   6.351  -0.003 -0.2745 -0.0207  1.0064
  108MOL0     H14545   9.283   6.517  -0.052  0.2379 -1.0814 -3.9238
  108MOL0     H14546   9.222   6.360  -0.238  0.4633 -1.7501  0.5781
  108MOL0     H14547   9.390   6.405  -0.252  0.2611  1.7545  0.1134
  108MOL0     H14548   9.458   6.203  -0.137 -0.7730  0.6982  0.6113
  108MOL0     H14549   9.297   6.148  -0.135  0.0493  1.2435  2.2149
  108MOL0     H14550   9.474   6.214  -0.387  0.9091 -0.5610  1.4245
  108MOL0     H14551   9.306   6.171  -0.395 -0.7303  0.1556  1.3359
  108MOL0     H14552   9.359   5.940  -0.340 -0.3459  0.6459  1.1234
  108MOL0     H14553   9.508   5.984  -0.260 -2.4518  1.8956  2.7312
  108MOL0     H14554   9.592   6.055  -0.491  0.8135  0.2431  0.5803
  108MOL0     H14555   9.539   5.880  -0.473  0.2047  0.6289  1.2302
  108MOL0     H14556   9.366   6.112  -0.589 -0.0310 -0.2880 -3.8373
  108MOL0     H14557   9.314   5.948  -0.576  2.4942 -3.0164  1.6625
  108MOL0     H14558   9.408   5.984  -0.815 -0.6754  0.8264  0.3218
  108MOL0     H14559   9.563   6.042  -0.733  0.0154 -0.0249  1.9945
  108MOL0     H14560   9.206   6.429   0.212 -1.1598 -1.9692  1.9052
  108MOL0     H14561   9.209   6.355   0.434  0.7444  2.7593 -1.0711
  108MOL0     H14562   9.238   5.955   0.777  0.3072  1.3082 -0.8585
  108MOL0     H14563   9.289   5.893   1.020 -0.1290  0.0810 -0.3031
  108MOL0     H14564   9.183   4.595   2.114  2.8631  0.3895 -0.4978
  108MOL0     H14565   9.026   4.402   2.110 -0.1571 -2.1486 -1.3593
  108MOL0     H14566   8.882   4.059   1.750  0.4259 -2.5428 -1.6011
  108MOL0     H14567   8.739   3.895   1.692  0.8676  1.6421 -0.0807
  108MOL0     H14568   8.612   3.603   2.023  0.1150 -0.0280 -0.3263
  108MOL0     H14569   8.586   3.531   1.859  1.1350  0.3935  1.7155
  108MOL0     H14570   8.370   3.639   1.843  3.1392 -0.8788 -2.0161
  108MOL0     H14571   8.407   3.741   1.982 -1.3859  0.6226 -1.5896
  108MOL0     H14572   8.263   3.575   2.090  0.9768  3.7768 -1.6704
  108MOL0     H14573   8.423   3.529   2.121 -1.6747  1.0334  0.6696
  108MOL0     H14574   8.247   3.448   1.877 -0.5568 -0.1616 -0.5746
  108MOL0     H14575   8.401   3.359   1.915  0.9378  0.1483  1.9375
  108MOL0     H14576   8.143   3.153   2.176  1.3787  0.5703  0.3909
  108MOL0     H14577   8.654   3.805   2.117  1.5043 -0.2979  0.7382
  108MOL0     H14578   8.786   4.071   2.251 -2.9337 -0.4699 -2.3457
  108MOL0     H14579   8.777   3.897   2.276 -0.4298 -0.7527 -0.2560
  108MOL0     H14580   8.930   3.955   2.232 -0.0129 -1.2264  1.1387
  109MOL0     O14581   1.189   1.503  11.296  0.2396  0.4710  0.7052
  109MOL0     C14582   1.156   1.399  11.348  0.5358 -0.6682 -0.0935
  109MOL0     O14583   1.104   1.290  11.274 -0.0461 -0.2074 -0.2665
  109MOL0     C14584   1.112   1.289  11.138 -0.2319 -0.7148 -0.4802
  109MOL0     C14585   0.995   1.305  11.062 -0.7000  0.8791 -0.0343
  109MOL0     C14586   0.992   1.338  10.928 -0.6520 -0.5961  1.2465
  109MOL0     C14587   1.119   1.350  10.864 -1.2789  1.2141  0.1506
  109MOL0     O14588   1.128   1.384  10.727  0.1941 -0.3574 -0.3478
  109MOL0     C14589   1.008   1.419  10.650 -0.2481  0.0123 -0.3866
  109MOL0     C14590   1.051   1.487  10.519  0.2568  1.1076  0.2078
  109MOL0     C14591   0.946   1.492  10.406 -0.5353 -0.0654 -0.0388
  109MOL0     C14592   0.854   1.604  10.426 -0.7405 -0.8474 -0.4495
  109MOL0     C14593   0.901   1.744  10.376 -0.7088 -0.0168  0.0954
  109MOL0     C14594   0.794   1.847  10.423 -0.0658 -0.0838  0.8882
  109MOL0     C14595   0.826   1.991  10.382  0.2594  0.1394  0.1383
  109MOL0     C14596   0.937   2.064  10.461  1.0772 -0.2862  0.3226
  109MOL0     N14597   1.064   2.073  10.391  0.6311  0.5920  0.1392
  109MOL0     C14598   1.089   2.150  10.285 -0.6055 -0.0895 -1.0710
  109MOL0     C14599   1.224   2.177  10.302 -0.7323 -0.1295  0.5490
  109MOL0     C14600   1.306   2.245  10.198  0.0187  0.2370  0.1853
  109MOL0     C14601   1.257   2.391  10.170 -0.4156 -1.2375 -0.3606
  109MOL0     C14602   1.293   2.480  10.287  0.4463 -0.4578  0.1586
  109MOL0     C14603   1.233   2.619  10.290  0.0834  0.3642 -0.5611
  109MOL0     O14604   1.294   2.705  10.188  0.0095 -1.1739  0.0806
  109MOL0     C14605   1.248   2.831  10.164 -0.0934 -0.9888  0.9707
  109MOL0     C14606   1.299   2.895  10.049  0.1079 -0.1347 -0.5470
  109MOL0     C14607   1.238   3.018  10.011  0.4518  0.6683 -0.2736
  109MOL0     C14608   1.128   3.076  10.080 -0.0155 -1.0656 -0.1207
  109MOL0     C14609   1.067   3.201  10.023 -0.5311  0.7030 -0.4210
  109MOL0     O14610   1.064   3.204   9.890  1.2132  0.3463 -0.5928
  109MOL0     C14611   0.994   3.302   9.827 -0.6845 -1.0227  1.0100
  109MOL0     C14612   0.870   3.291   9.766  1.2447 -1.1740  0.9751
  109MOL0     C14613   0.816   3.402   9.698 -0.7028  0.6737  0.5116
  109MOL0     C14614   0.871   3.527   9.687 -0.4144 -0.4839 -0.4328
  109MOL0     O14615   0.823   3.643   9.630  0.0599  0.6035 -0.1105
  109MOL0     C14616   0.706   3.631   9.542  0.1153  0.1465  0.5198
  109MOL0     C14617   0.669   3.768   9.474  0.0830 -0.4699 -0.2312
  109MOL0     C14618   0.759   3.789   9.353 -0.0123 -0.5050  1.2035
  109MOL0     C14619   0.728   3.695   9.223  0.4361  0.8663 -0.5867
  109MOL0     C14620   0.828   3.707   9.099  0.2578  0.1714  0.1660
  109MOL0     C14621   0.761   3.655   8.963  0.9297 -0.0515  0.1344
  109MOL0     C14622   0.655   3.764   8.900 -0.1921 -0.1256 -0.2214
  109MOL0     C14623   0.580   3.716   8.781 -0.1572 -0.3011 -0.6351
  109MOL0    Cl14624   0.675   3.672   8.629  0.0645 -0.1937  0.1422
  109MOL0     C14625   0.993   3.537   9.757 -0.6415 -0.4136 -0.5511
  109MOL0     C14626   1.052   3.431   9.826 -0.2482  0.8936  0.4599
  109MOL0     O14627   0.996   3.271  10.104 -0.2190 -0.6778  0.2243
  109MOL0     C14628   1.086   3.009  10.197 -0.1448  0.0786  0.2621
  109MOL0     C14629   1.150   2.886  10.242  0.3922  0.2102 -0.0118
  109MOL0     N14630   1.280   2.098  10.408  0.0547 -0.8844 -0.1557
  109MOL0     N14631   1.178   2.046  10.465  0.6204  0.6402 -0.1033
  109MOL0     C14632   1.244   1.316  10.938 -0.2535 -0.0205  0.6066
  109MOL0     C14633   1.233   1.282  11.069 -0.3222  0.7007 -0.2546
  109MOL0     C14634   1.179   1.386  11.499 -0.8027 -0.3505 -0.1066
  109MOL0     C14635   1.165   1.255  11.543 -0.4186 -0.0890 -0.4611
  109MOL0     C14636   1.203   1.222  11.674 -0.9376 -0.4769 -0.3285
  109MOL0     C14637   1.241   1.326  11.766  0.2069  0.9972 -0.8392
  109MOL0     O14638   1.261   1.301  11.901  0.4093 -0.2333 -0.3258
  109MOL0     C14639   1.288   1.173  11.942 -0.1600  0.4149 -0.3802
  109MOL0     C14640   1.319   1.196  12.096  0.3561 -0.2653  0.2540
  109MOL0     C14641   1.348   1.057  12.156  0.7828  0.1671  0.2667
  109MOL0     C14642   1.487   0.995  12.128 -0.0960  0.2809  0.4393
  109MOL0     C14643   1.539   0.930  12.250  0.0454  0.1702  0.5205
  109MOL0     C14644   1.571   0.873  12.354 -0.1091 -0.0863  0.5719
  109MOL0     C14645   1.244   1.454  11.725 -0.1282  0.0859 -0.7804
  109MOL0     C14646   1.218   1.490  11.591 -0.2050 -0.7287  0.9143
  109MOL0     C14647   1.251   1.631  11.540  0.1565 -0.0741 -0.6234
  109MOL0     H14648   0.903   1.297  11.118  0.5162  1.3907  2.1646
  109MOL0     H14649   0.899   1.345  10.873  0.8570 -1.3784 -1.6247
  109MOL0     H14650   0.964   1.329  10.606  1.5054 -0.6312 -0.9222
  109MOL0     H14651   0.939   1.477  10.711 -0.9906 -2.1885  0.9938
  109MOL0     H14652   1.141   1.440  10.477 -0.2522 -1.0022  1.3361
  109MOL0     H14653   1.081   1.591  10.530 -0.3836  1.4960 -1.5078
  109MOL0     H14654   0.886   1.400  10.409  2.7079 -2.3015  2.1885
  109MOL0     H14655   1.005   1.505  10.315  5.1506 -0.4405  3.1509
  109MOL0     H14656   0.764   1.574  10.372  0.4626 -2.6279 -1.5963
  109MOL0     H14657   0.825   1.618  10.531  0.0325  1.4894 -0.5038
  109MOL0     H14658   0.992   1.770  10.430 -1.1579  2.0566 -0.0682
  109MOL0     H14659   0.899   1.748  10.266 -2.3165 -1.7680  0.0148
  109MOL0     H14660   0.698   1.805  10.392 -0.2656 -1.3588  2.9730
  109MOL0     H14661   0.794   1.850  10.532  0.1607  1.4636  0.8600
  109MOL0     H14662   0.727   2.036  10.388 -0.2062 -0.8635  0.2052
  109MOL0     H14663   0.853   1.987  10.276 -1.0966 -1.3439 -0.2003
  109MOL0     H14664   0.911   2.167  10.486 -4.1922 -1.0449 -0.8666
  109MOL0     H14665   0.941   2.025  10.563 -2.9571  3.5161  2.2574
  109MOL0     H14666   1.021   2.212  10.227 -2.4064  0.7369  1.7119
  109MOL0     H14667   1.411   2.249  10.229  1.1941  1.2928 -3.4406
  109MOL0     H14668   1.303   2.188  10.104 -0.3897  0.6837 -0.0780
  109MOL0     H14669   1.313   2.429  10.083  0.9280 -0.8898  0.6194
  109MOL0     H14670   1.152   2.395  10.140  0.4345 -1.9457 -3.9271
  109MOL0     H14671   1.401   2.487  10.304  0.1119  0.6069  2.1600
  109MOL0     H14672   1.258   2.427  10.376 -0.5280  0.4196  0.3088
  109MOL0     H14673   1.249   2.663  10.389 -0.9595  0.1121 -0.2616
  109MOL0     H14674   1.125   2.629  10.276 -0.4287  2.7919  3.5094
  109MOL0     H14675   1.380   2.865   9.984  0.7915  2.0893 -0.8089
  109MOL0     H14676   1.271   3.083   9.930 -1.2438  2.7152  0.5928
  109MOL0     H14677   0.821   3.194   9.767 -0.2318 -0.4718  0.3130
  109MOL0     H14678   0.718   3.396   9.650 -1.0528  4.0054  0.5243
  109MOL0     H14679   0.730   3.557   9.465  0.4379  0.1065  0.6559
  109MOL0     H14680   0.617   3.612   9.602 -0.1746 -0.4515 -0.0813
  109MOL0     H14681   0.567   3.777   9.434 -1.5036 -3.6501  2.5298
  109MOL0     H14682   0.687   3.839   9.556 -1.6742  1.8517 -1.7241
  109MOL0     H14683   0.767   3.895   9.330  1.3702 -0.8787 -0.1769
  109MOL0     H14684   0.864   3.767   9.376  0.7632 -0.2460 -1.7383
  109MOL0     H14685   0.624   3.718   9.197 -0.9238 -3.8028 -0.1614
  109MOL0     H14686   0.720   3.593   9.260 -1.0825  1.4025  0.6559
  109MOL0     H14687   0.918   3.646   9.114  0.2058  0.0534 -0.0039
  109MOL0     H14688   0.869   3.807   9.084  1.5048 -0.4615 -0.8976
  109MOL0     H14689   0.831   3.618   8.887 -0.5786  0.0942 -1.3869
  109MOL0     H14690   0.706   3.563   8.986 -1.0674  1.1067  0.2721
  109MOL0     H14691   0.709   3.857   8.881  1.0442 -0.5455  0.9695
  109MOL0     H14692   0.583   3.791   8.978 -1.0088 -1.6698 -0.4001
  109MOL0     H14693   0.522   3.626   8.805 -1.6736  0.3174 -1.8420
  109MOL0     H14694   0.501   3.786   8.754  0.5179  0.5573 -0.4193
  109MOL0     H14695   1.045   3.632   9.753  0.5192 -1.0707 -3.1013
  109MOL0     H14696   1.150   3.432   9.872 -0.3204  1.8133  0.6169
  109MOL0     H14697   1.000   3.057  10.243 -0.9036 -2.0915  1.2516
  109MOL0     H14698   1.110   2.840  10.331  0.4715 -3.2378 -1.6104
  109MOL0     H14699   1.338   1.334  10.886 -0.2615 -1.0651  0.2123
  109MOL0     H14700   1.322   1.267  11.130 -1.9412  1.7094  2.5561
  109MOL0     H14701   1.133   1.184  11.468 -0.8831 -0.4144  0.0430
  109MOL0     H14702   1.221   1.119  11.702 -1.9361 -0.6148 -0.1830
  109MOL0     H14703   1.377   1.123  11.902 -2.5224 -1.3800 -3.9080
  109MOL0     H14704   1.198   1.112  11.923 -1.3147  2.7814 -3.1727
  109MOL0     H14705   1.225   1.233  12.138 -0.1197 -0.4271 -0.6508
  109MOL0     H14706   1.400   1.270  12.101  0.0699  0.5805 -3.9049
  109MOL0     H14707   1.259   0.996  12.136 -2.3302  3.2318  3.2694
  109MOL0     H14708   1.333   1.059  12.264 -0.8551 -0.5020  0.0879
  109MOL0     H14709   1.471   0.929  12.042  2.1007 -2.4304  1.9468
  109MOL0     H14710   1.572   1.059  12.102 -0.2260 -0.5855 -2.4264
  109MOL0     H14711   1.603   0.833  12.448 -2.9597 -1.1077  1.2253
  109MOL0     H14712   1.261   1.533  11.797  0.6058  0.0822 -0.9485
  109MOL0     H14713   1.169   1.676  11.483  1.1161  0.7798 -1.3453
  109MOL0     H14714   1.268   1.696  11.626 -3.3307 -0.5663  0.6343
  109MOL0     H14715   1.334   1.623  11.470  0.9556 -0.9422  0.3826
  110MOL0     O14716   5.428   0.641  11.419  0.3552  0.4974  0.3049
  110MOL0     C14717   5.369   0.746  11.414 -0.0975  0.0830  0.1383
  110MOL0     O14718   5.407   0.856  11.341  0.5347 -0.2281 -0.3654
  110MOL0     C14719   5.481   0.849  11.223  0.1937 -0.4664  0.2277
  110MOL0     C14720   5.489   0.730  11.149 -0.3515 -1.0562  0.6351
  110MOL0     C14721   5.568   0.728  11.034 -0.5225 -0.0936  0.1452
  110MOL0     C14722   5.645   0.831  10.994  0.4908  0.1575 -0.3032
  110MOL0     O14723   5.755   0.818  10.910 -0.0792  0.1292  0.4642
  110MOL0     C14724   5.824   0.693  10.894 -0.7547  0.3136 -0.2583
  110MOL0     C14725   5.940   0.707  10.793 -0.6649 -0.4274  0.0787
  110MOL0     C14726   6.065   0.617  10.821  0.6001  0.5845  1.0787
  110MOL0     C14727   6.171   0.683  10.902  0.1357 -0.4826  0.1036
  110MOL0     C14728   6.292   0.596  10.935 -0.6360 -0.0627 -0.1790
  110MOL0     C14729   6.416   0.690  10.959  0.5498 -0.1029 -0.3675
  110MOL0     C14730   6.509   0.629  11.061 -0.1584 -0.2568  0.3458
  110MOL0     C14731   6.639   0.714  11.073  0.0458  0.5732  0.1330
  110MOL0     N14732   6.625   0.852  11.131  0.5425 -0.4480  0.6167
  110MOL0     C14733   6.665   0.970  11.074  0.1451  0.2060  0.4260
  110MOL0     C14734   6.620   1.075  11.157  0.3758  0.0098  0.7676
  110MOL0     C14735   6.631   1.214  11.120  0.2542  0.8212 -0.4752
  110MOL0     C14736   6.496   1.258  11.068  0.1426  0.7540 -0.4200
  110MOL0     C14737   6.497   1.408  11.065  0.0084 -0.3426  0.1124
  110MOL0     C14738   6.364   1.461  11.021 -0.3815  0.4165 -0.6670
  110MOL0     O14739   6.321   1.426  10.892  0.3465  0.0085  0.5623
  110MOL0     C14740   6.185   1.425  10.864  0.1784 -1.0569  0.2830
  110MOL0     C14741   6.085   1.512  10.942 -0.7342  0.3821  0.3100
  110MOL0     C14742   5.951   1.499  10.919 -0.5095  0.3046  0.7846
  110MOL0     C14743   5.904   1.409  10.818  0.4671 -0.8318 -0.3530
  110MOL0     C14744   5.761   1.389  10.796 -0.4309 -0.5134  0.2122
  110MOL0     O14745   5.733   1.325  10.679 -0.8090 -0.1410 -0.3689
  110MOL0     C14746   5.602   1.295  10.665  0.2448  0.3681  0.5446
  110MOL0     C14747   5.535   1.185  10.726  0.1293  0.2688  0.6867
  110MOL0     C14748   5.402   1.154  10.689 -0.1903  0.1718 -0.2725
  110MOL0     C14749   5.325   1.241  10.613 -0.0534 -0.8181 -0.7491
  110MOL0     O14750   5.186   1.217  10.597  0.2879  0.4320  0.7311
  110MOL0     C14751   5.109   1.312  10.534 -0.4536  0.3890 -0.3163
  110MOL0     C14752   4.966   1.259  10.519 -0.8475 -0.3668  0.3145
  110MOL0     C14753   4.867   1.373  10.486  1.4726  0.5703  0.1153
  110MOL0     C14754   4.865   1.406  10.329  0.3944  0.0330 -0.0150
  110MOL0     C14755   4.758   1.515  10.306 -1.3730 -0.6407  0.3082
  110MOL0     C14756   4.766   1.581  10.174  0.1882 -0.3606  1.0456
  110MOL0     C14757   4.672   1.693  10.161  0.3273  0.0696 -0.1884
  110MOL0     C14758   4.658   1.733  10.016  0.2902  0.6611  0.1078
  110MOL0    Cl14759   4.526   1.843   9.996 -0.2732 -0.0416 -0.1228
  110MOL0     C14760   5.387   1.351  10.553 -0.7507 -0.3879  0.0468
  110MOL0     C14761   5.531   1.370  10.570  0.6963  0.5308 -0.3808
  110MOL0     O14762   5.689   1.431  10.880 -0.2546 -0.1279  0.1043
  110MOL0     C14763   6.000   1.346  10.735 -1.5585  0.6889  0.2973
  110MOL0     C14764   6.142   1.358  10.754 -0.1077  0.1953 -0.4059
  110MOL0     N14765   6.553   1.014  11.272 -0.3546 -0.3029  0.1743
  110MOL0     N14766   6.562   0.877  11.251  0.2606 -0.5962 -1.1614
  110MOL0     C14767   5.636   0.955  11.070 -1.1160 -0.0011 -0.4192
  110MOL0     C14768   5.546   0.964  11.175 -0.3734  0.5049  0.0889
  110MOL0     C14769   5.254   0.763  11.514  0.5250 -0.5032 -0.0143
  110MOL0     C14770   5.216   0.897  11.541 -0.5809  0.3412  0.2160
  110MOL0     C14771   5.109   0.924  11.626 -0.2697 -0.5243 -0.0942
  110MOL0     C14772   5.036   0.822  11.683 -0.4500 -1.8136 -0.6625
  110MOL0     O14773   4.945   0.872  11.762 -0.1208 -0.0847 -0.3215
  110MOL0     C14774   4.956   0.857  11.906  0.0749  0.1471  0.0117
  110MOL0     C14775   4.871   0.964  11.972 -0.0318 -0.2476  0.0112
  110MOL0     C14776   4.931   1.104  11.928  0.1749 -0.5285 -0.5447
  110MOL0     C14777   4.961   1.193  12.051  1.0319 -0.8423  0.6245
  110MOL0     C14778   4.829   1.226  12.105  0.8407  0.0781 -0.7168
  110MOL0     C14779   4.714   1.225  12.147  0.1396 -0.8325  0.8108
  110MOL0     C14780   5.080   0.689  11.672  0.2909 -0.2905  0.0417
  110MOL0     C14781   5.182   0.652  11.579 -0.3892  0.2906  0.1844
  110MOL0     C14782   5.222   0.512  11.543  1.2046 -0.2641 -0.8815
  110MOL0     H14783   5.451   0.634  11.183  2.0934 -2.5518 -0.5871
  110MOL0     H14784   5.584   0.626  11.001 -0.9644 -0.4552  1.0300
  110MOL0     H14785   5.873   0.659  10.986  3.0602 -0.0038 -2.2331
  110MOL0     H14786   5.756   0.618  10.853  2.3361 -4.9382  3.0758
  110MOL0     H14787   5.964   0.812  10.812 -1.9436 -0.3034  1.2205
  110MOL0     H14788   5.893   0.689  10.695  2.2328 -1.6722 -1.2014
  110MOL0     H14789   6.109   0.574  10.730  0.8214  1.1804  0.8991
  110MOL0     H14790   6.025   0.528  10.870 -0.9191  0.8515  0.3956
  110MOL0     H14791   6.218   0.771  10.855  2.9501 -1.1054  1.5110
  110MOL0     H14792   6.123   0.717  10.994 -2.8203 -1.9427 -0.8064
  110MOL0     H14793   6.276   0.540  11.028  3.9595 -3.0945 -0.8740
  110MOL0     H14794   6.316   0.522  10.858  1.1024 -1.2829  1.4282
  110MOL0     H14795   6.451   0.716  10.858  0.2949  1.6845 -0.0318
  110MOL0     H14796   6.390   0.788  11.000 -1.0553 -0.0998 -1.2758
  110MOL0     H14797   6.533   0.527  11.029 -1.0252 -0.6724  1.0041
  110MOL0     H14798   6.457   0.637  11.157  0.1580  2.1859  0.3910
  110MOL0     H14799   6.701   0.666  11.149 -2.5527 -1.7116  0.9822
  110MOL0     H14800   6.693   0.726  10.979 -0.9768 -0.1648 -0.5743
  110MOL0     H14801   6.706   0.976  10.974  0.8548 -0.7801  0.6334
  110MOL0     H14802   6.680   1.272  11.198  1.0624 -1.2083  0.6071
  110MOL0     H14803   6.705   1.217  11.040 -1.7056 -0.9154 -2.4942
  110MOL0     H14804   6.479   1.202  10.975 -0.4548 -1.4622  0.9523
  110MOL0     H14805   6.424   1.245  11.150  2.0261  0.1893  1.2132
  110MOL0     H14806   6.572   1.445  10.994  0.2753 -4.9452 -2.3817
  110MOL0     H14807   6.530   1.439  11.164 -0.6504  0.5092  0.0802
  110MOL0     H14808   6.385   1.568  11.013  1.2132  0.1248 -0.6944
  110MOL0     H14809   6.285   1.440  11.094  0.5683  0.9663  0.5681
  110MOL0     H14810   6.115   1.578  11.023 -0.0499 -1.0496  1.2641
  110MOL0     H14811   5.887   1.565  10.976 -0.2033  0.8725  0.4712
  110MOL0     H14812   5.596   1.136  10.801 -0.1736 -3.2073 -1.1357
  110MOL0     H14813   5.349   1.075  10.742  1.9141 -0.8680  0.3946
  110MOL0     H14814   5.101   1.405  10.591 -0.6269  0.6023 -0.6818
  110MOL0     H14815   5.149   1.348  10.439 -2.2075 -1.1850 -1.7430
  110MOL0     H14816   4.965   1.177  10.446 -1.8849 -0.5673  0.5318
  110MOL0     H14817   4.942   1.221  10.619 -2.7445 -1.0708 -0.3580
  110MOL0     H14818   4.765   1.348  10.516  1.1809  2.2640  0.6289
  110MOL0     H14819   4.896   1.465  10.537 -2.6901  1.7327  0.7782
  110MOL0     H14820   4.854   1.312  10.274  5.2821 -1.8645  1.7343
  110MOL0     H14821   4.959   1.451  10.298  0.4447 -1.1224 -1.6408
  110MOL0     H14822   4.779   1.585  10.387  1.0197 -0.5403 -0.3227
  110MOL0     H14823   4.664   1.464  10.330 -1.4007 -0.6308  0.2189
  110MOL0     H14824   4.865   1.620  10.147  0.9153 -3.5860 -1.4533
  110MOL0     H14825   4.750   1.506  10.096  1.0682  1.1765 -0.7017
  110MOL0     H14826   4.700   1.776  10.227 -0.3460  1.5788 -1.7486
  110MOL0     H14827   4.577   1.649  10.194  0.4703  0.4715  0.8183
  110MOL0     H14828   4.751   1.774   9.977  0.5468 -1.0470 -1.1783
  110MOL0     H14829   4.633   1.646   9.955  0.7146  2.4097 -2.7212
  110MOL0     H14830   5.336   1.424  10.490  2.5333  2.0147 -0.0922
  110MOL0     H14831   5.594   1.445  10.523 -0.6234  1.4048 -0.8409
  110MOL0     H14832   5.980   1.275  10.655  5.0522 -1.2165 -0.3089
  110MOL0     H14833   6.200   1.291  10.692 -4.3625 -1.6709 -2.8354
  110MOL0     H14834   5.708   1.034  11.047 -0.0631 -1.1005 -1.0108
  110MOL0     H14835   5.534   1.058  11.229  2.5695 -0.9991  3.8321
  110MOL0     H14836   5.266   0.981  11.493  1.8578 -0.9513  0.3675
  110MOL0     H14837   5.087   1.029  11.636  0.6726 -0.1655 -1.5312
  110MOL0     H14838   5.057   0.861  11.947 -0.5884 -3.8458  2.6107
  110MOL0     H14839   4.904   0.763  11.927 -1.9753  1.2564  0.1480
  110MOL0     H14840   4.865   0.957  12.081 -3.1063 -0.6546 -0.1125
  110MOL0     H14841   4.768   0.956  11.936 -0.2953  1.7914  0.1454
  110MOL0     H14842   4.858   1.155  11.865  2.7004  2.3269 -1.4290
  110MOL0     H14843   5.019   1.089  11.864  1.0086  1.0739  0.1558
  110MOL0     H14844   5.015   1.132  12.124  0.6272 -1.5805  0.3195
  110MOL0     H14845   5.007   1.289  12.023 -1.3720  0.5313  1.0840
  110MOL0     H14846   4.621   1.248  12.195  1.9266  5.4111  2.2326
  110MOL0     H14847   5.030   0.608  11.725 -0.4821  0.3557  0.3171
  110MOL0     H14848   5.145   0.444  11.580  1.9248  0.9597  3.3314
  110MOL0     H14849   5.218   0.501  11.434  2.1559  3.1764 -1.3802
  110MOL0     H14850   5.310   0.473  11.595 -1.1225 -0.5289  3.2509
  111MOL0     O14851   3.484  11.128   1.886  0.4894 -0.0941  0.0374
  111MOL0     C14852   3.583  11.200   1.866  0.6201 -0.6929 -0.2993
  111MOL0     O14853   3.579  11.328   1.843  0.2168  0.8355  0.1745
  111MOL0     C14854   3.464  11.384   1.814 -0.2753 -0.0041  0.6745
  111MOL0     C14855   3.415  11.360   1.681 -1.1777  0.1014  0.2713
  111MOL0     C14856   3.313  11.446   1.638 -0.3035  0.9388 -0.3502
  111MOL0     C14857   3.252  11.545   1.722 -0.2894  0.4854 -0.0154
  111MOL0     O14858   3.158  11.632   1.684 -0.0101  0.6617 -0.5148
  111MOL0     C14859   3.163  11.675   1.546  0.4965 -0.6289 -0.1427
  111MOL0     C14860   3.164  11.832   1.545 -0.9798  0.1074  0.1838
  111MOL0     C14861   3.048  11.894   1.633 -0.2288 -1.0001 -0.2460
  111MOL0     C14862   3.028  12.047   1.592  0.1683  0.1646 -0.2452
  111MOL0     C14863   2.933  12.135   1.677  0.0940 -0.3303  0.1200
  111MOL0     C14864   2.913  12.270   1.611 -0.0393 -0.3941  1.6454
  111MOL0     C14865   2.835  12.367   1.709 -0.3928  0.2378 -1.1534
  111MOL0     C14866   2.814  12.505   1.634 -0.4055 -0.1791  0.5045
  111MOL0     N14867   2.931  12.595   1.637 -0.9518  0.1722  0.9157
  111MOL0     C14868   3.046  12.582   1.569  0.3345 -0.0762  0.7807
  111MOL0     C14869   3.129  12.688   1.622 -0.4767 -0.0302 -0.0089
  111MOL0     C14870   3.249  12.745   1.560  0.1535  0.0273  0.3683
  111MOL0     C14871   3.359  12.632   1.543 -0.8237 -0.8673 -0.3118
  111MOL0     C14872   3.469  12.692   1.452 -0.6303  0.4464 -0.2591
  111MOL0     C14873   3.597  12.611   1.418 -0.4612 -0.2200  0.0332
  111MOL0     O14874   3.553  12.488   1.361 -0.1385 -0.5905  1.3304
  111MOL0     C14875   3.649  12.398   1.330  0.3349  0.9885  0.0727
  111MOL0     C14876   3.663  12.291   1.418  0.2116 -0.0301  0.6799
  111MOL0     C14877   3.756  12.198   1.391 -0.5433  0.6049  0.4801
  111MOL0     C14878   3.845  12.198   1.294 -0.4229 -0.5213  0.4719
  111MOL0     C14879   3.933  12.079   1.265 -0.2441 -0.0622  0.1455
  111MOL0     O14880   3.909  11.960   1.320 -0.2773 -0.5340  0.4548
  111MOL0     C14881   3.946  11.851   1.238  0.2054  0.7188 -0.3593
  111MOL0     C14882   4.059  11.777   1.269  0.4806  0.0681 -0.2823
  111MOL0     C14883   4.071  11.660   1.196  0.0957 -0.2710 -0.2021
  111MOL0     C14884   3.975  11.611   1.106 -0.3965 -0.1621 -1.1642
  111MOL0     O14885   3.981  11.500   1.049  0.4029  0.9204 -0.0724
  111MOL0     C14886   4.117  11.444   1.031 -0.0204 -0.3131 -0.0010
  111MOL0     C14887   4.133  11.389   0.890  0.5693 -0.8120  0.4798
  111MOL0     C14888   4.141  11.502   0.775  0.0799 -0.0341 -0.3032
  111MOL0     C14889   4.104  11.433   0.652  0.1097 -0.8494  0.4076
  111MOL0     C14890   4.104  11.532   0.534 -0.5858  0.6415  0.0878
  111MOL0     C14891   4.067  11.467   0.406  0.9432 -0.0674 -0.0150
  111MOL0     C14892   4.118  11.551   0.284 -0.2022  0.5922  0.3116
  111MOL0     C14893   4.067  11.517   0.146 -0.5185  0.5790 -0.0387
  111MOL0    Cl14894   4.108  11.347   0.119  0.3244 -0.1434 -0.3404
  111MOL0     C14895   3.870  11.685   1.070 -0.5925  0.0210 -0.8406
  111MOL0     C14896   3.863  11.809   1.134 -0.3937 -0.4802 -0.2985
  111MOL0     O14897   4.025  12.104   1.177 -0.3586 -0.2946 -0.4372
  111MOL0     C14898   3.839  12.316   1.205  0.6677 -0.6946  0.1940
  111MOL0     C14899   3.734  12.410   1.218  1.0028  0.0336  0.5282
  111MOL0     N14900   3.061  12.748   1.725 -0.6077 -0.4318 -0.0597
  111MOL0     N14901   2.951  12.693   1.729  0.1855 -0.7723 -0.0480
  111MOL0     C14902   3.303  11.553   1.855  0.1508  0.9693  0.2109
  111MOL0     C14903   3.410  11.476   1.901 -0.3032 -0.3884 -0.0594
  111MOL0     C14904   3.715  11.130   1.851 -0.5937 -0.5348 -0.7711
  111MOL0     C14905   3.812  11.182   1.761 -0.8329 -0.2450 -0.6607
  111MOL0     C14906   3.927  11.115   1.728 -0.2684 -0.1219 -0.3280
  111MOL0     C14907   3.964  10.994   1.785 -1.1707  0.7551 -0.0970
  111MOL0     O14908   4.085  10.933   1.752  0.6258  0.5958 -0.2479
  111MOL0     C14909   4.167  10.979   1.644  0.6477 -0.0070  0.1676
  111MOL0     C14910   4.314  10.953   1.677  0.4057  0.2780  0.0230
  111MOL0     C14911   4.414  10.993   1.569 -0.0957  0.4585  0.1451
  111MOL0     C14912   4.466  11.137   1.581  0.5945  0.7303  0.7039
  111MOL0     C14913   4.534  11.172   1.712 -1.2097  0.3820  0.5067
  111MOL0     C14914   4.584  11.217   1.818 -0.3808  0.5738  0.3553
  111MOL0     C14915   3.873  10.944   1.884 -0.4420 -0.0881 -0.0091
  111MOL0     C14916   3.751  11.006   1.914  0.0992 -1.1733  0.9513
  111MOL0     C14917   3.665  10.936   2.023 -0.1732  0.5934  0.6086
  111MOL0     H14918   3.456  11.278   1.623 -0.0130  0.8363  0.0372
  111MOL0     H14919   3.284  11.418   1.537  1.5312  1.6879 -1.1401
  111MOL0     H14920   3.249  11.646   1.485  0.8037  1.8976 -1.0067
  111MOL0     H14921   3.069  11.656   1.492  0.0576  0.7851  0.0940
  111MOL0     H14922   3.160  11.866   1.441 -3.1976 -1.1251 -0.1877
  111MOL0     H14923   3.264  11.857   1.582 -1.0947  2.6872 -1.0623
  111MOL0     H14924   3.076  11.881   1.738  0.9163 -1.6770 -0.6173
  111MOL0     H14925   2.956  11.837   1.620 -0.5287 -0.1932 -2.0543
  111MOL0     H14926   3.125  12.098   1.590 -0.5718  1.6757  0.9166
  111MOL0     H14927   2.996  12.058   1.488 -2.3705  1.5558  0.5864
  111MOL0     H14928   2.831  12.095   1.679 -1.2557  2.5435 -2.6361
  111MOL0     H14929   2.981  12.145   1.775  0.5787 -0.6416 -0.0831
  111MOL0     H14930   3.006  12.308   1.568  0.3961 -4.0368 -1.0820
  111MOL0     H14931   2.853  12.254   1.521  1.7425 -0.5411  0.4374
  111MOL0     H14932   2.890  12.390   1.801  1.0499  0.5105 -2.0564
  111MOL0     H14933   2.745  12.316   1.746  0.2979  0.8054  1.5451
  111MOL0     H14934   2.773  12.498   1.533 -0.6763 -0.5703  0.6386
  111MOL0     H14935   2.741  12.560   1.694  1.1024  2.0425  0.4066
  111MOL0     H14936   3.058  12.514   1.485  1.2746  1.5391 -0.4499
  111MOL0     H14937   3.206  12.783   1.467  1.1460  2.5101  0.8360
  111MOL0     H14938   3.282  12.834   1.613 -0.3855  0.6637 -0.3386
  111MOL0     H14939   3.401  12.600   1.639  1.9666 -3.1909 -2.1660
  111MOL0     H14940   3.320  12.536   1.508  1.3434 -2.2793  0.9056
  111MOL0     H14941   3.500  12.789   1.490 -1.2441  1.0853 -1.3377
  111MOL0     H14942   3.411  12.716   1.362 -1.3727  3.0734  0.8506
  111MOL0     H14943   3.651  12.593   1.512 -2.1465 -0.9666  0.8883
  111MOL0     H14944   3.662  12.661   1.346 -0.0580 -1.9842 -0.8725
  111MOL0     H14945   3.597  12.297   1.504  0.3012 -0.4624  0.7792
  111MOL0     H14946   3.754  12.110   1.455  0.2097 -1.1667 -1.8078
  111MOL0     H14947   4.129  11.797   1.349 -0.2958 -1.2517  0.7771
  111MOL0     H14948   4.156  11.594   1.207 -1.4135 -2.1242  1.1201
  111MOL0     H14949   4.188  11.527   1.028 -0.6802  0.2764  0.1359
  111MOL0     H14950   4.149  11.370   1.105 -3.9014 -0.3862  1.8713
  111MOL0     H14951   4.222  11.326   0.878 -0.0705 -1.5238 -0.7513
  111MOL0     H14952   4.046  11.325   0.871 -0.9857  1.3146 -0.0254
  111MOL0     H14953   4.067  11.581   0.797  0.3097 -0.4752  2.4843
  111MOL0     H14954   4.241  11.546   0.772  0.5454 -0.9684  0.7866
  111MOL0     H14955   4.000  11.401   0.665 -0.0488 -1.2238 -1.5072
  111MOL0     H14956   4.177  11.353   0.635 -0.4081 -1.6712  1.9046
  111MOL0     H14957   4.204  11.576   0.526 -1.1200  2.1877  1.3461
  111MOL0     H14958   4.051  11.623   0.564  2.6177  1.5920  3.4660
  111MOL0     H14959   4.113  11.369   0.396 -1.5573 -1.2275 -0.7606
  111MOL0     H14960   3.958  11.459   0.411  0.9381  0.5230  1.7502
  111MOL0     H14961   4.226  11.542   0.289 -0.2114  0.8600  1.1202
  111MOL0     H14962   4.092  11.656   0.299 -0.0234  0.9328 -1.5535
  111MOL0     H14963   3.958  11.530   0.142 -0.4935  0.6857 -0.3314
  111MOL0     H14964   4.113  11.575   0.066  3.2093 -2.0311 -0.0236
  111MOL0     H14965   3.793  11.662   0.998 -1.5887 -2.3426  0.8561
  111MOL0     H14966   3.781  11.866   1.092  1.0417  0.1617 -2.3712
  111MOL0     H14967   3.916  12.316   1.129 -0.9899 -1.3182 -1.5782
  111MOL0     H14968   3.722  12.492   1.148 -0.5574  0.4444  1.2349
  111MOL0     H14969   3.252  11.622   1.922 -1.3287 -0.4701  0.6328
  111MOL0     H14970   3.432  11.489   2.006  1.3229 -3.9444  0.1772
  111MOL0     H14971   3.785  11.271   1.706 -0.3161 -0.6254 -1.5479
  111MOL0     H14972   3.983  11.177   1.658  1.5425  1.1360  2.0659
  111MOL0     H14973   4.163  11.084   1.613  0.3851 -0.4004 -1.1989
  111MOL0     H14974   4.139  10.919   1.557  0.3561  0.5190 -0.1082
  111MOL0     H14975   4.331  10.845   1.680  1.8388  0.4979  0.7108
  111MOL0     H14976   4.335  10.992   1.777 -0.9435 -0.1264  0.4804
  111MOL0     H14977   4.368  10.978   1.471 -1.8747 -1.7154  1.2074
  111MOL0     H14978   4.507  10.937   1.581  1.4365  1.9333 -3.5438
  111MOL0     H14979   4.533  11.168   1.499 -0.3203 -0.2650 -0.4653
  111MOL0     H14980   4.381  11.206   1.575 -0.4968 -0.6652 -1.8145
  111MOL0     H14981   4.621  11.266   1.906  0.8975  0.1669  0.0588
  111MOL0     H14982   3.898  10.846   1.924  3.6657  0.7251 -0.1278
  111MOL0     H14983   3.635  11.007   2.100 -0.8898  3.4694 -2.1294
  111MOL0     H14984   3.576  10.889   1.980  0.3935  1.2048 -1.3274
  111MOL0     H14985   3.726  10.854   2.065  0.2456  1.4481  1.7291
  112MOL0     O14986   5.421   6.996   1.263  0.2847  0.3337 -0.8211
  112MOL0     C14987   5.473   7.007   1.156  0.1239 -0.0111 -0.1383
  112MOL0     O14988   5.591   7.075   1.129 -0.1574 -0.4935  0.4810
  112MOL0     C14989   5.647   7.153   1.223 -0.1324 -0.5919 -0.8179
  112MOL0     C14990   5.652   7.283   1.182 -0.4561 -0.0424  0.7956
  112MOL0     C14991   5.705   7.385   1.266  0.5105  1.1450  0.0804
  112MOL0     C14992   5.760   7.354   1.396 -0.2341 -0.0635 -0.8859
  112MOL0     O14993   5.813   7.432   1.498  0.6665 -0.1510  0.0619
  112MOL0     C14994   5.825   7.574   1.465  0.4852  0.6650 -0.0693
  112MOL0     C14995   5.710   7.651   1.522  0.0097  0.4466  0.7373
  112MOL0     C14996   5.576   7.621   1.453  0.7469 -1.5284  0.1370
  112MOL0     C14997   5.459   7.696   1.529  0.3973 -0.2999 -0.0312
  112MOL0     C14998   5.439   7.642   1.669  0.2148  0.1050  0.2445
  112MOL0     C14999   5.305   7.687   1.723  0.2005 -0.0842 -0.0386
  112MOL0     C15000   5.263   7.635   1.857 -0.4151  0.5794 -0.5224
  112MOL0     C15001   5.147   7.718   1.905  0.3495 -0.5307  0.2212
  112MOL0     N15002   5.102   7.670   2.032  0.3885  0.1828 -0.7914
  112MOL0     C15003   5.086   7.755   2.143  0.0429  0.2468  0.2654
  112MOL0     C15004   5.073   7.661   2.237  0.0975 -1.2516  0.0740
  112MOL0     C15005   5.073   7.682   2.386  0.4406  0.0932 -1.0779
  112MOL0     C15006   4.942   7.662   2.458 -0.7239 -0.8469  0.6449
  112MOL0     C15007   4.910   7.511   2.506 -0.9877  0.1392 -0.2457
  112MOL0     C15008   4.834   7.438   2.409 -0.8885  0.4036  0.0770
  112MOL0     O15009   4.728   7.495   2.340  0.4829 -0.5267 -0.1185
  112MOL0     C15010   4.606   7.513   2.399  0.0194 -0.4267  0.4619
  112MOL0     C15011   4.519   7.587   2.318  0.4625  0.0640  0.5973
  112MOL0     C15012   4.391   7.612   2.367 -0.0617 -0.0806 -0.1131
  112MOL0     C15013   4.359   7.565   2.497 -0.5604 -0.0549  0.6511
  112MOL0     C15014   4.217   7.596   2.549  0.2469  0.8283  0.7767
  112MOL0     O15015   4.106   7.609   2.456  0.0879 -0.4270  0.2895
  112MOL0     C15016   3.982   7.600   2.515 -0.4267  0.9985  0.3973
  112MOL0     C15017   3.895   7.499   2.486 -0.1037 -0.1931 -0.4701
  112MOL0     C15018   3.780   7.490   2.561 -0.0982  0.5066 -0.5782
  112MOL0     C15019   3.751   7.574   2.661  0.2201  0.2755 -0.4895
  112MOL0     O15020   3.639   7.537   2.735  0.1737  0.0331  0.0972
  112MOL0     C15021   3.590   7.621   2.846 -0.6667 -0.3993 -0.5819
  112MOL0     C15022   3.444   7.649   2.807  0.4610 -0.3658  0.1335
  112MOL0     C15023   3.389   7.765   2.889 -0.1838 -0.5010  0.2374
  112MOL0     C15024   3.237   7.763   2.871  0.5526  1.1152 -0.4483
  112MOL0     C15025   3.171   7.844   2.983  0.0750  0.9759 -0.6502
  112MOL0     C15026   3.202   7.993   2.977  1.0376 -0.3320 -0.4063
  112MOL0     C15027   3.194   8.056   3.119 -0.3736 -0.5792  0.3479
  112MOL0     C15028   3.306   8.014   3.209 -0.4765  0.3699  0.4512
  112MOL0    Cl15029   3.334   8.156   3.331  0.2562  0.0431  0.0690
  112MOL0     C15030   3.838   7.682   2.689  1.5685 -0.7295  0.1802
  112MOL0     C15031   3.952   7.690   2.613  0.5650 -0.3574  0.1499
  112MOL0     O15032   4.211   7.576   2.667 -0.1718 -0.7711  0.4911
  112MOL0     C15033   4.454   7.488   2.573  0.2086  0.4990 -0.5434
  112MOL0     C15034   4.575   7.472   2.525 -0.1296 -1.0366  0.7374
  112MOL0     N15035   5.072   7.533   2.190 -0.3238  0.3796  0.4990
  112MOL0     N15036   5.097   7.543   2.060 -0.7790  0.3558 -0.2376
  112MOL0     C15037   5.747   7.220   1.440  0.1033  0.5930  0.3317
  112MOL0     C15038   5.689   7.115   1.350  0.4608  0.4136  0.1949
  112MOL0     C15039   5.403   6.951   1.031  0.0914 -0.1104  0.5626
  112MOL0     C15040   5.471   6.957   0.905 -0.5166 -0.5736 -0.5713
  112MOL0     C15041   5.427   6.910   0.781  0.5257 -0.8548  0.6138
  112MOL0     C15042   5.302   6.850   0.785  1.2051 -0.4409  0.1400
  112MOL0     O15043   5.242   6.797   0.674 -0.2121  0.9587  0.5987
  112MOL0     C15044   5.306   6.793   0.553 -0.8260 -0.4955  0.8429
  112MOL0     C15045   5.207   6.788   0.439  0.7370  0.2626  1.5441
  112MOL0     C15046   5.137   6.644   0.450  0.2684 -0.3018 -0.3695
  112MOL0     C15047   5.068   6.607   0.316  0.4344  0.1729 -0.3863
  112MOL0     C15048   4.997   6.715   0.249 -0.0463  0.7238 -0.1220
  112MOL0     C15049   4.933   6.810   0.216 -0.5462 -0.0091 -0.2984
  112MOL0     C15050   5.235   6.832   0.907 -0.6254 -1.6646 -0.7863
  112MOL0     C15051   5.293   6.865   1.028 -0.2870 -1.2599  0.6270
  112MOL0     C15052   5.224   6.812   1.154 -0.4946 -0.2036  0.7196
  112MOL0     H15053   5.605   7.309   1.088 -1.7789  0.1925  1.4929
  112MOL0     H15054   5.709   7.486   1.226  0.2692  0.1359 -2.7147
  112MOL0     H15055   5.915   7.613   1.514 -0.2855  3.3454 -0.6146
  112MOL0     H15056   5.839   7.597   1.359 -0.4010 -3.1059 -1.1290
  112MOL0     H15057   5.729   7.758   1.517 -0.6381  0.5175 -0.5255
  112MOL0     H15058   5.707   7.628   1.629 -1.9684 -3.4242  0.0505
  112MOL0     H15059   5.556   7.515   1.435 -1.2505 -1.6344  2.4223
  112MOL0     H15060   5.576   7.681   1.361  2.9386  3.6760  3.0655
  112MOL0     H15061   5.488   7.801   1.539 -1.3126  0.4790 -2.3620
  112MOL0     H15062   5.373   7.680   1.464  0.6785  1.8443 -1.0328
  112MOL0     H15063   5.453   7.534   1.675  3.3130  0.5016  1.6771
  112MOL0     H15064   5.510   7.677   1.744  0.5150  2.8915 -1.2209
  112MOL0     H15065   5.309   7.796   1.719 -0.6847 -0.0605 -0.5842
  112MOL0     H15066   5.229   7.678   1.645  0.6968  1.9897 -0.8268
  112MOL0     H15067   5.343   7.646   1.931 -1.5328 -0.6909  0.9537
  112MOL0     H15068   5.232   7.530   1.858  2.2214 -0.2904 -1.4870
  112MOL0     H15069   5.180   7.821   1.914 -1.5400  0.1275  0.0626
  112MOL0     H15070   5.067   7.723   1.830 -0.5001  2.9132  1.1968
  112MOL0     H15071   5.087   7.863   2.145  0.7176  0.3503 -2.4345
  112MOL0     H15072   5.148   7.610   2.421  1.2039  0.5049 -1.8278
  112MOL0     H15073   5.111   7.784   2.397  1.6852 -0.3136 -1.3703
  112MOL0     H15074   4.964   7.718   2.549  1.0550 -0.7258  0.1663
  112MOL0     H15075   4.861   7.712   2.404  2.1537  1.0256 -2.2476
  112MOL0     H15076   4.857   7.525   2.601  1.6792  4.7966  0.8884
  112MOL0     H15077   5.008   7.464   2.519  0.3664  2.5405 -1.1388
  112MOL0     H15078   4.802   7.346   2.459  1.1027 -0.0283  0.6450
  112MOL0     H15079   4.901   7.400   2.331 -2.3080  0.2716 -1.1508
  112MOL0     H15080   4.551   7.619   2.220  2.8877  1.0535  1.6331
  112MOL0     H15081   4.320   7.655   2.297 -0.9080 -1.8291 -0.3910
  112MOL0     H15082   3.919   7.420   2.416 -0.2588  2.8260 -4.2965
  112MOL0     H15083   3.719   7.407   2.525  0.7397  1.2693 -4.1476
  112MOL0     H15084   3.607   7.566   2.938  0.8053  2.4169  0.9712
  112MOL0     H15085   3.635   7.721   2.847 -0.1888 -0.5734  2.2646
  112MOL0     H15086   3.429   7.679   2.703 -1.5260 -2.7534 -0.3927
  112MOL0     H15087   3.396   7.553   2.830  1.4492 -0.5959  1.3690
  112MOL0     H15088   3.415   7.765   2.996  1.8755 -0.2878 -0.2376
  112MOL0     H15089   3.414   7.861   2.843 -2.4000 -0.5298 -1.2035
  112MOL0     H15090   3.196   7.662   2.877 -1.2739  1.8783  0.4835
  112MOL0     H15091   3.210   7.795   2.770 -1.2969 -2.0374 -1.0949
  112MOL0     H15092   3.203   7.799   3.077 -1.9863 -1.2356 -0.9353
  112MOL0     H15093   3.068   7.814   2.967  0.6087 -0.9736 -0.6567
  112MOL0     H15094   3.302   8.013   2.936  0.6933 -1.3055 -1.8162
  112MOL0     H15095   3.124   8.043   2.918  0.7173 -1.0952 -0.6436
  112MOL0     H15096   3.102   8.030   3.171 -1.6530  2.3645 -0.2414
  112MOL0     H15097   3.196   8.165   3.109 -3.2586 -0.0176  4.0501
  112MOL0     H15098   3.271   7.926   3.264 -0.8418 -1.0788 -1.9737
  112MOL0     H15099   3.402   7.989   3.162  0.6581  1.3548  2.1430
  112MOL0     H15100   3.830   7.757   2.767 -2.8235 -1.1322  0.3805
  112MOL0     H15101   4.019   7.774   2.629  1.5574 -1.0658 -0.2179
  112MOL0     H15102   4.438   7.443   2.671 -3.1630 -1.0662 -1.6582
  112MOL0     H15103   4.641   7.416   2.590  0.1196 -1.2611  0.2937
  112MOL0     H15104   5.763   7.205   1.546 -3.8280 -2.7449  0.6667
  112MOL0     H15105   5.685   7.007   1.359  1.9048  0.2797 -0.3824
  112MOL0     H15106   5.571   6.997   0.900 -0.4751 -0.5908  0.0802
  112MOL0     H15107   5.482   6.926   0.689 -2.9035  4.2083 -0.9532
  112MOL0     H15108   5.384   6.717   0.543 -1.4718 -0.9645 -1.2141
  112MOL0     H15109   5.351   6.892   0.537 -0.4070 -0.7684  0.2855
  112MOL0     H15110   5.230   6.801   0.333 -0.3429 -1.4918  1.0264
  112MOL0     H15111   5.139   6.870   0.462  1.9882  2.6606 -2.3207
  112MOL0     H15112   5.064   6.661   0.530  0.0628  1.7038 -0.9273
  112MOL0     H15113   5.206   6.562   0.470  2.1662  1.8554  2.7061
  112MOL0     H15114   5.143   6.570   0.246 -0.1799 -3.0077  0.4800
  112MOL0     H15115   4.996   6.526   0.325  0.7689 -0.1020 -0.1335
  112MOL0     H15116   4.878   6.892   0.174 -3.4761  0.3104  3.6265
  112MOL0     H15117   5.134   6.794   0.900 -0.5990 -1.4769 -2.7165
  112MOL0     H15118   5.160   6.890   1.197 -1.4436 -0.7230  0.2825
  112MOL0     H15119   5.168   6.723   1.125 -0.6076 -0.1361  0.7325
  112MOL0     H15120   5.304   6.777   1.220 -2.5544 -1.3233  2.7870
  113MOL0     O15121   3.375  10.015   8.487 -0.4059  0.0906  0.1143
  113MOL0     C15122   3.336   9.958   8.588  0.2859 -0.2040  0.4568
  113MOL0     O15123   3.209   9.963   8.629 -0.0332  0.3741  0.0272
  113MOL0     C15124   3.119  10.029   8.556 -0.0936 -0.7328  0.3217
  113MOL0     C15125   3.104  10.167   8.566 -0.2601 -0.6533 -0.8083
  113MOL0     C15126   3.007  10.236   8.502  0.6559  0.3630  0.3363
  113MOL0     C15127   2.938  10.172   8.399  0.2861 -0.4822 -0.4651
  113MOL0     O15128   2.853  10.258   8.330 -0.6605  0.2186 -0.1411
  113MOL0     C15129   2.858  10.233   8.187  0.0032 -0.2717  0.2940
  113MOL0     C15130   2.782  10.350   8.115  0.0249 -0.6144 -0.6199
  113MOL0     C15131   2.823  10.327   7.968 -0.2417 -0.5394 -0.8854
  113MOL0     C15132   2.740  10.430   7.881 -0.8249 -0.3427  0.8151
  113MOL0     C15133   2.758  10.416   7.730 -0.3852  0.2177 -0.5485
  113MOL0     C15134   2.647  10.458   7.637  0.3519  0.4499 -0.4799
  113MOL0     C15135   2.690  10.462   7.486  0.2427  0.5991  0.3454
  113MOL0     C15136   2.691  10.314   7.427  0.4643 -0.0586 -0.0879
  113MOL0     N15137   2.562  10.261   7.405  0.3659 -0.4387  0.2372
  113MOL0     C15138   2.492  10.171   7.477  0.2282 -0.2136  0.6622
  113MOL0     C15139   2.383  10.126   7.398  0.5265 -0.3303  0.0900
  113MOL0     C15140   2.277  10.021   7.438 -0.6523  0.0952  0.1247
  113MOL0     C15141   2.138  10.092   7.464 -0.1317 -0.0414  0.1519
  113MOL0     C15142   2.059  10.092   7.331 -0.0128 -0.1712  0.0895
  113MOL0     C15143   1.920  10.155   7.343 -0.4993 -0.4693  0.2189
  113MOL0     O15144   1.838  10.091   7.446  0.2540 -0.6037  0.0186
  113MOL0     C15145   1.791  10.183   7.541  0.1815  0.4494  0.3444
  113MOL0     C15146   1.657  10.221   7.516  0.1555  0.2318 -0.1726
  113MOL0     C15147   1.600  10.322   7.603 -1.1330  0.4201  1.3140
  113MOL0     C15148   1.674  10.371   7.711 -1.5086 -0.3686  0.0881
  113MOL0     C15149   1.620  10.486   7.792 -0.3989 -0.3650 -0.1431
  113MOL0     O15150   1.702  10.547   7.868  0.1414 -0.2610  0.0193
  113MOL0     C15151   1.655  10.635   7.961  0.5677 -0.4283 -0.5385
  113MOL0     C15152   1.739  10.745   7.981  0.3503  0.8041 -0.0769
  113MOL0     C15153   1.711  10.847   8.077  0.7413 -0.4343  0.0839
  113MOL0     C15154   1.598  10.841   8.157  0.1087  0.5310 -0.2705
  113MOL0     O15155   1.540  10.935   8.244  0.2829  0.9547  0.1413
  113MOL0     C15156   1.595  11.061   8.261  0.1909 -0.7198  0.5561
  113MOL0     C15157   1.488  11.150   8.336 -0.2185 -0.4408  0.4266
  113MOL0     C15158   1.389  11.218   8.246 -0.1907 -0.1624  0.5045
  113MOL0     C15159   1.450  11.328   8.166 -0.4413 -0.5061 -0.5080
  113MOL0     C15160   1.349  11.384   8.072 -1.0039 -0.0893  1.7913
  113MOL0     C15161   1.405  11.482   7.965  0.1591  0.1676  0.1147
  113MOL0     C15162   1.498  11.587   8.023 -0.2884 -0.9087  0.6869
  113MOL0     C15163   1.507  11.711   7.931 -0.4602 -0.8737  0.1468
  113MOL0    Cl15164   1.529  11.666   7.764 -0.1362 -0.5705  0.3740
  113MOL0     C15165   1.508  10.735   8.130  0.0799  0.9164  0.6885
  113MOL0     C15166   1.537  10.634   8.036 -1.0896 -0.2627 -0.5777
  113MOL0     O15167   1.507  10.513   7.765 -0.3621  0.6939 -0.8171
  113MOL0     C15168   1.806  10.311   7.743 -0.0374  0.8127  0.2446
  113MOL0     C15169   1.858  10.214   7.659  0.7709  0.3486 -0.2882
  113MOL0     N15170   2.386  10.211   7.288 -0.3756  1.2395 -0.0689
  113MOL0     N15171   2.484  10.291   7.295 -0.5026 -0.6701  1.0828
  113MOL0     C15172   2.957  10.037   8.381  0.9820 -0.2091  0.3352
  113MOL0     C15173   3.034   9.958   8.469  0.6383  0.1775 -0.3001
  113MOL0     C15174   3.445   9.902   8.675 -0.2722  0.6889  0.0303
  113MOL0     C15175   3.580   9.944   8.664 -0.1343 -0.1692  1.0522
  113MOL0     C15176   3.678   9.879   8.734 -0.2509 -0.0619 -0.2949
  113MOL0     C15177   3.649   9.782   8.831  0.5834 -0.2684  0.0686
  113MOL0     O15178   3.753   9.726   8.905  0.4095  0.2265  1.5845
  113MOL0     C15179   3.781   9.587   8.876 -1.0813  0.0274  0.5870
  113MOL0     C15180   3.775   9.547   8.728 -0.4084  0.5423  0.5587
  113MOL0     C15181   3.806   9.401   8.687  0.4188  1.1728  0.3978
  113MOL0     C15182   3.849   9.386   8.539 -0.2265  0.1633 -1.1635
  113MOL0     C15183   3.870   9.240   8.511  1.3083 -0.6024  0.2892
  113MOL0     C15184   3.886   9.120   8.512 -0.0339  0.7936 -0.1786
  113MOL0     C15185   3.521   9.745   8.849 -0.2599  0.5203  0.4466
  113MOL0     C15186   3.412   9.791   8.764  0.2993 -0.6928 -0.5339
  113MOL0     C15187   3.276   9.729   8.782  0.0982 -0.9058 -0.9113
  113MOL0     H15188   3.153  10.223   8.645 -2.8537 -2.6921  2.5228
  113MOL0     H15189   2.996  10.343   8.518  2.4462  0.3548  2.0387
  113MOL0     H15190   2.963  10.221   8.158  0.1916  2.9047 -0.7903
  113MOL0     H15191   2.788  10.151   8.170 -4.0314  2.6233  1.4237
  113MOL0     H15192   2.813  10.448   8.151  3.1568 -1.5149 -0.5785
  113MOL0     H15193   2.677  10.324   8.133  0.4255 -3.1249 -1.4732
  113MOL0     H15194   2.803  10.226   7.931  0.1146 -0.7081 -0.6179
  113MOL0     H15195   2.930  10.347   7.967 -0.4463  1.2366  2.2351
  113MOL0     H15196   2.634  10.406   7.890 -0.9481 -0.0328  0.2313
  113MOL0     H15197   2.757  10.533   7.913 -0.5916  0.3189 -1.3186
  113MOL0     H15198   2.854  10.459   7.703 -1.2602  3.8447  1.4855
  113MOL0     H15199   2.758  10.308   7.711 -1.4723  0.0629  0.1909
  113MOL0     H15200   2.563  10.390   7.653  2.0105 -1.3349  1.2689
  113MOL0     H15201   2.621  10.558   7.672 -2.0423 -0.2165 -0.2093
  113MOL0     H15202   2.789  10.504   7.469  2.3724 -3.7943  0.7171
  113MOL0     H15203   2.621  10.517   7.420 -1.4449 -3.8433 -1.9852
  113MOL0     H15204   2.741  10.321   7.331 -0.8562 -0.4243 -0.8291
  113MOL0     H15205   2.749  10.247   7.491  2.2887 -1.3806 -2.9342
  113MOL0     H15206   2.523  10.119   7.567  0.6401 -1.9336 -0.4257
  113MOL0     H15207   2.275   9.939   7.365 -1.1840 -2.2463  2.5757
  113MOL0     H15208   2.303   9.980   7.536 -3.7039  2.9567  2.3580
  113MOL0     H15209   2.084  10.037   7.542 -0.8178  1.8054  1.0477
  113MOL0     H15210   2.150  10.194   7.503 -0.1886 -0.2720  0.7857
  113MOL0     H15211   2.045   9.991   7.292 -4.6923  0.7147 -1.1888
  113MOL0     H15212   2.123  10.153   7.267 -2.2748  1.1477 -1.0542
  113MOL0     H15213   1.860  10.147   7.252 -2.0636  0.3961  1.1368
  113MOL0     H15214   1.930  10.262   7.365  1.9609 -0.4439 -0.7603
  113MOL0     H15215   1.605  10.207   7.421 -1.1147  0.7439  0.4127
  113MOL0     H15216   1.500  10.353   7.573 -0.1931  4.9186  2.0676
  113MOL0     H15217   1.825  10.752   7.915 -0.4294 -1.9446 -1.5720
  113MOL0     H15218   1.778  10.927   8.107 -0.9223  0.4721  1.5311
  113MOL0     H15219   1.687  11.063   8.320  0.8689  1.8227 -0.4704
  113MOL0     H15220   1.631  11.097   8.164  3.7168  1.3407  2.4175
  113MOL0     H15221   1.437  11.075   8.398 -0.6768 -3.6466 -3.4062
  113MOL0     H15222   1.537  11.221   8.403  1.1889 -1.0471  0.0837
  113MOL0     H15223   1.338  11.146   8.181  1.1703 -1.8655  1.2454
  113MOL0     H15224   1.314  11.270   8.306  0.5842  1.4075  0.1684
  113MOL0     H15225   1.538  11.289   8.115 -0.2941 -0.1283 -0.5464
  113MOL0     H15226   1.480  11.417   8.222 -2.0344  0.2999 -0.8412
  113MOL0     H15227   1.270  11.432   8.129 -1.8779  0.5122  0.1217
  113MOL0     H15228   1.306  11.300   8.016 -0.0506  1.3245 -1.3237
  113MOL0     H15229   1.456  11.438   7.879 -0.1138  0.8896 -0.4351
  113MOL0     H15230   1.319  11.521   7.909 -0.0963  2.7621  2.1263
  113MOL0     H15231   1.591  11.532   8.041 -0.4586 -1.0949  1.0278
  113MOL0     H15232   1.457  11.622   8.118 -1.2576 -0.1631  0.0051
  113MOL0     H15233   1.418  11.772   7.946 -0.3424 -0.7569  0.3910
  113MOL0     H15234   1.594  11.777   7.941 -1.0973 -0.0167  0.1926
  113MOL0     H15235   1.420  10.730   8.193  0.5780  0.6739  1.3796
  113MOL0     H15236   1.457  10.562   8.017  0.7303 -1.7576 -3.3343
  113MOL0     H15237   1.872  10.350   7.820  2.7712  0.8399 -2.0102
  113MOL0     H15238   1.955  10.174   7.687  1.8321  2.6170 -0.5246
  113MOL0     H15239   2.895   9.997   8.302 -1.8951  0.8225  1.9448
  113MOL0     H15240   3.014   9.852   8.464 -0.6814  0.2412  2.0799
  113MOL0     H15241   3.598  10.034   8.607 -2.5965 -0.2144  0.0638
  113MOL0     H15242   3.782   9.907   8.744 -0.0052 -1.7397  5.2855
  113MOL0     H15243   3.692   9.530   8.905  0.1058 -3.6633 -2.2046
  113MOL0     H15244   3.872   9.560   8.930  0.0326  0.0950 -1.1801
  113MOL0     H15245   3.844   9.612   8.672  0.0298 -0.6209 -0.3139
  113MOL0     H15246   3.675   9.564   8.687 -1.0744 -0.8309  1.5455
  113MOL0     H15247   3.729   9.325   8.705  0.5342 -0.2002 -3.7752
  113MOL0     H15248   3.885   9.368   8.754 -1.4436 -1.8293  1.3150
  113MOL0     H15249   3.788   9.436   8.463 -2.4564 -1.0615 -0.2453
  113MOL0     H15250   3.947   9.435   8.539  0.4094 -0.7768  3.0042
  113MOL0     H15251   3.905   9.015   8.515 -0.4663  0.5692 -3.1157
  113MOL0     H15252   3.496   9.677   8.930  1.6561 -3.5914 -2.0730
  113MOL0     H15253   3.275   9.648   8.855 -0.9014  0.1539  0.2999
  113MOL0     H15254   3.210   9.805   8.826  0.8315 -0.8221  0.0743
  113MOL0     H15255   3.222   9.697   8.693 -1.5176  0.9018 -0.6596
  114MOL0     O15256   7.528   6.677  10.949  0.5330  0.0850  0.4400
  114MOL0     C15257   7.553   6.796  10.969 -0.2867 -0.0773 -0.2801
  114MOL0     O15258   7.662   6.863  10.910 -0.2830  0.2921  0.7016
  114MOL0     C15259   7.742   6.785  10.831 -0.1192  0.0631  0.4977
  114MOL0     C15260   7.812   6.668  10.857 -1.0993 -0.2162 -0.3731
  114MOL0     C15261   7.907   6.614  10.770 -1.0851 -0.1669  0.7136
  114MOL0     C15262   7.951   6.676  10.655 -0.1275 -0.0126  1.5192
  114MOL0     O15263   8.048   6.612  10.574 -0.2033 -0.2847  0.7132
  114MOL0     C15264   8.088   6.676  10.458  0.7093 -0.2788 -0.1341
  114MOL0     C15265   7.981   6.654  10.342 -0.3203 -0.2590  0.4943
  114MOL0     C15266   7.964   6.504  10.308 -0.0785  0.8904 -0.2477
  114MOL0     C15267   7.868   6.492  10.194 -0.4841 -0.4812 -0.7218
  114MOL0     C15268   7.834   6.347  10.151 -0.0964  0.6141 -0.5933
  114MOL0     C15269   7.713   6.356  10.058 -0.4267  0.4558 -0.2590
  114MOL0     C15270   7.759   6.395   9.918 -0.0981 -1.0207  1.1531
  114MOL0     C15271   7.659   6.371   9.796 -0.4749 -0.5168  0.2563
  114MOL0     N15272   7.585   6.246   9.792 -0.2512  0.1038 -0.7021
  114MOL0     C15273   7.633   6.126   9.835  0.2125  0.1538  0.5594
  114MOL0     C15274   7.531   6.044   9.847  0.7837 -0.1085 -0.9726
  114MOL0     C15275   7.523   5.900   9.894 -0.1405 -0.2244  0.0758
  114MOL0     C15276   7.454   5.806   9.794  0.7386  0.2833  0.1314
  114MOL0     C15277   7.372   5.707   9.868 -0.6086 -0.5022  0.5148
  114MOL0     C15278   7.333   5.581   9.800 -0.2111  0.4525  0.4278
  114MOL0     O15279   7.267   5.585   9.671 -0.4989  0.4682 -0.6896
  114MOL0     C15280   7.290   5.486   9.573  1.0129 -0.3482  0.5865
  114MOL0     C15281   7.308   5.520   9.441 -0.1226 -1.0370 -0.0604
  114MOL0     C15282   7.338   5.425   9.350 -0.1877  0.5158 -0.4341
  114MOL0     C15283   7.341   5.284   9.382 -1.0135 -0.1949 -0.8563
  114MOL0     C15284   7.359   5.179   9.278  0.2560  1.4292 -0.6026
  114MOL0     O15285   7.442   5.218   9.174  0.4197 -0.4660 -0.2324
  114MOL0     C15286   7.424   5.164   9.050  0.3610  0.1110 -0.6886
  114MOL0     C15287   7.306   5.104   9.010 -0.0090 -0.5115  2.0204
  114MOL0     C15288   7.304   5.058   8.872 -0.4525 -0.3577  0.6411
  114MOL0     C15289   7.415   5.079   8.787  0.6085  0.8911  0.4713
  114MOL0     O15290   7.397   5.030   8.658  0.5385 -0.0799  0.5900
  114MOL0     C15291   7.479   5.083   8.557  0.4292  0.9527  0.4279
  114MOL0     C15292   7.441   5.015   8.420 -0.7336  0.3231 -0.1327
  114MOL0     C15293   7.462   4.863   8.406 -0.6768  0.5188  0.6056
  114MOL0     C15294   7.609   4.813   8.390 -0.0769 -0.0947 -0.2645
  114MOL0     C15295   7.669   4.774   8.534  0.2599 -0.1976 -0.9760
  114MOL0     C15296   7.798   4.688   8.532 -0.8951  0.0878  0.6501
  114MOL0     C15297   7.847   4.644   8.669  0.4674  0.0692 -0.1359
  114MOL0     C15298   7.877   4.754   8.766 -0.6524  0.5115 -0.3519
  114MOL0    Cl15299   8.004   4.875   8.703 -0.0647  0.2355 -0.4686
  114MOL0     C15300   7.531   5.138   8.839  0.0301  0.2021 -0.2627
  114MOL0     C15301   7.535   5.167   8.969 -0.7719 -0.2183  0.1227
  114MOL0     O15302   7.312   5.064   9.292  0.3314 -0.3116  0.3257
  114MOL0     C15303   7.315   5.259   9.515  0.3372  0.6487 -0.1079
  114MOL0     C15304   7.283   5.360   9.604 -0.6473  0.3806 -0.7118
  114MOL0     N15305   7.421   6.119   9.811 -0.0864  0.5098 -0.2118
  114MOL0     N15306   7.451   6.242   9.783 -0.0425 -0.0939  0.9573
  114MOL0     C15307   7.893   6.805  10.632 -0.1047  0.3674 -0.2544
  114MOL0     C15308   7.786   6.847  10.710 -0.6829 -0.1828 -0.2508
  114MOL0     C15309   7.475   6.890  11.049  1.1586 -0.5139 -0.1643
  114MOL0     C15310   7.433   7.013  10.980 -0.4419 -0.1642 -0.6664
  114MOL0     C15311   7.325   7.082  11.046 -0.6189 -0.4171  0.5713
  114MOL0     C15312   7.271   7.048  11.174  0.9200 -0.3586  0.8120
  114MOL0     O15313   7.163   7.117  11.235 -0.7341 -0.9893 -0.2161
  114MOL0     C15314   7.089   7.201  11.152  0.8089 -0.7050 -0.0097
  114MOL0     C15315   6.993   7.291  11.236 -0.6568  0.7237  0.9582
  114MOL0     C15316   6.896   7.231  11.343  0.0743  0.6884 -1.2393
  114MOL0     C15317   6.860   7.340  11.448 -0.7649 -0.2122 -0.7279
  114MOL0     C15318   6.745   7.303  11.531 -1.0067 -0.6546  0.4311
  114MOL0     C15319   6.634   7.265  11.569  1.2466 -0.4397 -0.2047
  114MOL0     C15320   7.317   6.931  11.235 -0.5862  0.0706  0.1425
  114MOL0     C15321   7.422   6.854  11.174  0.7698  0.5753 -0.5432
  114MOL0     C15322   7.469   6.737  11.248 -0.4774  0.1642  0.7011
  114MOL0     H15323   7.794   6.612  10.948  1.8119  0.1764  0.5402
  114MOL0     H15324   7.969   6.532  10.802  1.1052  1.0810 -0.1007
  114MOL0     H15325   8.101   6.783  10.474  0.6501 -0.2127 -0.5114
  114MOL0     H15326   8.187   6.652  10.418  0.7385  0.3649 -0.4503
  114MOL0     H15327   8.031   6.691  10.252  0.1652  1.7960  1.5327
  114MOL0     H15328   7.888   6.708  10.361 -2.0324 -3.3404  1.4823
  114MOL0     H15329   7.930   6.451  10.398  2.6862  1.1710  1.0678
  114MOL0     H15330   8.055   6.451  10.279 -0.6857  0.5033 -1.5526
  114MOL0     H15331   7.776   6.540  10.230 -0.4975 -0.8948 -0.1988
  114MOL0     H15332   7.927   6.536  10.114  4.3823 -1.1256  2.1400
  114MOL0     H15333   7.922   6.311  10.098  1.4835  3.9454 -0.5174
  114MOL0     H15334   7.817   6.280  10.235 -2.4878 -1.1889 -2.3592
  114MOL0     H15335   7.684   6.251  10.058  6.6824 -2.0433 -1.4933
  114MOL0     H15336   7.640   6.427  10.097 -0.7670 -0.2146  0.3452
  114MOL0     H15337   7.853   6.339   9.906  1.0192  1.1081 -0.7955
  114MOL0     H15338   7.792   6.499   9.912 -3.4733  0.1013 -0.6713
  114MOL0     H15339   7.586   6.453   9.796  0.9785  1.0567  4.8230
  114MOL0     H15340   7.717   6.371   9.703  2.1146 -0.1860  1.7999
  114MOL0     H15341   7.737   6.099   9.855 -0.5977 -1.4367  3.0715
  114MOL0     H15342   7.621   5.871   9.933 -1.6510 -4.1382  1.4273
  114MOL0     H15343   7.467   5.894   9.988  0.2747  1.3885  0.4648
  114MOL0     H15344   7.398   5.862   9.718  1.7149  1.4273  0.2330
  114MOL0     H15345   7.543   5.757   9.755  0.6060 -1.2483  1.6433
  114MOL0     H15346   7.279   5.759   9.890 -0.9083 -0.7573 -0.1245
  114MOL0     H15347   7.428   5.674   9.956  2.6014 -0.0943 -1.2213
  114MOL0     H15348   7.260   5.548   9.874  0.8827  0.8201  1.7171
  114MOL0     H15349   7.406   5.499   9.792  0.8540  0.9853  3.3286
  114MOL0     H15350   7.328   5.623   9.414  2.2711 -1.3920  0.1042
  114MOL0     H15351   7.375   5.452   9.252  2.9511  2.0392  1.0237
  114MOL0     H15352   7.215   5.103   9.068 -1.4059  1.4768  0.0284
  114MOL0     H15353   7.211   5.014   8.837  1.6702 -3.9088 -1.1262
  114MOL0     H15354   7.479   5.192   8.543  0.8777  1.2622  2.5050
  114MOL0     H15355   7.576   5.044   8.588 -0.9675 -1.3084  2.2484
  114MOL0     H15356   7.332   5.021   8.406 -1.1247  2.8075  2.7890
  114MOL0     H15357   7.493   5.059   8.335 -1.1337  0.5253 -0.2749
  114MOL0     H15358   7.425   4.809   8.493  3.8292 -3.1202  0.6601
  114MOL0     H15359   7.410   4.830   8.316  0.8846 -2.8615  0.7662
  114MOL0     H15360   7.677   4.884   8.343 -0.6116  2.5619  2.6579
  114MOL0     H15361   7.603   4.730   8.318 -0.9513 -0.0640 -0.2347
  114MOL0     H15362   7.600   4.714   8.594  1.5733 -1.5545 -0.7548
  114MOL0     H15363   7.700   4.861   8.593  0.1051 -1.0133  0.3481
  114MOL0     H15364   7.793   4.597   8.471 -1.1388  1.0187 -0.7837
  114MOL0     H15365   7.879   4.739   8.479 -0.1872 -1.0447  0.6065
  114MOL0     H15366   7.942   4.596   8.645 -0.0590  0.1971 -2.7677
  114MOL0     H15367   7.786   4.565   8.715  2.9299 -1.2738  1.0382
  114MOL0     H15368   7.788   4.813   8.789 -0.6870  1.6155 -2.8753
  114MOL0     H15369   7.921   4.713   8.857  4.1019  2.6446 -1.3566
  114MOL0     H15370   7.623   5.150   8.783  0.6059 -2.8093 -0.1274
  114MOL0     H15371   7.630   5.200   9.011 -0.4514 -1.6176  0.5612
  114MOL0     H15372   7.310   5.153   9.538  0.8174  0.0645 -2.4206
  114MOL0     H15373   7.250   5.345   9.706 -1.3265  3.0450 -0.4964
  114MOL0     H15374   7.912   6.869  10.546  4.2266 -2.0653 -1.3682
  114MOL0     H15375   7.734   6.941  10.693  0.0920 -0.0146 -1.9010
  114MOL0     H15376   7.485   7.042  10.890  0.3232  0.3530 -0.0762
  114MOL0     H15377   7.280   7.160  10.985  1.0040  0.5627  0.5784
  114MOL0     H15378   7.037   7.146  11.073  0.3581  0.0052 -0.2119
  114MOL0     H15379   7.153   7.273  11.101 -1.9689 -0.2249 -3.1762
  114MOL0     H15380   6.929   7.346  11.166 -0.1335 -0.7950 -0.7898
  114MOL0     H15381   7.053   7.374  11.275  0.7258  1.2079 -1.9293
  114MOL0     H15382   6.947   7.152  11.400  0.2648 -0.1411 -2.5221
  114MOL0     H15383   6.807   7.195  11.292 -0.1034  2.8546 -2.5560
  114MOL0     H15384   6.947   7.352  11.513  0.4993 -3.5674 -1.5596
  114MOL0     H15385   6.846   7.438  11.403  1.1805  1.8322  2.6896
  114MOL0     H15386   6.544   7.226  11.612  2.8377 -2.2303  1.7394
  114MOL0     H15387   7.251   6.897  11.315 -1.7813 -3.1989 -2.0305
  114MOL0     H15388   7.417   6.724  11.344 -1.9404  0.7790  0.0232
  114MOL0     H15389   7.458   6.645  11.190 -1.3470  0.4217  0.4488
  114MOL0     H15390   7.575   6.755  11.268 -0.2084 -1.7079  1.2230
  115MOL0     O15391  10.250  10.382   9.133  0.2988 -0.3781 -0.0355
  115MOL0     C15392  10.255  10.338   9.244 -1.2104  1.4941  1.0641
  115MOL0     O15393  10.295  10.214   9.273 -0.9419  0.2054 -0.0157
  115MOL0     C15394  10.333  10.114   9.177  0.4733 -1.3721 -0.5539
  115MOL0     C15395  10.463  10.069   9.177 -0.2691  0.0061  0.2863
  115MOL0     C15396  10.501   9.961   9.095 -0.2267 -0.4028 -0.4407
  115MOL0     C15397  10.407   9.910   9.000  0.2208 -0.1183 -0.5119
  115MOL0     O15398  10.436   9.789   8.942 -0.3007  0.6705 -0.6912
  115MOL0     C15399  10.336   9.715   8.877  0.5334 -0.0117 -0.7849
  115MOL0     C15400  10.254   9.640   8.979 -0.0694  0.7791  0.3072
  115MOL0     C15401  10.125   9.570   8.908  0.4915 -0.5375  0.2929
  115MOL0     C15402  10.159   9.487   8.786  0.2700 -0.0039 -0.3338
  115MOL0     C15403  10.057   9.412   8.707 -0.0914  0.2628 -0.8143
  115MOL0     C15404  10.045   9.261   8.743 -0.4259 -0.5875  0.8582
  115MOL0     C15405  10.119   9.194   8.865  0.1815 -0.4863 -0.8663
  115MOL0     C15406  10.226   9.104   8.828  0.0292 -0.4717 -0.0439
  115MOL0     N15407  10.294   9.030   8.946 -0.5887 -0.6415  0.4777
  115MOL0     C15408  10.362   8.912   8.939  1.2406 -0.4639 -0.0143
  115MOL0     C15409  10.395   8.889   9.070  0.0916  0.1848  0.1039
  115MOL0     C15410  10.469   8.763   9.122  0.2565 -0.4733 -0.7400
  115MOL0     C15411  10.602   8.804   9.197  0.0287 -0.1245  0.2951
  115MOL0     C15412  10.704   8.872   9.102 -0.5222 -0.2842 -1.2929
  115MOL0     C15413  10.777   8.787   9.007  0.0560  0.8056 -0.1890
  115MOL0     O15414  10.763   8.847   8.881 -0.0480 -0.1425 -1.1894
  115MOL0     C15415  10.845   8.801   8.783 -1.0923 -0.6307 -0.9485
  115MOL0     C15416  10.831   8.870   8.666  0.1187 -0.3674  0.2164
  115MOL0     C15417  10.886   8.826   8.539  0.2419 -0.2637 -0.0132
  115MOL0     C15418  10.955   8.706   8.530 -0.2859  0.6970  0.5554
  115MOL0     C15419  11.006   8.646   8.407  0.6969  0.3794  0.8581
  115MOL0     O15420  11.008   8.517   8.404 -0.9338 -0.0667 -0.1526
  115MOL0     C15421  11.102   8.455   8.321 -0.7940 -0.5882 -0.0319
  115MOL0     C15422  11.242   8.504   8.310  1.1102 -0.0430 -0.0722
  115MOL0     C15423  11.327   8.450   8.210 -0.4552 -1.0109  0.8390
  115MOL0     C15424  11.274   8.345   8.127 -0.8707  0.7333  0.3457
  115MOL0     O15425  11.372   8.312   8.031  0.4090  0.0493  0.0998
  115MOL0     C15426  11.350   8.190   7.957  0.3161 -0.3416  0.7104
  115MOL0     C15427  11.441   8.195   7.846 -0.7580 -0.3433  0.0707
  115MOL0     C15428  11.578   8.142   7.888 -0.5921  0.0636  0.1170
  115MOL0     C15429  11.660   8.220   7.992  0.0963 -0.3059 -0.3506
  115MOL0     C15430  11.810   8.186   7.989  0.1168  0.8686  0.4866
  115MOL0     C15431  11.837   8.046   8.040  0.2209 -0.5856 -0.1381
  115MOL0     C15432  11.976   7.998   8.039 -1.1267 -0.9427  0.5265
  115MOL0     C15433  12.068   8.078   8.130  1.1947  0.0923  0.2277
  115MOL0    Cl15434  12.207   7.973   8.158 -0.0685 -0.3846  0.3938
  115MOL0     C15435  11.142   8.304   8.130  0.2265 -0.8612  0.5500
  115MOL0     C15436  11.062   8.364   8.226 -0.1229  0.0440  0.1117
  115MOL0     O15437  11.024   8.725   8.309  0.7189  0.7619  0.4224
  115MOL0     C15438  10.978   8.648   8.659  0.2310 -0.4200 -0.6300
  115MOL0     C15439  10.922   8.685   8.783  0.2436 -0.4214  0.2759
  115MOL0     N15440  10.324   8.974   9.153  0.4101 -0.4621 -0.5116
  115MOL0     N15441  10.262   9.057   9.070 -0.1817 -0.0754 -0.4882
  115MOL0     C15442  10.282   9.983   8.980 -0.8036 -0.7300 -0.6996
  115MOL0     C15443  10.244  10.082   9.076 -0.2803  0.3486 -0.0266
  115MOL0     C15444  10.218  10.423   9.357  0.1973 -0.0264 -0.5901
  115MOL0     C15445  10.254  10.383   9.481 -0.9054  0.2365 -0.8152
  115MOL0     C15446  10.211  10.445   9.594  0.6719 -0.2600  0.3389
  115MOL0     C15447  10.109  10.538   9.588 -0.3772 -0.3741  1.0464
  115MOL0     O15448  10.032  10.578   9.694  0.1805  0.6063  0.3061
  115MOL0     C15449  10.095  10.552   9.819  0.0860  1.2040 -0.9213
  115MOL0     C15450  10.019  10.621   9.933 -0.0634  0.7846 -0.8574
  115MOL0     C15451   9.868  10.596   9.934  0.1550 -0.6624 -0.4507
  115MOL0     C15452   9.797  10.693  10.030 -1.0320 -0.2239  0.3917
  115MOL0     C15453   9.825  10.670  10.171 -0.5682 -0.5276 -0.6724
  115MOL0     C15454   9.862  10.656  10.288 -0.1791 -0.1159  0.4104
  115MOL0     C15455  10.069  10.587   9.463  1.1406 -0.2861  0.9543
  115MOL0     C15456  10.122  10.531   9.346  0.7601  0.0155  0.4001
  115MOL0     C15457  10.070  10.599   9.223  0.3697  0.5590  0.3577
  115MOL0     H15458  10.514  10.110   9.263 -0.0621  0.1690  0.0865
  115MOL0     H15459  10.600   9.920   9.106 -0.1055  0.1826  0.9655
  115MOL0     H15460  10.280   9.770   8.801  0.8726 -0.0367 -1.0558
  115MOL0     H15461  10.388   9.646   8.809  2.3341  1.0739 -0.5842
  115MOL0     H15462  10.215   9.712   9.052 -0.1251 -0.0079  1.0586
  115MOL0     H15463  10.298   9.553   9.028  0.8426 -0.2087 -2.1469
  115MOL0     H15464  10.065   9.654   8.871  3.6017  0.6415 -2.5798
  115MOL0     H15465  10.078   9.509   8.986  0.5506  0.5050  1.1737
  115MOL0     H15466  10.203   9.565   8.722  1.8199  0.6479  1.4337
  115MOL0     H15467  10.246   9.421   8.795  0.6821  0.0493 -3.1033
  115MOL0     H15468   9.955   9.450   8.722 -0.0335 -0.3512  1.5421
  115MOL0     H15469  10.077   9.422   8.600 -2.3950  0.8488 -1.2628
  115MOL0     H15470   9.937   9.248   8.748 -0.7093  0.2227 -1.7093
  115MOL0     H15471  10.066   9.211   8.648 -2.5459  0.3000 -0.1282
  115MOL0     H15472  10.040   9.151   8.928  0.5408 -3.2665 -2.1713
  115MOL0     H15473  10.168   9.263   8.933  2.0720 -0.9016 -1.7508
  115MOL0     H15474  10.182   9.029   8.762 -0.1555 -1.6781  1.3989
  115MOL0     H15475  10.298   9.159   8.765 -1.7794  1.5880 -0.4148
  115MOL0     H15476  10.398   8.853   8.855 -3.0240 -0.0628 -2.3617
  115MOL0     H15477  10.400   8.712   9.190 -2.2537  0.3816 -2.4844
  115MOL0     H15478  10.499   8.695   9.042 -0.7513 -1.4680 -0.2972
  115MOL0     H15479  10.567   8.871   9.276 -0.1292 -0.7671  0.7872
  115MOL0     H15480  10.641   8.710   9.239 -0.0236 -1.0459 -1.6358
  115MOL0     H15481  10.778   8.927   9.161 -0.5764 -1.9461  0.4313
  115MOL0     H15482  10.649   8.944   9.040  1.1447  1.9072 -0.3673
  115MOL0     H15483  10.730   8.693   8.979  2.1635  0.9886 -5.5121
  115MOL0     H15484  10.881   8.770   9.037 -0.6401 -2.5142  0.6572
  115MOL0     H15485  10.781   8.966   8.666  2.2764  0.8567 -1.3323
  115MOL0     H15486  10.887   8.889   8.450  0.0293 -0.5031 -0.1863
  115MOL0     H15487  11.285   8.585   8.368  0.9499 -0.4117  0.5724
  115MOL0     H15488  11.422   8.501   8.196 -1.9196  1.0750 -2.5490
  115MOL0     H15489  11.360   8.100   8.018 -0.0968  0.5355  2.1061
  115MOL0     H15490  11.248   8.189   7.918 -0.2142 -0.4765  2.0631
  115MOL0     H15491  11.415   8.138   7.756  7.0885 -1.3625 -2.3447
  115MOL0     H15492  11.449   8.298   7.808  0.1805 -0.7211 -0.7981
  115MOL0     H15493  11.552   8.040   7.915 -3.2578  0.5702 -0.2184
  115MOL0     H15494  11.641   8.129   7.800  0.6011 -1.3927  1.1415
  115MOL0     H15495  11.623   8.188   8.090 -0.0657 -1.9437 -0.9016
  115MOL0     H15496  11.643   8.326   7.973 -1.1008 -0.9064 -3.1756
  115MOL0     H15497  11.857   8.263   8.051 -0.7733  1.5029  0.3904
  115MOL0     H15498  11.841   8.189   7.885 -0.3374  0.9961  0.3528
  115MOL0     H15499  11.806   8.041   8.145  0.7500  2.4304  0.2631
  115MOL0     H15500  11.770   7.984   7.980  0.9037 -1.1777 -0.3033
  115MOL0     H15501  12.002   8.002   7.933 -2.6996  3.1538  0.0809
  115MOL0     H15502  11.967   7.896   8.076  1.4504 -0.7198  2.0472
  115MOL0     H15503  12.091   8.172   8.079 -0.0232  0.2965  0.0288
  115MOL0     H15504  12.024   8.104   8.227  1.2556  0.5009  0.1476
  115MOL0     H15505  11.101   8.248   8.047 -1.0655  1.2051 -0.2894
  115MOL0     H15506  10.957   8.338   8.218 -0.3638  1.2479 -0.9222
  115MOL0     H15507  11.039   8.559   8.647  2.5877  1.3837 -3.0079
  115MOL0     H15508  10.949   8.629   8.871 -2.6020  0.7451  2.0471
  115MOL0     H15509  10.224   9.970   8.889 -0.5994 -0.4503 -0.8729
  115MOL0     H15510  10.151  10.138   9.075  0.4295  1.5650  0.8820
  115MOL0     H15511  10.307  10.289   9.496 -0.4216  0.5701 -0.4049
  115MOL0     H15512  10.247  10.395   9.683 -0.1046  0.9203  1.3356
  115MOL0     H15513  10.200  10.575   9.835 -0.2622  0.6014  3.6786
  115MOL0     H15514  10.087  10.444   9.835  0.2559  1.6645  3.1672
  115MOL0     H15515  10.035  10.730   9.938  0.4651  0.6785  0.0370
  115MOL0     H15516  10.057  10.586  10.030 -2.1219  4.2082  1.4070
  115MOL0     H15517   9.841  10.494   9.961 -0.9868 -1.5581 -4.3604
  115MOL0     H15518   9.833  10.609   9.831  3.5707  0.5757 -1.5960
  115MOL0     H15519   9.825  10.796  10.006  1.8409 -1.1269 -0.5496
  115MOL0     H15520   9.688  10.693  10.014 -0.7773 -1.0018 -1.6530
  115MOL0     H15521   9.884  10.638  10.391 -1.0179 -0.7925  0.4810
  115MOL0     H15522   9.999  10.670   9.462  3.2032  1.7108  3.9664
  115MOL0     H15523  10.055  10.706   9.241 -0.2748  0.2447  1.8648
  115MOL0     H15524  10.137  10.591   9.137  2.9653 -0.9052  2.3683
  115MOL0     H15525   9.971  10.562   9.195  0.4483  1.3698 -1.0875
  116MOL0     O15526  11.078   9.642  10.698  0.5548 -0.5781 -0.1182
  116MOL0     C15527  10.956   9.614  10.685 -0.1218  0.7410  0.1793
  116MOL0     O15528  10.864   9.701  10.645  0.4129  0.0043 -0.1688
  116MOL0     C15529  10.905   9.807  10.564  0.0813  1.2604  0.0511
  116MOL0     C15530  10.854   9.813  10.438 -0.2192  0.2865 -0.1473
  116MOL0     C15531  10.884   9.925  10.357 -0.3061  0.4693 -0.1907
  116MOL0     C15532  10.973  10.025  10.406 -0.1299 -0.1539 -0.0468
  116MOL0     O15533  10.994  10.136  10.338 -0.4102 -0.5759 -0.1378
  116MOL0     C15534  10.985  10.160  10.193  1.0075  0.4055 -0.3075
  116MOL0     C15535  11.122  10.211  10.139 -0.6971 -0.2755 -1.0265
  116MOL0     C15536  11.131  10.240   9.994  0.3997 -0.1537  1.4848
  116MOL0     C15537  11.062  10.378   9.953 -0.3226 -0.2816  0.5378
  116MOL0     C15538  11.086  10.408   9.805 -0.9514 -1.0368  0.2294
  116MOL0     C15539  10.994  10.322   9.724  0.0653 -0.5347 -0.0010
  116MOL0     C15540  10.963  10.377   9.579  0.9073 -0.5481 -0.5419
  116MOL0     C15541  10.883  10.288   9.485 -0.5393 -0.4866 -0.0983
  116MOL0     N15542  10.757  10.240   9.541 -0.3092  0.2322  0.1138
  116MOL0     C15543  10.717  10.109   9.567 -0.3815 -0.5409 -0.6468
  116MOL0     C15544  10.583  10.115   9.568 -0.2289 -0.2642 -0.4489
  116MOL0     C15545  10.476  10.008   9.551  0.5667 -0.7503  0.8707
  116MOL0     C15546  10.402   9.969   9.677  0.6351  0.4195  0.2976
  116MOL0     C15547  10.476   9.877   9.767  1.1611 -0.3661  0.4384
  116MOL0     C15548  10.394   9.869   9.894 -0.0234  0.0163 -1.3870
  116MOL0     O15549  10.478   9.806   9.992  1.0190  0.2153  0.6305
  116MOL0     C15550  10.419   9.730  10.097 -0.2019  0.5334  0.1178
  116MOL0     C15551  10.511   9.632  10.149  0.2106  0.1361 -0.0767
  116MOL0     C15552  10.459   9.534  10.234  0.3765  0.2066 -0.1218
  116MOL0     C15553  10.319   9.543  10.286 -0.3154  0.4496  0.2344
  116MOL0     C15554  10.267   9.441  10.383  0.0864  1.2629  0.4632
  116MOL0     O15555  10.133   9.392  10.360 -0.7283  0.2560  0.2365
  116MOL0     C15556  10.086   9.296  10.437  0.1928 -0.5231  0.0920
  116MOL0     C15557  10.130   9.162  10.415  0.4465 -0.0238  0.8375
  116MOL0     C15558  10.084   9.056  10.497  0.6125 -0.0279  0.2012
  116MOL0     C15559  10.010   9.097  10.607  0.1380 -1.1015  0.4857
  116MOL0     O15560   9.973   9.002  10.688 -0.5126  1.3080 -0.3634
  116MOL0     C15561   9.876   8.904  10.633  0.8223 -0.9390  0.6065
  116MOL0     C15562   9.913   8.765  10.687  0.2745 -0.8360  0.5523
  116MOL0     C15563   9.874   8.753  10.834  0.1099  0.7005  0.2584
  116MOL0     C15564   9.929   8.619  10.887  0.4308 -0.6741  0.0878
  116MOL0     C15565   9.854   8.488  10.838 -0.1277 -0.0113  0.0589
  116MOL0     C15566   9.716   8.487  10.926 -0.4760 -0.3850 -1.0149
  116MOL0     C15567   9.645   8.351  10.915 -0.1619  0.1829  0.2084
  116MOL0     C15568   9.607   8.320  10.768  0.1446 -0.2973 -1.2104
  116MOL0    Cl15569   9.495   8.176  10.774  0.2713  0.2170 -0.5524
  116MOL0     C15570   9.984   9.234  10.639 -0.0609 -0.0022  0.0314
  116MOL0     C15571  10.006   9.329  10.545 -0.3667  0.4146 -0.6239
  116MOL0     O15572  10.340   9.415  10.482  0.3030 -0.6214 -0.0864
  116MOL0     C15573  10.240   9.651  10.234 -0.2297 -0.3665  0.8709
  116MOL0     C15574  10.295   9.741  10.136 -0.9698 -0.7368  0.5485
  116MOL0     N15575  10.544  10.251   9.591 -0.2655 -0.7014  0.4993
  116MOL0     N15576  10.646  10.321   9.553  0.4097 -0.0946  0.4200
  116MOL0     C15577  11.010  10.022  10.537  0.0530 -1.0697 -0.6181
  116MOL0     C15578  10.986   9.908  10.614  0.9714  0.4947 -0.4813
  116MOL0     C15579  10.906   9.475  10.734 -0.2074 -0.9404 -1.0206
  116MOL0     C15580  10.769   9.445  10.712  0.5355  1.6929  0.6536
  116MOL0     C15581  10.703   9.330  10.763 -0.8279  0.1827 -0.2610
  116MOL0     C15582  10.778   9.248  10.848 -0.3607 -0.4736  0.1536
  116MOL0     O15583  10.728   9.137  10.904  0.2355  0.3892 -0.1025
  116MOL0     C15584  10.675   9.039  10.817  0.4664 -0.6853  0.6126
  116MOL0     C15585  10.712   8.896  10.862 -0.9441 -0.5838 -0.7551
  116MOL0     C15586  10.857   8.853  10.849  0.0287  1.5632 -1.0045
  116MOL0     C15587  10.894   8.706  10.897 -0.4228 -0.0463  0.3414
  116MOL0     C15588  10.864   8.682  11.034 -1.0355 -0.4257  0.2971
  116MOL0     C15589  10.818   8.664  11.145  0.5738 -1.0095  1.1385
  116MOL0     C15590  10.909   9.290  10.877  0.3268  0.6321 -0.2215
  116MOL0     C15591  10.977   9.390  10.818 -0.5186 -0.3547 -0.4884
  116MOL0     C15592  11.119   9.414  10.863  0.5723  0.1416 -1.0091
  116MOL0     H15593  10.805   9.723  10.402  2.4403 -1.9996  1.5094
  116MOL0     H15594  10.861   9.909  10.252  0.8410 -0.2850 -0.3424
  116MOL0     H15595  10.965  10.070  10.135  2.4089 -0.2354  0.1627
  116MOL0     H15596  10.899  10.223  10.165 -2.3726 -4.5352 -2.4353
  116MOL0     H15597  11.200  10.137  10.160 -0.9313 -0.2506  0.0340
  116MOL0     H15598  11.136  10.304  10.195  1.2483  0.5091 -2.6952
  116MOL0     H15599  11.085  10.153   9.947  4.7516 -0.9672 -1.9534
  116MOL0     H15600  11.237  10.242   9.966 -0.1642 -0.3253 -0.9622
  116MOL0     H15601  10.954  10.376   9.970 -1.2239  5.7701 -1.7949
  116MOL0     H15602  11.104  10.448  10.026  3.5425  0.5501 -2.1653
  116MOL0     H15603  11.052  10.511   9.794  0.0618 -0.5484  1.4253
  116MOL0     H15604  11.192  10.402   9.777 -0.3754  1.3397  1.5759
  116MOL0     H15605  11.023  10.217   9.716 -0.6722 -0.6690 -1.3708
  116MOL0     H15606  10.893  10.313   9.766  0.1481 -1.4187  0.0318
  116MOL0     H15607  11.053  10.408   9.525  0.1259 -1.3202 -2.3648
  116MOL0     H15608  10.905  10.468   9.601  0.7566 -0.8897  0.5630
  116MOL0     H15609  10.849  10.349   9.401  0.3187 -0.7593 -0.6631
  116MOL0     H15610  10.938  10.197   9.459  0.9592  0.5031 -0.5539
  116MOL0     H15611  10.783  10.025   9.544  2.7747  1.7428 -0.5863
  116MOL0     H15612  10.408  10.053   9.479  0.3967 -1.5282  0.5378
  116MOL0     H15613  10.534   9.927   9.506  0.6564 -0.3000  0.1626
  116MOL0     H15614  10.372  10.059   9.733  0.5910 -1.2193  3.0959
  116MOL0     H15615  10.306   9.924   9.650  0.2250  1.9360 -0.9660
  116MOL0     H15616  10.568   9.930   9.793  0.3083  0.8869  1.0295
  116MOL0     H15617  10.491   9.774   9.733 -2.0322 -1.6371  2.3626
  116MOL0     H15618  10.307   9.805   9.879  0.3818 -1.6818  2.3573
  116MOL0     H15619  10.353   9.969   9.916 -3.1019 -1.1504 -1.2904
  116MOL0     H15620  10.612   9.647  10.113  0.2034  0.7347  0.1382
  116MOL0     H15621  10.528   9.465  10.279  1.0236 -0.0013 -1.3887
  116MOL0     H15622  10.182   9.139  10.322 -1.1973 -1.0053  0.1139
  116MOL0     H15623  10.114   8.956  10.469 -2.5468 -0.6520 -1.3082
  116MOL0     H15624   9.775   8.925  10.670 -0.1132 -3.3650 -0.3947
  116MOL0     H15625   9.875   8.908  10.524 -6.5884 -1.8142  0.1182
  116MOL0     H15626   9.863   8.683  10.635  0.6815 -2.3206  2.4046
  116MOL0     H15627  10.018   8.745  10.668  0.0795  0.8913 -3.4551
  116MOL0     H15628   9.925   8.835  10.885  4.1457 -0.4012 -1.5641
  116MOL0     H15629   9.765   8.742  10.841  0.1849 -2.7896 -1.5560
  116MOL0     H15630   9.935   8.634  10.995  0.4036  1.8590 -0.2125
  116MOL0     H15631  10.031   8.611  10.848  0.4169 -2.4001  0.3060
  116MOL0     H15632   9.913   8.400  10.862 -1.2395 -0.7781  0.0419
  116MOL0     H15633   9.842   8.491  10.729  3.0460 -2.4046 -0.4787
  116MOL0     H15634   9.731   8.508  11.032 -0.2532 -1.5961 -0.7992
  116MOL0     H15635   9.645   8.563  10.891 -1.0736 -0.8117 -0.7520
  116MOL0     H15636   9.555   8.350  10.977  0.7514  1.8265  1.6405
  116MOL0     H15637   9.708   8.268  10.947 -1.8133 -2.4917 -2.9020
  116MOL0     H15638   9.554   8.409  10.734  2.2376  2.4398  2.0271
  116MOL0     H15639   9.693   8.293  10.706 -0.0414  0.8491 -1.9809
  116MOL0     H15640   9.950   9.254  10.740 -2.1592  1.5706 -0.9088
  116MOL0     H15641   9.992   9.437  10.556  1.5381  0.6585 -0.2645
  116MOL0     H15642  10.138   9.673  10.261 -0.7722 -1.4544 -0.1679
  116MOL0     H15643  10.228   9.810  10.085  1.0889 -0.6466 -2.2834
  116MOL0     H15644  11.063  10.105  10.582 -2.5941 -0.5221  1.8014
  116MOL0     H15645  11.025   9.907  10.715 -1.6178  1.2628  0.5930
  116MOL0     H15646  10.704   9.508  10.652 -3.8835 -0.3593  2.8169
  116MOL0     H15647  10.597   9.306  10.767 -0.5751 -1.0372  3.7660
  116MOL0     H15648  10.728   9.055  10.723 -0.1298  0.7280  0.4959
  116MOL0     H15649  10.567   9.041  10.807  0.2600  0.5289  2.4715
  116MOL0     H15650  10.652   8.820  10.811  1.4304 -3.0562 -0.0897
  116MOL0     H15651  10.687   8.885  10.968 -1.4846 -2.7501 -1.0720
  116MOL0     H15652  10.920   8.926  10.900 -3.2791  4.0249 -0.0885
  116MOL0     H15653  10.882   8.845  10.743 -0.0158  0.5425 -0.9449
  116MOL0     H15654  10.825   8.637  10.847  0.1892 -0.1769 -0.3266
  116MOL0     H15655  10.996   8.675  10.874  0.2170 -0.7433  3.5448
  116MOL0     H15656  10.767   8.655  11.239  0.6347  0.4050  1.3350
  116MOL0     H15657  10.967   9.221  10.937  0.6889  1.3567  0.2651
  116MOL0     H15658  11.127   9.509  10.917 -1.0623 -0.3091  0.1169
  116MOL0     H15659  11.157   9.338  10.932  1.3484  1.9976  0.6884
  116MOL0     H15660  11.191   9.406  10.781  3.4113  0.4817  1.2872
  117MOL0     O15661   1.120   4.125   6.084  0.5133 -0.3040 -0.0407
  117MOL0     C15662   0.999   4.141   6.111 -0.1574  0.9597 -0.3180
  117MOL0     O15663   0.951   4.259   6.143  0.4021 -0.3489 -0.2391
  117MOL0     C15664   1.021   4.377   6.138 -0.0986 -0.9514  0.4674
  117MOL0     C15665   1.004   4.476   6.042 -0.7782 -0.8297  1.0646
  117MOL0     C15666   1.082   4.588   6.027 -0.2012 -0.9892  0.4928
  117MOL0     C15667   1.180   4.614   6.127 -0.8676 -0.2293  0.3050
  117MOL0     O15668   1.252   4.733   6.121  0.3113  0.0723 -1.3250
  117MOL0     C15669   1.358   4.741   6.024  0.3226  0.3530 -0.0517
  117MOL0     C15670   1.331   4.792   5.881 -0.1104  0.2494 -0.0247
  117MOL0     C15671   1.268   4.935   5.884  0.6607  0.1066  0.1838
  117MOL0     C15672   1.361   5.057   5.906  0.0195 -0.5674 -0.6579
  117MOL0     C15673   1.295   5.180   5.961 -0.4131  0.8646  0.5846
  117MOL0     C15674   1.245   5.152   6.100 -0.2691  0.2608  0.2523
  117MOL0     C15675   1.284   5.269   6.187 -0.2326  0.4002 -1.1181
  117MOL0     C15676   1.206   5.302   6.317 -0.4933  0.4134  0.3141
  117MOL0     N15677   1.070   5.351   6.297  0.5071 -0.7938  0.9572
  117MOL0     C15678   1.049   5.480   6.255 -0.5353 -0.3930 -1.4168
  117MOL0     C15679   0.912   5.495   6.268 -0.2882  0.0150  0.6798
  117MOL0     C15680   0.834   5.621   6.249  0.0006 -0.0597  0.1995
  117MOL0     C15681   0.904   5.762   6.290  0.3151  1.2417 -0.4881
  117MOL0     C15682   0.937   5.783   6.442  0.8576 -0.1598 -0.3537
  117MOL0     C15683   1.064   5.714   6.488  0.0437 -0.2087 -0.4416
  117MOL0     O15684   1.182   5.766   6.429  0.1849 -0.0788 -0.6313
  117MOL0     C15685   1.290   5.758   6.518 -0.1002  0.5591  1.0490
  117MOL0     C15686   1.353   5.643   6.573 -0.2342  0.4265  0.8225
  117MOL0     C15687   1.474   5.650   6.653  1.1655 -0.0211 -0.4836
  117MOL0     C15688   1.530   5.772   6.692 -0.2891 -0.3152  0.4117
  117MOL0     C15689   1.622   5.786   6.805  0.3431 -0.2764 -0.2229
  117MOL0     O15690   1.666   5.911   6.832  0.1034  0.4779  0.5421
  117MOL0     C15691   1.764   5.937   6.926  0.1964  0.8093 -0.1548
  117MOL0     C15692   1.857   6.029   6.896 -0.5104 -0.5083  0.5028
  117MOL0     C15693   1.940   6.086   6.994 -0.2606  0.4148 -0.3361
  117MOL0     C15694   1.932   6.037   7.125  0.5715 -0.4018 -0.0486
  117MOL0     O15695   2.016   6.093   7.214 -0.0555  0.3498 -0.2292
  117MOL0     C15696   1.977   6.184   7.325  0.0531  0.3222  0.1569
  117MOL0     C15697   2.061   6.305   7.320  0.6488  1.1063 -0.0226
  117MOL0     C15698   2.000   6.394   7.433  0.6001 -0.4621 -0.7945
  117MOL0     C15699   2.093   6.506   7.487  0.7908 -0.8618 -0.3039
  117MOL0     C15700   2.154   6.578   7.361  0.5661 -0.5890 -0.1067
  117MOL0     C15701   2.253   6.682   7.414  0.2872 -0.4652  0.4750
  117MOL0     C15702   2.328   6.747   7.282  0.5110  0.0240  0.3369
  117MOL0     C15703   2.425   6.857   7.321  1.1615 -0.1434  0.3145
  117MOL0    Cl15704   2.577   6.796   7.391  0.3832  0.7939 -0.0055
  117MOL0     C15705   1.837   5.947   7.157 -0.5629  0.7922  0.0386
  117MOL0     C15706   1.746   5.898   7.059 -0.9836 -0.5059 -0.2821
  117MOL0     O15707   1.667   5.687   6.861  0.2067 -0.9769  0.1838
  117MOL0     C15708   1.469   5.883   6.629 -0.5975 -0.0463  0.4335
  117MOL0     C15709   1.358   5.876   6.546 -0.2188 -0.8640  0.8241
  117MOL0     N15710   0.859   5.372   6.311  1.0743 -0.8761 -0.2746
  117MOL0     N15711   0.961   5.299   6.349 -0.0340 -0.0854  0.4964
  117MOL0     C15712   1.181   4.528   6.238  0.0798  0.1859  0.6153
  117MOL0     C15713   1.114   4.403   6.239 -0.2847 -0.0619  0.4544
  117MOL0     C15714   0.912   4.021   6.123  0.1137  0.4877 -0.4720
  117MOL0     C15715   0.892   3.962   5.998  0.0522  0.1222 -0.4060
  117MOL0     C15716   0.784   3.868   5.987 -0.3864 -0.5240  0.3404
  117MOL0     C15717   0.710   3.827   6.095  0.4361 -1.0523 -0.5732
  117MOL0     O15718   0.612   3.740   6.076  0.0310  0.3690 -0.3581
  117MOL0     C15719   0.573   3.664   6.188 -0.5798  0.1683  0.2165
  117MOL0     C15720   0.555   3.516   6.140  0.5664  0.6806 -0.3093
  117MOL0     C15721   0.457   3.434   6.228  0.4828 -0.5699 -0.8413
  117MOL0     C15722   0.512   3.448   6.376 -0.0873 -0.1588  0.0801
  117MOL0     C15723   0.651   3.391   6.387  0.1275  0.4632  0.1042
  117MOL0     C15724   0.768   3.357   6.398  0.2626  0.5389  0.4847
  117MOL0     C15725   0.725   3.893   6.214 -0.2219  0.0664  0.5713
  117MOL0     C15726   0.830   3.987   6.230  0.0804  0.7724 -0.9546
  117MOL0     C15727   0.860   4.045   6.366 -1.0267  0.3079 -0.8468
  117MOL0     H15728   0.936   4.452   5.960  0.8444 -3.0596  0.2645
  117MOL0     H15729   1.057   4.658   5.948  0.8326 -2.8335 -1.5591
  117MOL0     H15730   1.436   4.809   6.059  2.7711 -2.1336 -0.3137
  117MOL0     H15731   1.407   4.643   6.021  3.1989  1.6985 -2.2849
  117MOL0     H15732   1.250   4.729   5.845 -1.7312  1.5249  1.1936
  117MOL0     H15733   1.420   4.780   5.820  1.2892  4.3075  0.8745
  117MOL0     H15734   1.193   4.941   5.963 -0.6801  3.9237 -1.1353
  117MOL0     H15735   1.208   4.950   5.794 -0.6979 -1.6313  0.7454
  117MOL0     H15736   1.436   5.039   5.984 -0.9838  2.1011  1.0631
  117MOL0     H15737   1.413   5.082   5.813  0.1447  2.5383  0.1498
  117MOL0     H15738   1.369   5.259   5.945  2.1305 -1.0373  2.2668
  117MOL0     H15739   1.201   5.201   5.908 -0.9485 -5.8357 -2.0810
  117MOL0     H15740   1.136   5.157   6.100 -0.2505  0.8287  0.6990
  117MOL0     H15741   1.266   5.052   6.139 -2.1913  0.1904  1.1941
  117MOL0     H15742   1.295   5.361   6.129  1.1723  0.7237 -0.3922
  117MOL0     H15743   1.385   5.249   6.222  0.5879 -0.0223 -3.5357
  117MOL0     H15744   1.189   5.209   6.373  0.8895 -1.2534 -1.8767
  117MOL0     H15745   1.269   5.361   6.383 -0.9041 -2.2179  3.2793
  117MOL0     H15746   1.130   5.551   6.243 -2.6612  2.5927  0.5447
  117MOL0     H15747   0.811   5.624   6.142 -1.1138 -0.1738  0.4207
  117MOL0     H15748   0.734   5.608   6.293 -0.2273  1.7902  0.2941
  117MOL0     H15749   0.995   5.769   6.229  1.5852  1.2408  1.3258
  117MOL0     H15750   0.846   5.841   6.242 -2.6056 -2.4242 -3.6513
  117MOL0     H15751   0.848   5.762   6.502  1.2197 -1.4114 -0.2355
  117MOL0     H15752   0.946   5.892   6.450  1.0903 -0.1626 -0.5629
  117MOL0     H15753   1.067   5.605   6.485 -0.8112 -0.2142 -1.3218
  117MOL0     H15754   1.073   5.746   6.592 -0.2469 -1.2349 -0.0917
  117MOL0     H15755   1.325   5.544   6.538  3.0889  0.8165 -3.8787
  117MOL0     H15756   1.509   5.557   6.696 -3.2770 -1.7638 -0.0804
  117MOL0     H15757   1.857   6.074   6.797 -1.5203 -1.0905  0.2263
  117MOL0     H15758   2.007   6.166   6.964  0.4435 -0.1481 -0.2959
  117MOL0     H15759   1.870   6.205   7.324 -0.2307 -0.9909  0.1174
  117MOL0     H15760   1.984   6.136   7.424  0.5552  1.3563  0.6442
  117MOL0     H15761   2.160   6.266   7.343  1.0137  1.7054 -0.5377
  117MOL0     H15762   2.068   6.353   7.222  4.5612  1.1915  0.1594
  117MOL0     H15763   1.911   6.442   7.391 -0.5972 -0.3499  1.6828
  117MOL0     H15764   1.965   6.329   7.513  0.4088  2.0493  1.3196
  117MOL0     H15765   2.176   6.467   7.546  1.0133  1.1601  0.8091
  117MOL0     H15766   2.037   6.588   7.533  0.3566 -0.8337 -0.8573
  117MOL0     H15767   2.072   6.621   7.302  0.1949  0.6001  1.2255
  117MOL0     H15768   2.201   6.512   7.288 -3.2487 -1.1549 -2.3576
  117MOL0     H15769   2.214   6.767   7.472  1.8150  2.6887 -2.6982
  117MOL0     H15770   2.332   6.646   7.482  3.4197  2.7581 -1.0759
  117MOL0     H15771   2.249   6.798   7.225 -1.7124 -1.3800  1.9813
  117MOL0     H15772   2.387   6.675   7.225  0.6287 -2.1670  3.0377
  117MOL0     H15773   2.454   6.919   7.236 -1.5782 -0.9458 -1.3401
  117MOL0     H15774   2.374   6.910   7.403 -1.4836  0.5583 -1.6503
  117MOL0     H15775   1.811   5.918   7.259 -0.1058  0.4410  0.0583
  117MOL0     H15776   1.668   5.833   7.097 -0.0216 -0.6354  1.6168
  117MOL0     H15777   1.502   5.985   6.646 -1.4955  0.1614  1.0100
  117MOL0     H15778   1.310   5.966   6.510  0.0648 -1.2648 -0.6260
  117MOL0     H15779   1.233   4.562   6.327 -0.4724  2.1724  0.2371
  117MOL0     H15780   1.138   4.329   6.314 -0.9249 -1.7530 -0.9359
  117MOL0     H15781   0.937   3.995   5.905 -0.2343 -1.5591 -1.1727
  117MOL0     H15782   0.764   3.814   5.895 -0.7020 -2.3106  1.4138
  117MOL0     H15783   0.487   3.716   6.232 -3.0826  0.4474 -4.4226
  117MOL0     H15784   0.649   3.664   6.267 -0.2560 -1.1040 -0.0661
  117MOL0     H15785   0.650   3.462   6.134  0.3680  0.1187  1.2516
  117MOL0     H15786   0.510   3.519   6.040  1.5354 -0.8477 -0.8141
  117MOL0     H15787   0.452   3.329   6.196 -3.3865 -0.3482 -1.4659
  117MOL0     H15788   0.356   3.471   6.208  1.5267  0.9205 -4.0599
  117MOL0     H15789   0.509   3.553   6.406 -1.3854 -1.2693  4.6801
  117MOL0     H15790   0.451   3.393   6.448  0.6768 -1.0454  0.0614
  117MOL0     H15791   0.872   3.349   6.423  0.5881  3.7235  0.5078
  117MOL0     H15792   0.667   3.889   6.306 -1.3012  1.0940 -0.0480
  117MOL0     H15793   0.943   3.985   6.405 -2.7350 -1.6260  0.0238
  117MOL0     H15794   0.897   4.148   6.360  0.0179  0.1127  1.2578
  117MOL0     H15795   0.781   4.036   6.441  0.9623  1.9900  1.6230
  118MOL0     O15796   5.016   6.850   2.884  0.1119 -0.4031  0.1681
  118MOL0     C15797   5.032   6.945   2.967 -0.1173 -0.4713  0.3752
  118MOL0     O15798   5.126   7.040   2.954 -1.0875 -0.1216 -0.5422
  118MOL0     C15799   5.237   7.018   2.882 -0.4994  0.6376 -0.6620
  118MOL0     C15800   5.323   6.928   2.931  0.2166 -0.4830  0.6030
  118MOL0     C15801   5.433   6.897   2.853  0.8534 -0.1425 -0.3361
  118MOL0     C15802   5.450   6.945   2.725 -0.0100 -0.7007  0.3670
  118MOL0     O15803   5.559   6.920   2.645 -0.0157 -0.2659 -0.0040
  118MOL0     C15804   5.534   6.828   2.535  0.5083 -0.0624 -0.4780
  118MOL0     C15805   5.637   6.707   2.544 -0.5673 -0.4732 -0.2074
  118MOL0     C15806   5.765   6.732   2.457  1.0173  1.0534 -0.0505
  118MOL0     C15807   5.888   6.666   2.516  0.7051 -0.5306 -1.3013
  118MOL0     C15808   6.025   6.706   2.448 -0.1269 -0.5209 -0.7176
  118MOL0     C15809   6.052   6.639   2.309 -0.6947  0.0960  0.7998
  118MOL0     C15810   6.206   6.662   2.278 -0.1739  0.0671  0.9454
  118MOL0     C15811   6.262   6.559   2.169  0.1882  0.8488  0.0443
  118MOL0     N15812   6.202   6.596   2.035  0.4370 -0.2996  0.8700
  118MOL0     C15813   6.258   6.688   1.947 -0.1411  0.2755 -0.6202
  118MOL0     C15814   6.177   6.674   1.838  0.3289 -0.2885 -0.1234
  118MOL0     C15815   6.168   6.751   1.704 -0.3013  0.4093 -0.5982
  118MOL0     C15816   6.298   6.848   1.680 -0.5645  0.4673 -0.3379
  118MOL0     C15817   6.298   6.906   1.539 -0.1936  0.2348  0.0311
  118MOL0     C15818   6.403   7.021   1.531  0.5027  0.0686 -0.3662
  118MOL0     O15819   6.418   7.075   1.400  0.4593 -0.0226 -0.0710
  118MOL0     C15820   6.353   7.188   1.355 -0.2913  1.0475 -0.2018
  118MOL0     C15821   6.233   7.238   1.408 -0.4119 -0.6857  0.8416
  118MOL0     C15822   6.179   7.360   1.365  0.5459 -0.0820  0.5269
  118MOL0     C15823   6.224   7.418   1.247 -0.4827  0.2610 -1.0587
  118MOL0     C15824   6.163   7.542   1.203  0.6192  0.0640  0.0564
  118MOL0     O15825   6.242   7.616   1.117 -0.0419  0.2365 -0.2913
  118MOL0     C15826   6.196   7.745   1.084  0.3101  0.4831 -0.6734
  118MOL0     C15827   6.173   7.848   1.175 -0.6585  0.7516  0.6782
  118MOL0     C15828   6.156   7.984   1.137 -0.0014  1.4509  0.0012
  118MOL0     C15829   6.152   8.014   1.001  1.1969  0.6754 -0.6539
  118MOL0     O15830   6.113   8.141   0.964 -0.4244  0.5366 -0.0330
  118MOL0     C15831   5.975   8.165   1.009 -0.2525  0.0993  0.5679
  118MOL0     C15832   5.950   8.306   0.968  0.2415  0.5800 -0.8013
  118MOL0     C15833   5.805   8.342   0.979  0.0515 -0.2888 -0.9252
  118MOL0     C15834   5.761   8.484   0.926  0.0592 -0.3986  0.0857
  118MOL0     C15835   5.810   8.597   1.023  0.2588  0.4573  0.8309
  118MOL0     C15836   5.734   8.724   1.036  0.6766 -0.6929  0.6693
  118MOL0     C15837   5.814   8.844   1.099  0.2545  1.6901  0.0813
  118MOL0     C15838   5.738   8.979   1.118 -1.0768 -0.8902  0.5201
  118MOL0    Cl15839   5.585   8.956   1.198 -0.0562  0.4881 -0.4314
  118MOL0     C15840   6.177   7.906   0.904 -0.6072 -0.0803  0.0061
  118MOL0     C15841   6.188   7.771   0.951 -0.0769 -0.0537  1.6171
  118MOL0     O15842   6.044   7.572   1.232 -0.6140  0.9286  0.3287
  118MOL0     C15843   6.333   7.355   1.172 -0.6059 -0.4867 -1.7979
  118MOL0     C15844   6.399   7.243   1.233 -0.4941  0.3333  0.0060
  118MOL0     N15845   6.085   6.575   1.857 -0.3383 -0.8087 -0.4101
  118MOL0     N15846   6.094   6.536   1.984 -0.0586  0.4469 -0.1886
  118MOL0     C15847   5.364   7.040   2.677  0.7103  0.6638  0.9435
  118MOL0     C15848   5.251   7.064   2.755 -0.4057 -0.3818  0.2478
  118MOL0     C15849   4.934   6.964   3.088 -1.2993 -0.8401 -0.1589
  118MOL0     C15850   4.920   7.097   3.135  0.1325 -0.4642 -0.8556
  118MOL0     C15851   4.821   7.123   3.230  0.5608  0.3200  0.3850
  118MOL0     C15852   4.745   7.019   3.282  0.1887  0.0803  0.1276
  118MOL0     O15853   4.646   7.019   3.375  0.5279  0.0306  0.5318
  118MOL0     C15854   4.550   7.128   3.381  0.7048  0.2774 -0.5842
  118MOL0     C15855   4.405   7.085   3.342 -0.4858  0.2673 -0.5840
  118MOL0     C15856   4.342   7.002   3.456  0.0445  0.3404 -0.5278
  118MOL0     C15857   4.335   6.855   3.423 -0.5525 -0.1732  0.6916
  118MOL0     C15858   4.229   6.828   3.326 -1.2547 -0.2246  0.7280
  118MOL0     C15859   4.159   6.798   3.232  0.0909  0.6270 -0.8560
  118MOL0     C15860   4.762   6.885   3.236 -0.5347 -0.4119  0.5478
  118MOL0     C15861   4.860   6.858   3.139  0.1071  0.6207  0.2676
  118MOL0     C15862   4.886   6.704   3.104 -0.5248 -0.0979  0.4874
  118MOL0     H15863   5.320   6.879   3.028 -2.4866  1.3004  1.5282
  118MOL0     H15864   5.513   6.841   2.901  2.8658  4.3839  2.2561
  118MOL0     H15865   5.429   6.798   2.536  0.0503  0.3825  6.0446
  118MOL0     H15866   5.545   6.866   2.433 -1.6123 -1.9059 -1.4901
  118MOL0     H15867   5.586   6.613   2.521 -0.8429 -1.2596  3.1238
  118MOL0     H15868   5.666   6.698   2.649 -0.0708  1.7820 -0.1044
  118MOL0     H15869   5.778   6.840   2.444  2.1187  0.8324 -0.9233
  118MOL0     H15870   5.736   6.693   2.359  0.1082  3.3384 -0.7612
  118MOL0     H15871   5.897   6.699   2.620 -0.5932 -0.7015 -1.1121
  118MOL0     H15872   5.868   6.560   2.502 -0.9619 -0.3533 -0.5080
  118MOL0     H15873   6.045   6.814   2.445  1.5477 -0.7543  0.3758
  118MOL0     H15874   6.107   6.666   2.508  0.0007 -2.3072 -2.0108
  118MOL0     H15875   6.039   6.531   2.316 -4.5912  0.4703  1.9882
  118MOL0     H15876   5.997   6.679   2.223 -1.6242 -2.5203  0.0705
  118MOL0     H15877   6.264   6.661   2.371 -2.0639  1.7684  2.2550
  118MOL0     H15878   6.224   6.762   2.238 -1.7029  1.7156  3.9998
  118MOL0     H15879   6.371   6.554   2.162  0.1001 -1.2224 -0.4023
  118MOL0     H15880   6.228   6.461   2.205  4.8792 -1.1663 -0.2320
  118MOL0     H15881   6.348   6.744   1.971  1.3341 -0.1786 -4.3855
  118MOL0     H15882   6.161   6.681   1.620  1.7337 -1.0833  0.4137
  118MOL0     H15883   6.078   6.813   1.697 -0.8388 -0.3176 -0.2057
  118MOL0     H15884   6.285   6.927   1.754  0.0961 -0.1656  0.4819
  118MOL0     H15885   6.394   6.799   1.698 -0.6737 -0.1541 -1.3523
  118MOL0     H15886   6.198   6.943   1.516 -0.3235  1.0868  1.7980
  118MOL0     H15887   6.337   6.835   1.466 -0.3064 -0.6254  0.7977
  118MOL0     H15888   6.501   6.985   1.561  0.1654  0.3682  1.1498
  118MOL0     H15889   6.391   7.106   1.598  1.4677  0.4370 -0.6500
  118MOL0     H15890   6.184   7.182   1.487 -1.7844 -1.9357 -0.8155
  118MOL0     H15891   6.095   7.411   1.412 -0.2890 -0.8977 -0.0328
  118MOL0     H15892   6.180   7.835   1.283  5.9832  1.7875  0.7555
  118MOL0     H15893   6.145   8.067   1.206  1.8015  1.8379 -0.1434
  118MOL0     H15894   5.903   8.098   0.961 -2.4431  4.3037 -2.6316
  118MOL0     H15895   5.965   8.151   1.117 -2.1127  2.9734  0.8835
  118MOL0     H15896   6.011   8.363   1.038 -0.8676 -0.0315  0.7260
  118MOL0     H15897   5.984   8.312   0.865  0.8160 -1.7416 -0.8053
  118MOL0     H15898   5.750   8.265   0.924  2.5867 -4.0362  1.3688
  118MOL0     H15899   5.760   8.327   1.077 -0.2097  2.0309 -0.6262
  118MOL0     H15900   5.651   8.486   0.922 -0.0069 -1.6606  0.9450
  118MOL0     H15901   5.805   8.501   0.827  1.9849 -3.5811  0.2759
  118MOL0     H15902   5.915   8.621   1.005  1.7106 -5.0002  0.2250
  118MOL0     H15903   5.817   8.565   1.127  2.0512  3.2670  1.6883
  118MOL0     H15904   5.705   8.755   0.935  4.2900 -0.6573 -0.5055
  118MOL0     H15905   5.638   8.699   1.082 -1.8412 -2.3705 -4.5890
  118MOL0     H15906   5.902   8.858   1.035  0.2876  0.0112 -0.2863
  118MOL0     H15907   5.849   8.799   1.192  0.3346 -2.1677 -1.6178
  118MOL0     H15908   5.793   9.044   1.187  0.6035  1.0163 -2.3602
  118MOL0     H15909   5.729   9.034   1.024 -1.9244  0.2175  1.2258
  118MOL0     H15910   6.183   7.925   0.797 -1.1511  1.3648  0.2139
  118MOL0     H15911   6.197   7.682   0.890  0.0165  1.3134 -0.4812
  118MOL0     H15912   6.376   7.390   1.078 -0.2897 -1.2232 -1.9357
  118MOL0     H15913   6.479   7.207   1.169 -1.3236  1.6342 -1.8674
  118MOL0     H15914   5.387   7.086   2.581  0.2693  2.5913  1.7169
  118MOL0     H15915   5.173   7.126   2.713 -2.5286 -2.8794  0.2880
  118MOL0     H15916   4.989   7.171   3.095 -0.4434  0.5291 -0.0598
  118MOL0     H15917   4.804   7.221   3.273 -3.8206  0.2506 -0.6824
  118MOL0     H15918   4.571   7.206   3.307  0.3838  0.3435 -0.6062
  118MOL0     H15919   4.551   7.172   3.481 -2.9415  6.4684 -2.6765
  118MOL0     H15920   4.406   7.031   3.247 -2.2629 -0.5844 -0.1668
  118MOL0     H15921   4.343   7.173   3.325 -2.1449 -0.8722 -0.7099
  118MOL0     H15922   4.243   7.043   3.475  2.1350  4.3740  3.8681
  118MOL0     H15923   4.398   7.018   3.549  0.6213 -0.9902 -0.6174
  118MOL0     H15924   4.427   6.825   3.373 -1.2385 -1.0720 -0.0608
  118MOL0     H15925   4.308   6.805   3.517 -1.9036  0.4951  0.6903
  118MOL0     H15926   4.093   6.764   3.155 -1.2546  2.4470 -0.5788
  118MOL0     H15927   4.680   6.815   3.248  1.5144 -3.1745 -0.4567
  118MOL0     H15928   4.857   6.644   3.191 -1.6534 -0.4664 -0.1274
  118MOL0     H15929   4.836   6.676   3.011  1.5881 -1.0634 -0.4268
  118MOL0     H15930   4.992   6.686   3.082  0.2149  2.4917  1.5247
  119MOL0     O15931   1.068   7.595  10.802 -0.3925  0.0050  0.7268
  119MOL0     C15932   1.165   7.636  10.865 -0.1327  0.6343 -1.0600
  119MOL0     O15933   1.160   7.745  10.957  0.0122 -0.0882  1.6634
  119MOL0     C15934   1.068   7.842  10.944 -0.2492 -0.4580  0.1509
  119MOL0     C15935   0.993   7.878  10.826  0.1662  0.7897  0.5042
  119MOL0     C15936   0.889   7.970  10.835  0.1379  0.3452 -0.4732
  119MOL0     C15937   0.854   8.035  10.953  0.3298  0.8899  0.6115
  119MOL0     O15938   0.763   8.132  10.969 -0.6400 -0.4200 -0.3361
  119MOL0     C15939   0.729   8.220  10.861  0.1074 -0.0786 -0.0855
  119MOL0     C15940   0.631   8.328  10.905  0.4353 -0.5258  0.5866
  119MOL0     C15941   0.520   8.266  10.987 -0.2862  0.5319  0.4036
  119MOL0     C15942   0.390   8.342  10.981  0.3653  0.4118  0.3891
  119MOL0     C15943   0.281   8.271  11.067 -0.3406  0.5124 -0.6355
  119MOL0     C15944   0.167   8.370  11.113  1.2720  0.1770  0.3762
  119MOL0     C15945   0.040   8.277  11.166 -0.4183 -0.4505 -0.0532
  119MOL0     C15946  -0.052   8.356  11.258 -0.5069 -0.7812 -0.1976
  119MOL0     N15947  -0.083   8.486  11.188 -0.6359  0.0863  0.0620
  119MOL0     C15948  -0.200   8.517  11.124 -0.4788  0.2850 -0.1815
  119MOL0     C15949  -0.185   8.649  11.090  0.1427  0.3802 -0.2282
  119MOL0     C15950  -0.287   8.722  11.004 -0.7676  0.6608 -0.1030
  119MOL0     C15951  -0.210   8.797  10.892 -0.6443 -0.4827  0.4425
  119MOL0     C15952  -0.284   8.876  10.791  0.2307  0.1349 -0.3702
  119MOL0     C15953  -0.339   9.013  10.845 -0.6535  0.2207 -0.7306
  119MOL0     O15954  -0.233   9.116  10.852 -0.1340 -0.3150 -0.1805
  119MOL0     C15955  -0.180   9.153  10.968 -0.2211  0.7862  0.1479
  119MOL0     C15956  -0.218   9.097  11.089  0.1744 -1.0581 -0.0728
  119MOL0     C15957  -0.153   9.144  11.207 -1.4626 -0.3690  0.3985
  119MOL0     C15958  -0.060   9.252  11.200  0.0941  0.3926  0.2772
  119MOL0     C15959  -0.002   9.306  11.319 -0.1765  1.3764 -0.2292
  119MOL0     O15960  -0.049   9.262  11.445 -0.4857  0.3374 -0.3845
  119MOL0     C15961  -0.009   9.340  11.545 -0.1290 -0.3184 -0.4017
  119MOL0     C15962  -0.083   9.453  11.582  0.4313  0.7852  0.7667
  119MOL0     C15963  -0.037   9.530  11.686  0.5137 -0.7328 -0.0485
  119MOL0     C15964   0.080   9.496  11.770  0.4135 -1.1496 -0.6658
  119MOL0     O15965   0.122   9.565  11.875  0.1438 -0.1855 -0.7515
  119MOL0     C15966   0.034   9.639  11.957  1.2160 -0.0231 -1.1548
  119MOL0     C15967   0.075   9.642  12.096 -0.4103  1.4337 -0.7642
  119MOL0     C15968   0.210   9.713  12.131  1.0541 -0.2424  1.1733
  119MOL0     C15969   0.180   9.839  12.220  0.4793 -0.0640 -0.3379
  119MOL0     C15970   0.152   9.967  12.128  0.1776  0.4901 -0.8634
  119MOL0     C15971   0.280  10.018  12.070 -0.5708 -0.0675 -0.1966
  119MOL0     C15972   0.266  10.154  11.987 -0.1649 -0.7579 -0.3424
  119MOL0     C15973   0.151  10.155  11.879 -0.7234  0.0778 -0.2021
  119MOL0    Cl15974   0.180  10.011  11.759 -0.0951 -0.5075  0.4532
  119MOL0     C15975   0.146   9.386  11.723 -0.0860 -0.4443 -0.2324
  119MOL0     C15976   0.106   9.297  11.626  0.0894 -0.2492  0.3918
  119MOL0     O15977   0.083   9.393  11.295  0.5168 -0.2637 -0.6446
  119MOL0     C15978  -0.015   9.292  11.072  0.5090 -0.7135 -0.4104
  119MOL0     C15979  -0.083   9.249  10.957 -0.2917 -0.0493 -0.0043
  119MOL0     N15980  -0.068   8.697  11.140 -0.3589  0.0343 -0.0359
  119MOL0     N15981  -0.012   8.599  11.206 -0.2409  0.4388  0.0436
  119MOL0     C15982   0.920   8.000  11.071 -0.1132  0.1627 -0.1591
  119MOL0     C15983   1.025   7.905  11.059  0.5503 -0.6636  0.0204
  119MOL0     C15984   1.284   7.545  10.855 -0.2380 -0.1800  1.0307
  119MOL0     C15985   1.283   7.456  10.743  0.8843 -0.1966  0.8329
  119MOL0     C15986   1.388   7.366  10.721  1.2702 -0.1325  0.5201
  119MOL0     C15987   1.493   7.359  10.807  0.1828 -1.0148  0.5826
  119MOL0     O15988   1.616   7.295  10.793  0.4929 -0.0139 -0.2524
  119MOL0     C15989   1.627   7.217  10.667  0.4048 -0.2217 -0.7042
  119MOL0     C15990   1.650   7.296  10.529  1.3282  0.0494  0.4619
  119MOL0     C15991   1.760   7.230  10.453 -0.0669 -0.4888 -0.7083
  119MOL0     C15992   1.740   7.210  10.305  1.2459  0.3022 -0.6047
  119MOL0     C15993   1.870   7.159  10.253  0.3515 -0.2343 -0.1729
  119MOL0     C15994   1.959   7.128  10.183 -1.2082 -0.0519  0.0650
  119MOL0     C15995   1.492   7.439  10.915 -0.4567 -0.4963  0.2640
  119MOL0     C15996   1.394   7.536  10.939 -0.1851  0.1341 -0.0886
  119MOL0     C15997   1.417   7.629  11.055 -0.1492  0.2223 -0.3741
  119MOL0     H15998   1.019   7.828  10.733 -3.2198 -0.3445  0.0275
  119MOL0     H15999   0.856   8.006  10.738 -0.4440 -0.3635 -0.5492
  119MOL0     H16000   0.812   8.262  10.804  2.3291 -1.3601  2.0288
  119MOL0     H16001   0.674   8.161  10.787  0.3069 -1.4099  0.7984
  119MOL0     H16002   0.586   8.394  10.830  1.0719 -0.1313  0.5421
  119MOL0     H16003   0.687   8.401  10.964 -0.4752  1.3263 -0.7452
  119MOL0     H16004   0.554   8.248  11.089  0.9813 -3.0095 -0.5106
  119MOL0     H16005   0.500   8.170  10.938  2.5144 -0.2043  0.5307
  119MOL0     H16006   0.407   8.431  11.043 -2.2513 -1.2790  3.8643
  119MOL0     H16007   0.353   8.370  10.882 -0.9450 -2.4138 -0.0158
  119MOL0     H16008   0.234   8.195  11.004 -0.6919 -2.4021  2.7709
  119MOL0     H16009   0.328   8.216  11.149  2.1852 -2.6156 -3.8626
  119MOL0     H16010   0.208   8.442  11.185  0.3921  2.5418 -1.3533
  119MOL0     H16011   0.130   8.424  11.025 -0.0831  0.5351  1.1372
  119MOL0     H16012   0.068   8.191  11.227 -0.6729  0.2893  1.1298
  119MOL0     H16013  -0.005   8.235  11.075 -0.4689 -2.2026  0.7365
  119MOL0     H16014  -0.146   8.303  11.277 -1.3817  0.8490  0.2656
  119MOL0     H16015  -0.005   8.378  11.355  2.8316 -1.2804 -1.5660
  119MOL0     H16016  -0.272   8.441  11.096  0.6924 -0.0208 -2.6026
  119MOL0     H16017  -0.355   8.643  10.972  1.5936 -1.9821  0.9904
  119MOL0     H16018  -0.342   8.790  11.070 -0.4947  0.9111 -0.1263
  119MOL0     H16019  -0.134   8.863  10.935  0.8250 -0.9141 -1.3819
  119MOL0     H16020  -0.146   8.722  10.847  3.2646  2.7538  0.0106
  119MOL0     H16021  -0.366   8.811  10.759  0.7034 -1.2268  1.0859
  119MOL0     H16022  -0.226   8.895  10.700 -1.6746  0.7284 -1.5191
  119MOL0     H16023  -0.403   9.003  10.933  0.9889  3.1359  0.9375
  119MOL0     H16024  -0.404   9.053  10.766 -1.0426  0.9821 -0.0324
  119MOL0     H16025  -0.286   9.014  11.106  1.0764 -1.4194  2.0167
  119MOL0     H16026  -0.162   9.100  11.305  1.2002 -4.2776 -0.8607
  119MOL0     H16027  -0.173   9.480  11.527  0.2985  0.5651  0.8742
  119MOL0     H16028  -0.082   9.622  11.721  0.8146 -0.4735 -0.3382
  119MOL0     H16029   0.025   9.739  11.915 -0.3429  1.1488  1.7135
  119MOL0     H16030  -0.065   9.595  11.969  2.0742 -1.5682  0.9817
  119MOL0     H16031  -0.005   9.691  12.152  2.4065  3.5506  1.7419
  119MOL0     H16032   0.072   9.540  12.134 -0.4358  1.3642 -0.9530
  119MOL0     H16033   0.278   9.651  12.190  2.1963  0.3358  0.5024
  119MOL0     H16034   0.265   9.746  12.043  2.1101 -3.2409  0.5902
  119MOL0     H16035   0.260   9.858  12.292  1.1416 -0.3494 -0.9998
  119MOL0     H16036   0.087   9.828  12.278 -2.1024  0.0876 -4.0788
  119MOL0     H16037   0.096  10.040  12.188 -4.3065 -3.8378  1.0005
  119MOL0     H16038   0.080   9.944  12.049  0.8868 -2.3231 -0.7970
  119MOL0     H16039   0.351  10.048  12.147  1.1595  0.7595 -2.0159
  119MOL0     H16040   0.339   9.953  12.004 -0.5121 -0.6734  0.4464
  119MOL0     H16041   0.363  10.166  11.937 -0.2796  3.7793  0.1135
  119MOL0     H16042   0.254  10.245  12.047  1.9492  1.7141 -3.3423
  119MOL0     H16043   0.053  10.132  11.922 -0.6877  0.6398  0.1891
  119MOL0     H16044   0.167  10.244  11.818  1.9332 -0.6771 -0.6967
  119MOL0     H16045   0.235   9.362  11.781 -0.2646 -2.0694 -0.5640
  119MOL0     H16046   0.159   9.204  11.606 -2.7285 -1.9310  0.1304
  119MOL0     H16047   0.061   9.369  11.067  1.1793 -1.1490  1.7476
  119MOL0     H16048  -0.059   9.292  10.860 -3.2641  0.5786 -0.5671
  119MOL0     H16049   0.903   8.071  11.151  1.5934  1.8728 -1.2257
  119MOL0     H16050   1.073   7.880  11.154 -0.4069  0.3196  0.7815
  119MOL0     H16051   1.208   7.467  10.665  2.3868  1.4736 -0.4638
  119MOL0     H16052   1.364   7.296  10.642  1.0783  1.6988 -1.1330
  119MOL0     H16053   1.536   7.156  10.665 -0.3998  0.8199  1.0766
  119MOL0     H16054   1.708   7.148  10.689  1.2755  1.9905  4.8801
  119MOL0     H16055   1.664   7.403  10.547 -1.0286  0.6970 -1.0576
  119MOL0     H16056   1.555   7.285  10.475  0.4320 -1.9699  2.2784
  119MOL0     H16057   1.798   7.135  10.492 -1.3115 -0.2070  1.3544
  119MOL0     H16058   1.845   7.295  10.473 -0.8737  0.8173 -1.4435
  119MOL0     H16059   1.650   7.148  10.299  0.7257  1.1581 -2.4786
  119MOL0     H16060   1.707   7.299  10.251  0.5498 -0.6842 -1.8521
  119MOL0     H16061   2.031   7.091  10.112  0.0772  3.2700 -0.5400
  119MOL0     H16062   1.587   7.438  10.968  1.0155  3.1617 -1.8854
  119MOL0     H16063   1.343   7.602  11.132  0.7356 -1.9414 -0.2210
  119MOL0     H16064   1.521   7.630  11.088 -0.7562 -1.2686  1.8237
  119MOL0     H16065   1.406   7.732  11.020  0.3410  0.5036  0.2732
  120MOL0     O16066   9.767   2.359   3.018 -0.3376  0.9612  0.2296
  120MOL0     C16067   9.805   2.473   2.993 -0.4810  0.7826  0.2048
  120MOL0     O16068   9.891   2.503   2.892 -0.3661  1.0852  0.2271
  120MOL0     C16069   9.928   2.402   2.808 -0.0385  0.4279  0.4156
  120MOL0     C16070   9.848   2.347   2.707 -0.6167  0.1055 -0.7276
  120MOL0     C16071   9.893   2.240   2.624  0.5062 -0.2010 -0.0706
  120MOL0     C16072  10.023   2.192   2.642 -0.2536 -1.0212  0.0558
  120MOL0     O16073  10.062   2.092   2.549  0.1138 -0.2305  0.6301
  120MOL0     C16074  10.156   1.988   2.595  0.5890 -0.3887  1.0726
  120MOL0     C16075  10.295   2.016   2.527  0.0233  0.2105 -0.4073
  120MOL0     C16076  10.305   2.005   2.376  0.0372 -0.2218 -0.9013
  120MOL0     C16077  10.426   1.921   2.327 -0.1920  0.6827 -0.1661
  120MOL0     C16078  10.433   1.924   2.176  0.5663  0.5351 -0.0180
  120MOL0     C16079  10.512   1.797   2.147 -0.2445  0.4691  1.0425
  120MOL0     C16080  10.553   1.790   1.994 -0.3222 -1.1750 -0.5468
  120MOL0     C16081  10.666   1.688   1.961 -0.2031  0.5626 -0.8511
  120MOL0     N16082  10.794   1.678   2.032 -0.5698 -0.2946  0.1766
  120MOL0     C16083  10.854   1.799   2.084 -0.1035  0.8686  0.1920
  120MOL0     C16084  10.918   1.755   2.199 -0.1289 -0.1296 -0.1223
  120MOL0     C16085  11.009   1.846   2.282  0.2020  1.3821 -0.1203
  120MOL0     C16086  10.942   1.914   2.399 -0.3416 -0.3443  0.6078
  120MOL0     C16087  10.878   1.822   2.510 -0.7146  1.3641  0.0744
  120MOL0     C16088  10.975   1.744   2.611  0.3948 -0.9896 -0.1850
  120MOL0     O16089  11.014   1.839   2.713 -0.3513  0.9538  0.1188
  120MOL0     C16090  11.131   1.828   2.774  0.0392  0.0353  0.4050
  120MOL0     C16091  11.229   1.730   2.748  0.5326 -0.7535 -0.2488
  120MOL0     C16092  11.356   1.748   2.814 -0.3503 -0.2162 -0.2048
  120MOL0     C16093  11.366   1.848   2.919 -1.0646 -0.4612 -0.2257
  120MOL0     C16094  11.492   1.859   3.001 -0.2700  0.1858  0.0350
  120MOL0     O16095  11.575   1.755   2.983  0.3400 -0.3691  0.6405
  120MOL0     C16096  11.688   1.758   3.071 -0.3533 -0.3299  0.8392
  120MOL0     C16097  11.686   1.673   3.185 -0.4981  0.2319 -0.1591
  120MOL0     C16098  11.780   1.691   3.283 -0.1515 -0.0239 -0.7651
  120MOL0     C16099  11.902   1.760   3.258  0.2988  0.6651  0.2309
  120MOL0     O16100  12.003   1.763   3.350  0.1611  0.7713 -0.2961
  120MOL0     C16101  12.002   1.881   3.421 -1.0650 -0.1242 -0.4043
  120MOL0     C16102  11.869   1.931   3.502  0.4985 -0.1960  0.1888
  120MOL0     C16103  11.843   1.857   3.643 -0.5180 -0.7019  0.6584
  120MOL0     C16104  11.745   1.951   3.720 -1.4982  0.0654  0.2370
  120MOL0     C16105  11.714   1.890   3.865  0.4251  0.3983  0.8783
  120MOL0     C16106  11.831   1.873   3.955 -0.2015 -0.3019  1.2599
  120MOL0     C16107  11.799   1.820   4.093 -0.5057 -0.5628  0.2123
  120MOL0     C16108  11.935   1.771   4.172  1.2925  0.1483  0.9846
  120MOL0    Cl16109  11.883   1.732   4.337 -0.3714 -0.0610 -0.0075
  120MOL0     C16110  11.917   1.820   3.134 -0.0431  1.5823  0.6238
  120MOL0     C16111  11.799   1.837   3.048 -0.4807 -0.3842 -0.4928
  120MOL0     O16112  11.497   1.949   3.087  0.9081  0.8494  0.3402
  120MOL0     C16113  11.259   1.940   2.951 -1.1256 -0.1533  0.5104
  120MOL0     C16114  11.148   1.930   2.875  0.4534 -0.8016  0.4998
  120MOL0     N16115  10.877   1.621   2.226 -0.5489 -0.3610  0.6324
  120MOL0     N16116  10.804   1.578   2.129  0.3452  0.1620 -0.1216
  120MOL0     C16117  10.101   2.247   2.742  0.0458 -0.3053  0.7425
  120MOL0     C16118  10.062   2.353   2.817  0.2119 -0.2649 -0.2651
  120MOL0     C16119   9.766   2.587   3.068  0.3162  0.7985 -0.2292
  120MOL0     C16120   9.626   2.606   3.094  0.9841 -0.1220 -0.6187
  120MOL0     C16121   9.582   2.714   3.169  0.2216 -0.8522 -0.0439
  120MOL0     C16122   9.674   2.811   3.208  0.2562  0.4775  0.7296
  120MOL0     O16123   9.621   2.922   3.269 -0.0869  0.0509  0.1372
  120MOL0     C16124   9.698   3.014   3.357  0.6626  0.1623  0.9622
  120MOL0     C16125   9.619   3.027   3.491  0.6024 -0.7073 -0.0008
  120MOL0     C16126   9.667   3.162   3.554  0.2197 -0.6386  0.3502
  120MOL0     C16127   9.642   3.144   3.708  0.1672 -0.1625  0.5282
  120MOL0     C16128   9.700   3.254   3.780  0.0533 -0.1346 -0.4891
  120MOL0     C16129   9.735   3.345   3.854 -0.3463  0.4307 -0.5033
  120MOL0     C16130   9.803   2.794   3.173 -0.0328  0.1854 -0.3318
  120MOL0     C16131   9.860   2.680   3.115  0.4047 -0.4745 -0.3239
  120MOL0     C16132  10.012   2.680   3.115  0.7703  0.4389  0.3329
  120MOL0     H16133   9.748   2.387   2.716  1.1463  5.3937 -0.5740
  120MOL0     H16134   9.818   2.200   2.556  1.6189  0.4772 -1.7531
  120MOL0     H16135  10.175   1.987   2.703 -1.3622 -1.3117  1.4487
  120MOL0     H16136  10.125   1.893   2.552  3.1880  0.2888 -2.7886
  120MOL0     H16137  10.359   1.937   2.566 -0.2710 -0.5018 -1.3462
  120MOL0     H16138  10.329   2.116   2.558  0.3149 -0.5485  1.9167
  120MOL0     H16139  10.313   2.100   2.324  1.0766 -0.7010 -1.6605
  120MOL0     H16140  10.218   1.950   2.341 -0.4681 -1.6294  2.1773
  120MOL0     H16141  10.522   1.935   2.378 -2.1292 -0.6139  4.2647
  120MOL0     H16142  10.392   1.821   2.353  1.3703 -0.3223 -1.7261
  120MOL0     H16143  10.338   1.934   2.123 -0.0201  1.4515  1.1646
  120MOL0     H16144  10.495   2.010   2.149  0.1575  0.0630 -2.7131
  120MOL0     H16145  10.601   1.811   2.209 -0.1814  2.9657  0.4758
  120MOL0     H16146  10.442   1.714   2.164 -1.2082  0.6460 -1.6256
  120MOL0     H16147  10.579   1.886   1.949 -2.7723 -0.9933 -1.7769
  120MOL0     H16148  10.460   1.765   1.941 -0.6108 -1.5100  0.1035
  120MOL0     H16149  10.618   1.589   1.960 -4.4129  2.4026 -0.9528
  120MOL0     H16150  10.682   1.717   1.857 -3.2584  2.3145 -0.9273
  120MOL0     H16151  10.855   1.896   2.036  0.4586 -0.6079 -3.0578
  120MOL0     H16152  11.094   1.786   2.314 -0.8825 -0.9640 -1.3487
  120MOL0     H16153  11.042   1.922   2.210 -0.1367 -1.7652 -3.8914
  120MOL0     H16154  11.014   1.986   2.439 -2.0593  0.4447  2.5163
  120MOL0     H16155  10.862   1.981   2.365  0.2930  0.7733  1.2424
  120MOL0     H16156  10.818   1.748   2.457  0.0129  1.1625 -0.4919
  120MOL0     H16157  10.817   1.898   2.560  0.7435  2.2238  0.6206
  120MOL0     H16158  11.053   1.693   2.554 -0.6402  0.7640 -3.4268
  120MOL0     H16159  10.906   1.675   2.661 -1.2232  0.5129 -0.2581
  120MOL0     H16160  11.201   1.645   2.686 -3.7047 -1.4813  2.2280
  120MOL0     H16161  11.431   1.670   2.806 -1.7226 -1.4960 -1.0649
  120MOL0     H16162  11.602   1.604   3.194  2.0730 -3.1451  0.0009
  120MOL0     H16163  11.759   1.632   3.371 -0.8331  0.7404 -0.4046
  120MOL0     H16164  12.078   1.867   3.498  0.7103 -1.0721 -2.2581
  120MOL0     H16165  12.034   1.959   3.352 -1.3903 -0.5417 -1.0344
  120MOL0     H16166  11.871   2.038   3.521  1.0038 -0.1588 -0.0588
  120MOL0     H16167  11.782   1.919   3.437  1.6219  0.7735 -1.5931
  120MOL0     H16168  11.806   1.756   3.623  0.9444 -1.2171  0.4445
  120MOL0     H16169  11.943   1.865   3.687 -0.3338 -1.9301  0.4954
  120MOL0     H16170  11.651   1.970   3.667 -2.9160 -0.6369  2.3702
  120MOL0     H16171  11.794   2.047   3.738 -1.7251  0.9561 -3.1470
  120MOL0     H16172  11.677   1.793   3.832  0.9266  1.3274 -2.8947
  120MOL0     H16173  11.638   1.946   3.921 -0.0011  0.4271  0.2817
  120MOL0     H16174  11.898   1.801   3.908  0.4708 -0.2434  2.0919
  120MOL0     H16175  11.881   1.970   3.963  3.8291 -1.9672 -0.6573
  120MOL0     H16176  11.745   1.725   4.094 -0.7914 -0.4272  2.1542
  120MOL0     H16177  11.753   1.905   4.146  1.7111  1.5865 -1.0933
  120MOL0     H16178  11.981   1.686   4.120  0.2853  0.4924 -0.5311
  120MOL0     H16179  12.004   1.856   4.163 -0.8904  1.7857 -3.9609
  120MOL0     H16180  12.013   1.864   3.110  2.4498 -3.2279  0.4838
  120MOL0     H16181  11.810   1.916   2.975  0.2058 -1.1283 -1.2176
  120MOL0     H16182  11.266   2.026   3.018  1.0512  2.1541 -2.3823
  120MOL0     H16183  11.073   2.009   2.885  0.6011 -0.2430 -2.0847
  120MOL0     H16184  10.198   2.199   2.747 -0.5909 -2.3412 -2.6089
  120MOL0     H16185  10.127   2.395   2.893 -1.7795 -0.4636  1.6566
  120MOL0     H16186   9.561   2.528   3.054 -2.0308  3.0758 -2.5678
  120MOL0     H16187   9.478   2.726   3.196  0.5134 -0.9532  1.1560
  120MOL0     H16188   9.698   3.111   3.305 -6.1928 -0.5011 -1.3452
  120MOL0     H16189   9.804   2.989   3.368  0.6343 -2.4738 -2.9017
  120MOL0     H16190   9.639   2.942   3.558 -3.3713 -1.0870  0.9246
  120MOL0     H16191   9.512   3.032   3.473  0.6985  1.4042 -0.1795
  120MOL0     H16192   9.635   3.251   3.499  0.2547 -0.7606  0.1278
  120MOL0     H16193   9.775   3.179   3.554  0.0067  1.9922  4.2178
  120MOL0     H16194   9.535   3.140   3.731  0.2746 -0.6119  0.9833
  120MOL0     H16195   9.671   3.048   3.752 -3.5133 -1.2776  0.8844
  120MOL0     H16196   9.765   3.431   3.910  2.3525 -0.7094 -0.0171
  120MOL0     H16197   9.868   2.881   3.186  3.2791 -2.4847  4.0256
  120MOL0     H16198  10.058   2.772   3.077  3.6302 -0.7031  0.7566
  120MOL0     H16199  10.046   2.678   3.219  2.3584 -1.0062 -0.1624
  120MOL0     H16200  10.058   2.599   3.058  1.2971  2.3753 -2.2011
  121MOL0     O16201   4.693   6.751   6.238 -0.1596 -0.7755  0.1011
  121MOL0     C16202   4.646   6.852   6.178  0.0373 -0.5073  0.9356
  121MOL0     O16203   4.681   6.884   6.047  0.0007 -0.1308 -0.0284
  121MOL0     C16204   4.765   6.802   5.980 -0.6088 -0.1368  0.0230
  121MOL0     C16205   4.715   6.678   5.934  0.5126 -0.0090 -0.0428
  121MOL0     C16206   4.794   6.588   5.865 -0.5612 -0.1839 -0.8710
  121MOL0     C16207   4.933   6.618   5.862 -0.2435 -0.4159  0.4696
  121MOL0     O16208   5.012   6.512   5.811  0.6230  0.0611 -0.4960
  121MOL0     C16209   5.147   6.530   5.795 -0.6327  1.0998 -0.6860
  121MOL0     C16210   5.205   6.391   5.761  0.1166  0.5065  0.4376
  121MOL0     C16211   5.177   6.332   5.618 -0.2908  0.6596 -0.4996
  121MOL0     C16212   5.234   6.186   5.614  0.3428 -0.1357 -0.2804
  121MOL0     C16213   5.132   6.082   5.669 -0.0211 -0.4131 -0.1077
  121MOL0     C16214   5.197   5.942   5.676  0.3587  0.4452  0.4923
  121MOL0     C16215   5.102   5.843   5.736  0.2620 -0.5482 -0.8599
  121MOL0     C16216   5.013   5.799   5.620 -0.4925 -0.1568 -0.9113
  121MOL0     N16217   4.943   5.672   5.643  0.5693  0.2465  0.8430
  121MOL0     C16218   4.833   5.658   5.721 -0.7034  0.0462  0.5524
  121MOL0     C16219   4.794   5.532   5.684 -0.3734 -0.0025 -0.4890
  121MOL0     C16220   4.664   5.471   5.732 -0.3036  0.3686  0.6012
  121MOL0     C16221   4.656   5.456   5.884 -0.3036 -0.0521  0.2830
  121MOL0     C16222   4.746   5.342   5.923  0.0594 -0.0345 -0.1106
  121MOL0     C16223   4.766   5.355   6.080 -0.1379 -0.5561 -0.5747
  121MOL0     O16224   4.646   5.344   6.157 -0.2613 -0.2775  0.0148
  121MOL0     C16225   4.600   5.219   6.191 -1.0979 -0.5038 -0.1032
  121MOL0     C16226   4.675   5.095   6.199 -0.7625  0.5396 -0.9248
  121MOL0     C16227   4.604   4.981   6.238 -0.0768 -0.7594 -0.0454
  121MOL0     C16228   4.468   4.978   6.270 -0.1015  0.2874  0.7452
  121MOL0     C16229   4.404   4.855   6.316 -0.4018 -0.3642  0.3882
  121MOL0     O16230   4.474   4.734   6.287  0.8142  0.7425  0.0377
  121MOL0     C16231   4.410   4.630   6.348 -0.2464 -0.7474  0.0872
  121MOL0     C16232   4.293   4.576   6.303  1.1265  0.0881  0.0939
  121MOL0     C16233   4.252   4.455   6.360 -0.0218  0.6086  0.5396
  121MOL0     C16234   4.320   4.397   6.466  0.1936  0.2055 -0.2039
  121MOL0     O16235   4.282   4.287   6.536 -0.3718  0.4793  0.6926
  121MOL0     C16236   4.188   4.201   6.480  0.1910  0.8043  0.3902
  121MOL0     C16237   4.175   4.095   6.601  0.2731 -1.4139 -0.4878
  121MOL0     C16238   4.129   4.151   6.732 -0.1884  0.9976  0.0810
  121MOL0     C16239   3.993   4.227   6.737  0.1750 -0.2652 -0.1076
  121MOL0     C16240   4.012   4.381   6.747  0.5691  0.2906 -0.3027
  121MOL0     C16241   3.893   4.466   6.712  0.8251  0.2437  1.1551
  121MOL0     C16242   3.933   4.617   6.709  0.3767 -0.3243  0.9907
  121MOL0     C16243   3.832   4.704   6.630 -0.1897  0.4484 -0.0296
  121MOL0    Cl16244   3.871   4.885   6.636 -0.5401  0.2638 -0.5831
  121MOL0     C16245   4.434   4.458   6.513 -1.1975 -0.1240  0.3195
  121MOL0     C16246   4.477   4.568   6.454 -0.0169 -0.6947  1.0412
  121MOL0     O16247   4.298   4.867   6.385 -0.1319  0.1139  0.3399
  121MOL0     C16248   4.402   5.096   6.269 -0.4115  0.3868 -0.0435
  121MOL0     C16249   4.469   5.211   6.225 -0.4937 -0.0600  0.1643
  121MOL0     N16250   4.889   5.462   5.625  0.5858 -0.3368 -0.3434
  121MOL0     N16251   4.988   5.550   5.602  0.1093  0.0139 -0.0347
  121MOL0     C16252   4.988   6.741   5.913  0.2222 -1.1559  0.9036
  121MOL0     C16253   4.896   6.835   5.962 -0.1095  0.6979 -1.1521
  121MOL0     C16254   4.573   6.949   6.257 -0.2418 -0.4467 -0.5661
  121MOL0     C16255   4.541   7.072   6.206 -1.2421  0.7467  0.7116
  121MOL0     C16256   4.477   7.163   6.287 -0.1236 -1.0175  0.6126
  121MOL0     C16257   4.437   7.139   6.413 -0.0517 -0.0847 -0.4418
  121MOL0     O16258   4.368   7.235   6.482 -0.2272 -0.0275  0.2594
  121MOL0     C16259   4.262   7.205   6.568  0.3435 -0.4979 -0.3287
  121MOL0     C16260   4.177   7.342   6.571 -0.0794 -0.4625  0.3813
  121MOL0     C16261   4.110   7.370   6.440  0.0105  0.5744 -0.5591
  121MOL0     C16262   4.018   7.496   6.441  0.0392 -0.6890 -1.0660
  121MOL0     C16263   3.877   7.455   6.493 -0.3098  0.5703  0.4564
  121MOL0     C16264   3.788   7.386   6.537 -0.5466 -0.2569  0.0109
  121MOL0     C16265   4.459   7.014   6.468 -0.0708 -0.4897 -0.1931
  121MOL0     C16266   4.528   6.917   6.390  0.4144 -0.7577 -0.1628
  121MOL0     C16267   4.537   6.790   6.460 -0.5156  0.9298  1.0344
  121MOL0     H16268   4.608   6.667   5.946  0.1322  3.3340  0.5759
  121MOL0     H16269   4.757   6.494   5.825  3.2803 -3.0939  1.7118
  121MOL0     H16270   5.167   6.599   5.712 -0.4167  0.9124 -0.7899
  121MOL0     H16271   5.191   6.569   5.888 -2.3158  3.4650 -0.7772
  121MOL0     H16272   5.177   6.331   5.848 -1.6683  2.0021  0.9736
  121MOL0     H16273   5.313   6.383   5.778  0.7827 -0.5111 -3.4562
  121MOL0     H16274   5.228   6.393   5.542  1.6910  2.9422  2.4619
  121MOL0     H16275   5.070   6.344   5.600 -0.8200 -1.1938  1.1619
  121MOL0     H16276   5.259   6.169   5.509 -1.5103 -1.1016 -0.6144
  121MOL0     H16277   5.323   6.176   5.677  1.0916 -0.1325 -1.3241
  121MOL0     H16278   5.088   6.126   5.758  0.8954  1.7433 -0.6566
  121MOL0     H16279   5.052   6.076   5.594  1.4122 -0.0856 -1.7467
  121MOL0     H16280   5.237   5.898   5.585  0.7060  3.4516 -0.9450
  121MOL0     H16281   5.278   5.952   5.750  2.8504  0.4383 -2.0577
  121MOL0     H16282   5.028   5.887   5.803  0.3917  1.2189 -1.8038
  121MOL0     H16283   5.163   5.761   5.774 -1.9415 -1.8236  0.1034
  121MOL0     H16284   4.943   5.878   5.592 -0.1311 -0.4368 -2.7062
  121MOL0     H16285   5.073   5.777   5.531  0.3238 -0.2325 -0.3498
  121MOL0     H16286   4.774   5.728   5.780  0.4463  1.8618 -0.3673
  121MOL0     H16287   4.574   5.527   5.704 -0.9072 -0.3647  1.0275
  121MOL0     H16288   4.647   5.374   5.684  0.8171 -0.0530  1.0343
  121MOL0     H16289   4.692   5.547   5.933  0.2241  0.1021 -0.3742
  121MOL0     H16290   4.552   5.442   5.915 -1.2802  0.3146 -2.5802
  121MOL0     H16291   4.845   5.350   5.877  2.5378 -1.8625  4.3428
  121MOL0     H16292   4.706   5.244   5.896  3.9827 -1.3518 -1.9053
  121MOL0     H16293   4.801   5.452   6.117 -0.9357  0.7084 -2.9549
  121MOL0     H16294   4.839   5.278   6.106  1.8667  1.2450 -0.5941
  121MOL0     H16295   4.783   5.090   6.188 -0.9182 -2.2974 -1.8962
  121MOL0     H16296   4.672   4.896   6.243  1.6428  0.3333 -2.5712
  121MOL0     H16297   4.237   4.623   6.223 -2.2548 -2.9996  0.3550
  121MOL0     H16298   4.166   4.407   6.315 -0.9798  1.8567  0.9692
  121MOL0     H16299   4.092   4.238   6.441 -0.5243 -1.8377 -0.5781
  121MOL0     H16300   4.237   4.154   6.395  3.0910 -0.1405  2.4298
  121MOL0     H16301   4.115   4.011   6.566 -0.0734 -0.9472 -1.0426
  121MOL0     H16302   4.270   4.046   6.624  1.5247  1.4933  1.0980
  121MOL0     H16303   4.120   4.061   6.793 -0.7309 -1.3728 -3.2022
  121MOL0     H16304   4.204   4.216   6.777  0.9552 -2.5127  3.9047
  121MOL0     H16305   3.932   4.203   6.825 -1.6875  1.2205 -0.9359
  121MOL0     H16306   3.929   4.202   6.652 -0.9318  0.1884  0.5602
  121MOL0     H16307   4.099   4.421   6.694  2.4170 -0.5351  1.9301
  121MOL0     H16308   4.047   4.406   6.848 -0.7426  5.1286 -0.7957
  121MOL0     H16309   3.845   4.440   6.618  0.1535 -2.1633  2.0932
  121MOL0     H16310   3.814   4.452   6.785  0.3635  0.7007  0.7519
  121MOL0     H16311   4.033   4.634   6.666  0.4361 -1.6775  0.5561
  121MOL0     H16312   3.929   4.637   6.816 -1.1676 -1.1246  1.1069
  121MOL0     H16313   3.832   4.663   6.528  2.7920  2.0210 -0.7553
  121MOL0     H16314   3.737   4.692   6.683 -0.1550 -2.4881 -0.4595
  121MOL0     H16315   4.499   4.403   6.581 -0.1165 -0.6471 -1.0976
  121MOL0     H16316   4.572   4.601   6.495  1.2723 -0.0606 -2.1099
  121MOL0     H16317   4.298   5.103   6.299 -0.1321  2.0639  0.6495
  121MOL0     H16318   4.420   5.307   6.214  0.0801 -0.0635 -3.9819
  121MOL0     H16319   5.092   6.769   5.919 -0.0992  0.7448 -1.1203
  121MOL0     H16320   4.928   6.922   6.020 -0.4680 -0.1574  0.3892
  121MOL0     H16321   4.562   7.103   6.104  0.9682 -0.9959  0.5544
  121MOL0     H16322   4.468   7.265   6.252 -1.4806 -0.7108  1.7487
  121MOL0     H16323   4.309   7.179   6.664 -1.2280 -5.3152 -0.5850
  121MOL0     H16324   4.199   7.121   6.537  1.2378 -0.9079 -1.0864
  121MOL0     H16325   4.244   7.427   6.590  0.1816 -1.0970  2.6433
  121MOL0     H16326   4.105   7.330   6.652 -0.5737  2.1904  0.4298
  121MOL0     H16327   4.039   7.294   6.405 -0.1924  1.4569 -2.1908
  121MOL0     H16328   4.190   7.374   6.364 -1.5262  1.5903 -2.2148
  121MOL0     H16329   4.054   7.570   6.514 -2.2838  2.8274 -3.2063
  121MOL0     H16330   4.028   7.537   6.340  4.8479 -2.6641 -1.6669
  121MOL0     H16331   3.702   7.325   6.557 -2.2980  1.3941 -2.1341
  121MOL0     H16332   4.429   7.003   6.572  2.4263 -0.1796  0.6163
  121MOL0     H16333   4.640   6.766   6.492 -1.1556  2.2960  4.6400
  121MOL0     H16334   4.469   6.792   6.546 -2.1686  1.3110 -0.2463
  121MOL0     H16335   4.498   6.717   6.389  0.0931  0.1672  1.4575
  122MOL0     O16336   7.203   1.938   6.039  0.0624  0.0998 -0.4064
  122MOL0     C16337   7.160   2.054   6.075 -0.2439 -0.3143  0.4309
  122MOL0     O16338   7.055   2.113   6.007  0.4306  0.3725 -0.2032
  122MOL0     C16339   6.995   2.066   5.893 -0.5049  0.2317  0.2994
  122MOL0     C16340   6.971   2.164   5.798  0.0713 -0.0087 -0.9656
  122MOL0     C16341   6.935   2.133   5.666  0.4633 -0.6266  0.7520
  122MOL0     C16342   6.914   2.000   5.635 -0.0333 -1.0765  0.2309
  122MOL0     O16343   6.881   1.956   5.516 -0.1149  0.9554 -0.0336
  122MOL0     C16344   6.741   1.915   5.496 -0.5708 -0.3004  0.7809
  122MOL0     C16345   6.732   1.808   5.386  0.1931 -0.6627  0.5315
  122MOL0     C16346   6.786   1.852   5.249  0.1114  0.0936 -0.2364
  122MOL0     C16347   6.728   1.781   5.121 -0.2927 -0.1039  0.6667
  122MOL0     C16348   6.806   1.815   4.998 -0.0407 -0.4283 -0.1651
  122MOL0     C16349   6.742   1.734   4.884 -0.2800  0.0833 -0.4401
  122MOL0     C16350   6.789   1.775   4.742  1.0120 -0.0185 -1.2700
  122MOL0     C16351   6.725   1.693   4.635 -0.6509 -0.1285  0.0039
  122MOL0     N16352   6.760   1.726   4.498  0.2770  0.2189  0.6086
  122MOL0     C16353   6.840   1.822   4.441  0.2103  0.5348 -0.1839
  122MOL0     C16354   6.838   1.779   4.308  0.1690  0.5126 -0.5425
  122MOL0     C16355   6.894   1.857   4.187  0.2326 -0.4104 -1.2202
  122MOL0     C16356   7.005   1.778   4.112  0.9840  0.0816 -0.9781
  122MOL0     C16357   7.061   1.865   4.000  0.7006 -0.1503  0.6484
  122MOL0     C16358   6.971   1.859   3.876 -0.8430  1.1402 -0.2615
  122MOL0     O16359   7.040   1.911   3.764 -0.1201 -0.8217  0.3230
  122MOL0     C16360   6.977   1.927   3.641 -0.1856 -1.1487 -0.3315
  122MOL0     C16361   7.027   1.992   3.535 -0.2411 -0.1929 -0.0976
  122MOL0     C16362   6.966   1.992   3.402  0.3479 -0.6008  0.4427
  122MOL0     C16363   6.854   1.926   3.375  1.2957 -0.1719  0.0164
  122MOL0     C16364   6.791   1.912   3.242  0.9106  0.4286  0.7138
  122MOL0     O16365   6.654   1.919   3.234 -0.7074 -0.3531 -0.4850
  122MOL0     C16366   6.604   1.850   3.125  0.8912 -0.3310  0.2149
  122MOL0     C16367   6.629   1.713   3.120 -0.6327  0.3693  0.4522
  122MOL0     C16368   6.594   1.638   3.008 -0.3749 -0.1218  0.3520
  122MOL0     C16369   6.516   1.706   2.903 -1.2367 -0.2666  0.3241
  122MOL0     O16370   6.476   1.649   2.792  0.0531 -0.2903  0.0481
  122MOL0     C16371   6.487   1.509   2.759 -0.1825 -0.5441 -0.1748
  122MOL0     C16372   6.385   1.471   2.658  0.5373  0.0827 -0.0505
  122MOL0     C16373   6.415   1.518   2.511  0.6435  0.7354  0.1000
  122MOL0     C16374   6.302   1.598   2.460 -0.1368  0.6984  0.2617
  122MOL0     C16375   6.310   1.611   2.301  0.2148  0.7322 -0.3902
  122MOL0     C16376   6.196   1.697   2.250  0.4102  0.1668  0.4387
  122MOL0     C16377   6.175   1.698   2.092 -0.4062 -0.8970 -0.1924
  122MOL0     C16378   6.291   1.779   2.023 -0.3130 -0.4236  0.1353
  122MOL0    Cl16379   6.282   1.760   1.843  0.2137  0.2731 -0.1043
  122MOL0     C16380   6.480   1.838   2.916 -0.8207 -0.4553 -0.9173
  122MOL0     C16381   6.531   1.914   3.019 -0.3209  0.2093 -0.1526
  122MOL0     O16382   6.869   1.887   3.154  0.8684 -1.2387 -0.0603
  122MOL0     C16383   6.799   1.852   3.483  0.2744  0.4250 -0.9504
  122MOL0     C16384   6.855   1.858   3.615  0.5463 -0.2688  0.4167
  122MOL0     N16385   6.761   1.666   4.297 -0.3771  0.4114  0.7150
  122MOL0     N16386   6.714   1.638   4.407  0.6734  0.9699  1.6320
  122MOL0     C16387   6.938   1.893   5.723  0.2288 -0.1818 -0.2444
  122MOL0     C16388   6.984   1.928   5.851  0.1827 -0.5235 -0.1829
  122MOL0     C16389   7.241   2.132   6.176 -0.1141  1.1086 -0.7217
  122MOL0     C16390   7.311   2.062   6.269 -0.7703 -0.5838 -1.1822
  122MOL0     C16391   7.421   2.130   6.334  1.0524 -0.0101 -0.8314
  122MOL0     C16392   7.438   2.269   6.329 -0.4262  0.0324 -0.4212
  122MOL0     O16393   7.537   2.345   6.398  0.3427  0.5445  0.5236
  122MOL0     C16394   7.632   2.282   6.491 -0.9121  0.2683  0.7594
  122MOL0     C16395   7.746   2.385   6.513 -0.8199  1.1956  0.2448
  122MOL0     C16396   7.878   2.328   6.473 -0.8704 -0.5055  0.7867
  122MOL0     C16397   7.931   2.226   6.573  1.1417 -0.4582  0.0490
  122MOL0     C16398   7.959   2.306   6.701  0.3204  0.7719  0.2177
  122MOL0     C16399   7.973   2.347   6.819 -0.1931 -0.4111  0.0795
  122MOL0     C16400   7.350   2.336   6.245  0.7859 -0.1363  0.0771
  122MOL0     C16401   7.253   2.272   6.171 -0.0436 -0.0795  0.5649
  122MOL0     C16402   7.164   2.357   6.074  0.1886 -0.0511  0.3128
  122MOL0     H16403   6.999   2.266   5.823  0.2446  0.2160 -2.0470
  122MOL0     H16404   6.912   2.209   5.592 -0.7836  0.9921  2.7033
  122MOL0     H16405   6.697   1.882   5.590 -0.3365 -0.6125  0.7831
  122MOL0     H16406   6.676   2.000   5.473 -1.0873 -1.1442 -1.0896
  122MOL0     H16407   6.630   1.778   5.362  0.7416 -2.3063  0.0965
  122MOL0     H16408   6.781   1.711   5.405 -0.7157 -0.9448  1.5018
  122MOL0     H16409   6.895   1.842   5.248  0.2116  0.7971 -2.6859
  122MOL0     H16410   6.768   1.959   5.243 -0.8120 -0.0300  0.1268
  122MOL0     H16411   6.728   1.674   5.146  0.0756  0.5204  3.6961
  122MOL0     H16412   6.621   1.796   5.108 -0.5834 -2.1294  0.3549
  122MOL0     H16413   6.791   1.921   4.979 -0.1892 -0.5902 -1.0027
  122MOL0     H16414   6.914   1.803   5.012 -0.6100 -3.4668  3.0299
  122MOL0     H16415   6.754   1.627   4.904 -0.5769 -0.1979 -1.6761
  122MOL0     H16416   6.636   1.763   4.886 -0.1762  0.5338 -1.2010
  122MOL0     H16417   6.898   1.764   4.741  1.1231  0.9137 -0.6041
  122MOL0     H16418   6.768   1.882   4.734 -5.4154 -0.6954  0.5612
  122MOL0     H16419   6.762   1.591   4.651  1.0295  0.5103  0.3927
  122MOL0     H16420   6.617   1.698   4.648 -0.7294  1.3469 -0.9173
  122MOL0     H16421   6.900   1.897   4.491  0.2896  0.6726 -0.4811
  122MOL0     H16422   6.807   1.867   4.121 -0.7047 -0.8674 -0.1027
  122MOL0     H16423   6.941   1.952   4.211  4.5910 -1.8449 -3.1238
  122MOL0     H16424   7.084   1.756   4.184 -0.8071  3.9668  2.5814
  122MOL0     H16425   6.959   1.685   4.076 -0.1965  0.6297 -0.9304
  122MOL0     H16426   7.160   1.846   3.959 -0.3582  1.4806 -3.1176
  122MOL0     H16427   7.066   1.970   4.030 -3.1957  0.4572 -0.3293
  122MOL0     H16428   6.877   1.911   3.896 -1.3554  1.4803 -3.1004
  122MOL0     H16429   6.955   1.753   3.855  0.4845  1.0745 -1.0314
  122MOL0     H16430   7.109   2.061   3.551  0.2447 -0.1490 -2.4455
  122MOL0     H16431   7.034   2.035   3.330  2.5234 -0.9668  2.1669
  122MOL0     H16432   6.672   1.666   3.207 -1.7388 -1.3775  0.1034
  122MOL0     H16433   6.615   1.534   2.987  0.6829  0.6915 -3.4322
  122MOL0     H16434   6.585   1.481   2.719 -0.9882 -0.7233 -2.1558
  122MOL0     H16435   6.454   1.455   2.848 -1.6013  2.1725  1.0672
  122MOL0     H16436   6.367   1.363   2.658  1.7785 -0.1477  1.0322
  122MOL0     H16437   6.286   1.507   2.686 -1.7757 -3.5622 -2.5836
  122MOL0     H16438   6.506   1.578   2.516 -0.3110  2.3226 -0.7137
  122MOL0     H16439   6.439   1.430   2.450 -0.2509 -0.4955  1.4382
  122MOL0     H16440   6.303   1.697   2.506  3.2495  0.6074  0.6266
  122MOL0     H16441   6.217   1.540   2.498  3.0591 -2.4236  3.5309
  122MOL0     H16442   6.289   1.510   2.264 -0.4615  1.3546 -1.8038
  122MOL0     H16443   6.402   1.652   2.258  2.2618 -1.1872  1.8050
  122MOL0     H16444   6.106   1.661   2.300 -0.3232 -0.3139 -1.1632
  122MOL0     H16445   6.210   1.804   2.272  0.9514  0.9585 -3.1293
  122MOL0     H16446   6.077   1.740   2.067 -0.6780 -1.3699  0.0659
  122MOL0     H16447   6.183   1.592   2.066 -0.4104 -0.9576  0.0565
  122MOL0     H16448   6.290   1.885   2.052  4.2366 -0.7634  2.3640
  122MOL0     H16449   6.388   1.738   2.050 -1.2742 -3.0911 -0.1381
  122MOL0     H16450   6.413   1.878   2.841  1.6267  2.8735 -1.5514
  122MOL0     H16451   6.508   2.020   3.021  1.7076  0.6894  1.7382
  122MOL0     H16452   6.711   1.792   3.465  0.8252 -1.5668  2.1972
  122MOL0     H16453   6.800   1.806   3.694  0.5308  2.0972  2.0860
  122MOL0     H16454   6.925   1.790   5.693 -2.4540  0.3116 -0.9798
  122MOL0     H16455   7.016   1.840   5.905  6.7349  0.1841 -2.0474
  122MOL0     H16456   7.307   1.954   6.278 -1.6669 -0.5439 -0.9667
  122MOL0     H16457   7.486   2.089   6.411 -3.5804 -1.6799  2.6770
  122MOL0     H16458   7.656   2.180   6.460  1.5502  1.1024 -0.3888
  122MOL0     H16459   7.579   2.265   6.585 -0.4068 -2.7940  0.5840
  122MOL0     H16460   7.742   2.418   6.617  1.2313 -1.9359  1.4529
  122MOL0     H16461   7.727   2.467   6.443 -0.1769 -1.7818 -3.7475
  122MOL0     H16462   7.949   2.409   6.454 -2.7629  0.9425 -0.4981
  122MOL0     H16463   7.874   2.279   6.375  1.4128  2.4609 -0.9840
  122MOL0     H16464   7.859   2.149   6.600  0.1757  0.5162  0.3322
  122MOL0     H16465   8.019   2.177   6.530  1.5099  0.4496 -0.2656
  122MOL0     H16466   7.976   2.384   6.920  0.2124  0.6516 -0.3100
  122MOL0     H16467   7.361   2.443   6.233  4.1518 -0.4461 -0.6503
  122MOL0     H16468   7.185   2.340   5.968 -1.1294  2.0828 -0.3550
  122MOL0     H16469   7.059   2.360   6.105 -0.5589  2.1299 -2.0344
  122MOL0     H16470   7.203   2.458   6.091  2.3993 -0.3690 -2.1584
  123MOL0     O16471   2.940   2.347   5.541 -0.3440  0.3934 -0.2018
  123MOL0     C16472   2.862   2.255   5.542 -0.2871  0.3684 -0.2730
  123MOL0     O16473   2.875   2.142   5.622 -0.5679  0.1054 -0.0915
  123MOL0     C16474   2.973   2.159   5.725 -0.3508  0.4403  0.3093
  123MOL0     C16475   3.047   2.044   5.755 -0.1863 -0.6855  0.9098
  123MOL0     C16476   3.144   2.046   5.845 -0.3967 -1.1370 -0.3197
  123MOL0     C16477   3.170   2.159   5.926  0.1936 -0.2127 -0.3304
  123MOL0     O16478   3.257   2.158   6.033  0.7859 -0.0427 -0.0752
  123MOL0     C16479   3.317   2.035   6.072  1.1307  0.2885 -0.3894
  123MOL0     C16480   3.455   2.021   6.019 -0.2575 -0.3713  0.0596
  123MOL0     C16481   3.566   2.128   6.055  0.0052  1.2344  0.3623
  123MOL0     C16482   3.716   2.093   6.035  0.2578  0.2814 -0.5869
  123MOL0     C16483   3.738   2.091   5.883  0.6087  0.2177 -0.0975
  123MOL0     C16484   3.866   2.052   5.821 -0.3343  0.0691  0.2668
  123MOL0     C16485   3.991   2.109   5.881 -0.5979 -0.4138  0.1528
  123MOL0     C16486   4.110   2.132   5.784 -0.0890  0.0271 -0.1252
  123MOL0     N16487   4.159   2.002   5.740  0.6598  0.0554  0.3554
  123MOL0     C16488   4.102   1.919   5.635 -1.0825  0.3071 -0.4420
  123MOL0     C16489   4.180   1.807   5.643 -0.3189  0.1485  0.4983
  123MOL0     C16490   4.170   1.691   5.545 -0.4971  0.6610 -0.3660
  123MOL0     C16491   4.198   1.726   5.399 -0.3502  0.3970  0.0831
  123MOL0     C16492   4.355   1.744   5.375 -0.2855 -0.3456 -0.8200
  123MOL0     C16493   4.447   1.624   5.421 -0.7347 -0.0851  0.0156
  123MOL0     O16494   4.443   1.528   5.317  0.7757  0.3815  0.5022
  123MOL0     C16495   4.533   1.425   5.337  0.3927 -1.0564  0.8618
  123MOL0     C16496   4.569   1.372   5.215  1.0060  0.0449 -0.1388
  123MOL0     C16497   4.673   1.279   5.204  0.9887 -0.4844 -0.3067
  123MOL0     C16498   4.753   1.251   5.315  0.2923  0.1681 -0.0777
  123MOL0     C16499   4.871   1.152   5.303  0.1829 -0.0642 -0.3155
  123MOL0     O16500   4.953   1.122   5.410 -0.1533 -1.0516  0.2604
  123MOL0     C16501   5.062   1.046   5.387 -0.4570  0.9171  0.8702
  123MOL0     C16502   5.060   0.903   5.406 -0.1979 -0.9296 -0.9787
  123MOL0     C16503   5.183   0.844   5.415 -0.1022  0.2278 -0.2282
  123MOL0     C16504   5.310   0.913   5.388  0.5176  0.1157 -0.4734
  123MOL0     O16505   5.439   0.870   5.394  0.2614 -1.8115  0.3120
  123MOL0     C16506   5.460   0.743   5.352 -0.0078 -0.3723  0.4172
  123MOL0     C16507   5.549   0.722   5.223 -0.3766  1.2289 -0.4192
  123MOL0     C16508   5.474   0.768   5.097  0.0953 -0.7354 -0.0899
  123MOL0     C16509   5.430   0.657   5.007  0.7470 -1.0476  0.0549
  123MOL0     C16510   5.306   0.580   5.070 -0.2591  0.6264  0.5877
  123MOL0     C16511   5.179   0.672   5.073 -0.1191 -0.0453 -0.4677
  123MOL0     C16512   5.052   0.584   5.101 -0.6863  0.2794  0.1467
  123MOL0     C16513   4.938   0.683   5.091 -0.5641  0.2508 -0.4728
  123MOL0    Cl16514   4.783   0.598   5.079  0.0393 -0.0994 -0.1843
  123MOL0     C16515   5.302   1.046   5.355 -0.3948  0.2744  0.2096
  123MOL0     C16516   5.181   1.112   5.349  0.2981 -0.1041  1.2268
  123MOL0     O16517   4.884   1.093   5.195  0.1225 -0.1739 -0.3031
  123MOL0     C16518   4.714   1.309   5.432 -0.1632 -0.8623  0.6059
  123MOL0     C16519   4.604   1.384   5.451  0.3176 -0.4436 -0.1982
  123MOL0     N16520   4.268   1.827   5.750  0.3677 -0.3366  0.7230
  123MOL0     N16521   4.259   1.944   5.805  0.2242  0.6624  0.4117
  123MOL0     C16522   3.094   2.276   5.904  0.1432  0.5578  0.1268
  123MOL0     C16523   2.996   2.273   5.802  0.0159  0.0958  0.2958
  123MOL0     C16524   2.735   2.261   5.462 -0.0686 -0.7072  0.1046
  123MOL0     C16525   2.708   2.381   5.389  0.8068  0.0956  0.9139
  123MOL0     C16526   2.609   2.386   5.294  0.4903  0.2626  0.1739
  123MOL0     C16527   2.500   2.294   5.300 -0.6549  0.2160 -1.1546
  123MOL0     O16528   2.386   2.275   5.216 -0.3048  0.6371 -0.7875
  123MOL0     C16529   2.349   2.384   5.121  0.0042  0.4129  0.2813
  123MOL0     C16530   2.203   2.337   5.069 -0.5780  0.5579 -0.1684
  123MOL0     C16531   2.145   2.437   4.953 -0.1789  0.1926  0.5169
  123MOL0     C16532   1.987   2.399   4.922 -0.3205 -0.9140  0.0452
  123MOL0     C16533   1.947   2.465   4.800 -0.0720  0.5633  0.5620
  123MOL0     C16534   1.914   2.519   4.695 -1.1417  0.5951  0.3991
  123MOL0     C16535   2.522   2.183   5.388  0.2416 -0.3637  0.3798
  123MOL0     C16536   2.636   2.161   5.464 -0.0718  0.2714 -0.1407
  123MOL0     C16537   2.637   2.034   5.542  0.4670  0.5504 -0.6269
  123MOL0     H16538   3.018   1.961   5.690 -2.5122  1.7115 -1.3642
  123MOL0     H16539   3.209   1.959   5.851  0.4862 -0.3955  1.4503
  123MOL0     H16540   3.327   2.034   6.181 -0.0205 -1.4483 -0.2688
  123MOL0     H16541   3.265   1.940   6.062  0.4508  0.7774 -1.8861
  123MOL0     H16542   3.438   2.030   5.911 -1.2531  4.6225  0.3709
  123MOL0     H16543   3.504   1.929   6.050  0.0464 -0.1966  0.1056
  123MOL0     H16544   3.548   2.162   6.158 -1.2839  1.6061  0.0351
  123MOL0     H16545   3.548   2.217   5.994  0.6580  0.6573 -0.7029
  123MOL0     H16546   3.778   2.169   6.085  0.7558 -1.8717  2.3065
  123MOL0     H16547   3.746   1.998   6.079 -2.8052  0.0267  1.2454
  123MOL0     H16548   3.668   2.015   5.845  0.8133  0.5066 -1.0941
  123MOL0     H16549   3.717   2.191   5.843 -0.9903  0.8824  2.1723
  123MOL0     H16550   3.867   1.943   5.816  1.6551  0.0666 -0.3981
  123MOL0     H16551   3.852   2.080   5.716  2.8431  1.4427  0.0777
  123MOL0     H16552   4.019   2.054   5.971 -1.2168 -0.5523  0.2652
  123MOL0     H16553   3.962   2.207   5.920  0.8102  0.0582  0.0865
  123MOL0     H16554   4.092   2.205   5.704 -1.5843  0.6107  0.7169
  123MOL0     H16555   4.184   2.176   5.851  1.0751  3.0733 -3.1168
  123MOL0     H16556   4.024   1.945   5.564 -2.7146 -1.1156  0.7371
  123MOL0     H16557   4.225   1.601   5.577  2.5483  1.3572 -3.0407
  123MOL0     H16558   4.063   1.670   5.540 -0.8369  2.3815 -0.8991
  123MOL0     H16559   4.162   1.648   5.331  2.0104 -1.3491  0.7021
  123MOL0     H16560   4.169   1.827   5.369 -1.6305 -0.2702 -1.0231
  123MOL0     H16561   4.405   1.814   5.443 -0.8157 -0.7133 -0.0338
  123MOL0     H16562   4.377   1.763   5.270 -1.0512 -0.3809 -0.9889
  123MOL0     H16563   4.416   1.578   5.515  0.3362  4.1571  2.7042
  123MOL0     H16564   4.553   1.649   5.433 -0.1048 -0.3019 -3.7769
  123MOL0     H16565   4.525   1.410   5.123 -0.9146  0.9641  1.1058
  123MOL0     H16566   4.692   1.235   5.107 -1.6205  1.5237 -1.8675
  123MOL0     H16567   4.971   0.853   5.443 -1.8022  2.7876  0.8615
  123MOL0     H16568   5.183   0.735   5.423 -1.2232  0.1067 -1.5370
  123MOL0     H16569   5.516   0.689   5.429  1.6155 -4.2392 -3.0820
  123MOL0     H16570   5.368   0.684   5.342 -1.6013  1.7033  1.8772
  123MOL0     H16571   5.635   0.790   5.228  0.8599 -0.3498  2.5525
  123MOL0     H16572   5.582   0.618   5.210 -1.3035  1.1109 -2.0083
  123MOL0     H16573   5.398   0.843   5.118 -1.0375 -2.4089  2.1599
  123MOL0     H16574   5.544   0.821   5.031 -1.4404 -0.5261 -1.6060
  123MOL0     H16575   5.512   0.584   5.008  1.5783 -0.1707  1.7464
  123MOL0     H16576   5.410   0.704   4.910  2.4024  1.2617  0.7363
  123MOL0     H16577   5.327   0.544   5.172 -0.4627  1.8403  1.0819
  123MOL0     H16578   5.273   0.495   5.011  2.3044  0.1049 -0.2136
  123MOL0     H16579   5.185   0.756   5.143  2.4053 -0.8648  0.4181
  123MOL0     H16580   5.167   0.716   4.974  1.2932 -0.3329 -0.7958
  123MOL0     H16581   5.041   0.527   5.193 -0.0306 -3.1143 -1.6860
  123MOL0     H16582   5.032   0.502   5.031 -3.0161  1.4826 -0.7272
  123MOL0     H16583   4.937   0.740   5.184 -0.2274 -1.0059  0.3290
  123MOL0     H16584   4.964   0.745   5.005 -0.3266  0.9487  0.0951
  123MOL0     H16585   5.392   1.090   5.314 -0.9515 -0.7648 -2.3406
  123MOL0     H16586   5.194   1.219   5.339  0.0456 -0.1391  0.3788
  123MOL0     H16587   4.779   1.301   5.518 -0.4338 -0.7096  0.8283
  123MOL0     H16588   4.591   1.424   5.551  1.2290  1.5176 -0.8342
  123MOL0     H16589   3.117   2.355   5.975 -0.9875 -1.7215  3.3037
  123MOL0     H16590   2.941   2.367   5.800 -1.0745 -0.4940  1.4721
  123MOL0     H16591   2.774   2.467   5.383 -0.4662  1.0716  0.4674
  123MOL0     H16592   2.604   2.463   5.218  2.3366  3.0345  2.6514
  123MOL0     H16593   2.421   2.384   5.039  1.2434 -3.8263  1.0835
  123MOL0     H16594   2.349   2.473   5.184 -1.4589  0.5795  0.0691
  123MOL0     H16595   2.139   2.343   5.158 -1.2832  0.6467 -0.6793
  123MOL0     H16596   2.200   2.233   5.034 -1.1840  0.5272 -0.0335
  123MOL0     H16597   2.212   2.435   4.866  2.0387  0.2992  2.1491
  123MOL0     H16598   2.149   2.543   4.982 -2.5123  0.5458 -0.1653
  123MOL0     H16599   1.989   2.292   4.899  0.4284 -1.2165  1.4219
  123MOL0     H16600   1.923   2.419   5.008 -0.1449  0.2420 -0.0735
  123MOL0     H16601   1.882   2.550   4.597 -1.4413 -0.9435 -0.0069
  123MOL0     H16602   2.440   2.112   5.399 -0.6673  0.7970  1.3931
  123MOL0     H16603   2.557   1.964   5.516 -0.7079  1.4907  0.3696
  123MOL0     H16604   2.730   1.980   5.519 -1.5785 -2.2305 -3.2503
  123MOL0     H16605   2.628   2.053   5.649 -2.1153 -1.4206 -0.4006
  124MOL0     O16606   4.539  11.338   9.634 -0.3169  0.2076  1.2298
  124MOL0     C16607   4.530  11.445   9.701 -0.1077  1.1806 -0.2367
  124MOL0     O16608   4.618  11.481   9.800  1.0738  0.6331  0.1974
  124MOL0     C16609   4.727  11.414   9.819 -0.0111  0.0592  0.0190
  124MOL0     C16610   4.847  11.468   9.787  0.7351 -0.2828  0.5908
  124MOL0     C16611   4.965  11.406   9.824  0.3002 -0.5507 -0.6407
  124MOL0     C16612   4.966  11.279   9.883  1.1467 -0.2657  0.0408
  124MOL0     O16613   5.072  11.204   9.920  0.2775  0.5845  0.5171
  124MOL0     C16614   5.204  11.249   9.911  0.4236 -0.1278  0.0604
  124MOL0     C16615   5.259  11.228   9.774 -0.2198  0.2272  0.4434
  124MOL0     C16616   5.405  11.257   9.775 -1.0871 -0.2983 -0.5927
  124MOL0     C16617   5.487  11.177   9.678  0.3887  1.1048  0.3208
  124MOL0     C16618   5.480  11.229   9.531  0.1834 -0.1770 -0.0656
  124MOL0     C16619   5.580  11.157   9.443  0.0315 -1.2308  0.4404
  124MOL0     C16620   5.576  11.185   9.289 -0.2463 -1.1173  0.3575
  124MOL0     C16621   5.692  11.110   9.214  0.7288 -0.4403  0.1526
  124MOL0     N16622   5.638  11.024   9.102 -0.5083  0.2885 -0.7094
  124MOL0     C16623   5.670  11.043   8.975 -0.5951  0.1493  0.1291
  124MOL0     C16624   5.636  10.933   8.911 -0.5727 -0.4124  0.0515
  124MOL0     C16625   5.651  10.898   8.767 -0.1107 -0.4128  0.7002
  124MOL0     C16626   5.567  10.973   8.657  0.7573  0.0301 -0.7014
  124MOL0     C16627   5.427  10.997   8.708 -0.5760 -0.1691 -1.1315
  124MOL0     C16628   5.333  11.071   8.611  0.0145  0.4423  0.2533
  124MOL0     O16629   5.290  10.979   8.503 -0.1045 -0.0631  0.8131
  124MOL0     C16630   5.199  10.882   8.534 -1.0245  0.7725 -0.2839
  124MOL0     C16631   5.137  10.863   8.655 -0.3335 -0.3734 -0.6305
  124MOL0     C16632   5.052  10.752   8.674 -0.4153  0.0144 -0.6656
  124MOL0     C16633   5.038  10.661   8.571  0.1258 -0.0286 -0.3001
  124MOL0     C16634   4.948  10.546   8.575 -0.2137 -0.4740  0.1619
  124MOL0     O16635   4.889  10.501   8.457 -0.7607  0.5118 -0.0657
  124MOL0     C16636   4.772  10.423   8.453 -0.7724 -0.2597  0.3657
  124MOL0     C16637   4.661  10.469   8.524  0.9001 -1.9332  0.8091
  124MOL0     C16638   4.539  10.407   8.519  0.8887  0.9855  0.4357
  124MOL0     C16639   4.519  10.299   8.435  0.1412  0.5770  1.0297
  124MOL0     O16640   4.388  10.254   8.411  0.1283  0.1715 -0.4633
  124MOL0     C16641   4.322  10.154   8.498 -0.0926 -1.0765 -0.6552
  124MOL0     C16642   4.408  10.038   8.530  0.3869 -0.7231 -0.3802
  124MOL0     C16643   4.375   9.931   8.427 -1.0466 -0.8481  0.2127
  124MOL0     C16644   4.467   9.813   8.451  0.0360 -1.4931  0.2857
  124MOL0     C16645   4.403   9.677   8.393  0.4697 -0.7256 -0.5433
  124MOL0     C16646   4.509   9.590   8.358 -0.8339  0.0115  0.2279
  124MOL0     C16647   4.467   9.447   8.352  0.2421  0.2103  0.8246
  124MOL0     C16648   4.351   9.420   8.259  0.3556 -0.5698 -0.0745
  124MOL0    Cl16649   4.318   9.252   8.294  0.0674 -0.1203  0.2125
  124MOL0     C16650   4.630  10.254   8.357 -0.2112 -0.8426 -0.3073
  124MOL0     C16651   4.748  10.317   8.366 -0.1542  0.2697 -0.1050
  124MOL0     O16652   4.927  10.510   8.693 -0.0317  1.2960  0.3190
  124MOL0     C16653   5.107  10.683   8.448  0.3145 -0.5794 -0.2607
  124MOL0     C16654   5.175  10.800   8.424  1.3811 -1.2035 -0.4470
  124MOL0     N16655   5.552  10.858   8.994  0.2124 -0.1258  0.0550
  124MOL0     N16656   5.567  10.908   9.113  0.1097  0.0708 -0.4461
  124MOL0     C16657   4.840  11.225   9.907  0.5050 -0.2145 -0.0670
  124MOL0     C16658   4.727  11.294   9.890 -0.3839 -0.6029 -0.4777
  124MOL0     C16659   4.418  11.536   9.688  0.2388  0.4050  0.2497
  124MOL0     C16660   4.408  11.650   9.763  0.2819 -0.1718 -0.1943
  124MOL0     C16661   4.305  11.739   9.756  0.7349 -0.3622 -0.0836
  124MOL0     C16662   4.197  11.724   9.667 -0.1623 -0.1285  0.5492
  124MOL0     O16663   4.092  11.805   9.671 -0.2333 -0.6705  0.3367
  124MOL0     C16664   3.957  11.738   9.664  0.0063  0.7463 -0.1945
  124MOL0     C16665   3.835  11.817   9.722  0.1928  0.8320 -0.2783
  124MOL0     C16666   3.819  11.945   9.644 -0.4500  0.1944 -0.7681
  124MOL0     C16667   3.725  12.069   9.691  1.1161 -0.3029  1.0491
  124MOL0     C16668   3.750  12.199   9.632 -0.6823  0.3962  0.2508
  124MOL0     C16669   3.761  12.293   9.555 -0.4372  0.7867 -0.1256
  124MOL0     C16670   4.204  11.613   9.586  0.0343 -0.2810  0.2618
  124MOL0     C16671   4.309  11.517   9.593  0.7509 -0.1547  0.0886
  124MOL0     C16672   4.278  11.383   9.518  0.6502 -0.6360  0.5541
  124MOL0     H16673   4.856  11.561   9.732  1.2215 -1.0476 -0.6691
  124MOL0     H16674   5.059  11.452   9.795 -0.0080  0.5613  0.0588
  124MOL0     H16675   5.220  11.357   9.919  0.2991  0.1439 -2.3750
  124MOL0     H16676   5.257  11.196   9.990 -1.0671 -0.9350  0.5695
  124MOL0     H16677   5.202  11.293   9.705  1.4436  1.1520 -0.1198
  124MOL0     H16678   5.238  11.124   9.749 -1.6743  0.2604  1.4198
  124MOL0     H16679   5.443  11.232   9.875  2.4156  1.6151 -1.2693
  124MOL0     H16680   5.410  11.363   9.751 -2.0780 -0.5535 -2.0269
  124MOL0     H16681   5.592  11.175   9.709  0.4692 -0.0003  0.0192
  124MOL0     H16682   5.452  11.074   9.682  2.1169  0.4715 -0.0370
  124MOL0     H16683   5.379  11.202   9.499  0.9882 -1.1731 -1.8842
  124MOL0     H16684   5.480  11.339   9.531 -1.3136 -0.0582  3.1284
  124MOL0     H16685   5.682  11.185   9.471  0.2257 -1.1275 -0.3443
  124MOL0     H16686   5.556  11.051   9.454 -1.8049 -0.8980 -0.0980
  124MOL0     H16687   5.587  11.290   9.258  2.7032 -1.2503  0.6972
  124MOL0     H16688   5.472  11.162   9.263 -2.7211  4.9018  2.9035
  124MOL0     H16689   5.756  11.189   9.174 -3.1718  2.9178 -0.0418
  124MOL0     H16690   5.745  11.052   9.291  0.8820  2.2366  2.2154
  124MOL0     H16691   5.734  11.126   8.947  0.8498 -0.4361  1.5462
  124MOL0     H16692   5.756  10.913   8.742  0.1886 -1.4421  1.2819
  124MOL0     H16693   5.625  10.792   8.758  0.0087 -0.3832 -0.0415
  124MOL0     H16694   5.613  11.069   8.634 -2.7578  0.8844 -6.0137
  124MOL0     H16695   5.576  10.909   8.568  0.2612 -1.6957  0.4305
  124MOL0     H16696   5.441  11.075   8.783  1.4134  0.8076 -2.4213
  124MOL0     H16697   5.380  10.909   8.754 -2.4575  0.7507 -1.1985
  124MOL0     H16698   5.370  11.170   8.583  0.6467  0.0737 -0.2319
  124MOL0     H16699   5.238  11.093   8.662 -0.1559 -0.0682  0.1582
  124MOL0     H16700   5.141  10.939   8.732  0.2756 -1.6252  0.6032
  124MOL0     H16701   5.007  10.735   8.771 -1.0846 -1.1633 -1.1561
  124MOL0     H16702   4.671  10.554   8.591 -0.3401  0.6764 -2.0627
  124MOL0     H16703   4.453  10.463   8.556  1.0960  0.9985  0.9026
  124MOL0     H16704   4.298  10.209   8.589  1.0357 -0.5429 -0.6529
  124MOL0     H16705   4.230  10.127   8.446  0.7586 -0.1736 -2.7488
  124MOL0     H16706   4.515  10.060   8.526  1.3953 -4.6362  0.6111
  124MOL0     H16707   4.386  10.000   8.630  1.5800 -0.6883 -0.0898
  124MOL0     H16708   4.272   9.898   8.449 -0.6126 -3.2802 -1.0882
  124MOL0     H16709   4.370   9.973   8.326 -0.8111  0.3016  0.6614
  124MOL0     H16710   4.492   9.822   8.557 -5.2666  1.5202  1.6606
  124MOL0     H16711   4.565   9.823   8.405  0.0496  0.6476  0.6651
  124MOL0     H16712   4.347   9.700   8.302  0.2693 -1.1107 -0.5175
  124MOL0     H16713   4.326   9.642   8.464  0.4505 -3.1688 -1.6857
  124MOL0     H16714   4.561   9.625   8.269 -0.9038  1.7385  0.8228
  124MOL0     H16715   4.589   9.600   8.432 -2.4907  2.5137  1.8411
  124MOL0     H16716   4.446   9.399   8.449 -2.6458  0.0458  0.2257
  124MOL0     H16717   4.549   9.387   8.313 -0.2465 -1.2052  1.8819
  124MOL0     H16718   4.257   9.473   8.280 -1.3616 -2.3090 -2.8008
  124MOL0     H16719   4.369   9.415   8.152 -2.1228 -2.1540 -0.5103
  124MOL0     H16720   4.632  10.172   8.286 -1.6136 -2.0109  0.9452
  124MOL0     H16721   4.825  10.279   8.300  2.4177  0.4187  2.6225
  124MOL0     H16722   5.088  10.625   8.357 -1.5171  2.1801 -1.7795
  124MOL0     H16723   5.213  10.826   8.326 -1.8600  2.3904 -0.9594
  124MOL0     H16724   4.830  11.133   9.963  0.6403 -1.5526 -2.1529
  124MOL0     H16725   4.632  11.246   9.914 -1.2211 -1.0801 -4.1532
  124MOL0     H16726   4.493  11.669   9.828 -0.0817 -0.2119  0.3049
  124MOL0     H16727   4.286  11.821   9.825  0.8689 -0.8448  0.5350
  124MOL0     H16728   3.959  11.642   9.716 -1.3304  1.9853  2.3466
  124MOL0     H16729   3.943  11.712   9.559  0.3024 -1.2137  0.2138
  124MOL0     H16730   3.850  11.834   9.829  0.3434 -1.7275  0.1744
  124MOL0     H16731   3.752  11.745   9.719  1.3323 -0.6789  2.1084
  124MOL0     H16732   3.818  11.924   9.537  0.5353 -3.2186 -0.2143
  124MOL0     H16733   3.914  11.999   9.647 -0.4216  0.2180 -1.8053
  124MOL0     H16734   3.625  12.051   9.649  0.7389  0.7023  1.4786
  124MOL0     H16735   3.723  12.084   9.799  0.8772 -1.2330  1.1736
  124MOL0     H16736   3.777  12.381   9.496 -4.8910 -0.7543 -4.4375
  124MOL0     H16737   4.122  11.587   9.520 -1.5230  0.5084  1.8117
  124MOL0     H16738   4.191  11.398   9.454 -0.4030  1.2812  2.3301
  124MOL0     H16739   4.370  11.340   9.477 -0.2033 -1.4606 -0.5664
  124MOL0     H16740   4.239  11.307   9.587  5.7225 -4.2508  0.0778
  125MOL0     O16741   1.978  10.025   6.474 -0.4208  0.7848  0.2169
  125MOL0     C16742   1.939  10.062   6.578  0.0020  0.0871 -0.2326
  125MOL0     O16743   1.864   9.990   6.669 -0.0367 -0.9651 -0.0346
  125MOL0     C16744   1.838   9.855   6.635 -0.8612 -0.7387 -0.2490
  125MOL0     C16745   1.713   9.826   6.573  0.3740 -0.7507  0.1573
  125MOL0     C16746   1.661   9.702   6.562  0.1312  0.4341  0.3394
  125MOL0     C16747   1.738   9.595   6.597  0.7513 -0.8024  0.2367
  125MOL0     O16748   1.693   9.463   6.583  0.1440 -0.0939  0.0433
  125MOL0     C16749   1.780   9.380   6.503  0.8172  0.2502  0.8914
  125MOL0     C16750   1.728   9.235   6.518  0.2690 -0.5774  0.9370
  125MOL0     C16751   1.745   9.186   6.659  0.2404 -0.5190 -0.9725
  125MOL0     C16752   1.715   9.032   6.681  0.5230  0.1389  0.5129
  125MOL0     C16753   1.800   8.937   6.597  0.4406 -0.1281 -0.8945
  125MOL0     C16754   1.761   8.788   6.631  0.9593 -0.0943  0.5909
  125MOL0     C16755   1.827   8.691   6.529  0.0585  0.1484 -0.5596
  125MOL0     C16756   1.751   8.552   6.505 -0.3645 -0.4651  1.1552
  125MOL0     N16757   1.709   8.488   6.627  0.0345  0.6483  0.7779
  125MOL0     C16758   1.588   8.478   6.686 -0.5722  1.0941  0.7250
  125MOL0     C16759   1.604   8.392   6.785 -0.6698 -0.2124  0.0860
  125MOL0     C16760   1.499   8.361   6.893  0.0887 -0.2119  0.2312
  125MOL0     C16761   1.552   8.378   7.031 -0.4423 -0.7968 -0.6358
  125MOL0     C16762   1.597   8.512   7.071  0.0460 -0.1006  0.4115
  125MOL0     C16763   1.656   8.526   7.208 -0.7404  0.1240 -0.1708
  125MOL0     O16764   1.620   8.659   7.244  0.3936  0.2229  0.1444
  125MOL0     C16765   1.687   8.714   7.357  0.6023 -0.7095  0.1831
  125MOL0     C16766   1.740   8.641   7.465 -0.7819 -0.0992  0.4916
  125MOL0     C16767   1.825   8.702   7.556  0.1804  0.1908  0.4730
  125MOL0     C16768   1.834   8.839   7.565 -1.2728 -0.5675 -0.1537
  125MOL0     C16769   1.893   8.906   7.683  0.8223  1.1237 -0.3917
  125MOL0     O16770   1.870   9.035   7.706 -0.2493  0.1167  0.1898
  125MOL0     C16771   1.949   9.102   7.800 -0.2641 -0.4222  0.3913
  125MOL0     C16772   1.890   9.215   7.853 -0.5972 -0.7415 -0.8586
  125MOL0     C16773   1.953   9.315   7.924  0.0290  0.4438  0.2403
  125MOL0     C16774   2.088   9.300   7.945 -0.1743 -0.0554  0.3517
  125MOL0     O16775   2.138   9.401   8.021 -0.3114  0.2339  0.8933
  125MOL0     C16776   2.265   9.391   8.079  0.7985 -0.1825 -0.4295
  125MOL0     C16777   2.309   9.523   8.149 -0.8196 -0.6891 -0.0324
  125MOL0     C16778   2.367   9.623   8.043  0.0731  0.5578 -0.3685
  125MOL0     C16779   2.435   9.740   8.120  0.1913  0.1015  0.9412
  125MOL0     C16780   2.491   9.850   8.026  0.2895  0.6132  0.1030
  125MOL0     C16781   2.486   9.980   8.097  0.6023  0.3684  1.1310
  125MOL0     C16782   2.521  10.089   8.002 -0.1022 -0.0881 -0.8410
  125MOL0     C16783   2.407  10.146   7.919  0.2943 -0.5331  0.4166
  125MOL0    Cl16784   2.352  10.032   7.796 -0.0872 -0.4180  0.6614
  125MOL0     C16785   2.152   9.181   7.913 -0.1595  0.5330 -0.7811
  125MOL0     C16786   2.089   9.089   7.825  0.4628 -0.3350  0.4944
  125MOL0     O16787   1.940   8.828   7.767 -0.2041  0.4561 -0.0495
  125MOL0     C16788   1.777   8.917   7.460  0.4148  0.0870  0.2476
  125MOL0     C16789   1.700   8.854   7.356  0.2005 -0.1157 -1.2685
  125MOL0     N16790   1.738   8.363   6.789 -0.2260 -0.4019 -0.3433
  125MOL0     N16791   1.800   8.416   6.696 -0.1212  0.6352 -0.4988
  125MOL0     C16792   1.872   9.619   6.654  0.4423 -0.1440  0.4361
  125MOL0     C16793   1.916   9.749   6.670  1.1421 -0.5435 -1.3404
  125MOL0     C16794   1.966  10.198   6.605 -0.2469 -0.0818  0.7071
  125MOL0     C16795   1.861  10.267   6.651  0.6642  0.4144 -0.0391
  125MOL0     C16796   1.864  10.395   6.695 -0.4158 -0.3725 -0.7729
  125MOL0     C16797   1.991  10.453   6.699  0.1479 -0.0846  1.1503
  125MOL0     O16798   2.019  10.579   6.746 -0.3568 -1.0998 -0.1408
  125MOL0     C16799   1.910  10.638   6.827 -0.1038  0.5331 -0.8084
  125MOL0     C16800   1.968  10.765   6.897  0.1487 -1.3422 -0.8513
  125MOL0     C16801   2.099  10.743   6.980 -0.8955 -0.8150  0.6379
  125MOL0     C16802   2.210  10.858   6.957  1.0286 -0.5478 -0.7271
  125MOL0     C16803   2.294  10.833   6.842 -0.0760 -0.0679  0.8017
  125MOL0     C16804   2.365  10.826   6.744  0.1460  0.0742 -0.1532
  125MOL0     C16805   2.102  10.387   6.649  0.1397  0.6485 -0.5845
  125MOL0     C16806   2.094  10.258   6.598 -0.8251  0.6512  0.8607
  125MOL0     C16807   2.218  10.183   6.547 -0.4688 -0.1088  0.5605
  125MOL0     H16808   1.635   9.897   6.548 -2.2124 -1.6663  4.5769
  125MOL0     H16809   1.561   9.689   6.523 -0.1811 -0.6885  1.4226
  125MOL0     H16810   1.796   9.414   6.400 -1.5156 -1.6418 -0.2085
  125MOL0     H16811   1.882   9.381   6.541  1.5481 -1.2198 -0.8677
  125MOL0     H16812   1.781   9.161   6.458 -1.4530 -1.8928  0.9854
  125MOL0     H16813   1.625   9.224   6.485  1.2267 -1.3292 -2.1075
  125MOL0     H16814   1.676   9.240   6.726 -2.1914 -5.5493  1.0936
  125MOL0     H16815   1.849   9.202   6.689  0.0840 -1.2451  0.0285
  125MOL0     H16816   1.734   9.007   6.786 -2.1948  0.1652  1.0688
  125MOL0     H16817   1.617   8.995   6.652  2.0225 -1.9964 -2.3766
  125MOL0     H16818   1.791   8.955   6.490 -4.5252 -1.2593 -0.8873
  125MOL0     H16819   1.905   8.951   6.624  0.3062 -1.7897  0.7442
  125MOL0     H16820   1.808   8.760   6.725  2.0724  0.7791  0.3188
  125MOL0     H16821   1.652   8.785   6.640  0.1847  4.0581 -3.3987
  125MOL0     H16822   1.931   8.677   6.560 -0.1237  1.4343  0.7039
  125MOL0     H16823   1.836   8.751   6.438  0.3796  0.5231 -0.2820
  125MOL0     H16824   1.655   8.576   6.458 -1.0337 -1.1838  2.1279
  125MOL0     H16825   1.810   8.475   6.455 -0.3837  0.2055  0.0580
  125MOL0     H16826   1.491   8.513   6.652 -2.0423 -1.5492  1.9258
  125MOL0     H16827   1.426   8.440   6.873  0.8197 -0.2456 -3.0599
  125MOL0     H16828   1.450   8.264   6.885  0.1939 -0.4537  1.9849
  125MOL0     H16829   1.468   8.348   7.095  0.8531 -1.6134  0.7365
  125MOL0     H16830   1.631   8.303   7.042 -3.0418 -3.5446  0.8490
  125MOL0     H16831   1.502   8.567   7.070  0.3188  0.4796 -3.0090
  125MOL0     H16832   1.653   8.560   6.991 -1.2365  0.5884 -0.0990
  125MOL0     H16833   1.762   8.503   7.206 -0.2359  2.2404 -0.3155
  125MOL0     H16834   1.612   8.461   7.284 -0.4296 -0.2044 -0.2665
  125MOL0     H16835   1.730   8.533   7.463  1.3142 -0.3368 -0.3711
  125MOL0     H16836   1.885   8.647   7.629  3.4633  2.9935  0.1491
  125MOL0     H16837   1.785   9.239   7.834 -0.4335  0.8982  0.1056
  125MOL0     H16838   1.904   9.411   7.938  2.0539  1.3988  1.1951
  125MOL0     H16839   2.248   9.322   8.162  2.0635  1.9718  1.7496
  125MOL0     H16840   2.325   9.349   7.998 -0.9428 -1.2727 -1.2249
  125MOL0     H16841   2.233   9.557   8.219 -1.7554  1.4880 -1.9833
  125MOL0     H16842   2.397   9.497   8.209  0.1072 -0.9830 -1.4494
  125MOL0     H16843   2.447   9.581   7.982  1.3023  2.2307 -0.0020
  125MOL0     H16844   2.295   9.641   7.964 -2.0448 -0.9192  1.1226
  125MOL0     H16845   2.525   9.707   8.173  1.6348 -0.1507 -1.5096
  125MOL0     H16846   2.353   9.784   8.177  0.1268 -0.3715  1.2181
  125MOL0     H16847   2.433   9.851   7.933 -3.9265 -0.2921  2.4655
  125MOL0     H16848   2.599   9.845   8.007  0.7493 -0.0004  2.4706
  125MOL0     H16849   2.392  10.004   8.148 -0.5026 -0.7003 -0.3209
  125MOL0     H16850   2.564   9.998   8.170 -1.2851  0.2545  3.2962
  125MOL0     H16851   2.594  10.062   7.925  2.3748  1.3315  0.8723
  125MOL0     H16852   2.554  10.167   8.072 -1.3728 -0.7126  0.5090
  125MOL0     H16853   2.321  10.163   7.984  0.0405 -1.5170  0.3565
  125MOL0     H16854   2.439  10.243   7.879  4.4230 -0.4892  3.1747
  125MOL0     H16855   2.256   9.174   7.945 -1.3118 -0.3787  3.3348
  125MOL0     H16856   2.131   8.994   7.796  1.3986  0.5056 -1.0640
  125MOL0     H16857   1.779   9.025   7.453  1.0564 -0.0038 -1.3950
  125MOL0     H16858   1.666   8.911   7.270 -2.3032 -2.1433 -1.7285
  125MOL0     H16859   1.941   9.536   6.668 -1.2845 -2.0872 -1.7494
  125MOL0     H16860   2.017   9.776   6.699  0.9213  0.5337 -1.5051
  125MOL0     H16861   1.761  10.230   6.669  0.1870 -0.3463 -3.5054
  125MOL0     H16862   1.769  10.444   6.716  2.0771  4.7218  0.3018
  125MOL0     H16863   1.884  10.584   6.919  1.0225  1.6861  0.2293
  125MOL0     H16864   1.820  10.667   6.772  0.9967 -1.7208 -4.1398
  125MOL0     H16865   1.901  10.803   6.975  0.8803  2.3279 -1.8086
  125MOL0     H16866   1.969  10.839   6.817 -0.2714  0.3626  0.6454
  125MOL0     H16867   2.139  10.649   6.941  0.3921  0.0993 -0.3062
  125MOL0     H16868   2.075  10.733   7.086  2.9448  1.2469  1.8623
  125MOL0     H16869   2.157  10.954   6.955  1.6636 -0.1875 -0.4607
  125MOL0     H16870   2.274  10.857   7.045  0.6028 -1.6576 -0.4101
  125MOL0     H16871   2.412  10.822   6.648  0.7059  0.7827  0.0803
  125MOL0     H16872   2.202  10.428   6.639  0.0940  1.5118  1.8892
  125MOL0     H16873   2.212  10.143   6.445  0.7470  0.1785  0.3570
  125MOL0     H16874   2.307  10.245   6.535 -0.0585 -1.0395 -1.9927
  125MOL0     H16875   2.244  10.089   6.595  1.2138 -0.1251 -0.3166
  126MOL0     O16876   6.662   3.466   4.196  0.6122  0.1332  0.4595
  126MOL0     C16877   6.770   3.413   4.208 -0.6935  0.2052  0.8835
  126MOL0     O16878   6.860   3.462   4.304  0.4957  0.1958  0.7560
  126MOL0     C16879   6.823   3.529   4.416 -0.1648 -0.4199 -0.9047
  126MOL0     C16880   6.919   3.618   4.460 -0.3077 -0.1799 -0.2042
  126MOL0     C16881   6.910   3.679   4.587  0.4134 -0.4512 -0.2442
  126MOL0     C16882   6.798   3.658   4.667  0.0310  0.2399 -0.2633
  126MOL0     O16883   6.785   3.715   4.792  0.4136 -0.1709  0.0140
  126MOL0     C16884   6.794   3.615   4.902  0.1534 -0.1794 -0.0701
  126MOL0     C16885   6.725   3.678   5.022  0.0431 -0.8035 -1.1438
  126MOL0     C16886   6.771   3.827   5.063  0.1483 -0.3565  0.1003
  126MOL0     C16887   6.927   3.842   5.066 -0.2515  0.5451 -0.3682
  126MOL0     C16888   6.973   3.979   5.129  0.8265  0.1524  0.2585
  126MOL0     C16889   7.126   3.992   5.118  0.1373  0.1404 -0.0922
  126MOL0     C16890   7.171   4.109   5.200  0.4241 -0.0074  0.6654
  126MOL0     C16891   7.321   4.132   5.210 -0.7056  0.7526 -0.5110
  126MOL0     N16892   7.340   4.212   5.331 -0.2581 -0.2099 -0.1070
  126MOL0     C16893   7.370   4.158   5.457 -0.3272  0.4806  0.3851
  126MOL0     C16894   7.405   4.264   5.538  1.0928  0.6314  0.3786
  126MOL0     C16895   7.440   4.251   5.683 -0.2444 -0.1521  0.2728
  126MOL0     C16896   7.392   4.132   5.761  0.2796 -0.1940  1.0295
  126MOL0     C16897   7.410   4.152   5.903 -0.7452  0.2509  0.2711
  126MOL0     C16898   7.308   4.250   5.968  0.3184 -0.7957  0.6606
  126MOL0     O16899   7.170   4.199   5.997 -0.3644 -0.3691 -0.5555
  126MOL0     C16900   7.081   4.279   6.055  0.2220 -0.5557  0.2065
  126MOL0     C16901   6.946   4.223   6.060 -0.8848  0.4148 -0.1375
  126MOL0     C16902   6.851   4.282   6.144  0.1114  0.9469  0.1884
  126MOL0     C16903   6.884   4.387   6.233  1.4741 -0.6382  0.4752
  126MOL0     C16904   6.780   4.451   6.319 -0.1695 -0.2648 -0.1027
  126MOL0     O16905   6.814   4.582   6.360  0.3891  0.9866  0.3260
  126MOL0     C16906   6.726   4.660   6.431 -0.6580 -0.2115 -0.5554
  126MOL0     C16907   6.633   4.623   6.526  0.6080 -0.3816  0.2212
  126MOL0     C16908   6.551   4.720   6.587  0.2845 -0.2352  0.1587
  126MOL0     C16909   6.566   4.850   6.552  0.4300 -0.2822 -0.9286
  126MOL0     O16910   6.477   4.935   6.616  0.5219  0.2406 -0.0283
  126MOL0     C16911   6.373   5.000   6.533  0.0279 -0.1299 -0.1240
  126MOL0     C16912   6.247   5.038   6.617  0.3730  0.5141 -0.0245
  126MOL0     C16913   6.264   5.149   6.719  0.5391  0.9036 -0.1996
  126MOL0     C16914   6.121   5.173   6.772  0.2221 -0.4774  0.0922
  126MOL0     C16915   6.092   5.313   6.813  0.1601  0.6773 -1.0849
  126MOL0     C16916   6.182   5.351   6.942  0.1474  0.0757  0.0411
  126MOL0     C16917   6.117   5.279   7.075  0.2526 -0.3599 -0.2244
  126MOL0     C16918   6.191   5.329   7.201 -0.3508  1.1446  0.0378
  126MOL0    Cl16919   6.076   5.318   7.339  0.6331  0.2897 -0.1319
  126MOL0     C16920   6.659   4.888   6.471 -0.0382 -0.1586 -0.4015
  126MOL0     C16921   6.740   4.798   6.407 -0.9977  0.2364  0.8617
  126MOL0     O16922   6.674   4.396   6.345  0.3646 -0.2859  0.7777
  126MOL0     C16923   7.009   4.438   6.221 -0.6990 -0.3245 -0.0076
  126MOL0     C16924   7.101   4.391   6.128 -0.0317 -0.1396 -0.7725
  126MOL0     N16925   7.376   4.375   5.464 -0.9977 -1.1931 -0.2624
  126MOL0     N16926   7.342   4.352   5.337  0.3332  1.3971 -0.0722
  126MOL0     C16927   6.706   3.563   4.623  0.7056 -0.2105  0.6439
  126MOL0     C16928   6.705   3.509   4.494 -0.7963  0.1736  0.5202
  126MOL0     C16929   6.807   3.320   4.101  0.7367  0.7596  0.3271
  126MOL0     C16930   6.700   3.250   4.032 -0.9380  0.1162  0.9262
  126MOL0     C16931   6.745   3.146   3.939 -0.2208 -0.1137 -0.2915
  126MOL0     C16932   6.877   3.118   3.917 -0.0194  0.3981 -0.0387
  126MOL0     O16933   6.907   3.029   3.820 -0.7924  1.1714  0.2599
  126MOL0     C16934   6.955   2.899   3.862 -0.0616 -1.1566 -0.1979
  126MOL0     C16935   6.841   2.792   3.849  0.1867 -0.6345 -0.0082
  126MOL0     C16936   6.767   2.786   3.712  0.8911  0.2682  0.6516
  126MOL0     C16937   6.685   2.656   3.719 -0.6111  0.2055  0.7813
  126MOL0     C16938   6.599   2.642   3.598  0.5626 -0.3052  0.0121
  126MOL0     C16939   6.529   2.620   3.498  0.6875 -0.1453 -0.0477
  126MOL0     C16940   6.973   3.177   3.989  0.6077 -0.7609  0.2133
  126MOL0     C16941   6.940   3.282   4.074 -0.0842 -0.1644  0.4057
  126MOL0     C16942   7.059   3.344   4.136  0.1754 -0.6819  0.0585
  126MOL0     H16943   7.013   3.625   4.406  0.2557 -2.0779  0.4665
  126MOL0     H16944   6.992   3.738   4.627 -1.1060 -0.8362  3.8588
  126MOL0     H16945   6.757   3.514   4.887 -0.2374 -0.0054 -0.3047
  126MOL0     H16946   6.898   3.598   4.931 -0.2546 -2.6550  0.1573
  126MOL0     H16947   6.738   3.613   5.108 -1.2978  2.9453  2.1863
  126MOL0     H16948   6.616   3.680   5.016 -0.1794  2.6304  1.3962
  126MOL0     H16949   6.731   3.847   5.162  4.2269 -1.6741  2.2245
  126MOL0     H16950   6.726   3.898   4.993 -2.0401 -1.8871 -0.1594
  126MOL0     H16951   6.966   3.761   5.129  0.9770 -0.6016 -2.4708
  126MOL0     H16952   6.969   3.826   4.966 -1.3171 -2.6012 -0.4152
  126MOL0     H16953   6.922   4.064   5.083  0.3346 -0.0813  0.3688
  126MOL0     H16954   6.947   3.979   5.235  0.4477  1.1527  0.1735
  126MOL0     H16955   7.179   3.906   5.157 -0.2734 -0.0805 -0.0117
  126MOL0     H16956   7.150   4.012   5.013  0.0157  1.8694  0.1725
  126MOL0     H16957   7.118   4.095   5.295  0.1035 -2.0870  0.2238
  126MOL0     H16958   7.125   4.203   5.168  0.5005 -0.5541 -1.1682
  126MOL0     H16959   7.375   4.039   5.228 -1.5141  0.5130  0.8171
  126MOL0     H16960   7.376   4.182   5.130  0.5371  0.2418 -0.0037
  126MOL0     H16961   7.362   4.054   5.486  1.2230  0.1038 -0.3912
  126MOL0     H16962   7.546   4.242   5.706 -0.6460 -1.0173  1.9397
  126MOL0     H16963   7.394   4.347   5.711 -2.1582 -1.2366  0.9911
  126MOL0     H16964   7.285   4.123   5.738  0.3825  2.6490 -1.0573
  126MOL0     H16965   7.440   4.038   5.734 -1.1578 -0.4913 -0.7090
  126MOL0     H16966   7.507   4.200   5.917  0.0820 -1.5583  1.0688
  126MOL0     H16967   7.411   4.058   5.959  1.1320  0.1328  0.1190
  126MOL0     H16968   7.309   4.344   5.912  0.5029 -1.2901 -0.1704
  126MOL0     H16969   7.353   4.269   6.066  2.1459  0.5593 -0.3806
  126MOL0     H16970   6.931   4.140   5.992 -0.9571  1.5508 -1.5678
  126MOL0     H16971   6.749   4.247   6.131 -0.4172  2.1219  1.0158
  126MOL0     H16972   6.609   4.521   6.553  0.3702 -0.2312  0.5922
  126MOL0     H16973   6.465   4.694   6.648  0.7619 -2.4102 -0.0270
  126MOL0     H16974   6.419   5.091   6.494  2.6113 -0.0132  2.7821
  126MOL0     H16975   6.358   4.936   6.446  0.1813 -0.7296  0.2839
  126MOL0     H16976   6.168   5.079   6.554  0.2412  1.6508  0.8391
  126MOL0     H16977   6.209   4.950   6.669 -1.8042 -0.1224 -2.4826
  126MOL0     H16978   6.336   5.123   6.797  0.2070 -3.1941 -1.0306
  126MOL0     H16979   6.298   5.231   6.655 -0.3496  1.1893 -0.3188
  126MOL0     H16980   6.087   5.102   6.848 -2.0347 -0.7801 -1.0998
  126MOL0     H16981   6.052   5.172   6.687  1.3433  0.6814 -0.8703
  126MOL0     H16982   5.988   5.324   6.845 -0.6879  2.0783 -3.9717
  126MOL0     H16983   6.113   5.374   6.724 -0.8046 -0.4397 -2.1075
  126MOL0     H16984   6.288   5.324   6.940  0.3887  0.5705  2.6132
  126MOL0     H16985   6.184   5.460   6.950  4.6240  0.1356  0.3206
  126MOL0     H16986   6.131   5.170   7.075  0.6681 -0.3139  0.8056
  126MOL0     H16987   6.014   5.313   7.089  0.8294  0.1552  3.7656
  126MOL0     H16988   6.267   5.251   7.212 -1.3523  0.4171  2.3412
  126MOL0     H16989   6.247   5.423   7.203 -0.4038  1.2331  4.0008
  126MOL0     H16990   6.662   4.991   6.435  3.6661 -0.4134 -1.1966
  126MOL0     H16991   6.818   4.832   6.340  0.0520  1.1876  2.4983
  126MOL0     H16992   7.044   4.526   6.274 -1.6373 -0.5911  1.0758
  126MOL0     H16993   7.198   4.437   6.109 -1.0293  0.8873 -4.0561
  126MOL0     H16994   6.624   3.547   4.692 -1.9885  0.6241 -2.1365
  126MOL0     H16995   6.643   3.431   4.453  1.7719 -1.6631 -0.1415
  126MOL0     H16996   6.598   3.281   4.053 -0.5239  1.8453  0.5256
  126MOL0     H16997   6.679   3.081   3.882  2.9845 -2.5021 -1.5539
  126MOL0     H16998   6.991   2.892   3.965  2.0110  1.0339 -0.6823
  126MOL0     H16999   7.031   2.875   3.787 -0.3246 -0.3757 -0.7225
  126MOL0     H17000   6.763   2.826   3.918 -1.4839  4.0053 -3.6685
  126MOL0     H17001   6.895   2.701   3.878 -0.4995 -0.9441  0.2974
  126MOL0     H17002   6.835   2.781   3.627 -0.2402  2.2067 -0.4213
  126MOL0     H17003   6.695   2.866   3.696 -0.1077  0.2562  4.2050
  126MOL0     H17004   6.745   2.565   3.709 -0.2365  0.6335 -1.5014
  126MOL0     H17005   6.627   2.651   3.812  0.5581 -1.5384  1.4694
  126MOL0     H17006   6.470   2.604   3.410 -1.9597  2.6576  1.0616
  126MOL0     H17007   7.077   3.146   3.982  0.5398 -1.6229  2.3045
  126MOL0     H17008   7.054   3.452   4.118 -1.6154 -1.2045 -3.3986
  126MOL0     H17009   7.068   3.326   4.243  1.0216 -1.2357 -0.0947
  126MOL0     H17010   7.145   3.295   4.088 -1.2585 -2.2185 -1.0366
  127MOL0     O17011   2.339   9.904   4.575  0.2368  0.2666 -0.2276
  127MOL0     C17012   2.387   9.880   4.471 -0.4735  0.2874  1.0014
  127MOL0     O17013   2.384   9.754   4.416 -0.3458  0.0425 -0.6129
  127MOL0     C17014   2.329   9.648   4.488 -0.8233 -0.6319  0.0185
  127MOL0     C17015   2.204   9.590   4.456 -0.2180  0.8694  0.2422
  127MOL0     C17016   2.154   9.470   4.508 -0.6202  0.4954  0.6719
  127MOL0     C17017   2.223   9.409   4.620 -0.0243 -0.6807  0.3050
  127MOL0     O17018   2.167   9.309   4.695  0.6282  0.2971 -0.2365
  127MOL0     C17019   2.156   9.180   4.635 -0.2876  0.4418  0.0995
  127MOL0     C17020   2.244   9.082   4.712  0.5743  0.8275 -0.8008
  127MOL0     C17021   2.234   8.943   4.647 -0.2270  0.2058 -0.6714
  127MOL0     C17022   2.362   8.847   4.653  0.1078 -0.6235  0.6847
  127MOL0     C17023   2.316   8.702   4.621 -0.2428  0.1075  0.6287
  127MOL0     C17024   2.427   8.599   4.607  0.3380  0.4903 -0.4971
  127MOL0     C17025   2.533   8.617   4.708  0.8653 -0.6095 -0.4110
  127MOL0     C17026   2.625   8.497   4.709 -0.2734  0.2472 -0.0608
  127MOL0     N17027   2.695   8.467   4.832  0.1263  0.1367  0.1483
  127MOL0     C17028   2.642   8.439   4.949 -0.3030 -0.2239  0.7561
  127MOL0     C17029   2.735   8.430   5.043 -0.8837 -0.6804  0.5567
  127MOL0     C17030   2.730   8.413   5.185 -0.5849 -0.2105  0.4686
  127MOL0     C17031   2.812   8.309   5.260  0.3982 -0.5116  0.2112
  127MOL0     C17032   2.767   8.182   5.187  0.6624 -0.1152  0.3284
  127MOL0     C17033   2.808   8.057   5.250  0.6130 -0.0242 -0.7275
  127MOL0     O17034   2.952   8.061   5.246 -0.1381 -0.9091 -0.1810
  127MOL0     C17035   3.012   7.963   5.323  0.2038  0.4540 -0.4582
  127MOL0     C17036   2.975   7.931   5.460  0.2020  0.4101  0.2748
  127MOL0     C17037   3.042   7.832   5.532  0.2735 -0.8825 -0.9805
  127MOL0     C17038   3.150   7.765   5.465  0.3124  0.6845 -0.1271
  127MOL0     C17039   3.236   7.671   5.541 -0.2127  0.7770  1.0699
  127MOL0     O17040   3.338   7.603   5.475  0.5985  0.4455  0.4725
  127MOL0     C17041   3.420   7.516   5.544 -0.3504 -0.1684 -1.7171
  127MOL0     C17042   3.478   7.548   5.667 -0.4652  0.1652 -0.1922
  127MOL0     C17043   3.575   7.464   5.721 -0.7142 -0.0497  0.5126
  127MOL0     C17044   3.616   7.342   5.660  0.0573  0.1635 -0.6579
  127MOL0     O17045   3.727   7.280   5.707 -0.1272 -0.3155  1.4824
  127MOL0     C17046   3.759   7.144   5.663  0.4803  0.0432 -0.5056
  127MOL0     C17047   3.855   7.087   5.767 -0.4657 -0.1827  0.1140
  127MOL0     C17048   3.916   6.953   5.715 -0.8092 -0.5473  0.2512
  127MOL0     C17049   4.020   6.920   5.828 -0.7147  0.3514 -0.3969
  127MOL0     C17050   4.075   6.776   5.837 -0.0846 -0.3477 -0.6460
  127MOL0     C17051   4.088   6.706   5.705 -0.3197  1.0074 -0.5214
  127MOL0     C17052   4.207   6.612   5.705  0.3108 -0.2481  0.7913
  127MOL0     C17053   4.189   6.483   5.787  0.3853  0.0250 -0.2696
  127MOL0    Cl17054   4.151   6.343   5.673  0.2673  0.1236 -0.0850
  127MOL0     C17055   3.551   7.311   5.546  0.9011  0.5387 -0.4854
  127MOL0     C17056   3.458   7.401   5.483 -0.2016  0.9779  0.2980
  127MOL0     O17057   3.221   7.675   5.657 -0.9441 -0.6649  0.3494
  127MOL0     C17058   3.183   7.797   5.333  0.4298  0.1409 -0.2198
  127MOL0     C17059   3.123   7.899   5.268  0.9438 -0.4228  0.6399
  127MOL0     N17060   2.859   8.439   4.973  0.7361  0.2608  0.0137
  127MOL0     N17061   2.832   8.468   4.846 -0.8697  0.1791  0.5995
  127MOL0     C17062   2.345   9.472   4.657 -0.3888  0.8099  0.1850
  127MOL0     C17063   2.402   9.585   4.591 -0.1780 -0.2187  0.2323
  127MOL0     C17064   2.473   9.977   4.410 -0.6025  1.3367  0.7346
  127MOL0     C17065   2.541   9.949   4.288  0.0878 -0.3084 -0.9348
  127MOL0     C17066   2.616  10.044   4.220 -0.6374 -0.4977  0.2670
  127MOL0     C17067   2.631  10.177   4.265 -0.7192 -0.0755 -1.0792
  127MOL0     O17068   2.695  10.287   4.200  0.0243  0.3715 -0.7230
  127MOL0     C17069   2.678  10.291   4.056  0.1545  0.1872 -0.0528
  127MOL0     C17070   2.537  10.300   4.000  0.3942  0.6288  0.0520
  127MOL0     C17071   2.543  10.259   3.849 -0.2134 -0.5850  0.1162
  127MOL0     C17072   2.406  10.293   3.789 -0.4884 -0.0095 -0.4405
  127MOL0     C17073   2.401  10.295   3.640 -0.3913  0.8900 -0.1748
  127MOL0     C17074   2.424  10.281   3.520  0.3642  0.0037 -0.9910
  127MOL0     C17075   2.574  10.210   4.389  0.3241  0.1775 -0.0050
  127MOL0     C17076   2.494  10.111   4.459  0.7273 -0.4678  0.2028
  127MOL0     C17077   2.429  10.162   4.589 -0.5368  0.7636 -0.0179
  127MOL0     H17078   2.150   9.619   4.366 -0.3827 -0.0263  0.0444
  127MOL0     H17079   2.076   9.414   4.459  0.1773 -2.2404  2.3172
  127MOL0     H17080   2.051   9.149   4.634 -2.0645  5.4870  1.0945
  127MOL0     H17081   2.180   9.195   4.530 -2.0727 -0.1836 -0.4344
  127MOL0     H17082   2.197   9.073   4.811 -1.2621  3.0610 -1.3726
  127MOL0     H17083   2.347   9.119   4.716  1.3870 -1.3534 -0.1828
  127MOL0     H17084   2.203   8.950   4.542 -0.8655  2.1025 -0.3956
  127MOL0     H17085   2.160   8.896   4.712  1.2594  0.9964  1.7280
  127MOL0     H17086   2.448   8.866   4.587  1.9661 -0.1332  3.1126
  127MOL0     H17087   2.404   8.858   4.753  1.3810  3.5107 -0.1075
  127MOL0     H17088   2.243   8.680   4.700 -1.7554  3.0416  0.1926
  127MOL0     H17089   2.260   8.700   4.527 -0.3935 -2.5715  0.6977
  127MOL0     H17090   2.378   8.502   4.618  1.2077  0.2869  2.4839
  127MOL0     H17091   2.479   8.600   4.511 -0.5040 -1.9388 -1.0391
  127MOL0     H17092   2.488   8.621   4.808 -0.4487  2.2640 -1.0125
  127MOL0     H17093   2.579   8.715   4.692 -1.2373  0.5809  0.3377
  127MOL0     H17094   2.558   8.419   4.671  2.1085 -0.0426 -4.2767
  127MOL0     H17095   2.710   8.516   4.643  1.7307  2.5014  2.9195
  127MOL0     H17096   2.537   8.429   4.974 -0.1790  1.3512  2.0545
  127MOL0     H17097   2.770   8.502   5.235  2.3921 -0.7590 -0.7331
  127MOL0     H17098   2.623   8.402   5.206 -0.2319 -5.7766  0.9902
  127MOL0     H17099   2.919   8.331   5.246  0.0786  0.2799 -1.1844
  127MOL0     H17100   2.795   8.306   5.368  1.5491  1.4246  0.5064
  127MOL0     H17101   2.823   8.178   5.094 -0.2109 -0.9206 -0.1803
  127MOL0     H17102   2.658   8.181   5.172  0.4908 -2.2837  1.3397
  127MOL0     H17103   2.753   7.987   5.187 -2.6755  1.8523 -0.1732
  127MOL0     H17104   2.771   8.062   5.353  0.8679  3.4736 -0.6743
  127MOL0     H17105   2.889   7.967   5.516  0.9497  1.1139  0.9939
  127MOL0     H17106   3.009   7.810   5.633  2.0199 -1.7926 -0.5710
  127MOL0     H17107   3.455   7.643   5.714  0.4756  0.1292  0.3740
  127MOL0     H17108   3.640   7.488   5.804  1.4877  0.0776 -1.1826
  127MOL0     H17109   3.670   7.083   5.650  1.3414 -0.9675 -2.0467
  127MOL0     H17110   3.818   7.148   5.571  2.1035 -0.7272  0.4432
  127MOL0     H17111   3.931   7.163   5.788 -2.2082  1.3188  1.3133
  127MOL0     H17112   3.806   7.080   5.865  0.8402  0.0974  0.8135
  127MOL0     H17113   3.832   6.886   5.692 -0.4147 -0.6803 -0.8859
  127MOL0     H17114   3.988   6.961   5.633  1.3141 -1.8148  1.8882
  127MOL0     H17115   3.969   6.944   5.922 -1.7190 -1.6476 -0.3777
  127MOL0     H17116   4.099   6.995   5.821 -1.0912  1.3760  3.5051
  127MOL0     H17117   4.008   6.720   5.903  2.0601 -0.1684  1.8428
  127MOL0     H17118   4.174   6.781   5.884 -0.3374 -6.3843  1.4346
  127MOL0     H17119   3.996   6.652   5.684 -0.3104  0.3712  0.9481
  127MOL0     H17120   4.116   6.770   5.620 -2.4629  0.9428 -1.3323
  127MOL0     H17121   4.290   6.670   5.748 -1.1245  2.2218  0.4460
  127MOL0     H17122   4.228   6.584   5.601 -1.9574  3.0325 -0.7169
  127MOL0     H17123   4.277   6.453   5.845 -0.4714 -0.4956  0.8049
  127MOL0     H17124   4.109   6.498   5.860 -0.6974 -1.2187 -1.1542
  127MOL0     H17125   3.579   7.213   5.511  0.3875  1.5276 -4.0469
  127MOL0     H17126   3.415   7.370   5.388 -1.5249  1.4730  0.7135
  127MOL0     H17127   3.264   7.753   5.277 -0.2264  0.6731 -1.6246
  127MOL0     H17128   3.160   7.929   5.171  1.9983 -1.7671  0.5893
  127MOL0     H17129   2.396   9.418   4.736 -0.7584 -0.0598 -0.1634
  127MOL0     H17130   2.500   9.620   4.622  1.4032 -1.4448 -2.9550
  127MOL0     H17131   2.535   9.846   4.254  1.1826 -0.3513 -1.0552
  127MOL0     H17132   2.684  10.017   4.141 -1.2365 -2.2775  0.3246
  127MOL0     H17133   2.735  10.199   4.038 -1.1163 -1.1426  2.2389
  127MOL0     H17134   2.739  10.373   4.018  2.3055 -1.0616  0.5130
  127MOL0     H17135   2.499  10.402   4.017  2.0806  1.1385  0.9232
  127MOL0     H17136   2.472  10.223   4.043 -0.1527 -0.4607 -2.4989
  127MOL0     H17137   2.574  10.156   3.832 -0.2784 -0.2831 -2.1945
  127MOL0     H17138   2.631  10.306   3.803  0.1865 -0.9323  0.5133
  127MOL0     H17139   2.342  10.213   3.827 -0.4675  0.2355  0.1176
  127MOL0     H17140   2.382  10.395   3.819 -2.7486 -1.2523  2.5091
  127MOL0     H17141   2.444  10.258   3.417  1.2787 -0.5958 -0.6929
  127MOL0     H17142   2.583  10.309   4.434 -0.9231  0.1973  0.2315
  127MOL0     H17143   2.320  10.166   4.583 -0.5656 -0.6220 -0.7570
  127MOL0     H17144   2.468  10.111   4.678  2.0542  0.5471 -1.1771
  127MOL0     H17145   2.469  10.261   4.613  3.4428 -0.2241 -1.7021
  128MOL0     O17146   6.258  11.150   0.639  0.5483  0.2287  0.8034
  128MOL0     C17147   6.142  11.190   0.590 -0.3743  0.2550  0.2923
  128MOL0     O17148   6.086  11.315   0.595  0.4724  0.0902  0.5003
  128MOL0     C17149   6.178  11.408   0.623  0.0242  0.4356 -0.3880
  128MOL0     C17150   6.222  11.498   0.526  0.3288  0.1074  0.3565
  128MOL0     C17151   6.299  11.610   0.552 -0.4201  0.4848  0.0544
  128MOL0     C17152   6.358  11.623   0.682  0.5479  0.0004  0.0437
  128MOL0     O17153   6.446  11.716   0.715  0.8657 -0.0711  0.4405
  128MOL0     C17154   6.564  11.762   0.640 -0.2679 -0.1657  0.7657
  128MOL0     C17155   6.698  11.715   0.702  0.7808  0.2145 -0.7121
  128MOL0     C17156   6.726  11.565   0.673 -0.0103 -0.5292  0.8028
  128MOL0     C17157   6.852  11.499   0.735 -0.9530 -0.2274 -0.8399
  128MOL0     C17158   6.971  11.530   0.643  1.1514  0.2337 -0.4094
  128MOL0     C17159   7.094  11.480   0.710 -0.6654  1.0009 -0.4166
  128MOL0     C17160   7.214  11.512   0.624  0.8694  0.2291 -0.8343
  128MOL0     C17161   7.342  11.501   0.706 -0.9574  0.1646  0.3477
  128MOL0     N17162   7.358  11.589   0.830  0.2664 -0.4406 -0.3124
  128MOL0     C17163   7.321  11.721   0.823 -0.1381  0.3290  1.0080
  128MOL0     C17164   7.321  11.760   0.948  0.7556 -0.6199 -0.2612
  128MOL0     C17165   7.281  11.898   1.003 -0.1419  0.0202 -0.1843
  128MOL0     C17166   7.133  11.936   0.992  0.0291 -0.8355 -0.5631
  128MOL0     C17167   7.066  11.961   1.135 -0.5009  0.9511 -0.5238
  128MOL0     C17168   6.929  12.013   1.128 -0.6740 -0.7355 -0.6012
  128MOL0     O17169   6.897  12.049   0.994 -0.3138 -0.3927  0.5146
  128MOL0     C17170   6.905  12.184   0.956 -0.3722  0.4591 -0.3186
  128MOL0     C17171   7.012  12.269   0.987  0.7278 -0.7593 -0.0896
  128MOL0     C17172   7.013  12.406   0.952  0.0326  0.8988  0.1956
  128MOL0     C17173   6.896  12.464   0.894 -0.2512 -0.0644 -0.2970
  128MOL0     C17174   6.892  12.605   0.870  0.7909  0.0685  0.4182
  128MOL0     O17175   6.768  12.660   0.830  0.5382  0.3083 -0.2521
  128MOL0     C17176   6.771  12.792   0.782  0.3480  0.4197 -0.2418
  128MOL0     C17177   6.788  12.903   0.866  0.8664 -1.1163 -0.5178
  128MOL0     C17178   6.750  13.035   0.822 -0.0248  0.3256  0.3637
  128MOL0     C17179   6.700  13.060   0.695  0.1272  0.8184  0.3441
  128MOL0     O17180   6.674  13.179   0.642  0.1006  0.4688  0.3582
  128MOL0     C17181   6.683  13.294   0.722 -0.0907 -0.1303  1.2024
  128MOL0     C17182   6.658  13.422   0.636  0.3257  0.2135  0.4691
  128MOL0     C17183   6.656  13.544   0.721  0.2793  0.3933 -1.0040
  128MOL0     C17184   6.602  13.667   0.640  0.0147 -1.0303  0.2899
  128MOL0     C17185   6.620  13.812   0.703  0.0892 -0.5884 -0.4757
  128MOL0     C17186   6.538  13.926   0.631 -0.2544 -0.3077 -0.2528
  128MOL0     C17187   6.580  14.063   0.675  0.3098 -0.4481  0.2901
  128MOL0     C17188   6.519  14.177   0.590 -0.0338  0.3348 -0.2584
  128MOL0    Cl17189   6.352  14.175   0.603  0.1539  0.0737 -0.2846
  128MOL0     C17190   6.663  12.950   0.614 -0.0594  0.7790  1.0301
  128MOL0     C17191   6.705  12.819   0.657 -0.3916 -0.5995 -0.8189
  128MOL0     O17192   6.996  12.664   0.871  0.7205  0.2626  0.3299
  128MOL0     C17193   6.793  12.376   0.843 -0.1513  0.0509 -0.4579
  128MOL0     C17194   6.808  12.236   0.872 -0.1100  0.1041 -0.0168
  128MOL0     N17195   7.354  11.658   1.030 -0.7291  1.1657 -0.3221
  128MOL0     N17196   7.391  11.559   0.956 -0.4320 -0.0480  0.3757
  128MOL0     C17197   6.318  11.540   0.782 -0.3773 -0.1410  0.1398
  128MOL0     C17198   6.222  11.438   0.757  0.2531  0.2996 -0.0060
  128MOL0     C17199   6.065  11.083   0.521  0.9466  0.4027  0.7405
  128MOL0     C17200   5.927  11.076   0.542 -0.1935  0.1537  0.1178
  128MOL0     C17201   5.849  10.984   0.475 -0.4504 -1.3643  0.5506
  128MOL0     C17202   5.902  10.892   0.384 -0.2940  0.0283  0.3032
  128MOL0     O17203   5.809  10.799   0.325 -0.3330 -1.0390 -0.2303
  128MOL0     C17204   5.851  10.711   0.220  0.8682 -1.1541  0.1256
  128MOL0     C17205   5.710  10.642   0.183 -0.0275  0.1988 -0.4346
  128MOL0     C17206   5.739  10.535   0.072 -0.5348 -0.0674 -0.3322
  128MOL0     C17207   5.614  10.511  -0.021  0.4741  0.2605 -0.0430
  128MOL0     C17208   5.638  10.404  -0.111 -0.0195 -0.1957  0.6336
  128MOL0     C17209   5.653  10.313  -0.190  0.4542  0.2827 -0.8447
  128MOL0     C17210   6.041  10.890   0.360 -0.6889 -1.3703 -0.7744
  128MOL0     C17211   6.120  10.990   0.421  0.3447 -1.1440 -0.4584
  128MOL0     C17212   6.263  10.986   0.382  0.1220  0.0475  0.2926
  128MOL0     H17213   6.179  11.466   0.431  4.6400 -0.8799 -1.4728
  128MOL0     H17214   6.330  11.686   0.482 -0.4406 -0.3419 -0.8779
  128MOL0     H17215   6.558  11.736   0.534  1.8162  0.2736  0.4991
  128MOL0     H17216   6.568  11.871   0.645  1.1774 -0.2524  2.8948
  128MOL0     H17217   6.694  11.736   0.810  2.0781 -2.1592 -0.1401
  128MOL0     H17218   6.772  11.787   0.666  1.2593 -0.5532 -1.2622
  128MOL0     H17219   6.718  11.555   0.564 -1.8765 -1.2405  0.9569
  128MOL0     H17220   6.636  11.516   0.712 -0.0618 -0.2674  1.0209
  128MOL0     H17221   6.863  11.541   0.835 -0.6312 -1.3579 -0.3776
  128MOL0     H17222   6.849  11.390   0.749  2.6682 -0.7010 -2.6385
  128MOL0     H17223   6.954  11.487   0.544  1.1732 -0.7807  0.0085
  128MOL0     H17224   6.966  11.638   0.628 -0.8051  0.4103  1.0644
  128MOL0     H17225   7.112  11.528   0.807  2.8338 -2.8142  1.1178
  128MOL0     H17226   7.090  11.373   0.729 -0.6042  1.1243  0.3538
  128MOL0     H17227   7.217  11.614   0.584 -0.0458 -0.0298 -1.5981
  128MOL0     H17228   7.207  11.441   0.541 -1.6867 -0.6725  0.0584
  128MOL0     H17229   7.358  11.396   0.735  1.0298 -0.1532 -1.6531
  128MOL0     H17230   7.414  11.541   0.634 -0.8135 -2.4494 -1.1027
  128MOL0     H17231   7.312  11.789   0.739 -1.3980  1.3697  1.9580
  128MOL0     H17232   7.329  11.906   1.101 -1.5889 -4.4265  1.1264
  128MOL0     H17233   7.339  11.967   0.940  2.8179 -1.0771  1.1540
  128MOL0     H17234   7.123  12.029   0.934 -3.7181 -1.0975 -0.5990
  128MOL0     H17235   7.083  11.861   0.930 -2.3760  0.8240 -0.7828
  128MOL0     H17236   7.135  12.019   1.197 -2.8136  2.5836  0.6672
  128MOL0     H17237   7.055  11.860   1.176 -1.7375  1.3456  0.1646
  128MOL0     H17238   6.922  12.109   1.180 -1.7358 -0.1742 -1.7346
  128MOL0     H17239   6.845  11.953   1.162 -1.0877 -0.8478 -1.7746
  128MOL0     H17240   7.092  12.217   1.039  0.5862  0.0970  1.0185
  128MOL0     H17241   7.103  12.465   0.968  1.4534 -0.5620 -1.8673
  128MOL0     H17242   6.800  12.891   0.974 -1.3054 -0.3816 -0.1457
  128MOL0     H17243   6.765  13.119   0.889  1.8393  1.3791 -1.2744
  128MOL0     H17244   6.617  13.276   0.807  2.7619  3.1693  4.4703
  128MOL0     H17245   6.786  13.297   0.757 -0.3071  1.4676  1.7454
  128MOL0     H17246   6.717  13.440   0.546 -1.0223  2.6049 -0.0254
  128MOL0     H17247   6.557  13.411   0.595  0.0698  0.8114  0.9188
  128MOL0     H17248   6.588  13.531   0.806  2.0329 -0.8548  0.2921
  128MOL0     H17249   6.758  13.560   0.757 -0.2549  0.4478  0.5598
  128MOL0     H17250   6.502  13.635   0.610 -0.2457  1.2809 -1.5840
  128MOL0     H17251   6.658  13.667   0.546 -1.6440 -1.6700 -0.7376
  128MOL0     H17252   6.728  13.832   0.699 -0.1046  0.6856  0.2660
  128MOL0     H17253   6.588  13.820   0.807  0.5282  0.5521 -0.4163
  128MOL0     H17254   6.555  13.922   0.523 -0.9745  0.6439 -0.4133
  128MOL0     H17255   6.431  13.926   0.652 -0.3477  1.0617 -0.6238
  128MOL0     H17256   6.689  14.070   0.674  0.2656  0.4101 -0.9612
  128MOL0     H17257   6.556  14.087   0.778 -2.2731 -1.5471  0.0124
  128MOL0     H17258   6.559  14.271   0.628  2.7759 -1.5016  1.7225
  128MOL0     H17259   6.562  14.169   0.490  1.6192 -1.4355  0.5278
  128MOL0     H17260   6.615  12.980   0.521 -1.4062  0.4071  1.5905
  128MOL0     H17261   6.681  12.728   0.602 -2.5031  0.9878 -2.7618
  128MOL0     H17262   6.720  12.414   0.774 -0.6719  1.0023  0.5879
  128MOL0     H17263   6.736  12.162   0.840 -1.0238  1.4546 -1.1800
  128MOL0     H17264   6.348  11.548   0.886  1.3396 -4.5599  0.1812
  128MOL0     H17265   6.176  11.377   0.834  1.6499  1.4626  1.8321
  128MOL0     H17266   5.880  11.138   0.618 -2.3786  0.5341 -1.4453
  128MOL0     H17267   5.742  10.992   0.488 -0.0738 -0.4061  4.3107
  128MOL0     H17268   5.915  10.635   0.265 -0.1373 -1.5061  0.9840
  128MOL0     H17269   5.890  10.778   0.142 -2.3257  1.6913  0.7502
  128MOL0     H17270   5.641  10.714   0.138 -1.5378 -2.9847 -3.7735
  128MOL0     H17271   5.661  10.598   0.271  0.1134 -0.4652 -0.6824
  128MOL0     H17272   5.778  10.445   0.119  1.6514  0.4731 -0.9750
  128MOL0     H17273   5.808  10.568  -0.006 -0.7795 -1.1096 -1.0066
  128MOL0     H17274   5.524  10.477   0.030  0.5029  0.5320  0.1898
  128MOL0     H17275   5.581  10.592  -0.086 -0.0088 -0.7642 -1.1087
  128MOL0     H17276   5.676  10.255  -0.278  1.2449  0.1576 -0.5562
  128MOL0     H17277   6.088  10.814   0.298 -0.1257  0.5239 -2.7665
  128MOL0     H17278   6.313  10.896   0.417  1.8660  1.1495  0.7674
  128MOL0     H17279   6.271  10.967   0.275  2.2606 -0.6080  0.5262
  128MOL0     H17280   6.323  11.074   0.407  0.5223  1.0844 -3.7507
  129MOL0     O17281   4.981  11.520   1.810  0.3408  0.1667 -0.0542
  129MOL0     C17282   4.969  11.428   1.892  0.5351 -0.0692 -0.4635
  129MOL0     O17283   4.841  11.390   1.932  0.5637 -0.7621 -0.2120
  129MOL0     C17284   4.740  11.491   1.938 -0.4226 -0.2277 -0.9232
  129MOL0     C17285   4.659  11.491   2.052  0.5763  0.1772  1.0450
  129MOL0     C17286   4.563  11.597   2.060 -0.5027  0.1602 -0.4686
  129MOL0     C17287   4.538  11.690   1.962 -0.1244 -0.3550  0.6895
  129MOL0     O17288   4.458  11.802   1.979 -0.0653  0.2646 -0.1206
  129MOL0     C17289   4.322  11.781   2.003 -0.3039 -0.1846  0.2756
  129MOL0     C17290   4.287  11.828   2.145  0.6629  0.3706  0.6203
  129MOL0     C17291   4.295  11.985   2.152  0.4413 -0.3823 -0.8115
  129MOL0     C17292   4.390  12.032   2.265 -0.3767 -0.2921  1.0258
  129MOL0     C17293   4.532  11.984   2.235 -0.1947 -0.2079  0.3640
  129MOL0     C17294   4.621  11.978   2.353  0.1042 -0.1274  0.7940
  129MOL0     C17295   4.696  12.108   2.385 -0.5875  0.3585  0.4948
  129MOL0     C17296   4.720  12.124   2.540 -0.1583  1.5435 -0.7271
  129MOL0     N17297   4.808  12.020   2.589 -0.1199 -0.0682 -0.6637
  129MOL0     C17298   4.922  11.973   2.522 -0.3107 -0.3899  0.1250
  129MOL0     C17299   4.977  11.880   2.607 -0.4816  0.0711 -0.2345
  129MOL0     C17300   5.111  11.811   2.580  0.0260 -0.0531 -1.0461
  129MOL0     C17301   5.228  11.898   2.545 -0.0284  0.7745 -0.2550
  129MOL0     C17302   5.366  11.835   2.531  0.4686 -0.1883 -0.2357
  129MOL0     C17303   5.365  11.734   2.412 -0.6041 -0.4556  0.0447
  129MOL0     O17304   5.506  11.684   2.400  0.8298  0.1803 -1.1557
  129MOL0     C17305   5.528  11.575   2.481  0.0695  0.6867  1.4933
  129MOL0     C17306   5.596  11.593   2.604  0.2797  0.5968 -0.6372
  129MOL0     C17307   5.639  11.479   2.681  0.7949  0.3375 -0.7954
  129MOL0     C17308   5.624  11.351   2.626  0.3506 -0.3982 -0.0330
  129MOL0     C17309   5.661  11.229   2.703 -0.3692  0.9145  0.0570
  129MOL0     O17310   5.606  11.107   2.674 -0.1881  0.8825  0.0975
  129MOL0     C17311   5.648  11.003   2.743  0.3858 -0.2717  0.4646
  129MOL0     C17312   5.739  10.915   2.679  0.3153 -0.6714  0.1351
  129MOL0     C17313   5.775  10.801   2.742  0.2728  0.7375  0.2170
  129MOL0     C17314   5.739  10.766   2.869 -0.1331 -0.0116 -0.0136
  129MOL0     O17315   5.815  10.669   2.927  0.0537 -0.2092 -0.4941
  129MOL0     C17316   5.757  10.597   3.037 -0.0361 -0.1006 -0.1251
  129MOL0     C17317   5.618  10.533   3.008  0.1041 -0.5291  0.4575
  129MOL0     C17318   5.634  10.380   2.987 -0.2903 -0.5452  0.5282
  129MOL0     C17319   5.524  10.302   2.935 -0.5817  0.5723  0.8401
  129MOL0     C17320   5.396  10.310   3.007 -0.0654 -0.2715 -0.4527
  129MOL0     C17321   5.421  10.287   3.158  0.7504 -0.1910 -0.3035
  129MOL0     C17322   5.292  10.244   3.214 -0.4670  0.3040 -0.2011
  129MOL0     C17323   5.266  10.093   3.192  0.4769 -0.6745 -0.2904
  129MOL0    Cl17324   5.341   9.992   3.314 -0.5827  0.2026  0.4587
  129MOL0     C17325   5.647  10.848   2.936  0.7235 -0.6191 -0.3095
  129MOL0     C17326   5.600  10.968   2.874  0.6756 -0.6411  0.0376
  129MOL0     O17327   5.753  11.253   2.785 -0.2340  0.4770  0.1125
  129MOL0     C17328   5.561  11.335   2.505  0.0803  0.0651  0.2685
  129MOL0     C17329   5.510  11.440   2.433  0.0632 -0.1423  0.3941
  129MOL0     N17330   4.886  11.866   2.714 -0.7111 -0.5991  0.4111
  129MOL0     N17331   4.786  11.944   2.696  0.0254  0.0721  0.2961
  129MOL0     C17332   4.612  11.683   1.839 -0.2373  0.9973 -0.2374
  129MOL0     C17333   4.710  11.579   1.828  0.4154  0.2881  0.5090
  129MOL0     C17334   5.091  11.354   1.932  0.0834  0.0233  0.4420
  129MOL0     C17335   5.219  11.407   1.907 -0.1102 -0.3185 -0.7407
  129MOL0     C17336   5.339  11.341   1.939 -0.5823 -0.8746 -0.6448
  129MOL0     C17337   5.338  11.212   2.003 -0.0306 -0.9279  0.2613
  129MOL0     O17338   5.444  11.134   2.032  0.0801  0.0160  0.2764
  129MOL0     C17339   5.570  11.154   1.972  0.5342 -0.5324 -0.4358
  129MOL0     C17340   5.632  11.015   1.972 -0.4515  0.1654 -0.4239
  129MOL0     C17341   5.776  11.021   1.913 -0.6196 -0.4761 -0.2864
  129MOL0     C17342   5.885  11.017   2.024 -0.2037 -0.5301 -0.0495
  129MOL0     C17343   5.859  11.087   2.153  0.2354  0.3239  0.2720
  129MOL0     C17344   5.822  11.141   2.249  0.3729  1.2662  0.3283
  129MOL0     C17345   5.209  11.177   2.035 -0.2457 -0.1650 -0.8201
  129MOL0     C17346   5.085  11.235   2.002  0.4246 -0.4694 -0.8691
  129MOL0     C17347   4.960  11.155   2.030  0.6644  0.2393 -0.6501
  129MOL0     H17348   4.677  11.432   2.141 -2.2184 -0.7157  1.1022
  129MOL0     H17349   4.492  11.615   2.140 -3.3509 -0.1907 -2.7494
  129MOL0     H17350   4.270  11.847   1.932  1.9711  1.9037  0.4555
  129MOL0     H17351   4.306  11.674   1.981 -2.6074  0.3152 -0.8426
  129MOL0     H17352   4.340  11.765   2.217  1.2539 -0.0394 -0.1578
  129MOL0     H17353   4.181  11.816   2.169 -0.1285  3.5456 -0.7042
  129MOL0     H17354   4.198  12.033   2.166  1.5178  1.4628  0.8212
  129MOL0     H17355   4.340  12.021   2.059  3.6407 -1.7020  0.0957
  129MOL0     H17356   4.387  12.139   2.290 -3.0821  0.4584 -1.8939
  129MOL0     H17357   4.347  11.985   2.353 -0.8636 -1.2501  0.2951
  129MOL0     H17358   4.532  11.883   2.191  3.8952 -0.6812  1.0338
  129MOL0     H17359   4.575  12.048   2.158 -3.0844  0.4710 -0.8382
  129MOL0     H17360   4.562  11.935   2.434 -0.5953  0.9265  0.8565
  129MOL0     H17361   4.700  11.905   2.331 -1.0706 -1.2306  0.0994
  129MOL0     H17362   4.636  12.193   2.351  2.2111  3.3224  2.3564
  129MOL0     H17363   4.791  12.109   2.332 -1.6554 -2.8211 -1.7613
  129MOL0     H17364   4.772  12.219   2.559 -0.2909  1.6432 -0.8511
  129MOL0     H17365   4.626  12.112   2.595  0.2179  1.1550 -0.1723
  129MOL0     H17366   4.963  12.007   2.427  4.5270  1.2985  2.4815
  129MOL0     H17367   5.129  11.753   2.670 -1.8842 -1.5027 -1.5228
  129MOL0     H17368   5.090  11.744   2.496 -1.8179  0.2830 -0.9056
  129MOL0     H17369   5.203  11.959   2.457  0.2679  2.1223  0.5572
  129MOL0     H17370   5.240  11.967   2.629 -0.4578 -0.9784  1.3248
  129MOL0     H17371   5.391  11.791   2.628  1.0270 -0.1929 -0.3751
  129MOL0     H17372   5.434  11.920   2.519  2.5285 -1.9355 -1.6479
  129MOL0     H17373   5.343  11.794   2.323  1.6937  2.2727  1.1798
  129MOL0     H17374   5.291  11.655   2.428 -1.8529  0.9745  1.7250
  129MOL0     H17375   5.597  11.695   2.643 -2.1110  0.4235  0.0593
  129MOL0     H17376   5.666  11.507   2.782 -1.4293  0.9551 -0.3108
  129MOL0     H17377   5.757  10.943   2.575  1.5460  3.5864  1.2996
  129MOL0     H17378   5.855  10.743   2.697  1.4161  0.6772  2.2050
  129MOL0     H17379   5.824  10.511   3.052 -1.2385 -1.0986 -0.3291
  129MOL0     H17380   5.763  10.663   3.125  0.5530  1.1623 -1.0842
  129MOL0     H17381   5.534  10.555   3.075 -1.5989 -0.3543 -1.6195
  129MOL0     H17382   5.577  10.572   2.914 -4.0022 -0.8875  1.8758
  129MOL0     H17383   5.709  10.371   2.907  0.0980 -1.1257  0.9439
  129MOL0     H17384   5.670  10.345   3.084  1.1036  0.9152  0.5872
  129MOL0     H17385   5.570  10.202   2.926 -1.5452  0.2949 -2.0065
  129MOL0     H17386   5.507  10.332   2.831  0.3168  0.3168  0.6079
  129MOL0     H17387   5.329  10.238   2.959  0.5601 -1.1573 -0.0358
  129MOL0     H17388   5.352  10.407   2.983  1.6065 -0.0183 -2.8603
  129MOL0     H17389   5.497  10.209   3.160  0.7099 -0.3166 -2.1884
  129MOL0     H17390   5.450  10.386   3.195 -2.7037  0.9536 -0.3103
  129MOL0     H17391   5.213  10.306   3.171 -1.3423 -1.8753 -1.8765
  129MOL0     H17392   5.288  10.236   3.323 -0.6589  1.4325 -0.1116
  129MOL0     H17393   5.158  10.076   3.187 -0.3196  3.1012  0.8503
  129MOL0     H17394   5.302  10.060   3.094  3.0671 -0.1208  0.3866
  129MOL0     H17395   5.601  10.828   3.032 -2.2182  2.9603 -0.7675
  129MOL0     H17396   5.515  11.024   2.910  1.9661  1.3908  0.0492
  129MOL0     H17397   5.548  11.233   2.470 -0.6097  0.1139  0.3640
  129MOL0     H17398   5.445  11.423   2.347 -2.1303  1.6837  1.5762
  129MOL0     H17399   4.613  11.758   1.759 -2.2007 -0.0040 -1.2800
  129MOL0     H17400   4.758  11.566   1.732 -1.5266 -2.9040 -0.1820
  129MOL0     H17401   5.229  11.506   1.864  0.4780  0.1061  0.3401
  129MOL0     H17402   5.436  11.388   1.924 -0.7192 -0.8104 -1.3633
  129MOL0     H17403   5.642  11.224   2.016  2.5241 -0.4464 -3.5096
  129MOL0     H17404   5.555  11.197   1.873  1.7895  0.7232 -0.1173
  129MOL0     H17405   5.577  10.953   1.901  1.6466 -0.8643 -1.2561
  129MOL0     H17406   5.633  10.965   2.070  0.1441  1.1702  0.0958
  129MOL0     H17407   5.780  11.112   1.853 -3.3763  1.4266  2.1096
  129MOL0     H17408   5.805  10.928   1.862  0.0176  1.7177 -4.3444
  129MOL0     H17409   5.915  10.913   2.043 -1.6321 -1.0666 -0.6046
  129MOL0     H17410   5.975  11.067   1.986  0.3188 -2.1345 -1.0557
  129MOL0     H17411   5.779  11.192   2.333 -1.0371  1.4819 -0.4729
  129MOL0     H17412   5.192  11.082   2.083 -1.9066 -1.0320 -2.9612
  129MOL0     H17413   4.990  11.055   2.065 -0.4583  0.3335  0.6548
  129MOL0     H17414   4.900  11.205   2.106  0.1185 -1.4199  0.0556
  129MOL0     H17415   4.894  11.149   1.942  2.8156  0.1411 -2.3413
  130MOL0     O17416   9.194   2.079   7.587 -0.0225 -0.4465  0.0710
  130MOL0     C17417   9.191   2.081   7.465 -0.1393 -0.0022 -0.5260
  130MOL0     O17418   9.302   2.104   7.387 -0.4763 -0.0809  0.6041
  130MOL0     C17419   9.417   2.065   7.449  0.8375 -0.2043 -0.3197
  130MOL0     C17420   9.495   2.149   7.532 -0.4141  1.0984 -0.0353
  130MOL0     C17421   9.610   2.093   7.589  0.4566  0.1769  0.1012
  130MOL0     C17422   9.656   1.963   7.562 -0.3232 -0.4722  0.1129
  130MOL0     O17423   9.751   1.896   7.640  0.0162 -0.5174 -0.3425
  130MOL0     C17424   9.807   1.965   7.758 -0.5713  1.1080  0.5854
  130MOL0     C17425   9.948   2.030   7.758 -0.4062  0.2661 -0.4260
  130MOL0     C17426  10.057   1.925   7.724  1.0199 -0.4363 -0.2204
  130MOL0     C17427  10.090   1.813   7.831  0.1451 -0.4987  0.9596
  130MOL0     C17428  10.146   1.864   7.961 -0.8426 -0.2628 -1.2119
  130MOL0     C17429  10.280   1.939   7.947  0.1159  0.5098 -0.4103
  130MOL0     C17430  10.331   2.030   8.058  1.1003  0.1214  0.9245
  130MOL0     C17431  10.457   2.096   8.013  0.3310  0.0383  1.4684
  130MOL0     N17432  10.498   2.174   8.130  0.3094  0.3983  0.7075
  130MOL0     C17433  10.427   2.286   8.191 -1.2697 -0.0144 -0.0655
  130MOL0     C17434  10.515   2.321   8.295 -0.0969 -0.4567  0.8350
  130MOL0     C17435  10.481   2.395   8.419 -0.1188  0.4867 -0.5499
  130MOL0     C17436  10.504   2.550   8.410 -0.0599  0.8424  0.3915
  130MOL0     C17437  10.431   2.629   8.304 -0.2313 -0.4488  0.6488
  130MOL0     C17438  10.279   2.630   8.283  0.1208  0.5395 -0.3999
  130MOL0     O17439  10.226   2.673   8.412  0.0517  0.0285  0.0437
  130MOL0     C17440  10.271   2.794   8.470  0.6263  0.1739 -0.4351
  130MOL0     C17441  10.254   2.905   8.388  0.1808 -0.6236 -0.1560
  130MOL0     C17442  10.258   3.034   8.438  0.0047 -0.1660  0.1707
  130MOL0     C17443  10.305   3.062   8.568 -0.1106 -0.4492  0.5926
  130MOL0     C17444  10.313   3.199   8.634 -0.0369  0.7384 -0.1208
  130MOL0     O17445  10.357   3.220   8.770  0.0292 -0.2555  0.2092
  130MOL0     C17446  10.355   3.347   8.821  0.7638  0.6243 -0.5267
  130MOL0     C17447  10.468   3.429   8.801  0.6036  0.2562  0.6657
  130MOL0     C17448  10.464   3.557   8.864  0.0844 -0.2806 -0.0076
  130MOL0     C17449  10.358   3.606   8.927  0.7078 -1.0901 -0.5222
  130MOL0     O17450  10.371   3.727   8.991 -0.1439 -0.1603 -0.1289
  130MOL0     C17451  10.275   3.839   8.979  0.3763  0.1671  0.2379
  130MOL0     C17452  10.322   3.951   9.066  0.6361 -0.6003 -0.4586
  130MOL0     C17453  10.442   4.030   9.014  0.0037  0.8936 -0.9622
  130MOL0     C17454  10.471   4.158   9.091  0.3081 -0.8916 -0.6354
  130MOL0     C17455  10.606   4.230   9.054  0.2367 -0.8802  0.4026
  130MOL0     C17456  10.625   4.370   9.116 -0.7481  0.5234 -0.7148
  130MOL0     C17457  10.679   4.372   9.256 -0.5613  0.2261 -1.1127
  130MOL0     C17458  10.660   4.510   9.324 -0.3079  0.2388 -0.0725
  130MOL0    Cl17459  10.697   4.645   9.224 -0.1119 -0.1189  0.3165
  130MOL0     C17460  10.238   3.532   8.923 -0.8156  0.0051  0.1726
  130MOL0     C17461  10.236   3.407   8.871 -1.1710 -0.5914 -0.1629
  130MOL0     O17462  10.265   3.288   8.556  0.4972  0.7301  0.1100
  130MOL0     C17463  10.326   2.944   8.646  0.1372 -0.1441 -0.8210
  130MOL0     C17464  10.304   2.810   8.599 -0.4045  0.6731 -0.6522
  130MOL0     N17465  10.630   2.236   8.294  0.0394 -0.2473 -0.2558
  130MOL0     N17466  10.608   2.155   8.198  0.1961 -0.3250 -0.8618
  130MOL0     C17467   9.587   1.888   7.470 -0.3115  0.2622 -0.6339
  130MOL0     C17468   9.465   1.943   7.410  0.1280 -0.6393 -0.9856
  130MOL0     C17469   9.065   2.082   7.397 -0.1084 -0.3593  0.6668
  130MOL0     C17470   8.981   2.187   7.422  0.7276 -0.0149 -0.6340
  130MOL0     C17471   8.844   2.195   7.373  0.3470 -0.4254  0.2843
  130MOL0     C17472   8.807   2.107   7.263 -0.8040  0.0315  0.1888
  130MOL0     O17473   8.704   2.112   7.179 -0.4101 -0.9217 -0.4292
  130MOL0     C17474   8.592   2.190   7.232 -0.4410 -0.1449  1.3119
  130MOL0     C17475   8.462   2.156   7.168  0.6865  0.4328 -1.1050
  130MOL0     C17476   8.346   2.211   7.261  0.3226 -0.0564  0.0733
  130MOL0     C17477   8.202   2.196   7.209  0.2263  0.0003 -0.0745
  130MOL0     C17478   8.105   2.205   7.323  0.2158 -0.2336 -0.1281
  130MOL0     C17479   8.015   2.210   7.402 -0.4581 -0.4397  0.0213
  130MOL0     C17480   8.897   2.004   7.236 -0.5188 -0.5718 -0.3307
  130MOL0     C17481   9.021   1.982   7.299 -0.0941 -0.4818  0.0453
  130MOL0     C17482   9.102   1.859   7.258  0.0318 -0.2271  0.1926
  130MOL0     H17483   9.471   2.252   7.557 -1.4960  1.3406 -1.8958
  130MOL0     H17484   9.666   2.167   7.645 -0.3568  1.3636 -0.6048
  130MOL0     H17485   9.736   2.024   7.817  0.8523 -0.9494  4.7393
  130MOL0     H17486   9.812   1.886   7.833  1.4883  0.7423  0.1223
  130MOL0     H17487   9.979   2.065   7.857  0.6570 -0.0451 -0.6353
  130MOL0     H17488   9.955   2.110   7.684  3.7857  0.1949 -0.3349
  130MOL0     H17489  10.148   1.986   7.713 -0.5280  2.4020  1.3803
  130MOL0     H17490  10.032   1.867   7.635  2.0702  0.2759 -0.9999
  130MOL0     H17491   9.997   1.759   7.852 -0.4522  0.8670  2.0285
  130MOL0     H17492  10.177   1.755   7.801  2.1067  1.6869  2.0308
  130MOL0     H17493  10.074   1.916   8.025  0.8738 -0.6725  1.2169
  130MOL0     H17494  10.176   1.781   8.026 -2.8801 -1.5656 -1.8609
  130MOL0     H17495  10.370   1.881   7.924 -0.4848 -1.2817  1.5111
  130MOL0     H17496  10.262   2.016   7.871  2.0932  1.1924 -0.2650
  130MOL0     H17497  10.345   1.973   8.150  1.2962 -0.9969  0.2171
  130MOL0     H17498  10.253   2.107   8.064 -0.6282 -1.5232  0.4042
  130MOL0     H17499  10.534   2.025   7.981 -2.0554 -1.2723 -1.9562
  130MOL0     H17500  10.442   2.155   7.922 -1.0901 -1.3436  0.7543
  130MOL0     H17501  10.330   2.329   8.169  1.0212  3.3249 -5.5755
  130MOL0     H17502  10.375   2.385   8.441 -0.3992  0.6413 -1.7715
  130MOL0     H17503  10.539   2.350   8.500 -0.2698 -1.6063 -1.5503
  130MOL0     H17504  10.472   2.591   8.507 -1.8980  1.3714 -0.3807
  130MOL0     H17505  10.611   2.570   8.401  0.4357 -2.0761 -1.4359
  130MOL0     H17506  10.468   2.594   8.207 -2.0708  1.2593 -0.7278
  130MOL0     H17507  10.466   2.732   8.301 -1.4593 -0.0347 -0.8211
  130MOL0     H17508  10.239   2.528   8.271 -3.8871  0.9679  5.0037
  130MOL0     H17509  10.245   2.693   8.200 -0.9113 -3.0335 -2.9773
  130MOL0     H17510  10.223   2.895   8.284  0.8562 -1.7463 -0.2599
  130MOL0     H17511  10.232   3.113   8.368 -0.6952 -1.0606 -0.6249
  130MOL0     H17512  10.559   3.399   8.751 -0.8809  0.1389 -2.1463
  130MOL0     H17513  10.555   3.616   8.861  0.2204 -0.4553  0.5523
  130MOL0     H17514  10.262   3.871   8.875  1.0546 -0.4493 -0.0418
  130MOL0     H17515  10.176   3.800   9.005 -0.3760  1.1248 -1.0592
  130MOL0     H17516  10.249   4.032   9.067  4.4537  3.2161 -0.7645
  130MOL0     H17517  10.347   3.911   9.165 -0.7947  0.8416  0.5544
  130MOL0     H17518  10.536   3.976   9.028 -0.5529  0.7325  3.4044
  130MOL0     H17519  10.421   4.052   8.909  0.1277 -1.9784 -1.6743
  130MOL0     H17520  10.461   4.147   9.199  0.1179 -1.5157 -0.7106
  130MOL0     H17521  10.400   4.237   9.064  3.1220  0.8314 -3.8910
  130MOL0     H17522  10.592   4.233   8.945  0.8209  0.8613  0.3409
  130MOL0     H17523  10.699   4.175   9.069  2.3408  1.5953 -2.2309
  130MOL0     H17524  10.695   4.417   9.048 -1.4490  0.8987 -1.1893
  130MOL0     H17525  10.528   4.422   9.123 -1.0159 -0.1802  2.2083
  130MOL0     H17526  10.786   4.352   9.270 -0.4399  1.8230  0.5601
  130MOL0     H17527  10.617   4.299   9.309 -0.4928  1.0696  0.1640
  130MOL0     H17528  10.555   4.518   9.356 -0.3579  0.2321 -0.2377
  130MOL0     H17529  10.720   4.512   9.415 -3.9533 -0.1577  2.5865
  130MOL0     H17530  10.149   3.572   8.970 -1.0399 -1.5484  1.1495
  130MOL0     H17531  10.143   3.352   8.870 -3.2083  2.5925 -2.0456
  130MOL0     H17532  10.356   2.947   8.750 -1.2032  1.3836 -0.4297
  130MOL0     H17533  10.330   2.718   8.651  1.0785  1.3141 -0.2006
  130MOL0     H17534   9.621   1.790   7.439 -2.5082 -0.2550 -1.5552
  130MOL0     H17535   9.402   1.895   7.336 -0.1315 -0.2518 -1.0232
  130MOL0     H17536   9.011   2.253   7.503 -0.0229  0.1470 -0.4814
  130MOL0     H17537   8.772   2.259   7.422  1.2040 -0.0143  1.0399
  130MOL0     H17538   8.607   2.297   7.219 -0.8818  0.0282  2.1449
  130MOL0     H17539   8.579   2.168   7.338  0.1932  0.4282  1.5184
  130MOL0     H17540   8.463   2.047   7.158  1.6081  0.1299  1.6122
  130MOL0     H17541   8.448   2.209   7.073  2.0019 -0.0671 -1.5917
  130MOL0     H17542   8.354   2.319   7.277 -1.7606  0.3132 -1.1001
  130MOL0     H17543   8.348   2.159   7.357 -1.4336  0.9936  0.7144
  130MOL0     H17544   8.196   2.269   7.127  0.5982  0.9403  0.7132
  130MOL0     H17545   8.191   2.090   7.182  2.8790 -1.6200  4.2182
  130MOL0     H17546   7.943   2.251   7.469 -3.7950 -1.3668 -2.7151
  130MOL0     H17547   8.877   1.934   7.155 -1.2888 -3.0823  1.8536
  130MOL0     H17548   9.036   1.772   7.257 -0.5258  0.1877  0.7274
  130MOL0     H17549   9.160   1.866   7.166  2.7063  1.7743  1.8605
  130MOL0     H17550   9.179   1.844   7.335 -1.0564 -1.0089  1.1663
  131MOL0     O17551   4.738   0.346   3.546  0.1657 -0.7331 -0.2881
  131MOL0     C17552   4.834   0.302   3.607 -0.3121 -0.5029 -1.1064
  131MOL0     O17553   4.836   0.203   3.707 -1.0455  0.0800 -0.0994
  131MOL0     C17554   4.713   0.162   3.763 -0.3572  0.1050 -0.8684
  131MOL0     C17555   4.720   0.161   3.904 -1.1033  0.5430  0.1175
  131MOL0     C17556   4.605   0.112   3.980  0.6095  0.4037 -1.0600
  131MOL0     C17557   4.483   0.079   3.915  0.6670  0.4043  0.0142
  131MOL0     O17558   4.363   0.036   3.977 -0.1958 -0.6289  0.2311
  131MOL0     C17559   4.369  -0.012   4.108  0.0681 -0.5036  1.0185
  131MOL0     C17560   4.233  -0.051   4.178  0.8994 -0.9434 -0.2773
  131MOL0     C17561   4.174  -0.172   4.095 -0.0209 -0.7167 -0.1745
  131MOL0     C17562   4.100  -0.265   4.189  0.3244 -0.7610  0.0888
  131MOL0     C17563   4.178  -0.398   4.206  0.2595  0.8638  0.0761
  131MOL0     C17564   4.099  -0.487   4.301 -0.5537 -1.6338  0.3652
  131MOL0     C17565   3.967  -0.526   4.245  0.5692  0.0911  0.9750
  131MOL0     C17566   3.924  -0.668   4.296  0.0439  0.2376 -0.0385
  131MOL0     N17567   3.887  -0.652   4.441  0.3191  0.8116  1.6084
  131MOL0     C17568   3.933  -0.739   4.536  0.2462 -0.5148 -0.2586
  131MOL0     C17569   3.892  -0.688   4.654 -0.1432 -0.2719 -0.2096
  131MOL0     C17570   3.945  -0.743   4.785  0.4002 -0.3063 -0.3827
  131MOL0     C17571   3.836  -0.775   4.880 -0.1862  0.1028 -0.5455
  131MOL0     C17572   3.887  -0.863   5.008 -0.0905 -0.7758 -0.8419
  131MOL0     C17573   3.916  -1.021   4.982  0.0122 -0.4247 -0.5394
  131MOL0     O17574   3.815  -1.076   4.903 -0.5704 -0.6037 -0.4004
  131MOL0     C17575   3.842  -1.197   4.854 -0.9973 -0.5170 -0.0008
  131MOL0     C17576   3.818  -1.312   4.917 -1.0003  0.7351 -0.0480
  131MOL0     C17577   3.839  -1.440   4.859  0.9129  0.6514 -0.4816
  131MOL0     C17578   3.902  -1.449   4.745 -0.3455  0.4300 -0.4881
  131MOL0     C17579   3.951  -1.583   4.699  0.0813 -0.2994  0.4734
  131MOL0     O17580   3.877  -1.687   4.738  1.0320 -0.0279  0.4082
  131MOL0     C17581   3.895  -1.815   4.691  0.2621 -0.4666 -0.6634
  131MOL0     C17582   3.855  -1.916   4.775  0.4481  0.2064  1.0131
  131MOL0     C17583   3.868  -2.047   4.750 -0.8931 -0.0635  0.7810
  131MOL0     C17584   3.942  -2.089   4.640  0.1950  0.1099  0.0047
  131MOL0     O17585   3.976  -2.222   4.626  0.5859  1.2239 -0.1187
  131MOL0     C17586   4.022  -2.274   4.500  0.1814 -0.8684  0.3038
  131MOL0     C17587   3.912  -2.302   4.396 -0.1095  0.1616 -0.0803
  131MOL0     C17588   3.966  -2.366   4.270  0.3948  0.8883 -0.8778
  131MOL0     C17589   3.859  -2.398   4.162  0.2511 -0.4422 -0.5015
  131MOL0     C17590   3.777  -2.276   4.098  0.3242 -1.0954  0.5177
  131MOL0     C17591   3.694  -2.336   3.978 -0.1789 -0.0807 -0.0652
  131MOL0     C17592   3.586  -2.233   3.924  0.1659  0.7124 -0.2603
  131MOL0     C17593   3.534  -2.266   3.780 -0.2268  0.2839  0.5093
  131MOL0    Cl17594   3.472  -2.439   3.763 -0.1854 -0.2312 -0.4792
  131MOL0     C17595   3.980  -1.989   4.551  0.7105  0.8491  0.1652
  131MOL0     C17596   3.957  -1.851   4.572 -0.0562  0.4396  0.4957
  131MOL0     O17597   4.051  -1.582   4.630 -0.2871 -0.0627  0.4600
  131MOL0     C17598   3.925  -1.336   4.663  0.1810  0.1580 -0.7820
  131MOL0     C17599   3.898  -1.204   4.722 -0.6095  0.4095 -0.2807
  131MOL0     N17600   3.805  -0.571   4.625 -0.3029 -0.5660 -0.7239
  131MOL0     N17601   3.805  -0.557   4.492  0.4774 -0.1476 -0.3690
  131MOL0     C17602   4.483   0.097   3.779  0.7861 -0.0451  0.4183
  131MOL0     C17603   4.591   0.128   3.701  0.5456  0.0369  0.4192
  131MOL0     C17604   4.972   0.366   3.584  0.4431 -0.0058  0.2302
  131MOL0     C17605   5.079   0.282   3.612 -0.8844  0.3644  1.8738
  131MOL0     C17606   5.211   0.320   3.584 -0.2679 -0.1387  0.2532
  131MOL0     C17607   5.243   0.445   3.529  0.5943  0.3935  0.2150
  131MOL0     O17608   5.377   0.471   3.513 -0.3091  0.2660  0.1143
  131MOL0     C17609   5.415   0.579   3.424 -0.2884 -0.0300  0.7400
  131MOL0     C17610   5.563   0.591   3.423  0.2668 -0.6391 -0.2333
  131MOL0     C17611   5.624   0.666   3.529 -0.1995 -0.4104 -1.2857
  131MOL0     C17612   5.567   0.808   3.566 -1.4665  0.8080 -0.4443
  131MOL0     C17613   5.572   0.904   3.455 -1.0103 -0.7855 -1.1717
  131MOL0     C17614   5.583   0.987   3.365  0.3024 -0.0083  0.2334
  131MOL0     C17615   5.135   0.541   3.511  1.0825 -0.6285  0.6009
  131MOL0     C17616   5.001   0.496   3.531 -0.1340  0.1389  0.1932
  131MOL0     C17617   4.894   0.595   3.522 -0.4273  0.5419  0.5314
  131MOL0     H17618   4.818   0.189   3.939 -0.2637 -0.6665 -1.1660
  131MOL0     H17619   4.597   0.114   4.089 -1.6934 -0.4119 -1.1540
  131MOL0     H17620   4.427  -0.105   4.101 -0.5704 -0.7674 -1.6346
  131MOL0     H17621   4.418   0.068   4.163 -0.3332  0.7488 -0.3874
  131MOL0     H17622   4.163   0.033   4.173 -0.2418 -1.9538 -2.4313
  131MOL0     H17623   4.257  -0.088   4.279  1.7004  0.2443 -0.0055
  131MOL0     H17624   4.258  -0.226   4.050  1.8769  1.4952  0.5047
  131MOL0     H17625   4.101  -0.145   4.018 -2.3953 -1.1587  1.8074
  131MOL0     H17626   4.067  -0.226   4.286 -1.3822  0.3787 -0.8990
  131MOL0     H17627   4.009  -0.291   4.134  0.3516 -0.1313 -0.2678
  131MOL0     H17628   4.192  -0.453   4.112 -0.9864 -0.9635  0.8936
  131MOL0     H17629   4.275  -0.381   4.254 -0.0041  3.7387 -0.2284
  131MOL0     H17630   4.161  -0.576   4.319 -1.1999 -1.7095  2.4659
  131MOL0     H17631   4.087  -0.442   4.399  0.2443  3.7090 -1.6764
  131MOL0     H17632   3.971  -0.530   4.135 -0.5428  4.3850  0.6129
  131MOL0     H17633   3.896  -0.450   4.278  0.9622  1.0342 -0.2689
  131MOL0     H17634   3.833  -0.695   4.243 -0.1077  2.2731 -0.9062
  131MOL0     H17635   3.997  -0.746   4.269  0.4843  1.0210 -1.2287
  131MOL0     H17636   3.999  -0.823   4.517  0.8565 -0.0743 -0.1137
  131MOL0     H17637   3.994  -0.840   4.771  0.5263 -1.3617  5.0955
  131MOL0     H17638   4.021  -0.680   4.833  0.9340 -1.2135 -0.0092
  131MOL0     H17639   3.793  -0.681   4.915 -2.3751 -0.6014 -1.1850
  131MOL0     H17640   3.758  -0.823   4.820  0.2045 -0.0361 -0.9541
  131MOL0     H17641   3.815  -0.860   5.090  2.9763 -1.9952  2.1101
  131MOL0     H17642   3.976  -0.819   5.052  0.9996  0.6907 -4.1675
  131MOL0     H17643   3.919  -1.079   5.074 -1.8911  1.6866  0.9508
  131MOL0     H17644   4.016  -1.025   4.937  1.0140  2.1676  1.2150
  131MOL0     H17645   3.782  -1.321   5.019 -2.2530  1.3241 -0.4214
  131MOL0     H17646   3.803  -1.521   4.921 -0.0276  1.9958  0.7955
  131MOL0     H17647   3.803  -1.890   4.867 -0.7278  0.1098  0.3936
  131MOL0     H17648   3.844  -2.113   4.833  1.3128 -0.0885  1.4686
  131MOL0     H17649   4.098  -2.205   4.464 -0.6479  0.2647  0.6507
  131MOL0     H17650   4.064  -2.374   4.514  2.1688 -0.0387  0.6356
  131MOL0     H17651   3.847  -2.381   4.435  1.8565 -1.2071  0.6013
  131MOL0     H17652   3.859  -2.209   4.374 -1.3787 -0.2191  1.2300
  131MOL0     H17653   4.044  -2.306   4.223  3.4356 -2.4386 -0.5576
  131MOL0     H17654   4.021  -2.455   4.302 -0.9595  0.1156 -0.6116
  131MOL0     H17655   3.794  -2.474   4.205 -0.6317 -1.2141 -2.9817
  131MOL0     H17656   3.910  -2.442   4.076  0.9510  0.8657 -0.7892
  131MOL0     H17657   3.849  -2.194   4.083  0.3061 -1.4710 -2.1190
  131MOL0     H17658   3.703  -2.241   4.170 -1.2130 -0.2187 -1.3749
  131MOL0     H17659   3.760  -2.377   3.901  0.2874  1.1093 -0.3253
  131MOL0     H17660   3.624  -2.412   4.013 -3.2544  1.8416 -1.6283
  131MOL0     H17661   3.623  -2.130   3.926 -1.3397  1.3226 -1.5357
  131MOL0     H17662   3.503  -2.219   3.993  0.8024  1.4703  0.3716
  131MOL0     H17663   3.451  -2.197   3.764 -1.4786 -1.2870  0.0126
  131MOL0     H17664   3.615  -2.258   3.706  0.1185 -3.0277  0.3679
  131MOL0     H17665   4.031  -2.022   4.461 -1.0819  0.3477 -0.7145
  131MOL0     H17666   3.988  -1.767   4.510  0.8774  1.4338  2.2334
  131MOL0     H17667   3.966  -1.356   4.564  2.6114 -0.0820  0.2100
  131MOL0     H17668   3.899  -1.107   4.674 -3.4582  1.5950  1.7435
  131MOL0     H17669   4.391   0.075   3.726  0.9405  0.9344 -0.2773
  131MOL0     H17670   4.576   0.139   3.594 -0.0564  4.3572  0.7440
  131MOL0     H17671   5.059   0.179   3.641 -1.0344 -0.8270 -1.8624
  131MOL0     H17672   5.292   0.253   3.612  1.9492  1.5935 -1.5391
  131MOL0     H17673   5.366   0.675   3.447  2.3833  1.2368  1.6506
  131MOL0     H17674   5.378   0.549   3.326  4.8450 -0.6354 -1.3410
  131MOL0     H17675   5.586   0.637   3.327 -1.5079 -1.4013 -1.0726
  131MOL0     H17676   5.598   0.488   3.418 -0.6821 -1.1377  1.9936
  131MOL0     H17677   5.732   0.669   3.518  0.3094 -0.4973  2.5166
  131MOL0     H17678   5.613   0.607   3.620 -4.0643  0.7502 -0.7809
  131MOL0     H17679   5.470   0.786   3.611 -0.9136  1.6365  1.2495
  131MOL0     H17680   5.633   0.845   3.645 -0.6420  0.4606 -0.9532
  131MOL0     H17681   5.601   1.067   3.297  0.1129 -0.8269 -0.8111
  131MOL0     H17682   5.157   0.646   3.495  2.3472 -0.7736  1.2746
  131MOL0     H17683   4.833   0.577   3.433 -0.6056 -0.1245  0.7802
  131MOL0     H17684   4.837   0.575   3.613  0.5209 -1.6042  0.7237
  131MOL0     H17685   4.934   0.694   3.501  0.9424 -0.6910 -3.6880
  132MOL0     O17686   9.306   2.983  10.522 -0.1796 -0.7434  0.0397
  132MOL0     C17687   9.271   3.072  10.599 -0.6810  0.4171 -0.2494
  132MOL0     O17688   9.265   3.065  10.732 -1.0254 -0.2660  0.3503
  132MOL0     C17689   9.308   2.940  10.775  0.1850  0.2271 -0.3647
  132MOL0     C17690   9.447   2.910  10.781 -0.8957 -0.1070  0.0218
  132MOL0     C17691   9.500   2.784  10.823 -0.7863 -0.0962  0.8786
  132MOL0     C17692   9.412   2.689  10.869 -0.0221  0.3699 -0.7301
  132MOL0     O17693   9.475   2.573  10.910  0.2775  0.3630  0.1651
  132MOL0     C17694   9.434   2.494  11.014 -0.5076 -0.3744  0.4977
  132MOL0     C17695   9.540   2.392  11.021 -0.5902  0.2553 -0.4539
  132MOL0     C17696   9.502   2.281  11.111 -0.0989 -0.7556  0.4454
  132MOL0     C17697   9.597   2.174  11.086  0.1808 -0.9093  0.5958
  132MOL0     C17698   9.742   2.208  11.128  0.0150 -0.0572 -0.0723
  132MOL0     C17699   9.819   2.083  11.152  0.3029  0.0757  0.8910
  132MOL0     C17700   9.969   2.103  11.167  0.0528  0.7582 -0.0825
  132MOL0     C17701  10.024   2.199  11.262 -0.4401 -0.1556 -0.2580
  132MOL0     N17702   9.983   2.181  11.399 -0.6104  0.1475  0.3499
  132MOL0     C17703  10.044   2.105  11.490 -0.8275 -0.0095 -0.7916
  132MOL0     C17704   9.961   2.095  11.594  0.9498  0.1179 -0.1150
  132MOL0     C17705   9.991   2.036  11.731 -0.1375  1.1747  0.0333
  132MOL0     C17706  10.052   2.153  11.820 -0.1315  0.4979 -0.9205
  132MOL0     C17707  10.098   2.098  11.961  0.2841 -0.1798  0.2417
  132MOL0     C17708  10.028   2.170  12.072  0.7865  0.0269  1.1130
  132MOL0     O17709   9.994   2.304  12.067 -1.1508 -0.1173  0.1118
  132MOL0     C17710   9.872   2.352  12.104 -0.0469 -0.3550 -0.1254
  132MOL0     C17711   9.751   2.273  12.108 -1.0730  0.1339  0.1622
  132MOL0     C17712   9.639   2.340  12.157  0.4074 -0.0396  0.7960
  132MOL0     C17713   9.632   2.478  12.195  0.7708 -0.0648  1.4830
  132MOL0     C17714   9.495   2.543  12.196  0.7048  0.2483 -0.3358
  132MOL0     O17715   9.500   2.672  12.167  0.0086  0.4963  0.1573
  132MOL0     C17716   9.432   2.778  12.236 -0.0020  0.1443  0.3230
  132MOL0     C17717   9.356   2.753  12.355  0.5992 -0.1170  0.4072
  132MOL0     C17718   9.259   2.845  12.388 -1.5451 -0.4929 -0.3440
  132MOL0     C17719   9.268   2.978  12.338  1.0030 -1.3443 -0.4384
  132MOL0     O17720   9.161   3.053  12.386  0.4927  0.0413  0.3114
  132MOL0     C17721   9.168   3.190  12.374 -0.4798 -0.4455 -0.8545
  132MOL0     C17722   9.053   3.257  12.451 -0.5652 -0.1874  0.3052
  132MOL0     C17723   9.065   3.404  12.423 -0.3044  0.3204 -0.1468
  132MOL0     C17724   8.944   3.491  12.463  0.7228 -0.7426 -1.1340
  132MOL0     C17725   8.950   3.526  12.617 -0.6078 -0.5274 -0.3844
  132MOL0     C17726   9.070   3.622  12.656  0.0139 -0.0502  0.4008
  132MOL0     C17727   9.065   3.769  12.628  0.2402 -0.4999  0.1663
  132MOL0     C17728   9.048   3.847  12.764 -0.0215 -0.4194  0.7966
  132MOL0    Cl17729   9.201   3.921  12.822  0.3476  0.2201  0.1806
  132MOL0     C17730   9.355   3.009  12.232 -0.3864  0.7752  0.7801
  132MOL0     C17731   9.425   2.900  12.170 -0.8974 -0.4179  0.8428
  132MOL0     O17732   9.389   2.485  12.230 -0.6728 -0.0991 -0.8212
  132MOL0     C17733   9.745   2.547  12.192  0.2619  0.1234 -0.0768
  132MOL0     C17734   9.866   2.488  12.150 -0.7116 -0.1122 -1.0590
  132MOL0     N17735   9.855   2.172  11.559  0.6530  0.0442  0.1204
  132MOL0     N17736   9.872   2.235  11.447  1.1429  0.0218 -0.1528
  132MOL0     C17737   9.272   2.713  10.869  0.3400 -0.6137 -0.3267
  132MOL0     C17738   9.224   2.840  10.826  0.3768  1.5419  0.5638
  132MOL0     C17739   9.220   3.193  10.543 -0.9376  0.4730 -0.5133
  132MOL0     C17740   9.250   3.306  10.618 -0.2722  0.4948 -0.2782
  132MOL0     C17741   9.196   3.426  10.585 -0.2364 -0.7473 -0.3176
  132MOL0     C17742   9.103   3.444  10.481 -0.5561  0.1007 -1.2411
  132MOL0     O17743   9.039   3.558  10.443  0.1709 -0.0599 -0.0430
  132MOL0     C17744   8.926   3.584  10.531  0.2417 -0.5362  0.6857
  132MOL0     C17745   8.796   3.550  10.456 -0.5656  0.7222  0.7704
  132MOL0     C17746   8.788   3.620  10.321 -0.2600  0.1898 -0.8361
  132MOL0     C17747   8.778   3.527  10.189 -0.3824  0.3448  0.7463
  132MOL0     C17748   8.906   3.472  10.134  0.8779  0.9034 -0.7277
  132MOL0     C17749   9.000   3.418  10.083  0.1880  0.9019  0.0612
  132MOL0     C17750   9.078   3.328  10.410 -1.1593 -0.6890  0.3457
  132MOL0     C17751   9.141   3.206  10.431 -0.5898 -0.1747  0.1104
  132MOL0     C17752   9.101   3.089  10.346 -0.0060 -0.0204 -0.1735
  132MOL0     H17753   9.515   2.989  10.751 -1.3312  0.2390 -0.0559
  132MOL0     H17754   9.605   2.759  10.812 -0.9652 -0.3889 -0.4579
  132MOL0     H17755   9.400   2.548  11.102 -3.6993  0.8785 -1.3126
  132MOL0     H17756   9.355   2.431  10.971 -2.4164  1.4654  1.1156
  132MOL0     H17757   9.630   2.444  11.054 -0.7439  1.7058 -2.2105
  132MOL0     H17758   9.570   2.363  10.920 -0.8870  0.8424 -0.7190
  132MOL0     H17759   9.406   2.241  11.076  0.0915 -3.7424  2.9053
  132MOL0     H17760   9.504   2.313  11.215  2.0409 -0.2358  0.2997
  132MOL0     H17761   9.558   2.097  11.153 -0.0698  0.4827  2.1047
  132MOL0     H17762   9.586   2.141  10.982  0.1455  0.2330  0.2213
  132MOL0     H17763   9.791   2.268  11.051  2.6499 -0.5191  1.1385
  132MOL0     H17764   9.742   2.274  11.215 -0.8184  0.5360 -0.5048
  132MOL0     H17765   9.770   2.042  11.241 -3.8110 -0.0989 -1.2234
  132MOL0     H17766   9.814   2.002  11.079 -2.9627 -2.3083  3.4627
  132MOL0     H17767  10.011   2.128  11.069  1.0270  2.7957  0.8008
  132MOL0     H17768   9.999   2.004  11.204  0.5885  0.9169 -0.0830
  132MOL0     H17769  10.134   2.201  11.264 -0.3701  2.6516  2.6892
  132MOL0     H17770  10.008   2.303  11.232 -1.1664 -0.3058 -0.4066
  132MOL0     H17771  10.144   2.063  11.492  0.3029  2.4997 -0.2172
  132MOL0     H17772   9.904   1.996  11.783 -1.5478  2.7355 -1.0141
  132MOL0     H17773  10.067   1.957  11.726 -1.2239  0.0405  0.7664
  132MOL0     H17774  10.147   2.168  11.768  0.3116  2.0081  0.2851
  132MOL0     H17775   9.984   2.238  11.829 -0.8942 -0.2883  1.6773
  132MOL0     H17776  10.204   2.124  11.958  1.0935 -3.2420 -0.8152
  132MOL0     H17777  10.097   1.990  11.978  0.4234  0.0844  2.1103
  132MOL0     H17778  10.092   2.149  12.159  2.7447  3.5401  0.7153
  132MOL0     H17779   9.944   2.103  12.093  2.4936 -1.6835  3.0274
  132MOL0     H17780   9.752   2.175  12.060 -2.0933 -0.5355  1.4244
  132MOL0     H17781   9.547   2.282  12.149  0.7702 -0.5613  0.2769
  132MOL0     H17782   9.364   2.665  12.418 -0.1032  0.9553  2.0619
  132MOL0     H17783   9.193   2.813  12.468 -2.2463  0.3643 -0.5638
  132MOL0     H17784   9.258   3.235  12.418 -0.4232 -0.9527 -0.4385
  132MOL0     H17785   9.173   3.224  12.271 -0.2808  2.0769 -0.0695
  132MOL0     H17786   8.959   3.219  12.409 -0.6426 -0.1691  0.4566
  132MOL0     H17787   9.049   3.233  12.558  0.1895 -2.5547 -0.1399
  132MOL0     H17788   9.147   3.457  12.472 -0.6586  2.1428 -1.4059
  132MOL0     H17789   9.089   3.410  12.316  1.5507  0.0679  0.2260
  132MOL0     H17790   8.849   3.437  12.454  0.5560 -0.1808 -3.0763
  132MOL0     H17791   8.947   3.576  12.394  0.9719 -1.1391 -1.6173
  132MOL0     H17792   8.963   3.430  12.667 -1.5024 -0.8305 -0.7067
  132MOL0     H17793   8.854   3.573  12.640  0.0847  0.1881  1.1812
  132MOL0     H17794   9.081   3.607  12.764  1.5914 -5.8040 -0.2110
  132MOL0     H17795   9.162   3.575  12.620  1.4427  2.3113  0.7651
  132MOL0     H17796   8.981   3.775  12.558 -0.7615 -1.8916  1.1889
  132MOL0     H17797   9.155   3.817  12.589 -0.1915 -0.4683 -0.8268
  132MOL0     H17798   8.989   3.933  12.731 -0.8964 -1.7039 -1.2084
  132MOL0     H17799   8.978   3.801  12.835 -0.1224 -0.4038  0.7079
  132MOL0     H17800   9.347   3.101  12.176  0.3932  0.2033 -0.3146
  132MOL0     H17801   9.471   2.900  12.071 -2.1081 -0.0428  0.2684
  132MOL0     H17802   9.754   2.650  12.223  1.0260  0.5087 -1.5137
  132MOL0     H17803   9.953   2.553  12.155 -1.2042  0.4405  1.4840
  132MOL0     H17804   9.202   2.637  10.902  0.3621 -0.0024  1.1816
  132MOL0     H17805   9.116   2.842  10.835  0.2353  0.5317 -0.5952
  132MOL0     H17806   9.321   3.298  10.700 -2.3403  1.9293  1.8001
  132MOL0     H17807   9.228   3.505  10.653 -1.6690  1.8821 -2.4983
  132MOL0     H17808   8.924   3.692  10.547 -1.5602 -0.0968 -1.8667
  132MOL0     H17809   8.924   3.542  10.632  0.1896 -0.8157  0.5675
  132MOL0     H17810   8.708   3.576  10.515 -1.6829  3.7617 -1.9700
  132MOL0     H17811   8.794   3.441  10.441 -1.7257  1.1220 -2.8201
  132MOL0     H17812   8.879   3.679  10.302  1.2821 -2.6248 -3.1758
  132MOL0     H17813   8.704   3.690  10.322  1.0578  2.0522 -3.7252
  132MOL0     H17814   8.711   3.442  10.201 -0.4029 -0.0543 -1.5824
  132MOL0     H17815   8.734   3.581  10.104  0.3521  2.1721  1.4647
  132MOL0     H17816   9.072   3.353  10.037 -0.6976 -1.7643  2.2014
  132MOL0     H17817   9.001   3.343  10.335 -0.5759  1.0647  0.0412
  132MOL0     H17818   9.184   3.052  10.286  0.5066  0.0780  0.4624
  132MOL0     H17819   9.085   3.006  10.416 -0.1994  0.7429  0.7156
  132MOL0     H17820   9.008   3.102  10.290 -0.5833 -0.1677  0.7306
  133MOL0     O17821   7.252   0.063   2.181 -0.6320  0.5188  0.0635
  133MOL0     C17822   7.128   0.066   2.185  1.2076  0.2210 -0.5558
  133MOL0     O17823   7.045   0.007   2.095  0.1294  0.3011  0.1498
  133MOL0     C17824   7.091  -0.098   2.026  0.5053  0.4623  0.2350
  133MOL0     C17825   7.142  -0.207   2.092 -0.2477  1.5115 -0.9294
  133MOL0     C17826   7.166  -0.331   2.036  0.2347  0.7372 -0.3877
  133MOL0     C17827   7.139  -0.349   1.895 -0.1657 -0.7917 -0.0990
  133MOL0     O17828   7.145  -0.473   1.827  1.1763 -0.0432  0.4011
  133MOL0     C17829   7.183  -0.593   1.887 -0.3195  0.0677 -0.1479
  133MOL0     C17830   7.170  -0.705   1.791 -0.5727 -0.1981  0.6778
  133MOL0     C17831   7.156  -0.838   1.857  0.0424 -0.0968  1.1925
  133MOL0     C17832   7.150  -0.942   1.747 -0.4473  0.0613 -0.6222
  133MOL0     C17833   7.096  -1.075   1.810  0.3229  0.7463 -0.0760
  133MOL0     C17834   7.174  -1.111   1.939  1.0494  0.6051  0.3990
  133MOL0     C17835   7.149  -1.257   1.969  0.2790  0.5540  0.3713
  133MOL0     C17836   7.244  -1.313   2.082 -0.2650 -0.4817  0.8907
  133MOL0     N17837   7.219  -1.458   2.094 -0.3445 -0.3859  0.2326
  133MOL0     C17838   7.149  -1.504   2.206 -0.7609  1.0334  0.4818
  133MOL0     C17839   7.103  -1.631   2.161 -0.1143 -0.1699  0.9889
  133MOL0     C17840   7.006  -1.730   2.218 -0.5014 -0.3011 -0.9238
  133MOL0     C17841   7.068  -1.860   2.254 -0.6257  1.1528 -0.1417
  133MOL0     C17842   6.969  -1.956   2.329 -0.8929 -1.3543  0.1305
  133MOL0     C17843   6.955  -1.921   2.482 -0.4538  0.5479  0.0446
  133MOL0     O17844   6.889  -1.802   2.523  0.4058 -0.5319  0.1022
  133MOL0     C17845   6.873  -1.776   2.656  0.7806 -0.3292  0.3804
  133MOL0     C17846   6.925  -1.653   2.696  0.5099  0.2836  0.4120
  133MOL0     C17847   6.916  -1.615   2.827  0.2573  0.9614  0.3691
  133MOL0     C17848   6.835  -1.684   2.931 -0.2881  1.1684  0.5220
  133MOL0     C17849   6.820  -1.644   3.080  0.9779  0.6458 -0.0526
  133MOL0     O17850   6.741  -1.718   3.162  0.2218 -0.3892  0.3157
  133MOL0     C17851   6.679  -1.648   3.269  0.1439  0.2296  1.2888
  133MOL0     C17852   6.692  -1.714   3.391  0.0932  0.1669 -0.4273
  133MOL0     C17853   6.618  -1.670   3.499 -0.8872 -0.2022  0.6197
  133MOL0     C17854   6.535  -1.558   3.491  0.2138  0.8260 -0.6638
  133MOL0     O17855   6.468  -1.515   3.606 -0.2911 -0.5018 -0.2646
  133MOL0     C17856   6.332  -1.481   3.590 -0.5652 -0.2788  0.4804
  133MOL0     C17857   6.241  -1.597   3.557 -0.4104  0.4310 -0.0308
  133MOL0     C17858   6.107  -1.575   3.621 -0.4367  0.2413  0.5492
  133MOL0     C17859   6.011  -1.676   3.548 -0.3532 -0.6621  0.0682
  133MOL0     C17860   5.863  -1.666   3.587  0.2219 -0.4916 -0.5265
  133MOL0     C17861   5.782  -1.775   3.524  0.4043 -0.5484 -0.7942
  133MOL0     C17862   5.632  -1.785   3.586 -0.8815 -0.2489 -0.4380
  133MOL0     C17863   5.544  -1.878   3.519 -1.2572  1.0402  0.1490
  133MOL0    Cl17864   5.586  -2.051   3.546 -0.1695  0.1160 -0.1682
  133MOL0     C17865   6.534  -1.485   3.375  0.0554 -0.1552  0.7218
  133MOL0     C17866   6.598  -1.539   3.263  0.3878  0.3974  0.4618
  133MOL0     O17867   6.850  -1.534   3.095  0.5096  0.4843  1.1412
  133MOL0     C17868   6.778  -1.810   2.878 -0.3844 -0.3745  0.2207
  133MOL0     C17869   6.797  -1.852   2.743  0.1843 -0.5606  0.1306
  133MOL0     N17870   7.155  -1.655   2.034 -0.8828  0.8106  0.2523
  133MOL0     N17871   7.226  -1.557   1.994  0.0384  0.4382 -0.2457
  133MOL0     C17872   7.099  -0.237   1.819  0.0509  0.2104  0.5727
  133MOL0     C17873   7.074  -0.108   1.883 -0.0383  0.5058 -0.1006
  133MOL0     C17874   7.069   0.129   2.314 -0.4978  0.3068  0.1592
  133MOL0     C17875   7.156   0.157   2.420 -0.0537 -0.5371 -0.6277
  133MOL0     C17876   7.105   0.207   2.543 -0.1367  0.1177 -0.0423
  133MOL0     C17877   6.961   0.230   2.563 -1.0562  0.6424  0.2302
  133MOL0     O17878   6.902   0.280   2.684 -1.3000  0.1756 -0.5480
  133MOL0     C17879   6.970   0.231   2.803 -0.1515  0.0099  0.3091
  133MOL0     C17880   7.067   0.340   2.871 -0.3000  0.0214  0.8996
  133MOL0     C17881   7.175   0.276   2.967  0.5474  0.0061 -0.5541
  133MOL0     C17882   7.093   0.240   3.093 -0.2777 -0.0384  0.4638
  133MOL0     C17883   7.170   0.254   3.218  0.3943 -0.7563  0.9753
  133MOL0     C17884   7.240   0.272   3.316  0.8807 -0.4595  0.5201
  133MOL0     C17885   6.879   0.203   2.452  0.1498 -0.1502 -0.2710
  133MOL0     C17886   6.936   0.164   2.329  0.4172  0.6922  0.0559
  133MOL0     C17887   6.834   0.155   2.213 -0.5416  0.1165 -0.1723
  133MOL0     H17888   7.170  -0.194   2.197 -0.6375 -1.4374 -0.3982
  133MOL0     H17889   7.215  -0.399   2.105 -0.3183  3.1700  2.6360
  133MOL0     H17890   7.287  -0.587   1.918  0.4519  4.7538 -2.7549
  133MOL0     H17891   7.128  -0.613   1.980 -0.1725  2.0080  0.3790
  133MOL0     H17892   7.252  -0.699   1.719 -0.3761 -1.3308  0.7962
  133MOL0     H17893   7.082  -0.674   1.733  0.2334 -1.2843 -1.2087
  133MOL0     H17894   7.057  -0.837   1.905 -0.8268  1.1343 -0.5275
  133MOL0     H17895   7.236  -0.861   1.928  0.4665  0.2168  0.8150
  133MOL0     H17896   7.086  -0.904   1.667 -0.6398  4.3436  1.3000
  133MOL0     H17897   7.254  -0.949   1.714 -0.1871  1.8619 -0.2794
  133MOL0     H17898   6.990  -1.057   1.832 -0.7147  0.9669 -4.4054
  133MOL0     H17899   7.113  -1.158   1.742  4.8108 -0.4178  2.0651
  133MOL0     H17900   7.280  -1.097   1.916  1.3309 -1.7840  0.0151
  133MOL0     H17901   7.132  -1.055   2.023 -0.8697 -2.3318  1.5516
  133MOL0     H17902   7.170  -1.307   1.874  1.9123  3.2544 -0.8094
  133MOL0     H17903   7.045  -1.273   1.998 -1.2842  3.6965 -2.7270
  133MOL0     H17904   7.350  -1.293   2.065 -0.3881  1.3214  1.9765
  133MOL0     H17905   7.226  -1.253   2.172 -1.0854 -1.1534  1.1914
  133MOL0     H17906   7.136  -1.451   2.300  1.4446 -1.3695  2.3131
  133MOL0     H17907   6.949  -1.700   2.306 -1.4733 -1.9715 -0.9345
  133MOL0     H17908   6.940  -1.746   2.132 -1.2673  3.6246 -1.2378
  133MOL0     H17909   7.115  -1.911   2.169 -1.0748 -0.8463  0.7596
  133MOL0     H17910   7.144  -1.824   2.324 -3.0144 -0.7810  3.7832
  133MOL0     H17911   6.994  -2.058   2.296  0.0717 -1.0989  0.0706
  133MOL0     H17912   6.866  -1.944   2.292  0.0316  3.2492 -1.5402
  133MOL0     H17913   7.056  -1.933   2.522 -0.5111 -0.1115  0.0040
  133MOL0     H17914   6.902  -2.008   2.523 -1.4500  1.2371  0.2523
  133MOL0     H17915   6.983  -1.599   2.623  1.8791 -0.3226  1.0171
  133MOL0     H17916   6.964  -1.521   2.851  0.3671  0.7443  1.0272
  133MOL0     H17917   6.745  -1.808   3.393 -0.0057 -0.0222 -2.8947
  133MOL0     H17918   6.630  -1.733   3.586  1.6019  0.7046  1.0326
  133MOL0     H17919   6.300  -1.431   3.682 -1.5905  0.5741 -0.3072
  133MOL0     H17920   6.337  -1.396   3.521  3.3338  1.3021  2.4075
  133MOL0     H17921   6.242  -1.617   3.450  3.1351  2.4743 -0.5380
  133MOL0     H17922   6.280  -1.690   3.599 -1.4217 -0.0846 -0.1936
  133MOL0     H17923   6.110  -1.596   3.729  1.0066  4.8354  1.6175
  133MOL0     H17924   6.074  -1.472   3.607  0.9568  0.3309 -3.0809
  133MOL0     H17925   6.048  -1.776   3.574  1.4477  0.0244  0.2676
  133MOL0     H17926   6.010  -1.665   3.439  1.4349 -2.2140 -0.1459
  133MOL0     H17927   5.815  -1.571   3.559  1.0348 -0.1669 -0.8690
  133MOL0     H17928   5.863  -1.667   3.696 -0.2910  2.6298 -0.3925
  133MOL0     H17929   5.777  -1.759   3.416  0.3238  0.6004 -0.6250
  133MOL0     H17930   5.833  -1.869   3.550  0.1049  0.4183  4.4503
  133MOL0     H17931   5.588  -1.685   3.585 -1.3585 -0.3969  1.5897
  133MOL0     H17932   5.651  -1.815   3.690 -1.2581  1.4118  0.1364
  133MOL0     H17933   5.442  -1.854   3.551 -1.4136  0.6158 -0.0318
  133MOL0     H17934   5.553  -1.854   3.412  0.7722  1.3439  0.3487
  133MOL0     H17935   6.491  -1.386   3.382  1.8095  0.5589  1.8771
  133MOL0     H17936   6.579  -1.494   3.166 -2.1994 -2.2916 -0.4263
  133MOL0     H17937   6.715  -1.867   2.946 -1.2093  2.6562  2.1694
  133MOL0     H17938   6.756  -1.940   2.695  0.7239 -0.2087 -1.0195
  133MOL0     H17939   7.088  -0.238   1.711 -0.7733 -1.9287  0.6288
  133MOL0     H17940   7.042  -0.029   1.816  1.0775 -0.6508 -2.0927
  133MOL0     H17941   7.262   0.147   2.398 -0.1000  0.3031 -1.2587
  133MOL0     H17942   7.166   0.263   2.614 -0.9402  2.5548 -1.1752
  133MOL0     H17943   7.025   0.139   2.781 -0.4882 -0.4512  1.3550
  133MOL0     H17944   6.903   0.210   2.887 -2.2571  4.3785 -0.0372
  133MOL0     H17945   7.013   0.421   2.922  1.9334 -0.2068  3.8849
  133MOL0     H17946   7.116   0.384   2.784 -0.8544 -4.5353 -2.0415
  133MOL0     H17947   7.248   0.351   3.000  1.2821 -2.0811  3.1411
  133MOL0     H17948   7.224   0.190   2.919  1.0360 -0.5676  0.9238
  133MOL0     H17949   7.006   0.307   3.092 -2.2250 -2.4229 -0.1987
  133MOL0     H17950   7.040   0.144   3.093  0.0559 -0.2261  0.1851
  133MOL0     H17951   7.313   0.305   3.386  3.9459  1.2018 -3.1057
  133MOL0     H17952   6.774   0.222   2.473  0.6819 -0.2403  2.9895
  133MOL0     H17953   6.859   0.208   2.121 -0.1242 -2.8335 -1.9056
  133MOL0     H17954   6.813   0.050   2.191 -2.4064  0.5739 -0.7410
  133MOL0     H17955   6.738   0.195   2.249 -1.4757 -0.2806 -2.0817
  134MOL0     O17956   4.824   0.266   8.218 -0.5255 -0.8464  0.4785
  134MOL0     C17957   4.741   0.335   8.159  0.6719 -0.3473 -0.1552
  134MOL0     O17958   4.712   0.467   8.184  0.2610 -0.3292  0.4524
  134MOL0     C17959   4.786   0.535   8.276 -0.1438  0.2457  0.3936
  134MOL0     C17960   4.903   0.613   8.251  0.3139  0.3663  0.3603
  134MOL0     C17961   4.943   0.706   8.349  0.3882 -0.6441 -0.2915
  134MOL0     C17962   4.895   0.704   8.482 -0.9919  1.1549 -0.3965
  134MOL0     O17963   4.918   0.792   8.582 -0.7370 -0.1335  0.2358
  134MOL0     C17964   5.014   0.897   8.550 -0.1411 -0.4953 -0.0946
  134MOL0     C17965   5.053   0.977   8.675 -0.0845  0.9113  0.0897
  134MOL0     C17966   4.952   1.098   8.705 -0.1350  0.6554  1.1901
  134MOL0     C17967   4.805   1.065   8.684 -0.1593  0.0791 -1.3612
  134MOL0     C17968   4.711   1.178   8.706 -0.4255  0.0513 -0.4020
  134MOL0     C17969   4.701   1.225   8.847 -0.4895  0.0594  0.3400
  134MOL0     C17970   4.645   1.364   8.863 -0.0324  0.6852  0.3785
  134MOL0     C17971   4.644   1.411   9.014 -0.2523 -0.8190  1.4009
  134MOL0     N17972   4.621   1.564   9.023 -0.1986 -0.3667  0.0746
  134MOL0     C17973   4.644   1.664   8.934 -0.2618 -0.0233 -0.1125
  134MOL0     C17974   4.578   1.772   8.978  0.3247 -0.3997  0.2220
  134MOL0     C17975   4.576   1.913   8.922 -0.1239  0.7110  0.3379
  134MOL0     C17976   4.662   2.025   8.996 -0.3797 -0.4919  0.0460
  134MOL0     C17977   4.658   2.048   9.146 -1.0704  1.1183  0.0798
  134MOL0     C17978   4.517   2.083   9.216 -0.1702 -0.3732 -0.0318
  134MOL0     O17979   4.482   2.223   9.214 -0.5091 -0.5617 -0.0544
  134MOL0     C17980   4.480   2.292   9.096  1.0759 -0.0873 -0.9099
  134MOL0     C17981   4.396   2.251   8.987 -0.2655 -0.3053  0.8208
  134MOL0     C17982   4.421   2.298   8.860 -0.0044  0.2277 -1.1696
  134MOL0     C17983   4.525   2.382   8.827  0.6766  0.3376 -0.0609
  134MOL0     C17984   4.553   2.424   8.686  1.0398  0.2099 -0.8923
  134MOL0     O17985   4.448   2.422   8.605  0.1266  0.2665 -0.7050
  134MOL0     C17986   4.463   2.459   8.474 -0.6877 -0.2448  0.8526
  134MOL0     C17987   4.557   2.395   8.395 -0.9701 -0.0030  0.0182
  134MOL0     C17988   4.572   2.426   8.260 -0.6655  0.6333  0.1418
  134MOL0     C17989   4.477   2.517   8.209 -0.2369 -0.0999  0.1948
  134MOL0     O17990   4.501   2.544   8.076  0.2564  0.4855  0.3982
  134MOL0     C17991   4.438   2.649   8.007  0.7005  0.2961  0.5899
  134MOL0     C17992   4.509   2.685   7.873 -0.2750  0.0800 -0.2840
  134MOL0     C17993   4.548   2.561   7.782 -0.1296 -0.6499 -0.8383
  134MOL0     C17994   4.659   2.599   7.684  0.4847 -0.4368 -0.4914
  134MOL0     C17995   4.664   2.493   7.575  0.3764 -0.0745 -0.9994
  134MOL0     C17996   4.785   2.501   7.488 -0.0655 -0.5204  0.7954
  134MOL0     C17997   4.765   2.451   7.341 -1.7563  0.4103 -0.6775
  134MOL0     C17998   4.897   2.488   7.271  0.4605  0.2534 -0.7659
  134MOL0    Cl17999   4.910   2.398   7.114  0.1733  0.1060 -0.1017
  134MOL0     C18000   4.379   2.570   8.291  0.8946  0.4440 -0.2349
  134MOL0     C18001   4.363   2.533   8.418 -0.6971  0.2864 -0.5483
  134MOL0     O18002   4.670   2.439   8.661 -0.4877  0.0415 -0.5787
  134MOL0     C18003   4.608   2.429   8.932 -0.2383  0.5720 -0.7654
  134MOL0     C18004   4.588   2.383   9.068  0.6797  0.1520  0.4246
  134MOL0     N18005   4.526   1.735   9.104 -0.7985  0.4936  0.5195
  134MOL0     N18006   4.556   1.611   9.129  0.0327 -0.5775 -0.1642
  134MOL0     C18007   4.788   0.613   8.509  0.2856 -0.7538  0.3532
  134MOL0     C18008   4.745   0.525   8.411 -0.0012 -0.0775 -0.0742
  134MOL0     C18009   4.642   0.271   8.066  0.3234 -0.1932  0.3118
  134MOL0     C18010   4.504   0.304   8.095  0.6768 -0.7671 -0.2022
  134MOL0     C18011   4.399   0.242   8.023  0.2257 -0.2318 -0.7167
  134MOL0     C18012   4.434   0.150   7.929 -0.6877  0.4078  0.3688
  134MOL0     O18013   4.327   0.103   7.858  0.6162  0.2117  0.7935
  134MOL0     C18014   4.345  -0.022   7.780 -0.3034 -0.0028 -0.6760
  134MOL0     C18015   4.213  -0.092   7.770  1.9705  0.6515 -1.3809
  134MOL0     C18016   4.225  -0.227   7.703  0.0268  0.4006 -0.2185
  134MOL0     C18017   4.100  -0.312   7.727  0.0609  0.2146  1.1063
  134MOL0     C18018   4.119  -0.400   7.850 -0.4089  1.6607  0.6875
  134MOL0     C18019   4.121  -0.478   7.940  0.1139  0.2686 -0.5175
  134MOL0     C18020   4.572   0.116   7.897 -0.0018 -0.8780  0.6561
  134MOL0     C18021   4.678   0.171   7.967 -0.3644 -0.6040  0.5964
  134MOL0     C18022   4.820   0.142   7.925 -0.4474  0.1597 -0.8109
  134MOL0     H18023   4.943   0.613   8.151  0.0651 -1.5412  0.2319
  134MOL0     H18024   5.026   0.775   8.335 -0.5903  0.2123 -2.4001
  134MOL0     H18025   5.108   0.851   8.520 -1.0811 -1.2260 -2.0601
  134MOL0     H18026   4.979   0.954   8.464  1.3669  2.5465  1.1910
  134MOL0     H18027   5.152   1.021   8.666  0.5936 -0.0588  2.1810
  134MOL0     H18028   5.067   0.923   8.769 -1.1551  2.4475  1.1844
  134MOL0     H18029   4.980   1.183   8.643  1.2491 -0.7393 -0.1967
  134MOL0     H18030   4.974   1.142   8.803  2.4729 -1.4334  1.6655
  134MOL0     H18031   4.794   1.029   8.581  0.9246 -2.6330 -0.6334
  134MOL0     H18032   4.769   0.990   8.755  1.9035 -1.1373 -1.5133
  134MOL0     H18033   4.739   1.264   8.644  0.2341  0.5824  0.6023
  134MOL0     H18034   4.611   1.142   8.679 -0.4560 -2.3091  2.3460
  134MOL0     H18035   4.620   1.174   8.900  1.0559  0.5916  3.4189
  134MOL0     H18036   4.798   1.219   8.897 -0.8112  4.5710  1.9930
  134MOL0     H18037   4.543   1.367   8.822  0.9440  1.6024 -2.1423
  134MOL0     H18038   4.700   1.428   8.794  0.9829 -1.9364 -1.4028
  134MOL0     H18039   4.575   1.354   9.077 -1.4929  0.2981  1.0845
  134MOL0     H18040   4.746   1.410   9.052  1.0869 -0.2280 -1.8012
  134MOL0     H18041   4.704   1.640   8.847 -2.3312  0.3049 -1.7132
  134MOL0     H18042   4.609   1.887   8.821 -1.8839 -3.5023  0.6267
  134MOL0     H18043   4.474   1.952   8.930  0.1054  1.0573  2.0010
  134MOL0     H18044   4.767   1.997   8.981  0.6239  1.7596  2.1429
  134MOL0     H18045   4.645   2.121   8.946 -0.6465 -0.8149 -0.4966
  134MOL0     H18046   4.737   2.110   9.188  3.2193  0.9262 -6.3472
  134MOL0     H18047   4.681   1.948   9.184  3.3298  1.1485 -1.8894
  134MOL0     H18048   4.515   2.043   9.318 -0.6472 -2.1499 -0.7135
  134MOL0     H18049   4.426   2.042   9.172 -0.7986  1.2235 -0.3152
  134MOL0     H18050   4.319   2.180   9.014 -0.5829  0.1103  1.0323
  134MOL0     H18051   4.369   2.254   8.775  0.3747 -0.1391 -1.2141
  134MOL0     H18052   4.609   2.311   8.440 -0.8224 -1.3143 -2.3913
  134MOL0     H18053   4.640   2.377   8.191  0.3768  3.9345 -1.3822
  134MOL0     H18054   4.335   2.625   7.982  1.4619 -0.3457 -2.3357
  134MOL0     H18055   4.426   2.742   8.065  0.4237  1.6297 -1.4938
  134MOL0     H18056   4.451   2.762   7.822 -2.1698 -0.1422  1.4112
  134MOL0     H18057   4.600   2.740   7.900 -0.5159 -0.6920  2.4247
  134MOL0     H18058   4.592   2.481   7.842  1.5505  0.8397  0.0009
  134MOL0     H18059   4.456   2.535   7.730  0.1422 -1.2968 -0.9967
  134MOL0     H18060   4.748   2.596   7.747 -1.0856 -0.2898  1.8585
  134MOL0     H18061   4.636   2.697   7.641  0.2626 -0.2798 -0.0307
  134MOL0     H18062   4.574   2.502   7.513 -0.8785  0.1970  0.7778
  134MOL0     H18063   4.669   2.395   7.623  4.1619 -1.7801 -4.2458
  134MOL0     H18064   4.812   2.605   7.471  3.1614 -0.9358  2.5488
  134MOL0     H18065   4.873   2.447   7.525  0.2396 -1.3715 -1.0562
  134MOL0     H18066   4.675   2.497   7.298 -1.3692  1.6885 -0.1696
  134MOL0     H18067   4.748   2.343   7.333 -0.3141  0.2726 -2.7182
  134MOL0     H18068   4.913   2.595   7.260  2.1922 -0.1671 -2.9764
  134MOL0     H18069   4.980   2.468   7.339 -0.5946 -2.6689 -0.1820
  134MOL0     H18070   4.314   2.648   8.252 -0.2099 -1.0993 -1.6020
  134MOL0     H18071   4.281   2.566   8.481  0.1191 -0.8082  1.1776
  134MOL0     H18072   4.687   2.502   8.917 -0.6409  0.7038 -2.4474
  134MOL0     H18073   4.641   2.418   9.156  0.0113  1.4407  0.3406
  134MOL0     H18074   4.736   0.615   8.604 -3.6662 -1.1509 -1.6151
  134MOL0     H18075   4.682   0.443   8.445 -0.7902  0.9385  0.9640
  134MOL0     H18076   4.480   0.377   8.172  0.4641 -1.2018  0.1508
  134MOL0     H18077   4.295   0.272   8.035  0.3122  0.0277 -0.5946
  134MOL0     H18078   4.421  -0.086   7.825  0.5220  0.4006 -1.4703
  134MOL0     H18079   4.379   0.016   7.684  3.0455  2.7265  1.3421
  134MOL0     H18080   4.141  -0.028   7.720  0.9452  1.3133  0.8003
  134MOL0     H18081   4.187  -0.113   7.874 -0.6120 -0.0856 -2.1194
  134MOL0     H18082   4.316  -0.281   7.729 -2.4839 -5.1772 -1.3288
  134MOL0     H18083   4.250  -0.225   7.597  1.8874  2.2921  0.1900
  134MOL0     H18084   4.009  -0.253   7.736 -0.7574 -0.5315 -1.3769
  134MOL0     H18085   4.095  -0.382   7.643 -0.6489  0.9869  0.4959
  134MOL0     H18086   4.118  -0.549   8.020  0.0137 -1.5314 -2.0598
  134MOL0     H18087   4.594   0.045   7.817  1.1033 -0.5539  0.6508
  134MOL0     H18088   4.876   0.233   7.900  0.0683 -0.0181 -0.3298
  134MOL0     H18089   4.867   0.093   8.011 -0.0611  0.2428 -0.9731
  134MOL0     H18090   4.822   0.081   7.835  0.3377 -2.2484  0.7435
  135MOL0     O18091   4.822   3.314   2.601  0.5282  0.1227  0.1359
  135MOL0     C18092   4.800   3.258   2.704  0.8261 -0.3518 -0.1287
  135MOL0     O18093   4.679   3.249   2.773  0.3516 -0.6230  0.3470
  135MOL0     C18094   4.557   3.291   2.724 -1.0486  1.2770  0.8497
  135MOL0     C18095   4.530   3.422   2.699 -0.6343 -0.3605 -0.8178
  135MOL0     C18096   4.412   3.464   2.635 -0.9358  0.7409  0.2818
  135MOL0     C18097   4.306   3.377   2.606 -0.0646  0.4023 -1.0947
  135MOL0     O18098   4.185   3.428   2.561 -0.0466  0.3451 -0.3213
  135MOL0     C18099   4.087   3.325   2.509  0.5665 -0.0467  0.7237
  135MOL0     C18100   3.967   3.401   2.456 -0.0955  0.4080  0.2071
  135MOL0     C18101   3.900   3.493   2.569  0.2956  0.5437  0.1230
  135MOL0     C18102   3.757   3.529   2.525  0.0754  0.0698 -0.4266
  135MOL0     C18103   3.689   3.614   2.624  0.2000  0.0805  0.4354
  135MOL0     C18104   3.543   3.655   2.583  0.0040  0.2697 -1.1102
  135MOL0     C18105   3.478   3.748   2.685 -0.5281  0.0793 -0.1978
  135MOL0     C18106   3.431   3.666   2.799  0.3914 -0.1732 -0.6029
  135MOL0     N18107   3.343   3.742   2.885 -0.0170 -0.0554  0.6046
  135MOL0     C18108   3.381   3.838   2.980 -0.4603 -0.4893  0.4834
  135MOL0     C18109   3.273   3.881   3.041 -0.0310  0.2111 -0.0347
  135MOL0     C18110   3.273   3.980   3.157 -0.0615 -0.0544  0.2134
  135MOL0     C18111   3.401   4.062   3.188 -1.0254 -1.1819  0.0622
  135MOL0     C18112   3.375   4.139   3.321  0.9320  0.4995  1.3517
  135MOL0     C18113   3.488   4.227   3.369 -0.3588  0.6766 -0.8482
  135MOL0     O18114   3.585   4.138   3.429  0.1045 -0.5340  0.9635
  135MOL0     C18115   3.673   4.180   3.526 -0.0777  0.5581  0.5330
  135MOL0     C18116   3.664   4.309   3.582 -0.3679  0.1912 -0.1717
  135MOL0     C18117   3.764   4.337   3.678  0.5364  0.0331  0.2159
  135MOL0     C18118   3.878   4.251   3.701  0.5284 -0.0154 -0.2094
  135MOL0     C18119   3.979   4.290   3.797  0.3212 -0.7985  1.0944
  135MOL0     O18120   3.956   4.414   3.846 -0.1133 -0.5820  0.2580
  135MOL0     C18121   4.060   4.475   3.924  0.4609  0.1068  0.1786
  135MOL0     C18122   4.094   4.439   4.065 -0.1038  0.2736 -0.5216
  135MOL0     C18123   4.179   4.518   4.140 -0.6292  0.1986 -0.0900
  135MOL0     C18124   4.239   4.623   4.078 -1.4888  0.4141 -0.1533
  135MOL0     O18125   4.332   4.693   4.156  0.0911  0.2580 -0.1783
  135MOL0     C18126   4.465   4.639   4.168 -0.1157 -0.7690  1.2988
  135MOL0     C18127   4.523   4.687   4.298  1.0801  0.1849  0.1870
  135MOL0     C18128   4.551   4.841   4.295 -0.5688  0.0759  0.2193
  135MOL0     C18129   4.667   4.877   4.221 -0.5489 -0.8228 -0.6534
  135MOL0     C18130   4.696   5.027   4.227  0.5809  0.0292 -0.2608
  135MOL0     C18131   4.824   5.061   4.152 -0.5129  1.0242 -0.5667
  135MOL0     C18132   4.943   4.996   4.224 -0.1707  0.0523 -0.8189
  135MOL0     C18133   5.072   5.066   4.188  0.2348  0.2016  0.4842
  135MOL0    Cl18134   5.070   5.226   4.254 -0.2895 -0.2202  0.1977
  135MOL0     C18135   4.227   4.651   3.938 -0.6556 -0.0165  0.3193
  135MOL0     C18136   4.132   4.580   3.862  0.5168  0.2560 -0.8797
  135MOL0     O18137   4.072   4.218   3.820  0.0503 -0.1376 -0.3728
  135MOL0     C18138   3.883   4.125   3.628  0.0114 -1.1449  0.4651
  135MOL0     C18139   3.781   4.090   3.546 -0.0988 -0.1233  0.4103
  135MOL0     N18140   3.155   3.826   2.987 -0.0757  0.0689  0.6631
  135MOL0     N18141   3.205   3.747   2.891  0.0321  0.1148 -0.0634
  135MOL0     C18142   4.336   3.239   2.625  0.2054 -0.8989 -0.6363
  135MOL0     C18143   4.460   3.193   2.676 -0.3416  0.0831 -0.1734
  135MOL0     C18144   4.915   3.174   2.753 -0.1336 -0.8063  1.0322
  135MOL0     C18145   4.888   3.077   2.840 -0.0978  0.1376  0.0986
  135MOL0     C18146   4.986   3.003   2.906  0.6063  0.0052 -0.6053
  135MOL0     C18147   5.122   3.029   2.888 -0.1425 -0.3037  1.0360
  135MOL0     O18148   5.214   2.949   2.957  0.0663 -0.1841  0.5452
  135MOL0     C18149   5.312   3.024   3.028 -0.5486 -0.2788  0.6692
  135MOL0     C18150   5.395   2.944   3.135  0.2977  0.2389  0.0671
  135MOL0     C18151   5.488   3.028   3.219 -0.5801  0.2634 -0.1265
  135MOL0     C18152   5.539   2.960   3.358  0.7657 -0.3031 -0.1469
  135MOL0     C18153   5.590   3.058   3.452 -0.2871  0.1972 -0.1470
  135MOL0     C18154   5.639   3.126   3.538  1.3002  0.1114 -0.1647
  135MOL0     C18155   5.154   3.120   2.786  0.1973 -0.3569  0.6954
  135MOL0     C18156   5.056   3.202   2.727  0.4030  0.1127 -0.8768
  135MOL0     C18157   5.103   3.308   2.631 -0.2738 -0.2414  0.0018
  135MOL0     H18158   4.613   3.491   2.707 -1.6834  0.7729  0.8288
  135MOL0     H18159   4.405   3.569   2.609  0.9585  1.0681  0.9916
  135MOL0     H18160   4.139   3.260   2.438  4.1463  1.5286  1.6637
  135MOL0     H18161   4.052   3.261   2.591  1.4640 -0.2727  0.9375
  135MOL0     H18162   3.883   3.342   2.416  1.4047 -1.3904 -0.4502
  135MOL0     H18163   4.008   3.461   2.374  0.9876 -0.7632 -0.1442
  135MOL0     H18164   3.958   3.580   2.597 -2.1729  1.9483  1.1797
  135MOL0     H18165   3.886   3.425   2.653 -1.8595 -1.4241 -1.6582
  135MOL0     H18166   3.772   3.588   2.434 -2.4028 -1.1562 -1.7468
  135MOL0     H18167   3.703   3.440   2.493  0.9565  0.5189 -3.5050
  135MOL0     H18168   3.673   3.555   2.715  2.0489 -2.2554 -0.6411
  135MOL0     H18169   3.751   3.696   2.661  1.3819 -2.1496  3.9060
  135MOL0     H18170   3.541   3.698   2.482 -0.8569  0.0755 -1.1825
  135MOL0     H18171   3.486   3.562   2.568  0.0709  0.1114 -0.3945
  135MOL0     H18172   3.396   3.803   2.639 -2.2227 -2.0413  0.1268
  135MOL0     H18173   3.553   3.822   2.715 -0.2130 -1.1058  2.2071
  135MOL0     H18174   3.380   3.577   2.761  0.7540 -0.7965  0.3268
  135MOL0     H18175   3.519   3.623   2.847 -1.0643 -3.2812 -0.4606
  135MOL0     H18176   3.484   3.870   2.989 -0.7907  0.6552  0.3305
  135MOL0     H18177   3.196   4.053   3.131  0.5701  1.5444  2.5576
  135MOL0     H18178   3.238   3.938   3.251  1.9159  1.3733  1.6665
  135MOL0     H18179   3.486   3.996   3.203  1.0357  1.7243  2.5445
  135MOL0     H18180   3.433   4.135   3.113 -0.5402 -0.9167  0.5185
  135MOL0     H18181   3.334   4.073   3.398  0.1919  0.0351  0.5723
  135MOL0     H18182   3.295   4.211   3.301  0.3811 -0.7163 -1.2293
  135MOL0     H18183   3.449   4.313   3.425 -0.8047 -2.2027  3.8286
  135MOL0     H18184   3.530   4.270   3.277 -0.7831 -0.0767 -1.4036
  135MOL0     H18185   3.582   4.379   3.563 -0.4004  0.1354 -0.2406
  135MOL0     H18186   3.751   4.433   3.726 -0.4451  1.0226 -1.9103
  135MOL0     H18187   4.035   4.369   4.123 -0.7996 -1.2848 -3.0038
  135MOL0     H18188   4.206   4.492   4.242  0.9098 -0.0781 -0.5398
  135MOL0     H18189   4.474   4.530   4.161  1.8136 -0.5710 -0.6800
  135MOL0     H18190   4.522   4.685   4.087 -2.0460  0.4289  0.5679
  135MOL0     H18191   4.449   4.667   4.376 -1.9036  2.1146 -1.9119
  135MOL0     H18192   4.610   4.636   4.340  0.1707  0.5630  2.7189
  135MOL0     H18193   4.466   4.899   4.258  0.7127  1.0378 -1.3456
  135MOL0     H18194   4.569   4.874   4.398  1.8468 -2.2404  0.6438
  135MOL0     H18195   4.677   4.844   4.117  2.7249  2.4013 -1.5480
  135MOL0     H18196   4.748   4.821   4.268 -0.0711 -1.2151 -1.9016
  135MOL0     H18197   4.702   5.060   4.331 -0.6477  2.6146 -0.9390
  135MOL0     H18198   4.613   5.081   4.181 -0.6584 -0.5426  1.2388
  135MOL0     H18199   4.813   5.031   4.047 -1.3065  2.0205 -0.7783
  135MOL0     H18200   4.844   5.168   4.154  1.2327  0.7327  1.2915
  135MOL0     H18201   4.958   4.892   4.195 -0.2131 -0.3676  0.6104
  135MOL0     H18202   4.932   5.001   4.333 -0.4583  0.8278 -0.8723
  135MOL0     H18203   5.157   5.015   4.235  1.0216 -0.4115 -1.4843
  135MOL0     H18204   5.081   5.070   4.079 -0.1330 -0.6948  0.4081
  135MOL0     H18205   4.303   4.722   3.907  0.4742 -0.1581  2.5670
  135MOL0     H18206   4.119   4.605   3.757 -0.4959 -1.3595 -1.1655
  135MOL0     H18207   3.972   4.065   3.639  0.1782 -1.2394 -1.1530
  135MOL0     H18208   3.775   4.003   3.480  2.3592  0.3908 -0.5997
  135MOL0     H18209   4.256   3.166   2.614  0.9829 -1.7311 -0.9016
  135MOL0     H18210   4.477   3.087   2.688 -2.2544 -0.4067 -1.3345
  135MOL0     H18211   4.786   3.044   2.861  0.8452 -3.5504 -0.4596
  135MOL0     H18212   4.952   2.924   2.973 -1.6142  0.5682 -0.9816
  135MOL0     H18213   5.268   3.118   3.063 -0.9817  0.1531 -0.9511
  135MOL0     H18214   5.398   3.053   2.967  0.5823  2.6823  3.3966
  135MOL0     H18215   5.443   2.862   3.082 -0.8569 -1.4801  1.5749
  135MOL0     H18216   5.331   2.899   3.211  3.0039 -1.2707  1.5558
  135MOL0     H18217   5.446   3.125   3.244 -2.0484 -0.2671 -0.4235
  135MOL0     H18218   5.577   3.035   3.156  0.3736  0.4548  1.1974
  135MOL0     H18219   5.456   2.913   3.411  0.8308  2.3337  2.5618
  135MOL0     H18220   5.613   2.884   3.332  0.8032 -0.1006 -0.6426
  135MOL0     H18221   5.688   3.195   3.604 -0.6435  2.6080 -1.2126
  135MOL0     H18222   5.254   3.129   2.745 -0.9217 -0.3482 -2.2389
  135MOL0     H18223   5.048   3.400   2.652 -0.1698 -0.5099  1.5603
  135MOL0     H18224   5.204   3.335   2.664  1.5922  0.0517 -5.1292
  135MOL0     H18225   5.125   3.278   2.528  0.0898 -1.4424  0.4109
  136MOL0     O18226  10.102   9.497   2.939  0.4129 -0.5090 -0.1779
  136MOL0     C18227  10.181   9.562   3.017 -0.1901  0.0686  0.2492
  136MOL0     O18228  10.179   9.690   3.050 -0.4878 -1.4368 -0.2977
  136MOL0     C18229  10.062   9.757   3.012 -0.9348  0.9942 -0.6186
  136MOL0     C18230   9.938   9.709   3.040 -0.4341  0.3547  0.6535
  136MOL0     C18231   9.817   9.778   3.007  0.8263  0.5019  0.4656
  136MOL0     C18232   9.830   9.898   2.932  0.3887 -0.3613  0.9058
  136MOL0     O18233   9.715   9.965   2.894  0.5794 -0.0308  0.1707
  136MOL0     C18234   9.721  10.028   2.770  0.1343 -0.1954 -0.4905
  136MOL0     C18235   9.581  10.016   2.701 -0.4992  0.5692 -0.3460
  136MOL0     C18236   9.478  10.103   2.775 -0.2238 -1.0539  0.6114
  136MOL0     C18237   9.335  10.076   2.729  0.0921 -0.5481  0.7225
  136MOL0     C18238   9.243  10.074   2.852  0.1357  0.5219  0.2946
  136MOL0     C18239   9.095  10.030   2.848  0.0787 -0.6875  0.5973
  136MOL0     C18240   9.063   9.887   2.783 -0.7846 -0.1466 -0.5352
  136MOL0     C18241   8.918   9.866   2.742  0.1322  0.2671 -0.6102
  136MOL0     N18242   8.895   9.740   2.672  0.8916  1.0718  0.9738
  136MOL0     C18243   8.922   9.615   2.725 -0.8507  0.1633 -0.1395
  136MOL0     C18244   8.877   9.521   2.634  0.8264 -0.2283  0.0315
  136MOL0     C18245   8.906   9.374   2.632 -0.1959 -0.0315  0.4736
  136MOL0     C18246   8.862   9.328   2.770 -1.4327  0.2503 -0.2666
  136MOL0     C18247   8.828   9.179   2.765 -0.3389 -0.1024 -0.8981
  136MOL0     C18248   8.956   9.087   2.745 -0.2764 -0.0199 -1.1383
  136MOL0     O18249   8.946   8.945   2.796  0.2907 -0.3087  0.0457
  136MOL0     C18250   8.830   8.876   2.785 -0.2721  0.4868 -0.0492
  136MOL0     C18251   8.753   8.891   2.669  0.8002  0.7203 -0.2990
  136MOL0     C18252   8.637   8.818   2.654  0.8461  0.0310 -0.1607
  136MOL0     C18253   8.612   8.711   2.746  0.5264 -0.8558 -1.0549
  136MOL0     C18254   8.509   8.625   2.713  0.5811  0.2297  0.2535
  136MOL0     O18255   8.402   8.680   2.640 -0.1145  0.0457  0.0944
  136MOL0     C18256   8.304   8.599   2.599  1.1075  0.8710 -0.8584
  136MOL0     C18257   8.313   8.531   2.478  0.3190  0.0898 -0.4198
  136MOL0     C18258   8.222   8.440   2.434  0.1964 -0.3163 -0.3637
  136MOL0     C18259   8.101   8.427   2.507 -0.1501  0.3931 -0.4414
  136MOL0     O18260   8.004   8.339   2.468  0.4289  0.1250 -0.4989
  136MOL0     C18261   7.920   8.279   2.565 -0.5807 -0.5135  0.5457
  136MOL0     C18262   7.821   8.178   2.515  0.0488  0.3551  1.5787
  136MOL0     C18263   7.699   8.157   2.605  0.0769 -0.7508  0.2738
  136MOL0     C18264   7.727   8.055   2.721  0.4308 -0.6566  0.4551
  136MOL0     C18265   7.608   8.057   2.831 -0.0866 -0.1982 -0.2721
  136MOL0     C18266   7.628   8.179   2.921 -0.3357  0.1627 -0.2999
  136MOL0     C18267   7.757   8.168   3.014  0.2043 -0.8124  0.8938
  136MOL0     C18268   7.746   8.093   3.139 -0.2497  0.4237  0.5761
  136MOL0    Cl18269   7.733   7.926   3.120  0.4229 -0.1790  0.1472
  136MOL0     C18270   8.092   8.487   2.634 -0.0294  0.2648 -0.9112
  136MOL0     C18271   8.195   8.574   2.683 -1.0804  0.2679  0.1747
  136MOL0     O18272   8.508   8.509   2.750  0.1841  0.5121 -0.2985
  136MOL0     C18273   8.704   8.688   2.859  0.6125 -0.2076 -0.3486
  136MOL0     C18274   8.806   8.771   2.879 -1.0692 -0.5980 -0.1913
  136MOL0     N18275   8.809   9.596   2.540  0.5682 -0.3816  0.6593
  136MOL0     N18276   8.823   9.720   2.566 -0.0035  0.0450  0.9791
  136MOL0     C18277   9.960   9.950   2.909 -0.4441 -0.6373 -0.5352
  136MOL0     C18278  10.075   9.872   2.938 -0.3713  0.3560  0.0775
  136MOL0     C18279  10.290   9.485   3.083  0.0427 -0.4688 -0.4099
  136MOL0     C18280  10.401   9.566   3.096 -0.3680 -0.0352  0.0715
  136MOL0     C18281  10.525   9.503   3.120 -0.4136  1.4194  0.1527
  136MOL0     C18282  10.532   9.370   3.157 -0.3539 -0.2037  0.8543
  136MOL0     O18283  10.661   9.323   3.182  0.4723  0.7450 -0.4826
  136MOL0     C18284  10.672   9.189   3.232 -0.2435 -0.5367 -0.3324
  136MOL0     C18285  10.806   9.122   3.267 -0.1213  0.6311 -0.5787
  136MOL0     C18286  10.897   9.223   3.359 -0.1680 -0.3764  0.3202
  136MOL0     C18287  11.041   9.167   3.389  0.5521 -0.3113  0.3539
  136MOL0     C18288  11.035   9.034   3.448  0.4869  0.8839  0.4941
  136MOL0     C18289  11.051   8.920   3.486 -0.0606  0.5667 -0.0995
  136MOL0     C18290  10.412   9.295   3.154  0.0292 -0.2992 -0.6359
  136MOL0     C18291  10.295   9.349   3.113  0.2318  0.2513 -0.3864
  136MOL0     C18292  10.184   9.257   3.103 -0.2181  0.1876 -0.8099
  136MOL0     H18293   9.920   9.620   3.098 -3.1305  0.8856  0.7870
  136MOL0     H18294   9.717   9.739   3.014 -0.1804  3.0501  1.4368
  136MOL0     H18295   9.726  10.135   2.793 -3.3427 -0.3593  1.8988
  136MOL0     H18296   9.800  10.014   2.696 -1.9907 -0.0538 -2.9246
  136MOL0     H18297   9.562   9.908   2.704 -2.4803  0.8852  2.5974
  136MOL0     H18298   9.597  10.050   2.599 -0.3945  3.2725  0.4798
  136MOL0     H18299   9.496  10.209   2.757  0.7986 -0.8553  2.4879
  136MOL0     H18300   9.492  10.102   2.884  1.0272  2.8618  0.6492
  136MOL0     H18301   9.301  10.143   2.649 -1.5782 -0.8403  1.1621
  136MOL0     H18302   9.330   9.975   2.687 -0.5460 -0.8507  1.5023
  136MOL0     H18303   9.293  10.007   2.923 -0.3770  0.0172  0.1907
  136MOL0     H18304   9.247  10.179   2.880 -0.9089  0.4795  0.6442
  136MOL0     H18305   9.034  10.040   2.938 -3.0298 -1.0926 -1.3039
  136MOL0     H18306   9.044  10.100   2.781  4.0371  2.7819  0.7881
  136MOL0     H18307   9.080   9.811   2.860  0.2228  1.7870  1.2456
  136MOL0     H18308   9.135   9.866   2.704 -2.1645 -4.0213 -0.9577
  136MOL0     H18309   8.866   9.873   2.838  2.6388  0.4135  0.8180
  136MOL0     H18310   8.888   9.960   2.694 -1.6505  0.7443  1.3036
  136MOL0     H18311   8.990   9.609   2.809 -0.0814  5.8182  0.0708
  136MOL0     H18312   8.854   9.326   2.548 -1.1727  2.7931 -0.6291
  136MOL0     H18313   9.015   9.376   2.622 -0.3475  3.5538 -2.7314
  136MOL0     H18314   8.953   9.342   2.829 -0.0308  0.4915 -2.4127
  136MOL0     H18315   8.777   9.388   2.806 -1.2735  2.6923 -3.4519
  136MOL0     H18316   8.748   9.156   2.694 -2.2598 -0.0254  1.1324
  136MOL0     H18317   8.776   9.159   2.860 -4.1632  1.9782 -2.3095
  136MOL0     H18318   9.042   9.132   2.794 -1.0531  0.0897  0.1815
  136MOL0     H18319   8.966   9.079   2.636 -0.2827  2.3895 -1.3645
  136MOL0     H18320   8.778   8.957   2.586  1.6488 -2.3429 -2.6579
  136MOL0     H18321   8.557   8.840   2.584 -1.7540  4.1808  3.6192
  136MOL0     H18322   8.406   8.552   2.426 -0.6417  0.5453 -2.0211
  136MOL0     H18323   8.235   8.399   2.335  0.9640  1.4328 -1.0296
  136MOL0     H18324   7.976   8.224   2.641 -3.1061 -4.1223  0.0537
  136MOL0     H18325   7.872   8.366   2.612 -0.3179 -0.0011 -0.1110
  136MOL0     H18326   7.783   8.217   2.420 -0.7924 -0.6812  1.4779
  136MOL0     H18327   7.869   8.081   2.501  0.0535  0.1273  3.0243
  136MOL0     H18328   7.665   8.248   2.655  0.2654  1.2350 -2.8603
  136MOL0     H18329   7.623   8.109   2.543  2.2886 -3.5812 -0.4845
  136MOL0     H18330   7.829   8.072   2.754  2.0357 -1.2911 -3.6200
  136MOL0     H18331   7.727   7.959   2.668  1.1089  0.2612 -1.2878
  136MOL0     H18332   7.603   7.964   2.889  0.1181 -0.5175 -0.7631
  136MOL0     H18333   7.514   8.068   2.776 -0.5328  0.3957  0.5831
  136MOL0     H18334   7.647   8.267   2.859  2.4767 -2.3962 -3.4729
  136MOL0     H18335   7.542   8.203   2.984  0.1976 -0.6242  0.7616
  136MOL0     H18336   7.780   8.274   3.029  0.3304 -0.6320 -0.4214
  136MOL0     H18337   7.839   8.133   2.950 -2.5209 -1.6287 -2.4727
  136MOL0     H18338   7.833   8.108   3.203 -0.0217 -1.5855  0.8135
  136MOL0     H18339   7.656   8.121   3.193 -0.4242 -0.6124  0.8447
  136MOL0     H18340   8.015   8.481   2.710  2.9369 -4.3277  2.2870
  136MOL0     H18341   8.194   8.626   2.778 -0.6088 -2.1806  1.5856
  136MOL0     H18342   8.688   8.609   2.931  0.3082 -0.4218 -0.6512
  136MOL0     H18343   8.861   8.766   2.972  0.0189 -1.4935 -0.8496
  136MOL0     H18344   9.973  10.050   2.870 -0.0196 -0.4573  0.0638
  136MOL0     H18345  10.171   9.897   2.895 -0.5888 -2.7507 -2.6076
  136MOL0     H18346  10.413   9.671   3.071  1.8063 -0.4960 -1.0378
  136MOL0     H18347  10.613   9.562   3.142 -0.0952 -0.2760  4.4319
  136MOL0     H18348  10.606   9.118   3.183 -1.1968  1.1622 -1.6313
  136MOL0     H18349  10.628   9.214   3.329 -1.4946  0.0294 -1.0330
  136MOL0     H18350  10.861   9.111   3.173  0.8768  3.0671 -0.3800
  136MOL0     H18351  10.787   9.025   3.314  1.6972 -0.5357 -2.1157
  136MOL0     H18352  10.850   9.247   3.455  1.1361 -0.9611  1.1377
  136MOL0     H18353  10.909   9.322   3.313  1.1820  1.0364  3.4434
  136MOL0     H18354  11.103   9.171   3.299 -0.8325  0.5488 -0.6122
  136MOL0     H18355  11.095   9.225   3.465  1.1580 -2.0733  1.3337
  136MOL0     H18356  11.067   8.820   3.519  0.5385 -0.3194 -2.8346
  136MOL0     H18357  10.412   9.191   3.186 -2.1686  0.1961  1.3098
  136MOL0     H18358  10.198   9.218   3.002  3.9123 -0.2724 -0.2487
  136MOL0     H18359  10.182   9.177   3.178 -1.2643 -0.0278 -1.0481
  136MOL0     H18360  10.085   9.301   3.114 -0.2981 -0.5575  2.6433
  137MOL0     O18361  10.010   1.508   0.113  0.2169  0.3754  1.4371
  137MOL0     C18362  10.049   1.572   0.020 -0.4669  0.0111 -0.1621
  137MOL0     O18363   9.991   1.675  -0.030 -0.0579  0.3020  0.2327
  137MOL0     C18364   9.862   1.716   0.002  1.3771 -0.2775  0.8243
  137MOL0     C18365   9.833   1.841  -0.058  0.4706  0.1794 -0.0245
  137MOL0     C18366   9.714   1.902  -0.038 -0.1692 -0.8697 -0.5888
  137MOL0     C18367   9.613   1.842   0.047 -0.1769 -0.8445  0.1795
  137MOL0     O18368   9.496   1.904   0.064 -0.0278 -0.6920 -0.1359
  137MOL0     C18369   9.371   1.831   0.067  0.0513 -0.3783  0.2752
  137MOL0     C18370   9.253   1.920   0.095  0.9611  0.0734 -0.1566
  137MOL0     C18371   9.188   1.999  -0.023 -0.8380 -0.1495 -0.0807
  137MOL0     C18372   9.274   2.105  -0.081  0.4263 -0.3347 -0.5711
  137MOL0     C18373   9.207   2.162  -0.215  0.1075 -0.0924  0.4988
  137MOL0     C18374   9.050   2.167  -0.227  0.1900 -0.7436  0.3994
  137MOL0     C18375   9.017   2.244  -0.358 -0.4864 -1.0621  0.2596
  137MOL0     C18376   9.026   2.401  -0.331 -0.1676  0.2724  0.3938
  137MOL0     N18377   8.973   2.480  -0.438 -1.2599  0.5607 -0.3100
  137MOL0     C18378   8.939   2.438  -0.565  0.6610 -0.5264 -0.0148
  137MOL0     C18379   8.860   2.539  -0.613  0.1128  0.2554 -0.8028
  137MOL0     C18380   8.791   2.552  -0.750  0.3547  0.5152  0.0093
  137MOL0     C18381   8.894   2.579  -0.857  0.4219 -0.0754 -0.2945
  137MOL0     C18382   8.838   2.645  -0.979 -0.4840 -0.4145  0.2647
  137MOL0     C18383   8.918   2.617  -1.098 -0.6781 -0.2733 -0.0428
  137MOL0     O18384   8.900   2.482  -1.140 -0.1709 -0.2422 -0.0078
  137MOL0     C18385   8.839   2.462  -1.264 -0.0253  0.3368  0.5143
  137MOL0     C18386   8.719   2.398  -1.269 -0.1539  0.6691 -0.4101
  137MOL0     C18387   8.659   2.359  -1.394 -1.0879  0.8740 -0.9560
  137MOL0     C18388   8.720   2.405  -1.510 -0.6176  0.4816  1.3461
  137MOL0     C18389   8.658   2.379  -1.636  0.1900 -0.2242 -0.0368
  137MOL0     O18390   8.527   2.349  -1.621 -0.0665 -0.1443  0.6068
  137MOL0     C18391   8.456   2.325  -1.731  0.7273  0.0955  0.3419
  137MOL0     C18392   8.467   2.207  -1.806  0.2209 -0.0179 -0.8859
  137MOL0     C18393   8.389   2.193  -1.924 -0.2680  0.5484  0.5453
  137MOL0     C18394   8.290   2.289  -1.963  0.1572  0.1481 -0.3398
  137MOL0     O18395   8.220   2.263  -2.077 -0.0772 -0.2905 -0.5124
  137MOL0     C18396   8.130   2.371  -2.116 -0.5998 -0.9947  0.5502
  137MOL0     C18397   8.070   2.333  -2.248  0.2815  0.4269 -0.4724
  137MOL0     C18398   7.944   2.416  -2.298  0.2614 -0.2246 -0.7621
  137MOL0     C18399   7.992   2.543  -2.358 -0.0879 -0.3461  0.3662
  137MOL0     C18400   7.874   2.592  -2.433  0.1419 -0.1369  0.6645
  137MOL0     C18401   7.928   2.711  -2.524  0.1442  0.5510  0.8495
  137MOL0     C18402   7.842   2.757  -2.649 -0.2290 -0.7150 -0.5172
  137MOL0     C18403   7.814   2.651  -2.750  0.3129 -0.2002  0.5060
  137MOL0    Cl18404   7.712   2.735  -2.873  1.3176  0.0015  0.8455
  137MOL0     C18405   8.270   2.401  -1.880 -0.4900 -0.5777  1.1775
  137MOL0     C18406   8.362   2.418  -1.773  0.4331  0.3528 -0.2577
  137MOL0     O18407   8.722   2.405  -1.746 -0.0339  0.3187  0.2309
  137MOL0     C18408   8.848   2.469  -1.496 -0.8592 -0.5593  0.0034
  137MOL0     C18409   8.915   2.480  -1.375  0.0751  0.0328 -0.1537
  137MOL0     N18410   8.858   2.640  -0.521 -0.2085 -0.2521  0.9569
  137MOL0     N18411   8.910   2.602  -0.413  0.0134  0.1091 -0.1789
  137MOL0     C18412   9.643   1.723   0.105  1.0256  0.1420  0.0100
  137MOL0     C18413   9.760   1.655   0.080  1.2124 -0.4014 -0.4373
  137MOL0     C18414  10.154   1.507  -0.055 -0.3395  0.8532  0.2424
  137MOL0     C18415  10.165   1.363  -0.074 -0.9344  0.2231 -0.3299
  137MOL0     C18416  10.278   1.305  -0.148 -0.1990  0.3456 -0.3579
  137MOL0     C18417  10.378   1.381  -0.213  0.4151 -0.1810 -0.4662
  137MOL0     O18418  10.489   1.330  -0.276  1.1094  0.0829  0.1689
  137MOL0     C18419  10.511   1.200  -0.330 -0.9328 -0.4098  0.4345
  137MOL0     C18420  10.447   1.189  -0.474  0.5695  0.5371 -0.1373
  137MOL0     C18421  10.421   1.039  -0.508  0.2012 -0.5716  0.6095
  137MOL0     C18422  10.547   0.967  -0.577  0.6072  0.8782  0.2868
  137MOL0     C18423  10.604   1.047  -0.682  0.6837  0.9830 -0.3410
  137MOL0     C18424  10.649   1.112  -0.766  1.7010 -0.8125  0.2734
  137MOL0     C18425  10.368   1.514  -0.183 -0.0613 -0.2244  0.1978
  137MOL0     C18426  10.267   1.580  -0.120  0.8491 -0.2044 -0.0438
  137MOL0     C18427  10.258   1.725  -0.139  0.2216 -0.1862  0.4327
  137MOL0     H18428   9.896   1.893  -0.130 -0.8110  1.7386 -0.0912
  137MOL0     H18429   9.692   1.996  -0.088  0.2545 -0.1473  0.5669
  137MOL0     H18430   9.360   1.779  -0.029  1.9132 -1.8376  0.8000
  137MOL0     H18431   9.377   1.759   0.149  1.1267 -0.4543  0.1357
  137MOL0     H18432   9.272   1.988   0.179  0.5785 -0.2095  0.1626
  137MOL0     H18433   9.175   1.850   0.124  0.9168  0.4473  0.6423
  137MOL0     H18434   9.092   2.039   0.009 -0.2471  0.9853  0.3018
  137MOL0     H18435   9.172   1.911  -0.087  1.4201 -1.2933  0.8006
  137MOL0     H18436   9.275   2.186  -0.007 -4.1605 -1.5099  1.1085
  137MOL0     H18437   9.374   2.075  -0.115  0.3395  0.7874 -1.9167
  137MOL0     H18438   9.247   2.262  -0.230 -0.0362  0.0199  0.8511
  137MOL0     H18439   9.251   2.105  -0.298 -0.8591  0.7447 -0.6075
  137MOL0     H18440   9.004   2.068  -0.224 -3.1034  0.4127 -2.9791
  137MOL0     H18441   9.015   2.216  -0.136 -1.1849 -0.2433 -0.3686
  137MOL0     H18442   8.921   2.213  -0.401 -0.6356  1.0710 -1.0843
  137MOL0     H18443   9.089   2.217  -0.436 -0.2023  2.1402 -0.7367
  137MOL0     H18444   8.960   2.427  -0.247 -0.0709  0.8183  0.3031
  137MOL0     H18445   9.128   2.435  -0.315 -0.8824  0.8730  5.1733
  137MOL0     H18446   8.977   2.343  -0.600  0.1228 -2.3933  3.8914
  137MOL0     H18447   8.741   2.463  -0.791  2.0089 -1.1045  1.3328
  137MOL0     H18448   8.715   2.630  -0.753  1.9373  2.0861 -0.9429
  137MOL0     H18449   8.971   2.647  -0.818  2.2367 -1.2111 -1.7065
  137MOL0     H18450   8.933   2.482  -0.891 -2.0677 -0.2286 -3.1220
  137MOL0     H18451   8.837   2.752  -0.957 -1.4276 -0.5963  1.1905
  137MOL0     H18452   8.739   2.610  -1.008 -2.3083  3.0196  1.7762
  137MOL0     H18453   9.021   2.644  -1.073 -1.2254  2.1479 -0.1804
  137MOL0     H18454   8.883   2.689  -1.172  2.0272  0.1502 -0.9866
  137MOL0     H18455   8.674   2.353  -1.181  2.4707 -2.3693 -0.4561
  137MOL0     H18456   8.563   2.308  -1.388 -0.2831 -0.5163  1.3328
  137MOL0     H18457   8.526   2.120  -1.780 -0.3845 -0.0273  0.5672
  137MOL0     H18458   8.401   2.103  -1.984  2.4614  1.1570  0.0576
  137MOL0     H18459   8.059   2.388  -2.034 -0.1594 -1.4925  1.0407
  137MOL0     H18460   8.193   2.460  -2.131 -1.0684 -0.8028 -0.3158
  137MOL0     H18461   8.141   2.311  -2.328  0.4736 -1.4209  0.1696
  137MOL0     H18462   8.036   2.236  -2.212  4.3933 -0.9168  0.3270
  137MOL0     H18463   7.908   2.345  -2.373 -1.1291  0.5431 -0.8417
  137MOL0     H18464   7.862   2.417  -2.226 -0.2636  0.5333 -1.3529
  137MOL0     H18465   8.091   2.536  -2.403 -0.0935 -3.0485  0.6289
  137MOL0     H18466   8.005   2.613  -2.275  0.8506 -1.3800  1.1277
  137MOL0     H18467   7.786   2.625  -2.377  0.7062  1.8344  0.4774
  137MOL0     H18468   7.839   2.519  -2.506  1.4804  2.3544 -2.7067
  137MOL0     H18469   7.956   2.803  -2.471 -1.3373  1.5567 -0.0279
  137MOL0     H18470   8.022   2.667  -2.559  1.2905  1.4787  2.6276
  137MOL0     H18471   7.894   2.840  -2.698  2.4165 -1.2063  1.2505
  137MOL0     H18472   7.749   2.795  -2.608 -0.5742 -0.3871 -1.5700
  137MOL0     H18473   7.907   2.617  -2.797 -0.1087 -1.2404  0.3994
  137MOL0     H18474   7.761   2.565  -2.708  1.7647 -1.7430 -0.6702
  137MOL0     H18475   8.196   2.479  -1.896  2.7512  2.8487  1.2848
  137MOL0     H18476   8.362   2.513  -1.721 -0.8922  0.3229 -0.1566
  137MOL0     H18477   8.915   2.499  -1.576 -1.0806 -2.3268 -0.8813
  137MOL0     H18478   9.019   2.511  -1.382  0.9109 -2.4634  0.1304
  137MOL0     H18479   9.578   1.682   0.182  0.7706 -1.2658 -0.9221
  137MOL0     H18480   9.767   1.558   0.127 -0.7881 -0.0275  0.7573
  137MOL0     H18481  10.093   1.303  -0.019 -2.2017  1.1333 -0.9330
  137MOL0     H18482  10.281   1.197  -0.150 -1.7550  0.2631  0.0459
  137MOL0     H18483  10.443   1.137  -0.271 -2.9713 -0.2922 -1.6176
  137MOL0     H18484  10.615   1.165  -0.328 -1.1746 -1.2411 -0.5071
  137MOL0     H18485  10.510   1.249  -0.541  1.6604  0.0517  0.4310
  137MOL0     H18486  10.356   1.248  -0.466  1.4300  1.6430  2.1445
  137MOL0     H18487  10.329   1.053  -0.566 -0.7296  0.3523  2.2409
  137MOL0     H18488  10.389   0.977  -0.425  2.0913 -1.1638  0.9386
  137MOL0     H18489  10.630   0.963  -0.506  1.5522 -1.6297 -0.8208
  137MOL0     H18490  10.528   0.866  -0.616 -0.1628  0.9781  0.3891
  137MOL0     H18491  10.688   1.168  -0.848 -0.7790 -0.9483 -1.0993
  137MOL0     H18492  10.438   1.574  -0.240 -0.3958 -0.3740 -0.3791
  137MOL0     H18493  10.210   1.771  -0.052  0.1635 -2.2524  1.5590
  137MOL0     H18494  10.358   1.766  -0.150  1.2002 -1.9752  2.0483
  137MOL0     H18495  10.203   1.746  -0.231  1.1502 -1.7416 -0.5129
  138MOL0     O18496   0.579   4.845   4.808 -0.3302  0.4104  0.2034
  138MOL0     C18497   0.621   4.848   4.919 -0.2028 -0.0390  0.4836
  138MOL0     O18498   0.757   4.846   4.948  0.2713  0.0898 -0.2991
  138MOL0     C18499   0.851   4.826   4.849 -0.8775 -0.2808  0.1379
  138MOL0     C18500   0.940   4.932   4.818  0.1590 -0.2696 -0.0623
  138MOL0     C18501   1.039   4.919   4.722 -0.4806 -0.3691  0.4112
  138MOL0     C18502   1.043   4.807   4.637 -0.5683  0.1691 -0.3860
  138MOL0     O18503   1.118   4.824   4.526 -0.8159  0.3657  0.2970
  138MOL0     C18504   1.104   4.728   4.412  0.4508  0.1254  0.5986
  138MOL0     C18505   1.186   4.606   4.455 -0.8481  0.5371 -0.2776
  138MOL0     C18506   1.175   4.500   4.346  0.6413  0.0234 -0.0519
  138MOL0     C18507   1.067   4.394   4.363  0.8102 -0.3719 -1.3695
  138MOL0     C18508   1.023   4.317   4.239 -0.5025  0.4722  0.0032
  138MOL0     C18509   0.985   4.406   4.116 -0.3800 -0.0397  0.9122
  138MOL0     C18510   0.866   4.505   4.144 -0.4083 -0.3752 -0.1179
  138MOL0     C18511   0.838   4.596   4.014  0.7877 -0.4385 -0.2209
  138MOL0     N18512   0.744   4.529   3.917  0.4561 -0.6071  0.2311
  138MOL0     C18513   0.763   4.467   3.798  1.2393 -0.4789  0.2220
  138MOL0     C18514   0.636   4.433   3.757 -0.8724  0.7616 -0.6157
  138MOL0     C18515   0.603   4.339   3.648 -0.1848  0.1494  0.1736
  138MOL0     C18516   0.679   4.207   3.622  0.0948  0.0570  0.0174
  138MOL0     C18517   0.782   4.233   3.517  0.3946 -0.1281 -0.7593
  138MOL0     C18518   0.854   4.104   3.484  0.5779 -1.3271  0.0471
  138MOL0     O18519   0.914   4.053   3.605 -0.0537 -0.3163  0.2119
  138MOL0     C18520   0.974   3.924   3.589 -0.5951 -0.0299  0.8815
  138MOL0     C18521   1.111   3.909   3.611 -0.3092  0.2155  0.9578
  138MOL0     C18522   1.174   3.782   3.600 -1.3819  0.3045 -0.1430
  138MOL0     C18523   1.112   3.667   3.562 -0.0205  0.7161  0.5114
  138MOL0     C18524   1.192   3.544   3.547  0.8232 -0.1226  0.2336
  138MOL0     O18525   1.326   3.557   3.566 -0.1679  0.5405  0.7630
  138MOL0     C18526   1.399   3.446   3.544  0.9886 -0.4613  0.8494
  138MOL0     C18527   1.411   3.353   3.638  0.0172  0.3244  0.3413
  138MOL0     C18528   1.477   3.226   3.610 -0.7101 -0.5401  0.2915
  138MOL0     C18529   1.561   3.221   3.493  0.1217  1.0314 -0.0468
  138MOL0     O18530   1.634   3.105   3.470 -0.5469  0.8109 -0.1722
  138MOL0     C18531   1.775   3.121   3.470  0.5405  0.7530  0.6530
  138MOL0     C18532   1.847   2.979   3.478 -0.4656 -0.3786  0.2515
  138MOL0     C18533   1.997   3.003   3.477 -1.1487  0.5117 -0.6470
  138MOL0     C18534   2.073   2.911   3.378 -0.1454 -0.7453  0.2584
  138MOL0     C18535   2.177   2.990   3.293 -0.0034  0.1594  0.8572
  138MOL0     C18536   2.097   3.087   3.201 -0.1160  0.6217  0.9406
  138MOL0     C18537   2.188   3.175   3.115 -0.1962  0.0130 -0.0166
  138MOL0     C18538   2.110   3.257   3.004  0.4847 -0.3104 -0.2823
  138MOL0    Cl18539   1.969   3.340   3.076 -0.0219 -0.1801  0.0915
  138MOL0     C18540   1.557   3.324   3.402  1.1399  0.5746  0.0899
  138MOL0     C18541   1.460   3.426   3.425  0.2964 -0.2710 -0.4508
  138MOL0     O18542   1.132   3.441   3.538  0.1463 -0.1811  0.1654
  138MOL0     C18543   0.972   3.678   3.547  0.9457 -0.4194  0.2604
  138MOL0     C18544   0.900   3.805   3.565 -0.4603 -0.4082 -0.2979
  138MOL0     N18545   0.548   4.478   3.845  0.4195  1.3380  0.3198
  138MOL0     N18546   0.610   4.521   3.944 -0.7058  0.3496  0.0628
  138MOL0     C18547   0.947   4.710   4.665 -1.1320  0.2132 -0.8276
  138MOL0     C18548   0.855   4.712   4.772 -0.5479 -0.3263 -0.1867
  138MOL0     C18549   0.541   4.883   5.031  0.0536  0.0327  1.3304
  138MOL0     C18550   0.596   4.976   5.114 -0.0137 -0.0784 -0.2569
  138MOL0     C18551   0.510   5.044   5.209 -0.6855  1.6643  1.0224
  138MOL0     C18552   0.375   5.002   5.227 -0.4762  0.7028  0.8209
  138MOL0     O18553   0.287   5.065   5.302 -0.5860  0.2606 -0.1521
  138MOL0     C18554   0.320   5.172   5.389 -0.7633  0.1354  0.5392
  138MOL0     C18555   0.193   5.247   5.438  0.4608 -0.2605  0.0366
  138MOL0     C18556   0.225   5.370   5.520 -0.5405  0.1533 -0.2505
  138MOL0     C18557   0.293   5.351   5.661  0.0564  0.1402  0.6739
  138MOL0     C18558   0.241   5.446   5.758 -1.2538 -0.3823 -0.5519
  138MOL0     C18559   0.184   5.507   5.844  0.2276 -0.1639 -0.3920
  138MOL0     C18560   0.335   4.894   5.149 -0.7248  0.2619 -0.2631
  138MOL0     C18561   0.407   4.831   5.050 -0.1866  0.2665  0.1510
  138MOL0     C18562   0.334   4.734   4.962  0.5909  0.3604  0.3899
  138MOL0     H18563   0.931   5.028   4.868 -1.3548  1.2070 -2.9003
  138MOL0     H18564   1.115   4.994   4.703 -2.9560  2.6245  1.5431
  138MOL0     H18565   1.000   4.696   4.398  0.5577  0.9968 -3.8056
  138MOL0     H18566   1.150   4.765   4.320  3.4792 -0.3656  1.7996
  138MOL0     H18567   1.148   4.584   4.555 -1.1612  3.6606  0.3870
  138MOL0     H18568   1.294   4.621   4.468 -0.9835  0.8628  0.5805
  138MOL0     H18569   1.267   4.440   4.349  1.6016  1.1988 -2.8206
  138MOL0     H18570   1.170   4.552   4.250  0.5670  0.1180  0.0038
  138MOL0     H18571   1.100   4.314   4.430  0.2386 -0.1943 -0.8679
  138MOL0     H18572   0.974   4.423   4.411  0.3655 -1.9644 -1.1857
  138MOL0     H18573   1.108   4.261   4.198 -2.8321 -2.0411 -1.7384
  138MOL0     H18574   0.944   4.243   4.257 -0.2997 -0.3485 -2.1739
  138MOL0     H18575   1.075   4.460   4.086 -1.4973  0.9658 -0.7965
  138MOL0     H18576   0.950   4.344   4.033  5.4417 -0.8768 -1.3581
  138MOL0     H18577   0.876   4.568   4.232 -2.5241  1.0739 -0.8208
  138MOL0     H18578   0.775   4.446   4.161 -1.4404  0.8870 -0.9578
  138MOL0     H18579   0.813   4.693   4.059  1.3641 -2.0837  4.1741
  138MOL0     H18580   0.936   4.603   3.966  0.4334  0.0560 -0.8871
  138MOL0     H18581   0.862   4.461   3.753  1.9724 -0.1908  1.7351
  138MOL0     H18582   0.499   4.317   3.673 -0.4542  1.7315  0.5943
  138MOL0     H18583   0.604   4.403   3.559  5.4495  3.2868  1.9862
  138MOL0     H18584   0.728   4.175   3.715  0.7763  0.4700 -0.1894
  138MOL0     H18585   0.616   4.119   3.607  3.3376 -2.4680  0.0595
  138MOL0     H18586   0.849   4.310   3.553 -0.1684  0.2433 -0.4897
  138MOL0     H18587   0.723   4.266   3.431 -0.7499 -1.0476 -0.3690
  138MOL0     H18588   0.935   4.127   3.414  0.8719  0.7257  1.0113
  138MOL0     H18589   0.785   4.037   3.431 -1.4944  0.4363  0.3952
  138MOL0     H18590   1.168   3.997   3.640 -1.3963  0.9231  1.0148
  138MOL0     H18591   1.280   3.785   3.626 -0.8500 -3.9138 -1.0053
  138MOL0     H18592   1.360   3.373   3.732  1.3646  1.9671  0.7769
  138MOL0     H18593   1.486   3.145   3.681 -1.0068  0.7331  1.8301
  138MOL0     H18594   1.811   3.169   3.378 -0.6015  0.5865  0.0990
  138MOL0     H18595   1.791   3.188   3.555  2.4897  0.5882  0.4543
  138MOL0     H18596   1.814   2.947   3.578  2.1128 -0.0923  1.2677
  138MOL0     H18597   1.811   2.914   3.398 -2.0138 -1.1366  1.5044
  138MOL0     H18598   2.020   3.108   3.460  0.4905  0.0176 -1.6995
  138MOL0     H18599   2.035   2.991   3.579  4.2890 -0.0280 -2.4537
  138MOL0     H18600   2.015   2.850   3.308  0.0740  0.3027 -0.8611
  138MOL0     H18601   2.134   2.835   3.427  1.4370  0.3494  0.0414
  138MOL0     H18602   2.228   2.921   3.227  0.2300  0.5449  0.6306
  138MOL0     H18603   2.247   3.054   3.348  0.4783 -0.6913  1.2359
  138MOL0     H18604   2.040   3.022   3.135  0.8903 -1.0317  1.6449
  138MOL0     H18605   2.033   3.157   3.255  2.3180  1.7543  2.5374
  138MOL0     H18606   2.260   3.115   3.059  1.2491  0.0879  1.6738
  138MOL0     H18607   2.237   3.249   3.180 -1.7256  1.7764 -0.7815
  138MOL0     H18608   2.177   3.337   2.970  1.0371 -0.6657 -0.0439
  138MOL0     H18609   2.097   3.188   2.920  3.6527  0.7094 -1.7883
  138MOL0     H18610   1.613   3.324   3.308 -2.0079  0.1852 -1.9302
  138MOL0     H18611   1.430   3.504   3.355  2.4068 -0.7461 -1.9801
  138MOL0     H18612   0.900   3.599   3.526  0.6379 -0.1957  0.4660
  138MOL0     H18613   0.792   3.811   3.552 -0.2348  0.5037 -1.9792
  138MOL0     H18614   0.941   4.621   4.604  1.6770  0.7278 -2.0314
  138MOL0     H18615   0.776   4.639   4.788 -1.7855  1.0714  0.3316
  138MOL0     H18616   0.695   5.015   5.094 -0.2261  2.4357  2.8391
  138MOL0     H18617   0.547   5.127   5.269 -1.6865  1.5920  1.7532
  138MOL0     H18618   0.367   5.244   5.322 -4.7498  1.1246 -1.5010
  138MOL0     H18619   0.391   5.159   5.471 -1.4910 -1.9718  0.9068
  138MOL0     H18620   0.130   5.177   5.494 -0.1466  2.0502  2.4031
  138MOL0     H18621   0.125   5.259   5.353 -1.0028 -1.2747  1.0143
  138MOL0     H18622   0.134   5.421   5.554  0.0737 -0.4072  2.4302
  138MOL0     H18623   0.284   5.435   5.454 -1.3875  0.9410 -0.2555
  138MOL0     H18624   0.265   5.248   5.686 -2.0897  0.2516 -0.9609
  138MOL0     H18625   0.401   5.358   5.647 -0.2697  0.0196 -2.5810
  138MOL0     H18626   0.127   5.560   5.917  3.1803  2.7098  0.0657
  138MOL0     H18627   0.238   4.847   5.164 -0.0148 -0.7465  1.5275
  138MOL0     H18628   0.326   4.766   4.858 -2.4180 -0.0676  0.4078
  138MOL0     H18629   0.404   4.650   4.951  0.7424  0.3849  1.1039
  138MOL0     H18630   0.239   4.699   5.003  0.9222 -0.8288  0.1818
  139MOL0     O18631  10.812   8.864  10.017  0.4874 -0.4384 -0.4867
  139MOL0     C18632  10.808   8.757   9.948 -0.4833  0.0346  0.1001
  139MOL0     O18633  10.782   8.752   9.813 -0.3466  0.8281 -0.0740
  139MOL0     C18634  10.796   8.861   9.722  1.0923  0.2539  0.5547
  139MOL0     C18635  10.887   8.837   9.623 -0.0012 -0.0066 -0.5541
  139MOL0     C18636  10.910   8.945   9.531 -0.6271  0.4789 -0.0551
  139MOL0     C18637  10.825   9.058   9.532  0.6062  0.0178 -0.4251
  139MOL0     O18638  10.815   9.135   9.414 -0.7774 -0.0197 -0.4459
  139MOL0     C18639  10.831   9.273   9.454 -0.1992 -0.4233 -0.2205
  139MOL0     C18640  10.809   9.347   9.321 -0.0351  0.3088 -0.1701
  139MOL0     C18641  10.658   9.342   9.276  0.0450  0.1042  0.6594
  139MOL0     C18642  10.617   9.235   9.172 -0.1267 -0.4169 -0.2589
  139MOL0     C18643  10.694   9.258   9.038  0.6492 -0.1379  0.0375
  139MOL0     C18644  10.641   9.395   8.972  0.6832  0.0347 -0.2451
  139MOL0     C18645  10.698   9.422   8.833 -0.3952  1.2668 -1.7318
  139MOL0     C18646  10.675   9.565   8.797  0.4785  0.3872  0.1758
  139MOL0     N18647  10.765   9.657   8.866  0.2371  0.3528 -0.4786
  139MOL0     C18648  10.870   9.711   8.800 -0.4151 -0.6649  0.4304
  139MOL0     C18649  10.932   9.799   8.883  0.9960 -0.8702  0.2308
  139MOL0     C18650  11.062   9.882   8.864 -0.4987  0.0559  0.2529
  139MOL0     C18651  11.037  10.019   8.803 -0.2997 -0.7469  0.1719
  139MOL0     C18652  11.161  10.073   8.730  0.8370  0.4214  0.4978
  139MOL0     C18653  11.188  10.221   8.754 -0.0987  0.4789 -0.8306
  139MOL0     O18654  11.072  10.306   8.753  0.0662  1.0874  0.6317
  139MOL0     C18655  11.007  10.340   8.643 -0.7736 -0.5544  0.7829
  139MOL0     C18656  10.887  10.405   8.654 -0.3116  0.5571  0.3570
  139MOL0     C18657  10.828  10.460   8.546  0.0091 -1.6836  0.0961
  139MOL0     C18658  10.882  10.446   8.416 -0.4858 -0.0412  0.4493
  139MOL0     C18659  10.823  10.505   8.292 -0.3776  0.5898 -0.1888
  139MOL0     O18660  10.905  10.520   8.187 -0.8494 -0.2026 -0.0814
  139MOL0     C18661  10.853  10.556   8.061 -0.8993 -0.1386  0.7920
  139MOL0     C18662  10.718  10.539   8.013 -0.3114  0.1492 -0.2877
  139MOL0     C18663  10.673  10.568   7.883 -0.2463  0.3497 -0.3731
  139MOL0     C18664  10.774  10.597   7.792 -0.4175 -0.4715  0.4753
  139MOL0     O18665  10.755  10.600   7.661  0.2778  0.5269  0.0519
  139MOL0     C18666  10.680  10.495   7.593 -0.3035 -0.8234  0.1291
  139MOL0     C18667  10.700  10.516   7.439  0.0272 -0.1133  0.2125
  139MOL0     C18668  10.837  10.479   7.382 -0.9778 -0.8565 -0.4873
  139MOL0     C18669  10.950  10.569   7.411  0.0158  0.1337 -0.3665
  139MOL0     C18670  11.091  10.520   7.360 -0.0486 -0.0181 -0.9662
  139MOL0     C18671  11.148  10.401   7.441 -0.8320  0.4608  0.1194
  139MOL0     C18672  11.292  10.354   7.396 -0.0080 -1.3193  0.1966
  139MOL0     C18673  11.346  10.214   7.432  0.2513 -0.1949  0.5714
  139MOL0    Cl18674  11.307  10.085   7.316  0.5461 -0.1650 -0.9316
  139MOL0     C18675  10.915  10.624   7.836  0.5523  0.0581 -0.0326
  139MOL0     C18676  10.944  10.606   7.976 -0.7022  0.8160  0.5963
  139MOL0     O18677  10.702  10.522   8.297 -0.3096  0.5167 -0.4859
  139MOL0     C18678  10.997  10.368   8.399 -0.9003  0.3329 -0.1646
  139MOL0     C18679  11.068  10.324   8.510  0.5439  0.0447  0.5475
  139MOL0     N18680  10.844   9.814   8.992 -0.2370  1.2398  0.1145
  139MOL0     N18681  10.750   9.719   8.985  0.3291 -0.1068  0.3851
  139MOL0     C18682  10.734   9.074   9.635  0.4515  0.8286  0.7076
  139MOL0     C18683  10.723   8.977   9.735  0.0204  0.2182 -0.2138
  139MOL0     C18684  10.844   8.631  10.017 -0.1430 -0.3451  0.3125
  139MOL0     C18685  10.759   8.598  10.117 -0.5740 -0.0900  0.6103
  139MOL0     C18686  10.770   8.475  10.177 -0.0958 -0.7912 -0.6047
  139MOL0     C18687  10.872   8.393  10.140  0.1890 -0.7318  0.4934
  139MOL0     O18688  10.888   8.285  10.221 -0.2890 -0.5500 -0.1578
  139MOL0     C18689  10.883   8.166  10.140  0.1838 -0.1264  0.2971
  139MOL0     C18690  10.910   8.037  10.215  0.9103  0.6729  1.1696
  139MOL0     C18691  11.040   7.973  10.194 -0.4434 -0.1809 -0.9480
  139MOL0     C18692  11.155   8.066  10.249  0.0267 -0.0084  0.3109
  139MOL0     C18693  11.258   7.988  10.332  0.1865 -0.4795 -1.1632
  139MOL0     C18694  11.352   7.928  10.383  0.0193  0.3469 -0.3560
  139MOL0     C18695  10.961   8.424  10.043  0.1056  0.5605 -0.1295
  139MOL0     C18696  10.947   8.545   9.973  1.2833  0.8114 -0.6520
  139MOL0     C18697  11.050   8.585   9.872  0.6733 -0.4655  0.7461
  139MOL0     H18698  10.926   8.735   9.617  3.0571  1.0494 -0.4621
  139MOL0     H18699  10.977   8.927   9.448  1.7417 -0.5101  1.9253
  139MOL0     H18700  10.768   9.311   9.535  0.6578  2.2166 -0.6888
  139MOL0     H18701  10.938   9.284   9.475  0.0727  2.2368 -2.3432
  139MOL0     H18702  10.886   9.303   9.257  2.8739  3.2569  0.9892
  139MOL0     H18703  10.845   9.450   9.332  3.6516 -0.9606  1.1230
  139MOL0     H18704  10.622   9.442   9.252 -0.9205  0.0160  1.6411
  139MOL0     H18705  10.604   9.326   9.369  3.6152  0.7269  3.0361
  139MOL0     H18706  10.655   9.138   9.208 -0.2478 -0.5444 -0.4737
  139MOL0     H18707  10.510   9.228   9.150  0.3980  2.2561 -4.7451
  139MOL0     H18708  10.802   9.264   9.055  0.6758  0.9084 -0.4621
  139MOL0     H18709  10.673   9.177   8.968  1.3041  0.1637 -0.5183
  139MOL0     H18710  10.532   9.386   8.966  0.3085  2.4075  1.3632
  139MOL0     H18711  10.665   9.480   9.037  1.3433  2.6096 -3.5406
  139MOL0     H18712  10.661   9.349   8.759 -0.9777 -2.5266  1.9325
  139MOL0     H18713  10.805   9.405   8.849 -0.4733  2.5852  0.5186
  139MOL0     H18714  10.686   9.572   8.689 -0.7223 -1.3220 -0.0916
  139MOL0     H18715  10.579   9.606   8.830  0.4998  2.2839 -1.8616
  139MOL0     H18716  10.914   9.692   8.703  1.2365  1.8888  0.6124
  139MOL0     H18717  11.110   9.894   8.961 -0.3569 -2.3178  0.5322
  139MOL0     H18718  11.131   9.833   8.795  0.3724  1.5940 -0.0070
  139MOL0     H18719  10.948  10.015   8.739 -1.6133  0.7005  1.8417
  139MOL0     H18720  10.993  10.088   8.875 -3.2134 -0.8825 -1.3254
  139MOL0     H18721  11.158  10.047   8.624 -3.6620  3.6418 -0.4397
  139MOL0     H18722  11.250  10.024   8.773 -0.4463 -1.0902  1.5371
  139MOL0     H18723  11.271  10.265   8.697  2.4679 -0.7109  1.7046
  139MOL0     H18724  11.224  10.228   8.857  0.4230 -1.2008 -0.8748
  139MOL0     H18725  10.840  10.397   8.752 -0.9445 -2.7946 -0.1017
  139MOL0     H18726  10.738  10.521   8.555  0.6259 -1.0129  2.2477
  139MOL0     H18727  10.648  10.495   8.083  0.0576  2.9342  1.9915
  139MOL0     H18728  10.567  10.558   7.861  0.2394 -0.9711 -2.4561
  139MOL0     H18729  10.710  10.390   7.609 -0.8957 -1.8301 -4.1071
  139MOL0     H18730  10.573  10.496   7.616 -0.4694  0.7403 -0.6140
  139MOL0     H18731  10.636  10.445   7.387 -0.5725 -0.2961  1.1769
  139MOL0     H18732  10.662  10.610   7.397  0.6633  0.3440  0.6339
  139MOL0     H18733  10.871  10.381   7.416  3.2140 -0.1740 -2.0991
  139MOL0     H18734  10.835  10.481   7.272  1.9282  0.4185 -0.6241
  139MOL0     H18735  10.969  10.603   7.513 -2.0100  0.3104 -0.0146
  139MOL0     H18736  10.918  10.661   7.360 -0.4010 -0.9865 -2.2232
  139MOL0     H18737  11.164  10.601   7.361  3.3062 -2.7582 -2.4782
  139MOL0     H18738  11.075  10.483   7.258 -1.5680 -2.5600  0.0903
  139MOL0     H18739  11.151  10.427   7.547 -0.5581  0.8295  0.0234
  139MOL0     H18740  11.079  10.316   7.438  1.3351 -1.5550  2.5417
  139MOL0     H18741  11.369  10.419   7.440 -1.4049  0.0122  0.7637
  139MOL0     H18742  11.295  10.364   7.287 -1.1398  0.3180  0.2747
  139MOL0     H18743  11.455  10.223   7.435  0.4857 -1.8387 -1.4087
  139MOL0     H18744  11.305  10.194   7.532  1.6606  3.0847  1.9841
  139MOL0     H18745  11.000  10.652   7.774  2.0030 -0.6615  1.5552
  139MOL0     H18746  11.044  10.631   8.008 -1.5129  2.3002  2.1149
  139MOL0     H18747  11.031  10.351   8.298 -0.9780 -0.7742 -0.0175
  139MOL0     H18748  11.165  10.278   8.500  1.6817  2.6162 -1.4371
  139MOL0     H18749  10.674   9.165   9.636  1.9384  2.0156 -2.4500
  139MOL0     H18750  10.658   8.981   9.821  0.6736  1.4106  0.2480
  139MOL0     H18751  10.679   8.664  10.148 -0.0993  0.5508  0.4918
  139MOL0     H18752  10.725   8.442  10.271  0.5596  0.6798  0.2619
  139MOL0     H18753  10.950   8.162  10.054  2.5134  3.7493  1.6713
  139MOL0     H18754  10.782   8.163  10.099  0.9259  2.5885 -2.0594
  139MOL0     H18755  10.830   7.975  10.174  1.3301  0.1718  1.1105
  139MOL0     H18756  10.899   8.054  10.323 -3.5953 -0.1653  1.0422
  139MOL0     H18757  11.058   7.952  10.088  1.3118  1.3092 -1.0000
  139MOL0     H18758  11.042   7.874  10.240  2.3061  1.0869  2.1244
  139MOL0     H18759  11.212   8.116  10.169  1.1292  2.2247  2.3499
  139MOL0     H18760  11.102   8.136  10.314 -1.6737 -1.3230  0.3727
  139MOL0     H18761  11.422   7.854  10.415 -2.1850 -1.8166 -0.2660
  139MOL0     H18762  11.047   8.364  10.015 -0.1680 -0.1488  0.4822
  139MOL0     H18763  11.048   8.689   9.840  0.4367 -1.0568 -1.3204
  139MOL0     H18764  11.150   8.540   9.880  0.5748 -1.6278 -2.7628
  139MOL0     H18765  11.012   8.537   9.781  0.3423  3.3612 -1.3612
  140MOL0     O18766   3.325   2.285   7.915 -0.1530 -0.9604 -0.2315
  140MOL0     C18767   3.392   2.190   7.945  0.4505  0.1585 -0.6105
  140MOL0     O18768   3.345   2.069   7.951  0.0402  0.7145 -0.0371
  140MOL0     C18769   3.219   2.029   7.907 -0.3143 -0.7010  1.6868
  140MOL0     C18770   3.202   1.976   7.780 -0.3354 -0.3625  0.0882
  140MOL0     C18771   3.076   1.913   7.750  0.9953  0.5799 -0.1744
  140MOL0     C18772   2.974   1.923   7.839  0.3995 -0.1021 -0.2320
  140MOL0     O18773   2.850   1.866   7.819 -0.4466  0.6962  0.5728
  140MOL0     C18774   2.848   1.730   7.769 -0.1445 -0.5275  0.1640
  140MOL0     C18775   2.698   1.694   7.740  0.6661  0.5760  0.0131
  140MOL0     C18776   2.670   1.750   7.591 -0.9309  0.7123 -0.1760
  140MOL0     C18777   2.586   1.648   7.513 -0.1830  0.0233  0.7307
  140MOL0     C18778   2.660   1.527   7.461 -0.2591 -0.8994 -0.3543
  140MOL0     C18779   2.585   1.429   7.370 -0.0871 -1.0318  0.8280
  140MOL0     C18780   2.438   1.394   7.405  0.4188 -0.1100  0.2284
  140MOL0     C18781   2.408   1.242   7.383  0.2482  0.4495 -0.1912
  140MOL0     N18782   2.275   1.201   7.434 -0.1480  0.5090 -0.2027
  140MOL0     C18783   2.266   1.137   7.553 -0.4618  1.6731  0.2617
  140MOL0     C18784   2.128   1.123   7.567 -1.9450 -0.0446 -0.3483
  140MOL0     C18785   2.065   1.050   7.682  0.6236  0.0734  0.1770
  140MOL0     C18786   2.004   0.923   7.640  1.0297  0.6835  0.2836
  140MOL0     C18787   1.865   0.937   7.567  0.0565 -0.9195 -1.0089
  140MOL0     C18788   1.858   0.835   7.456 -0.2182 -0.2423  0.3091
  140MOL0     O18789   1.800   0.708   7.508  0.7463 -0.1825 -0.2778
  140MOL0     C18790   1.875   0.604   7.567 -0.1656 -0.0890 -0.4474
  140MOL0     C18791   1.814   0.496   7.625  0.3890 -0.7021  0.5179
  140MOL0     C18792   1.883   0.393   7.676  0.1230  0.2402 -0.2559
  140MOL0     C18793   2.022   0.385   7.673 -0.1065 -0.4645  0.0057
  140MOL0     C18794   2.091   0.279   7.743  1.0117 -0.4767 -0.3135
  140MOL0     O18795   2.227   0.257   7.714 -0.4808  0.8111  0.1965
  140MOL0     C18796   2.280   0.136   7.754 -0.3624  0.5683 -0.5398
  140MOL0     C18797   2.402   0.119   7.818 -0.5303 -0.8927  0.6083
  140MOL0     C18798   2.463  -0.003   7.835 -0.3443 -0.6475 -0.7706
  140MOL0     C18799   2.390  -0.121   7.809 -0.1527 -0.4061 -0.0663
  140MOL0     O18800   2.443  -0.240   7.837 -0.4262  0.2140 -0.0411
  140MOL0     C18801   2.535  -0.296   7.735 -0.7522 -0.0031  0.2250
  140MOL0     C18802   2.615  -0.401   7.810 -1.1949  0.2271 -0.2439
  140MOL0     C18803   2.744  -0.339   7.874  0.1798  0.1818  0.0131
  140MOL0     C18804   2.821  -0.438   7.965  0.2565 -0.0326 -0.5958
  140MOL0     C18805   2.923  -0.363   8.042 -0.1746  0.5545 -1.2105
  140MOL0     C18806   2.977  -0.455   8.147 -0.2758 -1.4304 -0.2315
  140MOL0     C18807   3.032  -0.369   8.266 -0.2146  0.3312 -0.4367
  140MOL0     C18808   3.065  -0.460   8.388 -0.3134 -1.1036  0.4408
  140MOL0    Cl18809   3.112  -0.357   8.543  0.2902  0.1317 -0.6392
  140MOL0     C18810   2.260  -0.115   7.759  0.3582 -0.6844 -0.0306
  140MOL0     C18811   2.210   0.014   7.722 -0.2842 -0.4646  0.0814
  140MOL0     O18812   2.023   0.220   7.824 -0.4930  1.1048  0.3848
  140MOL0     C18813   2.080   0.495   7.605 -0.4728 -0.5344 -1.1923
  140MOL0     C18814   2.007   0.599   7.551  0.3545 -0.3866 -1.0214
  140MOL0     N18815   2.069   1.179   7.462 -0.3456  0.2706 -1.4702
  140MOL0     N18816   2.154   1.225   7.377  0.2128  0.7188  0.3378
  140MOL0     C18817   2.989   1.991   7.962  1.0943  0.1046  0.7390
  140MOL0     C18818   3.110   2.045   8.001 -0.2644 -0.0306  0.0924
  140MOL0     C18819   3.536   2.202   7.980  0.6146 -0.6302 -1.0220
  140MOL0     C18820   3.605   2.084   8.014  0.0120 -0.6852  0.8349
  140MOL0     C18821   3.739   2.080   8.053  0.6440  0.4328  0.1382
  140MOL0     C18822   3.811   2.193   8.039  0.2839 -0.1112  0.1470
  140MOL0     O18823   3.943   2.175   8.071 -0.5959 -0.1812 -0.3371
  140MOL0     C18824   4.027   2.286   8.053 -0.1887  0.0491  0.0208
  140MOL0     C18825   4.167   2.236   8.104 -0.5439  0.6246 -0.1750
  140MOL0     C18826   4.215   2.101   8.045 -0.6852  0.0626  0.1191
  140MOL0     C18827   4.242   1.999   8.160  0.4074  0.4652  0.5185
  140MOL0     C18828   4.325   2.040   8.271 -0.2089  0.3123  0.0364
  140MOL0     C18829   4.357   2.087   8.377  0.3856 -0.8045  0.4048
  140MOL0     C18830   3.740   2.311   8.013 -0.6898 -0.9309 -0.2104
  140MOL0     C18831   3.611   2.320   7.969  0.7486 -0.2705 -0.3023
  140MOL0     C18832   3.553   2.454   7.916 -0.2012  0.1848 -0.3329
  140MOL0     H18833   3.278   1.977   7.702 -1.8738  0.1411 -1.4790
  140MOL0     H18834   3.054   1.857   7.659  1.2501  0.3809 -0.1150
  140MOL0     H18835   2.918   1.721   7.685 -1.6874  0.1845 -1.2536
  140MOL0     H18836   2.891   1.671   7.851 -1.1067  0.8785  1.7416
  140MOL0     H18837   2.624   1.742   7.804 -2.4098  2.2763 -4.3274
  140MOL0     H18838   2.701   1.585   7.728 -0.0261  0.8037 -3.1742
  140MOL0     H18839   2.761   1.773   7.534  1.2173 -2.6998  1.5677
  140MOL0     H18840   2.627   1.851   7.590  1.6460  1.9436  1.5818
  140MOL0     H18841   2.501   1.624   7.578  0.6148 -1.1372  1.3768
  140MOL0     H18842   2.536   1.697   7.429 -0.1346 -2.9909 -1.2239
  140MOL0     H18843   2.756   1.560   7.419  0.3945  1.5670  2.7408
  140MOL0     H18844   2.694   1.469   7.547  1.1523  2.6893  1.7089
  140MOL0     H18845   2.589   1.467   7.267 -2.8499 -1.1720  0.5807
  140MOL0     H18846   2.640   1.335   7.365 -0.1178 -1.0006 -0.5714
  140MOL0     H18847   2.369   1.451   7.341 -0.9279 -0.9974  0.8624
  140MOL0     H18848   2.412   1.416   7.509 -0.3686  1.6822 -0.2971
  140MOL0     H18849   2.406   1.217   7.277 -3.9073  0.5262 -0.3000
  140MOL0     H18850   2.481   1.176   7.430 -1.0767 -1.9259 -1.2834
  140MOL0     H18851   2.335   1.081   7.615 -2.2234  2.0781  2.7958
  140MOL0     H18852   2.155   1.021   7.737  0.7082 -0.1170 -0.0594
  140MOL0     H18853   2.005   1.104   7.755  1.8820  0.4393  0.9743
  140MOL0     H18854   2.065   0.871   7.565 -4.0131 -2.9089 -1.8485
  140MOL0     H18855   1.993   0.849   7.719 -2.8255  1.1972  0.4156
  140MOL0     H18856   1.858   1.036   7.522  2.0621  0.4195  1.3357
  140MOL0     H18857   1.796   0.923   7.651 -0.7275  1.5797 -1.1480
  140MOL0     H18858   1.956   0.821   7.409  1.3050  2.9567  2.1734
  140MOL0     H18859   1.796   0.882   7.379  0.3645  0.5670  0.3267
  140MOL0     H18860   1.708   0.503   7.646 -0.3871 -3.4856 -1.8469
  140MOL0     H18861   1.830   0.314   7.728 -0.9623  1.6706  0.8513
  140MOL0     H18862   2.452   0.213   7.840 -0.2823 -1.0190  0.5976
  140MOL0     H18863   2.558  -0.018   7.885  0.4101 -1.7158 -2.4338
  140MOL0     H18864   2.477  -0.322   7.646  1.9861 -1.8733 -1.1418
  140MOL0     H18865   2.608  -0.223   7.700 -1.2590  0.3916 -0.0302
  140MOL0     H18866   2.547  -0.448   7.882 -1.4505  3.4029  1.7594
  140MOL0     H18867   2.657  -0.460   7.729  0.4530  0.0916  0.6724
  140MOL0     H18868   2.816  -0.310   7.796  0.7861  0.0755  0.5239
  140MOL0     H18869   2.712  -0.249   7.927 -1.0620 -0.1693 -0.1027
  140MOL0     H18870   2.874  -0.517   7.912  2.4974  0.4241  0.8199
  140MOL0     H18871   2.752  -0.488   8.034  0.0421  0.0990 -0.7121
  140MOL0     H18872   2.879  -0.272   8.083  3.9011  1.9864  0.4741
  140MOL0     H18873   2.998  -0.324   7.972 -0.2816  0.0966 -1.5913
  140MOL0     H18874   2.899  -0.526   8.175 -3.3280  2.2620  1.6048
  140MOL0     H18875   3.067  -0.504   8.109  0.8751 -0.3654  1.0101
  140MOL0     H18876   2.953  -0.304   8.303 -2.8724 -2.8440 -0.0049
  140MOL0     H18877   3.116  -0.310   8.230 -0.2475 -0.7791 -2.5051
  140MOL0     H18878   2.973  -0.516   8.410 -0.5592 -0.5258  0.9299
  140MOL0     H18879   3.149  -0.524   8.361  2.1879  1.4526  1.7356
  140MOL0     H18880   2.202  -0.206   7.771  0.5051 -1.0950 -1.9766
  140MOL0     H18881   2.118   0.022   7.664  0.8905  0.0299 -1.7949
  140MOL0     H18882   2.189   0.500   7.601 -0.4562  1.4329  0.3657
  140MOL0     H18883   2.064   0.677   7.502  0.7272  0.0594  0.0987
  140MOL0     H18884   2.892   2.009   8.008 -0.1728  0.6788 -1.9545
  140MOL0     H18885   3.133   2.094   8.095  0.3247  0.3189 -0.2218
  140MOL0     H18886   3.552   1.989   8.016  0.0845 -0.8861 -2.1234
  140MOL0     H18887   3.779   1.985   8.087 -2.0429 -0.2552  1.6076
  140MOL0     H18888   4.000   2.379   8.104  4.4613  0.9174  1.3388
  140MOL0     H18889   4.028   2.312   7.947 -0.9131 -2.6773 -0.7291
  140MOL0     H18890   4.155   2.240   8.213 -2.4765 -0.7845 -0.2972
  140MOL0     H18891   4.240   2.310   8.069 -0.3057 -0.5244 -2.3094
  140MOL0     H18892   4.316   2.112   8.006 -0.0887 -0.5277  1.4489
  140MOL0     H18893   4.146   2.065   7.967 -0.8249 -1.2703  0.8292
  140MOL0     H18894   4.144   1.971   8.199  0.1701  1.3078  0.5407
  140MOL0     H18895   4.284   1.909   8.112  0.0380  1.0050 -0.8720
  140MOL0     H18896   4.362   2.142   8.469 -2.7081  1.5670 -0.6557
  140MOL0     H18897   3.783   2.411   8.010  0.3807 -1.3847 -0.2508
  140MOL0     H18898   3.521   2.441   7.812 -0.4540  3.4172 -0.7830
  140MOL0     H18899   3.474   2.505   7.973  1.4450  0.9895  1.3299
  140MOL0     H18900   3.637   2.522   7.896  0.2915 -0.1347  0.5718
  141MOL0     O18901   5.668   8.271   9.614  0.4400 -0.5406 -0.1432
  141MOL0     C18902   5.634   8.182   9.544 -0.2040 -0.5443 -1.2697
  141MOL0     O18903   5.724   8.090   9.502  0.0850  0.2427 -0.2149
  141MOL0     C18904   5.813   8.042   9.591 -0.1087 -0.2521 -0.9802
  141MOL0     C18905   5.782   8.001   9.726 -0.0193  0.5174 -0.3022
  141MOL0     C18906   5.882   7.945   9.807  0.3935 -0.2725 -0.4631
  141MOL0     C18907   6.011   7.950   9.752  0.4750  0.6541  0.2616
  141MOL0     O18908   6.121   7.904   9.817 -0.4855 -0.8271  0.3996
  141MOL0     C18909   6.162   7.989   9.926  0.2774 -0.8017 -0.2748
  141MOL0     C18910   6.287   7.945   9.977 -0.3877 -0.0393 -0.6597
  141MOL0     C18911   6.400   7.951   9.870  0.0954 -0.6698  0.3577
  141MOL0     C18912   6.482   7.818   9.866  0.2794  0.0067  0.3630
  141MOL0     C18913   6.429   7.719   9.764 -0.1142  1.2797  0.0501
  141MOL0     C18914   6.543   7.620   9.716  0.4729 -0.5340  1.1162
  141MOL0     C18915   6.492   7.526   9.598 -0.2059 -0.1825  0.3127
  141MOL0     C18916   6.411   7.394   9.637 -1.2171  0.1045 -0.8555
  141MOL0     N18917   6.498   7.290   9.694  0.3362 -0.0858 -0.3150
  141MOL0     C18918   6.558   7.188   9.627 -0.0861 -0.6028 -0.2082
  141MOL0     C18919   6.625   7.119   9.725  0.9433  0.5217 -1.3364
  141MOL0     C18920   6.729   7.016   9.703  0.0243  0.7325  0.0362
  141MOL0     C18921   6.871   7.073   9.687  0.5422  0.3504  0.2314
  141MOL0     C18922   6.882   7.172   9.570  0.6919 -0.6641 -0.1977
  141MOL0     C18923   7.028   7.203   9.519 -0.1625 -0.4169  0.6427
  141MOL0     O18924   7.028   7.264   9.382 -0.3691 -0.2260  0.5170
  141MOL0     C18925   6.945   7.364   9.365  0.6314  0.0765 -0.0967
  141MOL0     C18926   6.819   7.338   9.303  0.0623 -1.3319 -0.0984
  141MOL0     C18927   6.722   7.437   9.306  0.1696  0.7072  0.3844
  141MOL0     C18928   6.756   7.573   9.354  0.0312  0.6630 -0.1820
  141MOL0     C18929   6.657   7.683   9.335  0.7180  0.9095 -0.3603
  141MOL0     O18930   6.699   7.810   9.338  0.0176  0.2845 -0.1507
  141MOL0     C18931   6.608   7.910   9.330  0.7243  0.1124  0.2895
  141MOL0     C18932   6.582   7.980   9.215  0.7640  0.2736 -0.2886
  141MOL0     C18933   6.480   8.082   9.216  0.3132 -0.6686  0.1794
  141MOL0     C18934   6.415   8.122   9.338 -0.4169  0.2229  1.3507
  141MOL0     O18935   6.309   8.205   9.322 -0.1344 -0.4521 -0.0833
  141MOL0     C18936   6.210   8.212   9.422  0.4370  0.5828 -0.1376
  141MOL0     C18937   6.237   8.329   9.501  0.3065 -0.2114 -0.8525
  141MOL0     C18938   6.129   8.336   9.608 -0.6906  0.5374 -0.3848
  141MOL0     C18939   6.131   8.471   9.691  0.2503  0.2560  0.0228
  141MOL0     C18940   6.053   8.451   9.822 -0.2984  0.0984 -0.0552
  141MOL0     C18941   5.920   8.374   9.819 -0.0957  0.2253 -0.0893
  141MOL0     C18942   5.833   8.425   9.930 -0.1945  0.2470 -0.4891
  141MOL0     C18943   5.874   8.355  10.060 -0.9657 -0.0739 -0.4189
  141MOL0    Cl18944   5.800   8.450  10.192  0.1558  0.3587  0.1034
  141MOL0     C18945   6.453   8.056   9.452  0.1366 -0.4489 -0.2462
  141MOL0     C18946   6.548   7.950   9.450 -0.6746  0.6683 -0.2001
  141MOL0     O18947   6.545   7.649   9.323 -0.2734  0.2102  0.4105
  141MOL0     C18948   6.887   7.596   9.409 -0.3136  0.7175  0.1167
  141MOL0     C18949   6.971   7.490   9.426  0.5954  0.1321  0.0716
  141MOL0     N18950   6.600   7.180   9.851  0.9024  0.2934  0.5295
  141MOL0     N18951   6.516   7.280   9.827  0.0598 -0.1514  0.2259
  141MOL0     C18952   6.042   7.971   9.621  0.8098  0.0818  0.5806
  141MOL0     C18953   5.942   8.038   9.541  0.5816  0.0469 -0.3326
  141MOL0     C18954   5.497   8.167   9.513  0.7493 -0.9778 -0.0910
  141MOL0     C18955   5.464   8.140   9.378 -0.6202  0.5125 -0.6489
  141MOL0     C18956   5.335   8.125   9.340  0.2949 -0.1546  0.0281
  141MOL0     C18957   5.235   8.126   9.426  1.2640 -1.1342 -0.0424
  141MOL0     O18958   5.113   8.096   9.372 -0.6076  0.4647  0.1237
  141MOL0     C18959   4.993   8.102   9.451 -0.1214  0.5416  0.0654
  141MOL0     C18960   4.885   8.013   9.394  0.7239  0.2107 -0.6945
  141MOL0     C18961   4.930   7.872   9.405 -0.8108  0.3574 -0.1452
  141MOL0     C18962   4.856   7.779   9.321  0.4204 -0.2837 -0.2620
  141MOL0     C18963   4.915   7.782   9.187 -0.4224  1.0073 -0.0740
  141MOL0     C18964   4.951   7.761   9.071 -0.0659 -0.5318  0.0260
  141MOL0     C18965   5.255   8.180   9.548  0.2566 -0.6027 -0.0753
  141MOL0     C18966   5.385   8.202   9.601 -1.1969  0.5546 -0.3378
  141MOL0     C18967   5.394   8.262   9.742 -0.6808 -0.1213 -0.2939
  141MOL0     H18968   5.681   8.012   9.764 -2.3249 -2.3082 -4.7880
  141MOL0     H18969   5.860   7.912   9.908  2.3933  0.6742  0.3222
  141MOL0     H18970   6.180   8.087   9.881 -2.2869 -0.8581 -1.6262
  141MOL0     H18971   6.079   7.997   9.997 -1.4988 -1.8647 -2.1029
  141MOL0     H18972   6.265   7.841  10.003 -2.5686  0.9874  2.0529
  141MOL0     H18973   6.307   7.995  10.072  0.3581 -3.6985  1.3167
  141MOL0     H18974   6.466   8.035   9.894 -1.1431  0.5752 -0.4551
  141MOL0     H18975   6.370   7.965   9.766  2.7323 -1.3361 -0.5778
  141MOL0     H18976   6.582   7.835   9.827  0.8875  0.5803  2.0761
  141MOL0     H18977   6.480   7.776   9.967  2.2524 -2.5966 -0.5772
  141MOL0     H18978   6.350   7.658   9.810 -0.4336  0.6657 -1.2829
  141MOL0     H18979   6.386   7.771   9.678  1.4112 -2.7714 -3.4558
  141MOL0     H18980   6.619   7.690   9.678  0.3756 -0.8537  0.3250
  141MOL0     H18981   6.577   7.545   9.788  2.6969 -1.4794 -0.7994
  141MOL0     H18982   6.578   7.492   9.540  1.0902 -0.2285  2.1746
  141MOL0     H18983   6.428   7.582   9.529  2.8194  0.2803 -2.3593
  141MOL0     H18984   6.337   7.422   9.714  0.4608  0.7095  0.6083
  141MOL0     H18985   6.362   7.350   9.550 -4.5653  1.8433 -0.0236
  141MOL0     H18986   6.572   7.191   9.519  0.7595  2.7963 -0.0866
  141MOL0     H18987   6.712   6.944   9.783 -3.6080  0.5252 -0.7368
  141MOL0     H18988   6.693   6.972   9.609 -0.5598  0.4403  0.3911
  141MOL0     H18989   6.902   7.127   9.777  3.2227 -2.0823  0.9243
  141MOL0     H18990   6.945   6.993   9.673  3.1229  1.3685  5.3505
  141MOL0     H18991   6.833   7.264   9.602 -1.0294 -1.2699 -0.9862
  141MOL0     H18992   6.824   7.129   9.487  0.9585 -0.7513 -0.3412
  141MOL0     H18993   7.076   7.105   9.518  0.5434 -0.2701  4.8207
  141MOL0     H18994   7.064   7.278   9.589 -0.4662  1.4893 -1.1439
  141MOL0     H18995   6.801   7.237   9.269 -2.5589 -0.8912 -0.2385
  141MOL0     H18996   6.632   7.408   9.254  0.3312 -0.3902  0.6941
  141MOL0     H18997   6.623   7.963   9.116  0.1990  0.9445 -0.6533
  141MOL0     H18998   6.440   8.136   9.131  1.2027  4.7396  2.7862
  141MOL0     H18999   6.117   8.215   9.364  1.6607  0.3970 -2.1970
  141MOL0     H19000   6.209   8.123   9.486 -2.2000  0.3326 -0.4142
  141MOL0     H19001   6.337   8.331   9.546  0.4893 -0.0669 -1.2537
  141MOL0     H19002   6.227   8.403   9.421  1.4699 -1.8747 -2.6341
  141MOL0     H19003   6.032   8.329   9.558 -1.1878 -0.4332  0.6627
  141MOL0     H19004   6.136   8.255   9.681  1.2915  2.2080  1.4145
  141MOL0     H19005   6.091   8.547   9.624  1.3417  2.1999  1.4752
  141MOL0     H19006   6.236   8.491   9.713  0.3158 -0.1264  0.0700
  141MOL0     H19007   6.034   8.555   9.849 -0.4530  0.1786 -0.4726
  141MOL0     H19008   6.122   8.410   9.896 -2.9098 -1.4049  1.7455
  141MOL0     H19009   5.861   8.404   9.732 -0.2893  0.1467  0.0154
  141MOL0     H19010   5.928   8.265   9.823  3.0560  0.3727  0.7961
  141MOL0     H19011   5.728   8.402   9.910  0.0054 -0.5836 -0.5947
  141MOL0     H19012   5.849   8.533   9.940  0.3676 -0.0196  2.8381
  141MOL0     H19013   5.842   8.251  10.068  2.0992 -0.9679  3.6356
  141MOL0     H19014   5.980   8.346  10.087 -0.6089 -1.0794 -1.9753
  141MOL0     H19015   6.396   8.074   9.542 -0.6685 -0.4267 -0.7425
  141MOL0     H19016   6.563   7.886   9.536 -1.1043  2.9623  1.6890
  141MOL0     H19017   6.925   7.691   9.445 -0.3099  0.2569  1.3764
  141MOL0     H19018   7.068   7.512   9.469  0.9721 -1.5068  0.1308
  141MOL0     H19019   6.142   7.942   9.590  0.2923 -0.5978 -0.4907
  141MOL0     H19020   5.971   8.087   9.448  2.3048  2.2034  1.2272
  141MOL0     H19021   5.544   8.138   9.304 -1.6848 -0.1299 -1.8166
  141MOL0     H19022   5.329   8.094   9.236  3.0655 -2.0768  0.3222
  141MOL0     H19023   4.966   8.208   9.453  1.8586  1.3097 -3.9793
  141MOL0     H19024   5.020   8.069   9.552 -0.8337 -0.3919 -0.0269
  141MOL0     H19025   4.847   8.037   9.294  2.6367  0.5489 -1.3791
  141MOL0     H19026   4.792   8.012   9.453  0.5146 -2.1709 -0.9769
  141MOL0     H19027   4.919   7.845   9.510 -0.5006 -0.2986 -0.2768
  141MOL0     H19028   5.034   7.866   9.374 -0.1830  1.4564  1.6147
  141MOL0     H19029   4.871   7.675   9.352  0.4144 -0.4343 -0.7427
  141MOL0     H19030   4.750   7.806   9.315 -0.1467 -1.7468  2.0464
  141MOL0     H19031   4.960   7.745   8.966  0.6747 -0.0112  0.0079
  141MOL0     H19032   5.177   8.192   9.623  2.4215 -0.7697  2.3409
  141MOL0     H19033   5.412   8.370   9.731 -2.7221  0.2018 -0.8761
  141MOL0     H19034   5.297   8.239   9.788 -0.3625  1.2218  1.1524
  141MOL0     H19035   5.480   8.222   9.797  0.6048  3.3200  0.4615
  142MOL0     O19036  11.294   9.924   9.181  0.7865  0.3741 -0.6718
  142MOL0     C19037  11.340   9.999   9.264 -0.6615 -0.1280  0.7165
  142MOL0     O19038  11.281  10.104   9.330 -0.7363  0.1701 -0.4113
  142MOL0     C19039  11.158  10.145   9.279 -0.1655 -0.6594  0.6305
  142MOL0     C19040  11.048  10.056   9.273 -0.7856  0.0264 -0.3597
  142MOL0     C19041  10.934  10.089   9.208 -0.5365 -0.3451  1.4413
  142MOL0     C19042  10.920  10.219   9.160  0.1934 -0.1312  0.5517
  142MOL0     O19043  10.796  10.255   9.133  0.6021 -0.5196  0.1171
  142MOL0     C19044  10.767  10.335   9.012 -0.8852 -0.3443 -0.0258
  142MOL0     C19045  10.630  10.418   9.030 -0.3064 -0.3013  0.7595
  142MOL0     C19046  10.625  10.505   9.153  0.3760  0.5360  0.6674
  142MOL0     C19047  10.751  10.590   9.158 -1.0232 -1.2281 -0.3494
  142MOL0     C19048  10.744  10.669   9.290 -0.4651  0.1912  0.6507
  142MOL0     C19049  10.844  10.773   9.288 -0.0732 -0.5026 -0.5061
  142MOL0     C19050  10.993  10.732   9.320 -0.1105 -0.3007 -0.8259
  142MOL0     C19051  11.103  10.839   9.349  0.1942  0.0112 -0.2040
  142MOL0     N19052  11.199  10.805   9.453 -0.3015  0.0950 -0.4329
  142MOL0     C19053  11.184  10.840   9.582  0.5864  0.3710 -0.2191
  142MOL0     C19054  11.293  10.792   9.652  0.3093  0.4293  0.1919
  142MOL0     C19055  11.323  10.814   9.793 -0.3854 -0.0952 -0.5149
  142MOL0     C19056  11.227  10.726   9.880  0.1467  0.6105 -0.9594
  142MOL0     C19057  11.221  10.784  10.021 -0.6717  0.1561 -0.8170
  142MOL0     C19058  11.082  10.788  10.085 -0.5535 -0.4220 -0.6970
  142MOL0     O19059  11.084  10.836  10.220  0.7062  0.6978  0.5059
  142MOL0     C19060  11.024  10.754  10.321 -0.7050  0.8078 -0.5643
  142MOL0     C19061  10.992  10.618  10.311  0.1288  0.7122  0.6064
  142MOL0     C19062  10.949  10.540  10.418 -0.3103  0.5841  0.8517
  142MOL0     C19063  10.930  10.600  10.544  0.3277  0.3371  0.7296
  142MOL0     C19064  10.897  10.518  10.660  0.3749 -1.6737 -0.1686
  142MOL0     O19065  10.828  10.410  10.627 -0.7958  0.2897  0.7142
  142MOL0     C19066  10.782  10.308  10.704 -0.0115 -0.3740 -0.3669
  142MOL0     C19067  10.744  10.183  10.648 -0.0401  0.6523  0.5783
  142MOL0     C19068  10.708  10.072  10.722  0.2899 -0.4678 -0.5543
  142MOL0     C19069  10.713  10.086  10.864 -0.1402  0.4712 -0.3791
  142MOL0     O19070  10.680   9.983  10.949  0.2536 -0.4707  0.0512
  142MOL0     C19071  10.679   9.845  10.897  0.7741  0.0835 -0.0424
  142MOL0     C19072  10.658   9.740  10.997 -0.6324  1.0911 -0.9639
  142MOL0     C19073  10.505   9.716  11.041  0.4446 -0.0063  0.9567
  142MOL0     C19074  10.490   9.646  11.183 -1.2107 -0.4267 -0.3463
  142MOL0     C19075  10.488   9.498  11.167  0.3210  0.4651  0.7411
  142MOL0     C19076  10.487   9.408  11.280  0.0675  0.0894 -0.6743
  142MOL0     C19077  10.490   9.262  11.229 -0.2615  0.0947 -0.5973
  142MOL0     C19078  10.527   9.184  11.354 -0.5644  0.7382  0.0302
  142MOL0    Cl19079  10.520   9.017  11.307  0.1365 -0.2203 -0.1679
  142MOL0     C19080  10.745  10.201  10.923  0.1606  0.3326  0.6120
  142MOL0     C19081  10.788  10.306  10.844  0.4028 -0.3777 -0.5484
  142MOL0     O19082  10.933  10.546  10.775  0.0857  0.1144  0.1572
  142MOL0     C19083  10.946  10.742  10.559  0.0296  0.8135  0.4079
  142MOL0     C19084  10.992  10.816  10.449  0.8526  0.5087 -0.1460
  142MOL0     N19085  11.375  10.727   9.551  0.8109 -1.0643 -0.4508
  142MOL0     N19086  11.315  10.725   9.431  0.5860 -0.5952 -0.0633
  142MOL0     C19087  11.032  10.308   9.158 -0.3100 -0.1567 -0.5620
  142MOL0     C19088  11.155  10.271   9.219  0.6869  0.7105 -0.2055
  142MOL0     C19089  11.480   9.979   9.302 -0.0923  0.1877 -0.2734
  142MOL0     C19090  11.575  10.081   9.283  0.5431 -0.5687 -0.0462
  142MOL0     C19091  11.721  10.068   9.302 -0.5118 -0.0040 -0.4122
  142MOL0     C19092  11.766   9.962   9.380 -0.6074 -0.2740 -0.0002
  142MOL0     O19093  11.900   9.974   9.433  0.8618  0.7649  0.0956
  142MOL0     C19094  11.925   9.924   9.561 -1.0396  0.2132 -0.0172
  142MOL0     C19095  11.847  10.001   9.669  0.0527  0.4646 -0.6213
  142MOL0     C19096  11.904  10.145   9.699  0.2782 -0.1986  0.4940
  142MOL0     C19097  11.994  10.171   9.824  0.6036 -0.9300  0.0920
  142MOL0     C19098  12.013  10.325   9.830  1.2325 -0.2571 -0.4465
  142MOL0     C19099  12.015  10.447   9.836  0.8408 -0.2528  0.7041
  142MOL0     C19100  11.676   9.860   9.406  0.4401  0.4935  0.5759
  142MOL0     C19101  11.537   9.858   9.351 -0.5702 -0.9429 -0.7055
  142MOL0     C19102  11.448   9.736   9.374 -0.8904 -0.2768 -0.0542
  142MOL0     H19103  11.062   9.960   9.320  1.4657  0.4250 -0.1029
  142MOL0     H19104  10.847  10.025   9.197  1.5565 -3.0130 -2.2150
  142MOL0     H19105  10.858  10.390   8.983  1.7972 -3.8542  1.0271
  142MOL0     H19106  10.741  10.277   8.923  4.8754  0.0802 -2.4259
  142MOL0     H19107  10.539  10.356   9.034 -1.2506  1.0746  1.1895
  142MOL0     H19108  10.623  10.488   8.946  3.0452  0.9017  1.3509
  142MOL0     H19109  10.600  10.466   9.252 -0.3884  2.1497  1.1510
  142MOL0     H19110  10.531  10.559   9.138 -2.6389 -4.3026  0.0025
  142MOL0     H19111  10.848  10.539   9.158  0.2249  0.9556  0.6497
  142MOL0     H19112  10.762  10.661   9.075 -1.9142 -1.2577 -0.4992
  142MOL0     H19113  10.643  10.711   9.295 -1.6722 -2.3980 -0.3169
  142MOL0     H19114  10.751  10.607   9.380  0.9657 -0.8991 -0.1651
  142MOL0     H19115  10.858  10.834   9.198  3.3187 -1.0883 -0.5076
  142MOL0     H19116  10.798  10.830   9.369 -0.0398 -2.1676  0.7325
  142MOL0     H19117  11.024  10.671   9.235  4.5341 -0.0579  0.3877
  142MOL0     H19118  10.987  10.658   9.400 -4.7998  2.4826  1.8301
  142MOL0     H19119  11.149  10.875   9.256  2.9558 -2.9635 -0.1676
  142MOL0     H19120  11.047  10.921   9.394  1.0429 -0.8906  2.6869
  142MOL0     H19121  11.113  10.912   9.619 -0.9794 -0.8025 -0.8409
  142MOL0     H19122  11.421  10.779   9.825 -1.8874 -2.5874  1.8234
  142MOL0     H19123  11.312  10.919   9.822 -0.1699 -0.3144  0.3631
  142MOL0     H19124  11.131  10.728   9.828  0.7730  2.2410 -2.1349
  142MOL0     H19125  11.271  10.627   9.896  3.3646  1.8477 -1.3374
  142MOL0     H19126  11.270  10.882  10.026  2.4701 -1.3286 -0.0351
  142MOL0     H19127  11.293  10.732  10.085 -0.9083  1.1506  0.2953
  142MOL0     H19128  11.032  10.692  10.070 -1.6946 -0.5939  3.2924
  142MOL0     H19129  11.034  10.856  10.014  0.1092  3.5377  2.2871
  142MOL0     H19130  10.995  10.566  10.215  3.8731  0.7605  0.5492
  142MOL0     H19131  10.925  10.439  10.386  3.0245 -0.5980  1.6270
  142MOL0     H19132  10.746  10.176  10.540 -1.8580 -1.1468  0.6023
  142MOL0     H19133  10.694   9.972  10.682  3.9347 -2.0909  1.7131
  142MOL0     H19134  10.604   9.843  10.818  1.3069 -1.5133 -0.5379
  142MOL0     H19135  10.778   9.826  10.856  0.3589 -1.3382 -0.4312
  142MOL0     H19136  10.690   9.653  10.939 -2.7540  0.9968 -2.0759
  142MOL0     H19137  10.714   9.753  11.090 -2.8809  1.0679  0.4614
  142MOL0     H19138  10.452   9.811  11.053  0.8601  0.4055 -0.2439
  142MOL0     H19139  10.441   9.667  10.967 -2.1819  0.8692  2.5413
  142MOL0     H19140  10.399   9.669  11.240 -0.1484 -0.8374  1.5712
  142MOL0     H19141  10.575   9.671  11.247 -0.5202 -4.9975  0.8240
  142MOL0     H19142  10.577   9.481  11.105  0.6814  2.3964  0.6534
  142MOL0     H19143  10.395   9.479  11.112  0.4961 -0.3283  0.7130
  142MOL0     H19144  10.581   9.431  11.330 -1.2491  2.1186  1.0498
  142MOL0     H19145  10.395   9.431  11.335 -0.2720 -0.0634 -1.1669
  142MOL0     H19146  10.560   9.237  11.149  0.8141  0.9294  0.0496
  142MOL0     H19147  10.391   9.227  11.197 -3.0181  3.3495  3.3370
  142MOL0     H19148  10.626   9.211  11.391 -0.8229 -3.1973  4.5109
  142MOL0     H19149  10.456   9.189  11.437  0.3892 -1.3912  1.0395
  142MOL0     H19150  10.745  10.205  11.031  0.8494 -0.0379  0.6328
  142MOL0     H19151  10.811  10.396  10.900  2.3568 -1.9543  1.3065
  142MOL0     H19152  10.914  10.803  10.643 -0.3990 -0.7167  1.3977
  142MOL0     H19153  10.990  10.922  10.428  1.7696  0.4805 -0.4107
  142MOL0     H19154  11.018  10.407   9.116  0.6512 -0.3557 -1.3939
  142MOL0     H19155  11.245  10.330   9.238  0.9545  0.3891 -0.4762
  142MOL0     H19156  11.543  10.175   9.239  7.1756  1.4085 -1.8785
  142MOL0     H19157  11.787  10.153   9.291  3.9200 -2.6529  2.5253
  142MOL0     H19158  12.028   9.939   9.593 -1.5482  0.8208  1.4179
  142MOL0     H19159  11.894   9.821   9.580 -2.1827  0.9087  2.1655
  142MOL0     H19160  11.840   9.938   9.758  2.7617 -1.8630 -1.9083
  142MOL0     H19161  11.740  10.004   9.647 -0.0385 -0.1786 -0.2779
  142MOL0     H19162  11.813  10.204   9.713 -0.1138 -0.5800 -0.3403
  142MOL0     H19163  11.963  10.173   9.611  0.8215  2.6690  1.6616
  142MOL0     H19164  11.929  10.153   9.910  0.2479  1.2343  0.3481
  142MOL0     H19165  12.089  10.118   9.823  0.4929 -1.1402  0.4095
  142MOL0     H19166  12.037  10.549   9.860 -3.3631  1.6886 -2.3798
  142MOL0     H19167  11.715   9.769   9.452 -0.3112 -1.9917 -3.2669
  142MOL0     H19168  11.414   9.706   9.274 -0.9771  1.7043 -0.6590
  142MOL0     H19169  11.514   9.659   9.415  1.4237 -0.0773 -3.0353
  142MOL0     H19170  11.369   9.757   9.446 -1.3870 -0.1034 -0.6368
  143MOL0     O19171  10.874   9.682  11.418 -0.2060  0.1647 -0.5157
  143MOL0     C19172  10.926   9.722  11.315 -0.4031  0.3734  0.0474
  143MOL0     O19173  10.970   9.642  11.215 -0.1750 -0.5502 -0.6440
  143MOL0     C19174  10.964   9.513  11.246 -0.1489 -0.2099  0.0740
  143MOL0     C19175  11.047   9.458  11.340 -0.4618 -0.0917  0.5783
  143MOL0     C19176  11.037   9.327  11.376 -0.2789 -0.8320  0.2657
  143MOL0     C19177  10.962   9.231  11.308  0.2818 -0.3742  0.2825
  143MOL0     O19178  10.972   9.098  11.347 -0.3343 -0.2544  0.1716
  143MOL0     C19179  10.858   9.017  11.308 -0.0687 -0.3340  1.2307
  143MOL0     C19180  10.846   8.910  11.414  0.8831 -0.2166  0.4434
  143MOL0     C19181  10.812   8.967  11.557  0.8241 -0.4787  0.4870
  143MOL0     C19182  10.828   8.861  11.655 -0.6500  0.6357  0.2980
  143MOL0     C19183  10.831   8.921  11.787  0.0143 -0.6725 -0.2107
  143MOL0     C19184  10.836   8.814  11.903  1.0346  0.0947  0.3351
  143MOL0     C19185  10.801   8.897  12.035 -0.8663 -0.7189 -0.8281
  143MOL0     C19186  10.825   8.796  12.157  0.2855  0.3622 -0.2583
  143MOL0     N19187  10.957   8.746  12.169  0.1413  0.3554  0.5262
  143MOL0     C19188  10.999   8.614  12.183 -0.0223 -0.3872  0.1608
  143MOL0     C19189  11.131   8.613  12.178 -1.1774  0.0785  0.3829
  143MOL0     C19190  11.219   8.497  12.204 -1.1112 -0.7565  0.3688
  143MOL0     C19191  11.203   8.383  12.104 -0.4700 -0.0542  0.1008
  143MOL0     C19192  11.303   8.274  12.152 -0.1363  0.0734  0.5744
  143MOL0     C19193  11.299   8.158  12.047 -0.6290  0.0588  0.2635
  143MOL0     O19194  11.193   8.071  12.077  0.0692 -0.7105 -0.6385
  143MOL0     C19195  11.153   7.985  11.976 -0.0554 -0.0040  1.2142
  143MOL0     C19196  11.075   7.878  12.015 -0.2739 -0.7014  1.3932
  143MOL0     C19197  11.023   7.782  11.927  0.2537  0.3382 -0.0780
  143MOL0     C19198  11.068   7.785  11.790  0.4707  0.1299 -1.2810
  143MOL0     C19199  11.022   7.679  11.690 -1.3283  0.6772 -0.1275
  143MOL0     O19200  10.995   7.562  11.741 -1.2358  0.5563 -0.0689
  143MOL0     C19201  10.958   7.459  11.657  0.1593 -0.1878  0.3674
  143MOL0     C19202  11.011   7.328  11.675 -1.1199  0.0126  0.0446
  143MOL0     C19203  10.969   7.220  11.601 -0.2110 -0.0094  0.1824
  143MOL0     C19204  10.871   7.235  11.511 -0.9370 -0.0873 -0.3942
  143MOL0     O19205  10.832   7.118  11.446 -0.0690  0.2380 -0.2861
  143MOL0     C19206  10.697   7.100  11.410 -0.0473  0.2016  0.3760
  143MOL0     C19207  10.660   6.971  11.337 -0.0156 -0.0732  1.3899
  143MOL0     C19208  10.716   6.972  11.190  0.0562 -0.5650  0.6107
  143MOL0     C19209  10.698   7.108  11.113  0.0835 -0.4728 -0.4741
  143MOL0     C19210  10.724   7.089  10.961  0.6242  0.4845 -0.4839
  143MOL0     C19211  10.687   7.213  10.878  1.3640 -0.5527 -1.2333
  143MOL0     C19212  10.719   7.199  10.732  0.1335  0.2624 -0.6830
  143MOL0     C19213  10.676   7.317  10.652  0.6578 -1.2981  0.7282
  143MOL0    Cl19214  10.495   7.322  10.639 -0.2723  0.2119 -0.3823
  143MOL0     C19215  10.803   7.358  11.504 -0.1241 -0.3350 -0.0255
  143MOL0     C19216  10.845   7.467  11.575 -0.8175 -0.4331 -0.1583
  143MOL0     O19217  11.012   7.713  11.573  0.3514 -0.6525 -0.5585
  143MOL0     C19218  11.144   7.889  11.756  0.8545  0.2915  0.6334
  143MOL0     C19219  11.185   7.987  11.839 -0.0776 -0.5603 -0.3551
  143MOL0     N19220  11.169   8.738  12.156  0.0083  0.5864  0.0532
  143MOL0     N19221  11.072   8.819  12.152  0.4893 -0.4999  0.2731
  143MOL0     C19222  10.881   9.292  11.212 -0.4134  0.1721 -0.7247
  143MOL0     C19223  10.888   9.425  11.173  0.5818 -0.5628 -0.3169
  143MOL0     C19224  10.954   9.867  11.308  0.0137  0.4704 -0.1543
  143MOL0     C19225  10.932   9.955  11.407  1.0134 -0.0565  0.2190
  143MOL0     C19226  10.949  10.093  11.405 -0.1119 -0.7672 -0.2506
  143MOL0     C19227  11.000  10.149  11.296  0.0543  0.3518 -0.6009
  143MOL0     O19228  11.023  10.284  11.304 -1.2236  0.4586 -0.1554
  143MOL0     C19229  11.103  10.341  11.201  0.1175 -0.1629 -0.4508
  143MOL0     C19230  11.157  10.487  11.250 -0.2456  0.6097 -0.0714
  143MOL0     C19231  11.202  10.575  11.133 -0.2553 -0.5168 -0.1910
  143MOL0     C19232  11.280  10.690  11.193 -0.8684 -0.6808 -0.0488
  143MOL0     C19233  11.309  10.792  11.087  1.6179  0.3881  0.4538
  143MOL0     C19234  11.322  10.885  11.015 -0.4113  0.0183 -0.3669
  143MOL0     C19235  11.030  10.072  11.179 -0.0924  0.0261  0.2541
  143MOL0     C19236  11.015   9.931  11.187  0.4636  0.0624  0.2295
  143MOL0     C19237  11.048   9.861  11.056  0.0160  0.8856  0.0096
  143MOL0     H19238  11.118   9.531  11.377 -2.5300  2.2357  0.2008
  143MOL0     H19239  11.097   9.284  11.455 -0.7801  2.3126  2.5485
  143MOL0     H19240  10.770   9.081  11.313 -3.0395 -4.1923  3.2440
  143MOL0     H19241  10.861   8.964  11.212 -2.6956  0.5142  0.5974
  143MOL0     H19242  10.942   8.858  11.413 -1.2079 -4.6014  1.0221
  143MOL0     H19243  10.767   8.842  11.381 -0.5431  1.6817 -0.2052
  143MOL0     H19244  10.708   8.999  11.566  0.8212  0.1457 -1.3105
  143MOL0     H19245  10.878   9.053  11.569 -0.6286  0.5992  1.0313
  143MOL0     H19246  10.749   8.786  11.645 -1.1051  1.1606 -0.0537
  143MOL0     H19247  10.927   8.816  11.640 -0.2851  0.5535  2.5222
  143MOL0     H19248  10.922   8.981  11.800 -0.8519  0.7717 -0.6905
  143MOL0     H19249  10.751   8.993  11.802  3.2445  3.4503 -0.7931
  143MOL0     H19250  10.765   8.732  11.890  1.4702 -0.6425  2.2471
  143MOL0     H19251  10.932   8.764  11.917  0.9381  0.4553  2.7171
  143MOL0     H19252  10.700   8.936  12.049 -0.4867 -0.3231  1.1225
  143MOL0     H19253  10.871   8.981  12.048 -2.4592  0.3574  1.5572
  143MOL0     H19254  10.812   8.835  12.258  3.2264 -0.9359  0.7252
  143MOL0     H19255  10.762   8.707  12.151  0.5852  0.2137 -1.5242
  143MOL0     H19256  10.937   8.525  12.177 -2.1411  1.1021 -2.3152
  143MOL0     H19257  11.324   8.524  12.222 -1.2990 -0.6844  1.3713
  143MOL0     H19258  11.171   8.452  12.291  0.4510  2.1158  2.8674
  143MOL0     H19259  11.103   8.341  12.093 -1.1243  1.0492  1.4411
  143MOL0     H19260  11.246   8.412  12.008  2.1106 -1.7944  0.5922
  143MOL0     H19261  11.279   8.237  12.252 -1.2890 -2.1850 -0.4732
  143MOL0     H19262  11.402   8.317  12.135  0.5367 -0.7982  2.1869
  143MOL0     H19263  11.390   8.097  12.056 -1.7872 -1.7598  0.0668
  143MOL0     H19264  11.293   8.190  11.943 -1.0118  0.6164  0.4477
  143MOL0     H19265  11.053   7.885  12.121  0.7588  0.9765  1.5310
  143MOL0     H19266  10.950   7.709  11.961 -1.4103  2.2089  0.5153
  143MOL0     H19267  11.088   7.324  11.752 -2.3750 -0.4764  1.3280
  143MOL0     H19268  11.016   7.124  11.618 -1.2353 -0.5280  0.1930
  143MOL0     H19269  10.629   7.083  11.494 -0.9538 -0.2094 -0.4228
  143MOL0     H19270  10.669   7.186  11.349  1.9805  0.6316 -0.0233
  143MOL0     H19271  10.699   6.878  11.379 -1.9874 -1.9979 -0.6927
  143MOL0     H19272  10.550   6.972  11.334 -0.1575  1.0206  4.2566
  143MOL0     H19273  10.821   6.943  11.198  0.9433  1.6340 -1.7086
  143MOL0     H19274  10.670   6.892  11.132 -1.3373  2.0530 -2.1804
  143MOL0     H19275  10.785   7.168  11.140 -0.7128  0.2013  0.6745
  143MOL0     H19276  10.602   7.158  11.126  0.8605  0.5760  1.7295
  143MOL0     H19277  10.667   7.005  10.920 -1.4119  0.1313  2.7032
  143MOL0     H19278  10.830   7.068  10.945  0.5333 -1.3538  0.9917
  143MOL0     H19279  10.579   7.206  10.891  1.6320 -2.1619  0.6293
  143MOL0     H19280  10.738   7.302  10.915  0.2231 -0.0217 -0.9007
  143MOL0     H19281  10.686   7.102  10.693 -1.2549 -1.3157  3.8232
  143MOL0     H19282  10.827   7.189  10.717  0.1927 -0.6831  0.2887
  143MOL0     H19283  10.697   7.412  10.701 -0.4277 -1.7215  2.0941
  143MOL0     H19284  10.726   7.310  10.555 -0.7434  1.9559 -0.3691
  143MOL0     H19285  10.708   7.357  11.452  0.0924 -1.0571 -0.4250
  143MOL0     H19286  10.787   7.558  11.586  0.1283 -0.1310  3.5359
  143MOL0     H19287  11.174   7.892  11.651 -0.0689 -1.5342  0.2789
  143MOL0     H19288  11.251   8.065  11.799  0.7867 -0.6581  0.8311
  143MOL0     H19289  10.818   9.234  11.146  0.8369 -3.4318  1.0023
  143MOL0     H19290  10.819   9.480  11.109 -1.4044 -0.1428  2.0355
  143MOL0     H19291  10.882   9.920  11.497 -0.1995 -3.7635 -1.6847
  143MOL0     H19292  10.934  10.155  11.492  2.5906 -1.6432  0.9518
  143MOL0     H19293  11.041  10.337  11.111  1.4561 -2.7956 -1.3622
  143MOL0     H19294  11.198  10.288  11.190  2.2453  3.4283 -0.8373
  143MOL0     H19295  11.239  10.485  11.323  1.7653  3.2449 -2.0658
  143MOL0     H19296  11.072  10.532  11.302 -2.0779 -1.0382 -1.4793
  143MOL0     H19297  11.122  10.610  11.066  2.3948  0.9984 -2.8111
  143MOL0     H19298  11.257  10.506  11.069 -0.3590  1.0232 -2.0345
  143MOL0     H19299  11.218  10.741  11.268 -4.3259 -0.8903 -2.4926
  143MOL0     H19300  11.379  10.662  11.230 -1.7851 -1.8824  1.6066
  143MOL0     H19301  11.337  10.979  10.966  1.5299 -0.1117 -0.0747
  143MOL0     H19302  11.072  10.113  11.087  0.4864 -0.0222  0.4946
  143MOL0     H19303  11.153   9.832  11.066  0.1239  1.8623  2.4665
  143MOL0     H19304  10.982   9.781  11.022  0.3591  0.1209  1.0793
  143MOL0     H19305  11.047   9.934  10.975  1.9524 -0.3836 -1.2246
  144MOL0     O19306   1.200   3.681   0.812  0.3914  0.0753 -0.0439
  144MOL0     C19307   1.245   3.583   0.868  0.2971 -0.1516  0.0805
  144MOL0     O19308   1.167   3.472   0.895  0.5329  0.1366 -0.1101
  144MOL0     C19309   1.053   3.429   0.837 -0.0515 -0.4335 -0.1417
  144MOL0     C19310   1.037   3.469   0.701 -1.2619  0.5037 -0.7270
  144MOL0     C19311   0.914   3.448   0.635  0.5445 -0.0726 -1.3381
  144MOL0     C19312   0.810   3.391   0.712  0.9414 -1.9277  0.1684
  144MOL0     O19313   0.687   3.356   0.643 -0.4068 -0.0499  0.3782
  144MOL0     C19314   0.590   3.291   0.733 -0.3242 -0.2564 -0.7868
  144MOL0     C19315   0.450   3.255   0.683  0.5964  0.0798 -0.0101
  144MOL0     C19316   0.431   3.208   0.537 -0.2552  0.7245  0.0226
  144MOL0     C19317   0.292   3.153   0.515 -0.1995  0.1246 -0.8378
  144MOL0     C19318   0.277   3.080   0.383 -0.8931  0.4135  0.1871
  144MOL0     C19319   0.266   3.179   0.270  0.0551  0.2873 -0.4787
  144MOL0     C19320   0.233   3.105   0.146 -0.4235 -0.2368 -0.0684
  144MOL0     C19321   0.211   3.209   0.035  0.8440 -0.2875  1.3562
  144MOL0     N19322   0.094   3.175  -0.046 -0.3173 -0.1895  0.5525
  144MOL0     C19323  -0.034   3.208  -0.039 -0.0116 -0.0156  0.2396
  144MOL0     C19324  -0.093   3.173  -0.152 -0.5674 -0.7670 -0.5299
  144MOL0     C19325  -0.234   3.193  -0.188 -0.3278  0.2472 -0.4282
  144MOL0     C19326  -0.248   3.227  -0.333  0.7904 -0.5726 -0.5959
  144MOL0     C19327  -0.394   3.276  -0.376 -0.4614 -0.2608  0.5159
  144MOL0     C19328  -0.410   3.285  -0.528  0.8291 -0.4201 -0.4763
  144MOL0     O19329  -0.319   3.383  -0.588  0.0203 -0.5573  0.7969
  144MOL0     C19330  -0.273   3.367  -0.716 -0.0598  0.1593 -0.6992
  144MOL0     C19331  -0.350   3.293  -0.805  0.2087  0.0632  0.8466
  144MOL0     C19332  -0.303   3.257  -0.935 -0.0090 -0.4301 -0.2072
  144MOL0     C19333  -0.177   3.306  -0.978  0.0558 -0.4789  0.0292
  144MOL0     C19334  -0.121   3.271  -1.109  0.0401 -0.2070  0.7394
  144MOL0     O19335  -0.000   3.331  -1.131 -0.0803 -0.0225  0.5359
  144MOL0     C19336   0.047   3.326  -1.267  0.6490 -0.9207 -0.2922
  144MOL0     C19337   0.164   3.255  -1.289  0.0867 -0.3783 -0.1790
  144MOL0     C19338   0.223   3.240  -1.421  0.0877 -0.2099 -0.8131
  144MOL0     C19339   0.164   3.307  -1.531  0.7205 -0.2079 -1.1309
  144MOL0     O19340   0.243   3.314  -1.638 -0.1876 -0.2745 -0.3643
  144MOL0     C19341   0.185   3.325  -1.773  0.2326 -0.0767 -0.4514
  144MOL0     C19342   0.308   3.336  -1.869 -1.2666  0.4612 -0.4592
  144MOL0     C19343   0.367   3.472  -1.864 -0.7823  0.3371  0.0456
  144MOL0     C19344   0.288   3.586  -1.938  0.3900  1.1057  0.1210
  144MOL0     C19345   0.286   3.563  -2.086  0.3553  0.4582  1.2557
  144MOL0     C19346   0.279   3.696  -2.162  0.3593  0.1688 -0.6645
  144MOL0     C19347   0.295   3.682  -2.312 -0.1132  0.6288 -0.0053
  144MOL0     C19348   0.219   3.791  -2.388  0.2317 -0.4512 -0.3163
  144MOL0    Cl19349   0.308   3.803  -2.539  0.6638  0.5085  0.0144
  144MOL0     C19350   0.042   3.374  -1.512 -0.0623 -0.6425  0.6810
  144MOL0     C19351  -0.020   3.375  -1.389  0.4236  0.5948 -0.8701
  144MOL0     O19352  -0.180   3.194  -1.186  0.2751 -0.5729 -0.0619
  144MOL0     C19353  -0.100   3.393  -0.894  0.1306 -0.4246  0.2489
  144MOL0     C19354  -0.146   3.421  -0.758 -0.6782 -1.1856  0.2258
  144MOL0     N19355   0.003   3.106  -0.227  0.2677  0.4567  0.0642
  144MOL0     N19356   0.112   3.107  -0.162  1.6103 -0.9511  0.1846
  144MOL0     C19357   0.831   3.360   0.849  0.8324 -0.1838 -0.2099
  144MOL0     C19358   0.948   3.384   0.912 -0.2358 -0.0259  0.1477
  144MOL0     C19359   1.379   3.581   0.938  0.8673  0.7950 -0.1525
  144MOL0     C19360   1.401   3.494   1.047 -1.2526  0.2550  0.6094
  144MOL0     C19361   1.522   3.501   1.119  0.2497  0.5284 -0.5881
  144MOL0     C19362   1.610   3.608   1.093  0.7793  0.7017  0.6602
  144MOL0     O19363   1.715   3.613   1.174  0.4710  0.4712  0.3897
  144MOL0     C19364   1.764   3.732   1.229 -0.1681 -0.6160  0.4280
  144MOL0     C19365   1.834   3.704   1.360  0.5723 -0.0291 -0.3455
  144MOL0     C19366   1.957   3.615   1.338 -0.2423 -0.6040 -0.5181
  144MOL0     C19367   1.991   3.526   1.463 -0.4517  1.1977 -0.5682
  144MOL0     C19368   2.054   3.626   1.569  0.2485  0.2789  0.3706
  144MOL0     C19369   2.094   3.702   1.647  0.0430  0.6832  0.0536
  144MOL0     C19370   1.590   3.694   0.989 -0.1604  0.7739  0.3871
  144MOL0     C19371   1.482   3.673   0.903  0.6650  0.0075  0.0371
  144MOL0     C19372   1.488   3.725   0.761 -0.3557  0.0681 -0.2252
  144MOL0     H19373   1.120   3.513   0.646  0.0916 -0.4449  0.5015
  144MOL0     H19374   0.888   3.445   0.530 -2.6775 -2.3920 -0.6374
  144MOL0     H19375   0.623   3.205   0.793 -1.3040 -0.4622 -0.5148
  144MOL0     H19376   0.579   3.373   0.805  1.4082  0.1716 -0.9581
  144MOL0     H19377   0.379   3.337   0.700 -0.0554 -0.6356  0.7863
  144MOL0     H19378   0.418   3.170   0.744 -1.2284  0.3479 -0.5309
  144MOL0     H19379   0.506   3.131   0.516  0.6211  0.6515  2.9708
  144MOL0     H19380   0.440   3.297   0.474 -1.5706 -1.5468 -3.7062
  144MOL0     H19381   0.282   3.080   0.596  2.1128  0.4339 -0.2016
  144MOL0     H19382   0.214   3.228   0.525  1.4199  1.7838 -0.0385
  144MOL0     H19383   0.362   3.012   0.371 -0.0975  1.1379  1.4237
  144MOL0     H19384   0.190   3.016   0.393 -2.1387  2.1850  1.1706
  144MOL0     H19385   0.186   3.252   0.281 -0.5428 -0.3626 -0.4509
  144MOL0     H19386   0.364   3.226   0.252  0.5358 -0.0013  1.2691
  144MOL0     H19387   0.142   3.049   0.168  0.2630 -1.0001  0.9586
  144MOL0     H19388   0.310   3.032   0.118 -1.8485 -2.6639  1.9082
  144MOL0     H19389   0.189   3.305   0.084  1.7767 -0.5614  2.3572
  144MOL0     H19390   0.304   3.226  -0.021  1.8286  4.2853  3.8598
  144MOL0     H19391  -0.076   3.269   0.041  3.4356 -0.4304  2.5582
  144MOL0     H19392  -0.294   3.106  -0.157 -0.9836  0.9920  0.4439
  144MOL0     H19393  -0.285   3.279  -0.144 -0.3014  1.8112 -3.2756
  144MOL0     H19394  -0.187   3.315  -0.352 -2.7537  1.7456 -2.2064
  144MOL0     H19395  -0.210   3.138  -0.384  0.2069 -1.0867 -0.1531
  144MOL0     H19396  -0.417   3.379  -0.346 -1.8559 -0.6609  0.9007
  144MOL0     H19397  -0.462   3.204  -0.327 -2.0841  0.9647  0.1658
  144MOL0     H19398  -0.512   3.316  -0.555  0.5527  2.0556  2.7376
  144MOL0     H19399  -0.404   3.180  -0.557 -1.7611 -1.6300  2.6985
  144MOL0     H19400  -0.444   3.253  -0.768  0.4458  0.2791  1.7105
  144MOL0     H19401  -0.366   3.188  -0.991  1.4644 -2.9413  1.0723
  144MOL0     H19402   0.215   3.200  -1.210  0.3995 -3.5196 -2.3801
  144MOL0     H19403   0.316   3.188  -1.441  2.1354  3.5894 -2.2064
  144MOL0     H19404   0.132   3.230  -1.781 -1.2496  0.8745 -2.5886
  144MOL0     H19405   0.108   3.400  -1.791  1.0365  0.7772 -0.3885
  144MOL0     H19406   0.372   3.257  -1.829 -1.8366 -1.1592 -2.5447
  144MOL0     H19407   0.281   3.302  -1.970 -1.8237  0.3792 -0.2868
  144MOL0     H19408   0.403   3.490  -1.762 -1.1796 -0.0099  0.2487
  144MOL0     H19409   0.462   3.459  -1.918 -0.2453 -4.0232  1.6578
  144MOL0     H19410   0.342   3.678  -1.913  0.7926  0.9956 -0.3178
  144MOL0     H19411   0.190   3.596  -1.890  0.5791  3.3292  0.1311
  144MOL0     H19412   0.203   3.500  -2.118  2.6391 -1.1886 -1.9376
  144MOL0     H19413   0.373   3.508  -2.121 -1.2022 -1.7673  0.6808
  144MOL0     H19414   0.179   3.735  -2.138  0.5102  0.3724 -0.3699
  144MOL0     H19415   0.352   3.767  -2.121  3.0641 -2.3695 -0.7800
  144MOL0     H19416   0.251   3.588  -2.347 -1.6008  0.7058  1.5448
  144MOL0     H19417   0.401   3.672  -2.337 -0.1786  1.9260 -0.8996
  144MOL0     H19418   0.117   3.771  -2.420  0.4008  2.3795 -3.1991
  144MOL0     H19419   0.220   3.883  -2.328  1.8065 -0.9157  0.4423
  144MOL0     H19420  -0.011   3.420  -1.595 -0.2007 -0.9061  0.6242
  144MOL0     H19421  -0.123   3.404  -1.374 -0.1363  0.1262 -3.3938
  144MOL0     H19422  -0.001   3.433  -0.913  0.3219 -0.2011  1.6191
  144MOL0     H19423  -0.088   3.480  -0.688 -1.9747 -0.3140  0.5978
  144MOL0     H19424   0.752   3.316   0.909  0.9160 -1.8140 -1.2326
  144MOL0     H19425   0.958   3.354   1.015 -0.8951 -2.3744 -0.4042
  144MOL0     H19426   1.326   3.421   1.077 -0.0938 -0.0440  2.9752
  144MOL0     H19427   1.545   3.422   1.189 -0.9245  0.7065  0.0345
  144MOL0     H19428   1.677   3.799   1.235 -2.0413 -2.8735 -0.0209
  144MOL0     H19429   1.829   3.776   1.153  1.1543 -0.5283  1.5813
  144MOL0     H19430   1.763   3.656   1.429  0.4665 -0.7453 -0.9413
  144MOL0     H19431   1.858   3.799   1.409  4.3065 -1.1318  0.2599
  144MOL0     H19432   2.033   3.687   1.306 -1.5969  0.4236 -1.5529
  144MOL0     H19433   1.938   3.545   1.256  0.8602  1.9362 -3.1290
  144MOL0     H19434   1.901   3.481   1.507  2.3012 -3.3775  1.0514
  144MOL0     H19435   2.063   3.445   1.447 -2.2850 -0.5037 -0.6149
  144MOL0     H19436   2.134   3.777   1.712  3.9189 -1.4083  0.4085
  144MOL0     H19437   1.666   3.768   0.966  0.8609 -0.8338 -1.6914
  144MOL0     H19438   1.441   3.823   0.750  0.4529  0.4481 -0.3736
  144MOL0     H19439   1.588   3.760   0.734 -1.2997  1.8844 -1.6758
  144MOL0     H19440   1.446   3.654   0.690  1.1075  0.5919 -1.6870
  145MOL0     O19441   1.727   3.567   5.330 -0.0805 -0.1572  0.3165
  145MOL0     C19442   1.723   3.587   5.453 -0.4246 -0.4727  0.2364
  145MOL0     O19443   1.830   3.559   5.543  0.1699 -0.5479  0.5102
  145MOL0     C19444   1.942   3.518   5.491 -0.2657  1.2889  0.2390
  145MOL0     C19445   1.957   3.376   5.480 -0.1648 -0.2068 -0.6456
  145MOL0     C19446   2.081   3.337   5.435  0.3795 -0.6688 -0.0219
  145MOL0     C19447   2.185   3.419   5.402 -0.1689 -0.6002 -0.2317
  145MOL0     O19448   2.318   3.390   5.360  0.6613 -0.5934 -0.1155
  145MOL0     C19449   2.345   3.254   5.371  0.2817  1.3249 -1.5520
  145MOL0     C19450   2.360   3.181   5.230 -0.1204 -0.1810 -0.8709
  145MOL0     C19451   2.490   3.231   5.166 -0.0352 -0.2569 -0.0817
  145MOL0     C19452   2.515   3.164   5.030  0.8035  0.6420 -0.0734
  145MOL0     C19453   2.639   3.214   4.960 -0.6298 -0.8398  0.4347
  145MOL0     C19454   2.699   3.118   4.857  0.3054  0.8248  0.1585
  145MOL0     C19455   2.796   3.173   4.751 -0.4420  0.7942  0.6003
  145MOL0     C19456   2.908   3.058   4.744  0.4447 -0.4290 -0.4057
  145MOL0     N19457   3.008   3.090   4.852 -0.6259 -0.6475  0.6686
  145MOL0     C19458   3.018   3.042   4.979  0.0429  0.4848 -0.2208
  145MOL0     C19459   3.128   3.104   5.026 -0.1313 -0.1434  0.2218
  145MOL0     C19460   3.194   3.071   5.156  0.6580 -0.5538  0.2337
  145MOL0     C19461   3.336   2.997   5.141  0.2385  0.4239 -0.7744
  145MOL0     C19462   3.398   2.995   5.282 -0.2396  1.2076  0.4920
  145MOL0     C19463   3.523   2.907   5.282  0.4475  0.3595  1.2996
  145MOL0     O19464   3.611   2.995   5.213  0.0788  0.8954 -0.7503
  145MOL0     C19465   3.751   2.974   5.226 -0.4705  0.2510  0.1142
  145MOL0     C19466   3.801   2.861   5.290 -0.7045 -0.7913 -0.6728
  145MOL0     C19467   3.930   2.859   5.331  0.1130  0.2052  0.1029
  145MOL0     C19468   4.015   2.965   5.290  0.4257  0.5261 -0.2055
  145MOL0     C19469   4.160   2.949   5.297 -0.3665 -0.2471 -0.2938
  145MOL0     O19470   4.237   3.061   5.289  0.4369  0.8151 -0.1601
  145MOL0     C19471   4.376   3.060   5.267  0.9635 -0.0536  1.1630
  145MOL0     C19472   4.449   2.991   5.165  0.9480  0.1790  0.6697
  145MOL0     C19473   4.586   2.995   5.174  0.7560 -0.0216  1.4449
  145MOL0     C19474   4.657   3.082   5.251  0.9788 -0.3018  0.4434
  145MOL0     O19475   4.795   3.093   5.224  0.3327  0.5383  0.3485
  145MOL0     C19476   4.879   3.180   5.297 -0.1673  0.7152 -0.2781
  145MOL0     C19477   4.863   3.332   5.289 -0.7915 -1.0218  0.8788
  145MOL0     C19478   4.847   3.380   5.137  0.7022  0.7403  0.3622
  145MOL0     C19479   4.701   3.435   5.110  0.3464  0.1437  0.2257
  145MOL0     C19480   4.668   3.407   4.957  0.1597 -0.8893 -0.5388
  145MOL0     C19481   4.614   3.268   4.935  0.4109  0.4845 -0.2701
  145MOL0     C19482   4.570   3.250   4.789  0.4490  0.3691 -0.1645
  145MOL0     C19483   4.561   3.102   4.762  0.2173  0.6934 -1.4671
  145MOL0    Cl19484   4.440   3.081   4.632 -0.0945  0.1833  0.2336
  145MOL0     C19485   4.586   3.154   5.353 -0.1598  0.9255  0.7019
  145MOL0     C19486   4.452   3.131   5.357 -0.6620 -0.7737 -1.0720
  145MOL0     O19487   4.203   2.836   5.301  0.4371  0.5160 -0.3341
  145MOL0     C19488   3.968   3.064   5.202  0.3482 -0.4602  0.6565
  145MOL0     C19489   3.834   3.067   5.173  0.5596 -0.3895 -0.0307
  145MOL0     N19490   3.174   3.191   4.932 -0.1077  0.6749  0.0803
  145MOL0     N19491   3.104   3.178   4.833  0.5398  0.0399 -0.0445
  145MOL0     C19492   2.165   3.562   5.419  0.1913 -0.6921  0.3462
  145MOL0     C19493   2.039   3.604   5.466  0.6538  0.0711 -1.0079
  145MOL0     C19494   1.598   3.634   5.506  1.0943 -0.1873  0.4403
  145MOL0     C19495   1.543   3.742   5.435  0.5625  0.4591  0.0144
  145MOL0     C19496   1.421   3.793   5.483  0.8989  0.6568  0.6799
  145MOL0     C19497   1.358   3.747   5.597  0.0720  0.4021 -0.1388
  145MOL0     O19498   1.245   3.806   5.631 -0.3275  0.3167 -0.7384
  145MOL0     C19499   1.197   3.781   5.768  0.3986  0.8998  1.1290
  145MOL0     C19500   1.102   3.656   5.761  0.1527 -0.4821  0.0680
  145MOL0     C19501   1.055   3.632   5.899 -0.0013  0.5837 -0.4961
  145MOL0     C19502   0.950   3.519   5.909 -0.6173  0.1201  0.5411
  145MOL0     C19503   0.823   3.544   5.822 -0.0997 -0.0250  0.3051
  145MOL0     C19504   0.715   3.565   5.768  0.9975 -0.2344  0.8811
  145MOL0     C19505   1.424   3.647   5.672 -0.8780 -0.4059  0.0529
  145MOL0     C19506   1.545   3.592   5.628 -1.0502 -0.1767  0.3202
  145MOL0     C19507   1.598   3.463   5.697  0.4570 -0.0311 -0.2181
  145MOL0     H19508   1.881   3.304   5.509  0.4350 -1.0037 -0.9889
  145MOL0     H19509   2.090   3.229   5.428  1.3936 -0.5449 -0.9705
  145MOL0     H19510   2.438   3.239   5.427 -0.6565  0.6978 -0.1007
  145MOL0     H19511   2.272   3.206   5.437 -1.4649  5.2432 -0.3683
  145MOL0     H19512   2.270   3.181   5.168 -0.6609 -2.1591 -0.1452
  145MOL0     H19513   2.375   3.073   5.240  0.1007 -0.0105  0.9074
  145MOL0     H19514   2.573   3.206   5.233 -0.8574 -0.6840  0.8240
  145MOL0     H19515   2.498   3.340   5.162 -1.3599 -0.1710 -1.4344
  145MOL0     H19516   2.531   3.057   5.050  1.6946  1.1727  2.3258
  145MOL0     H19517   2.429   3.164   4.962  1.3350 -0.2378 -0.7635
  145MOL0     H19518   2.612   3.307   4.910 -0.6367  0.2754  2.3929
  145MOL0     H19519   2.723   3.236   5.027 -0.7196  1.7850 -0.2016
  145MOL0     H19520   2.732   3.028   4.910 -4.2094  1.8301  5.6967
  145MOL0     H19521   2.619   3.087   4.789  2.2197 -3.0301 -0.5939
  145MOL0     H19522   2.841   3.269   4.776  2.6243  0.4730 -2.9247
  145MOL0     H19523   2.745   3.179   4.654 -0.4133 -2.6110  0.2300
  145MOL0     H19524   2.876   2.954   4.741  2.0637 -0.9875  0.2935
  145MOL0     H19525   2.950   3.065   4.644 -1.0374  0.2466 -1.0170
  145MOL0     H19526   2.964   2.959   5.023  3.7563 -0.2342  3.6068
  145MOL0     H19527   3.203   3.155   5.225  0.7229 -1.0398  0.8330
  145MOL0     H19528   3.117   3.013   5.208 -3.9420  1.4999 -3.5851
  145MOL0     H19529   3.327   2.892   5.114 -0.7569 -0.2063  1.7069
  145MOL0     H19530   3.402   3.048   5.070 -2.0018  1.4391 -2.2317
  145MOL0     H19531   3.320   2.952   5.344 -3.2727  0.7713 -3.2185
  145MOL0     H19532   3.424   3.097   5.313  3.3788  1.3398 -2.1805
  145MOL0     H19533   3.507   2.815   5.227  2.5675 -0.2212  1.5567
  145MOL0     H19534   3.558   2.887   5.384  0.0985 -0.8742  1.1962
  145MOL0     H19535   3.745   2.777   5.329 -0.7265  0.4780  2.4017
  145MOL0     H19536   3.960   2.781   5.401  0.6021  1.8344  1.7815
  145MOL0     H19537   4.409   2.910   5.105 -0.1762  0.5729  0.8571
  145MOL0     H19538   4.634   2.933   5.099  0.3673 -0.5300  1.6143
  145MOL0     H19539   4.881   3.150   5.402 -2.3190 -1.0275 -0.6526
  145MOL0     H19540   4.978   3.148   5.263 -0.1194 -3.4872  2.9585
  145MOL0     H19541   4.782   3.360   5.356  1.3211 -1.0028  3.6056
  145MOL0     H19542   4.955   3.379   5.323 -0.0402 -1.2269 -0.7535
  145MOL0     H19543   4.917   3.461   5.117  1.8097  0.3282  2.3112
  145MOL0     H19544   4.864   3.293   5.072  0.6898 -0.1414  1.5039
  145MOL0     H19545   4.706   3.544   5.116  1.7042  0.1034  0.2822
  145MOL0     H19546   4.623   3.380   5.164 -1.4095  0.2468 -2.0528
  145MOL0     H19547   4.753   3.436   4.894  0.7942 -0.0548  0.6636
  145MOL0     H19548   4.592   3.479   4.924  2.9137  2.3945 -0.4074
  145MOL0     H19549   4.698   3.200   4.953  0.9525  0.8740 -1.2928
  145MOL0     H19550   4.528   3.253   5.002  0.3307  0.9884 -0.2564
  145MOL0     H19551   4.641   3.297   4.720  0.5711  0.2777 -0.1014
  145MOL0     H19552   4.470   3.290   4.771  0.1773  0.1288  0.7561
  145MOL0     H19553   4.659   3.061   4.736  0.0676 -0.7770  0.0908
  145MOL0     H19554   4.532   3.036   4.844  4.9758 -1.2874 -1.0489
  145MOL0     H19555   4.649   3.217   5.416  2.2679  0.7649 -1.3908
  145MOL0     H19556   4.389   3.184   5.428  1.0316 -0.1384  0.0138
  145MOL0     H19557   4.032   3.137   5.155  0.9938 -0.4168  1.5674
  145MOL0     H19558   3.808   3.162   5.128 -0.6646 -1.0333 -0.7413
  145MOL0     H19559   2.249   3.631   5.411  1.1130 -1.8710 -0.6559
  145MOL0     H19560   2.012   3.703   5.500 -0.8517 -0.1620 -1.4163
  145MOL0     H19561   1.578   3.770   5.336  1.7590 -2.5885 -0.5282
  145MOL0     H19562   1.369   3.860   5.416 -2.4383 -2.4248 -0.0861
  145MOL0     H19563   1.130   3.866   5.787 -2.3887  0.5250 -4.8002
  145MOL0     H19564   1.270   3.758   5.846 -0.9905 -0.3332  2.1326
  145MOL0     H19565   1.150   3.561   5.733  0.8198 -0.4204  0.9898
  145MOL0     H19566   1.028   3.685   5.686  0.4839  2.0037  0.6145
  145MOL0     H19567   1.007   3.725   5.930  2.7113  2.3971 -1.3238
  145MOL0     H19568   1.132   3.615   5.975 -2.4083 -4.3847  1.3324
  145MOL0     H19569   0.996   3.422   5.886 -1.2213 -0.8277  3.0468
  145MOL0     H19570   0.923   3.513   6.014  2.4990  0.9722  1.5035
  145MOL0     H19571   0.616   3.575   5.728  0.0835 -0.2368  3.0122
  145MOL0     H19572   1.390   3.609   5.768 -1.4980 -0.9873 -0.3904
  145MOL0     H19573   1.695   3.465   5.748  0.3332 -2.2764  0.1906
  145MOL0     H19574   1.527   3.434   5.776  3.3015 -1.2844  2.0789
  145MOL0     H19575   1.612   3.390   5.617  0.3140 -0.2784 -0.0184
  146MOL0     O19576   6.377  10.919  10.823  0.2870 -0.2622 -0.3126
  146MOL0     C19577   6.489  10.883  10.776 -0.0941 -0.5455  0.1449
  146MOL0     O19578   6.525  10.768  10.717 -0.5080  0.3240 -0.2546
  146MOL0     C19579   6.440  10.678  10.683  1.6536  0.7202 -0.8826
  146MOL0     C19580   6.374  10.690  10.560  0.3109 -0.1423  0.1665
  146MOL0     C19581   6.289  10.596  10.510  1.8194 -0.2804  0.0596
  146MOL0     C19582   6.238  10.505  10.601  0.4387  0.4337  0.2349
  146MOL0     O19583   6.133  10.419  10.563  0.3854  0.0611  0.4944
  146MOL0     C19584   6.026  10.485  10.494 -0.7244  0.1272 -0.4308
  146MOL0     C19585   5.893  10.493  10.574  0.0712 -0.4375  0.0672
  146MOL0     C19586   5.909  10.525  10.722  0.5119  0.1719  0.1976
  146MOL0     C19587   5.959  10.670  10.738 -0.2679 -0.3570  0.8159
  146MOL0     C19588   5.985  10.701  10.889  0.9617 -0.2139 -0.7297
  146MOL0     C19589   6.136  10.703  10.935 -0.2487  0.7989 -0.2760
  146MOL0     C19590   6.161  10.769  11.068  0.1305  0.0409 -0.0866
  146MOL0     C19591   6.306  10.749  11.104 -0.4124 -0.8393  0.1990
  146MOL0     N19592   6.365  10.861  11.183 -0.3316 -0.0404  0.2542
  146MOL0     C19593   6.482  10.912  11.157 -0.3658  0.4532  0.2327
  146MOL0     C19594   6.489  11.004  11.263 -0.0194 -0.3512 -0.1166
  146MOL0     C19595   6.599  11.102  11.306 -0.1728 -1.5150  0.8158
  146MOL0     C19596   6.639  11.189  11.190 -0.5452 -0.1045  0.3052
  146MOL0     C19597   6.559  11.308  11.166  0.7650  0.3170 -0.3592
  146MOL0     C19598   6.628  11.430  11.222  0.2199  0.1744 -0.0405
  146MOL0     O19599   6.586  11.546  11.153  0.1470 -0.3336  0.4235
  146MOL0     C19600   6.616  11.664  11.215 -0.3172  0.3785  0.1686
  146MOL0     C19601   6.749  11.703  11.239 -1.1333 -0.1540  0.8138
  146MOL0     C19602   6.780  11.822  11.306 -0.7322 -0.3443  0.7224
  146MOL0     C19603   6.681  11.904  11.345 -0.3633  0.3639  0.3671
  146MOL0     C19604   6.706  12.039  11.398 -0.4828 -0.1013 -0.7658
  146MOL0     O19605   6.839  12.084  11.402 -0.8606  0.5916 -0.6177
  146MOL0     C19606   6.868  12.180  11.491 -0.3407  0.5210 -0.2970
  146MOL0     C19607   6.942  12.143  11.607  0.5409 -0.6392 -0.5271
  146MOL0     C19608   6.991  12.248  11.685 -0.0566 -0.6208 -0.2547
  146MOL0     C19609   6.966  12.381  11.660 -0.0850  0.1076 -0.1938
  146MOL0     O19610   6.993  12.490  11.741  0.9311 -0.0998  0.1124
  146MOL0     C19611   7.033  12.474  11.871 -0.2581 -0.3892 -0.7459
  146MOL0     C19612   7.054  12.618  11.934  0.2303  0.2126 -0.5740
  146MOL0     C19613   7.162  12.695  11.870  0.4278  0.2104  0.9669
  146MOL0     C19614   7.218  12.808  11.958  0.8227 -1.0711  0.0530
  146MOL0     C19615   7.295  12.928  11.887  0.5824 -0.1496 -0.5757
  146MOL0     C19616   7.419  12.879  11.833  0.6977 -0.1334 -0.5927
  146MOL0     C19617   7.502  13.001  11.768 -0.7472  0.7387  0.5400
  146MOL0     C19618   7.423  13.064  11.658  0.2651 -0.7256 -0.2021
  146MOL0    Cl19619   7.356  13.229  11.716 -0.2523  0.1906  0.5330
  146MOL0     C19620   6.883  12.413  11.553 -0.0733  0.6580  1.2420
  146MOL0     C19621   6.836  12.315  11.466 -0.3738  0.6387  0.8400
  146MOL0     O19622   6.616  12.107  11.447  0.1344  0.6658  0.4062
  146MOL0     C19623   6.547  11.878  11.308  0.6079  0.3972 -0.3781
  146MOL0     C19624   6.515  11.763  11.234  0.3283  0.3411  0.0134
  146MOL0     N19625   6.382  11.012  11.339  0.3642  0.2750 -1.0713
  146MOL0     N19626   6.303  10.920  11.290  0.5824  0.1707 -0.8434
  146MOL0     C19627   6.294  10.489  10.724 -0.2033 -0.3583  0.5349
  146MOL0     C19628   6.399  10.578  10.761  0.0155 -0.4875 -0.1265
  146MOL0     C19629   6.604  10.975  10.794  0.0803  0.3397 -0.4571
  146MOL0     C19630   6.735  10.923  10.804  0.3701  0.9335 -0.4326
  146MOL0     C19631   6.849  11.003  10.810  0.6455 -0.6816 -0.2634
  146MOL0     C19632   6.842  11.137  10.835 -0.6723  0.2955  0.1099
  146MOL0     O19633   6.955  11.209  10.868 -0.5973 -0.0743 -0.6259
  146MOL0     C19634   6.950  11.345  10.905 -0.6264 -1.1971  0.2044
  146MOL0     C19635   6.946  11.349  11.053  0.4977 -0.5304  0.3314
  146MOL0     C19636   7.068  11.289  11.127  0.9056  1.1324  0.3390
  146MOL0     C19637   7.031  11.234  11.263  0.4568  1.3282  0.2628
  146MOL0     C19638   6.962  11.339  11.337 -0.2777  0.1381 -1.0756
  146MOL0     C19639   6.916  11.434  11.392  0.4831 -0.1189  0.7903
  146MOL0     C19640   6.710  11.192  10.826  0.4685  0.7327 -0.4247
  146MOL0     C19641   6.596  11.118  10.797 -0.1420  0.3515 -0.2208
  146MOL0     C19642   6.472  11.199  10.763  0.4524  0.2057 -0.2581
  146MOL0     H19643   6.402  10.775  10.498 -1.4298 -1.0500 -1.9897
  146MOL0     H19644   6.270  10.602  10.404  1.9390 -1.9240 -0.0787
  146MOL0     H19645   6.041  10.591  10.471 -1.5394  0.2818 -0.2856
  146MOL0     H19646   5.999  10.440  10.398 -2.0575 -0.3889  0.1716
  146MOL0     H19647   5.837  10.399  10.573 -2.2319  0.8315  1.1061
  146MOL0     H19648   5.834  10.571  10.526 -0.8300 -0.3766  1.2387
  146MOL0     H19649   5.982  10.452  10.760 -0.0886 -0.1369  0.7638
  146MOL0     H19650   5.813  10.521  10.773 -0.9032 -0.0811 -2.3388
  146MOL0     H19651   6.045  10.689  10.674 -0.2448 -0.6379  0.7651
  146MOL0     H19652   5.886  10.744  10.703  1.7817  1.5531  0.3627
  146MOL0     H19653   5.947  10.803  10.900  1.1724 -0.0087 -1.7302
  146MOL0     H19654   5.919  10.643  10.954  2.9108 -1.5325  0.1566
  146MOL0     H19655   6.164  10.601  10.961  0.1428  1.3887  1.7833
  146MOL0     H19656   6.190  10.755  10.855 -1.9150 -1.2446 -2.9282
  146MOL0     H19657   6.097  10.732  11.148 -0.5583  3.7182  1.2743
  146MOL0     H19658   6.129  10.873  11.055 -2.1709  0.1654  4.6054
  146MOL0     H19659   6.325  10.662  11.167  2.9381 -1.1313 -0.9893
  146MOL0     H19660   6.378  10.740  11.022  0.1996  1.1966  0.4474
  146MOL0     H19661   6.568  10.891  11.094 -1.5660  0.5200 -1.5028
  146MOL0     H19662   6.563  11.157  11.393  1.0860  1.7575 -0.5473
  146MOL0     H19663   6.684  11.045  11.344  0.5795 -2.0795 -1.5097
  146MOL0     H19664   6.743  11.216  11.209 -0.4552 -0.5575  0.4700
  146MOL0     H19665   6.640  11.127  11.100  0.8012  1.1541 -0.5996
  146MOL0     H19666   6.465  11.284  11.216  1.2968 -1.1277 -0.0227
  146MOL0     H19667   6.542  11.340  11.063 -0.5682 -1.2911 -0.6711
  146MOL0     H19668   6.737  11.418  11.215  0.2386  0.6410 -0.5890
  146MOL0     H19669   6.594  11.443  11.325  0.5658  0.8532 -0.0041
  146MOL0     H19670   6.837  11.647  11.207 -1.1587  0.6539 -0.7687
  146MOL0     H19671   6.880  11.856  11.329 -1.1781 -0.1962  2.5307
  146MOL0     H19672   6.967  12.040  11.629  1.1777 -0.3303  0.2625
  146MOL0     H19673   7.055  12.222  11.769 -1.5991 -0.1843  1.1061
  146MOL0     H19674   6.968  12.414  11.935 -1.8378  2.3716  0.4009
  146MOL0     H19675   7.131  12.425  11.866  0.2501  0.2372  1.6736
  146MOL0     H19676   6.964  12.678  11.922 -0.7126 -1.3957 -2.0075
  146MOL0     H19677   7.084  12.591  12.036 -1.8074  1.5128  0.4393
  146MOL0     H19678   7.249  12.633  11.844 -1.0656 -0.4685 -2.9873
  146MOL0     H19679   7.136  12.744  11.777 -1.0891 -0.2377  1.1375
  146MOL0     H19680   7.276  12.770  12.043  0.4638  1.3762  1.4994
  146MOL0     H19681   7.130  12.857  12.001  1.7933  1.4438 -0.6168
  146MOL0     H19682   7.303  13.012  11.957  1.7395 -0.3777 -0.4052
  146MOL0     H19683   7.227  12.961  11.809  0.0213  1.0953  0.4020
  146MOL0     H19684   7.470  12.822  11.911  0.1880 -1.1747 -0.9923
  146MOL0     H19685   7.402  12.808  11.751 -1.1564  1.5014 -1.7131
  146MOL0     H19686   7.591  12.962  11.718 -2.7394 -0.8163 -2.0616
  146MOL0     H19687   7.534  13.080  11.837  2.2347  1.2303 -1.2187
  146MOL0     H19688   7.490  13.063  11.572  0.6516 -2.5843  0.0882
  146MOL0     H19689   7.335  13.007  11.627 -0.3386  0.9437 -1.7157
  146MOL0     H19690   6.867  12.516  11.525 -1.2776  0.0759 -0.4373
  146MOL0     H19691   6.775  12.336  11.379 -1.5497 -0.9732  1.2295
  146MOL0     H19692   6.456  11.935  11.325  0.2945 -0.5654  1.4267
  146MOL0     H19693   6.413  11.740  11.206  1.1150 -4.1245  0.0257
  146MOL0     H19694   6.261  10.402  10.780 -0.8878 -2.5990 -2.9784
  146MOL0     H19695   6.432  10.563  10.864  1.2632  1.2553 -0.2396
  146MOL0     H19696   6.749  10.817  10.819 -1.3264  0.8610  0.9875
  146MOL0     H19697   6.941  10.949  10.831  1.8295  1.0652 -0.6896
  146MOL0     H19698   6.867  11.401  10.862 -0.7860  0.5560  2.6494
  146MOL0     H19699   7.048  11.390  10.884 -1.6538  2.0828  1.8378
  146MOL0     H19700   6.854  11.301  11.089  0.4198 -2.4072 -2.0862
  146MOL0     H19701   6.947  11.456  11.075 -1.1564 -1.0531  3.5701
  146MOL0     H19702   7.146  11.365  11.139  0.5090  1.3385  1.7877
  146MOL0     H19703   7.111  11.203  11.075  3.9407  2.7801 -0.1128
  146MOL0     H19704   6.972  11.143  11.257 -1.2358  2.4091 -0.2613
  146MOL0     H19705   7.122  11.215  11.321  0.6286 -0.2338 -0.4617
  146MOL0     H19706   6.863  11.510  11.446  0.7975  0.2938  0.5310
  146MOL0     H19707   6.692  11.299  10.822 -1.1954  0.4628 -1.0023
  146MOL0     H19708   6.416  11.224  10.854  0.1190 -1.0953 -0.0822
  146MOL0     H19709   6.503  11.290  10.712  1.7542 -0.0183  0.1027
  146MOL0     H19710   6.403  11.149  10.695 -0.4191  1.4598 -0.3154
  147MOL0     O19711   1.680   6.376   9.138 -0.0451  0.6093 -0.2246
  147MOL0     C19712   1.681   6.445   9.242 -0.1709  0.5518 -0.1031
  147MOL0     O19713   1.567   6.492   9.302 -0.1804 -0.8529  0.3258
  147MOL0     C19714   1.443   6.446   9.271  1.2892  0.1602 -1.6486
  147MOL0     C19715   1.403   6.310   9.280  0.0038  0.6306  0.2162
  147MOL0     C19716   1.284   6.264   9.227 -0.2686 -0.7111 -0.2124
  147MOL0     C19717   1.190   6.355   9.174 -0.8132  0.2613  1.0371
  147MOL0     O19718   1.069   6.310   9.124 -0.2231  0.0239 -1.3716
  147MOL0     C19719   1.070   6.221   9.015  0.0412 -0.4678 -0.4977
  147MOL0     C19720   1.050   6.281   8.871 -0.9453 -0.1437  0.3490
  147MOL0     C19721   1.150   6.399   8.838  0.0759  0.9713 -0.4351
  147MOL0     C19722   1.295   6.349   8.835  0.3421  0.6528  1.3328
  147MOL0     C19723   1.383   6.434   8.743  0.6174  0.8601  0.2326
  147MOL0     C19724   1.389   6.577   8.775  0.4403 -0.2223 -0.3019
  147MOL0     C19725   1.475   6.608   8.896  0.3225  0.1671  0.3097
  147MOL0     C19726   1.605   6.690   8.861 -0.2371  0.0042 -1.7681
  147MOL0     N19727   1.668   6.756   8.983  0.0950  0.2693 -0.3662
  147MOL0     C19728   1.795   6.707   9.025  0.5075 -0.4470  0.6977
  147MOL0     C19729   1.833   6.813   9.096  0.5610 -0.5706  0.1305
  147MOL0     C19730   1.973   6.834   9.140 -0.4510  0.4974 -0.2067
  147MOL0     C19731   2.062   6.922   9.054 -0.9695 -0.7499  0.4943
  147MOL0     C19732   2.207   6.897   9.091 -0.7665 -0.5851  0.0909
  147MOL0     C19733   2.245   6.944   9.226 -0.3291 -0.2364  0.0445
  147MOL0     O19734   2.196   7.075   9.252 -0.1507  0.1567 -0.2509
  147MOL0     C19735   2.271   7.190   9.217 -0.0228  0.3101 -0.8826
  147MOL0     C19736   2.340   7.213   9.092 -0.3170  0.0025  0.4100
  147MOL0     C19737   2.423   7.325   9.075 -0.9285  0.8669 -0.1051
  147MOL0     C19738   2.458   7.409   9.187 -0.1832  0.7605 -0.0171
  147MOL0     C19739   2.565   7.507   9.174 -0.6727 -0.7544 -1.2787
  147MOL0     O19740   2.597   7.579   9.289  0.3204 -0.2144  0.1252
  147MOL0     C19741   2.702   7.662   9.286 -0.3579  0.5836 -0.0564
  147MOL0     C19742   2.834   7.610   9.300  0.6622 -0.3260 -0.1001
  147MOL0     C19743   2.935   7.698   9.270  0.0921  0.8017 -0.5244
  147MOL0     C19744   2.922   7.830   9.256 -0.0271  0.2349  0.5974
  147MOL0     O19745   3.026   7.916   9.237 -0.9672 -0.0564  0.0770
  147MOL0     C19746   3.040   7.980   9.103  0.3223 -0.5663 -0.8298
  147MOL0     C19747   3.087   7.868   9.001  0.2720 -0.7135 -0.2816
  147MOL0     C19748   3.230   7.822   9.032 -0.7840 -0.3252  0.3899
  147MOL0     C19749   3.296   7.741   8.921  0.0104 -1.3701  0.0135
  147MOL0     C19750   3.427   7.676   8.970  0.1263 -0.5025 -1.2577
  147MOL0     C19751   3.497   7.596   8.861  0.0885 -0.3786  0.1858
  147MOL0     C19752   3.614   7.519   8.926  0.3724 -0.6844  0.3207
  147MOL0     C19753   3.692   7.433   8.823 -0.0947 -0.4457  0.5947
  147MOL0    Cl19754   3.597   7.307   8.737 -0.0966 -0.0848 -0.5784
  147MOL0     C19755   2.798   7.886   9.250 -0.5356  0.4678  0.1770
  147MOL0     C19756   2.683   7.807   9.268  0.4037  0.5678 -0.7117
  147MOL0     O19757   2.626   7.515   9.070  0.0872  0.1309  0.2273
  147MOL0     C19758   2.395   7.378   9.314 -0.4161  0.5665 -0.0103
  147MOL0     C19759   2.301   7.280   9.324 -0.3763  0.0151  0.4977
  147MOL0     N19760   1.728   6.916   9.097 -0.2388  0.1806 -0.7473
  147MOL0     N19761   1.638   6.886   9.022  0.3845  0.1474 -0.0037
  147MOL0     C19762   1.227   6.488   9.183 -0.0972 -0.0027 -0.8018
  147MOL0     C19763   1.350   6.533   9.231 -0.4098  0.4219  0.2356
  147MOL0     C19764   1.817   6.490   9.289 -0.0687 -0.3575  0.1091
  147MOL0     C19765   1.927   6.441   9.212 -0.5740 -0.5114 -0.5849
  147MOL0     C19766   2.061   6.480   9.231  0.5200 -0.7117  0.4543
  147MOL0     C19767   2.094   6.568   9.330  0.2846 -0.3643 -0.8144
  147MOL0     O19768   2.226   6.606   9.348 -0.1670  0.1897 -0.3529
  147MOL0     C19769   2.331   6.518   9.337  0.4952  0.0452  0.1717
  147MOL0     C19770   2.307   6.386   9.412  0.6660  0.0721 -0.2855
  147MOL0     C19771   2.319   6.422   9.563  0.6235 -0.5758  0.0452
  147MOL0     C19772   2.208   6.337   9.644  0.1794  0.0021 -0.0117
  147MOL0     C19773   2.205   6.411   9.774  0.9527  0.2656  0.9564
  147MOL0     C19774   2.207   6.477   9.872  0.0577  0.0866 -0.2139
  147MOL0     C19775   1.995   6.617   9.413  1.2164  0.2594  0.3132
  147MOL0     C19776   1.859   6.585   9.391  0.0665 -0.3663 -0.4136
  147MOL0     C19777   1.770   6.673   9.464  1.0142 -0.1266 -0.1863
  147MOL0     H19778   1.477   6.240   9.318  0.4578 -0.0020 -1.7261
  147MOL0     H19779   1.261   6.158   9.230 -1.0677 -0.5237  1.0271
  147MOL0     H19780   1.159   6.158   9.008 -1.0658 -1.9067 -2.8119
  147MOL0     H19781   0.984   6.152   9.022  0.2307 -1.5014 -4.9238
  147MOL0     H19782   0.949   6.321   8.869 -0.9223 -0.0724 -1.1797
  147MOL0     H19783   1.071   6.202   8.797  3.7967  2.0717 -1.1196
  147MOL0     H19784   1.139   6.474   8.917  2.1650  0.5047  0.3649
  147MOL0     H19785   1.125   6.435   8.737 -0.1591 -0.1679 -0.7896
  147MOL0     H19786   1.343   6.356   8.933 -0.6245 -0.9178  1.9412
  147MOL0     H19787   1.301   6.245   8.804 -0.3157  1.2409 -1.0142
  147MOL0     H19788   1.480   6.386   8.724 -1.2810 -4.3474  1.8673
  147MOL0     H19789   1.333   6.425   8.646  2.0649 -1.7405 -0.3807
  147MOL0     H19790   1.419   6.637   8.688  3.9544 -2.2501 -0.6685
  147MOL0     H19791   1.291   6.614   8.807  2.2864  2.1123  3.3513
  147MOL0     H19792   1.517   6.523   8.951  3.4102  1.5148  0.2429
  147MOL0     H19793   1.418   6.668   8.967 -0.0753  2.2716 -1.6662
  147MOL0     H19794   1.676   6.624   8.810  0.1236 -0.1685 -1.0473
  147MOL0     H19795   1.573   6.772   8.796 -1.7382 -2.1153 -3.8775
  147MOL0     H19796   1.862   6.630   8.989  2.2293  2.6905 -3.8276
  147MOL0     H19797   1.979   6.865   9.244  1.8282 -1.9628  0.5204
  147MOL0     H19798   2.022   6.736   9.146  0.3123  0.9676  1.8628
  147MOL0     H19799   2.034   6.906   8.949 -0.4828  2.0550 -0.1306
  147MOL0     H19800   2.034   7.025   9.075 -0.9740 -0.6775  0.1481
  147MOL0     H19801   2.266   6.947   9.013  0.9376 -1.2220  0.9202
  147MOL0     H19802   2.220   6.789   9.093 -2.7326 -0.8975 -0.8598
  147MOL0     H19803   2.354   6.937   9.239 -0.0291  1.6599 -1.1156
  147MOL0     H19804   2.205   6.873   9.299  0.7527 -0.7408  0.1697
  147MOL0     H19805   2.323   7.152   9.004 -1.4410  1.1055 -0.1653
  147MOL0     H19806   2.462   7.334   8.975 -3.7381  0.6960 -1.3141
  147MOL0     H19807   2.834   7.504   9.324  0.9120 -0.8889 -2.3905
  147MOL0     H19808   3.028   7.643   9.281  0.1026  0.9259  0.0022
  147MOL0     H19809   2.939   8.017   9.080  0.0437 -1.9063 -1.9284
  147MOL0     H19810   3.122   8.051   9.103  4.5224 -4.8769 -0.6536
  147MOL0     H19811   3.011   7.790   8.992 -2.2408  1.6876 -1.4423
  147MOL0     H19812   3.094   7.907   8.899  2.0735 -1.5226 -0.5101
  147MOL0     H19813   3.294   7.900   9.076  3.5332 -1.2431 -3.5204
  147MOL0     H19814   3.212   7.753   9.115 -1.7380 -0.7048 -0.1082
  147MOL0     H19815   3.308   7.801   8.830 -1.1497  0.9780  1.3100
  147MOL0     H19816   3.217   7.674   8.885 -0.8184  1.0350 -3.2284
  147MOL0     H19817   3.410   7.622   9.064 -3.3694  1.3532 -0.6194
  147MOL0     H19818   3.492   7.758   9.002  1.3127 -1.7152 -0.4492
  147MOL0     H19819   3.421   7.526   8.823  0.7652 -0.7354 -0.5325
  147MOL0     H19820   3.531   7.660   8.779  0.1902  1.2155  1.4216
  147MOL0     H19821   3.576   7.444   8.997 -1.6156 -1.9639 -1.9568
  147MOL0     H19822   3.674   7.595   8.977 -1.3546  0.1195  1.2419
  147MOL0     H19823   3.736   7.503   8.751  2.3716 -1.6205  0.8593
  147MOL0     H19824   3.776   7.385   8.875 -0.9812  0.8339  3.3704
  147MOL0     H19825   2.794   7.992   9.229 -2.7244  0.3775 -0.0527
  147MOL0     H19826   2.577   7.829   9.262  0.3859  0.4216 -0.9727
  147MOL0     H19827   2.432   7.437   9.397  0.2505 -0.2907  0.3192
  147MOL0     H19828   2.250   7.265   9.418 -2.4873  1.8368 -0.2571
  147MOL0     H19829   1.144   6.554   9.161 -3.0265 -2.1292  2.6576
  147MOL0     H19830   1.384   6.636   9.231 -1.2729  0.7281  1.3227
  147MOL0     H19831   1.925   6.393   9.115 -1.2668  3.6804 -2.9099
  147MOL0     H19832   2.134   6.450   9.158  0.1810 -0.4821  0.0182
  147MOL0     H19833   2.435   6.548   9.352  0.1346  0.3736  2.2829
  147MOL0     H19834   2.336   6.495   9.230 -0.5583  0.1007  0.1029
  147MOL0     H19835   2.369   6.302   9.379  0.4106 -0.2854  0.1322
  147MOL0     H19836   2.206   6.348   9.391 -0.7343  1.4220  3.1518
  147MOL0     H19837   2.312   6.531   9.571 -3.9983 -0.5580 -1.3582
  147MOL0     H19838   2.415   6.394   9.607  0.5598  0.5021  0.9058
  147MOL0     H19839   2.113   6.330   9.590  0.7895  0.7263 -1.2183
  147MOL0     H19840   2.249   6.239   9.669 -0.6595  0.0745  1.7897
  147MOL0     H19841   2.204   6.550   9.949 -0.4916 -0.4262  0.2574
  147MOL0     H19842   2.020   6.667   9.506  2.2233 -3.3329  2.1433
  147MOL0     H19843   1.819   6.760   9.508 -0.1768 -0.0955  1.1616
  147MOL0     H19844   1.694   6.702   9.391 -0.8124  1.8762  2.3426
  147MOL0     H19845   1.707   6.626   9.541  1.7279  2.4154  2.0998
  148MOL0     O19846   3.335  10.827   5.671 -0.4085  0.0156 -0.0293
  148MOL0     C19847   3.445  10.852   5.624  0.1302  0.1230  1.2137
  148MOL0     O19848   3.477  10.958   5.537  0.4440 -0.1350 -0.3693
  148MOL0     C19849   3.388  11.064   5.546 -0.0622  0.5908 -0.5659
  148MOL0     C19850   3.280  11.088   5.456 -0.9512  0.7106  1.0254
  148MOL0     C19851   3.195  11.190   5.476 -0.0684  0.1804  0.9953
  148MOL0     C19852   3.211  11.276   5.591  0.0533  0.2872  0.3906
  148MOL0     O19853   3.131  11.379   5.633 -0.5628 -0.0418  0.4394
  148MOL0     C19854   3.023  11.436   5.556  0.0611  0.0991 -0.6874
  148MOL0     C19855   3.082  11.546   5.466  0.9188 -0.4240 -0.3451
  148MOL0     C19856   2.968  11.644   5.429 -0.3247 -0.6683 -0.0513
  148MOL0     C19857   2.849  11.555   5.374  0.5094  0.2444  0.1931
  148MOL0     C19858   2.759  11.636   5.289 -1.0035 -0.2641 -0.7655
  148MOL0     C19859   2.691  11.752   5.362 -0.4829  0.3928  0.4325
  148MOL0     C19860   2.604  11.849   5.269  0.2418  0.7956  0.7233
  148MOL0     C19861   2.676  11.970   5.206  0.4572  0.0913  0.2148
  148MOL0     N19862   2.742  12.045   5.319 -0.3774 -0.2822 -0.1518
  148MOL0     C19863   2.681  12.163   5.381 -0.4540 -0.0723 -0.4198
  148MOL0     C19864   2.781  12.218   5.449  0.2172  0.2294  0.1082
  148MOL0     C19865   2.785  12.354   5.518  0.1639 -0.4929 -0.2564
  148MOL0     C19866   2.861  12.465   5.440  0.0347 -0.8861  0.5171
  148MOL0     C19867   2.785  12.511   5.319  0.1624  0.8313 -0.3448
  148MOL0     C19868   2.658  12.599   5.338  0.7787  0.3656 -0.8315
  148MOL0     O19869   2.574  12.605   5.219  0.4236  0.2694  0.0120
  148MOL0     C19870   2.517  12.480   5.186 -1.2874 -0.0553  0.3512
  148MOL0     C19871   2.389  12.449   5.219 -0.9884  0.1313 -0.1654
  148MOL0     C19872   2.322  12.338   5.173  0.1756 -0.5108 -0.3547
  148MOL0     C19873   2.375  12.260   5.075 -0.1124 -0.8279 -0.0367
  148MOL0     C19874   2.311  12.141   5.024  0.9795  0.0059  0.8964
  148MOL0     O19875   2.185  12.148   4.969 -0.5363 -0.0282 -0.4798
  148MOL0     C19876   2.145  12.045   4.881 -0.3976  0.1743  0.6002
  148MOL0     C19877   2.010  11.995   4.891  1.2905  0.6445  0.2716
  148MOL0     C19878   1.964  11.898   4.802  0.3368 -0.7910 -0.4678
  148MOL0     C19879   2.050  11.843   4.700  0.0948 -1.0318  0.5718
  148MOL0     O19880   2.006  11.738   4.623 -0.3714  0.4503  0.1504
  148MOL0     C19881   1.876  11.737   4.568 -0.1854 -0.2827 -0.7751
  148MOL0     C19882   1.886  11.700   4.422 -0.0492  0.5361 -0.6973
  148MOL0     C19883   1.989  11.778   4.339  0.3179  0.1258 -0.4733
  148MOL0     C19884   2.006  11.739   4.189  0.4336  1.6068  0.2217
  148MOL0     C19885   1.889  11.784   4.094  0.4777  0.5695 -0.4309
  148MOL0     C19886   1.914  11.738   3.942  0.6627  0.1241 -0.6787
  148MOL0     C19887   1.802  11.803   3.851 -0.3322  0.0160 -0.5939
  148MOL0     C19888   1.806  11.723   3.724 -0.5463 -0.1915  0.2592
  148MOL0    Cl19889   1.684  11.769   3.592 -0.2337 -0.0941 -0.3081
  148MOL0     C19890   2.178  11.899   4.677 -0.0791 -0.4210 -0.2191
  148MOL0     C19891   2.224  11.995   4.779 -0.1962 -0.1140  0.3662
  148MOL0     O19892   2.375  12.043   5.046  0.7927  0.0473  0.0491
  148MOL0     C19893   2.500  12.297   5.030  0.0702  0.4326  0.4387
  148MOL0     C19894   2.569  12.405   5.076  0.3654  0.0025  0.2268
  148MOL0     N19895   2.894  12.135   5.438 -0.3577  0.0120 -0.0320
  148MOL0     N19896   2.872  12.042   5.345 -0.8289 -1.1661 -0.7320
  148MOL0     C19897   3.327  11.265   5.670 -0.2645 -0.3363  0.1390
  148MOL0     C19898   3.416  11.160   5.649  0.1853  0.0436  0.1054
  148MOL0     C19899   3.570  10.755   5.638 -0.4892  0.2214 -0.2282
  148MOL0     C19900   3.699  10.791   5.597  0.6348 -0.1735  0.3678
  148MOL0     C19901   3.808  10.718   5.616  1.2083  0.1556 -0.9571
  148MOL0     C19902   3.804  10.597   5.689 -0.1291 -0.3342 -0.3254
  148MOL0     O19903   3.900  10.510   5.728 -0.2089  0.1180  0.8543
  148MOL0     C19904   4.036  10.557   5.735 -0.6969  0.0507  0.6306
  148MOL0     C19905   4.128  10.424   5.748 -0.3534  0.7103 -0.0326
  148MOL0     C19906   4.139  10.352   5.614  0.4349 -0.3274 -0.0828
  148MOL0     C19907   4.256  10.251   5.614 -0.3330  1.4868  0.0672
  148MOL0     C19908   4.230  10.136   5.693 -0.1268  1.2246 -1.2384
  148MOL0     C19909   4.217  10.037   5.761  0.4734 -0.1357  0.7339
  148MOL0     C19910   3.673  10.554   5.734  0.4768 -0.6878  0.8478
  148MOL0     C19911   3.559  10.639   5.720  0.6394  0.0130 -0.4490
  148MOL0     C19912   3.424  10.599   5.788 -0.1472  0.0133  1.0573
  148MOL0     H19913   3.269  11.024   5.369  3.2211 -0.5408  1.1587
  148MOL0     H19914   3.108  11.196   5.411 -0.4801 -3.0235  1.0936
  148MOL0     H19915   2.961  11.366   5.499 -1.6788  1.5227 -0.6292
  148MOL0     H19916   2.959  11.468   5.638  0.3392  0.0880 -0.4649
  148MOL0     H19917   3.110  11.506   5.369  1.7427  2.3056 -1.3421
  148MOL0     H19918   3.170  11.600   5.505  0.7204  0.9562 -1.7098
  148MOL0     H19919   2.997  11.720   5.356 -0.3111 -0.9326 -0.3218
  148MOL0     H19920   2.933  11.692   5.521 -1.2605 -2.2251  0.4451
  148MOL0     H19921   2.877  11.466   5.316 -1.4961 -0.1868 -0.1769
  148MOL0     H19922   2.791  11.513   5.457 -0.6831  3.3078  1.0402
  148MOL0     H19923   2.803  11.688   5.204  2.5971 -4.3868 -1.7598
  148MOL0     H19924   2.684  11.572   5.240  0.2668  1.7379 -5.9248
  148MOL0     H19925   2.634  11.699   5.439  3.1258 -0.3240  2.8269
  148MOL0     H19926   2.768  11.813   5.409 -0.7713  2.1390 -1.2446
  148MOL0     H19927   2.509  11.887   5.307 -0.4653  1.4168 -1.5508
  148MOL0     H19928   2.567  11.790   5.185 -2.1857  2.3114  0.6484
  148MOL0     H19929   2.741  11.956   5.119 -0.2901  0.0006 -0.3408
  148MOL0     H19930   2.590  12.023   5.167 -1.0805 -1.4432  1.3557
  148MOL0     H19931   2.581  12.203   5.379 -0.4172 -0.0107 -1.0897
  148MOL0     H19932   2.685  12.391   5.543  1.1530  1.9952  0.4028
  148MOL0     H19933   2.838  12.345   5.613  0.1263 -0.6853 -0.2536
  148MOL0     H19934   2.853  12.550   5.508 -3.0759 -1.2318  0.7421
  148MOL0     H19935   2.962  12.443   5.406  1.1591  3.3286  0.5417
  148MOL0     H19936   2.751  12.420   5.269 -0.5388 -0.4134  2.2107
  148MOL0     H19937   2.852  12.565   5.252 -1.8689  2.4001 -1.2214
  148MOL0     H19938   2.679  12.704   5.360  1.6615  0.6553 -2.8519
  148MOL0     H19939   2.600  12.560   5.422  1.5153  0.2576 -0.3654
  148MOL0     H19940   2.339  12.517   5.287  2.2280  0.4240  2.1186
  148MOL0     H19941   2.227  12.307   5.216 -1.0563  1.0796 -1.7896
  148MOL0     H19942   1.945  12.022   4.974  0.1994  0.3070 -0.4560
  148MOL0     H19943   1.861  11.869   4.819  0.6565 -1.1703  0.9989
  148MOL0     H19944   1.830  11.663   4.634 -0.7964  2.7646  2.5327
  148MOL0     H19945   1.818  11.829   4.585 -1.4493 -1.0074 -1.0096
  148MOL0     H19946   1.898  11.592   4.409 -2.9484 -0.1060  1.0284
  148MOL0     H19947   1.789  11.724   4.377  0.0899 -0.8955 -1.8614
  148MOL0     H19948   1.967  11.885   4.341  0.3654  0.1442 -1.0279
  148MOL0     H19949   2.088  11.761   4.383  0.1481 -0.5920 -0.3408
  148MOL0     H19950   2.006  11.629   4.187 -0.2513  1.3602  4.4788
  148MOL0     H19951   2.101  11.769   4.143  2.4260 -3.9582 -0.0866
  148MOL0     H19952   1.887  11.894   4.092  1.8037  0.6122 -2.3524
  148MOL0     H19953   1.787  11.755   4.122 -0.2458  3.7527  0.7587
  148MOL0     H19954   2.010  11.769   3.899 -0.1488  0.9124 -1.9844
  148MOL0     H19955   1.914  11.629   3.944  3.8190 -0.0413 -3.2378
  148MOL0     H19956   1.819  11.908   3.825 -0.9553  0.1487 -0.4779
  148MOL0     H19957   1.705  11.787   3.898  0.9657 -2.6921  1.4404
  148MOL0     H19958   1.904  11.754   3.687 -0.4023 -1.7853 -0.8272
  148MOL0     H19959   1.806  11.614   3.736  0.6055 -0.2113  0.2460
  148MOL0     H19960   2.237  11.855   4.597  0.6063  0.3214 -0.1348
  148MOL0     H19961   2.325  12.030   4.766 -0.7946  1.1817 -1.1161
  148MOL0     H19962   2.543  12.227   4.959 -1.4879 -0.3044  0.1718
  148MOL0     H19963   2.665  12.430   5.031  1.3171 -2.9420  0.3774
  148MOL0     H19964   3.346  11.343   5.743  1.9121 -0.3344 -0.3624
  148MOL0     H19965   3.504  11.145   5.712  0.7452  0.8767 -0.4590
  148MOL0     H19966   3.713  10.875   5.529 -0.9275  0.3337  0.6339
  148MOL0     H19967   3.903  10.754   5.577  1.1227  1.8406  0.2702
  148MOL0     H19968   4.056  10.620   5.822  1.6669  1.2049 -0.6622
  148MOL0     H19969   4.061  10.609   5.642 -0.0324 -2.1426 -0.4938
  148MOL0     H19970   4.085  10.352   5.819  0.3208  1.2828  0.9895
  148MOL0     H19971   4.229  10.458   5.769  0.7914 -2.8329  0.9953
  148MOL0     H19972   4.154  10.421   5.531  1.5861  1.0689  1.2196
  148MOL0     H19973   4.047  10.297   5.595  0.7386 -0.6876 -0.5221
  148MOL0     H19974   4.265  10.214   5.512 -0.6476  1.2309  0.1314
  148MOL0     H19975   4.349  10.286   5.661 -1.7393  1.1241  3.3894
  148MOL0     H19976   4.210   9.943   5.811 -1.8140 -1.2458 -1.4391
  148MOL0     H19977   3.679  10.466   5.796 -0.7555 -0.7374  0.9202
  148MOL0     H19978   3.340  10.564   5.728  0.1860 -1.3650  1.3588
  148MOL0     H19979   3.451  10.513   5.849 -1.9394 -0.1371  1.6995
  148MOL0     H19980   3.385  10.684   5.845 -0.9328  2.0097 -2.1713
  149MOL0     O19981   8.004   4.949   4.524  0.2347  0.5122 -1.0735
  149MOL0     C19982   7.892   4.895   4.533  0.5733  0.0026 -0.2137
  149MOL0     O19983   7.836   4.857   4.646 -0.6935 -0.4258 -0.0158
  149MOL0     C19984   7.907   4.855   4.771  0.3163  0.3026  0.1930
  149MOL0     C19985   7.863   4.757   4.859 -0.2116 -0.3592  0.3076
  149MOL0     C19986   7.912   4.754   4.992 -0.0580 -1.4670 -0.3563
  149MOL0     C19987   8.028   4.822   5.034  0.1556 -1.3361 -0.2709
  149MOL0     O19988   8.093   4.807   5.156 -0.1673  0.7222 -0.3747
  149MOL0     C19989   8.098   4.682   5.217 -0.3787  0.1851 -0.0897
  149MOL0     C19990   8.242   4.668   5.246  0.4701  0.8305  0.0479
  149MOL0     C19991   8.253   4.532   5.317 -0.3043 -0.0590 -0.7587
  149MOL0     C19992   8.331   4.427   5.235 -1.4041 -0.7925 -0.6021
  149MOL0     C19993   8.331   4.279   5.282 -0.2361 -1.1127 -0.1833
  149MOL0     C19994   8.399   4.266   5.428  0.7244  0.4233 -0.0744
  149MOL0     C19995   8.466   4.142   5.462  0.5716  0.2759  0.8404
  149MOL0     C19996   8.372   4.021   5.445 -1.1244 -0.1544 -0.4023
  149MOL0     N19997   8.425   3.896   5.486  0.1970 -0.2809  0.4272
  149MOL0     C19998   8.349   3.782   5.476  0.4966  0.1667  0.8846
  149MOL0     C19999   8.421   3.684   5.531 -0.1805  1.1571 -0.0072
  149MOL0     C20000   8.373   3.540   5.527  0.0671 -1.1335 -0.8481
  149MOL0     C20001   8.416   3.458   5.651  0.3585 -0.2523  0.6995
  149MOL0     C20002   8.359   3.504   5.789  0.3268 -0.7619  0.7016
  149MOL0     C20003   8.217   3.455   5.814  0.4436 -0.3544 -0.7021
  149MOL0     O20004   8.187   3.441   5.955  0.3969 -0.6730 -0.3548
  149MOL0     C20005   8.053   3.410   5.997  0.1141  1.1319  0.1084
  149MOL0     C20006   8.018   3.448   6.128 -0.0268  0.6110  0.5633
  149MOL0     C20007   7.893   3.433   6.168  0.0984 -0.0009  0.0822
  149MOL0     C20008   7.792   3.365   6.100 -0.1257 -0.1099 -0.2150
  149MOL0     C20009   7.657   3.342   6.158 -0.3074  0.0716  0.2802
  149MOL0     O20010   7.624   3.416   6.269 -0.4540  0.3679  0.1348
  149MOL0     C20011   7.533   3.378   6.361  0.5913  0.0559 -0.8515
  149MOL0     C20012   7.491   3.248   6.392  1.1142 -0.3506 -0.8758
  149MOL0     C20013   7.404   3.218   6.499 -0.0444  0.8726 -0.7098
  149MOL0     C20014   7.335   3.319   6.568  1.4212  0.6154 -0.5689
  149MOL0     O20015   7.264   3.303   6.689 -0.5949  0.4499  0.3506
  149MOL0     C20016   7.147   3.222   6.681 -0.5336  0.1933 -0.4595
  149MOL0     C20017   7.018   3.284   6.740  0.2754 -0.3745  0.3572
  149MOL0     C20018   7.005   3.416   6.668  0.2849 -0.0275 -0.2924
  149MOL0     C20019   6.866   3.486   6.689  1.3727  0.2145  0.9757
  149MOL0     C20020   6.834   3.589   6.563  0.2156  0.1892 -0.0165
  149MOL0     C20021   6.915   3.716   6.571 -0.3780  0.4822 -0.1463
  149MOL0     C20022   6.858   3.827   6.469  0.0672 -0.2496  0.0715
  149MOL0     C20023   6.952   3.945   6.473  0.3389  0.3458 -0.6719
  149MOL0    Cl20024   7.124   3.904   6.465  0.3204  0.2587 -0.0426
  149MOL0     C20025   7.367   3.449   6.524 -1.0686 -0.3216  0.9114
  149MOL0     C20026   7.457   3.480   6.421  0.2021 -0.5502 -0.4820
  149MOL0     O20027   7.595   3.245   6.109  0.4486 -0.8781  0.2308
  149MOL0     C20028   7.836   3.320   5.974 -0.7131  0.3565  0.3030
  149MOL0     C20029   7.961   3.336   5.920  0.0685 -0.1722 -0.3871
  149MOL0     N20030   8.523   3.745   5.600 -0.0157  0.2661  0.0948
  149MOL0     N20031   8.532   3.874   5.566  0.1361  0.0192 -0.4872
  149MOL0     C20032   8.081   4.917   4.942  0.3326  0.0567 -0.0933
  149MOL0     C20033   8.020   4.932   4.814  0.3917  0.0187  0.6539
  149MOL0     C20034   7.815   4.868   4.409  0.0732  0.7404  0.7268
  149MOL0     C20035   7.706   4.778   4.421 -0.5824 -0.1592 -0.2070
  149MOL0     C20036   7.625   4.751   4.316 -0.2916  0.4742  0.2322
  149MOL0     C20037   7.647   4.814   4.193 -1.4297 -1.3909  0.0198
  149MOL0     O20038   7.571   4.786   4.088  0.4699 -0.2290  0.5285
  149MOL0     C20039   7.601   4.651   4.041  0.0420 -1.3507  0.2528
  149MOL0     C20040   7.609   4.650   3.883  1.4753  0.4040 -0.2082
  149MOL0     C20041   7.610   4.778   3.793 -0.3445  0.0381 -0.8219
  149MOL0     C20042   7.467   4.851   3.773  0.8861 -0.5412  0.2579
  149MOL0     C20043   7.362   4.769   3.709 -0.3097  0.2603 -0.2997
  149MOL0     C20044   7.286   4.688   3.665  0.5399 -0.2905 -0.8559
  149MOL0     C20045   7.745   4.911   4.188 -0.2446 -0.3142  0.2305
  149MOL0     C20046   7.835   4.938   4.286 -0.9725  0.4791  0.5810
  149MOL0     C20047   7.929   5.060   4.269  0.6851  0.8274 -0.1492
  149MOL0     H20048   7.782   4.687   4.844  0.5993 -1.0095 -1.2636
  149MOL0     H20049   7.863   4.683   5.058 -0.3447 -1.0825 -0.1485
  149MOL0     H20050   8.040   4.676   5.309  0.2375  1.6097  0.4248
  149MOL0     H20051   8.062   4.610   5.143 -0.4781 -0.9668  1.0608
  149MOL0     H20052   8.267   4.738   5.326 -3.2620  2.6588 -0.1462
  149MOL0     H20053   8.306   4.686   5.159 -0.3804  3.7920 -0.0750
  149MOL0     H20054   8.162   4.492   5.362  0.0652 -0.8817 -0.7314
  149MOL0     H20055   8.319   4.538   5.403 -3.3103 -1.1003  1.8325
  149MOL0     H20056   8.300   4.427   5.131  2.2786 -3.6142 -1.9249
  149MOL0     H20057   8.435   4.461   5.228 -1.2195 -1.5711 -1.8891
  149MOL0     H20058   8.232   4.233   5.276  0.7731 -3.6961  1.4040
  149MOL0     H20059   8.396   4.228   5.210  3.3705 -1.4301  2.9456
  149MOL0     H20060   8.475   4.345   5.427  0.2783  0.8532 -1.3625
  149MOL0     H20061   8.319   4.287   5.500  0.4990  0.3063 -0.2924
  149MOL0     H20062   8.498   4.131   5.566 -1.0720 -2.6523  1.1226
  149MOL0     H20063   8.548   4.130   5.391 -0.0019 -0.9929  0.3702
  149MOL0     H20064   8.289   4.043   5.513 -0.2215  2.2762  0.0105
  149MOL0     H20065   8.338   4.016   5.341  2.1283 -1.8966 -1.5045
  149MOL0     H20066   8.250   3.774   5.432  0.1422  1.1202  1.4743
  149MOL0     H20067   8.264   3.545   5.517 -0.1255 -3.2650 -0.1769
  149MOL0     H20068   8.415   3.497   5.435  0.5174  1.9504 -2.2085
  149MOL0     H20069   8.381   3.357   5.628 -0.0549  0.1616 -0.5198
  149MOL0     H20070   8.525   3.460   5.665  0.2683  0.5314  1.3593
  149MOL0     H20071   8.370   3.613   5.795 -0.0286 -0.7688  1.6596
  149MOL0     H20072   8.423   3.462   5.867  0.3321  0.8604  1.6095
  149MOL0     H20073   8.214   3.352   5.778 -0.1658 -0.5569 -0.0950
  149MOL0     H20074   8.138   3.508   5.761  2.2068  0.7474 -2.3286
  149MOL0     H20075   8.089   3.485   6.201 -1.8939 -0.3511  2.9850
  149MOL0     H20076   7.859   3.464   6.267 -1.0010 -0.4375 -0.1392
  149MOL0     H20077   7.544   3.160   6.355  0.7988 -1.1390  0.4912
  149MOL0     H20078   7.402   3.116   6.535 -2.3928  1.4641  1.1100
  149MOL0     H20079   7.121   3.206   6.576  2.9688 -2.3441 -1.1136
  149MOL0     H20080   7.164   3.130   6.739  3.1905  0.0808 -1.5007
  149MOL0     H20081   6.939   3.214   6.712  0.4497 -1.1946  1.8377
  149MOL0     H20082   7.034   3.300   6.847  3.1505 -1.5577  0.1803
  149MOL0     H20083   7.078   3.489   6.704 -0.6167  1.8299 -2.0798
  149MOL0     H20084   7.026   3.418   6.561  0.0019  1.1724 -0.3448
  149MOL0     H20085   6.854   3.544   6.781 -1.3785 -0.7320  1.3209
  149MOL0     H20086   6.796   3.402   6.685  2.3693 -0.5933 -0.1189
  149MOL0     H20087   6.728   3.617   6.569  0.4257  2.1655 -3.0665
  149MOL0     H20088   6.840   3.541   6.465  3.5072 -0.3042  0.3296
  149MOL0     H20089   6.936   3.748   6.673  1.2259 -2.3760  0.5301
  149MOL0     H20090   7.015   3.685   6.536 -0.2039  1.5755 -0.6450
  149MOL0     H20091   6.753   3.846   6.492 -0.5514 -2.0475 -1.0729
  149MOL0     H20092   6.874   3.789   6.368  2.7147 -0.1209  0.3551
  149MOL0     H20093   6.935   4.023   6.399 -0.0577  0.4727 -0.4516
  149MOL0     H20094   6.939   3.993   6.571 -0.3670 -2.1038  0.5192
  149MOL0     H20095   7.333   3.542   6.568  3.0502  0.6152  2.6172
  149MOL0     H20096   7.472   3.585   6.399 -1.9108  0.3024  1.7239
  149MOL0     H20097   7.762   3.270   5.911 -2.0985  0.1612  2.0158
  149MOL0     H20098   7.990   3.289   5.827  2.5458 -0.4586  0.4500
  149MOL0     H20099   8.169   4.976   4.964  1.4796 -1.4825 -0.4509
  149MOL0     H20100   8.074   4.991   4.742 -1.3912  1.1377  0.1791
  149MOL0     H20101   7.677   4.727   4.513 -2.3387  2.0633  0.5587
  149MOL0     H20102   7.551   4.672   4.330  0.1083 -0.5484 -2.7444
  149MOL0     H20103   7.519   4.580   4.056  0.1375 -1.4245  0.4207
  149MOL0     H20104   7.690   4.613   4.091 -0.4549 -1.2907  1.2136
  149MOL0     H20105   7.523   4.587   3.858 -0.0767  1.5848  1.8232
  149MOL0     H20106   7.699   4.595   3.854  0.9457 -0.5106 -0.1658
  149MOL0     H20107   7.656   4.755   3.696 -2.7640 -2.0114 -1.5761
  149MOL0     H20108   7.682   4.842   3.845  0.2188 -1.1095 -0.1658
  149MOL0     H20109   7.427   4.886   3.868 -1.5461  0.3123 -0.9849
  149MOL0     H20110   7.474   4.941   3.711 -3.2341  0.1009  0.4197
  149MOL0     H20111   7.205   4.643   3.613  0.7155 -0.2121 -1.1981
  149MOL0     H20112   7.744   4.971   4.098 -1.7482  0.7514  0.9015
  149MOL0     H20113   7.940   5.117   4.363  2.2167 -1.8392  1.4217
  149MOL0     H20114   8.031   5.043   4.233 -0.7232 -1.0726 -3.6976
  149MOL0     H20115   7.883   5.134   4.204 -0.7237  0.2066  0.1122
  150MOL0     O20116   7.701   9.560   0.611  0.4330 -0.5767 -0.4504
  150MOL0     C20117   7.738   9.610   0.506  0.0080  0.0970 -0.7475
  150MOL0     O20118   7.747   9.750   0.486 -0.8946 -0.3669 -0.2592
  150MOL0     C20119   7.746   9.838   0.600  0.1577  0.4126  0.6093
  150MOL0     C20120   7.870   9.863   0.657 -0.6360 -0.4808 -0.6211
  150MOL0     C20121   7.871   9.940   0.770  0.0045 -0.5802  0.7535
  150MOL0     C20122   7.754   9.991   0.825  0.2012 -0.4658  0.0336
  150MOL0     O20123   7.757  10.051   0.950  0.7709 -0.7834  0.1650
  150MOL0     C20124   7.857  10.151   0.987  0.2137  0.9519  0.2107
  150MOL0     C20125   7.791  10.251   1.066  0.2268 -0.6422  0.1314
  150MOL0     C20126   7.874  10.376   1.061 -0.6169 -0.2840  0.6493
  150MOL0     C20127   7.804  10.502   1.090 -0.8550  0.0602 -0.0516
  150MOL0     C20128   7.882  10.583   1.202  0.3845  0.9150 -0.2169
  150MOL0     C20129   7.830  10.526   1.333 -0.4367  0.5190  0.9693
  150MOL0     C20130   7.920  10.554   1.450  0.8770 -0.3837  0.1797
  150MOL0     C20131   7.861  10.521   1.587 -0.2689  0.0311 -0.7098
  150MOL0     N20132   7.761  10.613   1.629 -0.1244  0.6582  0.2748
  150MOL0     C20133   7.789  10.728   1.696 -0.5536  0.4496  0.3554
  150MOL0     C20134   7.667  10.779   1.728 -0.1924 -0.5037  0.6768
  150MOL0     C20135   7.632  10.916   1.782  1.0352  0.5400  1.0459
  150MOL0     C20136   7.531  10.982   1.680  0.0044  1.0618 -0.8553
  150MOL0     C20137   7.469  11.105   1.729  0.1447  0.1885 -0.1271
  150MOL0     C20138   7.556  11.230   1.686 -0.4931 -0.2067 -0.5590
  150MOL0     O20139   7.520  11.346   1.762  0.4368  0.0897 -0.1754
  150MOL0     C20140   7.553  11.367   1.896 -0.6486  0.3398 -0.0881
  150MOL0     C20141   7.637  11.289   1.975 -0.4813  1.4828 -0.0759
  150MOL0     C20142   7.669  11.319   2.106  0.2338 -0.0218  0.3191
  150MOL0     C20143   7.627  11.443   2.161  0.4385  0.0237 -0.0981
  150MOL0     C20144   7.656  11.477   2.302  0.0464  0.8952  0.1757
  150MOL0     O20145   7.564  11.558   2.366 -0.6519 -0.4375  0.1802
  150MOL0     C20146   7.539  11.544   2.507 -0.0022 -0.0397  0.8639
  150MOL0     C20147   7.575  11.429   2.585  0.1766 -0.4122 -0.8047
  150MOL0     C20148   7.535  11.416   2.719  0.3661  0.6173  0.7905
  150MOL0     C20149   7.457  11.518   2.778  0.5909 -0.1229 -0.2557
  150MOL0     O20150   7.418  11.528   2.912 -0.5576 -0.1781 -0.2087
  150MOL0     C20151   7.476  11.459   3.021  0.3667  0.2006  0.2697
  150MOL0     C20152   7.401  11.338   3.038 -0.2748 -0.9708 -0.1250
  150MOL0     C20153   7.272  11.363   3.121  0.0787  0.5129 -0.1483
  150MOL0     C20154   7.204  11.232   3.134 -0.5583 -0.1323  0.1654
  150MOL0     C20155   7.078  11.242   3.219 -0.3281  0.0147  0.3791
  150MOL0     C20156   6.977  11.320   3.140 -0.2124  0.0397  0.4556
  150MOL0     C20157   6.838  11.344   3.207 -0.0940  0.4111 -0.7160
  150MOL0     C20158   6.755  11.420   3.106  0.3381 -0.3337 -1.0183
  150MOL0    Cl20159   6.811  11.586   3.055  0.7001  0.3533  0.0310
  150MOL0     C20160   7.416  11.624   2.696  1.1336  0.0890 -1.1107
  150MOL0     C20161   7.461  11.647   2.568  0.0936  0.7281 -1.2047
  150MOL0     O20162   7.753  11.424   2.348  0.7462 -0.0135 -0.6855
  150MOL0     C20163   7.537  11.522   2.083 -0.2127  0.2103 -0.5615
  150MOL0     C20164   7.497  11.483   1.953  0.2691 -0.7829  0.3302
  150MOL0     N20165   7.571  10.693   1.662 -0.1031 -0.5645 -0.1353
  150MOL0     N20166   7.625  10.595   1.606 -0.3570 -0.1826 -0.4875
  150MOL0     C20167   7.638   9.976   0.765 -0.3552 -0.1146  0.4232
  150MOL0     C20168   7.626   9.896   0.646  0.3828 -0.4059  0.7898
  150MOL0     C20169   7.750   9.512   0.392 -0.1059  0.1395 -0.0116
  150MOL0     C20170   7.762   9.580   0.268  0.6195 -0.6758  0.3526
  150MOL0     C20171   7.775   9.509   0.150 -0.5755 -0.6132 -0.2991
  150MOL0     C20172   7.756   9.371   0.145 -0.7469 -0.8313 -0.5825
  150MOL0     O20173   7.757   9.302   0.032  0.1639  0.2907  0.3407
  150MOL0     C20174   7.627   9.279  -0.030  0.0865 -0.0592  0.4837
  150MOL0     C20175   7.659   9.227  -0.162 -0.2170 -0.5183 -0.4928
  150MOL0     C20176   7.704   9.080  -0.141 -0.3282 -0.5074  0.4212
  150MOL0     C20177   7.771   9.037  -0.267 -1.1232 -0.7120 -0.1277
  150MOL0     C20178   7.898   9.099  -0.286  0.2701  0.2074  1.7537
  150MOL0     C20179   8.007   9.129  -0.319 -0.1245 -0.4454  0.5466
  150MOL0     C20180   7.747   9.307   0.266 -0.4295  0.5173 -0.1383
  150MOL0     C20181   7.750   9.364   0.394 -0.1559 -1.2461 -0.6072
  150MOL0     C20182   7.748   9.268   0.505 -0.5106 -0.5830  0.2623
  150MOL0     H20183   7.953   9.806   0.616  1.6309  1.7563  0.5053
  150MOL0     H20184   7.958   9.948   0.835 -1.2156  2.8228  2.2272
  150MOL0     H20185   7.928  10.097   1.051  0.6780 -0.6419 -1.5707
  150MOL0     H20186   7.914  10.176   0.897 -3.3051  1.9556 -1.9059
  150MOL0     H20187   7.778  10.217   1.169  1.9107  0.6213  0.8231
  150MOL0     H20188   7.691  10.271   1.026  0.5608 -0.7259 -0.7757
  150MOL0     H20189   7.914  10.382   0.959  1.0513  0.8968  1.3243
  150MOL0     H20190   7.964  10.368   1.123  0.8614  4.7985 -0.3837
  150MOL0     H20191   7.815  10.565   1.001 -0.6554  2.1253  1.3499
  150MOL0     H20192   7.697  10.492   1.111 -0.9519 -0.4358 -0.7427
  150MOL0     H20193   7.990  10.573   1.185  0.5396 -0.1715  1.1800
  150MOL0     H20194   7.868  10.691   1.191  3.7678  1.3930 -1.1613
  150MOL0     H20195   7.728  10.562   1.346 -0.8907  1.0136 -2.6959
  150MOL0     H20196   7.823  10.417   1.326  2.3752  0.3781 -1.8599
  150MOL0     H20197   7.946  10.660   1.450 -2.2542  0.5022  0.3359
  150MOL0     H20198   8.017  10.503   1.443  0.9709 -0.4498  1.6168
  150MOL0     H20199   7.808  10.425   1.590  0.9924 -0.7111  3.1380
  150MOL0     H20200   7.939  10.526   1.664 -0.7302 -2.0621 -0.0310
  150MOL0     H20201   7.889  10.761   1.722  0.1541  1.3824 -3.0503
  150MOL0     H20202   7.576  10.893   1.873  0.1077 -1.5707  0.0110
  150MOL0     H20203   7.728  10.966   1.795  1.8982  0.7392 -4.1199
  150MOL0     H20204   7.593  10.991   1.590 -0.6759  0.4686 -1.3922
  150MOL0     H20205   7.455  10.905   1.665 -0.7754  1.0998  2.3596
  150MOL0     H20206   7.455  11.102   1.837 -0.9412  3.1840 -0.0726
  150MOL0     H20207   7.370  11.094   1.684  0.3814 -3.3864 -0.0461
  150MOL0     H20208   7.540  11.254   1.580  0.4137  3.2455 -0.0377
  150MOL0     H20209   7.662  11.208   1.703 -0.0782  0.9085 -1.5779
  150MOL0     H20210   7.674  11.194   1.939  0.9607  0.6965  3.1045
  150MOL0     H20211   7.720  11.241   2.162 -0.6678  0.3187  1.6788
  150MOL0     H20212   7.616  11.341   2.536 -1.7765 -1.4783 -0.6667
  150MOL0     H20213   7.590  11.341   2.775  0.2387 -1.6012 -1.8396
  150MOL0     H20214   7.580  11.430   3.002  0.7825  0.8036  1.5331
  150MOL0     H20215   7.484  11.510   3.117 -0.9237  3.8486 -1.3899
  150MOL0     H20216   7.384  11.284   2.944 -2.1802  0.5942 -0.7602
  150MOL0     H20217   7.465  11.275   3.100  0.4734 -0.2999 -0.2014
  150MOL0     H20218   7.313  11.391   3.218  2.6539 -0.2949 -0.9138
  150MOL0     H20219   7.211  11.439   3.071  0.3945 -0.1105 -1.5501
  150MOL0     H20220   7.275  11.158   3.170 -2.5533 -0.9771  2.6977
  150MOL0     H20221   7.176  11.190   3.037  0.2712  0.6253 -0.4241
  150MOL0     H20222   7.101  11.281   3.318  1.2261  0.8692 -0.2791
  150MOL0     H20223   7.050  11.141   3.250 -0.2266 -0.2732 -0.4341
  150MOL0     H20224   7.010  11.420   3.111  0.2448  0.3422  1.9178
  150MOL0     H20225   6.957  11.257   3.054  0.7041  0.4783 -0.0933
  150MOL0     H20226   6.844  11.399   3.301 -2.3159 -2.9127  1.6022
  150MOL0     H20227   6.781  11.254   3.232  1.1242  0.3680  2.2160
  150MOL0     H20228   6.766  11.373   3.008 -1.3778 -1.2871 -0.7970
  150MOL0     H20229   6.648  11.423   3.129  0.5167  3.3564  0.0119
  150MOL0     H20230   7.348  11.694   2.743  0.2321 -0.1303 -2.0537
  150MOL0     H20231   7.425  11.731   2.510 -0.1005  1.0294 -0.6556
  150MOL0     H20232   7.503  11.621   2.113  0.2640  0.8476 -2.0222
  150MOL0     H20233   7.430  11.548   1.898  3.5130  1.2917 -1.5479
  150MOL0     H20234   7.545  10.023   0.795 -0.8682 -0.1482 -1.0099
  150MOL0     H20235   7.533   9.889   0.590  1.4135 -1.0770 -0.9068
  150MOL0     H20236   7.745   9.687   0.256 -2.1769 -1.0907 -0.1354
  150MOL0     H20237   7.765   9.563   0.056  2.0903  2.3519  0.9318
  150MOL0     H20238   7.576   9.376  -0.033  0.2919  0.4093  4.7511
  150MOL0     H20239   7.563   9.215   0.032  0.1923 -0.9681 -0.3349
  150MOL0     H20240   7.735   9.299  -0.193 -0.9148 -0.6798 -2.7607
  150MOL0     H20241   7.570   9.227  -0.225  1.1038  0.2032 -2.4487
  150MOL0     H20242   7.620   9.014  -0.116  1.0556 -2.8408 -0.7419
  150MOL0     H20243   7.764   9.065  -0.051  1.1588  0.4788 -0.3578
  150MOL0     H20244   7.809   8.934  -0.270  2.0973  0.2451  2.1711
  150MOL0     H20245   7.696   9.051  -0.346 -0.6164  2.1154 -0.1942
  150MOL0     H20246   8.101   9.162  -0.358 -0.4366 -0.5536 -0.3199
  150MOL0     H20247   7.729   9.200   0.267  0.7432  0.2579  2.6119
  150MOL0     H20248   7.693   9.178   0.478 -0.7440 -0.4441  0.2805
  150MOL0     H20249   7.853   9.236   0.507 -0.6485 -1.2903 -1.4444
  150MOL0     H20250   7.715   9.305   0.602 -0.6607  0.4138 -0.1614
  151MOL0     O20251   6.859   7.071   6.139 -0.4061  0.2111 -0.1151
  151MOL0     C20252   6.928   7.071   6.239  0.3121 -0.0888 -0.2059
  151MOL0     O20253   6.960   6.962   6.319 -0.1084  0.1324 -0.2271
  151MOL0     C20254   6.945   6.831   6.276  0.7256 -0.5278 -1.0502
  151MOL0     C20255   7.026   6.784   6.169  0.3009 -0.4587  0.8926
  151MOL0     C20256   7.018   6.650   6.126 -0.6825  0.1627  0.4289
  151MOL0     C20257   6.939   6.557   6.191  0.7123 -0.7002 -0.7061
  151MOL0     O20258   6.924   6.434   6.133 -0.4583 -1.0089  0.4258
  151MOL0     C20259   6.899   6.314   6.197  0.3873  0.3237 -0.1218
  151MOL0     C20260   6.943   6.206   6.100  0.0632  1.2969 -0.9286
  151MOL0     C20261   6.836   6.205   5.987 -0.0062  0.5803  0.5797
  151MOL0     C20262   6.896   6.132   5.872 -0.0818 -0.0077  0.1280
  151MOL0     C20263   6.798   6.140   5.742  0.1261 -0.5276 -0.1868
  151MOL0     C20264   6.867   6.096   5.617  0.3714  0.6393  0.5678
  151MOL0     C20265   6.888   5.945   5.613 -0.0259 -0.7785  0.1467
  151MOL0     C20266   6.772   5.852   5.629 -0.3856 -0.2204 -0.8965
  151MOL0     N20267   6.653   5.896   5.552  0.3182  0.3145  0.0409
  151MOL0     C20268   6.645   5.854   5.423  0.4592 -0.8457  0.2995
  151MOL0     C20269   6.509   5.841   5.410 -0.0354  0.0083  0.4268
  151MOL0     C20270   6.430   5.775   5.303  0.5074 -0.1085 -0.3485
  151MOL0     C20271   6.419   5.858   5.172  0.3943  0.3173 -0.2739
  151MOL0     C20272   6.294   5.812   5.093  0.5316 -0.8592  0.5532
  151MOL0     C20273   6.175   5.883   5.142 -0.5114  0.0510 -0.0631
  151MOL0     O20274   6.198   6.024   5.135  0.4701 -0.0549 -0.3198
  151MOL0     C20275   6.147   6.095   5.026  0.6946 -1.2565 -0.4177
  151MOL0     C20276   6.098   6.048   4.917 -0.2477  0.2231  1.3669
  151MOL0     C20277   6.035   6.126   4.823  0.8167 -0.0039  0.1052
  151MOL0     C20278   6.015   6.265   4.849 -0.3199  0.2147 -0.4000
  151MOL0     C20279   5.942   6.351   4.751 -1.1247 -0.0820 -0.1323
  151MOL0     O20280   5.919   6.482   4.759 -0.2432 -0.3671 -0.4871
  151MOL0     C20281   5.830   6.542   4.678 -0.2838 -0.8915 -0.8774
  151MOL0     C20282   5.855   6.571   4.550  0.3089 -1.4255  0.6713
  151MOL0     C20283   5.766   6.650   4.464  0.5795  0.9378 -1.1837
  151MOL0     C20284   5.653   6.705   4.528  1.0061  0.5117 -0.0824
  151MOL0     O20285   5.558   6.759   4.442 -0.5816  0.0384 -0.9428
  151MOL0     C20286   5.447   6.837   4.503  0.2997  0.3618  0.5791
  151MOL0     C20287   5.329   6.748   4.519  1.5326  0.7920  0.5477
  151MOL0     C20288   5.293   6.677   4.385  0.3506 -0.6902  1.0908
  151MOL0     C20289   5.263   6.764   4.263 -0.1151 -1.5612 -0.3829
  151MOL0     C20290   5.128   6.843   4.270 -0.0004 -0.9219 -0.1579
  151MOL0     C20291   5.098   6.923   4.142 -0.8199  1.1722  0.8352
  151MOL0     C20292   4.950   6.956   4.127  0.1946  0.7740 -0.7071
  151MOL0     C20293   4.926   7.098   4.065  0.2191  0.5568  0.1610
  151MOL0    Cl20294   5.042   7.111   3.923 -0.0830  0.9033 -0.1808
  151MOL0     C20295   5.628   6.674   4.670  0.9529  0.9782 -0.6603
  151MOL0     C20296   5.717   6.596   4.742  0.4456  0.2345  0.4415
  151MOL0     O20297   5.890   6.278   4.669 -0.2285 -0.8215 -0.1473
  151MOL0     C20298   6.067   6.321   4.961 -0.0383  0.2315 -1.1310
  151MOL0     C20299   6.136   6.237   5.051 -0.4601 -0.9685  0.2118
  151MOL0     N20300   6.450   5.892   5.513 -0.4030 -0.0601 -0.8881
  151MOL0     N20301   6.533   5.929   5.600  0.0414  0.3574  0.0844
  151MOL0     C20302   6.850   6.602   6.298  0.3233 -0.2030 -0.5557
  151MOL0     C20303   6.848   6.733   6.342  0.4916  0.6038 -0.2675
  151MOL0     C20304   6.970   7.196   6.301 -1.4428  1.6475  0.3552
  151MOL0     C20305   7.090   7.180   6.383  0.0484  0.5100 -0.3297
  151MOL0     C20306   7.141   7.293   6.449  0.5173 -0.6794 -0.2815
  151MOL0     C20307   7.076   7.412   6.461  0.2384  0.3846 -1.1823
  151MOL0     O20308   7.132   7.530   6.513  0.7315  1.2262  0.3281
  151MOL0     C20309   7.240   7.534   6.608  0.8861  0.3484  0.4386
  151MOL0     C20310   7.177   7.556   6.756  0.4448  0.2673  0.0305
  151MOL0     C20311   7.113   7.686   6.757  0.1737  0.4615  0.3550
  151MOL0     C20312   7.091   7.732   6.907  0.7460 -0.6318  0.0171
  151MOL0     C20313   7.216   7.778   6.974 -1.1915 -0.2223  0.6934
  151MOL0     C20314   7.321   7.797   7.021 -0.3994  0.9039 -0.2853
  151MOL0     C20315   6.955   7.424   6.389 -1.1706  0.1614 -0.2006
  151MOL0     C20316   6.904   7.323   6.296 -1.7226 -0.8667 -0.0173
  151MOL0     C20317   6.775   7.347   6.224 -0.3012 -0.1358 -0.3800
  151MOL0     H20318   7.093   6.863   6.136  1.7249 -1.2255  1.8184
  151MOL0     H20319   7.070   6.611   6.039  1.9665  1.5566  1.2621
  151MOL0     H20320   6.977   6.317   6.273  3.6115  0.4174 -3.1522
  151MOL0     H20321   6.795   6.293   6.223 -0.3196  2.1355 -1.2779
  151MOL0     H20322   6.932   6.116   6.160 -1.4035  2.5054  0.7152
  151MOL0     H20323   7.044   6.202   6.060 -0.6521  0.5651 -2.7864
  151MOL0     H20324   6.814   6.305   5.949  1.5175  0.1391 -1.6531
  151MOL0     H20325   6.745   6.148   6.008  0.2662 -0.7190 -1.4374
  151MOL0     H20326   6.999   6.158   5.847  1.5598 -3.5095  2.5116
  151MOL0     H20327   6.908   6.027   5.901 -2.8491  0.4191  3.5179
  151MOL0     H20328   6.704   6.086   5.755 -0.2680 -1.3911 -4.8997
  151MOL0     H20329   6.759   6.242   5.736 -1.1606 -0.9889 -0.0027
  151MOL0     H20330   6.804   6.133   5.535 -1.3939  2.0582  2.4746
  151MOL0     H20331   6.961   6.151   5.614  2.1523 -2.1484  1.4817
  151MOL0     H20332   6.939   5.920   5.706 -1.3629  1.6545  1.6611
  151MOL0     H20333   6.931   5.912   5.518 -3.1059 -1.1602 -1.2494
  151MOL0     H20334   6.799   5.749   5.604  0.1113 -0.4113  0.3827
  151MOL0     H20335   6.751   5.855   5.736  1.7066  1.9951 -0.4770
  151MOL0     H20336   6.723   5.834   5.350 -0.8089  0.6051 -1.5487
  151MOL0     H20337   6.472   5.677   5.279  0.2253 -0.1135 -0.8427
  151MOL0     H20338   6.328   5.761   5.341  0.1334 -1.7121 -1.8216
  151MOL0     H20339   6.429   5.966   5.183  1.9545  0.2284 -0.6659
  151MOL0     H20340   6.501   5.814   5.116 -1.8470 -0.6852 -3.0269
  151MOL0     H20341   6.276   5.705   5.105  2.7098 -0.9780  5.0537
  151MOL0     H20342   6.308   5.828   4.986  0.8656 -0.5136  0.6469
  151MOL0     H20343   6.172   5.861   5.249 -0.0666 -0.2262 -0.1036
  151MOL0     H20344   6.081   5.856   5.093 -0.9494  1.4755 -0.0643
  151MOL0     H20345   6.112   5.943   4.893  1.8060  0.9505 -1.0307
  151MOL0     H20346   6.001   6.075   4.733  1.6003  2.4245 -1.6816
  151MOL0     H20347   5.950   6.550   4.501  0.5158  1.6607 -0.5030
  151MOL0     H20348   5.784   6.666   4.358 -0.1839  3.5440 -0.9897
  151MOL0     H20349   5.479   6.879   4.599  4.0975 -1.7280  0.4066
  151MOL0     H20350   5.426   6.915   4.429  2.3967  0.7579  0.3312
  151MOL0     H20351   5.346   6.676   4.600 -2.1512  0.5489  1.2609
  151MOL0     H20352   5.240   6.807   4.541  1.5524  0.7239  0.8051
  151MOL0     H20353   5.364   6.600   4.355 -1.9230 -2.0125 -1.2510
  151MOL0     H20354   5.198   6.631   4.415  0.6566 -0.2410  2.8747
  151MOL0     H20355   5.253   6.688   4.184 -1.4177 -4.6646  2.5066
  151MOL0     H20356   5.349   6.830   4.250 -2.4463  2.0766  1.0425
  151MOL0     H20357   5.126   6.924   4.343 -1.3285 -0.0757 -1.0855
  151MOL0     H20358   5.045   6.773   4.284 -1.3346  0.0717 -2.5635
  151MOL0     H20359   5.150   7.020   4.143  1.0920  0.2629 -1.2841
  151MOL0     H20360   5.134   6.871   4.053  0.9840  1.3439  1.4267
  151MOL0     H20361   4.900   6.965   4.224  0.9521  2.2706 -0.4356
  151MOL0     H20362   4.905   6.885   4.057  0.9640 -2.0655  1.4698
  151MOL0     H20363   4.822   7.103   4.032  0.1959 -3.2407 -0.8068
  151MOL0     H20364   4.938   7.178   4.139 -3.0586  0.4054  1.0272
  151MOL0     H20365   5.539   6.709   4.720  1.9024  2.6644 -0.0835
  151MOL0     H20366   5.700   6.573   4.846 -3.5129  0.9716  0.1204
  151MOL0     H20367   6.039   6.426   4.971  1.2109  0.4589  0.4281
  151MOL0     H20368   6.179   6.277   5.143 -2.1827 -0.1251  0.6941
  151MOL0     H20369   6.786   6.532   6.349  0.6849  0.5689  1.0230
  151MOL0     H20370   6.798   6.774   6.429  1.5005  2.2523 -0.4170
  151MOL0     H20371   7.150   7.090   6.379 -0.2497  0.3414 -2.3117
  151MOL0     H20372   7.236   7.274   6.499 -0.2691  0.7529  1.8661
  151MOL0     H20373   7.308   7.614   6.578  0.8655 -0.2133 -1.2272
  151MOL0     H20374   7.297   7.441   6.601 -0.7402 -0.5951 -1.3447
  151MOL0     H20375   7.253   7.551   6.835  0.7415 -0.6738 -0.3014
  151MOL0     H20376   7.101   7.480   6.777 -0.0874  1.0666  1.0994
  151MOL0     H20377   7.014   7.674   6.711  0.5934 -1.3859 -0.1634
  151MOL0     H20378   7.172   7.759   6.701  0.5151  0.7862  1.1331
  151MOL0     H20379   7.022   7.815   6.896  1.0982 -0.4982 -1.3077
  151MOL0     H20380   7.050   7.652   6.970 -2.0685  1.2031  0.6815
  151MOL0     H20381   7.415   7.819   7.068  1.3423 -2.6630 -1.7350
  151MOL0     H20382   6.914   7.524   6.388  3.2177  2.2389  0.2640
  151MOL0     H20383   6.717   7.436   6.251 -1.2131 -0.6572 -0.5827
  151MOL0     H20384   6.790   7.355   6.116  0.5925  0.4092 -0.2203
  151MOL0     H20385   6.717   7.256   6.242 -2.3748  1.2985  0.5861
  152MOL0     O20386  10.790   1.736   4.984 -0.0049  0.8399 -0.0875
  152MOL0     C20387  10.809   1.809   5.080 -0.1009 -0.2614 -0.2768
  152MOL0     O20388  10.933   1.821   5.143 -0.2465 -0.4337  0.5346
  152MOL0     C20389  11.035   1.758   5.074 -0.4503 -0.0861 -0.3897
  152MOL0     C20390  11.127   1.831   4.996 -0.6691  0.2755 -0.1565
  152MOL0     C20391  11.247   1.771   4.950  0.4802 -0.0888 -0.1614
  152MOL0     C20392  11.268   1.638   4.995 -0.2072 -0.3309 -0.7418
  152MOL0     O20393  11.378   1.565   4.948 -0.2939 -0.1605 -0.3170
  152MOL0     C20394  11.496   1.575   5.018  0.1780 -0.2225 -0.2319
  152MOL0     C20395  11.598   1.461   4.998 -0.1662 -0.5676  0.1726
  152MOL0     C20396  11.657   1.393   5.121  0.5327  0.0943 -0.2963
  152MOL0     C20397  11.550   1.370   5.230  0.5248  0.5628 -0.1959
  152MOL0     C20398  11.599   1.335   5.375 -0.4396 -0.4496 -0.5643
  152MOL0     C20399  11.639   1.193   5.405  0.0534 -0.0490  1.0956
  152MOL0     C20400  11.719   1.179   5.525  0.2663 -0.4800  0.3836
  152MOL0     C20401  11.645   1.209   5.649 -0.2733  0.3769  0.0127
  152MOL0     N20402  11.546   1.104   5.683  0.6869  1.4938 -1.3404
  152MOL0     C20403  11.577   0.978   5.744  0.5587 -1.3584  0.4831
  152MOL0     C20404  11.455   0.931   5.792  0.2021  0.3843  0.4771
  152MOL0     C20405  11.435   0.806   5.877 -0.5052 -1.2673  0.3384
  152MOL0     C20406  11.544   0.705   5.824 -0.3032 -0.4526  0.3323
  152MOL0     C20407  11.507   0.558   5.861 -0.1049  0.1570 -0.1467
  152MOL0     C20408  11.447   0.542   6.002 -0.6975 -0.1638 -0.0243
  152MOL0     O20409  11.536   0.576   6.110 -0.6937 -0.3301 -0.1480
  152MOL0     C20410  11.562   0.473   6.204  0.3765 -0.2677  0.7666
  152MOL0     C20411  11.639   0.490   6.319  0.3179  1.1100  0.6017
  152MOL0     C20412  11.667   0.393   6.420  0.3932  0.6468  0.2831
  152MOL0     C20413  11.616   0.262   6.415 -0.6226  0.2059  0.2297
  152MOL0     C20414  11.654   0.160   6.510 -0.1285 -0.1015 -0.2693
  152MOL0     O20415  11.576   0.047   6.529 -0.0726  0.4368 -0.9656
  152MOL0     C20416  11.615  -0.056   6.616 -0.4606 -0.1654 -0.0390
  152MOL0     C20417  11.530  -0.113   6.718 -1.6185 -0.5925  0.3026
  152MOL0     C20418  11.571  -0.218   6.803  0.3137  0.5629  0.6711
  152MOL0     C20419  11.698  -0.271   6.798 -0.6452  0.6955  1.0215
  152MOL0     O20420  11.754  -0.359   6.882  0.2176 -0.0365 -1.0010
  152MOL0     C20421  11.669  -0.434   6.964 -0.0944 -0.0300 -0.4044
  152MOL0     C20422  11.732  -0.571   7.001 -0.2554  0.0225 -0.1673
  152MOL0     C20423  11.857  -0.557   7.093 -0.6953  0.0676  0.4873
  152MOL0     C20424  11.799  -0.530   7.233  0.3299  0.4994  0.3918
  152MOL0     C20425  11.910  -0.501   7.337  0.0317 -0.5447 -0.6214
  152MOL0     C20426  11.860  -0.508   7.481 -0.3565 -0.8372 -0.4721
  152MOL0     C20427  11.980  -0.495   7.572 -0.2510 -1.1542 -0.2884
  152MOL0     C20428  11.947  -0.499   7.725 -0.4434  0.5107 -1.0519
  152MOL0    Cl20429  11.896  -0.675   7.761  0.3253 -0.2191 -0.0640
  152MOL0     C20430  11.778  -0.214   6.691 -0.5508  0.1526  0.2272
  152MOL0     C20431  11.741  -0.118   6.603  0.1189  0.6038  0.2283
  152MOL0     O20432  11.747   0.197   6.582 -0.1356  0.1290 -0.5460
  152MOL0     C20433  11.547   0.235   6.288  1.2347 -0.7929  0.0959
  152MOL0     C20434  11.518   0.341   6.188 -1.1754 -0.5107  0.2906
  152MOL0     N20435  11.361   1.024   5.754  0.4322 -0.2331  0.1705
  152MOL0     N20436  11.410   1.120   5.684  0.1009 -0.7784  0.2634
  152MOL0     C20437  11.180   1.566   5.080 -0.2284 -0.6138  0.7108
  152MOL0     C20438  11.064   1.631   5.106  0.3182  0.7163 -0.7164
  152MOL0     C20439  10.699   1.899   5.131  0.2777  0.3847  1.0184
  152MOL0     C20440  10.725   1.991   5.242 -0.8449 -0.3416 -0.6159
  152MOL0     C20441  10.625   2.054   5.308  0.7986  0.5932 -0.0582
  152MOL0     C20442  10.499   2.055   5.249 -0.8921 -0.7733 -0.8194
  152MOL0     O20443  10.394   2.121   5.295 -0.6892 -0.6033 -0.2500
  152MOL0     C20444  10.419   2.228   5.388  0.0473 -0.5786 -0.0912
  152MOL0     C20445  10.275   2.272   5.408 -0.2504  1.5379 -0.2048
  152MOL0     C20446  10.255   2.372   5.524  1.4438  0.0407  0.0968
  152MOL0     C20447  10.109   2.427   5.524  0.5602  0.2345  0.1372
  152MOL0     C20448  10.024   2.316   5.581  0.4591 -0.6936 -0.1600
  152MOL0     C20449   9.960   2.210   5.610 -0.0006 -0.2922  0.1916
  152MOL0     C20450  10.472   1.980   5.142  0.6948  0.9865 -0.0654
  152MOL0     C20451  10.563   1.891   5.085  0.4059 -0.8069  0.8079
  152MOL0     C20452  10.509   1.799   4.982  0.4356 -0.3547 -1.1705
  152MOL0     H20453  11.095   1.933   4.977 -0.2596  0.7856  1.7411
  152MOL0     H20454  11.318   1.814   4.880  2.4203  2.2025  2.9549
  152MOL0     H20455  11.537   1.659   4.961 -2.0180 -0.9939 -3.2432
  152MOL0     H20456  11.463   1.598   5.120  0.3758  1.4877 -0.5205
  152MOL0     H20457  11.685   1.497   4.942 -0.9609 -1.6768 -1.8769
  152MOL0     H20458  11.553   1.383   4.936  1.0079  0.7536 -2.5280
  152MOL0     H20459  11.744   1.445   5.162  2.7938 -1.7200 -2.4463
  152MOL0     H20460  11.695   1.295   5.089  0.0891 -0.9613  2.1922
  152MOL0     H20461  11.500   1.464   5.255 -0.7134 -0.4564  1.4760
  152MOL0     H20462  11.471   1.299   5.202  1.1820  0.1460 -1.0190
  152MOL0     H20463  11.690   1.389   5.403 -0.2995 -1.2121  0.5261
  152MOL0     H20464  11.517   1.362   5.442  1.1928  4.2305 -0.1212
  152MOL0     H20465  11.553   1.127   5.397  0.9382 -1.2733  1.3995
  152MOL0     H20466  11.710   1.168   5.325  2.0559 -0.1346  2.8111
  152MOL0     H20467  11.810   1.238   5.519 -0.5284  0.9404  1.5648
  152MOL0     H20468  11.748   1.074   5.529 -0.2402 -0.5911  2.3928
  152MOL0     H20469  11.724   1.223   5.724  1.2742 -2.7798 -0.8556
  152MOL0     H20470  11.591   1.303   5.635  0.1407  0.6211  0.0248
  152MOL0     H20471  11.675   0.931   5.747  0.5491 -1.4421 -0.3179
  152MOL0     H20472  11.448   0.834   5.983  3.4647 -0.1585 -0.2760
  152MOL0     H20473  11.333   0.775   5.855 -0.2881 -0.6342 -1.7119
  152MOL0     H20474  11.554   0.716   5.715  1.2717  1.6266  0.6402
  152MOL0     H20475  11.640   0.726   5.872  0.6496 -1.4946 -1.0091
  152MOL0     H20476  11.596   0.494   5.852  0.0053  0.2336  0.3560
  152MOL0     H20477  11.442   0.516   5.784 -1.6812  3.0207 -0.5142
  152MOL0     H20478  11.406   0.441   5.997 -2.2908  0.2433  2.5098
  152MOL0     H20479  11.357   0.600   6.025 -1.5486 -3.0368  5.6180
  152MOL0     H20480  11.675   0.586   6.357  5.1321 -1.7355  4.3994
  152MOL0     H20481  11.729   0.418   6.505 -2.6774  0.3845  2.7666
  152MOL0     H20482  11.427  -0.079   6.721 -1.5743 -0.0054 -2.4930
  152MOL0     H20483  11.501  -0.254   6.877 -0.2589  0.8121  0.2638
  152MOL0     H20484  11.645  -0.372   7.051 -1.6003 -0.1213 -0.7327
  152MOL0     H20485  11.587  -0.485   6.912 -1.6879  1.1257  0.8536
  152MOL0     H20486  11.662  -0.645   7.043  0.3347  1.1981  3.1566
  152MOL0     H20487  11.755  -0.604   6.899 -0.5677 -2.5428  0.5205
  152MOL0     H20488  11.921  -0.647   7.094 -1.0988 -0.2225  1.2879
  152MOL0     H20489  11.917  -0.469   7.069  0.8559 -1.4060 -1.5269
  152MOL0     H20490  11.754  -0.628   7.252 -0.8226  0.5446 -1.8255
  152MOL0     H20491  11.728  -0.448   7.242  0.2185  0.3618  0.8135
  152MOL0     H20492  11.940  -0.398   7.312 -1.1267  0.5019  1.9198
  152MOL0     H20493  11.989  -0.574   7.317 -1.8973 -2.5927 -1.1416
  152MOL0     H20494  11.789  -0.429   7.507  2.0249  0.7399  1.7429
  152MOL0     H20495  11.822  -0.608   7.506 -2.2489  0.2440  1.3157
  152MOL0     H20496  12.014  -0.391   7.569 -2.9408 -0.2063 -0.2955
  152MOL0     H20497  12.058  -0.568   7.546  2.0026  1.4592 -1.3652
  152MOL0     H20498  12.034  -0.489   7.790 -0.5202 -1.2086 -0.6277
  152MOL0     H20499  11.880  -0.418   7.755  0.2548  0.1331  1.8171
  152MOL0     H20500  11.879  -0.253   6.683 -1.4084 -1.8121 -4.5837
  152MOL0     H20501  11.807  -0.062   6.537 -0.6258  0.5439 -0.5914
  152MOL0     H20502  11.508   0.135   6.272 -0.4835 -0.3576  1.3516
  152MOL0     H20503  11.482   0.297   6.096  1.5016 -0.6995 -0.7366
  152MOL0     H20504  11.213   1.469   5.115  0.2771 -1.7782 -2.5694
  152MOL0     H20505  10.990   1.585   5.170 -0.4447  2.8507  0.0008
  152MOL0     H20506  10.818   2.011   5.295 -0.8084  2.8744 -1.6444
  152MOL0     H20507  10.645   2.105   5.401 -1.9945  1.7163  0.0185
  152MOL0     H20508  10.481   2.305   5.340  1.2369 -0.1073  2.0636
  152MOL0     H20509  10.460   2.194   5.484 -0.1926 -2.1059 -0.5024
  152MOL0     H20510  10.222   2.181   5.437  2.4664  0.6728  2.4797
  152MOL0     H20511  10.241   2.299   5.307 -3.3056 -1.6283 -0.2403
  152MOL0     H20512  10.338   2.443   5.521  1.0716  0.4699 -2.1712
  152MOL0     H20513  10.267   2.331   5.624  3.9856 -0.2366 -0.2513
  152MOL0     H20514  10.109   2.516   5.587  0.7012  0.7154 -0.5292
  152MOL0     H20515  10.079   2.452   5.422  1.2322 -1.7878 -0.6154
  152MOL0     H20516   9.918   2.116   5.639  2.5603 -2.6475 -2.9628
  152MOL0     H20517  10.365   1.977   5.122 -0.3492  3.6491  3.8566
  152MOL0     H20518  10.400   1.811   4.972  0.0816  2.8699  3.4915
  152MOL0     H20519  10.560   1.823   4.888  1.2668 -0.1973 -0.6868
  152MOL0     H20520  10.529   1.696   5.012  1.5516 -0.1254 -1.0840
  153MOL0     O20521   1.406   1.782  11.033 -0.7257  1.0063  0.3787
  153MOL0     C20522   1.405   1.896  11.078  0.2563 -0.6361  0.4504
  153MOL0     O20523   1.509   1.980  11.063  0.1264 -0.3586  0.7147
  153MOL0     C20524   1.623   1.960  10.987  0.1549 -0.3926 -0.1387
  153MOL0     C20525   1.749   1.975  11.048 -0.1170 -0.1761  0.7989
  153MOL0     C20526   1.862   1.964  10.963 -0.5217  0.8761 -0.0698
  153MOL0     C20527   1.856   1.958  10.821  0.1816  0.5619  0.0450
  153MOL0     O20528   1.971   1.946  10.748 -0.1047 -0.7246  0.0671
  153MOL0     C20529   1.959   1.862  10.633 -0.7626 -0.4503  0.0781
  153MOL0     C20530   2.110   1.824  10.599 -0.3934  0.4194 -1.0736
  153MOL0     C20531   2.125   1.711  10.489  0.3216 -0.4919  0.1895
  153MOL0     C20532   2.104   1.762  10.346 -0.1499  1.3491 -0.1076
  153MOL0     C20533   2.080   1.645  10.242 -0.1738  0.8998 -0.8784
  153MOL0     C20534   2.184   1.541  10.229 -1.0807 -0.4598 -0.5145
  153MOL0     C20535   2.151   1.444  10.114  0.2860 -0.2685  0.0371
  153MOL0     C20536   2.216   1.307  10.110  0.9350  0.1857  0.4665
  153MOL0     N20537   2.189   1.228  10.230 -0.3884 -0.1405  1.1791
  153MOL0     C20538   2.076   1.148  10.250 -0.1761 -0.4898 -0.1741
  153MOL0     C20539   2.070   1.134  10.391  0.5432 -0.6551 -0.7284
  153MOL0     C20540   1.939   1.085  10.445  0.2139  0.0280 -0.1336
  153MOL0     C20541   1.968   0.973  10.539  0.2151 -0.0942  0.0706
  153MOL0     C20542   2.030   0.991  10.674 -0.3957 -0.3564 -0.7032
  153MOL0     C20543   1.930   1.047  10.781  0.3869 -0.1105  0.2525
  153MOL0     O20544   1.896   1.185  10.752  0.3246  0.6168  0.7331
  153MOL0     C20545   1.977   1.274  10.820  1.0381  0.2615 -1.0017
  153MOL0     C20546   2.091   1.323  10.761 -0.0760 -0.0394 -0.1870
  153MOL0     C20547   2.178   1.419  10.822  0.5648  0.2042 -0.5579
  153MOL0     C20548   2.136   1.474  10.948 -0.7786 -0.4442 -0.9381
  153MOL0     C20549   2.203   1.587  11.027 -0.0443  0.1119  0.3946
  153MOL0     O20550   2.342   1.601  11.012 -0.1035 -0.0208 -0.5804
  153MOL0     C20551   2.402   1.699  11.083 -0.1745 -0.3402 -1.3345
  153MOL0     C20552   2.469   1.666  11.205 -0.7924  0.8721  0.4772
  153MOL0     C20553   2.527   1.770  11.282  0.9123  0.4355  0.1888
  153MOL0     C20554   2.527   1.901  11.240 -0.2680  0.8189 -0.5992
  153MOL0     O20555   2.609   1.988  11.317 -0.1613  0.0233  0.2117
  153MOL0     C20556   2.619   2.125  11.272  0.3519 -0.3551 -0.2894
  153MOL0     C20557   2.721   2.200  11.364 -0.2029  0.0269  0.9216
  153MOL0     C20558   2.771   2.338  11.304  0.4249  0.5814 -1.1266
  153MOL0     C20559   2.660   2.446  11.305 -1.4261  0.3950 -0.1096
  153MOL0     C20560   2.730   2.582  11.327  0.0550 -0.6031  0.6279
  153MOL0     C20561   2.620   2.676  11.382  0.5769 -0.7764  0.8272
  153MOL0     C20562   2.618   2.667  11.530  0.4249  0.3169  0.7287
  153MOL0     C20563   2.518   2.766  11.591  0.1796  0.3032 -0.3969
  153MOL0    Cl20564   2.553   2.939  11.568  0.0502 -0.4342 -0.4195
  153MOL0     C20565   2.463   1.932  11.117  0.4106  1.0201 -0.2895
  153MOL0     C20566   2.407   1.831  11.037 -0.3714  0.4033 -0.9126
  153MOL0     O20567   2.130   1.658  11.090  0.4399  0.3806  0.6823
  153MOL0     C20568   2.011   1.434  11.007  0.1880  0.5520 -0.0232
  153MOL0     C20569   1.935   1.335  10.947 -0.4777  1.3941 -0.6249
  153MOL0     N20570   2.194   1.176  10.446 -0.1115  0.3019  0.5023
  153MOL0     N20571   2.255   1.236  10.346 -0.1722 -0.3710 -0.3350
  153MOL0     C20572   1.723   1.955  10.759 -0.8435 -1.0013 -0.2386
  153MOL0     C20573   1.612   1.951  10.840  1.2565 -0.1314 -0.0975
  153MOL0     C20574   1.279   1.948  11.135 -0.8130  0.0258 -0.1095
  153MOL0     C20575   1.195   1.850  11.193  0.4093  0.6572 -0.3417
  153MOL0     C20576   1.080   1.883  11.264 -0.1634  0.5966 -0.3078
  153MOL0     C20577   1.036   2.010  11.271  0.1078  0.6495 -0.0327
  153MOL0     O20578   0.915   2.038  11.335 -0.1300  0.7749  0.0859
  153MOL0     C20579   0.808   2.069  11.235  0.5328 -0.2294 -0.3518
  153MOL0     C20580   0.711   2.160  11.303 -0.2802 -0.4643 -0.1370
  153MOL0     C20581   0.775   2.305  11.307  0.4257 -1.3550  0.3957
  153MOL0     C20582   0.667   2.417  11.350  0.0615  0.9447  0.2246
  153MOL0     C20583   0.740   2.534  11.384  0.3251 -0.5135  0.1769
  153MOL0     C20584   0.814   2.630  11.409  0.5566  0.0559 -0.9019
  153MOL0     C20585   1.116   2.115  11.215 -0.1636 -0.0535 -0.0788
  153MOL0     C20586   1.238   2.080  11.151  1.1762 -0.3632  0.3273
  153MOL0     C20587   1.319   2.193  11.087 -0.0247 -0.0500  0.3496
  153MOL0     H20588   1.767   1.982  11.155  1.1844  0.2128  0.5735
  153MOL0     H20589   1.956   1.960  11.018 -1.0418 -1.8850  0.7910
  153MOL0     H20590   1.918   1.767  10.668 -1.9185 -0.2176 -0.5812
  153MOL0     H20591   1.909   1.916  10.552  0.3856  1.0734  0.3393
  153MOL0     H20592   2.156   1.781  10.689 -1.7285  2.1155  0.5070
  153MOL0     H20593   2.172   1.908  10.568  4.7916 -1.0498  3.7087
  153MOL0     H20594   2.062   1.625  10.515  0.1373 -1.1102 -2.1164
  153MOL0     H20595   2.229   1.677  10.502  1.2840  1.7582 -1.1377
  153MOL0     H20596   2.018   1.829  10.343 -1.8842 -0.7589 -0.2729
  153MOL0     H20597   2.186   1.829  10.319 -1.1319  1.8350 -1.9855
  153MOL0     H20598   1.990   1.595  10.281  0.7990  1.7705  2.9111
  153MOL0     H20599   2.055   1.679  10.141  0.3942 -1.7349 -1.9823
  153MOL0     H20600   2.277   1.589  10.196  0.9359 -1.9717  2.4998
  153MOL0     H20601   2.217   1.490  10.319  2.6548 -1.7570 -2.3792
  153MOL0     H20602   2.181   1.480  10.015  0.4775 -2.2364 -0.6697
  153MOL0     H20603   2.042   1.438  10.113  0.3065 -0.5777 -0.2245
  153MOL0     H20604   2.178   1.252  10.023 -2.7229  1.6670  0.9502
  153MOL0     H20605   2.324   1.322  10.107  0.8972  0.4530 -2.2225
  153MOL0     H20606   1.999   1.131  10.176 -1.0371 -4.5288  1.3892
  153MOL0     H20607   1.866   1.163  10.465 -0.2792 -0.2555 -0.8001
  153MOL0     H20608   1.891   1.037  10.360  1.7839  1.9266 -2.2275
  153MOL0     H20609   1.874   0.922  10.562 -0.2640  1.0801  0.8409
  153MOL0     H20610   2.034   0.904  10.486  0.7046 -1.0776  1.8432
  153MOL0     H20611   2.121   1.047  10.654  0.2169 -1.0049  0.1797
  153MOL0     H20612   2.062   0.891  10.704  0.3202 -0.3959 -1.5513
  153MOL0     H20613   1.971   1.039  10.882 -0.0345  0.4676  0.4765
  153MOL0     H20614   1.841   0.984  10.783  0.5955 -0.4331 -0.5161
  153MOL0     H20615   2.112   1.286  10.662  1.6703  0.8258 -0.1768
  153MOL0     H20616   2.266   1.443  10.764  0.1731  1.3410 -0.6956
  153MOL0     H20617   2.468   1.558  11.219 -6.0739  0.6887  0.8364
  153MOL0     H20618   2.588   1.743  11.367  3.1076 -1.9798 -1.9701
  153MOL0     H20619   2.652   2.135  11.168  0.8913 -0.9525 -0.1806
  153MOL0     H20620   2.521   2.172  11.285  0.7970  0.9842 -1.4995
  153MOL0     H20621   2.679   2.201  11.465 -1.5264 -2.2479  0.4576
  153MOL0     H20622   2.820   2.153  11.369  1.0210  2.2654 -0.3225
  153MOL0     H20623   2.862   2.375  11.351  1.4302  0.5528 -2.9710
  153MOL0     H20624   2.792   2.321  11.198  2.2815 -0.6430 -0.6081
  153MOL0     H20625   2.588   2.426  11.385  0.0209 -1.6414  0.7706
  153MOL0     H20626   2.602   2.451  11.212 -2.3587 -0.6049  0.3878
  153MOL0     H20627   2.760   2.622  11.230 -0.2623  0.1171  0.8240
  153MOL0     H20628   2.816   2.582  11.394 -1.4263  1.1394  2.6548
  153MOL0     H20629   2.635   2.777  11.344  5.1488 -1.4578  0.2157
  153MOL0     H20630   2.522   2.640  11.351 -0.2201  0.2853  2.0226
  153MOL0     H20631   2.720   2.677  11.567  1.0844 -1.7484 -0.3852
  153MOL0     H20632   2.572   2.571  11.555  0.4767  0.2555  0.5871
  153MOL0     H20633   2.427   2.744  11.535 -0.5117  1.2869  0.3145
  153MOL0     H20634   2.508   2.748  11.698 -1.1392  2.5033 -0.0909
  153MOL0     H20635   2.469   2.032  11.075  1.7738  0.1083 -2.4470
  153MOL0     H20636   2.374   1.858  10.938  2.5465  0.3959 -1.9642
  153MOL0     H20637   1.976   1.474  11.101 -0.3530  3.4078 -1.3443
  153MOL0     H20638   1.852   1.285  10.996 -0.2582 -1.1897 -2.6903
  153MOL0     H20639   1.713   1.954  10.651  1.0973  2.2703 -0.5966
  153MOL0     H20640   1.513   1.940  10.797  0.8689 -0.8609  0.9629
  153MOL0     H20641   1.222   1.745  11.197  0.1638  0.4933 -2.1352
  153MOL0     H20642   1.029   1.804  11.317  2.1520 -0.4717  0.4996
  153MOL0     H20643   0.764   1.977  11.196  1.4882 -0.2969 -1.3125
  153MOL0     H20644   0.844   2.125  11.148  3.8058  0.6966  1.4365
  153MOL0     H20645   0.679   2.119  11.399 -0.2706 -2.1937 -0.8298
  153MOL0     H20646   0.618   2.167  11.247  1.2519 -0.2199 -2.8604
  153MOL0     H20647   0.816   2.334  11.209 -2.0280 -2.7995 -1.1741
  153MOL0     H20648   0.858   2.307  11.378  1.2156  1.9862 -0.4631
  153MOL0     H20649   0.594   2.429  11.269  1.7926 -0.8252 -1.7142
  153MOL0     H20650   0.611   2.383  11.438 -0.4276  1.8987  0.3005
  153MOL0     H20651   0.875   2.714  11.434 -0.5121  2.3833 -5.1595
  153MOL0     H20652   1.079   2.216  11.227 -1.7944 -0.2321 -2.8783
  153MOL0     H20653   1.358   2.142  10.999 -1.1469 -0.8307  0.2774
  153MOL0     H20654   1.257   2.281  11.067 -2.0858 -1.6920 -0.8646
  153MOL0     H20655   1.395   2.216  11.162  1.5719  2.4453 -1.8971
  154MOL0     O20656   5.636   7.263   0.824 -0.2907 -0.0852  0.9296
  154MOL0     C20657   5.539   7.246   0.756  0.9101  0.8242  0.0171
  154MOL0     O20658   5.425   7.302   0.792  0.2261 -0.6755  0.2505
  154MOL0     C20659   5.405   7.345   0.920  0.7832 -0.1933  0.4828
  154MOL0     C20660   5.330   7.264   1.008  0.6386  0.0091  1.1284
  154MOL0     C20661   5.299   7.319   1.135  0.3195  0.5662 -0.3203
  154MOL0     C20662   5.341   7.445   1.189 -0.7097  0.2358 -0.0357
  154MOL0     O20663   5.324   7.491   1.319 -0.6148 -0.3515 -0.8423
  154MOL0     C20664   5.261   7.415   1.425 -0.1527  0.1992 -0.3264
  154MOL0     C20665   5.360   7.300   1.464  0.3039 -0.3226  0.9924
  154MOL0     C20666   5.314   7.177   1.539 -0.1515  0.2542  0.3108
  154MOL0     C20667   5.241   7.208   1.667  0.3200 -0.3946 -0.3436
  154MOL0     C20668   5.229   7.076   1.749  0.4890 -0.9909 -0.6246
  154MOL0     C20669   5.193   6.951   1.685 -0.0298 -0.9106  0.1021
  154MOL0     C20670   5.042   6.952   1.633 -0.2455  0.2122 -0.5740
  154MOL0     C20671   4.934   6.946   1.746  0.1940  0.1843  1.4975
  154MOL0     N20672   4.952   6.816   1.804 -1.0767  0.2059 -0.2576
  154MOL0     C20673   4.927   6.693   1.746 -0.6514 -0.6880 -0.4120
  154MOL0     C20674   4.963   6.604   1.842  0.5125 -0.3168  0.1620
  154MOL0     C20675   4.945   6.455   1.824 -0.1478 -0.4958  0.2638
  154MOL0     C20676   5.065   6.385   1.768 -0.0711 -0.0158  0.4318
  154MOL0     C20677   5.020   6.236   1.763  0.6329 -0.5454  0.1543
  154MOL0     C20678   5.137   6.141   1.738 -0.2206  0.3852  0.2792
  154MOL0     O20679   5.094   6.002   1.715  0.2029 -0.7819  0.1826
  154MOL0     C20680   5.179   5.919   1.639 -0.1924 -0.2425 -0.7130
  154MOL0     C20681   5.318   5.932   1.609  0.1594  0.0946 -0.3841
  154MOL0     C20682   5.396   5.834   1.550  0.0080 -0.0207 -0.2368
  154MOL0     C20683   5.347   5.711   1.517 -0.3488  0.1241 -0.0074
  154MOL0     C20684   5.427   5.607   1.455  1.1135  0.5515 -1.4900
  154MOL0     O20685   5.359   5.503   1.400 -0.9638  0.0792  0.1513
  154MOL0     C20686   5.422   5.417   1.311  1.1790 -0.3619 -0.5910
  154MOL0     C20687   5.359   5.418   1.187  0.2265  0.5956 -0.3994
  154MOL0     C20688   5.409   5.323   1.092 -0.5354  0.1667 -0.1426
  154MOL0     C20689   5.525   5.243   1.110 -0.7172  1.4478 -0.6803
  154MOL0     O20690   5.582   5.155   1.021 -0.2480  1.2102 -0.2154
  154MOL0     C20691   5.545   5.176   0.884 -0.1374 -1.1737 -0.3284
  154MOL0     C20692   5.590   5.310   0.820 -1.3317 -0.5243  0.2437
  154MOL0     C20693   5.749   5.335   0.816  1.2487 -0.7041  0.7680
  154MOL0     C20694   5.803   5.230   0.728 -0.2284  0.2543  0.2106
  154MOL0     C20695   5.943   5.249   0.677  0.5164 -0.9283  0.1038
  154MOL0     C20696   5.972   5.133   0.587  1.1012 -0.3473 -0.9793
  154MOL0     C20697   6.111   5.145   0.537 -0.7697 -0.4642  1.4133
  154MOL0     C20698   6.129   5.021   0.440  0.0224 -0.1317  0.0344
  154MOL0    Cl20699   6.074   5.075   0.288  0.1126 -0.2950 -0.3039
  154MOL0     C20700   5.580   5.248   1.241  0.0928 -0.3737 -0.4219
  154MOL0     C20701   5.535   5.342   1.336  0.2910  0.3059 -0.2744
  154MOL0     O20702   5.540   5.630   1.456 -0.5370  0.2076 -0.6835
  154MOL0     C20703   5.207   5.690   1.545  0.8754 -0.9106 -0.7278
  154MOL0     C20704   5.123   5.802   1.598 -0.3575  1.5706 -0.0736
  154MOL0     N20705   4.992   6.669   1.963 -0.7439 -1.3838 -0.0001
  154MOL0     N20706   4.992   6.798   1.934  0.1330 -0.0249  0.4346
  154MOL0     C20707   5.415   7.519   1.099  0.3155 -0.1657  0.0527
  154MOL0     C20708   5.440   7.473   0.972 -0.2309  1.6927 -0.4785
  154MOL0     C20709   5.560   7.189   0.617  0.2956 -0.0134  0.6304
  154MOL0     C20710   5.677   7.115   0.586 -0.6321 -0.4205 -0.3067
  154MOL0     C20711   5.692   7.036   0.469  0.8710  0.2931 -1.1150
  154MOL0     C20712   5.588   7.034   0.385 -0.3205  0.2795  0.7158
  154MOL0     O20713   5.613   6.952   0.270  0.2249  0.3297 -0.2987
  154MOL0     C20714   5.502   6.914   0.186 -0.1685  0.1502  0.1209
  154MOL0     C20715   5.554   6.832   0.072 -0.1801  0.3230  0.8101
  154MOL0     C20716   5.668   6.903  -0.001  0.4569 -0.8765  0.9470
  154MOL0     C20717   5.727   6.815  -0.120 -0.9787  0.9630  0.8050
  154MOL0     C20718   5.659   6.818  -0.249  0.5583  0.1794  0.3317
  154MOL0     C20719   5.591   6.832  -0.353 -0.2096 -0.4254  0.1299
  154MOL0     C20720   5.469   7.107   0.398 -0.2970 -0.4532 -1.0814
  154MOL0     C20721   5.450   7.178   0.525 -0.6024  0.3593 -0.2673
  154MOL0     C20722   5.319   7.246   0.530  0.2828  0.1420 -0.5000
  154MOL0     H20723   5.284   7.174   0.969  0.4315  0.6780 -0.2467
  154MOL0     H20724   5.231   7.248   1.182  0.8717  0.2417  0.0138
  154MOL0     H20725   5.232   7.481   1.507  1.6372  2.7172 -1.5837
  154MOL0     H20726   5.180   7.364   1.373 -0.9026 -1.7689  2.5292
  154MOL0     H20727   5.436   7.355   1.521 -1.6527  0.8355  2.5973
  154MOL0     H20728   5.411   7.265   1.373  0.1564  2.2134 -0.1618
  154MOL0     H20729   5.409   7.133   1.571 -0.7349 -0.0255  1.7227
  154MOL0     H20730   5.263   7.106   1.473  2.2396 -0.8258 -0.5073
  154MOL0     H20731   5.290   7.287   1.723 -1.6100  0.1600  0.6321
  154MOL0     H20732   5.140   7.244   1.646  0.9918  2.0713  0.4055
  154MOL0     H20733   5.321   7.065   1.807  0.4549  1.1396 -0.0806
  154MOL0     H20734   5.147   7.091   1.821  0.9301  0.7886 -0.4554
  154MOL0     H20735   5.265   6.930   1.606 -1.0633 -0.9534 -0.8561
  154MOL0     H20736   5.201   6.872   1.760 -0.4525 -0.4300  0.6661
  154MOL0     H20737   5.044   6.874   1.556  0.4074 -0.1659 -0.1793
  154MOL0     H20738   5.044   7.047   1.580  0.7946  0.8245  0.5120
  154MOL0     H20739   4.944   7.040   1.800  0.2933  0.6560  0.6653
  154MOL0     H20740   4.835   6.952   1.701  1.5440  3.5891 -1.4463
  154MOL0     H20741   4.897   6.685   1.642 -3.4050  2.0585  0.0075
  154MOL0     H20742   4.924   6.411   1.922  0.4586 -3.7707 -0.9680
  154MOL0     H20743   4.862   6.448   1.754  0.5739  1.3981 -0.8800
  154MOL0     H20744   5.085   6.416   1.665 -2.4849 -0.2830 -0.1709
  154MOL0     H20745   5.157   6.409   1.822  0.8260 -2.5808  0.2201
  154MOL0     H20746   4.948   6.227   1.681 -0.3181  0.2595  0.8715
  154MOL0     H20747   4.964   6.196   1.848 -0.8042 -2.4397 -1.5718
  154MOL0     H20748   5.188   6.140   1.834 -0.5535  0.7184  0.4631
  154MOL0     H20749   5.196   6.184   1.657 -0.2123 -3.9569 -2.3426
  154MOL0     H20750   5.366   6.028   1.621  1.3416 -0.5619  0.3237
  154MOL0     H20751   5.497   5.852   1.518  0.3804  0.8766  1.3254
  154MOL0     H20752   5.258   5.458   1.187 -1.7846 -3.8134  1.1663
  154MOL0     H20753   5.355   5.308   0.999  2.1175  0.7365 -1.8906
  154MOL0     H20754   5.589   5.087   0.837  1.8190 -2.2831  3.1946
  154MOL0     H20755   5.440   5.158   0.862 -0.2620 -0.3845 -0.4190
  154MOL0     H20756   5.536   5.323   0.726 -1.4488  0.1588  0.3978
  154MOL0     H20757   5.550   5.389   0.884  2.0895  0.0904  1.8548
  154MOL0     H20758   5.759   5.440   0.786  5.1350 -1.2974 -0.6305
  154MOL0     H20759   5.780   5.335   0.921  0.1075 -2.3722  1.1465
  154MOL0     H20760   5.745   5.224   0.636  1.5212 -1.2144 -0.8747
  154MOL0     H20761   5.781   5.137   0.782 -1.6031  0.2411 -0.3297
  154MOL0     H20762   6.016   5.255   0.759  0.3396  3.1921  0.1762
  154MOL0     H20763   5.960   5.342   0.622  3.0955 -0.7554  1.0638
  154MOL0     H20764   5.948   5.042   0.643  1.8763 -0.3343 -0.6104
  154MOL0     H20765   5.902   5.142   0.503  0.9288 -0.3705 -0.8390
  154MOL0     H20766   6.174   5.131   0.625  0.6945  0.0539  0.4993
  154MOL0     H20767   6.138   5.243   0.497  0.7778 -2.8679 -4.5987
  154MOL0     H20768   6.233   4.987   0.448 -0.5331 -1.8866  0.3990
  154MOL0     H20769   6.070   4.932   0.465 -0.5459 -0.5456 -2.5240
  154MOL0     H20770   5.662   5.180   1.261 -0.7455 -1.8259 -1.7097
  154MOL0     H20771   5.589   5.341   1.431  0.8846 -1.5107 -0.5977
  154MOL0     H20772   5.153   5.599   1.523 -2.6725  1.4125 -2.6655
  154MOL0     H20773   5.024   5.773   1.632 -0.3834 -1.3483 -2.2677
  154MOL0     H20774   5.455   7.614   1.130  0.2495  0.2579 -1.0948
  154MOL0     H20775   5.502   7.531   0.904 -0.2448  1.8409 -0.3653
  154MOL0     H20776   5.748   7.118   0.668 -1.6421  2.0495  0.5858
  154MOL0     H20777   5.778   6.972   0.455 -0.2452 -2.2386  2.2681
  154MOL0     H20778   5.447   6.996   0.139  1.7831  0.2671 -2.1799
  154MOL0     H20779   5.436   6.852   0.248 -1.5328 -0.7863 -2.1578
  154MOL0     H20780   5.482   6.821  -0.010  1.9040  1.1514 -1.2434
  154MOL0     H20781   5.593   6.735   0.105  0.6734 -2.9259 -7.2436
  154MOL0     H20782   5.753   6.932   0.060  3.3883  0.0227 -3.1774
  154MOL0     H20783   5.628   6.997  -0.040 -0.6058 -1.0512  1.5797
  154MOL0     H20784   5.821   6.866  -0.143  0.3224 -2.3973 -2.1850
  154MOL0     H20785   5.742   6.713  -0.085 -0.6186  1.6928  2.9314
  154MOL0     H20786   5.531   6.851  -0.440 -3.3066 -1.8025  1.7961
  154MOL0     H20787   5.395   7.099   0.319 -1.9709 -1.4103  0.5090
  154MOL0     H20788   5.248   7.191   0.592  0.4288  1.0555  0.5113
  154MOL0     H20789   5.337   7.345   0.573 -1.8488  0.1163  0.6264
  154MOL0     H20790   5.268   7.253   0.433 -0.0851 -0.8537 -0.3902
  155MOL0     O20791   8.728   2.605   5.693  1.1496 -0.1690  0.2099
  155MOL0     C20792   8.746   2.649   5.805 -0.1464  0.4566  0.1650
  155MOL0     O20793   8.702   2.764   5.856 -0.6786  0.3285 -0.3488
  155MOL0     C20794   8.639   2.845   5.765 -1.2479 -0.4689  0.3324
  155MOL0     C20795   8.499   2.831   5.761 -0.9645 -0.1592 -0.1006
  155MOL0     C20796   8.433   2.907   5.661  0.3724  0.6431 -1.2028
  155MOL0     C20797   8.502   2.984   5.567  0.9040  0.0891 -0.3215
  155MOL0     O20798   8.423   3.058   5.478  0.0090  0.0686  0.0711
  155MOL0     C20799   8.470   3.071   5.345 -0.8366  0.1289  0.7498
  155MOL0     C20800   8.371   3.131   5.252  0.3059 -0.4718  0.1321
  155MOL0     C20801   8.417   3.157   5.111  0.0079  1.3369  1.0945
  155MOL0     C20802   8.372   3.294   5.051 -0.9014  0.4811  0.1050
  155MOL0     C20803   8.372   3.290   4.895 -0.0746 -0.4628 -0.6244
  155MOL0     C20804   8.317   3.419   4.844  0.6870 -0.2431 -0.8609
  155MOL0     C20805   8.310   3.407   4.692 -0.1095 -0.7297  0.7161
  155MOL0     C20806   8.219   3.296   4.645 -0.0768  0.3851  1.0895
  155MOL0     N20807   8.159   3.324   4.510  0.1390  0.1132 -0.4726
  155MOL0     C20808   8.235   3.345   4.398  0.3429  0.3467  0.1828
  155MOL0     C20809   8.154   3.401   4.302 -0.0507 -0.2903  0.6920
  155MOL0     C20810   8.203   3.430   4.165  0.3786  0.6760 -0.7836
  155MOL0     C20811   8.116   3.508   4.068  0.0245  0.0041  1.0333
  155MOL0     C20812   8.106   3.660   4.067 -0.4540 -0.4108 -0.1484
  155MOL0     C20813   8.061   3.701   3.923 -1.1864  0.1989  0.2042
  155MOL0     O20814   8.097   3.833   3.892  0.4040 -1.2914 -0.6099
  155MOL0     C20815   8.040   3.892   3.783 -0.5119  0.6504 -0.7793
  155MOL0     C20816   8.045   4.030   3.775  0.4987  0.5877  0.4432
  155MOL0     C20817   7.976   4.107   3.681 -0.4139  0.6824  0.3025
  155MOL0     C20818   7.908   4.035   3.577  0.0491 -0.4180 -0.0177
  155MOL0     C20819   7.816   4.117   3.487 -0.6896 -0.3457 -0.4232
  155MOL0     O20820   7.839   4.253   3.486  0.8268 -0.0054  0.0268
  155MOL0     C20821   7.740   4.333   3.434 -0.5450  0.0291  0.0322
  155MOL0     C20822   7.685   4.309   3.309  0.1098  0.1373 -0.0876
  155MOL0     C20823   7.573   4.381   3.273 -0.6557  0.0120  0.3303
  155MOL0     C20824   7.530   4.496   3.348 -0.4195  1.1466  0.0397
  155MOL0     O20825   7.424   4.572   3.320 -0.2424 -0.1546  0.0531
  155MOL0     C20826   7.387   4.565   3.181 -1.2772 -0.3974  0.3813
  155MOL0     C20827   7.328   4.690   3.131  0.6242  0.3297 -1.4460
  155MOL0     C20828   7.179   4.699   3.160 -0.1667 -0.3297  0.4244
  155MOL0     C20829   7.138   4.847   3.152  0.7653  0.2046  0.5100
  155MOL0     C20830   6.980   4.850   3.196 -0.0739 -0.9085 -0.0208
  155MOL0     C20831   6.947   5.003   3.204  0.3746 -1.2716  0.1951
  155MOL0     C20832   6.825   5.023   3.297 -0.6599 -0.0888  0.5212
  155MOL0     C20833   6.783   5.168   3.281  0.4083 -0.5674  0.6358
  155MOL0    Cl20834   6.902   5.277   3.370 -0.3738  0.0817  0.2095
  155MOL0     C20835   7.595   4.525   3.463 -0.3318 -0.3167 -0.4961
  155MOL0     C20836   7.704   4.446   3.504  0.4809  0.4561 -0.2627
  155MOL0     O20837   7.741   4.059   3.412 -0.1002  0.3395 -0.0826
  155MOL0     C20838   7.899   3.896   3.579 -0.0955  0.3503  0.4158
  155MOL0     C20839   7.974   3.830   3.684  0.0737 -0.2860 -0.0142
  155MOL0     N20840   8.034   3.410   4.364 -1.2567 -0.3115  0.1133
  155MOL0     N20841   8.036   3.375   4.489 -0.4854 -0.4323  0.3187
  155MOL0     C20842   8.646   2.993   5.580  0.5034 -0.8220 -0.1947
  155MOL0     C20843   8.712   2.930   5.683 -0.4382  0.3065 -0.4644
  155MOL0     C20844   8.815   2.557   5.900  0.4240  0.3709  0.7753
  155MOL0     C20845   8.904   2.632   5.988 -0.6033  0.1547  0.2956
  155MOL0     C20846   8.972   2.559   6.092  0.5817 -0.6886 -0.9489
  155MOL0     C20847   8.951   2.421   6.105 -0.1952  0.9177 -0.5384
  155MOL0     O20848   9.021   2.358   6.209 -0.5926  0.5952  0.6313
  155MOL0     C20849   9.070   2.226   6.165 -0.1297 -0.1278  0.3304
  155MOL0     C20850   9.185   2.174   6.258  0.1858 -0.4569  0.0592
  155MOL0     C20851   9.120   2.113   6.378 -1.1384 -0.0864  0.6623
  155MOL0     C20852   9.233   2.079   6.483  0.8641  0.9586  1.2556
  155MOL0     C20853   9.255   2.192   6.580  0.2981 -0.0117  0.1814
  155MOL0     C20854   9.276   2.289   6.659 -0.5771 -0.3415 -0.1306
  155MOL0     C20855   8.862   2.350   6.023 -1.0401  0.3933  0.2164
  155MOL0     C20856   8.804   2.418   5.919  0.2874 -0.3394 -0.2200
  155MOL0     C20857   8.692   2.341   5.853  0.4595 -0.9580 -0.1354
  155MOL0     H20858   8.443   2.782   5.840 -5.5559  3.2926 -0.8605
  155MOL0     H20859   8.325   2.899   5.648  0.3819  1.3762 -1.7952
  155MOL0     H20860   8.565   3.124   5.340 -0.5885 -0.4348 -1.7057
  155MOL0     H20861   8.479   2.966   5.317  0.7012 -1.3710  5.8305
  155MOL0     H20862   8.344   3.222   5.306  0.5214 -1.2576  1.6168
  155MOL0     H20863   8.287   3.061   5.255  0.8050 -1.0782  0.1417
  155MOL0     H20864   8.382   3.074   5.049 -1.8420 -0.1016  3.8552
  155MOL0     H20865   8.526   3.156   5.121  0.3664 -0.8915 -1.7612
  155MOL0     H20866   8.266   3.305   5.074 -0.4359  3.0966  1.3370
  155MOL0     H20867   8.430   3.378   5.092 -1.2986 -0.3665  2.5878
  155MOL0     H20868   8.476   3.281   4.862  0.0024  1.6130 -1.0791
  155MOL0     H20869   8.303   3.206   4.881  2.3317 -3.2944  2.8020
  155MOL0     H20870   8.217   3.447   4.881  0.4465  1.4808 -2.5919
  155MOL0     H20871   8.388   3.494   4.880  0.1238 -0.6740  1.3110
  155MOL0     H20872   8.409   3.391   4.649 -0.4767  0.1948 -0.5325
  155MOL0     H20873   8.263   3.497   4.652 -3.0792 -2.1076  0.8301
  155MOL0     H20874   8.284   3.209   4.628 -1.4945 -0.3538 -0.8757
  155MOL0     H20875   8.136   3.277   4.713 -1.1701 -2.1740 -0.8046
  155MOL0     H20876   8.337   3.316   4.372  0.0553  1.4333 -2.5054
  155MOL0     H20877   8.302   3.476   4.177 -0.2667  1.3214  5.4365
  155MOL0     H20878   8.205   3.327   4.130 -0.2041  0.2852  0.3029
  155MOL0     H20879   8.155   3.479   3.970  0.5804 -0.2107  1.3138
  155MOL0     H20880   8.013   3.469   4.070  1.2735 -3.7840  0.4343
  155MOL0     H20881   8.202   3.709   4.085  0.1755 -2.6169  3.5591
  155MOL0     H20882   8.033   3.701   4.137  0.6889  1.6054 -0.0807
  155MOL0     H20883   7.953   3.687   3.910 -0.6115 -1.5093 -4.5767
  155MOL0     H20884   8.114   3.635   3.854  2.6650  1.6924  1.4623
  155MOL0     H20885   8.103   4.074   3.856  0.7152 -3.4027  2.7194
  155MOL0     H20886   7.985   4.215   3.691  1.1039  0.6820 -0.6236
  155MOL0     H20887   7.724   4.237   3.237  2.3461  2.2978 -1.1792
  155MOL0     H20888   7.552   4.347   3.172  2.3509 -2.7730  0.4599
  155MOL0     H20889   7.473   4.548   3.116  0.1717  0.7661  1.9017
  155MOL0     H20890   7.305   4.495   3.164 -2.9050  1.4678  0.1508
  155MOL0     H20891   7.363   4.773   3.193 -3.1905  1.3773 -0.4056
  155MOL0     H20892   7.341   4.703   3.023 -1.9924  0.9114 -1.7639
  155MOL0     H20893   7.129   4.641   3.083  0.0774 -0.8916  0.6819
  155MOL0     H20894   7.160   4.649   3.255  4.1442 -3.5261 -0.0371
  155MOL0     H20895   7.147   4.896   3.055 -2.5478  0.4742  0.2016
  155MOL0     H20896   7.189   4.908   3.226 -1.6742  1.6002  1.1640
  155MOL0     H20897   6.969   4.806   3.296 -1.1676  0.7376  0.6248
  155MOL0     H20898   6.912   4.805   3.124 -1.5787 -0.0153  0.7974
  155MOL0     H20899   7.031   5.070   3.225 -0.3553 -0.4264  0.4795
  155MOL0     H20900   6.912   5.027   3.103 -1.5898 -2.7605  0.4590
  155MOL0     H20901   6.853   4.999   3.400 -0.9321 -2.5854  0.0885
  155MOL0     H20902   6.746   4.955   3.264  1.1779 -1.3766 -1.4996
  155MOL0     H20903   6.773   5.197   3.176 -2.0179  0.9193  1.1995
  155MOL0     H20904   6.687   5.171   3.333  0.9305 -1.7718  1.7321
  155MOL0     H20905   7.562   4.618   3.510  2.8036  1.6893 -1.9613
  155MOL0     H20906   7.733   4.470   3.606 -0.1917  1.3484 -0.2654
  155MOL0     H20907   7.864   3.837   3.496  1.4452  2.2674 -1.7178
  155MOL0     H20908   7.981   3.722   3.690  1.3339 -0.1972  0.3834
  155MOL0     H20909   8.707   3.056   5.517 -0.0240  0.3951  0.4699
  155MOL0     H20910   8.820   2.924   5.690 -0.5121 -0.9246 -0.0397
  155MOL0     H20911   8.933   2.737   5.992  1.1364 -0.2127 -1.3619
  155MOL0     H20912   9.037   2.609   6.162  0.9771  0.0916 -1.8528
  155MOL0     H20913   9.105   2.228   6.062 -1.6716  1.2905 -0.2120
  155MOL0     H20914   8.992   2.149   6.165  1.3923 -1.7611 -1.0214
  155MOL0     H20915   9.250   2.258   6.285  2.6315 -1.5532 -2.0393
  155MOL0     H20916   9.245   2.100   6.204 -0.3544 -1.0917  0.3075
  155MOL0     H20917   9.055   2.030   6.349 -1.7732  1.6956 -3.8758
  155MOL0     H20918   9.057   2.187   6.427 -2.0099  1.4662 -2.5915
  155MOL0     H20919   9.198   2.000   6.549  1.5702 -0.2338  0.2335
  155MOL0     H20920   9.324   2.045   6.432 -1.3408  1.6062 -3.7286
  155MOL0     H20921   9.293   2.368   6.730 -0.6751 -0.3824 -0.0623
  155MOL0     H20922   8.838   2.245   6.036 -2.8964  0.7918  0.2187
  155MOL0     H20923   8.728   2.288   5.764  2.9255  0.0247  0.2067
  155MOL0     H20924   8.657   2.270   5.929 -2.4688  0.8638  0.4061
  155MOL0     H20925   8.606   2.399   5.817  1.6968 -0.7866 -3.1451
  156MOL0     O20926   4.439   2.414  11.385  0.5147 -0.6171 -0.1423
  156MOL0     C20927   4.492   2.469  11.479  0.3111 -1.0919  0.0385
  156MOL0     O20928   4.629   2.469  11.488 -0.3583 -0.0441 -0.5219
  156MOL0     C20929   4.692   2.377  11.412 -0.2527 -0.2267  0.2950
  156MOL0     C20930   4.781   2.411  11.316 -0.3381  0.4571  0.9267
  156MOL0     C20931   4.854   2.313  11.242 -0.9310  0.5785 -1.6118
  156MOL0     C20932   4.835   2.177  11.267 -0.3500 -0.1004 -0.6945
  156MOL0     O20933   4.906   2.088  11.199 -0.3632  0.3291 -0.4874
  156MOL0     C20934   5.035   2.060  11.255 -0.1819  0.8281 -0.4605
  156MOL0     C20935   5.113   2.001  11.128  0.1840 -1.3495  0.4124
  156MOL0     C20936   5.235   1.920  11.160 -0.8344  0.4775  0.1258
  156MOL0     C20937   5.281   1.829  11.035 -0.2984 -0.8165  0.8128
  156MOL0     C20938   5.362   1.908  10.941  0.4159 -0.1055 -0.0410
  156MOL0     C20939   5.411   1.823  10.819 -0.3346  0.6691  1.0274
  156MOL0     C20940   5.519   1.709  10.825 -0.9912  0.1065 -0.2110
  156MOL0     C20941   5.669   1.762  10.848 -0.0155 -0.2065 -0.4720
  156MOL0     N20942   5.709   1.818  10.981  0.1222  0.9258  0.1891
  156MOL0     C20943   5.651   1.787  11.099 -0.2514  0.5619  0.4193
  156MOL0     C20944   5.707   1.874  11.191  0.1365 -0.5351  0.1983
  156MOL0     C20945   5.677   1.874  11.332 -0.0220 -0.1330 -0.5272
  156MOL0     C20946   5.602   2.008  11.369 -0.4601  0.4087 -0.2639
  156MOL0     C20947   5.620   2.034  11.525 -0.0644  0.4146  0.3137
  156MOL0     C20948   5.530   1.949  11.618 -0.7734 -0.3950 -0.3299
  156MOL0     O20949   5.605   1.931  11.744  0.5235 -0.1339  0.0277
  156MOL0     C20950   5.646   1.805  11.774  1.1191  0.0548  0.3696
  156MOL0     C20951   5.767   1.757  11.727 -1.2590  0.3970  1.0783
  156MOL0     C20952   5.813   1.634  11.750 -0.0516 -0.3784  0.2882
  156MOL0     C20953   5.727   1.536  11.812  0.2786  0.7493  0.2648
  156MOL0     C20954   5.775   1.399  11.831  0.7491 -0.3877  1.4253
  156MOL0     O20955   5.692   1.323  11.910 -0.6862  0.7351  0.5195
  156MOL0     C20956   5.731   1.202  11.960 -0.1384  0.0240  0.8773
  156MOL0     C20957   5.712   1.171  12.095  0.7494 -0.7018 -0.5763
  156MOL0     C20958   5.777   1.075  12.170  0.0259 -0.0039 -0.0153
  156MOL0     C20959   5.866   0.987  12.106  0.8130  0.1577 -0.9076
  156MOL0     O20960   5.939   0.898  12.176  0.3566  0.0887  0.2353
  156MOL0     C20961   5.948   0.771  12.116  0.0149 -0.1356  0.4480
  156MOL0     C20962   5.935   0.660  12.225  0.0637 -0.6874  0.1848
  156MOL0     C20963   6.055   0.665  12.312 -0.1744  0.0923  0.6960
  156MOL0     C20964   6.103   0.525  12.334 -0.4901 -0.3719 -0.0142
  156MOL0     C20965   6.251   0.522  12.378 -0.0527  0.5456 -0.3917
  156MOL0     C20966   6.304   0.596  12.500  0.7974  0.2226 -0.0527
  156MOL0     C20967   6.463   0.606  12.493  0.5928 -0.3000  0.1429
  156MOL0     C20968   6.520   0.682  12.608  0.4678 -0.1239  0.0529
  156MOL0    Cl20969   6.532   0.849  12.560 -0.3239  0.5284 -0.0277
  156MOL0     C20970   5.890   1.011  11.965 -0.6393  0.0612  0.4645
  156MOL0     C20971   5.829   1.119  11.897 -0.1549 -0.5755  0.6806
  156MOL0     O20972   5.888   1.376  11.790 -0.1074  0.4350 -0.2426
  156MOL0     C20973   5.593   1.577  11.838 -0.5282 -0.0521  0.3142
  156MOL0     C20974   5.557   1.706  11.820  0.2437 -0.3066 -0.3248
  156MOL0     N20975   5.793   1.963  11.115 -0.2241  0.7475  0.7194
  156MOL0     N20976   5.800   1.918  10.991 -0.9330 -0.6954  0.0577
  156MOL0     C20977   4.754   2.138  11.383  0.3077 -0.2479 -0.6494
  156MOL0     C20978   4.685   2.240  11.445  0.7306  0.1181 -0.5007
  156MOL0     C20979   4.413   2.524  11.586  0.2118  0.2003 -0.4905
  156MOL0     C20980   4.293   2.465  11.611  0.9259  0.0904 -0.7363
  156MOL0     C20981   4.221   2.485  11.727  0.6303 -1.4956 -0.5849
  156MOL0     C20982   4.251   2.590  11.814  0.0742  0.8834  0.2260
  156MOL0     O20983   4.155   2.616  11.923  0.6605 -0.3134  0.2486
  156MOL0     C20984   4.212   2.708  12.016 -0.8314  0.3546 -0.2638
  156MOL0     C20985   4.133   2.683  12.148  0.3236 -0.1749  0.2744
  156MOL0     C20986   4.011   2.768  12.154 -0.0414  0.4356  0.1096
  156MOL0     C20987   3.907   2.741  12.049 -0.5255 -0.0929 -0.0267
  156MOL0     C20988   3.793   2.819  12.096 -0.4571 -0.4968 -1.2535
  156MOL0     C20989   3.709   2.887  12.148  0.3499 -0.1667 -0.7751
  156MOL0     C20990   4.378   2.647  11.798  1.1326  0.7781  0.3571
  156MOL0     C20991   4.458   2.612  11.688  0.0716  0.1204 -0.3627
  156MOL0     C20992   4.581   2.706  11.673  1.0065  0.1682  0.1634
  156MOL0     H20993   4.800   2.515  11.291  0.3906  0.1346  0.0637
  156MOL0     H20994   4.936   2.343  11.177 -2.7944  1.1934 -3.7798
  156MOL0     H20995   5.077   2.158  11.281  0.0924  1.0921 -1.8215
  156MOL0     H20996   5.028   1.984  11.333  2.3654 -0.1939 -1.1298
  156MOL0     H20997   5.137   2.089  11.068 -3.5927 -0.8413 -0.5560
  156MOL0     H20998   5.041   1.939  11.074  0.6226 -0.2911 -1.5020
  156MOL0     H20999   5.205   1.857  11.243 -1.8792 -0.9148 -1.2445
  156MOL0     H21000   5.316   1.988  11.188  0.6917  0.4992 -3.6954
  156MOL0     H21001   5.333   1.744  11.079 -1.6512 -2.3587 -0.4573
  156MOL0     H21002   5.199   1.799  10.970 -1.6819  1.9883  1.0860
  156MOL0     H21003   5.294   1.991  10.921 -0.9666 -0.1566  3.6554
  156MOL0     H21004   5.453   1.952  10.984  0.3842  0.3759 -0.4598
  156MOL0     H21005   5.316   1.794  10.773 -1.2997  2.1921  1.9454
  156MOL0     H21006   5.450   1.898  10.750  1.3193 -1.3311 -0.3187
  156MOL0     H21007   5.523   1.654  10.731 -2.5591 -1.5458  0.6356
  156MOL0     H21008   5.503   1.633  10.902  3.5119 -1.5195 -0.5796
  156MOL0     H21009   5.736   1.679  10.827  1.8401  1.4052 -1.3126
  156MOL0     H21010   5.688   1.853  10.789 -2.2287  4.0212  4.4975
  156MOL0     H21011   5.573   1.715  11.121  0.6175  0.2807  2.9446
  156MOL0     H21012   5.610   1.789  11.349  1.9875 -1.3156  2.2174
  156MOL0     H21013   5.775   1.866  11.380 -0.0550  2.0306  0.0137
  156MOL0     H21014   5.645   2.096  11.320  1.8988 -0.6979 -0.3093
  156MOL0     H21015   5.496   2.002  11.340 -0.3965 -0.7752 -0.2866
  156MOL0     H21016   5.610   2.141  11.547  0.3948  0.9388 -1.7906
  156MOL0     H21017   5.725   2.011  11.545  0.4822  2.1338 -0.3312
  156MOL0     H21018   5.513   1.855  11.565 -1.5327  0.5597 -1.8259
  156MOL0     H21019   5.431   1.990  11.640 -1.0294 -1.3874  0.4467
  156MOL0     H21020   5.836   1.828  11.683 -0.4403  1.3541  3.7235
  156MOL0     H21021   5.918   1.617  11.729  0.2814  2.7606 -1.0720
  156MOL0     H21022   5.669   1.243  12.164  4.6094  0.9431  0.3740
  156MOL0     H21023   5.750   1.072  12.275 -0.9804  1.3662 -0.2088
  156MOL0     H21024   5.864   0.763  12.046  0.1587  0.9336  0.1390
  156MOL0     H21025   6.034   0.764  12.050 -0.3859  0.2807 -0.1264
  156MOL0     H21026   5.846   0.671  12.289 -1.1441 -2.8293 -1.0152
  156MOL0     H21027   5.914   0.568  12.170 -0.7141  1.0847 -2.7525
  156MOL0     H21028   6.143   0.718  12.275  1.4934 -1.8218  1.7454
  156MOL0     H21029   6.048   0.694  12.418  0.8766  0.2559  0.7258
  156MOL0     H21030   6.093   0.454  12.252 -0.1965 -0.5055  0.0618
  156MOL0     H21031   6.039   0.478  12.409 -1.3376  1.2061  0.3010
  156MOL0     H21032   6.311   0.560  12.295 -1.4565  0.9467 -1.2661
  156MOL0     H21033   6.262   0.414  12.393 -1.3500  0.6719  1.8255
  156MOL0     H21034   6.275   0.701  12.496  0.2961  0.2324  2.5365
  156MOL0     H21035   6.280   0.553  12.598 -1.1529  0.3278 -0.4371
  156MOL0     H21036   6.505   0.645  12.401 -1.5039 -2.9914 -2.1743
  156MOL0     H21037   6.521   0.514  12.505  3.9369  1.4585 -1.4260
  156MOL0     H21038   6.467   0.687  12.704  2.6535 -1.6299  1.4124
  156MOL0     H21039   6.619   0.645  12.635  0.2808 -0.9079 -0.3134
  156MOL0     H21040   5.961   0.956  11.905 -0.5420  1.1153 -0.4181
  156MOL0     H21041   5.862   1.137  11.795 -0.7031 -3.2191 -0.0319
  156MOL0     H21042   5.529   1.510  11.895  0.9970 -0.0477  2.1363
  156MOL0     H21043   5.458   1.734  11.855  1.1687  1.0189  1.3972
  156MOL0     H21044   4.760   2.041  11.430  0.9338  1.8160  4.0573
  156MOL0     H21045   4.637   2.210  11.538  2.3010 -2.7530 -0.5167
  156MOL0     H21046   4.271   2.379  11.548 -0.1604 -0.4280  0.2936
  156MOL0     H21047   4.129   2.439  11.762  0.5899  0.5933  2.3664
  156MOL0     H21048   4.211   2.809  11.974  1.9924  0.2919 -0.6430
  156MOL0     H21049   4.316   2.686  12.041 -1.5283 -0.7379  1.9879
  156MOL0     H21050   4.199   2.704  12.233  0.9103  0.1295 -0.2482
  156MOL0     H21051   4.095   2.580  12.157 -0.5548 -0.0907 -1.8105
  156MOL0     H21052   4.035   2.875  12.143  0.0101  0.5136  0.9411
  156MOL0     H21053   3.971   2.755  12.254  1.1918 -1.9467  0.3694
  156MOL0     H21054   3.930   2.781  11.949 -1.7081 -4.5515 -2.3251
  156MOL0     H21055   3.891   2.633  12.048  1.3121 -0.4196  0.8016
  156MOL0     H21056   3.635   2.940  12.206 -0.5826 -0.7689 -1.3852
  156MOL0     H21057   4.425   2.718  11.865  1.9990  0.5619 -0.0042
  156MOL0     H21058   4.673   2.661  11.712  1.2575  0.3534 -0.2020
  156MOL0     H21059   4.594   2.731  11.567 -0.4645  1.8128  0.3382
  156MOL0     H21060   4.568   2.801  11.724  0.4242  0.3179 -0.2478
  157MOL0     O21061   6.418   7.690   8.638 -0.5355 -0.1288 -0.3604
  157MOL0     C21062   6.403   7.585   8.693  0.2801  0.1419  0.7033
  157MOL0     O21063   6.475   7.543   8.802  0.4407  0.6113  0.5396
  157MOL0     C21064   6.609   7.563   8.806  0.7796 -0.6568  0.2164
  157MOL0     C21065   6.698   7.560   8.696 -0.4355  0.4906  0.4485
  157MOL0     C21066   6.831   7.565   8.719  0.0809  0.6636  0.0831
  157MOL0     C21067   6.882   7.579   8.848  0.7745 -0.7659  0.5022
  157MOL0     O21068   7.018   7.583   8.855  1.2375  0.4906  0.2635
  157MOL0     C21069   7.084   7.510   8.960  0.6388  0.7388  0.7784
  157MOL0     C21070   7.099   7.361   8.928  0.1767  0.0899 -0.3592
  157MOL0     C21071   7.117   7.278   9.051  0.0298  0.2778  0.9672
  157MOL0     C21072   7.121   7.128   9.007 -0.3136  0.3412 -0.3294
  157MOL0     C21073   7.132   7.033   9.136 -1.0350  0.4327  0.8520
  157MOL0     C21074   7.161   6.882   9.101  0.2596 -0.9560  1.1980
  157MOL0     C21075   7.184   6.812   9.237  0.9030  0.4739 -0.3502
  157MOL0     C21076   7.312   6.868   9.312  0.2524  0.8510 -0.0630
  157MOL0     N21077   7.327   6.794   9.440 -0.5121 -0.1610  0.4446
  157MOL0     C21078   7.237   6.803   9.543  0.8858  0.1753  0.2559
  157MOL0     C21079   7.300   6.757   9.648 -0.3001  0.3885 -0.8058
  157MOL0     C21080   7.266   6.738   9.797  0.0270  0.7038  0.2107
  157MOL0     C21081   7.252   6.869   9.856 -0.6621  0.1109 -0.1301
  157MOL0     C21082   7.380   6.942   9.882  0.7119 -0.5510 -0.4252
  157MOL0     C21083   7.383   7.092   9.854  0.0465  0.7544  0.3436
  157MOL0     O21084   7.262   7.160   9.888 -0.5043  0.0012  0.2675
  157MOL0     C21085   7.238   7.283   9.830  0.6881  0.7880 -0.1662
  157MOL0     C21086   7.331   7.353   9.747 -1.0116  0.0981 -0.0021
  157MOL0     C21087   7.301   7.478   9.695 -0.0125 -0.3650  1.0346
  157MOL0     C21088   7.187   7.546   9.733  0.1607 -0.2033  0.2262
  157MOL0     C21089   7.159   7.681   9.677  0.0340 -0.2480  0.8537
  157MOL0     O21090   7.073   7.760   9.742  0.3865 -0.1243  0.4954
  157MOL0     C21091   7.009   7.872   9.688  0.3039  0.1058 -0.0574
  157MOL0     C21092   6.893   7.915   9.756 -0.2413 -0.2217  0.8635
  157MOL0     C21093   6.836   8.041   9.734  0.1366  0.0932 -0.4388
  157MOL0     C21094   6.876   8.117   9.619  0.0278 -0.4900 -0.6067
  157MOL0     O21095   6.817   8.240   9.591 -0.0956 -0.5228  0.1701
  157MOL0     C21096   6.808   8.286   9.460 -0.5387 -0.2403  0.3635
  157MOL0     C21097   6.747   8.436   9.453  0.3102 -0.5552 -0.1015
  157MOL0     C21098   6.605   8.433   9.517  0.6805 -0.0126 -1.0789
  157MOL0     C21099   6.525   8.566   9.515 -0.2027  0.2614 -0.8223
  157MOL0     C21100   6.494   8.611   9.369 -0.3418  1.4567  0.2502
  157MOL0     C21101   6.365   8.686   9.384 -0.0388  0.0228  0.4383
  157MOL0     C21102   6.317   8.709   9.240 -0.4017 -0.1329  0.5281
  157MOL0     C21103   6.235   8.585   9.188  0.0996  0.8994 -0.1219
  157MOL0    Cl21104   6.171   8.617   9.022 -0.1430 -0.4047 -0.2573
  157MOL0     C21105   6.976   8.059   9.541  1.1464 -0.7264  0.5246
  157MOL0     C21106   7.036   7.940   9.570 -0.8291 -0.3811 -0.9155
  157MOL0     O21107   7.230   7.715   9.582  0.5927 -0.1625  0.7536
  157MOL0     C21108   7.095   7.487   9.810  0.2987 -0.5481 -0.1032
  157MOL0     C21109   7.118   7.353   9.860  0.7921  0.6814  0.3786
  157MOL0     N21110   7.428   6.717   9.601 -0.8399 -0.3472 -0.0019
  157MOL0     N21111   7.444   6.743   9.481 -0.1759 -0.0700  0.3816
  157MOL0     C21112   6.792   7.583   8.954  0.1221  0.2427 -0.1847
  157MOL0     C21113   6.652   7.595   8.931  0.0343 -0.8073  0.6460
  157MOL0     C21114   6.310   7.482   8.622 -0.3396 -0.8783 -0.1220
  157MOL0     C21115   6.356   7.353   8.631  0.7599  0.6348  0.8544
  157MOL0     C21116   6.285   7.262   8.553  0.0936 -0.4931 -0.1601
  157MOL0     C21117   6.167   7.285   8.492 -0.7802 -0.6074  0.0866
  157MOL0     O21118   6.117   7.196   8.398  0.6916  0.3853 -0.5763
  157MOL0     C21119   6.140   7.231   8.262  0.9344 -0.6731  0.4293
  157MOL0     C21120   6.185   7.106   8.191 -0.4785 -0.5073  0.1370
  157MOL0     C21121   6.334   7.070   8.210  0.4620  0.2115 -0.4581
  157MOL0     C21122   6.389   6.998   8.094  0.1978  0.7473  0.4179
  157MOL0     C21123   6.346   6.860   8.086  0.4631  0.1499 -0.5364
  157MOL0     C21124   6.299   6.749   8.096 -0.1854 -0.8336  0.2336
  157MOL0     C21125   6.118   7.413   8.500  0.1574  1.4472  0.3422
  157MOL0     C21126   6.193   7.519   8.550  1.3915  0.8446  0.1793
  157MOL0     C21127   6.134   7.647   8.543 -0.1033 -1.1822 -0.6804
  157MOL0     H21128   6.665   7.534   8.595 -0.6003  1.2836  0.2912
  157MOL0     H21129   6.893   7.537   8.635 -1.8638 -1.8337 -0.6256
  157MOL0     H21130   7.184   7.555   8.963 -0.8470  4.6854 -1.7019
  157MOL0     H21131   7.040   7.538   9.056 -1.2703  3.9521 -0.8686
  157MOL0     H21132   7.194   7.350   8.876  2.4272  0.8464  3.2368
  157MOL0     H21133   7.017   7.307   8.879  0.6830 -2.4422  1.3845
  157MOL0     H21134   7.035   7.296   9.120 -2.7854  2.0394 -2.4816
  157MOL0     H21135   7.214   7.306   9.094  0.3881  0.9232 -0.2116
  157MOL0     H21136   7.040   7.090   8.943 -0.9383  0.6226  0.2776
  157MOL0     H21137   7.202   7.100   8.939 -0.5658 -3.6987  0.7758
  157MOL0     H21138   7.212   7.075   9.197 -0.3801  0.5864 -0.1000
  157MOL0     H21139   7.037   7.042   9.191 -0.2303 -2.3348  2.9353
  157MOL0     H21140   7.072   6.845   9.048 -1.0266  1.9108  1.1359
  157MOL0     H21141   7.254   6.868   9.045  1.5479  2.3146  2.2841
  157MOL0     H21142   7.193   6.704   9.224  0.4973  0.1280  1.7925
  157MOL0     H21143   7.091   6.826   9.292  0.3956  0.7116 -1.2628
  157MOL0     H21144   7.399   6.849   9.248  0.0718  1.3191 -0.4636
  157MOL0     H21145   7.304   6.974   9.336 -0.4884  0.4042  1.7731
  157MOL0     H21146   7.137   6.843   9.532  1.9091  2.5646 -1.1631
  157MOL0     H21147   7.180   6.671   9.803  0.2197  0.3061 -1.0391
  157MOL0     H21148   7.348   6.686   9.847 -0.3700  2.6009  3.0528
  157MOL0     H21149   7.184   6.932   9.798  0.4472  0.3848 -1.1767
  157MOL0     H21150   7.205   6.851   9.953 -1.8904  0.4003 -0.6484
  157MOL0     H21151   7.459   6.890   9.828  1.2598 -0.1078 -0.0600
  157MOL0     H21152   7.405   6.929   9.987 -1.0601 -0.0720  0.0859
  157MOL0     H21153   7.398   7.099   9.746 -1.7819  2.9442  0.1506
  157MOL0     H21154   7.473   7.140   9.896  1.5453 -0.2867 -1.5636
  157MOL0     H21155   7.428   7.321   9.708 -1.8916 -0.1963 -2.1057
  157MOL0     H21156   7.368   7.526   9.626 -1.4169 -2.4289 -1.9873
  157MOL0     H21157   6.858   7.845   9.831  0.7688 -3.5273 -1.5236
  157MOL0     H21158   6.766   8.084   9.805  1.3602 -1.1295  1.6434
  157MOL0     H21159   6.908   8.288   9.416  0.2697 -1.3663  2.0042
  157MOL0     H21160   6.758   8.204   9.408 -0.3584 -1.4831  2.0694
  157MOL0     H21161   6.815   8.506   9.502  1.0528 -1.4451  0.1576
  157MOL0     H21162   6.742   8.471   9.349 -2.6948  0.9904  0.4316
  157MOL0     H21163   6.533   8.354   9.492 -2.1365  1.6690  0.9802
  157MOL0     H21164   6.619   8.424   9.625 -1.7002  2.8548 -0.4028
  157MOL0     H21165   6.585   8.644   9.561  4.7261 -3.5682  0.0965
  157MOL0     H21166   6.437   8.553   9.579 -0.4195  0.5864 -1.0505
  157MOL0     H21167   6.474   8.522   9.308  2.2948 -1.0956  2.7368
  157MOL0     H21168   6.572   8.674   9.327 -1.8716  3.8616  0.8561
  157MOL0     H21169   6.295   8.622   9.438  0.5947 -3.0187 -2.0555
  157MOL0     H21170   6.376   8.788   9.422  0.3274  1.7957 -3.8620
  157MOL0     H21171   6.401   8.736   9.175  0.0484  4.2971  2.5972
  157MOL0     H21172   6.247   8.793   9.245 -0.9302 -0.4041 -1.4289
  157MOL0     H21173   6.297   8.496   9.187 -0.3750  0.5304 -2.2862
  157MOL0     H21174   6.151   8.569   9.256  0.2173  1.2004  0.1006
  157MOL0     H21175   6.988   8.110   9.446 -3.7404  2.1398  1.1110
  157MOL0     H21176   7.117   7.916   9.501  0.2068  1.0500 -0.2627
  157MOL0     H21177   7.006   7.540   9.842  0.3199 -0.7267  0.2558
  157MOL0     H21178   7.042   7.286   9.900  0.5167  0.1487 -0.9753
  157MOL0     H21179   6.834   7.613   9.050 -2.1051  2.0597  0.3151
  157MOL0     H21180   6.579   7.634   9.001 -0.1044  0.2196 -0.0524
  157MOL0     H21181   6.441   7.312   8.685  0.6709  0.2898  0.7388
  157MOL0     H21182   6.327   7.162   8.545 -0.9821 -1.0208  0.5540
  157MOL0     H21183   6.223   7.298   8.238  2.2515 -1.5628  2.2514
  157MOL0     H21184   6.045   7.264   8.221  1.9448 -0.6000 -2.0273
  157MOL0     H21185   6.157   7.138   8.091 -3.4371 -0.0408  1.0172
  157MOL0     H21186   6.131   7.015   8.221  2.5210 -2.1545  0.9757
  157MOL0     H21187   6.355   7.011   8.300  3.1007 -0.2455 -1.2712
  157MOL0     H21188   6.398   7.158   8.222  3.3526 -1.5516 -1.7205
  157MOL0     H21189   6.358   7.051   8.004 -5.4189 -1.6487  0.5206
  157MOL0     H21190   6.498   6.990   8.100  0.6174  2.9845 -2.4205
  157MOL0     H21191   6.258   6.651   8.110  1.5137 -1.5399  0.3925
  157MOL0     H21192   6.028   7.449   8.450 -1.5521  2.2665  3.6937
  157MOL0     H21193   6.025   7.645   8.544 -0.1211 -2.0862  1.5351
  157MOL0     H21194   6.163   7.708   8.630 -4.2177 -2.8699  2.1990
  157MOL0     H21195   6.163   7.679   8.443 -0.0352 -0.2169 -0.3578
  158MOL0     O21196   0.758   9.427   0.276 -0.1775 -0.0674 -0.0381
  158MOL0     C21197   0.745   9.345   0.182 -0.3184 -1.1335  1.2427
  158MOL0     O21198   0.655   9.242   0.189  0.2524 -0.8910 -0.9594
  158MOL0     C21199   0.602   9.209   0.314  0.0339 -0.2091 -0.2960
  158MOL0     C21200   0.497   9.285   0.363 -0.3091  0.7941  0.4891
  158MOL0     C21201   0.460   9.264   0.493  0.4296  0.4345 -0.9624
  158MOL0     C21202   0.526   9.172   0.579 -0.5332 -0.0607  0.3756
  158MOL0     O21203   0.500   9.145   0.706  0.0946 -0.1294 -0.1322
  158MOL0     C21204   0.469   9.249   0.800  0.7437 -0.7319  0.6819
  158MOL0     C21205   0.473   9.199   0.939  0.2541 -0.0236  0.1599
  158MOL0     C21206   0.467   9.302   1.051  0.4811 -0.1022  0.0181
  158MOL0     C21207   0.328   9.363   1.058 -0.0016  0.0403  0.4958
  158MOL0     C21208   0.317   9.465   1.168  0.5786  0.2138 -0.7985
  158MOL0     C21209   0.187   9.547   1.170  0.2734  0.1958 -1.4866
  158MOL0     C21210   0.059   9.467   1.203 -0.5370  0.8725 -0.3085
  158MOL0     C21211   0.069   9.407   1.350  0.0588 -0.7692  0.2033
  158MOL0     N21212  -0.069   9.367   1.395 -0.2619  0.3283  0.4637
  158MOL0     C21213  -0.173   9.452   1.434  0.5852  0.1717  0.1568
  158MOL0     C21214  -0.276   9.371   1.473 -0.0785 -0.5106 -0.2849
  158MOL0     C21215  -0.406   9.414   1.539 -0.4796 -0.4681 -0.2440
  158MOL0     C21216  -0.418   9.325   1.666  0.3947 -0.6859 -0.2241
  158MOL0     C21217  -0.550   9.376   1.740  0.2542 -0.0367  0.3513
  158MOL0     C21218  -0.601   9.258   1.824 -0.0012 -0.1538 -0.2889
  158MOL0     O21219  -0.660   9.165   1.729 -0.1579  0.7845 -0.0442
  158MOL0     C21220  -0.705   9.052   1.788  0.1149 -0.8594  0.6945
  158MOL0     C21221  -0.814   9.000   1.721  0.1996  0.4145 -0.9289
  158MOL0     C21222  -0.870   8.881   1.739 -1.1352  0.9535 -0.8713
  158MOL0     C21223  -0.822   8.801   1.842  0.5792  1.2259  0.1907
  158MOL0     C21224  -0.871   8.659   1.851 -0.4081 -0.6563  0.7740
  158MOL0     O21225  -0.932   8.598   1.745 -0.4274  0.2422 -0.3647
  158MOL0     C21226  -0.978   8.467   1.771  0.2584 -0.7781 -1.1285
  158MOL0     C21227  -1.114   8.464   1.818  0.9911 -0.3934  0.1388
  158MOL0     C21228  -1.179   8.346   1.855  0.2577  0.3693 -0.4833
  158MOL0     C21229  -1.115   8.226   1.849 -0.3767  0.8930  0.5404
  158MOL0     O21230  -1.165   8.106   1.894  0.0995  0.4476  0.1807
  158MOL0     C21231  -1.302   8.109   1.936 -0.3182 -0.0199 -0.2997
  158MOL0     C21232  -1.321   7.958   1.961 -0.3211 -0.8300 -0.3618
  158MOL0     C21233  -1.250   7.884   2.089  0.1377  0.0840  0.2891
  158MOL0     C21234  -1.275   7.966   2.219 -0.7166 -0.6026 -0.4342
  158MOL0     C21235  -1.208   7.889   2.326 -0.3258  1.0322 -0.1756
  158MOL0     C21236  -1.055   7.909   2.321 -1.3187 -0.2462 -0.6651
  158MOL0     C21237  -0.987   7.824   2.432 -0.1145 -0.2230 -0.0286
  158MOL0     C21238  -0.840   7.866   2.483  0.2034  0.8216 -0.2361
  158MOL0    Cl21239  -0.730   7.781   2.369 -0.2238  0.2598 -0.5658
  158MOL0     C21240  -0.979   8.234   1.800  0.0039  1.3229  1.2570
  158MOL0     C21241  -0.908   8.347   1.765  0.1308 -0.2071 -0.4685
  158MOL0     O21242  -0.839   8.604   1.962  0.5855 -0.0937 -0.7968
  158MOL0     C21243  -0.708   8.840   1.916 -0.1816  0.4093  0.3684
  158MOL0     C21244  -0.649   8.969   1.887  0.7191 -0.9684 -0.0463
  158MOL0     N21245  -0.234   9.241   1.435  0.0581  0.7435 -0.8123
  158MOL0     N21246  -0.115   9.240   1.383  0.4721 -0.6553 -0.2529
  158MOL0     C21247   0.608   9.083   0.510 -0.1920  0.2912  0.1471
  158MOL0     C21248   0.656   9.106   0.386 -0.1387  0.3231  0.2855
  158MOL0     C21249   0.811   9.358   0.047  0.3610 -0.0737 -0.1525
  158MOL0     C21250   0.762   9.279  -0.064 -0.9608  0.5847 -1.0347
  158MOL0     C21251   0.837   9.274  -0.181  1.0273 -0.6347 -0.1760
  158MOL0     C21252   0.962   9.339  -0.199 -0.6082 -0.2336  0.5070
  158MOL0     O21253   1.030   9.317  -0.310  0.4865 -0.6702  0.5035
  158MOL0     C21254   1.140   9.395  -0.344  0.6758  0.0832 -0.2258
  158MOL0     C21255   1.189   9.343  -0.481 -0.6711 -0.0299 -0.0170
  158MOL0     C21256   1.214   9.189  -0.469  0.0646 -0.3272 -0.6531
  158MOL0     C21257   1.242   9.130  -0.600 -0.6133  0.4057  1.0338
  158MOL0     C21258   1.373   9.178  -0.659  0.7729  0.7270 -0.6122
  158MOL0     C21259   1.475   9.232  -0.692 -0.1651  0.2860 -0.3913
  158MOL0     C21260   1.002   9.416  -0.093 -0.5196 -0.7974 -0.0855
  158MOL0     C21261   0.936   9.422   0.027 -0.2833 -0.0716 -0.8502
  158MOL0     C21262   1.002   9.511   0.132  0.4538  0.3160  0.5374
  158MOL0     H21263   0.445   9.355   0.298  1.3088 -0.9375 -2.9827
  158MOL0     H21264   0.369   9.308   0.534 -0.7547 -3.1338  0.5951
  158MOL0     H21265   0.528   9.341   0.798 -0.6993  0.2221  0.0476
  158MOL0     H21266   0.368   9.283   0.774  0.1068 -0.5554  3.1295
  158MOL0     H21267   0.564   9.140   0.956 -0.5877 -1.8031 -1.1024
  158MOL0     H21268   0.388   9.132   0.950  0.1786  0.0607  0.0910
  158MOL0     H21269   0.547   9.376   1.043 -0.8781  1.3802 -0.4284
  158MOL0     H21270   0.482   9.251   1.146 -0.6727 -2.4084 -0.9510
  158MOL0     H21271   0.320   9.425   0.967  0.3149  1.3674  1.3456
  158MOL0     H21272   0.251   9.286   1.062  1.3551 -1.3233  1.2318
  158MOL0     H21273   0.321   9.414   1.265  0.6722  2.3902  0.4111
  158MOL0     H21274   0.401   9.535   1.158  1.5204 -0.7154  0.2930
  158MOL0     H21275   0.203   9.621   1.248 -0.4837 -0.5123 -0.6300
  158MOL0     H21276   0.175   9.598   1.074 -0.4860 -0.0233 -1.5177
  158MOL0     H21277   0.066   9.387   1.128  2.0531 -1.7353  2.4252
  158MOL0     H21278  -0.028   9.532   1.193  0.8317  2.7713 -0.3550
  158MOL0     H21279   0.146   9.329   1.352 -0.1620 -0.9739  1.2447
  158MOL0     H21280   0.097   9.483   1.424 -3.0705  1.9592 -1.1458
  158MOL0     H21281  -0.162   9.560   1.431 -2.2894  0.6087 -3.6116
  158MOL0     H21282  -0.394   9.518   1.572  0.1766 -0.7748  0.5448
  158MOL0     H21283  -0.496   9.403   1.478  0.1149  0.3176 -1.2981
  158MOL0     H21284  -0.419   9.218   1.644 -0.3195 -0.5562 -0.8231
  158MOL0     H21285  -0.331   9.344   1.730  0.7902 -0.7481 -0.7378
  158MOL0     H21286  -0.633   9.410   1.677  0.9315 -1.3154 -1.2986
  158MOL0     H21287  -0.536   9.467   1.799  0.1145 -0.8999  1.7420
  158MOL0     H21288  -0.690   9.290   1.879 -0.7809 -1.0270 -1.0106
  158MOL0     H21289  -0.521   9.214   1.883 -3.4897 -3.6690  2.3702
  158MOL0     H21290  -0.853   9.068   1.646  1.5153  1.2771 -0.8850
  158MOL0     H21291  -0.944   8.851   1.666  1.0455  0.5432 -3.0256
  158MOL0     H21292  -1.175   8.554   1.826  0.2440 -0.9538  0.8127
  158MOL0     H21293  -1.277   8.346   1.900  0.5119  0.9067  0.0849
  158MOL0     H21294  -1.319   8.166   2.028  0.1911 -2.4067  1.3764
  158MOL0     H21295  -1.364   8.141   1.852 -0.5726 -1.1916 -0.5692
  158MOL0     H21296  -1.429   7.946   1.969 -0.7029  0.7987 -2.2866
  158MOL0     H21297  -1.291   7.906   1.869  1.2769 -0.0052 -0.3410
  158MOL0     H21298  -1.279   7.778   2.095  0.4511 -0.0558 -0.5613
  158MOL0     H21299  -1.144   7.888   2.065  0.3301 -0.2769  1.0523
  158MOL0     H21300  -1.383   7.975   2.238 -0.3229  0.8131  1.4085
  158MOL0     H21301  -1.229   8.065   2.212 -1.5952  0.0821  2.1626
  158MOL0     H21302  -1.224   7.783   2.302  2.3770  0.8146 -1.4221
  158MOL0     H21303  -1.229   7.915   2.430 -2.5465  0.9403 -0.5647
  158MOL0     H21304  -1.006   7.874   2.230 -0.9093  0.4497 -0.7155
  158MOL0     H21305  -1.053   8.013   2.353 -0.9926 -1.1557  2.6852
  158MOL0     H21306  -0.982   7.720   2.399 -0.7110  0.5629 -2.7920
  158MOL0     H21307  -1.046   7.831   2.524 -0.7992 -1.3677 -0.3639
  158MOL0     H21308  -0.827   7.974   2.472  2.5816  0.5822 -0.2539
  158MOL0     H21309  -0.811   7.841   2.585  2.2029  0.9232 -0.7269
  158MOL0     H21310  -0.926   8.142   1.776  0.0441  1.8748 -1.0219
  158MOL0     H21311  -0.802   8.354   1.744  0.0949 -0.8485 -0.9006
  158MOL0     H21312  -0.661   8.773   1.987 -2.7032 -1.0995  0.7279
  158MOL0     H21313  -0.566   9.014   1.941 -1.6720  0.3177  2.8713
  158MOL0     H21314   0.642   9.001   0.572 -2.3994  1.2076  2.8327
  158MOL0     H21315   0.736   9.042   0.351  0.3456  0.4829  1.0889
  158MOL0     H21316   0.669   9.225  -0.049 -1.3370  1.9816  2.7060
  158MOL0     H21317   0.802   9.223  -0.270  2.0703 -0.4299 -0.7138
  158MOL0     H21318   1.222   9.382  -0.273  0.1138 -1.5063  0.1787
  158MOL0     H21319   1.105   9.498  -0.353  0.6501 -0.0805 -2.6394
  158MOL0     H21320   1.280   9.396  -0.511 -0.9366  0.2897 -0.2744
  158MOL0     H21321   1.115   9.350  -0.561 -1.4946 -1.5669  0.5700
  158MOL0     H21322   1.125   9.144  -0.425  0.0385  1.3283  1.1301
  158MOL0     H21323   1.290   9.173  -0.392 -0.9369 -0.8378  0.2461
  158MOL0     H21324   1.259   9.023  -0.580 -0.5221  0.0321 -0.8135
  158MOL0     H21325   1.163   9.150  -0.673 -0.4504  0.5208  0.8912
  158MOL0     H21326   1.567   9.257  -0.741 -0.5966 -2.4714 -2.9018
  158MOL0     H21327   1.096   9.468  -0.107 -1.2568  0.1344 -1.8201
  158MOL0     H21328   1.061   9.449   0.200 -0.5671 -2.4492 -0.9549
  158MOL0     H21329   1.075   9.574   0.080  0.8873 -1.4049 -1.0377
  158MOL0     H21330   0.935   9.586   0.177 -1.2409  0.0351 -1.3764
  159MOL0     O21331   5.308   1.331   4.053 -0.0131  0.7513 -0.0948
  159MOL0     C21332   5.306   1.345   4.173 -0.4877  0.3634 -0.1288
  159MOL0     O21333   5.195   1.377   4.242  0.2294 -0.4349  0.6596
  159MOL0     C21334   5.074   1.391   4.174 -0.4648  0.3090  0.2586
  159MOL0     C21335   4.980   1.293   4.157  0.5739 -0.1926 -0.6910
  159MOL0     C21336   4.861   1.321   4.098  0.0600  0.5810 -0.5153
  159MOL0     C21337   4.837   1.433   4.029  0.9262 -0.5324  0.9099
  159MOL0     O21338   4.711   1.439   3.964 -0.9149 -0.4272  0.9342
  159MOL0     C21339   4.662   1.568   3.912 -0.1039  0.7847  0.3978
  159MOL0     C21340   4.712   1.597   3.770  0.1406 -0.4723 -0.1502
  159MOL0     C21341   4.688   1.476   3.681  0.5450  1.4080  0.1464
  159MOL0     C21342   4.768   1.472   3.546 -0.0884  0.4800 -0.4874
  159MOL0     C21343   4.669   1.528   3.434 -0.5343  0.9600  0.0686
  159MOL0     C21344   4.753   1.526   3.307 -0.0509  0.6280 -0.3192
  159MOL0     C21345   4.671   1.580   3.186  0.1450 -0.1536 -0.5655
  159MOL0     C21346   4.770   1.615   3.074  0.1640  0.3761  0.4863
  159MOL0     N21347   4.704   1.681   2.962  0.0015  0.2328 -0.2667
  159MOL0     C21348   4.680   1.815   2.948  0.2854 -1.0669  0.0046
  159MOL0     C21349   4.614   1.830   2.833 -2.0276 -0.4819  0.5296
  159MOL0     C21350   4.535   1.940   2.764  0.5269  0.2180 -0.7263
  159MOL0     C21351   4.448   2.010   2.867 -0.4589  0.1054  0.6230
  159MOL0     C21352   4.520   2.107   2.969  0.1035  0.1082 -0.5210
  159MOL0     C21353   4.485   2.250   2.949 -0.2565  0.0309 -1.7721
  159MOL0     O21354   4.514   2.327   3.067  0.9082 -0.1801 -0.7642
  159MOL0     C21355   4.504   2.466   3.050  0.0509 -0.1656 -0.9156
  159MOL0     C21356   4.509   2.544   3.164 -0.2547 -0.2419 -0.2371
  159MOL0     C21357   4.514   2.689   3.164 -0.3822 -0.4057  0.6869
  159MOL0     C21358   4.503   2.756   3.039 -1.3044  1.2172  1.0820
  159MOL0     C21359   4.496   2.899   3.041  0.2380  0.9247  0.4256
  159MOL0     O21360   4.526   2.964   3.157 -0.4642 -0.2133 -0.4302
  159MOL0     C21361   4.522   3.101   3.169  0.6453  0.3949  0.0040
  159MOL0     C21362   4.473   3.162   3.291 -0.6605 -0.1807  0.5120
  159MOL0     C21363   4.466   3.301   3.311 -0.3280  1.2456  0.1949
  159MOL0     C21364   4.520   3.380   3.210  0.9671  0.4223 -0.3101
  159MOL0     O21365   4.525   3.520   3.213 -0.3149 -0.4110  0.1021
  159MOL0     C21366   4.394   3.588   3.236 -0.7779  0.4504  0.0031
  159MOL0     C21367   4.422   3.723   3.298 -0.1888  1.2755 -0.2598
  159MOL0     C21368   4.291   3.789   3.313  0.2863 -1.4939 -0.1018
  159MOL0     C21369   4.325   3.936   3.348 -1.3682 -1.8425 -0.5416
  159MOL0     C21370   4.192   4.007   3.387  0.1987  0.2370  0.5343
  159MOL0     C21371   4.149   4.101   3.278 -0.1430  0.9367 -0.3263
  159MOL0     C21372   4.024   4.167   3.318 -0.0063 -0.7594  0.1875
  159MOL0     C21373   4.007   4.315   3.262  0.1853 -0.4875 -0.1537
  159MOL0    Cl21374   4.111   4.439   3.344  0.2202  0.3771 -0.5322
  159MOL0     C21375   4.564   3.327   3.095  0.5858  0.3928 -0.2898
  159MOL0     C21376   4.578   3.188   3.079  0.3691 -0.4529  0.1443
  159MOL0     O21377   4.464   2.952   2.937 -1.3010  0.4445 -0.0092
  159MOL0     C21378   4.496   2.675   2.918  0.9604  0.0539 -1.6853
  159MOL0     C21379   4.486   2.536   2.926 -1.3149 -0.4919 -0.0497
  159MOL0     N21380   4.593   1.699   2.781 -0.7109 -0.3693 -0.0071
  159MOL0     N21381   4.650   1.612   2.856 -0.2687  0.0935 -0.3314
  159MOL0     C21382   4.931   1.536   4.034  0.4986 -0.0074 -0.2592
  159MOL0     C21383   5.043   1.514   4.110 -0.1882 -0.2611 -0.3160
  159MOL0     C21384   5.432   1.353   4.244  0.4181 -0.5652 -0.5656
  159MOL0     C21385   5.425   1.349   4.383 -1.3250  0.4153  0.0003
  159MOL0     C21386   5.543   1.343   4.462  0.0904 -0.9789  0.3118
  159MOL0     C21387   5.672   1.346   4.408 -0.6201  0.9902 -0.6719
  159MOL0     O21388   5.791   1.333   4.477  0.0127 -0.6998 -0.8836
  159MOL0     C21389   5.803   1.274   4.607  1.0290  0.0062  0.4766
  159MOL0     C21390   5.839   1.393   4.705 -0.1203 -0.1249  0.3366
  159MOL0     C21391   5.716   1.469   4.758  0.3322 -0.0978 -0.9210
  159MOL0     C21392   5.754   1.566   4.880  0.3171 -0.9684  0.5590
  159MOL0     C21393   5.622   1.631   4.899 -0.1003 -0.2405 -0.5461
  159MOL0     C21394   5.520   1.704   4.895 -0.0774 -0.2414  0.6592
  159MOL0     C21395   5.678   1.352   4.271 -0.5008  0.4797 -0.7579
  159MOL0     C21396   5.564   1.370   4.191  0.5072 -0.1685  0.1239
  159MOL0     C21397   5.606   1.411   4.050 -0.4532 -0.3746  0.5545
  159MOL0     H21398   5.006   1.191   4.185 -1.2679 -2.1302 -5.0279
  159MOL0     H21399   4.782   1.246   4.095  1.7409 -1.4683  1.8971
  159MOL0     H21400   4.556   1.543   3.917  0.3622 -1.7690 -0.7068
  159MOL0     H21401   4.677   1.653   3.980 -0.0071  4.7567 -3.9945
  159MOL0     H21402   4.819   1.620   3.774  0.7657 -2.8532 -1.4527
  159MOL0     H21403   4.652   1.681   3.733 -0.7677 -1.9004 -2.0745
  159MOL0     H21404   4.581   1.459   3.674  0.4191  0.5170  2.9463
  159MOL0     H21405   4.737   1.390   3.729  3.6605  2.0802 -1.5432
  159MOL0     H21406   4.861   1.528   3.557  0.5860 -0.3259 -1.8640
  159MOL0     H21407   4.803   1.373   3.516  0.2326  0.2358  0.6325
  159MOL0     H21408   4.584   1.465   3.407  2.0007 -4.1854  2.4815
  159MOL0     H21409   4.633   1.627   3.463  1.2534  1.8582 -0.5740
  159MOL0     H21410   4.842   1.589   3.312  0.4138 -0.0345 -0.1484
  159MOL0     H21411   4.768   1.419   3.288 -4.4351 -0.1248 -0.7288
  159MOL0     H21412   4.613   1.670   3.210  2.1750  0.2461  3.6427
  159MOL0     H21413   4.602   1.505   3.147 -0.8590  1.0257 -1.1461
  159MOL0     H21414   4.849   1.679   3.114  0.4472 -0.2577  0.9653
  159MOL0     H21415   4.817   1.528   3.029 -3.8807 -1.7259 -0.1560
  159MOL0     H21416   4.700   1.894   3.020 -2.3839 -0.2084 -0.0623
  159MOL0     H21417   4.590   2.027   2.730  0.2092  0.8814  0.3952
  159MOL0     H21418   4.477   1.886   2.689  1.3170 -1.9109  0.1013
  159MOL0     H21419   4.370   2.064   2.812  0.8782 -0.2666 -1.7921
  159MOL0     H21420   4.400   1.934   2.930  0.5680  1.0391  2.6212
  159MOL0     H21421   4.629   2.105   2.956 -0.2154  0.6420 -4.6644
  159MOL0     H21422   4.493   2.075   3.070  0.9320  0.2271 -0.2535
  159MOL0     H21423   4.377   2.247   2.930 -0.6605 -1.2788  0.4812
  159MOL0     H21424   4.547   2.285   2.865 -0.7462  1.4515 -1.5754
  159MOL0     H21425   4.517   2.493   3.259  2.7778  1.6003  0.6307
  159MOL0     H21426   4.525   2.736   3.262  0.9858 -0.2532  0.4796
  159MOL0     H21427   4.427   3.096   3.365  0.7912  0.0343  1.6572
  159MOL0     H21428   4.417   3.331   3.403 -3.7208 -1.6196 -0.4135
  159MOL0     H21429   4.337   3.606   3.144 -2.6175  2.8146  1.4812
  159MOL0     H21430   4.340   3.532   3.313  0.3979 -0.0176  0.5092
  159MOL0     H21431   4.449   3.703   3.402 -0.2511 -1.3742 -0.6919
  159MOL0     H21432   4.505   3.780   3.255  3.7453  0.4111  5.0954
  159MOL0     H21433   4.250   3.792   3.211  1.0982 -0.7011 -0.4185
  159MOL0     H21434   4.218   3.742   3.380 -0.0610 -0.8918 -0.0456
  159MOL0     H21435   4.376   3.990   3.267  1.7968 -2.2328  1.0140
  159MOL0     H21436   4.395   3.944   3.432 -0.3246 -2.4412 -1.3194
  159MOL0     H21437   4.215   4.077   3.468  0.9690 -1.9186  2.2702
  159MOL0     H21438   4.111   3.936   3.406 -1.6114  2.3492  1.1921
  159MOL0     H21439   4.224   4.181   3.273 -0.0376  0.9876  1.4759
  159MOL0     H21440   4.141   4.046   3.184  1.4674 -1.3531  0.7999
  159MOL0     H21441   4.022   4.180   3.426 -2.0065 -2.3225  0.4056
  159MOL0     H21442   3.940   4.105   3.286 -2.0783  1.6133  0.7263
  159MOL0     H21443   4.043   4.322   3.158  2.0420  0.6705  0.5078
  159MOL0     H21444   3.904   4.349   3.271  0.9479  1.6253  1.3571
  159MOL0     H21445   4.570   3.393   3.009 -1.7267  0.7953 -0.2046
  159MOL0     H21446   4.618   3.150   2.985  2.7207  0.6641  0.6374
  159MOL0     H21447   4.480   2.710   2.816 -2.6721 -0.3380 -1.3785
  159MOL0     H21448   4.479   2.477   2.835 -1.0427 -2.5400  1.1845
  159MOL0     H21449   4.919   1.631   3.983  1.7076 -0.0031 -0.5727
  159MOL0     H21450   5.112   1.597   4.116 -1.9189  1.1331  1.5575
  159MOL0     H21451   5.327   1.338   4.427 -0.7344 -1.8543  0.9267
  159MOL0     H21452   5.526   1.343   4.569  0.1322  1.7539  0.3981
  159MOL0     H21453   5.885   1.201   4.600 -0.4990 -1.6984 -0.3515
  159MOL0     H21454   5.711   1.224   4.637  1.7393 -3.3735 -2.3009
  159MOL0     H21455   5.900   1.467   4.653 -0.0486 -0.8257 -0.5982
  159MOL0     H21456   5.905   1.366   4.789  0.9212 -2.2746 -1.0725
  159MOL0     H21457   5.636   1.404   4.795 -0.4045 -0.4974 -3.1117
  159MOL0     H21458   5.667   1.515   4.672  0.3954 -0.7929 -1.3340
  159MOL0     H21459   5.776   1.521   4.977  2.6333  0.4721  0.7768
  159MOL0     H21460   5.829   1.638   4.847 -2.6920  1.8784 -0.7115
  159MOL0     H21461   5.436   1.768   4.873  0.7460  0.6636  0.0230
  159MOL0     H21462   5.775   1.344   4.224 -0.9329 -2.8352 -1.3128
  159MOL0     H21463   5.684   1.487   4.062 -2.1918  1.9661 -1.9363
  159MOL0     H21464   5.643   1.325   3.993 -1.6551 -1.3748  1.2395
  159MOL0     H21465   5.518   1.451   4.000  0.6244  0.3727 -0.8284
  160MOL0     O21466   8.563   4.207  10.730 -0.2109  0.6208 -0.0761
  160MOL0     C21467   8.641   4.248  10.823  0.2409  0.8867 -0.6098
  160MOL0     O21468   8.767   4.297  10.808  0.6229  0.4959  0.4469
  160MOL0     C21469   8.806   4.355  10.693  0.2061  0.3440  0.3532
  160MOL0     C21470   8.723   4.432  10.604 -0.9842  0.0364 -0.1060
  160MOL0     C21471   8.772   4.474  10.482 -0.1239 -0.1224  0.4336
  160MOL0     C21472   8.912   4.461  10.454  1.2094  0.1056  0.0640
  160MOL0     O21473   8.962   4.510  10.332  0.2899 -0.2426 -0.0855
  160MOL0     C21474   8.872   4.518  10.222 -1.0107  0.6366 -0.2389
  160MOL0     C21475   8.955   4.539  10.090 -1.1816 -0.3444 -0.3797
  160MOL0     C21476   9.030   4.679  10.092 -0.1355 -0.9350  0.1902
  160MOL0     C21477   8.941   4.784  10.024  0.1162 -0.2704 -0.0623
  160MOL0     C21478   8.980   4.929  10.068  0.8993 -1.1308  0.2528
  160MOL0     C21479   9.046   5.023   9.964  0.0018  0.1130 -0.8217
  160MOL0     C21480   9.169   4.970   9.889 -0.6417  0.2371 -0.4849
  160MOL0     C21481   9.239   5.099   9.845  0.1330 -0.6736 -0.2671
  160MOL0     N21482   9.156   5.173   9.757  0.1652 -0.1511 -0.9534
  160MOL0     C21483   9.160   5.162   9.620 -0.7835  0.3234  0.2472
  160MOL0     C21484   9.080   5.262   9.571 -0.2635 -0.4706 -0.3469
  160MOL0     C21485   9.072   5.283   9.423 -0.5086  0.3589 -1.1492
  160MOL0     C21486   8.966   5.377   9.376 -0.4245 -0.6328 -0.2022
  160MOL0     C21487   8.928   5.358   9.230 -0.8442  0.3198 -0.2251
  160MOL0     C21488   8.845   5.479   9.185  0.1884 -0.0734 -0.2614
  160MOL0     O21489   8.941   5.580   9.142 -0.0209 -0.1944  0.5924
  160MOL0     C21490   8.878   5.684   9.073  0.7240  0.0780  0.1428
  160MOL0     C21491   8.735   5.686   9.046 -0.6802 -0.4830 -0.5205
  160MOL0     C21492   8.682   5.800   8.980 -1.0041 -0.2667 -0.5214
  160MOL0     C21493   8.765   5.911   8.942 -0.2452 -0.1982  0.6947
  160MOL0     C21494   8.712   6.025   8.867 -0.3364 -0.0232 -0.3363
  160MOL0     O21495   8.594   6.012   8.814  0.0107 -0.2441 -0.2057
  160MOL0     C21496   8.545   6.120   8.744  0.2809  0.7787 -0.7658
  160MOL0     C21497   8.576   6.138   8.609  1.1518 -0.2345  0.2241
  160MOL0     C21498   8.516   6.245   8.543 -0.3239 -1.4649 -0.1154
  160MOL0     C21499   8.424   6.329   8.604  1.2288  0.0543  0.4882
  160MOL0     O21500   8.356   6.432   8.534 -0.2781  0.2552 -0.4094
  160MOL0     C21501   8.330   6.550   8.610 -0.8362 -0.4590 -0.4641
  160MOL0     C21502   8.454   6.648   8.633  0.0805  1.3877  1.0799
  160MOL0     C21503   8.566   6.587   8.722  0.0179 -0.4066 -0.0189
  160MOL0     C21504   8.657   6.686   8.785 -1.1401 -0.5920 -0.1875
  160MOL0     C21505   8.754   6.742   8.683 -0.6296 -0.1942  1.0242
  160MOL0     C21506   8.843   6.639   8.610  0.1966 -0.7637 -0.3971
  160MOL0     C21507   8.935   6.713   8.490  0.0519  0.3992  0.1917
  160MOL0     C21508   8.852   6.767   8.374  0.2901  0.1126  1.1759
  160MOL0    Cl21509   8.725   6.663   8.322  0.4792  0.2428 -0.0981
  160MOL0     C21510   8.396   6.303   8.742  0.4034 -0.5942 -0.1748
  160MOL0     C21511   8.459   6.208   8.812  0.2882  0.3744  0.0202
  160MOL0     O21512   8.790   6.127   8.863 -0.2139  0.6337  0.2166
  160MOL0     C21513   8.900   5.907   8.982  0.1175  0.0469 -0.9128
  160MOL0     C21514   8.954   5.791   9.044 -0.5581 -0.1372  0.6516
  160MOL0     N21515   9.023   5.331   9.674  0.2967 -0.1437 -0.1891
  160MOL0     N21516   9.080   5.280   9.782  1.4002 -0.7301 -0.3211
  160MOL0     C21517   9.000   4.415  10.553  0.9064  0.1721  0.4768
  160MOL0     C21518   8.942   4.350  10.668 -1.2771 -0.0418  0.2781
  160MOL0     C21519   8.600   4.214  10.965 -0.8827  1.0795 -0.0558
  160MOL0     C21520   8.492   4.131  10.980 -0.2706  0.5162 -0.2291
  160MOL0     C21521   8.451   4.079  11.105  0.2800  0.3096 -0.4905
  160MOL0     C21522   8.535   4.098  11.216 -0.5048 -0.5248 -1.3336
  160MOL0     O21523   8.501   4.020  11.323  0.5398  0.2962  0.5938
  160MOL0     C21524   8.610   3.959  11.389 -0.0668 -0.0248 -0.8857
  160MOL0     C21525   8.642   4.024  11.524 -0.5113 -0.5737  0.3898
  160MOL0     C21526   8.772   3.981  11.587  0.7493 -0.0447 -0.3148
  160MOL0     C21527   8.814   4.024  11.730 -0.3547  0.0180 -0.1840
  160MOL0     C21528   8.717   3.975  11.829  0.5171 -0.7931  0.6882
  160MOL0     C21529   8.641   3.916  11.901 -0.0437 -0.2698  1.3146
  160MOL0     C21530   8.632   4.201  11.210 -0.2133 -0.1778  0.2109
  160MOL0     C21531   8.672   4.255  11.082  0.1710  0.1633 -0.8485
  160MOL0     C21532   8.791   4.342  11.086  0.2900  1.5083 -0.7792
  160MOL0     H21533   8.616   4.436  10.622 -1.4134 -2.5990 -1.4826
  160MOL0     H21534   8.703   4.520  10.412  1.6986 -1.0666 -2.1431
  160MOL0     H21535   8.812   4.427  10.222  0.6103 -0.4759  0.4947
  160MOL0     H21536   8.810   4.608  10.233 -2.1525 -0.2115  0.4593
  160MOL0     H21537   8.893   4.521  10.002  0.4046 -1.6224 -1.2908
  160MOL0     H21538   9.036   4.465  10.085  0.1386  0.8408  1.9164
  160MOL0     H21539   9.115   4.675  10.024  0.0620  2.1002  0.1413
  160MOL0     H21540   9.063   4.688  10.196 -0.4274  0.5282  0.1780
  160MOL0     H21541   8.933   4.778   9.915 -1.2618  2.7491 -0.2128
  160MOL0     H21542   8.840   4.766  10.064  0.5385 -0.5208  0.9433
  160MOL0     H21543   8.886   4.979  10.093  0.0226  0.5458 -5.1875
  160MOL0     H21544   9.045   4.915  10.155  0.4290  0.2602  0.8557
  160MOL0     H21545   8.961   5.046   9.899 -0.8615 -0.1366  0.1888
  160MOL0     H21546   9.080   5.105  10.029  0.4959 -1.6425  1.2363
  160MOL0     H21547   9.133   4.909   9.807  0.8846  0.8370 -1.6444
  160MOL0     H21548   9.242   4.918   9.952 -0.8930 -0.1154 -0.4840
  160MOL0     H21549   9.273   5.162   9.928 -2.6746  2.2917 -1.1532
  160MOL0     H21550   9.329   5.076   9.787  0.4321 -1.7738  0.5888
  160MOL0     H21551   9.233   5.097   9.573  0.5337  0.3483  2.1212
  160MOL0     H21552   9.171   5.308   9.385 -0.5538 -0.6350 -1.9884
  160MOL0     H21553   9.051   5.185   9.379  2.3133 -1.0492  0.3974
  160MOL0     H21554   8.883   5.357   9.444  2.1060 -0.5153  3.1863
  160MOL0     H21555   8.997   5.479   9.401 -0.5037  0.5422 -4.2514
  160MOL0     H21556   8.877   5.261   9.234  2.3752 -1.5243  4.8826
  160MOL0     H21557   9.010   5.344   9.158 -1.0144 -4.0729  0.1883
  160MOL0     H21558   8.779   5.514   9.265  1.4774  4.0108 -0.7502
  160MOL0     H21559   8.790   5.450   9.095  0.2705 -0.3919 -0.2072
  160MOL0     H21560   8.674   5.600   9.072 -1.0372  0.1638  0.8650
  160MOL0     H21561   8.576   5.816   8.962 -1.0407  0.7505  0.4825
  160MOL0     H21562   8.632   6.062   8.555  0.4776 -1.1146  0.7261
  160MOL0     H21563   8.523   6.251   8.435 -0.1120 -2.2709 -0.1497
  160MOL0     H21564   8.263   6.600   8.540 -1.2479 -0.9039 -0.3942
  160MOL0     H21565   8.275   6.538   8.704 -1.2127  1.4713 -0.4041
  160MOL0     H21566   8.494   6.669   8.533 -2.3668 -0.5118 -0.3830
  160MOL0     H21567   8.405   6.741   8.663 -0.1446  2.1034 -1.2754
  160MOL0     H21568   8.519   6.542   8.810  2.7465 -3.4201  0.0879
  160MOL0     H21569   8.624   6.510   8.671  1.9100 -0.0089  1.4227
  160MOL0     H21570   8.710   6.633   8.866 -1.3467  1.0546  1.0840
  160MOL0     H21571   8.602   6.771   8.826  2.9494  1.6854  1.1179
  160MOL0     H21572   8.821   6.813   8.733  1.6149 -2.6023  1.6264
  160MOL0     H21573   8.700   6.796   8.604  3.3520 -0.5354 -2.3071
  160MOL0     H21574   8.916   6.591   8.677 -0.4343 -2.9041 -1.1783
  160MOL0     H21575   8.788   6.564   8.553  0.8710 -1.2682 -0.3991
  160MOL0     H21576   8.998   6.638   8.443 -1.0975  1.5294 -3.5029
  160MOL0     H21577   8.986   6.801   8.530 -2.1089  0.6879  2.5620
  160MOL0     H21578   8.813   6.865   8.400 -1.0347  0.4623 -1.7016
  160MOL0     H21579   8.912   6.778   8.283  3.5968 -0.5278  3.1033
  160MOL0     H21580   8.327   6.358   8.805 -0.1757 -1.8986  0.3677
  160MOL0     H21581   8.437   6.191   8.917 -0.4067  5.9821  1.1183
  160MOL0     H21582   8.972   5.981   8.949 -0.6441  1.2972  0.1247
  160MOL0     H21583   9.060   5.791   9.067 -0.7143 -0.1766  1.4043
  160MOL0     H21584   9.107   4.412  10.535  1.4024 -0.3341  3.0676
  160MOL0     H21585   9.008   4.303  10.740 -1.4885  0.7278  0.9852
  160MOL0     H21586   8.439   4.092  10.893 -2.4084  2.6092  0.0356
  160MOL0     H21587   8.358   4.026  11.114  0.1888  0.4102 -0.8208
  160MOL0     H21588   8.700   3.954  11.327 -0.7383  2.0489 -2.1173
  160MOL0     H21589   8.579   3.859  11.422 -1.6019  1.7598  4.0533
  160MOL0     H21590   8.562   4.009  11.597 -3.5649 -0.9900 -2.8220
  160MOL0     H21591   8.652   4.132  11.510 -2.6678 -0.3880 -0.1080
  160MOL0     H21592   8.856   3.998  11.519  1.2864  2.2461  0.8253
  160MOL0     H21593   8.767   3.872  11.594 -2.1427 -0.0370 -1.1415
  160MOL0     H21594   8.915   3.985  11.745  0.7999  2.7875 -0.0266
  160MOL0     H21595   8.827   4.133  11.728 -4.1666  0.7200  2.4998
  160MOL0     H21596   8.563   3.886  11.969 -1.5410  0.5093  0.0113
  160MOL0     H21597   8.697   4.218  11.295  1.6075  0.2687 -1.2013
  160MOL0     H21598   8.763   4.442  11.052 -2.7328  1.7406  1.8885
  160MOL0     H21599   8.826   4.350  11.189 -2.0322 -2.3202  0.5004
  160MOL0     H21600   8.879   4.317  11.027  0.4562  4.7994 -2.1788
  161MOL0     O21601   1.235   0.566   6.331 -0.9961  0.3644 -0.3432
  161MOL0     C21602   1.342   0.587   6.275  0.7692  1.0614 -0.5941
  161MOL0     O21603   1.408   0.709   6.267  0.1817  0.8865 -0.6664
  161MOL0     C21604   1.378   0.797   6.366 -0.1258  0.0410  0.6196
  161MOL0     C21605   1.448   0.786   6.488  0.2204 -0.6828 -0.0805
  161MOL0     C21606   1.413   0.868   6.601 -0.2056 -0.8413  0.7425
  161MOL0     C21607   1.312   0.958   6.584  1.1877  1.1273 -0.6279
  161MOL0     O21608   1.269   1.035   6.691 -0.6563 -0.1129 -0.2190
  161MOL0     C21609   1.368   1.103   6.768 -0.9774  0.0185 -0.1776
  161MOL0     C21610   1.475   1.192   6.683  0.5912  0.6958  0.6385
  161MOL0     C21611   1.612   1.186   6.758 -0.2849 -0.9266 -0.1851
  161MOL0     C21612   1.702   1.069   6.724 -0.3322 -0.3873  0.5560
  161MOL0     C21613   1.841   1.071   6.794 -0.2299 -0.9627 -0.4640
  161MOL0     C21614   1.936   0.963   6.739 -0.1980 -0.4526  0.2050
  161MOL0     C21615   2.077   0.970   6.784  0.0981  0.0772 -0.0710
  161MOL0     C21616   2.141   0.834   6.764  0.4175  0.4243  0.7121
  161MOL0     N21617   2.287   0.828   6.772 -0.7072  0.4312  0.2838
  161MOL0     C21618   2.383   0.922   6.717  0.9795 -0.2715 -0.3453
  161MOL0     C21619   2.510   0.886   6.762 -0.4947  0.5632 -0.0150
  161MOL0     C21620   2.630   0.953   6.717  0.7831  0.8256 -0.1213
  161MOL0     C21621   2.671   0.941   6.567 -0.1031 -0.8218 -0.0336
  161MOL0     C21622   2.703   0.793   6.522  0.1182 -0.3064  0.0117
  161MOL0     C21623   2.717   0.784   6.375  0.2852  0.2219 -0.5099
  161MOL0     O21624   2.589   0.764   6.313 -1.1126  0.5895 -0.8837
  161MOL0     C21625   2.593   0.729   6.187  0.8393 -0.1386 -0.7285
  161MOL0     C21626   2.699   0.656   6.126  0.9510 -0.1955  0.4869
  161MOL0     C21627   2.674   0.594   6.007  0.1857 -0.9228  1.0717
  161MOL0     C21628   2.547   0.598   5.945 -0.4815 -0.0664 -0.3232
  161MOL0     C21629   2.529   0.547   5.806  0.0262  0.7785  0.5429
  161MOL0     O21630   2.411   0.584   5.738 -0.8186  0.7150  0.6048
  161MOL0     C21631   2.369   0.498   5.634 -0.6867  0.3640  0.3806
  161MOL0     C21632   2.328   0.555   5.509 -0.9850 -0.2834 -0.4252
  161MOL0     C21633   2.269   0.485   5.406 -0.2568 -0.3608  0.0624
  161MOL0     C21634   2.251   0.346   5.428 -0.2274  0.2595  0.8723
  161MOL0     O21635   2.205   0.282   5.316  0.1216 -0.2874 -0.7016
  161MOL0     C21636   2.236   0.143   5.310 -0.9872 -0.7467  0.3773
  161MOL0     C21637   2.227   0.099   5.161  0.5871 -0.6517  0.0601
  161MOL0     C21638   2.082   0.128   5.109 -0.3850  0.6389 -0.7145
  161MOL0     C21639   1.971   0.064   5.201  0.1761 -0.0649 -0.1217
  161MOL0     C21640   1.832   0.129   5.165 -1.2226 -0.7346 -0.1847
  161MOL0     C21641   1.727   0.029   5.193 -0.1516  0.4477 -0.7940
  161MOL0     C21642   1.716  -0.034   5.334  0.1018  0.0763 -0.3824
  161MOL0     C21643   1.568  -0.079   5.362  0.2611 -0.5371 -0.5424
  161MOL0    Cl21644   1.553  -0.146   5.523  0.4689  0.4442 -0.3945
  161MOL0     C21645   2.296   0.285   5.544 -0.8203  0.7819 -1.5948
  161MOL0     C21646   2.354   0.362   5.643 -0.1838 -0.1779 -0.3549
  161MOL0     O21647   2.603   0.458   5.774 -0.1877  0.0885  0.8111
  161MOL0     C21648   2.449   0.682   6.001 -1.1318 -0.6868  0.0262
  161MOL0     C21649   2.472   0.746   6.119 -0.9320 -0.1023  0.6535
  161MOL0     N21650   2.487   0.774   6.843  0.1884  0.0605  0.6495
  161MOL0     N21651   2.364   0.741   6.844  0.5428 -0.9409  0.9980
  161MOL0     C21652   1.237   0.965   6.465 -0.7026 -0.1512  0.6248
  161MOL0     C21653   1.275   0.887   6.353 -0.3712  0.2602 -0.2822
  161MOL0     C21654   1.393   0.470   6.199 -0.1449 -0.5384  0.2661
  161MOL0     C21655   1.530   0.444   6.202  0.2408 -0.2631 -0.8105
  161MOL0     C21656   1.590   0.339   6.138 -0.4303  0.5501 -0.3577
  161MOL0     C21657   1.508   0.245   6.071  0.4108  0.8788 -0.6484
  161MOL0     O21658   1.566   0.134   6.019  0.1276 -0.0877  0.6897
  161MOL0     C21659   1.480   0.036   5.955 -0.6435 -0.0900 -0.2110
  161MOL0     C21660   1.560  -0.082   5.904 -0.3690  0.2954  0.4635
  161MOL0     C21661   1.654  -0.143   6.006  0.1000  0.6731  0.5861
  161MOL0     C21662   1.736  -0.260   5.948  0.1760 -0.7007  0.1307
  161MOL0     C21663   1.817  -0.202   5.827  0.5369  0.7430 -0.5550
  161MOL0     C21664   1.868  -0.153   5.730 -1.4473 -0.0611  1.1910
  161MOL0     C21665   1.374   0.275   6.051 -0.0899 -0.2149 -1.0407
  161MOL0     C21666   1.314   0.392   6.116  0.7049  0.3642  0.0475
  161MOL0     C21667   1.182   0.436   6.069  0.1707 -0.5190  1.2063
  161MOL0     H21668   1.532   0.719   6.499  0.5751  0.0635  2.5443
  161MOL0     H21669   1.464   0.854   6.696  2.4200 -0.6885 -0.5369
  161MOL0     H21670   1.326   1.162   6.850  0.6545 -2.3864  2.5890
  161MOL0     H21671   1.423   1.025   6.821 -1.9455 -0.7585 -0.3035
  161MOL0     H21672   1.439   1.294   6.693  0.8971  0.7331  1.5023
  161MOL0     H21673   1.493   1.158   6.580  2.6158  3.9610 -0.2347
  161MOL0     H21674   1.595   1.175   6.866 -0.7933  0.9272 -0.0500
  161MOL0     H21675   1.669   1.278   6.750  0.3146 -1.1785  1.0036
  161MOL0     H21676   1.647   0.974   6.726  3.0835 -2.5662 -0.7585
  161MOL0     H21677   1.725   1.083   6.618  3.5240  1.2497  1.4488
  161MOL0     H21678   1.883   1.172   6.785 -1.4798 -0.2867  0.8262
  161MOL0     H21679   1.834   1.059   6.903  0.0478  2.5676  0.0588
  161MOL0     H21680   1.898   0.862   6.756 -0.6807 -0.5327 -1.2385
  161MOL0     H21681   1.954   0.981   6.632  2.1576  0.0806  0.6263
  161MOL0     H21682   2.097   0.995   6.888  3.3744 -1.7680 -0.1164
  161MOL0     H21683   2.123   1.038   6.712  0.4435  0.4251  0.4756
  161MOL0     H21684   2.097   0.760   6.832 -0.8196 -0.2598 -0.7700
  161MOL0     H21685   2.110   0.804   6.664 -0.9102  1.7916  0.6818
  161MOL0     H21686   2.371   1.001   6.643  0.8596  0.4727  0.4398
  161MOL0     H21687   2.609   1.056   6.747 -2.2125 -0.3110  2.2124
  161MOL0     H21688   2.708   0.911   6.782 -1.2660 -2.6374  0.3545
  161MOL0     H21689   2.577   0.957   6.512  0.2597 -2.9490 -1.3927
  161MOL0     H21690   2.752   1.003   6.530 -0.2282 -2.8150 -4.2291
  161MOL0     H21691   2.633   0.721   6.566 -1.6561  1.5215  0.3086
  161MOL0     H21692   2.803   0.763   6.555  0.5160 -2.5555 -2.8762
  161MOL0     H21693   2.796   0.712   6.354 -0.3454  0.0352 -2.4148
  161MOL0     H21694   2.767   0.871   6.331  1.5398 -0.8522 -1.2854
  161MOL0     H21695   2.798   0.635   6.166  2.3306  1.7558 -1.6287
  161MOL0     H21696   2.761   0.561   5.950  0.9861  3.3303 -0.5263
  161MOL0     H21697   2.359   0.658   5.495 -0.7116 -0.0134  1.7295
  161MOL0     H21698   2.249   0.544   5.318 -1.1186 -0.0300  0.4699
  161MOL0     H21699   2.333   0.107   5.344  0.3952  1.1539 -1.3139
  161MOL0     H21700   2.165   0.099   5.380  0.7089  1.5008  3.7509
  161MOL0     H21701   2.292   0.165   5.103  0.3943 -1.7683 -1.4982
  161MOL0     H21702   2.251  -0.005   5.137 -3.2478 -1.6920  0.0474
  161MOL0     H21703   2.069   0.236   5.102  1.6177  1.0540  1.2429
  161MOL0     H21704   2.066   0.084   5.010 -1.7775 -0.1524 -0.1779
  161MOL0     H21705   1.991   0.069   5.308  1.9524 -0.0110 -0.4255
  161MOL0     H21706   1.958  -0.043   5.180 -3.4579  0.4434 -1.2641
  161MOL0     H21707   1.833   0.181   5.069  2.0625  0.7615  0.5164
  161MOL0     H21708   1.816   0.207   5.240 -2.0911 -0.0743 -1.0455
  161MOL0     H21709   1.631   0.081   5.184  0.0972  1.7578  2.6624
  161MOL0     H21710   1.737  -0.054   5.122  2.4329 -0.0619  0.0491
  161MOL0     H21711   1.742   0.040   5.410 -2.9359 -1.8384  2.8423
  161MOL0     H21712   1.783  -0.119   5.350 -1.5564 -1.3879 -0.8345
  161MOL0     H21713   1.503   0.008   5.347  2.1066  0.8922 -0.7441
  161MOL0     H21714   1.545  -0.162   5.295  1.8458 -1.2590 -0.2487
  161MOL0     H21715   2.282   0.178   5.557 -1.0198  0.9457 -0.3813
  161MOL0     H21716   2.396   0.310   5.729  2.0416  1.2440 -0.4984
  161MOL0     H21717   2.354   0.697   5.951 -0.2203 -0.6975 -1.7800
  161MOL0     H21718   2.382   0.792   6.159 -0.8368  1.8365 -1.1990
  161MOL0     H21719   1.156   1.032   6.438 -0.6964 -0.4147 -0.0720
  161MOL0     H21720   1.236   0.876   6.252  0.4751  1.0457 -0.7102
  161MOL0     H21721   1.609   0.502   6.251  1.1883 -2.7320  0.8285
  161MOL0     H21722   1.692   0.306   6.153 -0.8365 -0.4250  0.3312
  161MOL0     H21723   1.436   0.085   5.868 -1.3624 -2.1414 -1.0449
  161MOL0     H21724   1.396   0.010   6.019  1.2699  1.5371  3.2465
  161MOL0     H21725   1.618  -0.046   5.819 -2.9208  0.0157 -1.5310
  161MOL0     H21726   1.489  -0.158   5.868  0.3641  1.0809 -2.9919
  161MOL0     H21727   1.595  -0.177   6.091  0.2942 -2.5290 -0.4157
  161MOL0     H21728   1.725  -0.071   6.047 -1.3429  2.6672 -0.2333
  161MOL0     H21729   1.810  -0.286   6.025  2.1515 -3.7097 -2.4581
  161MOL0     H21730   1.684  -0.354   5.926  0.5315 -0.4988 -1.8058
  161MOL0     H21731   1.938  -0.139   5.651 -1.2395 -0.5320  1.2879
  161MOL0     H21732   1.302   0.218   5.994  1.0462 -1.8989 -0.8446
  161MOL0     H21733   1.193   0.543   6.053 -1.4197 -0.9058 -4.8953
  161MOL0     H21734   1.146   0.400   5.972 -1.9114 -1.5855  2.2985
  161MOL0     H21735   1.099   0.417   6.139 -2.8812 -0.5088 -2.1199
  162MOL0     O21736   1.222   2.564  10.627 -0.1235  0.3075 -0.6915
  162MOL0     C21737   1.155   2.553  10.731  0.0012 -0.2882  1.1333
  162MOL0     O21738   1.124   2.661  10.814 -0.4680 -0.0080  0.1815
  162MOL0     C21739   1.149   2.784  10.763  0.7121  0.3769  0.5142
  162MOL0     C21740   1.272   2.836  10.709  0.5787  0.6962 -0.2489
  162MOL0     C21741   1.275   2.957  10.651 -0.5105 -0.1776 -0.1957
  162MOL0     C21742   1.152   3.024  10.629  0.1618  0.3859 -1.0750
  162MOL0     O21743   1.145   3.144  10.572  0.2466  0.4257 -0.4697
  162MOL0     C21744   1.233   3.190  10.466  0.2656  0.2142  0.0710
  162MOL0     C21745   1.329   3.302  10.516  0.1459  0.5137 -0.1407
  162MOL0     C21746   1.448   3.327  10.426 -0.1723 -0.6184  0.0383
  162MOL0     C21747   1.594   3.317  10.484 -0.7830 -0.7866 -0.2054
  162MOL0     C21748   1.616   3.441  10.579  0.2722  0.7192  1.2694
  162MOL0     C21749   1.746   3.420  10.657  0.0356 -0.2357 -0.6236
  162MOL0     C21750   1.795   3.552  10.709  0.2301 -0.1259  0.4525
  162MOL0     C21751   1.833   3.652  10.604 -0.7944 -0.5842  0.3810
  162MOL0     N21752   1.905   3.764  10.671  0.6586 -0.7031  0.5085
  162MOL0     C21753   2.039   3.778  10.669  0.2547  0.8673 -0.1107
  162MOL0     C21754   2.067   3.900  10.704 -0.3434 -0.3003  0.5128
  162MOL0     C21755   2.205   3.967  10.695  1.1752 -0.2243 -0.3206
  162MOL0     C21756   2.263   3.987  10.557  0.5923  0.0417  0.5871
  162MOL0     C21757   2.172   3.984  10.441 -0.3247  0.8079 -0.3299
  162MOL0     C21758   2.077   4.103  10.443 -0.2120  0.2431 -1.0541
  162MOL0     O21759   2.028   4.113  10.308  0.1007 -0.1511 -0.3140
  162MOL0     C21760   1.949   4.224  10.283 -0.3759 -0.2383 -0.4890
  162MOL0     C21761   1.907   4.249  10.151  0.1581 -0.0591 -0.0673
  162MOL0     C21762   1.829   4.355  10.101  0.7243 -0.2432  0.2519
  162MOL0     C21763   1.773   4.445  10.202  0.2907  1.0845 -0.8761
  162MOL0     C21764   1.691   4.558  10.158  0.9292 -0.9799 -0.0573
  162MOL0     O21765   1.581   4.598  10.243 -0.1107 -0.1045 -0.0876
  162MOL0     C21766   1.495   4.693  10.190  0.0832 -0.7684 -0.2529
  162MOL0     C21767   1.526   4.813  10.143  0.3435 -0.0684 -1.1547
  162MOL0     C21768   1.434   4.905  10.092 -0.2013  1.1221  1.0413
  162MOL0     C21769   1.292   4.875  10.094 -0.2689  0.1311 -0.5441
  162MOL0     O21770   1.195   4.941  10.029 -0.6440 -0.4470  0.3219
  162MOL0     C21771   1.234   5.052   9.946  0.8204 -1.0837  0.1718
  162MOL0     C21772   1.111   5.124   9.895  0.2893 -0.3055  0.6736
  162MOL0     C21773   1.022   5.034   9.818  0.1263 -0.1853 -0.1815
  162MOL0     C21774   0.899   5.112   9.772  0.3292 -0.4966  0.1407
  162MOL0     C21775   0.828   5.021   9.664 -0.5014  0.5353 -0.2294
  162MOL0     C21776   0.722   5.107   9.593  0.4079  0.2935 -0.4971
  162MOL0     C21777   0.578   5.088   9.644  0.6218 -0.2181 -0.0530
  162MOL0     C21778   0.522   4.949   9.591 -0.4775  0.2807 -0.1201
  162MOL0    Cl21779   0.351   4.909   9.625 -0.0039 -0.6357  0.4681
  162MOL0     C21780   1.257   4.757  10.153 -0.2584  0.0250  1.3474
  162MOL0     C21781   1.356   4.664  10.195 -0.1853  0.7265  0.0655
  162MOL0     O21782   1.728   4.614  10.051 -0.1220  0.4788  0.2331
  162MOL0     C21783   1.812   4.419  10.339 -1.0631  0.0231 -1.0718
  162MOL0     C21784   1.894   4.310  10.385  0.9077  0.2569  1.0244
  162MOL0     N21785   1.947   3.956  10.757  0.8883 -0.1578  0.3031
  162MOL0     N21786   1.849   3.879  10.717  0.5173 -0.2982  0.2439
  162MOL0     C21787   1.028   2.969  10.674  0.4397  0.0534 -0.6933
  162MOL0     C21788   1.028   2.857  10.748  0.0904 -0.2536 -0.7332
  162MOL0     C21789   1.093   2.424  10.765  0.2439  0.9730  0.0577
  162MOL0     C21790   1.154   2.302  10.722 -0.5182  0.3809  0.5653
  162MOL0     C21791   1.120   2.173  10.763  0.5464 -0.6762 -0.0195
  162MOL0     C21792   1.015   2.159  10.850 -0.5490  0.7749 -0.4545
  162MOL0     O21793   0.988   2.034  10.900  0.1596  0.6092 -0.4297
  162MOL0     C21794   1.027   1.905  10.832 -0.3555 -0.1147  0.7140
  162MOL0     C21795   0.980   1.796  10.921  0.2110 -0.2216 -0.3259
  162MOL0     C21796   0.828   1.804  10.941  0.1353 -0.0151 -0.5017
  162MOL0     C21797   0.787   1.677  11.005 -0.2396 -0.1834  0.2067
  162MOL0     C21798   0.647   1.688  11.044  0.8993 -0.0490  0.7083
  162MOL0     C21799   0.535   1.695  11.080  0.3395  0.2745 -0.0342
  162MOL0     C21800   0.951   2.271  10.902  0.7268 -0.5195  1.0164
  162MOL0     C21801   0.981   2.402  10.848  0.2259 -1.0166  0.0810
  162MOL0     C21802   0.904   2.515  10.895  0.8011  1.1066  0.1822
  162MOL0     H21803   1.367   2.785  10.704  0.3620 -0.0721  2.0038
  162MOL0     H21804   1.364   2.985  10.597  0.2116 -1.2694  0.3918
  162MOL0     H21805   1.286   3.102  10.427  1.7159  1.7860 -1.7434
  162MOL0     H21806   1.175   3.226  10.380 -0.9011  3.3365  2.0381
  162MOL0     H21807   1.361   3.283  10.618 -0.3656 -2.4458 -0.4452
  162MOL0     H21808   1.265   3.391  10.506  0.2830  0.4734 -1.6755
  162MOL0     H21809   1.432   3.419  10.369  0.1181 -0.1388  0.7285
  162MOL0     H21810   1.436   3.247  10.352 -0.3987 -2.5984  2.1062
  162MOL0     H21811   1.602   3.224  10.541 -1.5313 -1.2139 -0.7694
  162MOL0     H21812   1.666   3.315  10.402  2.0859 -1.0406  2.1914
  162MOL0     H21813   1.612   3.526  10.511  0.6892 -1.1679 -1.2659
  162MOL0     H21814   1.528   3.457  10.642 -0.9131  0.4558 -0.2621
  162MOL0     H21815   1.719   3.356  10.741 -2.7091  1.9274  0.2973
  162MOL0     H21816   1.823   3.360  10.608 -1.4593 -2.1246 -0.7907
  162MOL0     H21817   1.880   3.533  10.775  0.4418 -1.0109 -0.0586
  162MOL0     H21818   1.712   3.592  10.769 -1.3341  0.7465 -2.1640
  162MOL0     H21819   1.895   3.616  10.521  2.4253  0.3847  2.1656
  162MOL0     H21820   1.740   3.692  10.563 -1.0882 -1.8394 -0.2102
  162MOL0     H21821   2.115   3.706  10.641  0.6428  2.1472 -2.6484
  162MOL0     H21822   2.188   4.059  10.751 -0.0608 -1.0762  0.7534
  162MOL0     H21823   2.272   3.902  10.752  0.3965 -3.1376 -2.4883
  162MOL0     H21824   2.314   4.084  10.555 -2.6545  1.9055  0.4155
  162MOL0     H21825   2.330   3.901  10.547  0.3030 -0.5126  2.9853
  162MOL0     H21826   2.111   3.893  10.444 -0.5675  0.9993  0.7372
  162MOL0     H21827   2.234   3.986  10.351  0.8611  0.9328  0.4736
  162MOL0     H21828   2.126   4.198  10.466  0.3390 -0.7677  2.5915
  162MOL0     H21829   2.006   4.090  10.526  0.2378 -0.6373 -0.7950
  162MOL0     H21830   1.948   4.180  10.077 -0.7993  0.9537 -1.5962
  162MOL0     H21831   1.800   4.369   9.998 -5.0916  3.9299  1.9339
  162MOL0     H21832   1.632   4.838  10.146  0.2800  0.0980 -0.2117
  162MOL0     H21833   1.482   4.995  10.054 -0.0892  1.9642  3.0530
  162MOL0     H21834   1.281   5.131  10.006  0.3428  0.9890 -2.0451
  162MOL0     H21835   1.298   5.017   9.864  1.0098 -0.6515  0.1303
  162MOL0     H21836   1.056   5.174   9.975 -0.3966 -0.5154  0.3438
  162MOL0     H21837   1.155   5.208   9.841  0.7954 -0.5708  0.6657
  162MOL0     H21838   1.075   4.973   9.744  0.1494  2.5046 -2.5372
  162MOL0     H21839   0.976   4.960   9.884 -0.9413 -0.7902 -1.5729
  162MOL0     H21840   0.921   5.210   9.729 -3.4715  0.2434 -0.4972
  162MOL0     H21841   0.833   5.150   9.851  2.5391  1.9553  0.9429
  162MOL0     H21842   0.792   4.924   9.699 -2.1407  0.1654 -2.6129
  162MOL0     H21843   0.913   4.992   9.601  1.2539  1.0003  1.8289
  162MOL0     H21844   0.743   5.214   9.590 -2.2462  0.8718 -3.0118
  162MOL0     H21845   0.725   5.074   9.489  1.9307  0.9424 -0.6763
  162MOL0     H21846   0.517   5.173   9.613 -0.9188 -1.3481 -0.2431
  162MOL0     H21847   0.589   5.090   9.753 -1.3712 -0.9679  0.2024
  162MOL0     H21848   0.520   4.948   9.482 -2.3630  2.6185 -0.1840
  162MOL0     H21849   0.590   4.869   9.623  1.5291  1.6187 -0.8731
  162MOL0     H21850   1.153   4.731  10.137 -2.0089  1.4477  7.5720
  162MOL0     H21851   1.327   4.563  10.220  1.3246  0.6755  1.8144
  162MOL0     H21852   1.743   4.480  10.395 -2.6625  1.5182 -4.3618
  162MOL0     H21853   1.892   4.279  10.489  0.6901 -1.1904  0.6036
  162MOL0     H21854   0.949   3.035  10.639  1.8123  2.8729  1.2254
  162MOL0     H21855   0.929   2.827  10.781  0.3110 -1.9771 -1.5187
  162MOL0     H21856   1.233   2.317  10.650 -2.3222 -2.6514 -2.3488
  162MOL0     H21857   1.181   2.092  10.722  1.9889 -0.3912  1.4637
  162MOL0     H21858   1.136   1.897  10.825 -0.3768 -0.5553  0.8936
  162MOL0     H21859   0.986   1.900  10.731  2.6096  3.5965 -0.9218
  162MOL0     H21860   1.019   1.829  11.018 -3.2116  0.9517  0.8149
  162MOL0     H21861   1.020   1.698  10.893 -0.2237 -0.7100  0.7255
  162MOL0     H21862   0.771   1.812  10.848 -2.8808 -1.6331  1.0237
  162MOL0     H21863   0.805   1.892  11.002  0.0899 -0.3080 -0.0925
  162MOL0     H21864   0.785   1.592  10.936  2.4699  0.0796 -0.2859
  162MOL0     H21865   0.838   1.666  11.101  1.2368  2.5557 -0.1681
  162MOL0     H21866   0.435   1.701  11.118  0.8950 -0.3967  1.6451
  162MOL0     H21867   0.880   2.254  10.982  1.3308 -0.1952  1.6221
  162MOL0     H21868   0.889   2.602  10.832  0.5686  0.8228 -0.1605
  162MOL0     H21869   0.801   2.479  10.907  0.0309  3.4167  0.9464
  162MOL0     H21870   0.951   2.548  10.988  1.5392 -1.6658  0.8994
  163MOL0     O21871   8.152   0.697   8.956  0.0129  0.0563  0.1172
  163MOL0     C21872   8.178   0.809   8.921  1.0214  0.3740 -1.1335
  163MOL0     O21873   8.265   0.899   8.981  0.0114  0.0876 -0.3578
  163MOL0     C21874   8.352   0.852   9.068 -0.3060 -0.1408 -0.7812
  163MOL0     C21875   8.470   0.788   9.032  0.9964  0.6874  0.2032
  163MOL0     C21876   8.544   0.726   9.128 -0.2975 -0.1004  0.1852
  163MOL0     C21877   8.509   0.726   9.268  0.0987  0.3707  0.2436
  163MOL0     O21878   8.585   0.651   9.359 -0.4731 -0.2066 -1.0514
  163MOL0     C21879   8.519   0.522   9.389 -0.8905 -0.0215 -0.6803
  163MOL0     C21880   8.615   0.439   9.473  0.8780  0.2924  0.3027
  163MOL0     C21881   8.552   0.300   9.519 -0.1827  0.2462 -0.0563
  163MOL0     C21882   8.456   0.312   9.640  0.8310  0.6887 -0.6362
  163MOL0     C21883   8.423   0.172   9.706  0.2810  0.6516  1.0950
  163MOL0     C21884   8.306   0.217   9.802  0.4812  0.8288  0.1207
  163MOL0     C21885   8.249   0.083   9.857 -0.2629  0.7832 -0.6364
  163MOL0     C21886   8.110   0.095   9.906  0.3076 -0.3470 -1.0476
  163MOL0     N21887   8.063  -0.019   9.990 -0.0361  0.0816  0.1064
  163MOL0     C21888   8.043  -0.024  10.125  0.4739  0.2947 -0.1666
  163MOL0     C21889   8.009  -0.151  10.164  0.0557 -0.8256  0.5029
  163MOL0     C21890   7.970  -0.224  10.287 -0.0792 -1.3606  0.0086
  163MOL0     C21891   7.824  -0.237  10.301  0.4910  0.9570  0.7008
  163MOL0     C21892   7.747  -0.304  10.185  0.1079 -1.0552  0.4147
  163MOL0     C21893   7.598  -0.336  10.218  0.7289  0.0320  0.0347
  163MOL0     O21894   7.578  -0.400  10.342 -0.8768 -1.2493 -0.1852
  163MOL0     C21895   7.560  -0.532  10.335  1.0353  1.3079 -0.1312
  163MOL0     C21896   7.653  -0.610  10.402 -0.0205  0.1250  0.0959
  163MOL0     C21897   7.637  -0.747  10.394  0.0296  0.7406  0.8713
  163MOL0     C21898   7.531  -0.808  10.331 -0.4771 -0.6592 -0.6607
  163MOL0     C21899   7.530  -0.961  10.317  0.1668  0.0035 -0.0284
  163MOL0     O21900   7.627  -1.040  10.380 -0.7695  0.5906 -0.3518
  163MOL0     C21901   7.656  -1.163  10.319 -0.5601 -0.1444  0.0061
  163MOL0     C21902   7.732  -1.169  10.197  0.5686  0.1565 -0.9826
  163MOL0     C21903   7.749  -1.297  10.132  0.6245 -0.2531 -0.4834
  163MOL0     C21904   7.697  -1.414  10.185 -0.7621  0.8202 -0.2325
  163MOL0     O21905   7.717  -1.525  10.108  0.4025 -0.2707 -0.1930
  163MOL0     C21906   7.777  -1.631  10.192  0.7967 -0.0569 -0.4473
  163MOL0     C21907   7.842  -1.749  10.111 -0.5051 -0.7160  0.1002
  163MOL0     C21908   7.914  -1.700   9.977  0.0670  0.5855  0.2073
  163MOL0     C21909   8.037  -1.599   9.998  0.4022 -0.3158  0.1949
  163MOL0     C21910   8.079  -1.539   9.872  0.3778  0.0085  0.0655
  163MOL0     C21911   7.983  -1.425   9.829 -0.3901  0.2762  0.3993
  163MOL0     C21912   8.043  -1.359   9.699  0.3727  0.6116 -0.1357
  163MOL0     C21913   8.025  -1.449   9.579  0.0528  0.6158  1.3406
  163MOL0    Cl21914   7.850  -1.456   9.539  0.2971  0.3430  0.3315
  163MOL0     C21915   7.630  -1.414  10.312 -0.4975  0.5875 -0.0860
  163MOL0     C21916   7.614  -1.281  10.377  0.1283 -0.2959  0.2134
  163MOL0     O21917   7.444  -1.003  10.247 -0.3028 -0.1754 -0.7985
  163MOL0     C21918   7.440  -0.724  10.260  1.2873 -0.4723  0.5689
  163MOL0     C21919   7.455  -0.588  10.266  0.3052 -0.7709 -0.9577
  163MOL0     N21920   8.005  -0.221  10.041  0.3157 -0.4213 -0.0383
  163MOL0     N21921   8.057  -0.147   9.945  0.4392 -0.5093  0.7792
  163MOL0     C21922   8.393   0.794   9.304  0.3991 -0.4699 -1.0464
  163MOL0     C21923   8.317   0.853   9.208  0.2559  1.0216  0.1968
  163MOL0     C21924   8.082   0.866   8.818 -0.2748  0.4640 -0.9089
  163MOL0     C21925   8.135   0.961   8.732  0.4527  0.5499 -0.6631
  163MOL0     C21926   8.046   1.017   8.637 -0.0231 -0.7549  0.5791
  163MOL0     C21927   7.914   0.985   8.621 -0.1436  0.0189  0.4685
  163MOL0     O21928   7.827   1.055   8.541  0.2488  0.6247  0.7231
  163MOL0     C21929   7.870   1.175   8.463 -0.1571 -0.1413 -1.0397
  163MOL0     C21930   7.885   1.295   8.555  0.7229  0.7450  0.5692
  163MOL0     C21931   7.905   1.419   8.482 -0.5941 -0.3807  1.1295
  163MOL0     C21932   8.058   1.457   8.483  0.0903  0.0580  1.1298
  163MOL0     C21933   8.170   1.358   8.467 -0.0723  0.9527 -0.7682
  163MOL0     C21934   8.252   1.276   8.437 -0.4503 -0.3010  0.2421
  163MOL0     C21935   7.859   0.908   8.719 -0.3017 -0.1708 -0.7554
  163MOL0     C21936   7.941   0.847   8.812  0.2219 -0.3998 -0.6059
  163MOL0     C21937   7.863   0.756   8.906 -0.3965  0.6384  0.2170
  163MOL0     H21938   8.481   0.780   8.924 -1.3318  0.0701 -0.0530
  163MOL0     H21939   8.630   0.671   9.092 -0.6921  0.5317 -1.8897
  163MOL0     H21940   8.430   0.542   9.449 -0.5113  1.6583 -0.6234
  163MOL0     H21941   8.491   0.480   9.292 -1.1514  1.2786 -1.1931
  163MOL0     H21942   8.646   0.496   9.561  0.6202 -0.8607  1.1519
  163MOL0     H21943   8.705   0.415   9.416  0.3823 -1.2948  0.1439
  163MOL0     H21944   8.648   0.255   9.547  0.2082  0.4002 -1.1100
  163MOL0     H21945   8.507   0.250   9.433  0.4233  0.6282 -0.6054
  163MOL0     H21946   8.498   0.378   9.716 -2.5299 -0.4994  2.5200
  163MOL0     H21947   8.366   0.357   9.598 -1.1171 -2.9896 -0.7973
  163MOL0     H21948   8.388   0.102   9.630 -0.3425  2.4680 -0.3887
  163MOL0     H21949   8.508   0.127   9.756 -0.6193 -1.3237  0.9290
  163MOL0     H21950   8.334   0.287   9.881 -5.7532  0.1060  3.6242
  163MOL0     H21951   8.222   0.255   9.743 -0.3776 -0.6444  0.3315
  163MOL0     H21952   8.321   0.062   9.937  0.2708 -0.5841 -1.4285
  163MOL0     H21953   8.238  -0.004   9.790  1.3511 -2.1623  2.6115
  163MOL0     H21954   8.102   0.186   9.966  2.2170 -0.3964 -0.6671
  163MOL0     H21955   8.036   0.096   9.825 -1.8037 -0.7991  0.8048
  163MOL0     H21956   8.041   0.056  10.198 -0.9108 -0.1182  0.2671
  163MOL0     H21957   8.021  -0.319  10.307  0.7764 -1.3251 -1.7861
  163MOL0     H21958   8.007  -0.160  10.368 -1.8766 -0.1219 -0.0993
  163MOL0     H21959   7.828  -0.296  10.393  2.6450  2.2911  1.5169
  163MOL0     H21960   7.780  -0.138  10.318  0.7641  1.2728 -0.3574
  163MOL0     H21961   7.807  -0.384  10.140 -1.9293 -3.3434  1.5347
  163MOL0     H21962   7.729  -0.227  10.109  0.9895 -4.1637 -3.3328
  163MOL0     H21963   7.547  -0.381  10.132  1.2989 -1.0077  0.2217
  163MOL0     H21964   7.565  -0.233  10.236  0.3409 -0.1197  0.1964
  163MOL0     H21965   7.743  -0.586  10.458  0.7202 -2.8176  0.3195
  163MOL0     H21966   7.722  -0.807  10.426 -0.9519  0.1626  2.5530
  163MOL0     H21967   7.749  -1.073  10.149 -0.4653  1.4789  1.1333
  163MOL0     H21968   7.794  -1.308  10.034 -0.1712  1.6674 -1.1190
  163MOL0     H21969   7.864  -1.596  10.249  3.9203 -2.7385 -3.1024
  163MOL0     H21970   7.705  -1.662  10.268 -0.1713 -0.8648 -1.6603
  163MOL0     H21971   7.926  -1.790  10.168 -1.4369 -1.7841  0.7153
  163MOL0     H21972   7.774  -1.831  10.089 -1.3933  0.6588 -2.7968
  163MOL0     H21973   7.958  -1.783   9.922  0.7118  3.3425 -3.8668
  163MOL0     H21974   7.828  -1.667   9.918 -2.6767 -0.8220  3.0862
  163MOL0     H21975   8.117  -1.664  10.035 -1.2273 -2.2514  0.4893
  163MOL0     H21976   8.006  -1.523  10.071 -2.0640 -0.7977 -0.2688
  163MOL0     H21977   8.085  -1.618   9.796 -1.0981 -0.8813  0.8231
  163MOL0     H21978   8.173  -1.486   9.889  0.1669  0.2176  0.5892
  163MOL0     H21979   7.885  -1.469   9.806  0.0649  0.1028 -1.3766
  163MOL0     H21980   7.965  -1.349   9.906 -2.3190 -0.1334  0.4184
  163MOL0     H21981   8.150  -1.339   9.707  0.1423  0.8928  3.4016
  163MOL0     H21982   7.988  -1.268   9.671 -1.7911 -0.2717  1.0419
  163MOL0     H21983   8.074  -1.406   9.491 -2.2379  0.2609 -0.1991
  163MOL0     H21984   8.068  -1.548   9.594 -2.5199 -0.3574  2.9678
  163MOL0     H21985   7.584  -1.503  10.354 -0.4414  0.3727 -0.4781
  163MOL0     H21986   7.549  -1.259  10.460 -2.0602  0.4196 -1.5832
  163MOL0     H21987   7.370  -0.769  10.192 -2.1116  0.7568  2.9704
  163MOL0     H21988   7.393  -0.526  10.202 -2.5449 -2.8671 -0.4525
  163MOL0     H21989   8.351   0.799   9.404  1.0719  1.6771 -0.8157
  163MOL0     H21990   8.219   0.898   9.219  0.9239  2.9778 -1.3150
  163MOL0     H21991   8.242   0.981   8.733  0.3943  1.4218 -3.3592
  163MOL0     H21992   8.092   1.090   8.571  0.9769 -1.8244  0.0513
  163MOL0     H21993   7.799   1.198   8.383  2.8388  0.3570 -3.7496
  163MOL0     H21994   7.957   1.148   8.402 -0.0458  0.4043 -1.1254
  163MOL0     H21995   7.948   1.273   8.641 -0.1803 -1.3436  0.7641
  163MOL0     H21996   7.794   1.309   8.614  1.1367 -2.5735  2.2073
  163MOL0     H21997   7.845   1.501   8.522 -1.6179 -0.6514  0.2178
  163MOL0     H21998   7.879   1.389   8.379 -2.3259 -1.2626  1.7729
  163MOL0     H21999   8.080   1.526   8.401 -2.2842 -0.3770  0.0198
  163MOL0     H22000   8.090   1.514   8.571  2.5462  1.0056 -0.2937
  163MOL0     H22001   8.330   1.211   8.406  1.7158  1.5505  1.4908
  163MOL0     H22002   7.756   0.875   8.713 -0.1174 -0.6625 -1.2032
  163MOL0     H22003   7.898   0.653   8.910  0.2966  0.9035  2.2208
  163MOL0     H22004   7.866   0.803   9.005  0.1812  1.5430 -0.2212
  163MOL0     H22005   7.766   0.719   8.872  1.2365 -2.7280 -1.1783
  164MOL0     O22006   6.046   4.770   1.754 -0.8032 -0.2114  0.3553
  164MOL0     C22007   5.982   4.776   1.859  0.3004  0.3160  0.5126
  164MOL0     O22008   5.954   4.670   1.938  0.4769  0.9455  0.3133
  164MOL0     C22009   5.996   4.538   1.912  0.1584 -0.5845 -0.6241
  164MOL0     C22010   5.920   4.460   1.830  0.6180  0.3150  0.3336
  164MOL0     C22011   5.950   4.329   1.804 -0.0414  0.1829  0.3159
  164MOL0     C22012   6.056   4.264   1.884  1.6500 -0.0160  1.2429
  164MOL0     O22013   6.077   4.133   1.846  0.0495 -0.2451 -0.1229
  164MOL0     C22014   6.210   4.087   1.860 -0.1492  0.1981 -0.0372
  164MOL0     C22015   6.224   3.954   1.791  0.4899 -0.0910 -0.4395
  164MOL0     C22016   6.143   3.855   1.862  0.0267  0.2203 -0.0637
  164MOL0     C22017   6.155   3.734   1.756 -0.3690  0.1120  0.8671
  164MOL0     C22018   6.037   3.639   1.784 -0.0570  0.1362 -0.4640
  164MOL0     C22019   5.901   3.711   1.743  0.1941 -0.4388 -0.2539
  164MOL0     C22020   5.788   3.601   1.707  0.4438  0.2118  0.2883
  164MOL0     C22021   5.652   3.647   1.751  0.5451 -0.2990  0.2875
  164MOL0     N22022   5.567   3.619   1.638  0.6355  0.3558 -0.3369
  164MOL0     C22023   5.499   3.708   1.556  0.6906  0.0189  0.5428
  164MOL0     C22024   5.453   3.636   1.459 -0.1236 -0.1132 -0.0510
  164MOL0     C22025   5.372   3.677   1.330 -0.4548  0.0236 -0.7605
  164MOL0     C22026   5.241   3.592   1.311 -0.3293 -0.4146 -0.3587
  164MOL0     C22027   5.139   3.570   1.420  0.1030  0.3404 -1.0831
  164MOL0     C22028   5.049   3.692   1.449 -0.3465 -0.2029  0.7243
  164MOL0     O22029   5.136   3.807   1.460  0.4244 -0.4628  0.4218
  164MOL0     C22030   5.073   3.925   1.433 -0.1828 -0.5614 -0.5838
  164MOL0     C22031   4.958   3.964   1.486  0.1473  0.0173 -0.4828
  164MOL0     C22032   4.900   4.081   1.436  1.0108  0.3038 -0.3794
  164MOL0     C22033   4.957   4.156   1.334  0.2242 -0.3317  0.8581
  164MOL0     C22034   4.895   4.277   1.277  0.1076 -0.7628 -1.0287
  164MOL0     O22035   4.970   4.364   1.199 -0.2993  0.2763 -0.5915
  164MOL0     C22036   4.922   4.489   1.177  0.9274  0.3192 -0.0676
  164MOL0     C22037   4.807   4.521   1.106  1.3621 -0.1734  0.5090
  164MOL0     C22038   4.779   4.648   1.071  0.8710  0.7825 -0.1302
  164MOL0     C22039   4.861   4.751   1.110 -0.1209 -0.3387  0.6611
  164MOL0     O22040   4.838   4.890   1.095 -0.4078  0.0071  0.8007
  164MOL0     C22041   4.703   4.925   1.127  0.3683 -0.9875  0.1074
  164MOL0     C22042   4.707   5.082   1.133 -0.4055 -0.2297 -0.2533
  164MOL0     C22043   4.559   5.141   1.145  0.4682  1.2244  0.9112
  164MOL0     C22044   4.573   5.293   1.150 -0.1910  0.0966 -0.6632
  164MOL0     C22045   4.436   5.361   1.154 -0.4758 -0.5619 -0.4556
  164MOL0     C22046   4.449   5.513   1.129  0.8358 -0.1917  0.0888
  164MOL0     C22047   4.518   5.600   1.225 -0.2009 -1.1153 -0.0213
  164MOL0     C22048   4.455   5.610   1.367  0.1310 -0.7717  0.6455
  164MOL0    Cl22049   4.322   5.727   1.362  0.1155 -0.0542  0.3603
  164MOL0     C22050   4.982   4.723   1.169  0.1253 -0.5042 -0.1687
  164MOL0     C22051   5.006   4.594   1.204 -0.9818  0.4258 -0.5379
  164MOL0     O22052   4.781   4.301   1.326 -0.0629  0.3132  0.7794
  164MOL0     C22053   5.075   4.107   1.272  0.0370 -0.1063 -0.5521
  164MOL0     C22054   5.131   3.993   1.322  0.2737 -0.3039  0.8645
  164MOL0     N22055   5.481   3.505   1.478  0.0485  0.8385  0.8295
  164MOL0     N22056   5.551   3.495   1.586 -0.1575  0.5830  0.5176
  164MOL0     C22057   6.132   4.349   1.962 -1.1506 -0.7859  0.0613
  164MOL0     C22058   6.110   4.490   1.976  0.1284  0.3765 -0.2925
  164MOL0     C22059   5.934   4.913   1.909  0.1077  0.6804 -0.1769
  164MOL0     C22060   5.922   5.014   1.811 -0.4475  0.9867  0.3264
  164MOL0     C22061   5.874   5.142   1.852  0.7064  0.0439  0.6789
  164MOL0     C22062   5.813   5.166   1.979 -0.9989  0.7410 -0.9753
  164MOL0     O22063   5.764   5.281   2.020  0.4362  0.1402 -0.5331
  164MOL0     C22064   5.726   5.385   1.926 -0.0533  0.0600  0.2319
  164MOL0     C22065   5.600   5.339   1.863  0.0408  0.0398  0.3287
  164MOL0     C22066   5.536   5.464   1.782  0.8697  0.6488 -0.1192
  164MOL0     C22067   5.426   5.516   1.871  0.5763  0.2074 -0.1792
  164MOL0     C22068   5.296   5.460   1.815  0.3147 -0.1866 -1.3543
  164MOL0     C22069   5.194   5.429   1.760  0.3257 -0.2371 -0.1239
  164MOL0     C22070   5.818   5.057   2.068 -0.3031 -1.3412 -0.2594
  164MOL0     C22071   5.880   4.936   2.043 -0.0249  0.4963 -0.4247
  164MOL0     C22072   5.863   4.818   2.147 -0.3338 -0.5064 -0.0739
  164MOL0     H22073   5.839   4.510   1.778  0.2971 -0.6866 -0.1439
  164MOL0     H22074   5.907   4.279   1.718  2.6937  2.7133 -2.8038
  164MOL0     H22075   6.283   4.157   1.819  0.2793  1.3438  2.4678
  164MOL0     H22076   6.242   4.075   1.964 -2.8401 -2.0820  0.6418
  164MOL0     H22077   6.328   3.920   1.799  0.8190  1.1237  0.7932
  164MOL0     H22078   6.198   3.956   1.685 -1.5425 -1.1738 -0.0026
  164MOL0     H22079   6.041   3.895   1.856 -0.0283  0.2069  0.6412
  164MOL0     H22080   6.158   3.831   1.968 -3.5520 -2.7963 -0.0625
  164MOL0     H22081   6.145   3.774   1.655 -1.0634 -1.7220  0.1799
  164MOL0     H22082   6.251   3.682   1.761 -1.7418 -2.6486  0.7178
  164MOL0     H22083   6.058   3.558   1.714  1.9887 -0.3138  0.5977
  164MOL0     H22084   6.048   3.611   1.890  3.8587  2.0617 -0.2062
  164MOL0     H22085   5.873   3.780   1.824  3.5576  1.0587 -0.1725
  164MOL0     H22086   5.918   3.774   1.655  2.7531 -1.5492 -0.6526
  164MOL0     H22087   5.827   3.508   1.749  1.3065 -0.7082 -2.2922
  164MOL0     H22088   5.796   3.582   1.599 -2.2993 -1.4075  0.2960
  164MOL0     H22089   5.612   3.597   1.840  3.0810 -1.9409  0.6211
  164MOL0     H22090   5.650   3.755   1.768 -0.6595 -0.4308  1.1439
  164MOL0     H22091   5.486   3.814   1.578  0.1227 -0.8510  5.4820
  164MOL0     H22092   5.336   3.780   1.337  0.1979  0.1900  0.1613
  164MOL0     H22093   5.438   3.672   1.243 -1.1834  1.6538 -1.4540
  164MOL0     H22094   5.192   3.636   1.223 -0.6666  1.2859  0.6356
  164MOL0     H22095   5.275   3.494   1.279  0.2815 -0.8667  1.5566
  164MOL0     H22096   5.197   3.533   1.505  0.1289 -0.6658 -1.5151
  164MOL0     H22097   5.076   3.484   1.394  2.9878 -2.2805 -0.0410
  164MOL0     H22098   5.005   3.680   1.548  1.5980  2.4578  2.0491
  164MOL0     H22099   4.975   3.710   1.371 -0.4099 -0.3580  0.7489
  164MOL0     H22100   4.905   3.913   1.565 -1.4308  3.0753  0.6271
  164MOL0     H22101   4.803   4.099   1.480  1.2476 -1.5471  1.0383
  164MOL0     H22102   4.736   4.443   1.079  0.2753  1.4508 -1.6418
  164MOL0     H22103   4.697   4.660   1.001  0.6623  0.4927  0.0581
  164MOL0     H22104   4.641   4.909   1.038  0.2677 -0.5004  0.0874
  164MOL0     H22105   4.664   4.877   1.217 -1.7663 -2.2027 -1.3688
  164MOL0     H22106   4.762   5.106   1.224 -0.3843 -1.9216  0.2142
  164MOL0     H22107   4.758   5.124   1.046 -3.0434  0.2729 -1.6838
  164MOL0     H22108   4.495   5.103   1.065  1.6561  2.9594 -0.9716
  164MOL0     H22109   4.514   5.110   1.240 -1.6415 -0.5205 -0.5522
  164MOL0     H22110   4.612   5.327   1.053  0.3537  0.9795 -0.1465
  164MOL0     H22111   4.634   5.320   1.237 -1.2510 -0.1534  0.1704
  164MOL0     H22112   4.389   5.344   1.252  0.3389 -1.2244 -0.1699
  164MOL0     H22113   4.370   5.323   1.076 -2.3824  0.4061  0.6089
  164MOL0     H22114   4.497   5.532   1.033  0.9780  0.5998  0.3086
  164MOL0     H22115   4.348   5.551   1.118  0.7183 -0.7061 -0.7224
  164MOL0     H22116   4.517   5.698   1.176 -0.9973 -0.4769  1.2175
  164MOL0     H22117   4.626   5.585   1.234  0.3969  1.1233 -2.3635
  164MOL0     H22118   4.414   5.513   1.395  1.0122 -1.2578  0.2888
  164MOL0     H22119   4.536   5.633   1.437 -0.2055 -4.2514  2.3884
  164MOL0     H22120   5.049   4.798   1.211  2.5410 -1.8907 -1.3516
  164MOL0     H22121   5.093   4.572   1.264 -0.6388  1.5150 -0.6176
  164MOL0     H22122   5.131   4.162   1.197  4.0167 -2.2360  0.5520
  164MOL0     H22123   5.228   3.965   1.284 -0.4855 -1.8128 -0.0772
  164MOL0     H22124   6.213   4.307   2.021 -1.7412 -1.6455  0.2787
  164MOL0     H22125   6.165   4.544   2.053  0.3028  1.5757 -1.2089
  164MOL0     H22126   5.954   4.996   1.709 -0.6871  1.4193  0.1714
  164MOL0     H22127   5.884   5.221   1.779  2.5145 -0.2680  0.5288
  164MOL0     H22128   5.803   5.398   1.849 -1.9389  1.1649 -1.5606
  164MOL0     H22129   5.723   5.487   1.966  0.2597  1.2051 -2.4189
  164MOL0     H22130   5.542   5.302   1.949 -1.7821 -0.6128 -1.0903
  164MOL0     H22131   5.617   5.257   1.792 -2.4126 -1.0271  0.8629
  164MOL0     H22132   5.494   5.429   1.688 -1.6525 -0.2698  1.2690
  164MOL0     H22133   5.607   5.544   1.757  1.0544  1.0357  1.5077
  164MOL0     H22134   5.415   5.473   1.970  1.7451  2.0367  0.8090
  164MOL0     H22135   5.424   5.626   1.863 -1.5453  0.0861 -4.3614
  164MOL0     H22136   5.097   5.415   1.719 -0.3722 -0.7033  1.5947
  164MOL0     H22137   5.767   5.088   2.158 -1.7497 -1.0477 -1.1468
  164MOL0     H22138   5.809   4.738   2.095 -0.6318  1.1435 -2.4549
  164MOL0     H22139   5.963   4.787   2.179 -1.2247 -1.0727  2.3932
  164MOL0     H22140   5.800   4.855   2.228 -1.0051 -0.5088 -0.5807
  165MOL0     O22141   5.344   1.352   8.168  0.1969 -0.3936  0.6970
  165MOL0     C22142   5.395   1.435   8.244 -0.3099  0.0537  0.8489
  165MOL0     O22143   5.359   1.571   8.246  0.0902  0.1938  0.6107
  165MOL0     C22144   5.320   1.628   8.132  0.1012  0.5805  0.6941
  165MOL0     C22145   5.395   1.606   8.010 -0.7775 -0.4935  0.5220
  165MOL0     C22146   5.374   1.683   7.894 -0.0118  0.6289 -0.7831
  165MOL0     C22147   5.256   1.757   7.891 -0.1772 -0.1987 -0.2777
  165MOL0     O22148   5.222   1.804   7.767  0.8335  0.5507 -0.1740
  165MOL0     C22149   5.195   1.934   7.753  0.8673 -0.0113 -0.5263
  165MOL0     C22150   5.317   1.996   7.676  0.1847  0.7778  0.2414
  165MOL0     C22151   5.314   2.145   7.654  0.5948 -0.0537  0.5418
  165MOL0     C22152   5.212   2.205   7.550 -0.9860 -0.8141  0.4401
  165MOL0     C22153   5.213   2.113   7.423  0.0186 -0.3739  0.8387
  165MOL0     C22154   5.347   2.125   7.341  0.2024 -0.4859  0.1654
  165MOL0     C22155   5.399   2.264   7.286 -0.2243 -0.1181 -1.0862
  165MOL0     C22156   5.520   2.239   7.186 -1.4556  0.0715 -0.8127
  165MOL0     N22157   5.595   2.353   7.138 -0.2159 -0.3954  0.4748
  165MOL0     C22158   5.684   2.329   7.032  0.2207 -0.5666 -1.1268
  165MOL0     C22159   5.760   2.436   7.044 -0.2531  0.4660  0.0362
  165MOL0     C22160   5.863   2.460   6.937 -0.1091  0.0053 -0.5648
  165MOL0     C22161   5.823   2.420   6.796  0.0272  0.6412  0.3179
  165MOL0     C22162   5.697   2.502   6.746  0.4984 -0.4360 -0.2557
  165MOL0     C22163   5.630   2.444   6.622 -0.1834 -0.1765 -0.6390
  165MOL0     O22164   5.581   2.314   6.652 -0.1261  0.4405  0.9786
  165MOL0     C22165   5.661   2.205   6.617 -1.3312  0.2306 -0.8526
  165MOL0     C22166   5.613   2.086   6.666 -0.8248  0.2908 -0.3448
  165MOL0     C22167   5.664   1.963   6.620 -0.0608  0.5045  0.9330
  165MOL0     C22168   5.774   1.970   6.525 -0.8830 -0.4197  0.3737
  165MOL0     C22169   5.827   1.836   6.465  0.5310 -0.3937  0.4309
  165MOL0     O22170   5.759   1.719   6.485 -0.0311 -0.9853 -0.4177
  165MOL0     C22171   5.840   1.606   6.472  0.1326 -0.2240 -0.6485
  165MOL0     C22172   5.920   1.563   6.586 -0.7013 -0.6678  0.8236
  165MOL0     C22173   5.997   1.452   6.565 -0.0018 -0.6829  0.0523
  165MOL0     C22174   5.986   1.383   6.442  0.1447 -0.3487 -0.2730
  165MOL0     O22175   6.051   1.262   6.422  0.4772  1.0855  0.1127
  165MOL0     C22176   6.125   1.195   6.525 -0.0620 -1.1638  0.0852
  165MOL0     C22177   6.043   1.083   6.583 -0.0280 -0.1660 -0.1516
  165MOL0     C22178   6.123   0.981   6.670  0.3141 -0.3238 -0.7048
  165MOL0     C22179   6.026   0.889   6.751  1.5460 -0.1152  0.3108
  165MOL0     C22180   6.090   0.841   6.884  0.3312 -0.1926  0.7802
  165MOL0     C22181   6.060   0.687   6.895  0.0601 -0.0268  0.2408
  165MOL0     C22182   6.136   0.625   7.018 -0.0580 -0.1932 -0.2457
  165MOL0     C22183   6.214   0.512   6.965  0.1798  0.4519  0.3286
  165MOL0    Cl22184   6.118   0.369   6.942  0.3241  0.3897 -0.0961
  165MOL0     C22185   5.911   1.432   6.335 -0.1199  0.4065  0.0619
  165MOL0     C22186   5.840   1.549   6.344 -0.7095 -1.0316  0.4225
  165MOL0     O22187   5.920   1.856   6.387 -0.6048  0.7113 -0.3186
  165MOL0     C22188   5.819   2.091   6.475 -0.1946  0.5316 -0.5810
  165MOL0     C22189   5.763   2.207   6.523 -0.8971  0.4552  1.3793
  165MOL0     N22190   5.730   2.511   7.154  0.3262 -0.3387  0.0879
  165MOL0     N22191   5.637   2.451   7.217 -0.5748 -0.8382 -0.1085
  165MOL0     C22192   5.175   1.766   8.006 -1.3353  0.2713  0.2240
  165MOL0     C22193   5.205   1.708   8.127 -0.4318  0.6976 -0.5109
  165MOL0     C22194   5.485   1.376   8.345 -0.2147  0.7225  0.6807
  165MOL0     C22195   5.499   1.446   8.470  0.7762  0.0852  1.1930
  165MOL0     C22196   5.581   1.396   8.567  0.4024  0.7847  1.1937
  165MOL0     C22197   5.646   1.276   8.551  0.0668  0.1021 -0.1294
  165MOL0     O22198   5.709   1.217   8.661  0.6440 -0.0179  0.3361
  165MOL0     C22199   5.631   1.138   8.756  0.0456  0.6057 -1.2038
  165MOL0     C22200   5.724   1.097   8.875  0.5243  0.5248  0.3732
  165MOL0     C22201   5.773   1.221   8.961  0.2385 -0.0823  0.3845
  165MOL0     C22202   5.655   1.283   9.045  0.2266  0.3135 -0.4523
  165MOL0     C22203   5.700   1.410   9.109 -0.1603  0.0114  0.6338
  165MOL0     C22204   5.748   1.517   9.144  0.8780 -0.8194 -0.0741
  165MOL0     C22205   5.627   1.196   8.435 -0.1018 -0.2919 -0.9682
  165MOL0     C22206   5.552   1.248   8.326 -0.5364 -0.2504 -0.7498
  165MOL0     C22207   5.555   1.173   8.193 -0.4074  1.1442  0.8687
  165MOL0     H22208   5.482   1.542   8.003 -0.4005  0.1196 -0.8961
  165MOL0     H22209   5.443   1.675   7.811  1.0840 -0.1076  0.1811
  165MOL0     H22210   5.101   1.942   7.697  1.2907  0.7005 -1.1467
  165MOL0     H22211   5.181   1.991   7.846  0.3964  1.3235 -1.3832
  165MOL0     H22212   5.329   1.941   7.582 -2.2174  0.8078 -0.1679
  165MOL0     H22213   5.392   1.955   7.744  0.7027  1.7882  0.2808
  165MOL0     H22214   5.415   2.164   7.617  0.8683 -3.4857 -0.8372
  165MOL0     H22215   5.320   2.203   7.746 -1.7180  0.9917  0.1014
  165MOL0     H22216   5.109   2.212   7.586 -0.2294  2.8563  2.4452
  165MOL0     H22217   5.243   2.308   7.529  0.5929 -1.4896 -0.8009
  165MOL0     H22218   5.197   2.008   7.449 -0.6839 -0.9957 -1.8454
  165MOL0     H22219   5.130   2.145   7.359  0.6084  1.2784  0.8693
  165MOL0     H22220   5.432   2.077   7.391  2.6484  1.5477 -1.7522
  165MOL0     H22221   5.332   2.057   7.256 -2.3649  0.3427 -0.1217
  165MOL0     H22222   5.434   2.336   7.361 -1.6047  0.9666 -1.4618
  165MOL0     H22223   5.313   2.308   7.236 -2.4819 -4.5365 -1.5218
  165MOL0     H22224   5.593   2.173   7.235 -2.8079 -2.1694 -1.6655
  165MOL0     H22225   5.482   2.189   7.096 -0.7577 -1.2399 -0.4147
  165MOL0     H22226   5.689   2.253   6.954  1.8188 -3.2020  1.3538
  165MOL0     H22227   5.901   2.562   6.952 -2.9183  0.7739  2.4098
  165MOL0     H22228   5.940   2.385   6.957 -1.6318 -0.9472  2.2413
  165MOL0     H22229   5.915   2.450   6.744  1.0965  1.2461  2.4245
  165MOL0     H22230   5.810   2.312   6.783 -0.6637  1.0578 -3.4755
  165MOL0     H22231   5.726   2.606   6.728  2.0702 -0.4647  1.7609
  165MOL0     H22232   5.623   2.504   6.826  0.7595  2.7577  0.0174
  165MOL0     H22233   5.698   2.458   6.537  2.7881 -1.6290  1.2998
  165MOL0     H22234   5.544   2.503   6.589  0.2884  1.2406  0.5503
  165MOL0     H22235   5.524   2.077   6.727 -0.3455 -0.1081  0.3125
  165MOL0     H22236   5.627   1.867   6.655  4.1329 -1.0397  1.7130
  165MOL0     H22237   5.917   1.617   6.680 -2.1997  1.6340 -0.4628
  165MOL0     H22238   6.063   1.422   6.645 -0.5641  1.4067  1.3859
  165MOL0     H22239   6.203   1.137   6.475  0.5045 -0.1616 -0.2026
  165MOL0     H22240   6.177   1.251   6.603  0.6599  3.5943 -3.3605
  165MOL0     H22241   5.967   1.129   6.647  2.4570  0.5638  2.4744
  165MOL0     H22242   5.998   1.023   6.504  0.5784  2.6543 -2.8208
  165MOL0     H22243   6.186   0.923   6.601  1.4993 -0.4027  0.4043
  165MOL0     H22244   6.190   1.037   6.735 -1.6056 -0.1376  1.2305
  165MOL0     H22245   5.994   0.804   6.691  1.6209 -0.4151  0.6891
  165MOL0     H22246   5.931   0.938   6.774  0.8730 -1.7938  1.2868
  165MOL0     H22247   6.054   0.898   6.970 -0.8952 -2.9717  2.2655
  165MOL0     H22248   6.196   0.860   6.868  0.8755 -1.6017  2.4310
  165MOL0     H22249   5.955   0.659   6.909 -0.2030  1.3364  1.2400
  165MOL0     H22250   6.096   0.640   6.803  0.3717 -1.3753  1.0191
  165MOL0     H22251   6.063   0.592   7.092 -0.1106 -1.0266 -0.6607
  165MOL0     H22252   6.200   0.702   7.063  1.7227 -1.3924 -0.5984
  165MOL0     H22253   6.269   0.541   6.875  0.2909 -0.6868  0.0142
  165MOL0     H22254   6.290   0.496   7.041  0.9787  3.1288  0.1941
  165MOL0     H22255   5.897   1.375   6.244 -2.0357  0.0083  0.5668
  165MOL0     H22256   5.786   1.596   6.263  0.2655  0.8693  0.8122
  165MOL0     H22257   5.884   2.107   6.390  2.2003  4.0482  1.6480
  165MOL0     H22258   5.791   2.302   6.478  0.2927 -0.5650 -0.1105
  165MOL0     H22259   5.081   1.820   8.004 -0.0253  2.6761  0.6747
  165MOL0     H22260   5.133   1.724   8.206 -1.0568 -1.1358 -0.6638
  165MOL0     H22261   5.445   1.539   8.478 -0.0193 -0.1299 -1.1293
  165MOL0     H22262   5.587   1.455   8.658  0.5432  0.5349  1.3465
  165MOL0     H22263   5.584   1.052   8.709 -2.0992  1.0930 -0.0718
  165MOL0     H22264   5.547   1.186   8.807 -1.3682 -2.6397 -0.1722
  165MOL0     H22265   5.817   1.071   8.824  0.8404 -0.5510  1.4673
  165MOL0     H22266   5.703   1.012   8.941 -0.0001 -0.4499 -1.0074
  165MOL0     H22267   5.806   1.298   8.891 -2.2742  2.2927  1.6157
  165MOL0     H22268   5.854   1.195   9.030  1.8997 -2.9408 -2.4294
  165MOL0     H22269   5.576   1.320   8.979 -1.2596  1.4161  1.8114
  165MOL0     H22270   5.609   1.210   9.111  0.2503  1.1509  0.5141
  165MOL0     H22271   5.798   1.609   9.167  1.2760 -1.3062  1.0730
  165MOL0     H22272   5.676   1.100   8.427 -1.0993 -0.7536 -1.7302
  165MOL0     H22273   5.463   1.122   8.163  1.0519 -0.0524 -1.9044
  165MOL0     H22274   5.578   1.244   8.113 -0.0108  0.3502  0.2667
  165MOL0     H22275   5.624   1.088   8.198  1.4094  2.1974 -2.9412
  166MOL0     O22276   8.587   3.281   2.718  0.4401 -0.2753  0.6910
  166MOL0     C22277   8.664   3.229   2.632 -0.0878 -0.0689  0.1478
  166MOL0     O22278   8.624   3.140   2.534  0.6113  0.1626 -0.1221
  166MOL0     C22279   8.490   3.095   2.535 -0.3967 -0.6541 -0.1286
  166MOL0     C22280   8.475   2.962   2.523  0.2113 -0.4138  0.0750
  166MOL0     C22281   8.351   2.895   2.508 -0.1849 -0.4881  0.2036
  166MOL0     C22282   8.236   2.973   2.501 -0.4662  0.3164  1.1147
  166MOL0     O22283   8.127   2.897   2.473 -0.5196 -0.1102  0.5216
  166MOL0     C22284   7.999   2.951   2.514 -0.2219  0.6757 -0.6775
  166MOL0     C22285   7.871   2.864   2.467  0.4967  0.4556 -0.3410
  166MOL0     C22286   7.866   2.736   2.541  0.8421  0.4680 -0.3715
  166MOL0     C22287   7.731   2.666   2.526  0.3261  0.3314  0.1537
  166MOL0     C22288   7.699   2.605   2.390  0.1927 -0.1416  0.4965
  166MOL0     C22289   7.591   2.504   2.385 -0.1611  0.5550 -0.5825
  166MOL0     C22290   7.587   2.420   2.262  0.3742 -0.0075  0.1524
  166MOL0     C22291   7.596   2.496   2.130 -0.0715 -0.0442  0.0412
  166MOL0     N22292   7.534   2.414   2.022 -0.8382  0.3653  0.7040
  166MOL0     C22293   7.416   2.461   1.948 -0.7057  0.7037 -0.6298
  166MOL0     C22294   7.369   2.341   1.901 -0.7101  0.4055 -0.1326
  166MOL0     C22295   7.239   2.318   1.840 -0.4218  0.3634  1.2828
  166MOL0     C22296   7.155   2.448   1.828  0.4420  0.4999  0.2753
  166MOL0     C22297   7.031   2.423   1.750  0.0848  0.6656  0.3026
  166MOL0     C22298   6.949   2.545   1.736  0.8757  0.2128 -0.4683
  166MOL0     O22299   6.886   2.545   1.862 -0.5844  0.3885 -0.7386
  166MOL0     C22300   6.792   2.643   1.889  0.7113  0.7629 -0.0598
  166MOL0     C22301   6.741   2.649   2.019  0.0150 -0.2470  0.2219
  166MOL0     C22302   6.653   2.749   2.065 -1.0229 -0.0867  0.2130
  166MOL0     C22303   6.609   2.851   1.975  0.1725 -0.1434  0.2632
  166MOL0     C22304   6.523   2.958   2.030  0.0339 -0.5539 -0.7478
  166MOL0     O22305   6.516   3.070   1.957  0.1195  0.2174 -0.0134
  166MOL0     C22306   6.439   3.179   1.991 -1.0143  0.5295  0.3315
  166MOL0     C22307   6.339   3.198   2.095 -0.0400 -1.6622 -0.0845
  166MOL0     C22308   6.284   3.327   2.115 -0.4789 -0.1434  0.1117
  166MOL0     C22309   6.326   3.435   2.043 -0.4889  0.0282  0.1252
  166MOL0     O22310   6.297   3.573   2.063  0.7250 -0.0826  0.7805
  166MOL0     C22311   6.234   3.615   2.185  0.1370 -0.6451  0.5388
  166MOL0     C22312   6.083   3.620   2.179  0.7914  0.8016  1.1853
  166MOL0     C22313   6.031   3.613   2.328  0.1255  0.2314 -0.4719
  166MOL0     C22314   5.878   3.651   2.328 -0.1979  0.3183 -0.0289
  166MOL0     C22315   5.822   3.638   2.473 -0.2537  0.8760 -0.3717
  166MOL0     C22316   5.705   3.734   2.506  0.4783 -0.2306 -0.3897
  166MOL0     C22317   5.752   3.884   2.496  0.6470  0.4352  0.2779
  166MOL0     C22318   5.873   3.915   2.593 -0.1966 -0.4153 -0.8839
  166MOL0    Cl22319   5.864   3.889   2.776 -0.1037  0.4131  0.5193
  166MOL0     C22320   6.416   3.414   1.932 -0.7454  0.6289  0.3523
  166MOL0     C22321   6.470   3.284   1.901  0.2545  0.9139 -0.0516
  166MOL0     O22322   6.476   2.946   2.146  0.2968 -0.2148  0.1967
  166MOL0     C22323   6.661   2.849   1.841 -0.1527 -0.5454  0.0835
  166MOL0     C22324   6.747   2.735   1.791  1.4299 -0.8723 -0.0131
  166MOL0     N22325   7.457   2.238   1.922  1.3813  0.1970  0.7323
  166MOL0     N22326   7.565   2.284   1.988  0.1436 -0.8870 -0.0181
  166MOL0     C22327   8.251   3.114   2.507  0.1376 -0.5100  0.2651
  166MOL0     C22328   8.377   3.179   2.528 -0.5954 -0.1423 -0.3219
  166MOL0     C22329   8.804   3.285   2.611  0.9473 -0.0564  1.0848
  166MOL0     C22330   8.854   3.274   2.472 -0.2257  0.1887 -1.0124
  166MOL0     C22331   8.966   3.352   2.444 -0.1986  0.0507 -0.3256
  166MOL0     C22332   9.053   3.399   2.538 -1.4205  0.2248  0.3306
  166MOL0     O22333   9.177   3.439   2.489 -0.7504 -0.1137 -0.8911
  166MOL0     C22334   9.278   3.474   2.584 -0.0133 -0.3119 -0.4454
  166MOL0     C22335   9.353   3.354   2.647 -0.0258 -0.3585 -0.9599
  166MOL0     C22336   9.378   3.239   2.558  0.4889  0.6640  0.4222
  166MOL0     C22337   9.451   3.277   2.432 -0.0211  0.1193 -1.3776
  166MOL0     C22338   9.449   3.157   2.358 -0.6675  1.7003 -0.2157
  166MOL0     C22339   9.438   3.055   2.294  0.7187  0.2821  0.8449
  166MOL0     C22340   9.018   3.378   2.671  1.0018 -0.0829 -0.2801
  166MOL0     C22341   8.889   3.334   2.707 -0.0025 -0.3404 -0.3822
  166MOL0     C22342   8.852   3.331   2.863 -0.6680  0.0175 -1.0216
  166MOL0     H22343   8.568   2.908   2.511  1.4615  1.7045 -0.0572
  166MOL0     H22344   8.325   2.790   2.499 -2.0836 -0.0595  0.1251
  166MOL0     H22345   7.987   2.960   2.623  0.2776 -2.6096 -0.2522
  166MOL0     H22346   7.975   3.049   2.472  1.2670  0.1981 -2.7982
  166MOL0     H22347   7.878   2.852   2.358  1.1283  1.6450 -0.4442
  166MOL0     H22348   7.778   2.918   2.488  1.4096  1.4055  1.4189
  166MOL0     H22349   7.891   2.752   2.646  1.8588 -3.2657  0.1055
  166MOL0     H22350   7.941   2.671   2.493 -0.2665  0.0928 -1.6680
  166MOL0     H22351   7.710   2.588   2.600 -4.0826  0.6071 -0.5133
  166MOL0     H22352   7.650   2.737   2.548  2.4061  2.4771  1.3476
  166MOL0     H22353   7.680   2.685   2.317  2.1061  0.2334  0.3455
  166MOL0     H22354   7.797   2.571   2.357  0.3703  0.4423  0.4140
  166MOL0     H22355   7.601   2.431   2.466  0.7783 -0.8581 -1.9049
  166MOL0     H22356   7.498   2.561   2.393  0.3543  1.3717 -0.2895
  166MOL0     H22357   7.492   2.365   2.268 -0.3768  0.4747 -4.0368
  166MOL0     H22358   7.666   2.345   2.259  2.0120  1.6093 -3.2547
  166MOL0     H22359   7.553   2.596   2.131  0.4138  0.1773 -0.6577
  166MOL0     H22360   7.703   2.509   2.113 -0.2382 -0.9470 -1.9463
  166MOL0     H22361   7.377   2.561   1.962 -1.3348  0.0992  3.0713
  166MOL0     H22362   7.257   2.265   1.746 -0.9903 -1.4088  2.1240
  166MOL0     H22363   7.179   2.244   1.895  2.1010 -1.5839  1.5600
  166MOL0     H22364   7.120   2.481   1.926 -0.8725  0.0423 -0.0104
  166MOL0     H22365   7.210   2.535   1.790  0.6498 -0.1523 -0.9475
  166MOL0     H22366   6.975   2.338   1.791  1.0951 -0.7822 -1.2010
  166MOL0     H22367   7.057   2.401   1.646 -2.8954  0.4474 -0.5011
  166MOL0     H22368   6.883   2.537   1.649  0.0267  1.6868  0.0098
  166MOL0     H22369   7.023   2.622   1.718 -0.3481  1.0756 -2.0403
  166MOL0     H22370   6.778   2.586   2.099 -0.4690 -1.7517 -0.7151
  166MOL0     H22371   6.637   2.744   2.172  2.7224 -1.7682  0.8612
  166MOL0     H22372   6.319   3.125   2.173 -1.5394  1.2149  2.4206
  166MOL0     H22373   6.200   3.337   2.184 -1.0661  0.3087 -0.6451
  166MOL0     H22374   6.273   3.559   2.271 -0.2754 -0.5618  0.7820
  166MOL0     H22375   6.262   3.720   2.196  1.5785 -1.1084  1.7485
  166MOL0     H22376   6.043   3.710   2.131 -1.1710 -0.6335 -0.0412
  166MOL0     H22377   6.044   3.538   2.118 -1.4204  2.7736 -0.2805
  166MOL0     H22378   6.055   3.519   2.379 -0.2110 -0.7257 -2.0122
  166MOL0     H22379   6.086   3.678   2.397  1.1640 -1.2407  0.1469
  166MOL0     H22380   5.827   3.583   2.259  0.3395  0.4452 -0.5557
  166MOL0     H22381   5.866   3.746   2.275  2.9062  0.2087 -1.1686
  166MOL0     H22382   5.899   3.661   2.548 -1.9733  0.0714  1.7412
  166MOL0     H22383   5.803   3.533   2.495 -3.7184  1.3647 -0.5703
  166MOL0     H22384   5.614   3.728   2.445 -0.4276  1.0975  0.7675
  166MOL0     H22385   5.672   3.714   2.608  3.2908 -0.8975  0.4649
  166MOL0     H22386   5.667   3.953   2.506  0.3555 -0.1418  2.0751
  166MOL0     H22387   5.776   3.887   2.389  0.3706  0.0572  0.2026
  166MOL0     H22388   5.966   3.867   2.562  1.6885 -0.9445  4.5480
  166MOL0     H22389   5.892   4.022   2.579  0.4940 -0.5518 -1.0264
  166MOL0     H22390   6.445   3.502   1.877 -1.9047  3.4981  3.9303
  166MOL0     H22391   6.532   3.262   1.814 -1.2453 -0.9088 -0.7246
  166MOL0     H22392   6.629   2.921   1.766 -0.9453 -1.3071 -0.3364
  166MOL0     H22393   6.780   2.720   1.689 -3.9939  0.5835 -2.3087
  166MOL0     H22394   8.165   3.178   2.488  0.0185  0.5248  3.6884
  166MOL0     H22395   8.377   3.287   2.537 -2.0229 -0.2715  2.4972
  166MOL0     H22396   8.817   3.222   2.384  0.1360  0.6387 -1.4318
  166MOL0     H22397   9.014   3.361   2.347  1.8086 -0.6296  0.5388
  166MOL0     H22398   9.242   3.534   2.667 -0.5361  0.7528 -1.4143
  166MOL0     H22399   9.350   3.545   2.542 -0.3541  0.4200  0.2020
  166MOL0     H22400   9.312   3.327   2.745  0.3381  1.3408 -0.2998
  166MOL0     H22401   9.452   3.398   2.668  1.3073 -2.4607 -2.4770
  166MOL0     H22402   9.281   3.203   2.523  1.1436  2.1357 -3.4305
  166MOL0     H22403   9.427   3.152   2.603  2.7342  1.4838 -0.2864
  166MOL0     H22404   9.393   3.355   2.383 -3.0164 -1.9178 -1.3415
  166MOL0     H22405   9.553   3.304   2.459 -0.2306 -1.7502  1.8634
  166MOL0     H22406   9.421   2.960   2.246  1.5413  0.3296  0.4369
  166MOL0     H22407   9.084   3.405   2.753  1.6846 -1.0447 -0.4989
  166MOL0     H22408   8.822   3.233   2.899  0.8374 -0.7872 -1.8348
  166MOL0     H22409   8.939   3.354   2.925 -2.1834 -0.5499  1.4720
  166MOL0     H22410   8.770   3.400   2.883 -1.4531 -1.3577  0.8050
  167MOL0     O22411   0.356   4.770   8.799 -0.0572 -0.0971  0.6029
  167MOL0     C22412   0.248   4.833   8.799  0.7446  1.0024 -0.9299
  167MOL0     O22413   0.193   4.917   8.696 -0.5087 -0.1303 -0.2742
  167MOL0     C22414   0.280   4.944   8.594  0.3145  0.5388 -0.1445
  167MOL0     C22415   0.252   4.905   8.467 -0.7907 -0.6968  0.6807
  167MOL0     C22416   0.327   4.963   8.362  0.4915 -0.2248 -0.9645
  167MOL0     C22417   0.424   5.060   8.389  0.1629  0.3792  0.2703
  167MOL0     O22418   0.512   5.100   8.296 -0.1186  0.5217 -0.3389
  167MOL0     C22419   0.519   5.052   8.156 -0.1804  0.4747 -0.1876
  167MOL0     C22420   0.607   5.126   8.055 -0.1826 -0.4972 -0.0547
  167MOL0     C22421   0.564   5.281   8.024 -0.2824  0.2907 -0.7490
  167MOL0     C22422   0.601   5.358   7.907 -1.0200 -0.3089 -0.2790
  167MOL0     C22423   0.755   5.360   7.866 -0.0475  1.0048 -0.3071
  167MOL0     C22424   0.850   5.388   7.982  0.0501 -1.0673 -0.3168
  167MOL0     C22425   0.837   5.547   8.019 -0.8882  0.2968  0.0087
  167MOL0     C22426   0.952   5.622   8.103  1.0335  0.7048  0.3015
  167MOL0     N22427   0.888   5.748   8.157 -0.8071 -0.1548  0.3848
  167MOL0     C22428   0.928   5.814   8.275 -0.3638 -0.3692  1.1884
  167MOL0     C22429   0.846   5.918   8.269 -0.2462 -0.1186 -0.7788
  167MOL0     C22430   0.847   6.017   8.381  0.3589  0.0943 -0.4608
  167MOL0     C22431   0.934   6.141   8.352  0.3097 -0.3411  0.0389
  167MOL0     C22432   0.873   6.219   8.229  0.5132 -1.2391 -0.0734
  167MOL0     C22433   0.930   6.364   8.212 -0.1307  0.2882  0.2184
  167MOL0     O22434   1.075   6.373   8.227  0.2164 -0.4394 -0.2540
  167MOL0     C22435   1.126   6.501   8.236  0.0014 -0.6333  0.0264
  167MOL0     C22436   1.059   6.613   8.188  0.9490 -0.5311  0.1681
  167MOL0     C22437   1.121   6.738   8.183 -0.0449  0.1715 -0.1462
  167MOL0     C22438   1.245   6.757   8.246 -0.3936 -0.2730 -0.1205
  167MOL0     C22439   1.296   6.894   8.263  0.2193  0.1945  0.0239
  167MOL0     O22440   1.412   6.904   8.341  0.5396  0.4578 -0.4945
  167MOL0     C22441   1.458   7.025   8.389  0.0445  0.5420  1.2685
  167MOL0     C22442   1.398   7.072   8.499  0.1999 -0.0054  0.0460
  167MOL0     C22443   1.423   7.205   8.548  1.1852  0.1530 -0.3777
  167MOL0     C22444   1.519   7.283   8.492  0.2822 -0.0053 -0.7134
  167MOL0     O22445   1.558   7.403   8.556 -0.1384 -0.0472 -0.3669
  167MOL0     C22446   1.470   7.521   8.533 -0.3343 -0.0930  0.3641
  167MOL0     C22447   1.484   7.606   8.657 -0.0478 -0.4872  0.0823
  167MOL0     C22448   1.626   7.653   8.674 -0.6934  0.0764  0.3000
  167MOL0     C22449   1.653   7.750   8.795  0.9389  0.7846 -0.3730
  167MOL0     C22450   1.794   7.792   8.811 -0.1909 -0.4661 -0.1528
  167MOL0     C22451   1.843   7.910   8.718 -0.5080 -0.1100  0.0794
  167MOL0     C22452   1.983   7.964   8.760  1.2668  0.5458 -0.6881
  167MOL0     C22453   2.049   8.049   8.659 -0.0368  1.5656  1.3280
  167MOL0    Cl22454   1.947   8.184   8.636 -0.0179  0.2198 -0.2071
  167MOL0     C22455   1.593   7.232   8.383  0.1062  0.1450 -0.8908
  167MOL0     C22456   1.571   7.107   8.333 -0.7831  0.6946 -1.8818
  167MOL0     O22457   1.237   6.986   8.219  0.0080 -0.8829 -0.1251
  167MOL0     C22458   1.296   6.646   8.320  0.1835  0.4457  0.4456
  167MOL0     C22459   1.243   6.517   8.305  0.1327 -0.4762  0.7643
  167MOL0     N22460   0.758   5.922   8.159 -0.2432  0.5374 -0.0536
  167MOL0     N22461   0.787   5.812   8.093 -0.9312 -0.1146  0.9769
  167MOL0     C22462   0.459   5.090   8.521  0.0536  0.0527  0.5269
  167MOL0     C22463   0.380   5.032   8.622  0.3170 -0.1266 -0.2159
  167MOL0     C22464   0.154   4.824   8.921  0.4651 -0.4809  0.7970
  167MOL0     C22465   0.050   4.922   8.939 -0.6115  1.3628 -0.5935
  167MOL0     C22466  -0.037   4.911   9.050 -0.7250  0.0812  0.5478
  167MOL0     C22467  -0.025   4.807   9.140  0.8732 -0.3895 -0.1510
  167MOL0     O22468  -0.086   4.808   9.265 -0.0533 -0.3450 -0.0172
  167MOL0     C22469  -0.174   4.698   9.297  0.3144  0.0300  0.0355
  167MOL0     C22470  -0.296   4.682   9.201  0.7895 -0.8002 -0.0832
  167MOL0     C22471  -0.387   4.816   9.204 -0.1595  0.4263  0.8649
  167MOL0     C22472  -0.507   4.800   9.104 -0.8291 -0.6192  0.7577
  167MOL0     C22473  -0.613   4.903   9.132  0.7512 -0.1190  0.1066
  167MOL0     C22474  -0.680   5.003   9.164  0.2949  0.9991  0.7759
  167MOL0     C22475   0.076   4.713   9.123 -0.0518 -0.5436  0.0495
  167MOL0     C22476   0.169   4.719   9.019  0.3803  0.1706 -0.3424
  167MOL0     C22477   0.255   4.592   9.005 -1.0861 -0.4864 -0.6896
  167MOL0     H22478   0.178   4.828   8.446  0.5264 -1.4798 -1.4707
  167MOL0     H22479   0.310   4.928   8.261 -0.9195 -2.8248  0.0751
  167MOL0     H22480   0.547   4.946   8.144  0.9436  0.2779  3.2421
  167MOL0     H22481   0.423   5.062   8.106 -0.3820 -0.8767 -0.1120
  167MOL0     H22482   0.617   5.061   7.968  1.3421  0.5136 -0.6907
  167MOL0     H22483   0.707   5.118   8.099 -0.8549 -3.6751  1.0742
  167MOL0     H22484   0.590   5.335   8.116  0.6523  0.6510 -1.2146
  167MOL0     H22485   0.456   5.272   8.010  0.0644 -0.4626 -3.3647
  167MOL0     H22486   0.542   5.322   7.822  1.4247 -2.8729 -1.0446
  167MOL0     H22487   0.559   5.459   7.915  0.3352  0.2999 -0.5817
  167MOL0     H22488   0.774   5.256   7.840  0.3813  1.0106 -0.0195
  167MOL0     H22489   0.780   5.423   7.780  1.4094  1.7538  0.6251
  167MOL0     H22490   0.835   5.317   8.064 -0.4140 -1.2609 -0.5620
  167MOL0     H22491   0.945   5.366   7.933 -1.1202  0.4902 -3.6171
  167MOL0     H22492   0.749   5.574   8.078  0.5089  1.7999  1.5326
  167MOL0     H22493   0.849   5.602   7.925 -2.1317 -1.6060 -1.3373
  167MOL0     H22494   0.985   5.549   8.177 -4.1202 -1.7289  0.6056
  167MOL0     H22495   1.041   5.645   8.042  1.9807 -0.7321  1.0956
  167MOL0     H22496   0.996   5.792   8.356  0.2607 -0.3476  0.6859
  167MOL0     H22497   0.747   6.055   8.403  1.3262  1.1631  2.4050
  167MOL0     H22498   0.879   5.975   8.476 -0.0111 -0.1846 -0.4582
  167MOL0     H22499   0.937   6.215   8.432 -2.6038  1.5552 -1.4302
  167MOL0     H22500   1.035   6.104   8.334  0.0652 -1.6737  1.2146
  167MOL0     H22501   0.765   6.221   8.248  0.8004 -1.4493  1.7096
  167MOL0     H22502   0.882   6.160   8.137  1.0513 -1.6608  0.2496
  167MOL0     H22503   0.897   6.429   8.294  0.5986  2.3765 -1.0587
  167MOL0     H22504   0.894   6.405   8.117 -0.0060 -0.6981 -0.2634
  167MOL0     H22505   0.964   6.622   8.136  0.2381 -1.3124  1.2799
  167MOL0     H22506   1.060   6.815   8.138 -1.0209 -0.1307  0.6280
  167MOL0     H22507   1.333   7.002   8.550 -0.2426  0.8375  0.6630
  167MOL0     H22508   1.359   7.229   8.632  2.3202  0.5798  0.3965
  167MOL0     H22509   1.495   7.570   8.439  1.9415 -0.7169  0.5932
  167MOL0     H22510   1.364   7.496   8.545  0.1929 -1.1330  4.4910
  167MOL0     H22511   1.414   7.689   8.668  0.5951  0.7810 -3.6068
  167MOL0     H22512   1.465   7.532   8.735  2.9881  0.6609  2.1002
  167MOL0     H22513   1.693   7.567   8.676  2.7274  2.5150 -0.0845
  167MOL0     H22514   1.654   7.718   8.591 -0.6185  0.5755  0.7037
  167MOL0     H22515   1.638   7.682   8.880  2.5516 -0.3388 -0.9143
  167MOL0     H22516   1.590   7.838   8.800 -2.6887 -1.5048 -1.8906
  167MOL0     H22517   1.865   7.712   8.789 -0.7860 -0.3553 -2.7674
  167MOL0     H22518   1.806   7.813   8.917  2.2032 -2.0401 -0.0361
  167MOL0     H22519   1.849   7.878   8.613  2.5768  2.9147 -0.8361
  167MOL0     H22520   1.764   7.982   8.739  0.1880  0.0060  2.5030
  167MOL0     H22521   2.044   7.877   8.785 -0.6304  0.0878  2.9321
  167MOL0     H22522   1.965   8.024   8.850  2.2557 -0.7697  0.4164
  167MOL0     H22523   2.147   8.067   8.706  0.3681  0.2799  1.0137
  167MOL0     H22524   2.081   7.994   8.571  1.4528  1.9082  1.6263
  167MOL0     H22525   1.675   7.288   8.339  1.7926 -1.9084 -0.5688
  167MOL0     H22526   1.644   7.055   8.271  2.2949  0.7788  1.3464
  167MOL0     H22527   1.388   6.658   8.376 -0.3296  1.2252  1.1431
  167MOL0     H22528   1.291   6.429   8.348 -2.2880 -0.8068  3.0174
  167MOL0     H22529   0.538   5.157   8.553 -1.8133  1.8566  1.6824
  167MOL0     H22530   0.399   5.077   8.719  0.7259 -1.1384  0.1869
  167MOL0     H22531   0.033   5.002   8.868  2.6261  2.9242  0.2110
  167MOL0     H22532  -0.116   4.984   9.067 -0.1479  0.7825  0.3052
  167MOL0     H22533  -0.196   4.675   9.401  1.5826 -3.8479 -0.3885
  167MOL0     H22534  -0.141   4.598   9.269 -2.1431 -1.3654  1.7687
  167MOL0     H22535  -0.353   4.594   9.232 -1.6811  0.3009 -1.1559
  167MOL0     H22536  -0.263   4.668   9.098  0.8605 -0.3411 -0.1248
  167MOL0     H22537  -0.331   4.904   9.171  0.1217 -0.5914 -1.5321
  167MOL0     H22538  -0.426   4.838   9.304 -0.5845  0.6516  0.6522
  167MOL0     H22539  -0.461   4.815   9.006  0.4771 -0.4830  1.3602
  167MOL0     H22540  -0.547   4.699   9.086  1.4826 -1.5045  0.2213
  167MOL0     H22541  -0.742   5.090   9.180 -2.6744 -0.9923  0.8800
  167MOL0     H22542   0.087   4.629   9.191  2.2673 -0.4255 -0.0856
  167MOL0     H22543   0.250   4.543   8.907 -1.0045  0.1643 -1.0223
  167MOL0     H22544   0.355   4.617   9.041 -0.4183 -1.6815 -1.6351
  167MOL0     H22545   0.224   4.510   9.071 -2.7600 -0.3548 -1.2724
  168MOL0     O22546   9.252   4.636  10.915 -0.3898  0.5620  0.1791
  168MOL0     C22547   9.198   4.520  10.921 -0.2852 -0.2404 -0.7226
  168MOL0     O22548   9.079   4.496  11.002 -0.8107  0.3209  0.0933
  168MOL0     C22549   9.063   4.586  11.103 -0.0175  0.0207 -0.6054
  168MOL0     C22550   9.149   4.580  11.212 -1.2209 -0.4447  0.5377
  168MOL0     C22551   9.130   4.681  11.315 -0.0863  0.4986  0.1695
  168MOL0     C22552   9.029   4.773  11.307  0.5843 -0.5389  0.0089
  168MOL0     O22553   9.010   4.851  11.418 -1.0361 -0.2608  0.3915
  168MOL0     C22554   8.878   4.890  11.451  0.3578  0.6795 -1.0465
  168MOL0     C22555   8.889   4.996  11.569 -0.1264  0.5320  0.1799
  168MOL0     C22556   8.969   4.942  11.690 -0.0368 -0.0285  0.5530
  168MOL0     C22557   8.962   5.049  11.808  0.6777 -0.2214  0.9196
  168MOL0     C22558   9.086   5.044  11.904 -1.1447  0.1713  0.7154
  168MOL0     C22559   9.087   5.152  12.015 -1.2539  0.1333  0.8021
  168MOL0     C22560   9.218   5.176  12.086  1.2820  0.5540  0.0334
  168MOL0     C22561   9.245   5.051  12.177  0.4812  0.0399 -0.8240
  168MOL0     N22562   9.331   5.100  12.287  0.3943 -0.8818 -0.0938
  168MOL0     C22563   9.459   5.086  12.280 -0.0576  0.7995  0.4637
  168MOL0     C22564   9.491   5.094  12.416  0.2273 -0.3378 -0.5710
  168MOL0     C22565   9.638   5.091  12.460  0.4697  0.2637  0.5932
  168MOL0     C22566   9.705   5.231  12.427 -0.9267  0.6576  0.6162
  168MOL0     C22567   9.642   5.340  12.520  0.6855  0.0270  0.2528
  168MOL0     C22568   9.647   5.295  12.670 -0.3886  0.0836  0.4597
  168MOL0     O22569   9.780   5.256  12.704  0.1133  0.3003  0.3990
  168MOL0     C22570   9.811   5.198  12.821 -0.5112  0.8278  0.2645
  168MOL0     C22571   9.903   5.097  12.815 -0.0618  0.2879  0.2964
  168MOL0     C22572   9.919   5.009  12.917 -0.2698 -0.4973 -0.2486
  168MOL0     C22573   9.850   5.021  13.040  0.2566  0.3826  0.7684
  168MOL0     C22574   9.853   4.921  13.134 -0.2990 -0.4361 -0.2769
  168MOL0     O22575   9.816   4.966  13.255  0.5350 -0.0245 -0.5205
  168MOL0     C22576   9.840   4.882  13.359  0.5617 -0.4412  0.1530
  168MOL0     C22577   9.781   4.757  13.375 -0.2583 -0.0462 -0.5918
  168MOL0     C22578   9.828   4.673  13.472  0.0863  0.3123 -0.3283
  168MOL0     C22579   9.941   4.709  13.550 -0.2818  0.2098  0.1230
  168MOL0     O22580   9.998   4.628  13.645 -0.3694 -0.3093  0.5698
  168MOL0     C22581   9.914   4.549  13.734  0.1307  0.2299  0.6430
  168MOL0     C22582   9.857   4.644  13.840  0.2064  0.4765 -0.5435
  168MOL0     C22583   9.748   4.562  13.914 -1.5530 -0.0337 -1.0342
  168MOL0     C22584   9.606   4.574  13.861 -0.2603  0.2354  0.8124
  168MOL0     C22585   9.515   4.510  13.962 -0.3568  0.4235 -0.4414
  168MOL0     C22586   9.365   4.536  13.941  0.0218  0.1279  0.5879
  168MOL0     C22587   9.277   4.463  14.043 -0.7398 -0.2997 -0.5009
  168MOL0     C22588   9.132   4.522  14.065 -1.4898 -0.2354  0.9371
  168MOL0    Cl22589   9.041   4.536  13.905  0.3193  0.4124 -0.1246
  168MOL0     C22590   9.993   4.836  13.543 -0.7648  0.4154  0.7195
  168MOL0     C22591   9.948   4.929  13.446 -0.3145 -0.6334  0.4018
  168MOL0     O22592   9.887   4.805  13.106  0.7631 -0.6370  0.3315
  168MOL0     C22593   9.767   5.132  13.044 -0.6103  0.6390  0.3222
  168MOL0     C22594   9.735   5.216  12.936 -0.3596  0.5515 -0.3936
  168MOL0     N22595   9.387   5.132  12.490 -0.6601  1.2387 -0.3657
  168MOL0     N22596   9.285   5.142  12.406 -0.1066  0.1788 -0.9669
  168MOL0     C22597   8.954   4.779  11.195  0.0775  0.6265 -0.1284
  168MOL0     C22598   8.977   4.691  11.085  0.4487 -0.5928  1.2562
  168MOL0     C22599   9.238   4.427  10.818 -0.4375 -0.5866  0.3986
  168MOL0     C22600   9.230   4.288  10.847 -1.2348 -1.2099  0.5399
  168MOL0     C22601   9.272   4.188  10.757  0.7229  0.0486 -0.3031
  168MOL0     C22602   9.331   4.225  10.639 -0.7565  0.2743  0.6249
  168MOL0     O22603   9.384   4.127  10.560  0.5531  0.1429  0.0006
  168MOL0     C22604   9.335   4.111  10.429 -0.9611  0.2018 -0.6824
  168MOL0     C22605   9.193   4.050  10.425  0.1362 -0.0221 -0.5539
  168MOL0     C22606   9.114   4.067  10.296 -0.3810 -0.0842 -0.3255
  168MOL0     C22607   8.984   3.976  10.316  0.3066 -0.3308  0.7434
  168MOL0     C22608   8.897   4.016  10.426  1.4966  0.8633 -0.2573
  168MOL0     C22609   8.813   4.061  10.500 -0.0666  0.3864 -0.9565
  168MOL0     C22610   9.343   4.359  10.605  1.1787  0.3919 -0.3251
  168MOL0     C22611   9.292   4.464  10.689  0.5933  1.2317  0.0965
  168MOL0     C22612   9.286   4.611  10.641 -0.5377  0.4354  0.4268
  168MOL0     H22613   9.227   4.505  11.224 -1.5278 -0.7809  0.4539
  168MOL0     H22614   9.198   4.664  11.398  0.4148 -1.8956 -0.6472
  168MOL0     H22615   8.821   4.944  11.375  0.6145  2.1425 -0.2391
  168MOL0     H22616   8.812   4.814  11.494  0.3404  1.3347  0.1477
  168MOL0     H22617   8.788   5.020  11.605 -1.5880 -0.7753 -2.6553
  168MOL0     H22618   8.927   5.089  11.527  1.5300  0.1450  0.7360
  168MOL0     H22619   9.071   4.911  11.666 -0.2346 -1.5857  1.5457
  168MOL0     H22620   8.923   4.855  11.739 -2.8511  2.3663  2.5353
  168MOL0     H22621   8.951   5.148  11.763  0.8034 -1.9137 -3.2704
  168MOL0     H22622   8.870   5.027  11.863  1.3513  0.2839  2.2741
  168MOL0     H22623   9.092   4.939  11.935 -2.7170 -0.8064 -1.8609
  168MOL0     H22624   9.172   5.071  11.841  1.0814  0.3585  3.6550
  168MOL0     H22625   9.044   5.242  11.971 -1.8822 -2.0220 -3.5123
  168MOL0     H22626   9.021   5.109  12.091 -1.0186 -3.6391 -0.8993
  168MOL0     H22627   9.184   5.251  12.158 -0.0964  0.3991 -0.4424
  168MOL0     H22628   9.300   5.222  12.029  1.6919 -1.0596 -0.7556
  168MOL0     H22629   9.148   5.016  12.213  0.0185  0.4089 -1.6957
  168MOL0     H22630   9.296   4.966  12.131 -0.3423 -1.7413  1.3461
  168MOL0     H22631   9.520   5.052  12.197 -0.3755  3.1900 -0.8182
  168MOL0     H22632   9.642   5.056  12.563  0.6980 -0.5786  0.3076
  168MOL0     H22633   9.699   5.016  12.409 -0.5085 -2.9318  3.7370
  168MOL0     H22634   9.813   5.217  12.435 -1.1070 -5.2473 -1.8305
  168MOL0     H22635   9.693   5.262  12.323 -0.8816  0.0325  0.4196
  168MOL0     H22636   9.542   5.372  12.489  1.8594  4.2785  0.2026
  168MOL0     H22637   9.688   5.439  12.506 -2.2695  1.6074  0.9208
  168MOL0     H22638   9.579   5.218  12.706  2.8195 -2.4993  1.5694
  168MOL0     H22639   9.617   5.387  12.720  0.6213  1.5387 -1.4488
  168MOL0     H22640   9.955   5.071  12.724  1.6180  0.2598  1.2181
  168MOL0     H22641   9.983   4.923  12.899  0.8687  0.3162 -0.1700
  168MOL0     H22642   9.694   4.732  13.314 -0.3216  0.1226 -0.5725
  168MOL0     H22643   9.770   4.583  13.487  0.2414 -0.0890 -1.9044
  168MOL0     H22644   9.841   4.504  13.666  0.6372  0.4101 -0.0417
  168MOL0     H22645   9.966   4.464  13.779 -2.7324 -0.2359  3.3403
  168MOL0     H22646   9.929   4.673  13.917 -0.6533  2.7710 -0.5293
  168MOL0     H22647   9.808   4.735  13.805 -1.9780  0.6622  2.5698
  168MOL0     H22648   9.793   4.462  13.911  0.5836  0.8014  0.3112
  168MOL0     H22649   9.757   4.586  14.020 -0.0838 -4.3638  0.0542
  168MOL0     H22650   9.601   4.519  13.767  0.2290 -1.2552  1.6263
  168MOL0     H22651   9.587   4.681  13.849  0.2456  0.3070  0.6115
  168MOL0     H22652   9.533   4.557  14.059 -2.2387 -4.1087  2.4218
  168MOL0     H22653   9.534   4.403  13.960 -1.9960  0.1182 -2.4282
  168MOL0     H22654   9.352   4.645  13.946  4.0881  0.9166 -1.6279
  168MOL0     H22655   9.337   4.512  13.838  0.1405 -1.7288  0.9584
  168MOL0     H22656   9.320   4.452  14.143 -2.1544  0.8991  0.2815
  168MOL0     H22657   9.267   4.361  14.003  0.7943 -1.8345  2.6718
  168MOL0     H22658   9.087   4.444  14.127 -2.4532  0.1368  0.7270
  168MOL0     H22659   9.135   4.620  14.113 -1.7548 -2.2034  5.4902
  168MOL0     H22660  10.079   4.865  13.604  2.3434 -3.5436 -1.2745
  168MOL0     H22661   9.998   5.025  13.435  1.4586 -1.2355  2.4834
  168MOL0     H22662   9.696   5.134  13.126 -2.0728  3.6355 -0.8642
  168MOL0     H22663   9.651   5.284  12.930 -1.3360 -0.6077 -0.3981
  168MOL0     H22664   8.864   4.840  11.195 -0.9511 -0.8469  0.6170
  168MOL0     H22665   8.923   4.693  10.990  0.9280  2.2203  0.9462
  168MOL0     H22666   9.180   4.253  10.936 -1.5680 -0.7445  0.5350
  168MOL0     H22667   9.256   4.082  10.772 -3.1076  0.7346  1.5433
  168MOL0     H22668   9.395   4.041  10.371  0.9260  0.0407  1.3109
  168MOL0     H22669   9.336   4.211  10.385  0.9413 -0.0138 -1.2115
  168MOL0     H22670   9.150   4.099  10.512  4.0256  2.4671  0.2006
  168MOL0     H22671   9.195   3.943  10.450  1.4337  0.3727  1.1933
  168MOL0     H22672   9.172   4.025  10.213  1.0299 -1.0729  1.0785
  168MOL0     H22673   9.096   4.170  10.264 -1.1485  1.2528  3.7640
  168MOL0     H22674   8.925   3.979  10.224  2.3028  0.9878 -0.5565
  168MOL0     H22675   9.021   3.873  10.313  0.1170 -0.3720 -1.3887
  168MOL0     H22676   8.739   4.086  10.573  0.5748 -0.9151  0.1999
  168MOL0     H22677   9.376   4.385  10.505 -0.8155 -2.9843 -2.0508
  168MOL0     H22678   9.379   4.660  10.671  0.3451  0.7445 -2.4298
  168MOL0     H22679   9.277   4.629  10.533  0.4182  2.5475  0.6493
  168MOL0     H22680   9.203   4.670  10.680  0.3021  1.4299  0.7675
  169MOL0     O22681   0.595  11.424   0.970  0.3354 -0.3946 -0.6729
  169MOL0     C22682   0.506  11.461   0.892 -1.4024 -0.6271  0.1323
  169MOL0     O22683   0.376  11.467   0.923  0.0389 -0.3094  0.0963
  169MOL0     C22684   0.320  11.408   1.036 -0.2821  0.4021  0.8017
  169MOL0     C22685   0.365  11.295   1.092  0.6987  0.3852  0.6037
  169MOL0     C22686   0.295  11.235   1.201  0.4484 -0.9845  0.4280
  169MOL0     C22687   0.193  11.307   1.265 -0.4832 -0.3479 -0.3762
  169MOL0     O22688   0.141  11.275   1.386 -0.0227  0.1382 -0.1838
  169MOL0     C22689  -0.002  11.272   1.407 -0.2740 -0.4556 -0.3232
  169MOL0     C22690  -0.029  11.313   1.550 -0.3859  0.4992 -0.1070
  169MOL0     C22691  -0.180  11.317   1.568  0.5170  0.3530  0.4795
  169MOL0     C22692  -0.211  11.294   1.716 -0.8924  0.0298 -0.7909
  169MOL0     C22693  -0.357  11.339   1.737 -0.2862  0.6415 -1.2472
  169MOL0     C22694  -0.419  11.287   1.864 -0.1054  1.0805  0.3298
  169MOL0     C22695  -0.444  11.134   1.850  0.3882  0.3518 -0.5399
  169MOL0     C22696  -0.515  11.096   1.973  0.1010  0.4966 -0.4383
  169MOL0     N22697  -0.661  11.115   1.964  0.1307 -0.3380 -0.6953
  169MOL0     C22698  -0.744  11.035   1.899 -0.5979 -1.2947  0.0752
  169MOL0     C22699  -0.858  11.109   1.897  0.0435 -0.6613  0.5238
  169MOL0     C22700  -0.989  11.072   1.828 -0.0171  0.0262  0.0576
  169MOL0     C22701  -1.078  11.011   1.934 -0.3965  0.1040  0.3990
  169MOL0     C22702  -1.204  10.960   1.859  0.0478  0.4336  0.2682
  169MOL0     C22703  -1.328  10.955   1.946 -0.0378  0.0629 -0.0548
  169MOL0     O22704  -1.361  11.079   2.020 -0.2305  0.3127 -0.3572
  169MOL0     C22705  -1.409  11.188   1.953 -0.0739 -0.3704 -0.0456
  169MOL0     C22706  -1.503  11.195   1.850  0.5034 -0.0686  0.1626
  169MOL0     C22707  -1.539  11.313   1.790 -0.0679  0.2453  0.3753
  169MOL0     C22708  -1.484  11.434   1.836  0.4690  0.0811  0.8307
  169MOL0     C22709  -1.511  11.548   1.762 -0.2969  0.3671  0.5235
  169MOL0     O22710  -1.639  11.575   1.722  0.4948  0.3022 -0.4444
  169MOL0     C22711  -1.662  11.683   1.633  1.0447  0.9082 -1.0816
  169MOL0     C22712  -1.566  11.719   1.534  0.0390  1.1552 -0.0441
  169MOL0     C22713  -1.601  11.805   1.432  0.1476  0.7610  1.0013
  169MOL0     C22714  -1.727  11.858   1.420  0.9762 -1.0765 -0.3316
  169MOL0     O22715  -1.764  11.954   1.326  0.8723 -0.5069 -0.3603
  169MOL0     C22716  -1.889  11.952   1.248 -0.2201  0.8264  0.4934
  169MOL0     C22717  -1.849  12.027   1.113 -0.7604  0.3327 -0.7256
  169MOL0     C22718  -1.963  12.006   1.015 -0.2293  0.1610  0.1950
  169MOL0     C22719  -1.941  12.129   0.924 -0.6789  0.0309  0.2318
  169MOL0     C22720  -2.041  12.107   0.807 -1.2407  0.4542 -0.2728
  169MOL0     C22721  -1.998  12.180   0.676 -1.2191  0.4187  0.9777
  169MOL0     C22722  -2.075  12.147   0.555 -0.2418  0.0230  0.2524
  169MOL0     C22723  -2.070  12.258   0.442 -0.5078 -0.0596 -0.9366
  169MOL0    Cl22724  -2.182  12.382   0.483  0.1854 -0.3900  0.7118
  169MOL0     C22725  -1.821  11.815   1.506 -0.7647  0.0653 -1.1033
  169MOL0     C22726  -1.791  11.738   1.616  0.4818  0.5857 -0.7122
  169MOL0     O22727  -1.418  11.626   1.752 -0.7539 -1.2170  1.2050
  169MOL0     C22728  -1.394  11.429   1.940  0.4973  0.2520  0.5654
  169MOL0     C22729  -1.361  11.307   2.000 -0.3614  0.9631 -0.5481
  169MOL0     N22730  -0.845  11.223   1.966 -0.5008  0.0229  0.0099
  169MOL0     N22731  -0.727  11.225   2.011 -1.1254  0.2138  0.4234
  169MOL0     C22732   0.154  11.428   1.208  0.1636 -1.6766  0.8843
  169MOL0     C22733   0.204  11.475   1.085  0.5964  0.6482  0.5426
  169MOL0     C22734   0.556  11.528   0.771  0.5789  0.2798 -0.3649
  169MOL0     C22735   0.612  11.434   0.684 -0.2432 -0.7136  0.4848
  169MOL0     C22736   0.686  11.487   0.582  0.3780 -0.5696 -0.0116
  169MOL0     C22737   0.713  11.624   0.564  0.4608 -0.3151  1.0953
  169MOL0     O22738   0.792  11.652   0.451  0.5523 -0.5799 -0.1430
  169MOL0     C22739   0.832  11.789   0.430 -1.0546  0.6363  0.4787
  169MOL0     C22740   0.885  11.806   0.285 -1.3498  1.0950 -0.5032
  169MOL0     C22741   0.985  11.707   0.229 -1.1438  0.8310  0.0059
  169MOL0     C22742   1.058  11.778   0.119 -0.5903  0.2966  0.4500
  169MOL0     C22743   1.132  11.689   0.038  0.4576  0.4938  0.1428
  169MOL0     C22744   1.189  11.615  -0.036 -0.1114  0.4688  0.8857
  169MOL0     C22745   0.659  11.707   0.666  1.0293 -0.6031  0.1262
  169MOL0     C22746   0.570  11.667   0.767 -0.4546  0.2982 -0.3344
  169MOL0     C22747   0.514  11.763   0.864  0.5086 -0.4629 -0.2978
  169MOL0     H22748   0.452  11.243   1.053  1.5806  1.7973  0.6328
  169MOL0     H22749   0.307  11.136   1.245 -1.8417 -1.8549 -0.7080
  169MOL0     H22750  -0.053  11.352   1.353 -4.3660 -1.9893  0.8404
  169MOL0     H22751  -0.049  11.177   1.379 -1.4396 -0.0857  0.3257
  169MOL0     H22752   0.007  11.415   1.567 -3.9320  1.6086  1.7587
  169MOL0     H22753   0.018  11.240   1.617 -2.9914 -0.8414  0.3930
  169MOL0     H22754  -0.226  11.253   1.493  1.6877 -3.0151  2.4483
  169MOL0     H22755  -0.219  11.413   1.532 -1.5345 -0.8746 -0.8101
  169MOL0     H22756  -0.183  11.192   1.742 -1.8180 -0.3889 -1.3774
  169MOL0     H22757  -0.149  11.359   1.778 -2.0534  0.6400 -0.2385
  169MOL0     H22758  -0.363  11.448   1.726 -0.2126  1.1843  2.5921
  169MOL0     H22759  -0.415  11.299   1.653 -0.9221 -3.2834  0.8015
  169MOL0     H22760  -0.353  11.304   1.949  3.0854 -3.4698 -0.8389
  169MOL0     H22761  -0.511  11.338   1.895 -1.5716  0.3224 -2.4682
  169MOL0     H22762  -0.349  11.079   1.844 -0.1342 -0.5873 -0.4523
  169MOL0     H22763  -0.503  11.113   1.760 -0.0266  0.5750 -0.3231
  169MOL0     H22764  -0.503  10.987   1.975 -2.1332  0.1512  3.1394
  169MOL0     H22765  -0.467  11.135   2.063  2.1002 -2.5427 -0.0329
  169MOL0     H22766  -0.725  10.938   1.854 -1.1097 -0.7834 -1.3025
  169MOL0     H22767  -1.035  11.165   1.791  0.7905  0.3471 -0.1514
  169MOL0     H22768  -0.982  10.996   1.750 -0.2060 -3.8172  3.4857
  169MOL0     H22769  -1.030  10.921   1.972  1.5372  0.5005 -0.9755
  169MOL0     H22770  -1.098  11.088   2.010  1.2790  0.0321  0.9419
  169MOL0     H22771  -1.195  10.857   1.823  2.2982  0.8552 -0.5218
  169MOL0     H22772  -1.227  11.027   1.777  1.2611 -0.5809 -0.9445
  169MOL0     H22773  -1.318  10.867   2.012  3.5138  1.5846  1.7006
  169MOL0     H22774  -1.419  10.929   1.891  0.5599  0.3694 -1.2179
  169MOL0     H22775  -1.550  11.104   1.814 -1.7036  0.5134  1.3790
  169MOL0     H22776  -1.597  11.310   1.699 -0.1933 -2.5154  0.4564
  169MOL0     H22777  -1.469  11.672   1.523  0.0820  1.5705 -1.7268
  169MOL0     H22778  -1.525  11.828   1.358  1.3174 -1.5067  1.3948
  169MOL0     H22779  -1.918  11.848   1.233 -0.6843  1.5054 -5.5398
  169MOL0     H22780  -1.962  12.015   1.299  0.3095  1.7614  0.1318
  169MOL0     H22781  -1.836  12.134   1.132  0.5752  0.4684 -2.1529
  169MOL0     H22782  -1.750  11.997   1.076 -1.0766 -3.7222  1.1293
  169MOL0     H22783  -1.955  11.907   0.970  1.2517  0.2211  0.2809
  169MOL0     H22784  -2.054  12.010   1.076 -0.2214 -2.6353  0.5236
  169MOL0     H22785  -1.839  12.155   0.895 -0.5076  0.0898  0.8836
  169MOL0     H22786  -1.978  12.225   0.962  1.5541  1.1425 -0.2141
  169MOL0     H22787  -2.143  12.121   0.843 -0.5179  0.3447  1.9753
  169MOL0     H22788  -2.030  12.003   0.774 -2.1332  0.8001 -1.7631
  169MOL0     H22789  -1.987  12.287   0.696 -0.3814  0.7104 -0.8711
  169MOL0     H22790  -1.900  12.141   0.649 -1.9172 -0.8056  0.1268
  169MOL0     H22791  -2.176  12.110   0.575  0.3017 -2.8999 -1.7826
  169MOL0     H22792  -2.023  12.063   0.507 -0.9989  0.8436 -2.1281
  169MOL0     H22793  -1.974  12.308   0.429 -0.0255 -1.2267 -2.0051
  169MOL0     H22794  -2.092  12.228   0.339 -2.6118  1.9565 -1.1697
  169MOL0     H22795  -1.923  11.850   1.493  0.5059  4.6502 -0.7294
  169MOL0     H22796  -1.869  11.732   1.692  1.9159 -0.1519  0.7834
  169MOL0     H22797  -1.345  11.521   1.971  0.7167 -0.3810  2.2030
  169MOL0     H22798  -1.308  11.310   2.095  0.3335 -0.5692 -0.8603
  169MOL0     H22799   0.077  11.491   1.252 -2.4009 -0.1010 -4.9833
  169MOL0     H22800   0.165  11.564   1.037  0.3034  1.2574  1.8692
  169MOL0     H22801   0.608  11.328   0.703  0.5422 -0.4868  2.1923
  169MOL0     H22802   0.725  11.424   0.503 -0.3019 -0.9000 -0.0926
  169MOL0     H22803   0.911  11.819   0.500 -1.0532 -0.0446  0.7810
  169MOL0     H22804   0.745  11.851   0.449 -2.3871 -0.3357 -2.0586
  169MOL0     H22805   0.917  11.910   0.277 -1.7231  1.1778 -0.9527
  169MOL0     H22806   0.796  11.809   0.221 -2.2944 -1.0287  0.6255
  169MOL0     H22807   0.944  11.612   0.194  0.2610  0.1790  0.0625
  169MOL0     H22808   1.049  11.682   0.314 -1.6529 -0.6776 -0.0152
  169MOL0     H22809   0.991  11.833   0.052 -0.4544 -0.7226 -0.5646
  169MOL0     H22810   1.123  11.857   0.159 -2.7852  1.8987  1.0317
  169MOL0     H22811   1.235  11.546  -0.104  0.4175  3.3838 -1.9590
  169MOL0     H22812   0.678  11.814   0.659 -2.6124  0.1075 -1.6460
  169MOL0     H22813   0.408  11.757   0.841  0.3815  2.0269 -0.6470
  169MOL0     H22814   0.548  11.735   0.964  3.4887  0.0853 -1.0594
  169MOL0     H22815   0.537  11.869   0.848 -3.2863 -0.0376 -5.0461
  170MOL0     O22816   0.882  11.325   3.163 -0.5734 -0.0551  0.2098
  170MOL0     C22817   0.927  11.284   3.277  0.6938  0.1770  0.4207
  170MOL0     O22818   0.971  11.158   3.311 -0.0809 -0.1390 -0.0311
  170MOL0     C22819   0.943  11.041   3.246 -0.1604 -1.1278  0.4660
  170MOL0     C22820   1.003  10.925   3.298  0.0306  1.7002  0.5413
  170MOL0     C22821   0.977  10.797   3.237  0.1121  0.2298 -0.2513
  170MOL0     C22822   0.893  10.780   3.119 -0.1212 -1.2301 -0.0402
  170MOL0     O22823   0.883  10.658   3.064  0.5092  0.1450  0.1861
  170MOL0     C22824   0.751  10.609   3.024 -0.9618  0.6230  0.1192
  170MOL0     C22825   0.760  10.460   3.049  0.2643 -0.1398  0.2656
  170MOL0     C22826   0.772  10.434   3.202  0.6460  0.1091 -0.4261
  170MOL0     C22827   0.755  10.270   3.219 -0.1405 -0.1572  0.0795
  170MOL0     C22828   0.711  10.229   3.355  0.0737  0.1025  0.4826
  170MOL0     C22829   0.723  10.081   3.373  0.0570  0.9096 -0.4977
  170MOL0     C22830   0.668  10.040   3.506  0.6747  1.6445  0.4038
  170MOL0     C22831   0.694   9.893   3.545  0.0179  0.2617  0.4106
  170MOL0     N22832   0.617   9.862   3.667  0.1326 -0.1834  0.0865
  170MOL0     C22833   0.669   9.815   3.786 -0.9991 -0.3716  0.4462
  170MOL0     C22834   0.565   9.784   3.861  1.3695  0.5186 -1.0003
  170MOL0     C22835   0.572   9.734   4.006 -0.0060 -0.4073  0.5579
  170MOL0     C22836   0.517   9.850   4.092  0.2773  0.5451 -0.1647
  170MOL0     C22837   0.544   9.831   4.239  0.4878  0.3356 -1.2391
  170MOL0     C22838   0.447   9.934   4.315 -0.0277 -0.0954 -0.2063
  170MOL0     O22839   0.483   9.929   4.456  0.3256 -0.0771 -0.3814
  170MOL0     C22840   0.405  10.001   4.549 -0.9031 -0.5659  0.3354
  170MOL0     C22841   0.284  10.070   4.519  0.6295  0.5539 -0.7525
  170MOL0     C22842   0.210  10.138   4.614  0.6796  0.8782 -0.0409
  170MOL0     C22843   0.265  10.150   4.745 -1.0125  0.6847 -0.1268
  170MOL0     C22844   0.182  10.209   4.844  0.2988  0.2005 -0.0861
  170MOL0     O22845   0.086  10.302   4.814 -0.5874 -0.7591 -0.2393
  170MOL0     C22846  -0.010  10.334   4.907  0.4878 -0.4921  0.5201
  170MOL0     C22847  -0.034  10.471   4.916  0.6014  0.4645 -0.3217
  170MOL0     C22848  -0.146  10.522   4.984 -0.6477 -0.9841  0.2666
  170MOL0     C22849  -0.229  10.442   5.070 -0.1368  0.5139 -0.4817
  170MOL0     O22850  -0.332  10.497   5.142  0.0876  0.9386 -0.0442
  170MOL0     C22851  -0.289  10.521   5.280  0.3739 -0.5877  0.2560
  170MOL0     C22852  -0.214  10.656   5.290  1.3889 -0.2537  1.0800
  170MOL0     C22853  -0.188  10.690   5.434  0.2291  0.2733  0.2219
  170MOL0     C22854  -0.311  10.766   5.490 -0.4904  1.0566 -0.2344
  170MOL0     C22855  -0.286  10.800   5.638  0.0126  0.6303  0.3269
  170MOL0     C22856  -0.392  10.896   5.679  0.1441 -0.3515  0.1706
  170MOL0     C22857  -0.404  10.910   5.828 -0.6455 -0.5959 -0.2693
  170MOL0     C22858  -0.282  10.987   5.880 -0.3812  0.2673 -0.1851
  170MOL0    Cl22859  -0.303  11.095   6.023 -0.4794 -0.0854 -0.1805
  170MOL0     C22860  -0.197  10.309   5.073 -0.0234  0.1337 -0.3940
  170MOL0     C22861  -0.099  10.256   4.979  0.4092  0.4461  0.1786
  170MOL0     O22862   0.207  10.172   4.956  0.5442 -0.4163 -0.5414
  170MOL0     C22863   0.394  10.078   4.777  0.8201  0.6567  0.0807
  170MOL0     C22864   0.461  10.006   4.679  0.2580 -1.3092 -0.0586
  170MOL0     N22865   0.453   9.803   3.781 -0.0339 -0.9162  0.0504
  170MOL0     N22866   0.481   9.877   3.682 -0.6974 -0.3114  1.2168
  170MOL0     C22867   0.829  10.894   3.077  0.9584  0.6602  0.2308
  170MOL0     C22868   0.855  11.022   3.138  0.2964  0.7574  0.5215
  170MOL0     C22869   0.971  11.395   3.371  0.1708 -0.3538 -0.0880
  170MOL0     C22870   1.084  11.372   3.448  0.8681 -1.4283 -0.4532
  170MOL0     C22871   1.131  11.480   3.533 -0.1816 -1.1104 -0.9167
  170MOL0     C22872   1.068  11.603   3.545  0.1538  0.2146  0.0302
  170MOL0     O22873   1.109  11.696   3.640 -0.1600 -0.0882 -0.0631
  170MOL0     C22874   1.250  11.719   3.644 -0.7103  0.2072 -1.2749
  170MOL0     C22875   1.299  11.787   3.524 -0.1519 -0.1994 -0.1724
  170MOL0     C22876   1.223  11.922   3.520  0.1593  0.0160  0.2162
  170MOL0     C22877   1.287  12.031   3.428 -0.4929 -0.2741  0.5422
  170MOL0     C22878   1.201  12.150   3.425  0.9217 -0.0488 -0.7274
  170MOL0     C22879   1.143  12.258   3.434 -0.4831  0.1131 -1.0627
  170MOL0     C22880   0.953  11.615   3.464 -1.0324 -0.0121  0.0997
  170MOL0     C22881   0.900  11.517   3.381 -0.5888 -0.3863 -0.7330
  170MOL0     C22882   0.764  11.541   3.318 -0.3623 -0.5835  0.1391
  170MOL0     H22883   1.044  10.931   3.398 -1.9513 -2.5165  1.8126
  170MOL0     H22884   1.007  10.702   3.279 -1.2712 -1.5427 -2.9912
  170MOL0     H22885   0.671  10.642   3.091 -0.3127 -1.1887  1.8952
  170MOL0     H22886   0.737  10.616   2.916  1.2546 -3.8741 -0.6956
  170MOL0     H22887   0.845  10.413   2.998 -0.5244 -0.5541 -0.7229
  170MOL0     H22888   0.677  10.411   2.997 -0.4584  1.7693 -0.4708
  170MOL0     H22889   0.694  10.487   3.256 -2.5386 -2.7599 -1.7656
  170MOL0     H22890   0.874  10.461   3.232  0.1365  3.2607 -1.2309
  170MOL0     H22891   0.689  10.229   3.142 -0.1393  1.7113 -0.9802
  170MOL0     H22892   0.850  10.219   3.204  0.7412  1.3235  0.3500
  170MOL0     H22893   0.774  10.277   3.431  1.3729 -2.5920  1.2287
  170MOL0     H22894   0.607  10.251   3.377  0.1666 -0.2781  1.3534
  170MOL0     H22895   0.671  10.028   3.292 -2.1525 -0.3077  1.5811
  170MOL0     H22896   0.828  10.051   3.373 -0.3831 -2.5288  6.1553
  170MOL0     H22897   0.561  10.063   3.509  1.0601  4.0417 -1.2350
  170MOL0     H22898   0.727  10.086   3.586  3.1806 -2.9552  1.5723
  170MOL0     H22899   0.658   9.827   3.465 -1.7989 -1.5505  2.6093
  170MOL0     H22900   0.801   9.870   3.553 -0.5019 -2.7366 -0.2881
  170MOL0     H22901   0.776   9.811   3.804  0.0641  0.8175 -4.2029
  170MOL0     H22902   0.508   9.646   4.012 -0.7595 -0.4818 -4.4384
  170MOL0     H22903   0.678   9.716   4.031 -0.0872 -1.6948 -0.0061
  170MOL0     H22904   0.547   9.951   4.064 -0.8264  1.1583  0.7553
  170MOL0     H22905   0.408   9.852   4.090  0.2272 -0.6122  0.3446
  170MOL0     H22906   0.645   9.868   4.260 -0.1086  1.1164  0.3943
  170MOL0     H22907   0.520   9.732   4.279  0.3067  2.0658  3.5196
  170MOL0     H22908   0.344   9.897   4.303  0.7727 -2.0776 -1.3366
  170MOL0     H22909   0.452  10.036   4.275 -3.2788 -0.6393 -2.4237
  170MOL0     H22910   0.266  10.060   4.412  5.0100 -3.6152 -1.4237
  170MOL0     H22911   0.117  10.187   4.588  1.4634  1.8842 -1.0416
  170MOL0     H22912   0.032  10.548   4.877 -0.4145  0.8646 -1.3008
  170MOL0     H22913  -0.178  10.625   4.969 -1.6590 -0.9359  2.3797
  170MOL0     H22914  -0.386  10.522   5.331  0.5712  3.1183  0.7887
  170MOL0     H22915  -0.228  10.438   5.318 -1.9482 -2.6632 -0.2747
  170MOL0     H22916  -0.122  10.636   5.235 -0.5460 -1.8769 -1.7989
  170MOL0     H22917  -0.270  10.734   5.237 -2.0907 -2.4803  1.1622
  170MOL0     H22918  -0.171  10.601   5.497  1.6340  1.6633  1.9080
  170MOL0     H22919  -0.098  10.752   5.432  0.3353  0.1590 -3.0221
  170MOL0     H22920  -0.408  10.716   5.486 -0.6132  1.1873  0.8947
  170MOL0     H22921  -0.339  10.859   5.438 -0.6104  0.1256 -1.9070
  170MOL0     H22922  -0.187  10.845   5.635  0.7199 -0.8395  0.9698
  170MOL0     H22923  -0.298  10.703   5.687 -2.9669  0.1292 -1.1232
  170MOL0     H22924  -0.375  10.996   5.639 -0.3732  0.4721  1.9358
  170MOL0     H22925  -0.491  10.861   5.647  0.2543  0.4338 -1.1121
  170MOL0     H22926  -0.412  10.814   5.880  0.9255 -0.7835 -0.3389
  170MOL0     H22927  -0.489  10.976   5.848  0.3102  0.5696  0.0487
  170MOL0     H22928  -0.208  10.915   5.915 -1.9440  0.1659  3.2559
  170MOL0     H22929  -0.237  11.037   5.794  0.4884  0.2985  0.2711
  170MOL0     H22930  -0.269  10.246   5.125  0.2454  0.5773  0.5520
  170MOL0     H22931  -0.086  10.149   4.967  0.8692  0.7929 -4.4779
  170MOL0     H22932   0.423  10.073   4.881  0.9558 -6.2765  0.1123
  170MOL0     H22933   0.544   9.950   4.722  0.7819  2.1690  4.0929
  170MOL0     H22934   0.745  10.881   3.010  1.0318  3.0236 -0.4201
  170MOL0     H22935   0.804  11.112   3.104 -1.9569  0.7905  3.5264
  170MOL0     H22936   1.139  11.278   3.442  2.8165 -0.5479  1.8533
  170MOL0     H22937   1.219  11.475   3.596  0.0816  2.3798 -0.8033
  170MOL0     H22938   1.305  11.626   3.661 -1.5165 -0.1470 -0.5494
  170MOL0     H22939   1.277  11.774   3.734  0.7264 -5.3717  2.2298
  170MOL0     H22940   1.288  11.724   3.435 -2.7631  0.7529 -0.6110
  170MOL0     H22941   1.405  11.816   3.527 -0.6906  2.2578 -1.5760
  170MOL0     H22942   1.199  11.961   3.620 -0.2177  0.6287 -0.1085
  170MOL0     H22943   1.120  11.906   3.489 -0.2916  0.7266  1.2678
  170MOL0     H22944   1.387  12.069   3.455 -0.8489  1.4309 -0.3545
  170MOL0     H22945   1.296  11.988   3.327 -4.6940  2.5538 -1.3046
  170MOL0     H22946   1.127  12.362   3.449  1.7413  0.4811 -0.9348
  170MOL0     H22947   0.903  11.710   3.480 -2.8685 -0.8805 -0.1419
  170MOL0     H22948   0.773  11.579   3.215 -2.0589 -3.0968 -1.0512
  170MOL0     H22949   0.707  11.450   3.295  0.5711 -0.6335 -2.3044
  170MOL0     H22950   0.701  11.615   3.368 -0.5783 -0.7241  0.0761
  171MOL0     O22951   0.179   3.332   6.638  0.0623  0.8277 -0.2215
  171MOL0     C22952   0.083   3.264   6.688  0.1155 -0.2797  0.6895
  171MOL0     O22953   0.017   3.276   6.813 -0.7169  0.6020 -0.1616
  171MOL0     C22954   0.058   3.371   6.894  0.1035 -0.1514 -0.5848
  171MOL0     C22955   0.034   3.504   6.866 -0.1606 -0.1416  0.3949
  171MOL0     C22956   0.077   3.593   6.956  0.0071  0.5367 -1.0416
  171MOL0     C22957   0.141   3.562   7.080  0.0796 -0.3893 -0.3616
  171MOL0     O22958   0.164   3.665   7.160 -0.2358  0.1935 -0.6483
  171MOL0     C22959   0.284   3.738   7.126 -0.7732 -0.3856 -1.0734
  171MOL0     C22960   0.265   3.876   7.197 -0.4453  0.8288  0.9627
  171MOL0     C22961   0.260   3.863   7.347 -1.1199 -0.9311 -0.3136
  171MOL0     C22962   0.278   4.007   7.409 -0.9612  0.3469 -0.5104
  171MOL0     C22963   0.239   4.006   7.564 -0.1327  0.0964  0.9173
  171MOL0     C22964   0.270   4.134   7.636  0.4847 -0.2810  0.1999
  171MOL0     C22965   0.413   4.181   7.629  0.0132  0.3119  0.4373
  171MOL0     C22966   0.527   4.091   7.691  0.5550  0.1151 -0.3775
  171MOL0     N22967   0.659   4.142   7.637  0.3033 -0.2211 -0.5919
  171MOL0     C22968   0.720   4.263   7.674 -0.7002  0.1739 -0.6435
  171MOL0     C22969   0.839   4.261   7.618  0.3468 -0.3443  0.3125
  171MOL0     C22970   0.944   4.365   7.628 -0.4135 -0.1980 -0.5554
  171MOL0     C22971   0.951   4.431   7.771 -0.2853  0.6218  0.6582
  171MOL0     C22972   1.079   4.511   7.780 -0.1091  0.1468  0.3053
  171MOL0     C22973   1.112   4.553   7.922  0.4731 -0.2227 -0.5672
  171MOL0     O22974   1.234   4.622   7.907 -0.3563 -0.7606 -0.5833
  171MOL0     C22975   1.292   4.675   8.009 -0.2502 -0.3855 -0.1521
  171MOL0     C22976   1.235   4.686   8.128  0.1187  0.6307 -0.2425
  171MOL0     C22977   1.305   4.747   8.232  0.5460 -0.0512 -0.0222
  171MOL0     C22978   1.415   4.828   8.214  0.0211  0.1824  0.2436
  171MOL0     C22979   1.481   4.893   8.326 -1.1110 -0.6944 -0.7558
  171MOL0     O22980   1.402   4.939   8.420  0.7418 -0.2318 -0.2417
  171MOL0     C22981   1.439   4.950   8.551  0.2704 -0.4441 -0.2631
  171MOL0     C22982   1.565   4.924   8.604 -0.3686 -0.4522 -0.3234
  171MOL0     C22983   1.581   4.930   8.738  0.0435 -0.5364 -0.8825
  171MOL0     C22984   1.476   4.961   8.827 -0.2282  0.5180  0.6472
  171MOL0     O22985   1.491   4.957   8.957  0.4909 -0.5983  0.2476
  171MOL0     C22986   1.615   4.915   9.016 -0.0058  0.3719 -0.1994
  171MOL0     C22987   1.618   4.950   9.160  0.8384 -0.3485  0.1784
  171MOL0     C22988   1.653   5.097   9.183  0.2183  0.0217 -0.4636
  171MOL0     C22989   1.592   5.142   9.311 -0.1696 -0.0537 -0.5369
  171MOL0     C22990   1.585   5.296   9.328  0.0627 -0.8870  0.2858
  171MOL0     C22991   1.724   5.352   9.340  0.1699 -0.1580 -0.0281
  171MOL0     C22992   1.730   5.501   9.336  0.0917  0.6101 -0.6707
  171MOL0     C22993   1.715   5.552   9.193  0.2298 -0.5331  0.0060
  171MOL0    Cl22994   1.808   5.695   9.233 -0.4198 -0.6357 -0.4256
  171MOL0     C22995   1.348   4.983   8.778 -0.0323  0.6935  0.7145
  171MOL0     C22996   1.330   4.971   8.637  0.3641  0.2364  0.2541
  171MOL0     O22997   1.600   4.910   8.314  0.0238  0.5619  0.7811
  171MOL0     C22998   1.468   4.829   8.089  0.2520  0.2032  0.2097
  171MOL0     C22999   1.410   4.752   7.987  0.1526  0.4670 -0.0377
  171MOL0     N23000   0.852   4.145   7.549  0.2451 -0.0870 -0.5139
  171MOL0     N23001   0.753   4.073   7.558  0.7365 -0.4397 -0.0007
  171MOL0     C23002   0.170   3.430   7.104  0.0509  0.2045 -0.6865
  171MOL0     C23003   0.124   3.333   7.011 -0.7499 -0.8308 -0.2612
  171MOL0     C23004   0.024   3.155   6.595  0.6860  0.5195  0.1692
  171MOL0     C23005   0.026   3.187   6.457  0.4681  0.2331 -0.9882
  171MOL0     C23006  -0.022   3.095   6.360 -0.1424  0.5718  0.0804
  171MOL0     C23007  -0.079   2.973   6.407 -0.4588  0.1746  0.2593
  171MOL0     O23008  -0.101   2.868   6.312 -0.0177 -0.0256 -0.6488
  171MOL0     C23009   0.000   2.764   6.321 -0.9771 -0.3265  0.1918
  171MOL0     C23010   0.125   2.799   6.230 -0.8811  0.3715  1.1106
  171MOL0     C23011   0.089   2.789   6.084 -0.2198  0.5341 -0.2448
  171MOL0     C23012   0.201   2.793   5.989  1.1993  0.0561  0.0700
  171MOL0     C23013   0.256   2.931   5.982  0.5897  0.2257  0.0228
  171MOL0     C23014   0.279   3.052   5.984  0.1168  0.1094  0.5989
  171MOL0     C23015  -0.089   2.945   6.540 -0.2836  0.1060 -1.2986
  171MOL0     C23016  -0.039   3.037   6.639  0.4891  1.5223  0.2065
  171MOL0     C23017  -0.061   2.991   6.783  0.6553  0.1306 -0.4923
  171MOL0     H23018  -0.022   3.535   6.779 -0.3601  0.0950  0.6076
  171MOL0     H23019   0.060   3.698   6.935  0.1761  0.2009 -2.9896
  171MOL0     H23020   0.371   3.692   7.172 -0.9907  1.1617  1.0274
  171MOL0     H23021   0.296   3.754   7.018 -0.9368  1.2824 -0.8693
  171MOL0     H23022   0.173   3.930   7.175 -1.1750 -0.0408  1.7906
  171MOL0     H23023   0.349   3.933   7.156 -3.0268  2.6828 -2.2059
  171MOL0     H23024   0.341   3.801   7.387  0.2527  0.7370 -0.3996
  171MOL0     H23025   0.165   3.819   7.378 -2.3036  2.2744  1.0130
  171MOL0     H23026   0.380   4.044   7.400 -0.3916 -1.0094  0.1792
  171MOL0     H23027   0.214   4.078   7.356 -1.0187 -0.0435 -0.9623
  171MOL0     H23028   0.131   3.995   7.554  0.0818  0.1323 -3.7167
  171MOL0     H23029   0.280   3.921   7.620 -0.3178 -0.2748  0.4928
  171MOL0     H23030   0.204   4.214   7.598  2.2880  1.0638 -0.2224
  171MOL0     H23031   0.239   4.119   7.740  0.7062 -1.6692  0.0789
  171MOL0     H23032   0.409   4.280   7.675  2.0885 -0.8764  3.5220
  171MOL0     H23033   0.437   4.196   7.523 -4.0934 -1.3666 -0.9395
  171MOL0     H23034   0.517   4.100   7.800 -2.6724  4.2575 -0.7530
  171MOL0     H23035   0.509   3.988   7.660  0.0420 -0.5508  1.9488
  171MOL0     H23036   0.683   4.351   7.726 -1.0462  0.4439 -1.3402
  171MOL0     H23037   1.042   4.329   7.597  0.2267 -0.1937  1.3305
  171MOL0     H23038   0.904   4.435   7.554 -0.4260  0.5891  0.1772
  171MOL0     H23039   0.862   4.492   7.786 -3.0737 -2.8605 -0.2211
  171MOL0     H23040   0.947   4.344   7.837  0.7487 -0.5772 -0.7656
  171MOL0     H23041   1.073   4.600   7.715 -0.4027 -0.3110 -0.3059
  171MOL0     H23042   1.164   4.448   7.750  1.6099  1.6109  1.8790
  171MOL0     H23043   1.119   4.474   7.997 -1.1569  1.5890  1.6191
  171MOL0     H23044   1.039   4.627   7.955  1.9207  0.1832  1.9774
  171MOL0     H23045   1.141   4.634   8.146  0.5949 -0.2590 -0.2812
  171MOL0     H23046   1.271   4.731   8.334  0.5301  1.4325  0.2218
  171MOL0     H23047   1.650   4.884   8.551 -2.0058 -0.1306 -3.3864
  171MOL0     H23048   1.681   4.904   8.771  0.8358 -0.7484 -3.2602
  171MOL0     H23049   1.638   4.810   9.000 -4.3441 -0.8437  0.1759
  171MOL0     H23050   1.705   4.972   8.990  0.6281  0.3729  1.8716
  171MOL0     H23051   1.516   4.928   9.193  0.4702 -0.7741 -1.1696
  171MOL0     H23052   1.687   4.890   9.220  1.8286  2.0242  1.5549
  171MOL0     H23053   1.761   5.115   9.183  0.1696  0.3325 -0.8903
  171MOL0     H23054   1.617   5.162   9.103  2.6112  0.8057 -0.9780
  171MOL0     H23055   1.650   5.100   9.394  1.3942  1.9551 -0.5273
  171MOL0     H23056   1.489   5.108   9.325 -0.6619  0.0081 -3.4128
  171MOL0     H23057   1.526   5.332   9.412  0.4693  2.3072 -0.6603
  171MOL0     H23058   1.534   5.337   9.240 -1.5869  3.1575  2.8291
  171MOL0     H23059   1.745   5.327   9.444 -1.2177 -0.5154  0.1793
  171MOL0     H23060   1.793   5.315   9.263 -1.1249  2.6084 -2.6871
  171MOL0     H23061   1.832   5.510   9.375 -0.6418 -3.7876  3.1442
  171MOL0     H23062   1.653   5.557   9.389  1.3105  2.3069 -0.6033
  171MOL0     H23063   1.771   5.493   9.120 -0.7091 -2.2354  0.5971
  171MOL0     H23064   1.609   5.568   9.167 -1.4715 -3.8628  3.8171
  171MOL0     H23065   1.270   5.003   8.851 -0.4751 -0.8564  0.7012
  171MOL0     H23066   1.228   5.000   8.617 -0.2916 -0.6215  2.1382
  171MOL0     H23067   1.545   4.897   8.053 -0.1501 -0.9859 -3.3215
  171MOL0     H23068   1.457   4.767   7.891 -0.8116  0.5528 -0.5024
  171MOL0     H23069   0.225   3.415   7.197  0.7532  2.6379 -0.6311
  171MOL0     H23070   0.151   3.232   7.042  4.0124  0.5487  0.8963
  171MOL0     H23071   0.062   3.287   6.433 -0.9554  1.8664  2.8782
  171MOL0     H23072  -0.013   3.111   6.253 -2.4100 -0.7951 -0.4003
  171MOL0     H23073  -0.053   2.673   6.293  0.4759 -1.2297  0.2469
  171MOL0     H23074   0.027   2.756   6.426 -1.9126 -0.4239  0.4341
  171MOL0     H23075   0.202   2.724   6.253  1.2257  1.3897 -1.9520
  171MOL0     H23076   0.164   2.900   6.245 -1.0196  0.5600  0.2572
  171MOL0     H23077   0.018   2.871   6.067 -1.8061 -1.0432 -1.6134
  171MOL0     H23078   0.040   2.693   6.066 -0.2445  0.7630 -1.5136
  171MOL0     H23079   0.266   2.711   6.024 -4.1681 -3.6972  2.6271
  171MOL0     H23080   0.165   2.776   5.887  0.8085  0.2811  0.1732
  171MOL0     H23081   0.292   3.158   5.993 -2.6983  0.3951  3.1545
  171MOL0     H23082  -0.142   2.855   6.567  0.0344  0.5365  1.0260
  171MOL0     H23083   0.027   2.964   6.841 -1.1293  0.5147  2.5717
  171MOL0     H23084  -0.105   3.074   6.840 -0.1455 -0.6030 -0.0249
  171MOL0     H23085  -0.143   2.918   6.785  1.9373 -1.3271  0.1600
  172MOL0     O23086  11.127   5.739  10.678 -0.1201 -0.4304  0.3912
  172MOL0     C23087  11.098   5.692  10.788 -0.2910  0.3974 -0.4301
  172MOL0     O23088  11.111   5.745  10.907 -0.2341  0.0165  0.2824
  172MOL0     C23089  11.124   5.883  10.913 -0.8762 -0.3987 -1.1242
  172MOL0     C23090  11.018   5.967  10.873  0.0677 -0.5306 -0.2377
  172MOL0     C23091  11.031   6.108  10.889  0.2310  0.7984  0.5927
  172MOL0     C23092  11.173   6.154  10.919  0.3141  0.4768 -0.5033
  172MOL0     O23093  11.211   6.279  10.907 -0.1385 -0.9064  0.6093
  172MOL0     C23094  11.182   6.349  10.783 -1.0860  0.3577  0.9165
  172MOL0     C23095  11.301   6.332  10.681  0.0715 -0.5965 -0.7546
  172MOL0     C23096  11.294   6.429  10.564  0.3468 -0.1910 -1.1166
  172MOL0     C23097  11.150   6.432  10.494  0.4728  0.4885  0.7082
  172MOL0     C23098  11.139   6.519  10.365  1.1840  0.4541 -0.7825
  172MOL0     C23099  11.233   6.465  10.250  0.7352  0.1264 -0.0733
  172MOL0     C23100  11.204   6.317  10.198  0.8465 -0.2146  0.2742
  172MOL0     C23101  11.051   6.289  10.169 -0.5135 -0.2175 -0.4011
  172MOL0     N23102  11.018   6.146  10.169  0.2417  0.6945 -1.2218
  172MOL0     C23103  11.099   6.044  10.230 -0.2647 -0.6869 -0.1206
  172MOL0     C23104  11.039   5.929  10.189 -0.4114 -0.0407  0.0234
  172MOL0     C23105  11.081   5.799  10.233 -0.1151  0.4141 -0.6238
  172MOL0     C23106  11.231   5.773  10.228 -0.2347 -0.1003 -0.3158
  172MOL0     C23107  11.288   5.785  10.364 -0.0886 -0.8942 -0.4444
  172MOL0     C23108  11.439   5.762  10.359  1.1503  0.1062  0.9350
  172MOL0     O23109  11.509   5.847  10.261  0.0104 -0.5499 -0.3332
  172MOL0     C23110  11.543   5.975  10.308 -0.3173  0.2474  0.3587
  172MOL0     C23111  11.508   6.032  10.431  1.4078 -0.2462 -0.8691
  172MOL0     C23112  11.549   6.158  10.477  0.1279 -0.7326  0.0212
  172MOL0     C23113  11.624   6.240  10.391 -0.9533  0.2010 -0.1696
  172MOL0     C23114  11.678   6.372  10.427  0.1912 -0.4577 -0.1071
  172MOL0     O23115  11.781   6.431  10.349  0.2974  0.2092  0.7961
  172MOL0     C23116  11.819   6.564  10.376  0.0947  0.7713 -0.3897
  172MOL0     C23117  11.951   6.606  10.400  0.1658 -0.5259 -0.1155
  172MOL0     C23118  11.988   6.738  10.416 -0.1753 -0.9672 -0.2112
  172MOL0     C23119  11.887   6.838  10.416  0.2068  0.0944 -1.1612
  172MOL0     O23120  11.908   6.969  10.452 -0.0424  0.1159  0.4449
  172MOL0     C23121  12.032   7.042  10.444 -0.2367  0.4212 -0.4872
  172MOL0     C23122  12.142   7.033  10.556 -0.1176 -0.8134  0.3406
  172MOL0     C23123  12.127   7.147  10.662 -0.5839  0.6103  0.1445
  172MOL0     C23124  12.245   7.141  10.758 -0.5479 -0.4408  0.3060
  172MOL0     C23125  12.238   7.255  10.866 -0.1540 -0.0768  0.3622
  172MOL0     C23126  12.194   7.392  10.829  0.0601 -0.0760 -0.9257
  172MOL0     C23127  12.231   7.505  10.927 -1.0735  0.1303  0.5122
  172MOL0     C23128  12.148   7.500  11.056 -0.9802 -0.2681 -0.2003
  172MOL0    Cl23129  11.980   7.505  11.053 -0.0383  0.6045 -0.2114
  172MOL0     C23130  11.758   6.801  10.412 -0.2076  0.2157 -0.2953
  172MOL0     C23131  11.717   6.661  10.376  0.0859 -0.0298 -0.4629
  172MOL0     O23132  11.634   6.418  10.530  0.6280  0.3621  0.1146
  172MOL0     C23133  11.675   6.174  10.268  0.1375 -0.4317  0.0101
  172MOL0     C23134  11.635   6.047  10.229  0.0723 -0.0071  0.6377
  172MOL0     N23135  10.930   5.954  10.105  0.3148 -0.8569  0.1484
  172MOL0     N23136  10.917   6.089  10.096 -0.0262 -1.0376 -0.1278
  172MOL0     C23137  11.279   6.072  10.954  0.4740 -0.3199 -0.1741
  172MOL0     C23138  11.250   5.935  10.949 -0.5703 -0.5337 -0.0305
  172MOL0     C23139  11.066   5.543  10.791  0.3997 -0.6995 -0.8693
  172MOL0     C23140  11.019   5.502  10.923  0.3113  0.5084 -0.5130
  172MOL0     C23141  10.969   5.374  10.939 -0.1864  0.8136  0.4952
  172MOL0     C23142  10.960   5.282  10.838 -0.3186 -0.3626  0.3612
  172MOL0     O23143  10.913   5.159  10.840  0.1579  0.8741 -0.3500
  172MOL0     C23144  10.901   5.106  10.965 -0.2834 -0.8180  0.6712
  172MOL0     C23145  10.846   4.964  10.954 -0.8008 -0.0427  0.8530
  172MOL0     C23146  10.944   4.851  10.899 -0.0915 -0.7003 -0.1516
  172MOL0     C23147  10.875   4.713  10.902 -0.6815 -0.4370 -0.0125
  172MOL0     C23148  10.957   4.601  10.848  0.4476 -1.1423 -0.9112
  172MOL0     C23149  11.012   4.503  10.808 -0.1147 -1.1519  0.3014
  172MOL0     C23150  11.002   5.320  10.712  0.3842  0.0652  0.5378
  172MOL0     C23151  11.063   5.443  10.687  0.4755  0.5414 -0.0581
  172MOL0     C23152  11.122   5.464  10.555  0.1661  0.0384  0.7682
  172MOL0     H23153  10.920   5.923  10.852 -0.3704  0.4730 -0.3195
  172MOL0     H23154  10.945   6.174  10.881  0.3511  1.2937  2.8447
  172MOL0     H23155  11.083   6.326  10.742 -0.6688  1.7250 -1.0265
  172MOL0     H23156  11.178   6.455  10.809 -0.1289  0.6294  0.0159
  172MOL0     H23157  11.302   6.227  10.651 -1.3730 -1.2081  1.1163
  172MOL0     H23158  11.392   6.361  10.735 -1.2156  0.3805  1.0002
  172MOL0     H23159  11.371   6.403  10.491 -2.1027 -0.2746 -3.8272
  172MOL0     H23160  11.310   6.529  10.606  2.8482 -1.1545  0.5131
  172MOL0     H23161  11.116   6.328  10.482 -2.2441  1.3761 -0.1394
  172MOL0     H23162  11.081   6.465  10.573 -1.8397 -0.6806 -0.6883
  172MOL0     H23163  11.040   6.510  10.319  0.3905  0.0070  0.9335
  172MOL0     H23164  11.163   6.623  10.386  0.8585  0.0241  2.1683
  172MOL0     H23165  11.224   6.538  10.169 -2.7042  1.7012  1.5419
  172MOL0     H23166  11.341   6.473  10.268  0.9297  0.2624 -1.2200
  172MOL0     H23167  11.242   6.240  10.266  1.4609  0.8803  1.1848
  172MOL0     H23168  11.253   6.292  10.103  0.0755  0.8269 -0.4235
  172MOL0     H23169  10.977   6.339  10.232 -1.8839 -0.4848 -1.7359
  172MOL0     H23170  11.024   6.316  10.067  1.9515 -1.0836 -1.3464
  172MOL0     H23171  11.179   6.054  10.303 -2.7513 -1.1847  2.9089
  172MOL0     H23172  11.041   5.795  10.335  1.1632  3.5076  0.1130
  172MOL0     H23173  11.028   5.727  10.171 -2.1764 -1.3556  2.8592
  172MOL0     H23174  11.261   5.673  10.194  3.6986 -1.8225  6.2486
  172MOL0     H23175  11.281   5.849  10.168  1.1942 -0.1010  0.8177
  172MOL0     H23176  11.243   5.713  10.433 -1.5401  0.7766  0.4200
  172MOL0     H23177  11.279   5.880  10.418 -1.2987 -2.1269  1.6664
  172MOL0     H23178  11.449   5.663  10.314 -1.4823 -0.1831  0.8151
  172MOL0     H23179  11.489   5.771  10.456  2.4959 -2.3988  0.5596
  172MOL0     H23180  11.440   5.980  10.497 -1.0003  0.5149 -2.6012
  172MOL0     H23181  11.515   6.199  10.571 -1.2276 -1.4229 -0.1472
  172MOL0     H23182  12.032   6.533  10.406  2.9267  2.2870 -0.7870
  172MOL0     H23183  12.093   6.764  10.428  0.2775 -2.4972 -0.5969
  172MOL0     H23184  12.095   7.016  10.358  1.9947 -0.7413  1.3608
  172MOL0     H23185  12.005   7.148  10.438 -0.9502  0.2089 -1.1433
  172MOL0     H23186  12.138   6.928  10.586  0.8371 -2.1502 -3.5773
  172MOL0     H23187  12.237   7.053  10.506  2.2284 -2.2808  3.8354
  172MOL0     H23188  12.115   7.248  10.622 -0.6645  0.0899 -1.1844
  172MOL0     H23189  12.029   7.122  10.702 -1.3522 -0.7234 -2.3496
  172MOL0     H23190  12.336   7.137  10.697  0.2946 -2.5375  1.5951
  172MOL0     H23191  12.252   7.045  10.810 -3.2828  0.2509  2.1383
  172MOL0     H23192  12.335   7.264  10.916  0.5429 -2.3107 -0.4729
  172MOL0     H23193  12.178   7.219  10.950 -0.7020 -0.5710 -0.2325
  172MOL0     H23194  12.246   7.423  10.737  0.2249 -4.1478 -2.3874
  172MOL0     H23195  12.088   7.399  10.802  0.4161  1.1925 -2.1256
  172MOL0     H23196  12.203   7.599  10.877  0.8750 -0.2248 -1.3898
  172MOL0     H23197  12.338   7.501  10.950 -0.6575  0.1691 -1.2725
  172MOL0     H23198  12.165   7.410  11.116 -0.7131 -1.0463 -1.4052
  172MOL0     H23199  12.193   7.571  11.126  0.2992 -3.3817  2.3975
  172MOL0     H23200  11.682   6.871  10.447 -1.0430 -0.3883 -0.8432
  172MOL0     H23201  11.617   6.624  10.356  1.0113 -2.7422 -0.4116
  172MOL0     H23202  11.748   6.222  10.203 -1.1106  0.6090 -0.6613
  172MOL0     H23203  11.661   6.004  10.133 -3.2628 -3.1218  0.9465
  172MOL0     H23204  11.380   6.099  10.981  0.0531 -1.8327  3.5976
  172MOL0     H23205  11.321   5.868  10.996  0.9883  0.8783 -0.3167
  172MOL0     H23206  11.019   5.560  11.014 -0.6445  0.2818 -0.3621
  172MOL0     H23207  10.939   5.354  11.041  1.6962  0.3951  1.0032
  172MOL0     H23208  10.829   5.173  11.014 -1.4557 -0.8075 -1.0041
  172MOL0     H23209  10.991   5.122  11.026  0.2755  4.4657 -0.9999
  172MOL0     H23210  10.752   4.957  10.899 -0.4714  1.5194  0.0246
  172MOL0     H23211  10.827   4.937  11.058  2.3182 -1.9169  1.0757
  172MOL0     H23212  11.042   4.840  10.948 -0.2386  3.5072  1.4640
  172MOL0     H23213  10.962   4.867  10.792  1.1384  0.0852  0.1528
  172MOL0     H23214  10.843   4.680  11.001 -0.2304  0.1334  0.3381
  172MOL0     H23215  10.780   4.719  10.849  1.3200  5.3442 -4.0204
  172MOL0     H23216  11.057   4.427  10.747  2.8356 -1.3426  2.4770
  172MOL0     H23217  11.004   5.251  10.628 -0.9054 -0.1649  0.6754
  172MOL0     H23218  11.231   5.461  10.551  0.1444 -0.2562  0.2285
  172MOL0     H23219  11.106   5.382  10.485 -1.8642 -1.1306  2.5148
  172MOL0     H23220  11.092   5.558  10.507  1.6315 -0.0037 -0.3034
  173MOL0     O23221   9.365   0.951   8.417 -0.3289  0.1649 -0.2926
  173MOL0     C23222   9.379   0.834   8.384  0.4627  0.1162 -0.2120
  173MOL0     O23223   9.494   0.785   8.329 -0.1495  0.0096 -0.7480
  173MOL0     C23224   9.600   0.871   8.334  0.0797 -0.2653 -0.2025
  173MOL0     C23225   9.621   0.967   8.233  0.9366  0.3212  0.1051
  173MOL0     C23226   9.737   1.041   8.232 -0.3514  0.2009  0.1627
  173MOL0     C23227   9.838   1.019   8.332  0.5229 -0.2862 -0.6369
  173MOL0     O23228   9.956   1.094   8.337 -0.3196  1.0025 -0.0931
  173MOL0     C23229   9.927   1.232   8.301  0.5877 -0.6997  0.2917
  173MOL0     C23230  10.042   1.316   8.352  1.1266  0.0896 -0.9202
  173MOL0     C23231   9.985   1.455   8.385 -0.0001  0.1457  0.6047
  173MOL0     C23232   9.954   1.540   8.254  0.3495 -1.3007  0.1354
  173MOL0     C23233   9.887   1.670   8.298 -0.7898  0.4424  0.3263
  173MOL0     C23234   9.864   1.757   8.172  0.3593  0.4254  0.9764
  173MOL0     C23235   9.744   1.856   8.187 -0.3962 -0.5717  0.2787
  173MOL0     C23236   9.771   1.940   8.317 -0.3112 -0.4562  0.7763
  173MOL0     N23237   9.843   2.070   8.292 -0.1420  0.2376  0.8319
  173MOL0     C23238   9.814   2.167   8.195  0.4178  0.5711 -0.1234
  173MOL0     C23239   9.909   2.260   8.202 -0.1640  0.2969 -0.6282
  173MOL0     C23240   9.936   2.389   8.132  0.5023 -0.3635  0.1360
  173MOL0     C23241   9.901   2.510   8.225  0.1500  0.1540 -0.3452
  173MOL0     C23242   9.751   2.523   8.265 -0.0962  0.0203  1.4513
  173MOL0     C23243   9.654   2.532   8.147  0.6015 -0.6173  0.0814
  173MOL0     O23244   9.686   2.644   8.059  0.1447 -1.0267  0.7985
  173MOL0     C23245   9.605   2.640   7.946  0.1138  0.6080 -0.2634
  173MOL0     C23246   9.492   2.722   7.932  0.1130  0.3694 -0.6212
  173MOL0     C23247   9.408   2.710   7.818  0.7154 -0.1773 -0.4535
  173MOL0     C23248   9.449   2.639   7.699  0.2159 -0.0645  0.3683
  173MOL0     C23249   9.365   2.631   7.582  0.1023 -0.2880  0.1756
  173MOL0     O23250   9.242   2.696   7.585 -0.1972 -0.2842  0.7033
  173MOL0     C23251   9.160   2.698   7.473 -0.5774 -0.1515 -0.0894
  173MOL0     C23252   9.028   2.672   7.496  0.0431  0.1296  0.2186
  173MOL0     C23253   8.940   2.698   7.393  0.1069 -0.0101  0.7059
  173MOL0     C23254   8.982   2.738   7.264  0.4424  0.2242 -0.4402
  173MOL0     O23255   8.880   2.750   7.174 -0.3957 -0.0806 -0.5854
  173MOL0     C23256   8.913   2.782   7.038  0.0013 -0.3090 -0.3142
  173MOL0     C23257   8.789   2.782   6.946 -1.5770  0.0583  0.3234
  173MOL0     C23258   8.719   2.647   6.948  0.5089 -0.2366 -0.0564
  173MOL0     C23259   8.612   2.634   6.844 -0.2701 -0.4907  0.1437
  173MOL0     C23260   8.540   2.504   6.867  0.6195  0.1269 -0.1171
  173MOL0     C23261   8.458   2.469   6.739  0.4033 -0.6878 -0.5680
  173MOL0     C23262   8.382   2.331   6.757 -0.7837 -1.1058  0.5553
  173MOL0     C23263   8.291   2.322   6.628  0.6012 -0.1757  1.0457
  173MOL0    Cl23264   8.393   2.242   6.511 -0.1662  0.4204  0.0700
  173MOL0     C23265   9.113   2.773   7.245  0.0595 -0.0825 -0.8627
  173MOL0     C23266   9.204   2.751   7.348  1.3367  0.1380 -0.2791
  173MOL0     O23267   9.397   2.546   7.502  0.8382  1.1112  1.4105
  173MOL0     C23268   9.572   2.572   7.712  0.8299  0.2613  0.1915
  173MOL0     C23269   9.650   2.571   7.829 -0.1413  1.3411 -0.6504
  173MOL0     N23270   9.999   2.210   8.296 -0.7874  0.3529  0.0071
  173MOL0     N23271   9.965   2.091   8.346 -0.4967 -0.8846 -0.5766
  173MOL0     C23272   9.809   0.933   8.435  0.2995  0.3041 -1.2346
  173MOL0     C23273   9.694   0.859   8.441 -1.0469 -0.3552 -0.0283
  173MOL0     C23274   9.270   0.733   8.421  0.3765 -0.7070 -0.0515
  173MOL0     C23275   9.305   0.598   8.433 -0.2078 -0.4664  0.1162
  173MOL0     C23276   9.210   0.509   8.487 -0.0349  0.0052 -0.8825
  173MOL0     C23277   9.086   0.546   8.543 -0.0823  0.2260 -0.0784
  173MOL0     O23278   9.004   0.447   8.603  0.2795 -0.5990  0.5505
  173MOL0     C23279   8.938   0.483   8.728 -0.2995 -1.5469 -0.4123
  173MOL0     C23280   8.787   0.512   8.709 -0.0851  0.2165  0.5157
  173MOL0     C23281   8.693   0.394   8.675  0.2285  0.1489 -0.5003
  173MOL0     C23282   8.558   0.445   8.638  0.1245 -0.2085  0.3688
  173MOL0     C23283   8.481   0.482   8.754  0.1003 -0.2393  1.0915
  173MOL0     C23284   8.425   0.497   8.862  0.4519 -0.0440  0.1662
  173MOL0     C23285   9.048   0.672   8.516 -0.3510 -0.0453  0.4389
  173MOL0     C23286   9.134   0.767   8.458  1.5417 -0.5539  0.9689
  173MOL0     C23287   9.065   0.892   8.430 -0.4489  0.1301  0.2647
  173MOL0     H23288   9.544   0.985   8.160  0.9322  1.7326  0.4244
  173MOL0     H23289   9.768   1.107   8.151 -0.7589  0.2347  0.0321
  173MOL0     H23290   9.915   1.247   8.193 -2.3305 -0.0681  0.6115
  173MOL0     H23291   9.836   1.258   8.356 -1.6025 -1.3845 -2.7360
  173MOL0     H23292  10.122   1.319   8.277 -0.6828  2.0420 -2.9094
  173MOL0     H23293  10.074   1.281   8.451  1.4382  2.1160 -0.2472
  173MOL0     H23294  10.058   1.502   8.451 -1.2209  1.2834  1.2093
  173MOL0     H23295   9.892   1.440   8.441 -0.5683 -2.2959 -0.8324
  173MOL0     H23296  10.043   1.548   8.191  1.0336 -2.7152  0.8704
  173MOL0     H23297   9.875   1.477   8.211 -2.2408  0.6406  1.7453
  173MOL0     H23298   9.796   1.653   8.355 -0.9771  0.7956  0.1422
  173MOL0     H23299   9.955   1.723   8.366 -0.3501  4.1939 -2.6623
  173MOL0     H23300   9.955   1.813   8.150 -0.0348  0.1610 -1.6497
  173MOL0     H23301   9.850   1.705   8.077 -0.6581  0.7358  0.9458
  173MOL0     H23302   9.646   1.806   8.187  0.2492 -1.8920  0.0618
  173MOL0     H23303   9.759   1.916   8.097  0.3377  2.5710  2.3516
  173MOL0     H23304   9.675   1.978   8.355 -0.1662 -0.6395  1.3191
  173MOL0     H23305   9.821   1.886   8.397  0.3768 -3.7882 -1.6861
  173MOL0     H23306   9.726   2.165   8.132 -0.3683 -4.7662  0.6504
  173MOL0     H23307  10.040   2.393   8.096  0.3243 -1.7925 -0.5992
  173MOL0     H23308   9.879   2.390   8.039 -0.1453 -2.9475  0.4404
  173MOL0     H23309   9.961   2.506   8.316 -0.5220 -0.5442  0.0893
  173MOL0     H23310   9.930   2.590   8.157 -1.3958  0.0132 -1.2231
  173MOL0     H23311   9.749   2.605   8.336 -0.3274  0.9195  0.4369
  173MOL0     H23312   9.722   2.429   8.314 -4.0638  0.2397 -0.1401
  173MOL0     H23313   9.550   2.542   8.178 -1.0208 -3.5696 -3.6044
  173MOL0     H23314   9.662   2.438   8.091 -1.5466 -2.2542  2.2807
  173MOL0     H23315   9.453   2.780   8.015  1.5940  1.1561 -0.4414
  173MOL0     H23316   9.310   2.756   7.809  1.1476  1.5690  2.4226
  173MOL0     H23317   8.992   2.629   7.589 -3.8187 -1.0157 -1.6063
  173MOL0     H23318   8.836   2.681   7.421  0.5612 -4.2120  0.5428
  173MOL0     H23319   8.952   2.884   7.043 -0.3458 -0.1596  5.0631
  173MOL0     H23320   8.998   2.723   7.002  1.4367  1.6868 -0.4132
  173MOL0     H23321   8.728   2.866   6.980  0.8955  1.3930  1.7334
  173MOL0     H23322   8.823   2.819   6.849 -0.7582 -1.1297  0.1286
  173MOL0     H23323   8.794   2.568   6.943 -1.1515 -1.8800 -0.2841
  173MOL0     H23324   8.665   2.641   7.043  1.6164 -2.6555  0.4939
  173MOL0     H23325   8.658   2.643   6.745 -2.5809 -2.1935 -1.1990
  173MOL0     H23326   8.536   2.712   6.853  1.3921  1.2291 -0.0048
  173MOL0     H23327   8.480   2.520   6.957 -0.6258 -2.8223 -0.3011
  173MOL0     H23328   8.609   2.421   6.887  0.5071 -1.0353 -3.7862
  173MOL0     H23329   8.387   2.551   6.725  0.4801 -0.6166 -0.5363
  173MOL0     H23330   8.521   2.484   6.651  1.8154  3.2082  0.9026
  173MOL0     H23331   8.312   2.334   6.841  0.1457  3.2710  1.4739
  173MOL0     H23332   8.455   2.251   6.764 -0.0569 -0.4224  0.9691
  173MOL0     H23333   8.211   2.255   6.661 -1.8724  2.6811  1.3228
  173MOL0     H23334   8.259   2.420   6.590 -1.2799 -1.4176 -0.7287
  173MOL0     H23335   9.158   2.824   7.160 -0.2100  2.0402  0.2118
  173MOL0     H23336   9.310   2.775   7.337  2.4825 -2.8927  2.3344
  173MOL0     H23337   9.601   2.500   7.636 -2.8283 -0.9940 -0.1825
  173MOL0     H23338   9.736   2.507   7.849 -0.1856  1.7150  0.8411
  173MOL0     H23339   9.883   0.908   8.511  2.3372 -1.5356 -3.6132
  173MOL0     H23340   9.665   0.778   8.508 -1.1127 -2.7763 -2.7835
  173MOL0     H23341   9.397   0.548   8.406 -0.9815 -1.9353  0.0959
  173MOL0     H23342   9.252   0.411   8.510  0.4084  0.4141  0.1101
  173MOL0     H23343   8.981   0.575   8.771 -2.9966 -1.6848  3.0249
  173MOL0     H23344   8.967   0.407   8.800 -0.2316 -1.1052  0.0340
  173MOL0     H23345   8.773   0.589   8.633 -0.7285 -0.7903 -0.4110
  173MOL0     H23346   8.752   0.564   8.799 -0.6406  1.5601 -0.4391
  173MOL0     H23347   8.686   0.329   8.763  1.1652  1.9150  0.9233
  173MOL0     H23348   8.742   0.340   8.593 -1.6575  0.0975 -1.6636
  173MOL0     H23349   8.563   0.523   8.561  1.4558 -0.9233 -0.2969
  173MOL0     H23350   8.498   0.367   8.589 -1.0049  2.0219 -2.0306
  173MOL0     H23351   8.384   0.494   8.961  1.5316 -0.9387  0.6016
  173MOL0     H23352   8.953   0.707   8.555  0.2898  2.1352  0.1806
  173MOL0     H23353   8.981   0.871   8.363 -0.1820 -2.0315  0.5330
  173MOL0     H23354   9.027   0.938   8.521 -2.6869  0.5672 -0.8070
  173MOL0     H23355   9.120   0.971   8.378  0.3688 -0.2060  0.6013
  174MOL0     O23356   4.854   3.197  10.577  0.0952 -0.7762 -0.8407
  174MOL0     C23357   4.758   3.189  10.498  0.0889 -1.2939 -0.2246
  174MOL0     O23358   4.661   3.098  10.495  0.0138  0.6473  0.2905
  174MOL0     C23359   4.677   2.982  10.570 -0.6871 -0.6664 -0.1147
  174MOL0     C23360   4.591   2.962  10.679  0.6286  0.5837 -0.7649
  174MOL0     C23361   4.608   2.844  10.758  0.4889  0.7588 -0.8764
  174MOL0     C23362   4.700   2.744  10.728  1.8733 -0.0182 -0.1843
  174MOL0     O23363   4.704   2.645  10.818  0.2516  0.3630  0.9771
  174MOL0     C23364   4.800   2.542  10.798 -0.6637  0.5271 -0.0559
  174MOL0     C23365   4.782   2.416  10.893  0.0324 -0.3730 -1.4924
  174MOL0     C23366   4.664   2.327  10.833 -0.4604 -0.8552 -0.6106
  174MOL0     C23367   4.603   2.212  10.911  0.1119 -0.1204  0.4072
  174MOL0     C23368   4.474   2.252  10.975 -0.5924  0.0068 -0.7648
  174MOL0     C23369   4.437   2.110  11.040 -0.0903 -1.3429 -0.2448
  174MOL0     C23370   4.295   2.103  11.095 -0.3080 -0.3133 -0.2272
  174MOL0     C23371   4.286   2.194  11.221  0.2744 -0.2580 -0.7210
  174MOL0     N23372   4.152   2.185  11.278  0.0857  0.6110 -0.0122
  174MOL0     C23373   4.089   2.066  11.308  0.6443  0.5473 -0.1250
  174MOL0     C23374   3.988   2.095  11.392  0.1109  0.4329  0.6492
  174MOL0     C23375   3.906   1.986  11.456  0.0922 -0.1855 -0.0631
  174MOL0     C23376   3.988   1.891  11.548  0.1267  0.8719  0.1624
  174MOL0     C23377   4.008   1.959  11.686  0.2266  0.5019 -0.0646
  174MOL0     C23378   4.089   1.869  11.790 -0.0446 -0.1903 -0.3598
  174MOL0     O23379   4.104   1.943  11.909  0.1175  0.9898  0.0721
  174MOL0     C23380   4.182   1.891  12.011 -0.3904 -0.4433  1.4090
  174MOL0     C23381   4.173   1.958  12.130  0.0459 -1.0247  0.2012
  174MOL0     C23382   4.244   1.898  12.243 -0.1184  0.4681 -0.3633
  174MOL0     C23383   4.328   1.793  12.233  0.0427 -1.5552 -0.1327
  174MOL0     C23384   4.401   1.739  12.352 -0.1157  1.0539  0.7598
  174MOL0     O23385   4.425   1.812  12.461  0.9520 -0.3886  0.4581
  174MOL0     C23386   4.489   1.756  12.567 -0.4269  0.8113  0.0625
  174MOL0     C23387   4.429   1.764  12.688 -0.0817 -0.3949 -0.0054
  174MOL0     C23388   4.484   1.700  12.798  0.2742 -0.2969 -0.3768
  174MOL0     C23389   4.604   1.635  12.797 -0.3717  0.1163 -0.2347
  174MOL0     O23390   4.653   1.577  12.907 -0.1523 -0.1964 -0.0530
  174MOL0     C23391   4.684   1.438  12.897 -1.0005  0.3059  0.1178
  174MOL0     C23392   4.791   1.404  12.997 -0.9436 -0.5888 -0.1374
  174MOL0     C23393   4.743   1.442  13.137  0.4840 -0.6889 -0.2764
  174MOL0     C23394   4.761   1.326  13.232  0.0038  0.0370 -0.3504
  174MOL0     C23395   4.753   1.370  13.373  1.4859  0.6202 -0.5223
  174MOL0     C23396   4.608   1.382  13.426  0.6785  0.5889  0.2346
  174MOL0     C23397   4.604   1.405  13.581  0.1119 -0.6336 -0.3146
  174MOL0     C23398   4.664   1.539  13.610 -0.0210  0.3745 -0.7956
  174MOL0    Cl23399   4.558   1.671  13.555  0.2673 -0.0696 -0.3026
  174MOL0     C23400   4.674   1.625  12.678  0.3571 -0.6540  0.3864
  174MOL0     C23401   4.621   1.693  12.562  0.0681  0.2314  0.5175
  174MOL0     O23402   4.455   1.629  12.320 -0.1359 -0.4341 -0.4351
  174MOL0     C23403   4.330   1.739  12.105 -0.0309 -0.3666 -0.1875
  174MOL0     C23404   4.274   1.784  11.989  0.3000  0.4000 -0.8597
  174MOL0     N23405   3.975   2.232  11.398 -0.1879  0.0180  0.3952
  174MOL0     N23406   4.079   2.292  11.336  1.7879  0.5114 -1.0391
  174MOL0     C23407   4.779   2.768  10.621 -0.6821 -0.1634  0.7151
  174MOL0     C23408   4.780   2.892  10.548 -1.1144 -0.4416 -0.0891
  174MOL0     C23409   4.760   3.300  10.391 -0.6216 -1.2326 -0.8474
  174MOL0     C23410   4.836   3.426  10.419 -0.5863  0.6230 -0.0340
  174MOL0     C23411   4.834   3.541  10.350 -0.1731 -0.3446  1.2142
  174MOL0     C23412   4.763   3.537  10.233  0.5588 -0.4889 -0.1032
  174MOL0     O23413   4.751   3.643  10.144  0.5239 -0.1834 -0.4012
  174MOL0     C23414   4.646   3.726  10.187  0.4559  0.3592  0.6701
  174MOL0     C23415   4.676   3.862  10.125  0.7697  0.2165  0.5299
  174MOL0     C23416   4.565   3.965  10.167 -0.1940  0.3986  0.3415
  174MOL0     C23417   4.570   4.001  10.313 -0.6482 -1.1413 -0.5951
  174MOL0     C23418   4.484   4.118  10.342  0.4475 -0.4795 -0.4451
  174MOL0     C23419   4.437   4.228  10.369  0.5571 -0.8746 -0.3681
  174MOL0     C23420   4.710   3.419  10.187  1.4368 -0.3021 -0.0533
  174MOL0     C23421   4.713   3.300  10.260 -0.6951  0.5537 -0.0915
  174MOL0     C23422   4.647   3.168  10.200  0.7054 -0.1398  0.9812
  174MOL0     H23423   4.525   3.027  10.737  3.4785  1.3602  1.8777
  174MOL0     H23424   4.532   2.847  10.835 -0.2545  0.8611 -1.5953
  174MOL0     H23425   4.802   2.502  10.696  1.9512 -0.8254  0.4474
  174MOL0     H23426   4.894   2.593  10.819 -1.9375  2.6962  0.7896
  174MOL0     H23427   4.748   2.448  10.992 -4.6667 -1.1063 -2.6321
  174MOL0     H23428   4.874   2.357  10.896 -1.2871 -2.9870 -5.4553
  174MOL0     H23429   4.705   2.294  10.737 -1.3769  0.9788 -1.6884
  174MOL0     H23430   4.587   2.404  10.825  1.1912  1.0766  0.8778
  174MOL0     H23431   4.595   2.129  10.840  2.0864  0.2467 -0.2999
  174MOL0     H23432   4.662   2.188  11.000 -0.1632 -0.1746  0.5731
  174MOL0     H23433   4.487   2.336  11.043  3.4141 -0.7997 -0.3200
  174MOL0     H23434   4.400   2.290  10.904 -1.4789 -0.0288  0.1202
  174MOL0     H23435   4.455   2.028  10.969  0.5149 -0.5252 -1.0628
  174MOL0     H23436   4.510   2.095  11.120 -0.0738 -0.0148  0.0059
  174MOL0     H23437   4.288   1.997  11.122  2.2273 -0.0192  1.9549
  174MOL0     H23438   4.228   2.143  11.018  0.9216  1.9392 -0.1968
  174MOL0     H23439   4.348   2.159  11.304  3.5241  2.9365 -1.5516
  174MOL0     H23440   4.323   2.294  11.197  2.8049 -0.2044  2.7130
  174MOL0     H23441   4.124   1.968  11.277  1.8100  0.4685  1.2918
  174MOL0     H23442   3.828   2.034  11.516  1.4305  2.4883 -0.3180
  174MOL0     H23443   3.858   1.923  11.379 -0.4774 -0.2037  0.2993
  174MOL0     H23444   3.945   1.791  11.561 -2.5823  2.2291  2.5857
  174MOL0     H23445   4.081   1.880  11.490 -0.6691  2.3417 -1.4827
  174MOL0     H23446   3.910   1.987  11.725  1.5594  2.1568  2.3598
  174MOL0     H23447   4.068   2.050  11.686  2.3553 -0.8378 -0.0522
  174MOL0     H23448   4.184   1.848  11.738  0.1891  0.2718 -0.1273
  174MOL0     H23449   4.032   1.777  11.804  0.7993 -0.4181  2.0416
  174MOL0     H23450   4.117   2.050  12.147  0.4247 -0.0638 -3.1021
  174MOL0     H23451   4.249   1.945  12.341 -1.5613 -2.1628  1.0814
  174MOL0     H23452   4.330   1.806  12.704  0.3309  0.4616  0.3808
  174MOL0     H23453   4.441   1.690  12.897  0.1884 -1.9847 -0.5533
  174MOL0     H23454   4.598   1.374  12.918  0.7734 -1.6697  1.9539
  174MOL0     H23455   4.734   1.397  12.808 -0.8092  1.7212 -0.4502
  174MOL0     H23456   4.820   1.299  12.991 -0.6400 -0.7051  2.3198
  174MOL0     H23457   4.886   1.452  12.972 -0.5359 -0.8193  0.9159
  174MOL0     H23458   4.808   1.527  13.159  0.1417 -0.1667 -1.2284
  174MOL0     H23459   4.639   1.469  13.153  0.1284 -1.7436 -0.7061
  174MOL0     H23460   4.864   1.291  13.222  0.6566  1.7851 -0.2121
  174MOL0     H23461   4.696   1.245  13.197  0.6315 -0.3794 -0.5575
  174MOL0     H23462   4.803   1.466  13.385  1.7619  0.2821  1.3823
  174MOL0     H23463   4.798   1.295  13.439  0.7036  0.4018 -0.2157
  174MOL0     H23464   4.540   1.455  13.381 -1.3296 -0.6569  1.0704
  174MOL0     H23465   4.552   1.289  13.407  1.1661  0.0265  1.4352
  174MOL0     H23466   4.658   1.330  13.640 -1.1135 -1.4918 -0.2269
  174MOL0     H23467   4.498   1.411  13.609  0.6654  0.3690  1.7324
  174MOL0     H23468   4.669   1.541  13.719 -1.4748 -1.3285 -0.6487
  174MOL0     H23469   4.769   1.549  13.581 -0.1422 -0.7486 -1.7289
  174MOL0     H23470   4.776   1.589  12.664  1.2200  2.6356 -3.7209
  174MOL0     H23471   4.677   1.697  12.469 -1.9736  0.3870 -0.7712
  174MOL0     H23472   4.387   1.649  12.083  1.3704  0.6723 -0.9842
  174MOL0     H23473   4.284   1.728  11.896 -2.8096 -4.1693  1.1973
  174MOL0     H23474   4.856   2.697  10.591 -0.5536  0.6036 -0.8996
  174MOL0     H23475   4.857   2.924  10.478 -0.6020  0.1363  0.7109
  174MOL0     H23476   4.883   3.426  10.517 -2.7394 -1.9245  1.1414
  174MOL0     H23477   4.874   3.637  10.382 -1.6860  0.7302  0.0646
  174MOL0     H23478   4.635   3.736  10.295  0.5227 -2.1410  0.9655
  174MOL0     H23479   4.560   3.688  10.131  1.4966 -0.0068 -0.7503
  174MOL0     H23480   4.670   3.861  10.016  0.9513  3.4668  0.4061
  174MOL0     H23481   4.780   3.885  10.150  1.7280 -1.7557 -1.3440
  174MOL0     H23482   4.465   3.923  10.155 -1.7386  3.6013  1.0402
  174MOL0     H23483   4.566   4.059  10.111  0.3360  0.0366 -0.2770
  174MOL0     H23484   4.541   3.918  10.378 -5.3276  0.8262  0.2682
  174MOL0     H23485   4.669   4.041  10.336 -1.4222  2.5833 -2.8187
  174MOL0     H23486   4.401   4.324  10.401  0.9134 -1.0618  0.6450
  174MOL0     H23487   4.663   3.430  10.090 -0.4254  0.7347  0.8966
  174MOL0     H23488   4.724   3.098  10.164  1.9800  2.2784 -1.3220
  174MOL0     H23489   4.585   3.118  10.275  1.2750  1.3738  2.5231
  174MOL0     H23490   4.580   3.205  10.122  0.8580  1.6248  1.6574
  175MOL0     O23491   5.470   8.424   0.764 -0.3205 -0.6740 -0.4751
  175MOL0     C23492   5.442   8.541   0.794 -0.5252  0.0696  0.4213
  175MOL0     O23493   5.378   8.580   0.906 -0.1952  0.0945 -0.6752
  175MOL0     C23494   5.348   8.484   0.999 -0.3952  1.0662 -0.6855
  175MOL0     C23495   5.424   8.477   1.122  0.4919  0.8082 -0.2915
  175MOL0     C23496   5.405   8.364   1.213 -0.1316 -0.5401  0.0383
  175MOL0     C23497   5.301   8.283   1.180 -0.7803  0.9221  0.1084
  175MOL0     O23498   5.280   8.177   1.269 -0.0647  0.5301  0.9695
  175MOL0     C23499   5.236   8.047   1.220  0.6991  0.3587  0.3456
  175MOL0     C23500   5.189   7.947   1.329  0.0394 -0.0796  0.5859
  175MOL0     C23501   5.052   7.977   1.393 -0.1017  0.5768  0.7191
  175MOL0     C23502   5.019   7.892   1.514 -0.7170 -0.5913 -0.1454
  175MOL0     C23503   4.871   7.913   1.547 -0.3519  0.2071  0.1624
  175MOL0     C23504   4.830   7.855   1.673  0.5670  1.1822 -0.3925
  175MOL0     C23505   4.718   7.924   1.735  0.4951 -0.1204  0.4367
  175MOL0     C23506   4.698   7.900   1.885 -1.7142 -0.0511 -0.4187
  175MOL0     N23507   4.667   7.760   1.911  0.5398  0.1622  0.0984
  175MOL0     C23508   4.750   7.660   1.960  0.3202  0.4619 -0.0158
  175MOL0     C23509   4.688   7.538   1.936  0.0716 -0.8321 -0.1879
  175MOL0     C23510   4.744   7.405   1.978  0.0223 -0.6089  0.6665
  175MOL0     C23511   4.637   7.297   1.971 -0.0496 -0.1925  0.3881
  175MOL0     C23512   4.682   7.155   1.963 -0.0733  0.0520  0.5418
  175MOL0     C23513   4.604   7.069   2.067  1.1034 -0.1003  0.6130
  175MOL0     O23514   4.670   6.937   2.084  0.4996  0.5558  0.7832
  175MOL0     C23515   4.623   6.843   2.167 -0.0579 -0.4598 -0.3524
  175MOL0     C23516   4.511   6.862   2.246  0.9698  0.6571  0.6199
  175MOL0     C23517   4.475   6.755   2.334  0.5009  0.1851  0.3203
  175MOL0     C23518   4.579   6.655   2.371  0.6941  0.8665  0.1221
  175MOL0     C23519   4.546   6.557   2.474 -0.8339 -0.6497 -0.1644
  175MOL0     O23520   4.643   6.462   2.506 -0.1674  1.3293 -0.5374
  175MOL0     C23521   4.634   6.397   2.634  0.1931  0.1998  0.6034
  175MOL0     C23522   4.609   6.257   2.639  0.8421  0.5199 -0.6307
  175MOL0     C23523   4.582   6.185   2.756  0.4520 -0.2190  0.3298
  175MOL0     C23524   4.615   6.252   2.877 -0.6435  0.1938  0.5623
  175MOL0     O23525   4.599   6.189   2.997 -0.4414 -0.6159  0.7118
  175MOL0     C23526   4.698   6.215   3.097 -0.6192  0.5323  1.6540
  175MOL0     C23527   4.717   6.081   3.175 -0.2102  0.3715 -0.7111
  175MOL0     C23528   4.594   6.033   3.254  1.2526  0.3905 -0.2995
  175MOL0     C23529   4.519   6.155   3.310 -0.1374  0.4568 -0.9233
  175MOL0     C23530   4.400   6.108   3.392  0.1200  0.2775 -0.4789
  175MOL0     C23531   4.448   6.046   3.524  0.6208 -0.3751  0.0928
  175MOL0     C23532   4.342   6.042   3.635  0.5795 -0.4740 -0.9366
  175MOL0     C23533   4.406   5.972   3.758 -0.0341  1.1575 -0.4379
  175MOL0    Cl23534   4.475   5.805   3.708  0.2174  0.3342  0.1957
  175MOL0     C23535   4.666   6.392   2.869  0.9345  0.3669  0.3242
  175MOL0     C23536   4.660   6.465   2.751 -1.0047  0.5882 -0.6986
  175MOL0     O23537   4.445   6.581   2.538  0.8885 -0.1626 -0.5233
  175MOL0     C23538   4.695   6.646   2.291  0.3417  0.5628 -0.1962
  175MOL0     C23539   4.717   6.738   2.189 -0.1208  0.1269 -1.1462
  175MOL0     N23540   4.569   7.574   1.867  0.5778  0.4826  1.0596
  175MOL0     N23541   4.560   7.696   1.853 -0.5954  0.4339 -0.0740
  175MOL0     C23542   5.231   8.287   1.064  0.4955  0.3971  0.0875
  175MOL0     C23543   5.250   8.390   0.982  0.6503 -0.6538  0.1703
  175MOL0     C23544   5.472   8.640   0.690 -0.8290 -0.4163 -0.6026
  175MOL0     C23545   5.409   8.768   0.701 -0.2055  0.5779 -0.6461
  175MOL0     C23546   5.419   8.870   0.601  0.1695 -0.4375  0.2380
  175MOL0     C23547   5.497   8.846   0.491  0.0454 -0.0842  1.0637
  175MOL0     O23548   5.520   8.938   0.402 -0.1223 -0.1234  0.6122
  175MOL0     C23549   5.443   9.055   0.397  0.3670 -1.2172  0.4007
  175MOL0     C23550   5.514   9.162   0.304  0.3296 -0.4664 -0.0972
  175MOL0     C23551   5.431   9.270   0.247  0.5618 -0.7895  0.7274
  175MOL0     C23552   5.480   9.325   0.112 -0.0070  0.5226  0.1547
  175MOL0     C23553   5.592   9.417   0.112  0.2629 -1.1521 -0.2048
  175MOL0     C23554   5.659   9.516   0.113 -0.3493 -0.3302 -0.4368
  175MOL0     C23555   5.572   8.728   0.492  0.8803 -0.0758 -0.0976
  175MOL0     C23556   5.553   8.627   0.576 -0.0985  0.7278 -1.0431
  175MOL0     C23557   5.626   8.497   0.555 -1.5911 -0.8483 -0.8715
  175MOL0     H23558   5.504   8.549   1.133 -1.1818  3.3537 -3.2820
  175MOL0     H23559   5.469   8.340   1.298  0.0282  3.9560  1.4272
  175MOL0     H23560   5.154   8.049   1.148 -0.1288 -2.2052  1.1252
  175MOL0     H23561   5.323   7.998   1.176 -1.6556 -4.2415  0.2471
  175MOL0     H23562   5.267   7.948   1.405  2.0344  2.8211 -1.3003
  175MOL0     H23563   5.175   7.851   1.277  1.2307  1.5679 -3.1342
  175MOL0     H23564   4.984   7.959   1.310 -0.2430  0.1948  0.9151
  175MOL0     H23565   5.038   8.084   1.407 -0.9720  0.3978  1.3157
  175MOL0     H23566   5.030   7.786   1.490 -2.1033 -0.3412 -2.1062
  175MOL0     H23567   5.090   7.921   1.592 -1.4120  0.8258  0.0008
  175MOL0     H23568   4.859   8.022   1.558 -0.4964 -0.0453  3.7698
  175MOL0     H23569   4.817   7.875   1.460 -2.3939  1.8889  0.5904
  175MOL0     H23570   4.811   7.747   1.670 -2.1202  1.5715  0.7660
  175MOL0     H23571   4.909   7.866   1.749  0.8831  0.9337 -0.6784
  175MOL0     H23572   4.623   7.896   1.688  0.2393  2.3797 -0.7322
  175MOL0     H23573   4.734   8.030   1.711 -0.5714 -0.4372 -2.0032
  175MOL0     H23574   4.790   7.935   1.934 -0.1404  3.1022 -4.9436
  175MOL0     H23575   4.614   7.961   1.920  1.0291  3.3173  0.9217
  175MOL0     H23576   4.848   7.668   2.006  0.2861  0.8739 -0.0100
  175MOL0     H23577   4.823   7.393   1.904 -2.3297 -1.6668 -1.8404
  175MOL0     H23578   4.786   7.416   2.079  0.9523 -1.9560  0.4396
  175MOL0     H23579   4.567   7.320   2.051  0.4746 -3.0350  1.7871
  175MOL0     H23580   4.572   7.298   1.883 -1.1174  0.5372  1.1687
  175MOL0     H23581   4.788   7.140   1.986 -0.3533 -1.7914  0.8231
  175MOL0     H23582   4.672   7.114   1.862  0.1697 -1.1075  0.9719
  175MOL0     H23583   4.505   7.039   2.032  3.1888 -3.9629 -2.7132
  175MOL0     H23584   4.608   7.126   2.161  2.1563 -1.4781  1.4414
  175MOL0     H23585   4.446   6.949   2.247  0.4023  0.2419  1.3845
  175MOL0     H23586   4.375   6.756   2.375 -0.1219 -3.2069 -0.8201
  175MOL0     H23587   4.601   6.205   2.544  3.6844 -1.0885 -0.1073
  175MOL0     H23588   4.557   6.080   2.765 -2.6599  0.2766 -1.2561
  175MOL0     H23589   4.790   6.246   3.048 -1.9070  2.1136  0.1046
  175MOL0     H23590   4.671   6.302   3.157  0.1208  0.8149  1.5833
  175MOL0     H23591   4.744   6.003   3.104  1.8487 -0.0841  0.4722
  175MOL0     H23592   4.794   6.063   3.251 -1.5996 -0.3814  0.5819
  175MOL0     H23593   4.534   5.974   3.185  0.3780  0.6431  0.2349
  175MOL0     H23594   4.616   5.959   3.331 -1.6616  0.9223  1.1697
  175MOL0     H23595   4.467   6.202   3.227 -1.3021  0.5947 -0.1384
  175MOL0     H23596   4.597   6.214   3.360 -0.1278  0.5985 -1.1054
  175MOL0     H23597   4.343   6.026   3.347  1.5998 -2.1252  1.7208
  175MOL0     H23598   4.336   6.195   3.411  1.5650  0.7388  3.0124
  175MOL0     H23599   4.482   5.945   3.502  1.4382 -0.2337  0.6872
  175MOL0     H23600   4.540   6.090   3.561 -0.5782  2.3095  0.1248
  175MOL0     H23601   4.251   5.987   3.611  0.2592  0.7814 -2.7381
  175MOL0     H23602   4.315   6.147   3.650 -0.2450  0.2493 -5.8631
  175MOL0     H23603   4.489   6.026   3.804 -0.1229 -2.0754  4.3294
  175MOL0     H23604   4.324   5.967   3.830 -1.0920 -2.7835 -1.6680
  175MOL0     H23605   4.699   6.445   2.958 -0.1716 -0.5120  1.2950
  175MOL0     H23606   4.672   6.573   2.755 -4.4679  1.0368  2.2880
  175MOL0     H23607   4.766   6.570   2.321 -4.4596 -4.1088  1.0174
  175MOL0     H23608   4.816   6.734   2.143  1.6200 -2.8047  2.3474
  175MOL0     H23609   5.155   8.217   1.032  0.3631 -1.0247  3.1084
  175MOL0     H23610   5.185   8.398   0.895 -1.6483 -0.4475  1.8348
  175MOL0     H23611   5.328   8.785   0.771 -2.4760  1.2232 -3.2490
  175MOL0     H23612   5.357   8.959   0.612  0.8173 -0.0597  0.9116
  175MOL0     H23613   5.436   9.107   0.493 -1.0062  1.2629 -0.9246
  175MOL0     H23614   5.344   9.046   0.351  0.3774  1.4372 -0.3186
  175MOL0     H23615   5.537   9.096   0.220 -0.3513 -0.3261 -0.3968
  175MOL0     H23616   5.605   9.197   0.354 -1.7653  3.2403  1.5410
  175MOL0     H23617   5.419   9.349   0.321  2.6409 -0.7369  1.0689
  175MOL0     H23618   5.331   9.232   0.226 -0.6678  1.3560  2.3109
  175MOL0     H23619   5.505   9.238   0.051 -2.1150 -0.0380  0.0258
  175MOL0     H23620   5.397   9.377   0.063 -1.1410 -1.9848 -0.7708
  175MOL0     H23621   5.721   9.603   0.118  0.3467 -0.7670 -1.1533
  175MOL0     H23622   5.640   8.712   0.409  0.8520 -1.1765  0.0821
  175MOL0     H23623   5.552   8.417   0.541 -3.0008 -0.2492  2.3151
  175MOL0     H23624   5.690   8.511   0.467  2.5809  3.4405  2.3365
  175MOL0     H23625   5.699   8.471   0.632  0.2939 -0.6969 -2.5014
  176MOL0     O23626   4.745   6.365   9.216 -0.7353  0.2757 -0.4267
  176MOL0     C23627   4.712   6.249   9.215  0.4553 -0.3424 -0.4908
  176MOL0     O23628   4.613   6.194   9.293 -0.3719 -0.0258  0.3045
  176MOL0     C23629   4.515   6.272   9.346  0.8077 -0.8507  0.0456
  176MOL0     C23630   4.542   6.366   9.445  1.0690 -0.3523  0.5974
  176MOL0     C23631   4.442   6.438   9.496 -0.2789  0.6571 -0.4832
  176MOL0     C23632   4.319   6.445   9.435 -0.3728  0.8338 -0.4209
  176MOL0     O23633   4.232   6.531   9.492 -0.2062 -0.2806 -0.1176
  176MOL0     C23634   4.094   6.520   9.460  0.1683 -0.5801 -0.0528
  176MOL0     C23635   4.054   6.588   9.326 -1.2008 -0.3807 -0.5704
  176MOL0     C23636   3.905   6.592   9.293  0.5706 -0.7918  0.1082
  176MOL0     C23637   3.811   6.642   9.402 -0.0096  0.4289 -1.0597
  176MOL0     C23638   3.687   6.719   9.354 -0.6636 -1.0692  0.2642
  176MOL0     C23639   3.599   6.766   9.476  0.3532  0.6002 -0.6184
  176MOL0     C23640   3.464   6.787   9.405  0.2256 -0.0401  0.6369
  176MOL0     C23641   3.372   6.836   9.512  0.8179 -0.0308  0.4323
  176MOL0     N23642   3.416   6.963   9.575  0.1365 -0.4084  0.0454
  176MOL0     C23643   3.368   7.086   9.546 -0.2037 -0.8125  0.7387
  176MOL0     C23644   3.417   7.175   9.633 -0.3903 -0.3432  0.3120
  176MOL0     C23645   3.420   7.324   9.645  0.0798 -0.0354 -0.1014
  176MOL0     C23646   3.524   7.386   9.544 -0.8991 -0.7791 -0.1007
  176MOL0     C23647   3.484   7.392   9.392  0.2715 -0.2730 -0.2754
  176MOL0     C23648   3.543   7.508   9.304  0.9008 -0.0686 -0.1553
  176MOL0     O23649   3.479   7.628   9.340  0.3438 -0.1356 -0.6922
  176MOL0     C23650   3.526   7.763   9.315  0.4206  1.0094  0.3209
  176MOL0     C23651   3.446   7.873   9.342 -0.4171  0.0899  0.2530
  176MOL0     C23652   3.476   8.007   9.327  0.6488 -0.2067  2.2824
  176MOL0     C23653   3.612   8.029   9.289  0.1248  0.6138 -0.5060
  176MOL0     C23654   3.670   8.166   9.276 -0.1345  0.0650 -0.2863
  176MOL0     O23655   3.578   8.262   9.251 -0.0266 -0.3180 -0.4756
  176MOL0     C23656   3.629   8.397   9.219 -0.7535 -0.3334  0.7432
  176MOL0     C23657   3.561   8.452   9.111  0.2664  0.5240  0.0515
  176MOL0     C23658   3.589   8.579   9.060 -0.9283 -0.5533 -1.0209
  176MOL0     C23659   3.689   8.655   9.120  0.0587  0.0481  0.8928
  176MOL0     O23660   3.731   8.789   9.085  0.4286  0.3926 -0.8242
  176MOL0     C23661   3.718   8.856   8.963 -0.8156  0.0866  0.0412
  176MOL0     C23662   3.690   9.003   8.973 -0.2864  0.5124 -0.8018
  176MOL0     C23663   3.801   9.095   9.030  0.1470 -0.9124 -0.1119
  176MOL0     C23664   3.860   9.055   9.166  0.2971 -0.4149  0.2111
  176MOL0     C23665   3.953   9.171   9.215 -0.2605  0.0619 -0.8142
  176MOL0     C23666   3.962   9.181   9.369 -0.4345 -0.8821 -0.4663
  176MOL0     C23667   4.049   9.310   9.404  0.0483  0.2877 -0.4690
  176MOL0     C23668   4.030   9.335   9.552  0.0057  0.3503 -0.6816
  176MOL0    Cl23669   4.123   9.205   9.644 -0.1518 -0.2450  0.2615
  176MOL0     C23670   3.755   8.597   9.235  0.5562 -0.1332 -0.3807
  176MOL0     C23671   3.724   8.473   9.281  0.7954 -0.6740  0.1053
  176MOL0     O23672   3.794   8.189   9.283  0.0514  0.4486  0.3720
  176MOL0     C23673   3.692   7.916   9.250 -0.6138  0.1997 -0.7198
  176MOL0     C23674   3.646   7.780   9.258  0.1583 -0.4270  0.2588
  176MOL0     N23675   3.499   7.090   9.713 -0.8204 -1.4329 -0.3560
  176MOL0     N23676   3.498   6.974   9.678 -0.0058  0.5718 -0.4375
  176MOL0     C23677   4.285   6.363   9.328 -0.4348 -0.9206 -0.1812
  176MOL0     C23678   4.385   6.270   9.290 -0.0097  0.5726 -0.1952
  176MOL0     C23679   4.782   6.155   9.120 -0.4539 -0.5110 -0.4100
  176MOL0     C23680   4.920   6.151   9.141 -0.0803 -0.6133 -0.6411
  176MOL0     C23681   5.001   6.052   9.069 -0.6690  0.0383  0.3942
  176MOL0     C23682   4.948   5.962   8.978  0.4885  0.1341 -0.2978
  176MOL0     O23683   5.042   5.884   8.924 -1.2920  0.7407 -0.5365
  176MOL0     C23684   5.032   5.825   8.794 -0.1299 -0.0282 -0.6963
  176MOL0     C23685   4.952   5.695   8.819 -0.6715  0.3520  0.0810
  176MOL0     C23686   4.935   5.615   8.681 -0.1382  1.3071 -0.3608
  176MOL0     C23687   5.050   5.544   8.614 -0.0641 -0.5737 -0.5808
  176MOL0     C23688   4.996   5.446   8.515  0.1108 -0.5050  0.0408
  176MOL0     C23689   4.939   5.388   8.427  0.3342 -0.4798 -0.1756
  176MOL0     C23690   4.811   5.976   8.947  0.9353 -0.8591  0.1853
  176MOL0     C23691   4.726   6.068   9.020  0.5376  0.1016 -0.0435
  176MOL0     C23692   4.577   6.062   8.980  0.8483 -0.4939 -0.3545
  176MOL0     H23693   4.638   6.389   9.489 -1.2341  1.3216  5.5349
  176MOL0     H23694   4.450   6.497   9.587 -0.8411 -1.0366  0.7043
  176MOL0     H23695   4.050   6.420   9.469 -0.4037 -0.2405  1.0202
  176MOL0     H23696   4.038   6.581   9.531 -1.5247  0.5971 -2.2737
  176MOL0     H23697   4.097   6.544   9.236  1.7184 -0.2176  0.6238
  176MOL0     H23698   4.095   6.690   9.326 -0.7917 -0.5440 -0.5677
  176MOL0     H23699   3.869   6.499   9.247 -3.1541  0.2252  0.6273
  176MOL0     H23700   3.894   6.664   9.211 -0.5448  0.5110  1.3513
  176MOL0     H23701   3.778   6.559   9.464 -0.3658  1.2174 -0.1737
  176MOL0     H23702   3.871   6.707   9.466  1.9142 -0.3647 -1.9701
  176MOL0     H23703   3.724   6.809   9.303  2.8249 -3.3771 -1.6646
  176MOL0     H23704   3.632   6.661   9.279 -0.0892  2.4964 -3.2613
  176MOL0     H23705   3.582   6.688   9.551 -0.5805  0.8705 -0.5359
  176MOL0     H23706   3.632   6.862   9.515  1.9896 -1.2153  2.9537
  176MOL0     H23707   3.425   6.694   9.362  1.7081 -3.2520  5.3733
  176MOL0     H23708   3.468   6.860   9.324 -1.5494  0.0701  0.6124
  176MOL0     H23709   3.271   6.856   9.474  1.2266  2.4388  0.4998
  176MOL0     H23710   3.361   6.757   9.586 -0.7613 -0.7702 -0.5394
  176MOL0     H23711   3.297   7.110   9.468  0.8877  0.3911  0.0924
  176MOL0     H23712   3.315   7.351   9.628 -0.2864 -0.2780  1.5772
  176MOL0     H23713   3.455   7.352   9.745  0.4353  2.3817 -0.8330
  176MOL0     H23714   3.536   7.486   9.586  1.3426 -1.2032  0.4201
  176MOL0     H23715   3.622   7.340   9.561  0.0929  1.2731  0.0622
  176MOL0     H23716   3.377   7.413   9.401  0.6018  0.8375  2.1776
  176MOL0     H23717   3.500   7.296   9.344 -0.5018 -0.4609 -0.1619
  176MOL0     H23718   3.527   7.499   9.197  1.0208  2.9432 -0.5188
  176MOL0     H23719   3.652   7.512   9.312  0.8254  1.5855  0.5516
  176MOL0     H23720   3.357   7.864   9.403 -0.6066 -0.9431 -0.1619
  176MOL0     H23721   3.414   8.094   9.343  0.5752 -0.1212  1.5405
  176MOL0     H23722   3.478   8.394   9.070 -1.5615  1.6757  1.9415
  176MOL0     H23723   3.524   8.602   8.977 -0.3404 -0.9260 -1.5944
  176MOL0     H23724   3.811   8.832   8.911 -1.1128 -2.1458  0.4365
  176MOL0     H23725   3.644   8.824   8.890 -3.6122  3.7880  0.9360
  176MOL0     H23726   3.671   9.044   8.873  0.6100  2.6218 -0.1534
  176MOL0     H23727   3.593   9.010   9.023 -1.0073  0.5502 -2.1386
  176MOL0     H23728   3.888   9.096   8.963  1.1421  1.4215  1.1039
  176MOL0     H23729   3.755   9.193   9.045  0.5512 -0.4499 -1.6961
  176MOL0     H23730   3.905   8.955   9.160 -0.7858 -1.0379  1.8198
  176MOL0     H23731   3.773   9.048   9.232 -1.6317 -0.6409 -2.2492
  176MOL0     H23732   3.912   9.268   9.187 -1.0280 -0.0767 -0.1946
  176MOL0     H23733   4.049   9.163   9.162  0.4783  3.0993 -0.1009
  176MOL0     H23734   3.862   9.180   9.413 -0.7485  2.0636 -0.9108
  176MOL0     H23735   4.024   9.101   9.411 -0.4679 -1.0990 -0.8263
  176MOL0     H23736   4.010   9.400   9.356 -0.6836 -0.4189 -1.2398
  176MOL0     H23737   4.153   9.283   9.388  0.6161  1.3237  1.2119
  176MOL0     H23738   4.072   9.432   9.582  0.5433  0.3735 -1.4744
  176MOL0     H23739   3.925   9.326   9.581  0.5152 -4.1227  0.4406
  176MOL0     H23740   3.837   8.655   9.276 -0.3893 -0.7542  2.5826
  176MOL0     H23741   3.789   8.432   9.358 -2.1121  2.0698  4.4443
  176MOL0     H23742   3.796   7.944   9.232  0.5102 -2.8364  0.4466
  176MOL0     H23743   3.709   7.695   9.234  0.9341  0.1344  0.2399
  176MOL0     H23744   4.188   6.364   9.281 -0.2417 -0.3725 -0.5843
  176MOL0     H23745   4.372   6.199   9.210 -1.7398  0.5406  0.0765
  176MOL0     H23746   4.959   6.219   9.217  1.1711 -2.3811  0.3548
  176MOL0     H23747   5.109   6.046   9.081 -0.8773 -0.4214  2.4214
  176MOL0     H23748   5.129   5.797   8.753  1.3764  1.1044  1.8804
  176MOL0     H23749   4.965   5.877   8.724 -3.6346 -0.4453  2.0500
  176MOL0     H23750   4.851   5.718   8.855 -1.5292 -0.2231 -1.8471
  176MOL0     H23751   5.009   5.621   8.876 -1.0273  0.4644  0.5946
  176MOL0     H23752   4.892   5.686   8.611 -1.3920  0.7159 -0.2107
  176MOL0     H23753   4.858   5.537   8.692 -0.1377  1.4339  0.6943
  176MOL0     H23754   5.118   5.617   8.569 -0.1843  0.3735  0.7017
  176MOL0     H23755   5.097   5.510   8.707  0.1255  0.8129 -0.1454
  176MOL0     H23756   4.894   5.327   8.351  1.3115  0.0223 -1.1800
  176MOL0     H23757   4.757   5.927   8.867  0.8134  1.8046 -1.5196
  176MOL0     H23758   4.521   6.139   9.034  1.7634  0.9286 -1.3567
  176MOL0     H23759   4.564   6.075   8.872  0.6222  2.7810 -0.0484
  176MOL0     H23760   4.546   5.959   9.000  0.1298 -0.2515 -0.2169
  177MOL0     O23761   3.804  11.090   7.744  0.3298  0.5509 -0.2607
  177MOL0     C23762   3.758  11.037   7.642 -0.7006  0.4497  0.0294
  177MOL0     O23763   3.774  10.898   7.617 -0.0037  0.1155 -1.0003
  177MOL0     C23764   3.841  10.818   7.705  0.0700  0.5644  0.6523
  177MOL0     C23765   3.764  10.755   7.803 -0.8642  0.2795 -0.2134
  177MOL0     C23766   3.833  10.691   7.903 -0.1948  0.0371 -0.1502
  177MOL0     C23767   3.972  10.679   7.914 -0.1164 -0.5592  0.5507
  177MOL0     O23768   4.023  10.625   8.028  0.7956 -0.2968 -0.0197
  177MOL0     C23769   4.162  10.646   8.041  0.0059  0.1004 -0.2589
  177MOL0     C23770   4.189  10.581   8.184  0.2691  0.1830 -0.7481
  177MOL0     C23771   4.337  10.594   8.229 -0.7913  0.0088 -0.0310
  177MOL0     C23772   4.380  10.740   8.247 -0.8750 -0.4675  0.1468
  177MOL0     C23773   4.456  10.746   8.389  0.4166  0.3778  0.4678
  177MOL0     C23774   4.506  10.887   8.412 -1.7518 -0.6893  0.4907
  177MOL0     C23775   4.625  10.915   8.516  0.3924  0.3216 -0.1979
  177MOL0     C23776   4.753  10.887   8.439 -0.0582  0.1378 -0.3250
  177MOL0     N23777   4.796  11.001   8.358 -0.1338 -0.4063 -0.7577
  177MOL0     C23778   4.838  11.122   8.418  0.6952 -0.7120 -0.3029
  177MOL0     C23779   4.893  11.179   8.315 -0.2611 -0.5464  0.0179
  177MOL0     C23780   4.950  11.316   8.318  0.7286  0.0067  0.3765
  177MOL0     C23781   5.043  11.333   8.440 -0.5369  0.5928 -0.5580
  177MOL0     C23782   5.160  11.427   8.423 -1.4099  0.5088  0.3576
  177MOL0     C23783   5.181  11.507   8.545  0.1570 -0.1450  0.5804
  177MOL0     O23784   5.232  11.426   8.656  0.5076 -0.1818  0.0140
  177MOL0     C23785   5.351  11.434   8.722  0.6032  0.6587  0.6550
  177MOL0     C23786   5.450  11.535   8.693 -0.0044  0.2656  0.4268
  177MOL0     C23787   5.566  11.550   8.770  0.3083  0.9733 -0.2972
  177MOL0     C23788   5.589  11.460   8.871 -1.2460  0.4006 -0.2223
  177MOL0     C23789   5.712  11.465   8.953 -0.8224  0.8332  0.0131
  177MOL0     O23790   5.817  11.560   8.917  0.7826  0.6181  0.9129
  177MOL0     C23791   5.927  11.566   8.996 -0.0805 -0.4659  0.5780
  177MOL0     C23792   5.955  11.705   9.034 -0.3320  0.7208  0.2455
  177MOL0     C23793   6.079  11.727   9.098  0.0780  0.2238  0.5244
  177MOL0     C23794   6.170  11.631   9.143 -0.6348  0.8399  0.5587
  177MOL0     O23795   6.284  11.659   9.214  0.5689  0.2041  0.2192
  177MOL0     C23796   6.396  11.563   9.208  1.0066  0.1376 -0.5696
  177MOL0     C23797   6.524  11.630   9.264 -0.3101 -0.4022 -0.2702
  177MOL0     C23798   6.643  11.533   9.251 -0.3762 -0.1500 -1.4202
  177MOL0     C23799   6.769  11.572   9.325  0.0551  0.1316 -0.9095
  177MOL0     C23800   6.877  11.464   9.301 -0.5160 -0.3275  1.0594
  177MOL0     C23801   6.938  11.393   9.422  0.8113  0.1154  0.3043
  177MOL0     C23802   6.820  11.307   9.474  0.4239 -0.1142 -1.2852
  177MOL0     C23803   6.866  11.260   9.621  0.1928 -0.3815  0.3619
  177MOL0    Cl23804   6.886  11.412   9.736 -0.0269  0.0071 -0.5130
  177MOL0     C23805   6.136  11.495   9.107  0.2166  0.2318  0.0791
  177MOL0     C23806   6.023  11.466   9.032 -0.6652  0.6307  0.1056
  177MOL0     O23807   5.712  11.400   9.056  0.3433  0.7015  0.1307
  177MOL0     C23808   5.496  11.364   8.899 -0.4101  0.1038 -0.0830
  177MOL0     C23809   5.369  11.352   8.828 -0.6722  0.4612  0.7201
  177MOL0     N23810   4.871  11.101   8.200  0.2226 -0.6790 -0.4570
  177MOL0     N23811   4.810  10.989   8.217 -0.6534  0.2655 -0.2652
  177MOL0     C23812   4.038  10.748   7.805 -0.4575 -0.3619 -0.5073
  177MOL0     C23813   3.979  10.824   7.703  0.4153 -0.1430  0.0025
  177MOL0     C23814   3.679  11.114   7.542  0.0216  0.3823  1.6026
  177MOL0     C23815   3.651  11.047   7.418 -0.1191 -0.2784  0.1031
  177MOL0     C23816   3.584  11.105   7.315 -0.6172 -1.3752  0.1750
  177MOL0     C23817   3.508  11.221   7.341 -1.0203 -1.1108  0.1311
  177MOL0     O23818   3.422  11.262   7.238 -0.3640  0.2321  0.0338
  177MOL0     C23819   3.389  11.179   7.116  0.1795 -0.4049  0.4622
  177MOL0     C23820   3.275  11.082   7.136 -1.1247 -0.5194 -0.3388
  177MOL0     C23821   3.139  11.153   7.162 -0.2855  0.2374 -0.4276
  177MOL0     C23822   3.083  11.173   7.022  0.1201  0.2206  0.4948
  177MOL0     C23823   2.941  11.146   7.008  0.9681 -0.0559 -0.3494
  177MOL0     C23824   2.823  11.126   6.988  0.2457  1.1548  0.3767
  177MOL0     C23825   3.530  11.298   7.462 -0.1873  0.8676 -0.0228
  177MOL0     C23826   3.612  11.239   7.562  0.7306  1.2686  0.0589
  177MOL0     C23827   3.630  11.312   7.690 -0.1091  0.1648  0.2644
  177MOL0     H23828   3.656  10.749   7.801 -0.8696 -0.4416  1.3745
  177MOL0     H23829   3.772  10.639   7.977  0.2219  2.8794  2.3767
  177MOL0     H23830   4.207  10.592   7.957  0.9088  2.2112 -1.1963
  177MOL0     H23831   4.198  10.749   8.043  1.0937 -0.2558  2.3442
  177MOL0     H23832   4.185  10.472   8.180 -2.1696  0.1507  0.3025
  177MOL0     H23833   4.114  10.626   8.250  1.3011  0.9002 -0.0435
  177MOL0     H23834   4.411  10.536   8.174 -0.6537 -0.6302  0.8138
  177MOL0     H23835   4.329  10.538   8.323 -3.0334  2.0757  1.1348
  177MOL0     H23836   4.460  10.769   8.179  0.1603  0.3085  1.6216
  177MOL0     H23837   4.301  10.812   8.226  0.3979  1.1516  0.6697
  177MOL0     H23838   4.384  10.704   8.460 -2.7972  0.2772 -2.5567
  177MOL0     H23839   4.541  10.681   8.369  1.9587  3.0337 -2.4180
  177MOL0     H23840   4.532  10.948   8.326 -4.0004  2.4027  1.8404
  177MOL0     H23841   4.419  10.948   8.437 -0.9394 -0.1739  2.3165
  177MOL0     H23842   4.608  10.850   8.603  1.2486  1.6814  1.0359
  177MOL0     H23843   4.614  11.017   8.554 -0.4024  1.4306 -3.1782
  177MOL0     H23844   4.829  10.868   8.516 -2.1799  0.6519  2.0235
  177MOL0     H23845   4.752  10.801   8.371  0.0569  0.6054 -0.9326
  177MOL0     H23846   4.838  11.161   8.519 -2.8834  1.3153 -0.9191
  177MOL0     H23847   4.997  11.329   8.220 -4.5766  0.5487 -2.5247
  177MOL0     H23848   4.865  11.386   8.320  2.8579  2.7296  1.6396
  177MOL0     H23849   4.978  11.362   8.522 -1.3940  2.0569 -1.7114
  177MOL0     H23850   5.090  11.238   8.468 -1.6204 -0.2061 -1.3633
  177MOL0     H23851   5.133  11.495   8.341 -4.3857 -0.7454  0.1425
  177MOL0     H23852   5.257  11.381   8.406 -0.9232  1.8343 -0.6685
  177MOL0     H23853   5.081  11.547   8.564  0.3434  1.0418 -0.7672
  177MOL0     H23854   5.245  11.595   8.535  1.4717 -0.8948  2.0593
  177MOL0     H23855   5.432  11.611   8.618  0.8361 -0.2643 -0.3283
  177MOL0     H23856   5.637  11.628   8.744 -0.4596  2.5861  2.0957
  177MOL0     H23857   5.896  11.792   9.008  0.6018  0.8128 -1.8103
  177MOL0     H23858   6.093  11.830   9.129 -1.5737  0.5637  0.2568
  177MOL0     H23859   6.369  11.476   9.268  0.0335  0.8815  0.1108
  177MOL0     H23860   6.410  11.523   9.107  0.5876 -0.8533 -0.2505
  177MOL0     H23861   6.539  11.724   9.209 -0.1173  1.3559  2.6193
  177MOL0     H23862   6.512  11.651   9.370  0.5951  0.1226 -0.2653
  177MOL0     H23863   6.605  11.438   9.290  1.1895 -0.4468 -0.5255
  177MOL0     H23864   6.676  11.518   9.148  1.4891  1.9635 -1.2161
  177MOL0     H23865   6.750  11.574   9.433 -0.9857 -0.3425 -1.0723
  177MOL0     H23866   6.812  11.672   9.310  3.3082 -0.5355  2.5539
  177MOL0     H23867   6.956  11.516   9.247  0.2330  0.6120  2.9638
  177MOL0     H23868   6.850  11.385   9.230  2.2050 -0.4908  0.0782
  177MOL0     H23869   7.029  11.333   9.411  0.8641  0.0487  1.0775
  177MOL0     H23870   6.955  11.477   9.490 -4.7478  1.1800  0.8632
  177MOL0     H23871   6.814  11.221   9.407  2.3579  0.0986 -1.8085
  177MOL0     H23872   6.722  11.354   9.469 -0.5068 -1.9655 -1.3959
  177MOL0     H23873   6.801  11.183   9.663  2.1992 -2.2034  0.3233
  177MOL0     H23874   6.963  11.210   9.612  1.5168  1.9877  0.5750
  177MOL0     H23875   6.197  11.409   9.127 -0.0704  0.2366  1.0161
  177MOL0     H23876   5.988  11.366   9.012 -0.8860  0.1281  2.7073
  177MOL0     H23877   5.498  11.289   8.978 -2.2524 -4.5096 -3.9513
  177MOL0     H23878   5.301  11.270   8.851 -0.6593  0.5019  0.9056
  177MOL0     H23879   4.146  10.759   7.806 -0.4776  0.0400  1.0643
  177MOL0     H23880   4.026  10.879   7.622 -2.9713 -1.2405 -2.9888
  177MOL0     H23881   3.698  10.952   7.396 -0.1319 -0.1217 -0.6350
  177MOL0     H23882   3.562  11.046   7.226 -2.4801  0.9748 -1.0345
  177MOL0     H23883   3.477  11.134   7.067  1.1073  2.4072 -0.7114
  177MOL0     H23884   3.346  11.253   7.048  1.2532  1.9149  2.2076
  177MOL0     H23885   3.286  11.024   7.228 -0.5327  0.8429  0.4793
  177MOL0     H23886   3.280  11.007   7.056 -0.8791 -0.8401 -0.0275
  177MOL0     H23887   3.150  11.248   7.215  0.2573 -0.2794  0.4046
  177MOL0     H23888   3.082  11.078   7.217 -0.6858 -0.1363 -1.3329
  177MOL0     H23889   3.109  11.278   7.004  0.9272  0.3458  2.1849
  177MOL0     H23890   3.129  11.118   6.939 -1.7127 -0.0054 -0.4246
  177MOL0     H23891   2.725  11.090   6.961 -1.4118  4.2560  1.7050
  177MOL0     H23892   3.476  11.392   7.472 -2.8270 -0.6537  1.2038
  177MOL0     H23893   3.733  11.308   7.728 -0.0880 -1.4620  0.1471
  177MOL0     H23894   3.599  11.415   7.674  1.1448  0.6853  0.9931
  177MOL0     H23895   3.559  11.268   7.761 -1.8678 -1.4727 -2.3232
  178MOL0     O23896   4.732  10.400   4.846 -0.0913 -0.7358  0.9245
  178MOL0     C23897   4.812  10.314   4.852 -1.0708 -0.0521 -0.1051
  178MOL0     O23898   4.905  10.284   4.752  0.0028  0.5781 -0.3195
  178MOL0     C23899   4.910  10.368   4.644 -0.8234 -0.6541 -0.0003
  178MOL0     C23900   4.894  10.501   4.639 -1.0562  0.9108  0.3773
  178MOL0     C23901   4.913  10.579   4.531 -0.3579 -0.7932  0.4289
  178MOL0     C23902   4.932  10.531   4.406  0.6950 -0.3313  0.1577
  178MOL0     O23903   4.962  10.618   4.310 -0.0910 -0.1787  0.0511
  178MOL0     C23904   4.937  10.569   4.176 -0.1114  0.0278  0.4774
  178MOL0     C23905   4.927  10.696   4.085 -0.7731  1.1661  0.3771
  178MOL0     C23906   4.800  10.784   4.096  0.6729  0.0748 -0.2198
  178MOL0     C23907   4.755  10.823   4.243 -0.1526 -0.4587  0.3470
  178MOL0     C23908   4.634  10.912   4.235  0.2681  0.5437 -0.1284
  178MOL0     C23909   4.573  10.947   4.368 -0.6731 -1.0788 -0.2636
  178MOL0     C23910   4.469  10.841   4.394  0.3308 -0.4569 -0.6563
  178MOL0     C23911   4.419  10.835   4.541 -0.1014 -0.3618  0.7283
  178MOL0     N23912   4.349  10.709   4.575  0.4734  0.2608  0.7825
  178MOL0     C23913   4.420  10.590   4.586 -0.0522  0.5901 -0.3610
  178MOL0     C23914   4.329  10.495   4.607 -0.0084 -0.3240  0.0981
  178MOL0     C23915   4.344  10.354   4.643 -0.2202 -0.1240  1.0897
  178MOL0     C23916   4.287  10.334   4.785  0.5279 -0.3566 -0.1571
  178MOL0     C23917   4.355  10.219   4.867  0.8386  0.4028 -0.2326
  178MOL0     C23918   4.342  10.083   4.809 -0.4744  0.2251 -0.1906
  178MOL0     O23919   4.418   9.992   4.889  0.6344 -0.5943  0.0509
  178MOL0     C23920   4.410   9.858   4.855 -0.1654  0.1493 -0.0520
  178MOL0     C23921   4.490   9.778   4.936  0.2709  0.4133  0.4671
  178MOL0     C23922   4.477   9.638   4.922 -0.7577 -0.7898  0.8252
  178MOL0     C23923   4.401   9.574   4.821  0.0865 -0.0812  0.2635
  178MOL0     C23924   4.416   9.438   4.784 -0.7704 -0.9581  0.0597
  178MOL0     O23925   4.493   9.373   4.873  1.0273 -0.2515  0.0622
  178MOL0     C23926   4.519   9.241   4.838  0.7942 -1.4276 -0.1650
  178MOL0     C23927   4.617   9.213   4.750  0.7241  0.2542 -0.0401
  178MOL0     C23928   4.640   9.083   4.705  0.2712 -0.3578  0.5933
  178MOL0     C23929   4.576   8.977   4.770  0.4174  0.4977  0.0530
  178MOL0     O23930   4.600   8.847   4.741 -0.4793 -0.1889 -0.4003
  178MOL0     C23931   4.733   8.810   4.761  0.2943 -0.5538 -0.7815
  178MOL0     C23932   4.735   8.685   4.848  0.2287  0.1762  0.0717
  178MOL0     C23933   4.729   8.704   4.999 -0.0829  0.0297 -0.4273
  178MOL0     C23934   4.729   8.568   5.069 -0.4915  0.2173  0.6267
  178MOL0     C23935   4.690   8.570   5.214  0.1091 -0.3246  1.3634
  178MOL0     C23936   4.673   8.433   5.269 -0.2642  0.8159 -0.0061
  178MOL0     C23937   4.601   8.424   5.400  0.6592 -0.5437 -0.2898
  178MOL0     C23938   4.694   8.424   5.527  1.1153 -1.1136 -0.3930
  178MOL0    Cl23939   4.603   8.472   5.667 -0.2658  0.1121 -0.4138
  178MOL0     C23940   4.465   9.007   4.859  0.4016 -0.1161 -0.3435
  178MOL0     C23941   4.444   9.142   4.896  0.0891 -0.7475  0.5660
  178MOL0     O23942   4.357   9.392   4.686  0.3677 -0.1255 -0.0828
  178MOL0     C23943   4.309   9.658   4.749  0.1747  0.2883  0.9357
  178MOL0     C23944   4.322   9.797   4.763 -0.6936 -0.2880 -0.3223
  178MOL0     N23945   4.206  10.554   4.598  0.1186 -0.6479 -0.5691
  178MOL0     N23946   4.222  10.675   4.574  0.1872 -0.7000 -0.4183
  178MOL0     C23947   4.940  10.391   4.398  0.1004  0.1624  0.3392
  178MOL0     C23948   4.947  10.315   4.515 -0.0080  0.6320  0.7628
  178MOL0     C23949   4.796  10.216   4.968 -0.1686  0.2761  0.4726
  178MOL0     C23950   4.859  10.091   4.954  0.5127 -0.0036  0.7033
  178MOL0     C23951   4.840   9.998   5.052 -1.0987  0.0432  0.1204
  178MOL0     C23952   4.759  10.020   5.167 -0.2684 -0.0203  0.6927
  178MOL0     O23953   4.753   9.934   5.276  0.0494 -0.1793 -0.4192
  178MOL0     C23954   4.824   9.809   5.281 -0.5315  1.0579 -0.5784
  178MOL0     C23955   4.839   9.754   5.421  0.2204  0.0680  0.0583
  178MOL0     C23956   4.915   9.621   5.418  1.0089 -0.3976  1.0914
  178MOL0     C23957   4.962   9.589   5.564  0.9945  0.0461  0.0850
  178MOL0     C23958   5.016   9.458   5.562  0.4896 -0.7184  0.0021
  178MOL0     C23959   5.046   9.340   5.551 -0.9445  1.3133  0.9616
  178MOL0     C23960   4.697  10.143   5.173 -0.8791 -0.1209  0.5318
  178MOL0     C23961   4.721  10.247   5.087  1.2703  0.8238  0.6574
  178MOL0     C23962   4.650  10.380   5.118 -0.9047 -0.1961  0.4014
  178MOL0     H23963   4.895  10.554   4.733 -2.0520 -0.0127  0.9236
  178MOL0     H23964   4.908  10.687   4.534  0.9886 -0.6637 -0.6814
  178MOL0     H23965   5.024  10.513   4.141 -1.1602 -0.0338 -2.2312
  178MOL0     H23966   4.850  10.507   4.155  0.3820  0.5447 -3.8653
  178MOL0     H23967   4.952  10.657   3.986 -0.0685 -0.7955  1.2779
  178MOL0     H23968   5.008  10.761   4.119  0.3738 -1.3745  2.9132
  178MOL0     H23969   4.711  10.730   4.062 -0.0535 -1.1514  3.1886
  178MOL0     H23970   4.813  10.871   4.031  0.7629  1.0196  1.0202
  178MOL0     H23971   4.738  10.728   4.295  1.2728 -0.0891  1.5424
  178MOL0     H23972   4.838  10.876   4.290 -1.1643  0.5524  1.0298
  178MOL0     H23973   4.658  11.004   4.182  0.7958  2.1076  2.6715
  178MOL0     H23974   4.554  10.871   4.172 -2.7059  4.3156  0.7641
  178MOL0     H23975   4.636  10.950   4.458 -4.0555  1.9886  2.3015
  178MOL0     H23976   4.526  11.046   4.372  1.0212 -0.2575  2.3011
  178MOL0     H23977   4.516  10.746   4.365 -1.7458 -0.6958 -3.8495
  178MOL0     H23978   4.385  10.864   4.327 -0.3828  1.2972  0.7511
  178MOL0     H23979   4.506  10.849   4.605 -0.5559  3.7367  0.7084
  178MOL0     H23980   4.353  10.919   4.563  0.0268 -0.3919  1.2302
  178MOL0     H23981   4.528  10.574   4.588  0.6597  3.6632 -3.9780
  178MOL0     H23982   4.288  10.295   4.570 -1.6065  1.3664  0.8856
  178MOL0     H23983   4.449  10.325   4.635  0.5265  2.6690 -0.4987
  178MOL0     H23984   4.309  10.428   4.835  1.5890  0.0414 -1.3097
  178MOL0     H23985   4.179  10.314   4.779 -0.0734  2.4724 -0.2018
  178MOL0     H23986   4.313  10.220   4.967  1.9206 -0.7109  0.2597
  178MOL0     H23987   4.461  10.240   4.882  0.2522  0.9337  4.8449
  178MOL0     H23988   4.386  10.090   4.709 -0.0228  0.5405  0.0249
  178MOL0     H23989   4.237  10.053   4.805 -0.3701 -0.6445  2.2017
  178MOL0     H23990   4.544   9.830   5.014  1.4050  1.9746 -1.2590
  178MOL0     H23991   4.537   9.569   4.981 -2.0832 -2.3864  0.3965
  178MOL0     H23992   4.678   9.290   4.703 -0.1495 -1.0799 -3.6631
  178MOL0     H23993   4.716   9.061   4.630  0.9837  1.8933  0.5763
  178MOL0     H23994   4.769   8.776   4.663 -3.0902 -1.6567 -1.7888
  178MOL0     H23995   4.791   8.895   4.797 -3.1010  0.1117  4.0480
  178MOL0     H23996   4.660   8.611   4.818 -0.4549  0.8428  0.0833
  178MOL0     H23997   4.829   8.633   4.831  0.8178  1.6510 -1.4775
  178MOL0     H23998   4.803   8.768   5.048 -1.6108  0.1727  1.8882
  178MOL0     H23999   4.637   8.750   5.038  0.6706  2.5649 -1.4528
  178MOL0     H24000   4.817   8.504   5.061  0.4685  1.1885  2.7753
  178MOL0     H24001   4.660   8.506   5.010  0.4028  0.8248 -1.1175
  178MOL0     H24002   4.599   8.630   5.231  0.6498  1.8371 -2.2481
  178MOL0     H24003   4.773   8.621   5.264 -1.3564  2.3330  1.2986
  178MOL0     H24004   4.605   8.382   5.200 -0.1988 -0.2376  0.6895
  178MOL0     H24005   4.761   8.368   5.273 -1.5300 -0.9052  1.0645
  178MOL0     H24006   4.537   8.335   5.398 -1.5237  0.9526 -0.7162
  178MOL0     H24007   4.546   8.518   5.401  2.6531  0.6813  0.1160
  178MOL0     H24008   4.743   8.327   5.536  0.5968 -1.4774 -1.3678
  178MOL0     H24009   4.776   8.496   5.519 -0.8645  1.2792 -0.3476
  178MOL0     H24010   4.410   8.925   4.906  3.0158  0.6676  4.8217
  178MOL0     H24011   4.374   9.166   4.975  0.7857 -0.8106  1.2195
  178MOL0     H24012   4.219   9.623   4.700  1.8212 -2.1214 -0.5788
  178MOL0     H24013   4.250   9.860   4.711 -1.9616 -0.2026  1.4160
  178MOL0     H24014   4.955  10.351   4.298  0.9232  0.6722  0.2497
  178MOL0     H24015   4.974  10.212   4.495 -1.0355  0.5246 -0.1693
  178MOL0     H24016   4.917  10.062   4.867 -2.2758 -0.5134 -1.1296
  178MOL0     H24017   4.903   9.910   5.053  0.9767  1.2720 -3.3210
  178MOL0     H24018   4.929   9.828   5.258  0.1552 -1.0059  0.6632
  178MOL0     H24019   4.777   9.739   5.211  2.6107 -2.2290  0.3107
  178MOL0     H24020   4.738   9.728   5.454  1.0955 -1.6409  1.5725
  178MOL0     H24021   4.871   9.828   5.496 -5.1605 -1.3081  4.3717
  178MOL0     H24022   4.999   9.638   5.351  0.6788  0.6110  0.9204
  178MOL0     H24023   4.847   9.549   5.371  3.3922 -1.2711 -1.2328
  178MOL0     H24024   5.036   9.655   5.610 -1.0680  0.9995  2.2548
  178MOL0     H24025   4.878   9.586   5.634 -1.2753 -1.3880 -2.4820
  178MOL0     H24026   5.041   9.236   5.528 -4.3946  1.6091 -0.2067
  178MOL0     H24027   4.629  10.152   5.257 -0.1845  1.1336  0.9770
  178MOL0     H24028   4.725  10.455   5.145 -0.3707 -0.0727 -1.2805
  178MOL0     H24029   4.585  10.418   5.038  0.1423 -0.3215 -0.5408
  178MOL0     H24030   4.575  10.359   5.195 -0.8555 -0.1172  0.4695
  179MOL0     O24031   9.178   0.856   2.163 -0.7317 -0.0661  0.1651
  179MOL0     C24032   9.270   0.920   2.112 -0.8147  0.9128  0.9021
  179MOL0     O24033   9.264   1.041   2.051  0.1590  0.5327  0.2303
  179MOL0     C24034   9.135   1.082   2.031  0.8742 -0.1660  0.9088
  179MOL0     C24035   9.078   1.019   1.922 -0.8986  0.0168  0.7314
  179MOL0     C24036   8.951   1.046   1.892  0.6507  0.2856  2.1287
  179MOL0     C24037   8.877   1.163   1.948 -1.4719  0.7221  0.6064
  179MOL0     O24038   8.756   1.195   1.905  0.2463 -0.4280 -0.9588
  179MOL0     C24039   8.697   1.182   1.774  0.5412  0.1006 -0.9833
  179MOL0     C24040   8.740   1.308   1.692  0.1591  0.6417  1.1458
  179MOL0     C24041   8.709   1.285   1.544  0.4743 -0.0471 -0.7011
  179MOL0     C24042   8.743   1.403   1.463  0.2348 -0.1929 -0.3318
  179MOL0     C24043   8.703   1.378   1.314  1.1900  0.6995 -1.0630
  179MOL0     C24044   8.734   1.486   1.214  0.1262  0.3624 -0.0652
  179MOL0     C24045   8.885   1.508   1.213 -0.7740 -0.6865 -0.2797
  179MOL0     C24046   8.929   1.578   1.084  0.2606  0.3264 -0.0262
  179MOL0     N24047   9.076   1.591   1.086  0.3825 -0.1261 -0.3135
  179MOL0     C24048   9.158   1.480   1.065 -0.4150 -0.2786 -0.8100
  179MOL0     C24049   9.287   1.522   1.058  0.2628 -0.6552  0.6848
  179MOL0     C24050   9.411   1.437   1.029  0.4750 -0.3435 -0.2915
  179MOL0     C24051   9.415   1.380   0.892 -0.2426  0.8341 -0.6140
  179MOL0     C24052   9.388   1.475   0.787  0.4351 -0.5823 -0.0150
  179MOL0     C24053   9.494   1.585   0.755  0.3890 -0.0252  0.1165
  179MOL0     O24054   9.618   1.521   0.720  0.1632  0.0172  0.0650
  179MOL0     C24055   9.739   1.593   0.717  1.0140 -1.1719  0.9926
  179MOL0     C24056   9.856   1.523   0.688 -0.4627 -0.8359  0.4647
  179MOL0     C24057   9.976   1.586   0.665 -0.5426 -1.5608  1.3790
  179MOL0     C24058   9.986   1.726   0.695 -0.6136  0.1766  0.3153
  179MOL0     C24059  10.117   1.782   0.675  0.2026 -0.9224  0.8467
  179MOL0     O24060  10.206   1.719   0.603 -0.2697  0.0821  0.9586
  179MOL0     C24061  10.317   1.778   0.554 -0.0138 -0.6230 -0.4539
  179MOL0     C24062  10.419   1.694   0.521  0.1197  0.1210  0.4828
  179MOL0     C24063  10.539   1.738   0.468 -0.7582 -0.2109  0.0107
  179MOL0     C24064  10.567   1.876   0.462 -0.2287  0.0202 -0.3462
  179MOL0     O24065  10.690   1.907   0.417 -0.6740  0.2769  0.1725
  179MOL0     C24066  10.763   2.007   0.500 -0.2751 -0.3747 -0.6296
  179MOL0     C24067  10.821   1.962   0.638  0.4429  0.6643 -0.2469
  179MOL0     C24068  10.880   1.813   0.641 -0.4104 -0.1408 -0.1503
  179MOL0     C24069  10.837   1.746   0.774  0.8050  0.4630  0.5527
  179MOL0     C24070  10.882   1.606   0.813 -0.5235  0.7287  0.3360
  179MOL0     C24071  11.032   1.598   0.796 -0.2629 -0.1590  0.8371
  179MOL0     C24072  11.094   1.461   0.844  0.3107 -0.6767  0.4850
  179MOL0     C24073  11.070   1.345   0.745 -0.4202  0.3956 -0.0466
  179MOL0    Cl24074  11.181   1.365   0.601  0.6018 -0.7136 -0.4245
  179MOL0     C24075  10.470   1.959   0.501  0.0123  0.0855  0.2084
  179MOL0     C24076  10.348   1.912   0.545 -0.3981 -0.4693 -0.0849
  179MOL0     O24077  10.125   1.893   0.721 -0.1048 -0.0191 -0.3699
  179MOL0     C24078   9.874   1.797   0.726  0.2807 -0.6194  0.8014
  179MOL0     C24079   9.755   1.736   0.749  0.2867  0.0001  0.4979
  179MOL0     N24080   9.280   1.664   1.096  0.6771  0.5975  1.4939
  179MOL0     N24081   9.154   1.692   1.117 -1.2277  0.2498  0.8898
  179MOL0     C24082   8.946   1.219   2.061  0.6374 -0.7063 -0.1449
  179MOL0     C24083   9.072   1.189   2.102  0.3382  0.0203  0.6407
  179MOL0     C24084   9.406   0.878   2.146  0.0850 -0.7573  1.2698
  179MOL0     C24085   9.511   0.974   2.130  0.1673 -0.2792 -0.5233
  179MOL0     C24086   9.647   0.951   2.169  0.7042 -0.1373 -0.2008
  179MOL0     C24087   9.675   0.815   2.204 -0.2990 -0.5787 -0.5658
  179MOL0     O24088   9.806   0.764   2.213  0.0775  0.0628 -0.3091
  179MOL0     C24089   9.914   0.842   2.163  0.0336 -0.1465  0.1087
  179MOL0     C24090   9.967   0.932   2.279 -0.0438 -0.0908 -0.1823
  179MOL0     C24091  10.103   0.997   2.260 -1.2413  0.6537  0.4555
  179MOL0     C24092  10.112   1.089   2.137  0.2434 -0.1161 -0.8429
  179MOL0     C24093  10.033   1.210   2.166 -0.9671  0.0000 -0.3328
  179MOL0     C24094   9.953   1.305   2.187  0.0956  0.7701 -0.6845
  179MOL0     C24095   9.569   0.722   2.221  0.6783 -0.6664  0.8492
  179MOL0     C24096   9.436   0.750   2.177  0.3087  0.8967  0.0331
  179MOL0     C24097   9.335   0.631   2.162  1.4310  1.1392  0.6427
  179MOL0     H24098   9.138   0.939   1.880 -1.3052 -1.2236  2.3879
  179MOL0     H24099   8.897   0.998   1.811 -0.8486  0.9733  2.6725
  179MOL0     H24100   8.745   1.099   1.722 -1.0718  0.3821 -3.0391
  179MOL0     H24101   8.589   1.174   1.787  0.6119  3.1807  3.9531
  179MOL0     H24102   8.849   1.304   1.693  0.1263 -0.6540  2.2309
  179MOL0     H24103   8.702   1.405   1.725 -1.0926  1.9300 -3.3200
  179MOL0     H24104   8.600   1.273   1.545  0.3466  0.8575 -2.0586
  179MOL0     H24105   8.732   1.188   1.501  1.5390  0.5678 -1.5704
  179MOL0     H24106   8.695   1.493   1.503  3.2044  0.4004  2.2477
  179MOL0     H24107   8.851   1.416   1.469 -0.1522  3.6948  4.1003
  179MOL0     H24108   8.742   1.281   1.281 -2.3924 -0.8475 -1.1498
  179MOL0     H24109   8.596   1.360   1.323  1.0788  2.2515  1.9467
  179MOL0     H24110   8.708   1.457   1.111  1.2388  0.9137 -0.5111
  179MOL0     H24111   8.670   1.569   1.244 -0.5345 -0.1812  0.0653
  179MOL0     H24112   8.927   1.407   1.217  0.7357 -0.0619  2.2538
  179MOL0     H24113   8.920   1.565   1.300  0.3645 -1.0712 -0.4718
  179MOL0     H24114   8.905   1.519   0.996  0.1193 -0.4438  0.5190
  179MOL0     H24115   8.875   1.673   1.089 -2.9898 -1.3858  0.2023
  179MOL0     H24116   9.141   1.376   1.041  1.5051 -1.2864  1.7030
  179MOL0     H24117   9.501   1.499   1.028 -0.4971  1.1641 -2.3745
  179MOL0     H24118   9.430   1.353   1.097  1.1883 -1.4685 -1.8320
  179MOL0     H24119   9.517   1.340   0.886 -0.9966 -1.3680  0.4710
  179MOL0     H24120   9.349   1.294   0.882  0.8494 -0.0359 -0.5994
  179MOL0     H24121   9.301   1.532   0.819  0.5815  0.9872 -2.2052
  179MOL0     H24122   9.355   1.412   0.704  0.4759 -3.4502  1.9773
  179MOL0     H24123   9.509   1.637   0.850  0.7294 -0.6369  0.4082
  179MOL0     H24124   9.452   1.657   0.684 -1.2632 -1.0095  0.0336
  179MOL0     H24125   9.865   1.417   0.666 -0.4745 -1.1992  2.1394
  179MOL0     H24126  10.059   1.529   0.625  0.5471  0.8853 -0.0493
  179MOL0     H24127  10.403   1.587   0.533  0.6255  0.1130  1.1150
  179MOL0     H24128  10.600   1.667   0.413 -1.6771 -0.1303 -1.1504
  179MOL0     H24129  10.856   2.025   0.444 -0.5015 -2.4519 -1.7770
  179MOL0     H24130  10.705   2.099   0.502 -1.9096 -1.3632  1.0890
  179MOL0     H24131  10.903   2.026   0.671 -0.0785  0.9370  0.5648
  179MOL0     H24132  10.735   1.971   0.705  1.8915 -1.4326  2.1002
  179MOL0     H24133  10.864   1.750   0.553  2.4694 -3.0252  1.1771
  179MOL0     H24134  10.989   1.815   0.639 -0.2023 -1.4292  3.3982
  179MOL0     H24135  10.728   1.744   0.780  0.8420 -1.5434  1.3350
  179MOL0     H24136  10.859   1.814   0.857 -5.0289 -0.7927  3.6595
  179MOL0     H24137  10.826   1.542   0.744  1.0868  1.3047 -1.6085
  179MOL0     H24138  10.861   1.592   0.919  1.4427  1.7669  0.9097
  179MOL0     H24139  11.049   1.613   0.689  0.1725  1.7948  1.1248
  179MOL0     H24140  11.067   1.678   0.863  0.5663  0.1151  0.0972
  179MOL0     H24141  11.044   1.430   0.936 -1.2061 -0.6352 -0.2878
  179MOL0     H24142  11.203   1.464   0.850  0.7238 -3.5006 -2.6095
  179MOL0     H24143  11.105   1.251   0.790  2.6379  0.2925 -2.3026
  179MOL0     H24144  10.968   1.345   0.705 -0.1526  1.0539 -0.7367
  179MOL0     H24145  10.506   2.062   0.496  3.1405 -0.9425 -0.6838
  179MOL0     H24146  10.296   2.002   0.577  1.6673  1.2615 -1.2904
  179MOL0     H24147   9.885   1.905   0.730  2.6404 -0.7830  0.4887
  179MOL0     H24148   9.671   1.798   0.779  0.7767 -0.1283  2.2403
  179MOL0     H24149   8.892   1.306   2.097  0.8423 -1.5142  2.3045
  179MOL0     H24150   9.116   1.243   2.184  2.5307 -0.8997  0.1202
  179MOL0     H24151   9.492   1.078   2.104 -1.0256 -0.6179 -1.0660
  179MOL0     H24152   9.721   1.030   2.153 -0.1041  1.0382  1.5313
  179MOL0     H24153   9.886   0.905   2.079 -0.0968  2.7552  2.1898
  179MOL0     H24154   9.997   0.777   2.132  1.3639  2.5671 -2.5483
  179MOL0     H24155   9.979   0.871   2.369 -0.1189  1.7572  1.1296
  179MOL0     H24156   9.887   0.994   2.320 -0.4631 -1.9597  2.0210
  179MOL0     H24157  10.185   0.925   2.258 -0.9477  0.9817 -1.8493
  179MOL0     H24158  10.118   1.064   2.345  1.3999 -0.5400  1.0155
  179MOL0     H24159  10.214   1.125   2.122  0.1319 -0.2710 -2.1343
  179MOL0     H24160  10.092   1.036   2.043  0.3698 -1.8725  0.0707
  179MOL0     H24161   9.888   1.386   2.212  0.6099  0.4190  2.0750
  179MOL0     H24162   9.584   0.621   2.258  4.4897 -0.5243  0.0385
  179MOL0     H24163   9.268   0.638   2.075  2.0669  0.1167  0.0464
  179MOL0     H24164   9.378   0.530   2.166  2.8780  1.7034  0.1989
  179MOL0     H24165   9.287   0.637   2.259  3.0805  0.8810  1.5140
  180MOL0     O24166  10.772  10.355   0.558  0.4169  0.5075  0.1676
  180MOL0     C24167  10.753  10.251   0.490 -0.7996  0.1886  0.4095
  180MOL0     O24168  10.798  10.224   0.369 -0.4961  0.7998  0.7432
  180MOL0     C24169  10.890  10.299   0.301  0.6676 -0.0159 -0.8979
  180MOL0     C24170  10.882  10.311   0.163 -0.4879 -0.2029  0.2348
  180MOL0     C24171  10.978  10.394   0.096 -0.4664 -0.5706 -0.9941
  180MOL0     C24172  11.096  10.450   0.162  0.0635 -0.3848 -0.1932
  180MOL0     O24173  11.190  10.521   0.086 -0.0256 -0.2402 -0.5095
  180MOL0     C24174  11.290  10.597   0.155  0.0038 -0.2701 -0.1592
  180MOL0     C24175  11.351  10.695   0.060 -0.1367  0.0823  0.2444
  180MOL0     C24176  11.466  10.777   0.128  0.3088 -0.1577 -0.0093
  180MOL0     C24177  11.536  10.863   0.025 -0.3998 -0.1253  0.1926
  180MOL0     C24178  11.677  10.798  -0.002  0.5673 -0.3129  0.5265
  180MOL0     C24179  11.707  10.859  -0.138  1.0317  0.4702  0.6323
  180MOL0     C24180  11.852  10.820  -0.184  0.3621  0.0239 -1.0314
  180MOL0     C24181  11.879  10.853  -0.326 -0.5992 -0.2319 -0.0567
  180MOL0     N24182  11.829  10.750  -0.423  0.3841 -0.0305 -0.4671
  180MOL0     C24183  11.912  10.663  -0.502  0.7067  0.0617 -0.8417
  180MOL0     C24184  11.827  10.582  -0.566  0.1533 -0.2652 -0.5385
  180MOL0     C24185  11.857  10.460  -0.650 -0.6823  0.7689  0.8809
  180MOL0     C24186  11.811  10.492  -0.796  0.2901  0.6740 -0.1095
  180MOL0     C24187  11.827  10.372  -0.887  0.9588  0.4056  0.0706
  180MOL0     C24188  11.734  10.370  -1.003  0.0823  0.2082  1.2059
  180MOL0     O24189  11.745  10.487  -1.079  0.8530  0.2012 -0.2246
  180MOL0     C24190  11.703  10.472  -1.211  0.7878  1.0539  0.1925
  180MOL0     C24191  11.790  10.409  -1.306 -0.8623 -0.4788 -0.0655
  180MOL0     C24192  11.756  10.408  -1.447  0.3151 -0.3465  0.0066
  180MOL0     C24193  11.630  10.457  -1.485 -1.4751 -0.2604  0.1905
  180MOL0     C24194  11.601  10.483  -1.626 -0.3125 -0.3852 -0.5315
  180MOL0     O24195  11.687  10.432  -1.724 -1.2543  0.7706 -0.0929
  180MOL0     C24196  11.658  10.425  -1.857  0.7878  0.2222  0.0126
  180MOL0     C24197  11.760  10.467  -1.941  0.3555  1.4221  0.1569
  180MOL0     C24198  11.745  10.445  -2.081 -1.7601 -0.1315  0.0074
  180MOL0     C24199  11.626  10.414  -2.132  1.3482  0.1796  0.0182
  180MOL0     O24200  11.627  10.435  -2.263  0.1794 -0.1695 -0.1084
  180MOL0     C24201  11.508  10.492  -2.308 -0.7072 -0.2449 -0.3830
  180MOL0     C24202  11.525  10.563  -2.446 -0.7529  0.3469  0.1526
  180MOL0     C24203  11.400  10.546  -2.537  1.2930  0.1745 -0.4374
  180MOL0     C24204  11.410  10.623  -2.663  0.2248  0.4162  0.2615
  180MOL0     C24205  11.297  10.606  -2.761  0.1935  0.8641  0.3688
  180MOL0     C24206  11.148  10.636  -2.712  0.1394  0.3556  0.0097
  180MOL0     C24207  11.138  10.783  -2.674  0.2318 -0.1110  1.7414
  180MOL0     C24208  11.001  10.824  -2.620 -0.7696 -0.2570 -0.9884
  180MOL0    Cl24209  11.004  10.993  -2.587  0.0694 -0.3948 -0.6321
  180MOL0     C24210  11.522  10.371  -2.051  1.0251 -0.4368 -0.3125
  180MOL0     C24211  11.542  10.369  -1.912  0.1438  0.6409 -0.0910
  180MOL0     O24212  11.512  10.560  -1.657  1.0288  0.5532  0.0051
  180MOL0     C24213  11.551  10.509  -1.387  0.0651 -0.1299 -0.6936
  180MOL0     C24214  11.581  10.515  -1.251  0.1542  0.2807 -0.2846
  180MOL0     N24215  11.698  10.612  -0.529 -0.0145  0.7589  0.9618
  180MOL0     N24216  11.699  10.707  -0.451 -0.4222  0.2098 -0.1490
  180MOL0     C24217  11.093  10.424   0.293 -0.0840 -0.2352 -0.7308
  180MOL0     C24218  11.002  10.358   0.369 -1.2449  0.0716 -0.4398
  180MOL0     C24219  10.672  10.139   0.540 -0.7727 -0.4453  0.3664
  180MOL0     C24220  10.596  10.171   0.648 -0.3243 -0.0175  0.1258
  180MOL0     C24221  10.521  10.077   0.711  0.5970  0.9482 -0.3542
  180MOL0     C24222  10.525   9.942   0.684 -0.1256 -0.1253  0.5375
  180MOL0     O24223  10.449   9.853   0.758  0.1293 -0.7940  0.1275
  180MOL0     C24224  10.419   9.721   0.705 -0.0125  0.0710 -0.3082
  180MOL0     C24225  10.468   9.614   0.804 -0.8287 -0.3313 -0.5518
  180MOL0     C24226  10.616   9.613   0.813  0.1105 -0.2336  0.7234
  180MOL0     C24227  10.667   9.482   0.876 -0.4910  0.1290 -0.1849
  180MOL0     C24228  10.668   9.384   0.776 -0.0893  0.0202 -0.0404
  180MOL0     C24229  10.654   9.289   0.698 -0.2734  0.0467  1.1561
  180MOL0     C24230  10.602   9.905   0.579 -0.5401 -0.1455 -0.6261
  180MOL0     C24231  10.675   9.996   0.507 -0.5019 -0.4719 -0.2255
  180MOL0     C24232  10.740   9.945   0.373  1.0869 -0.4926  0.0339
  180MOL0     H24233  10.798  10.271   0.108 -0.9230  1.3261 -0.2587
  180MOL0     H24234  10.976  10.412  -0.011  0.5643  0.7278 -0.8141
  180MOL0     H24235  11.235  10.652   0.231  0.4212 -0.7512  0.5051
  180MOL0     H24236  11.360  10.527   0.202 -0.0754  0.0632  0.4547
  180MOL0     H24237  11.261  10.753   0.039  1.3713  2.2667 -0.6047
  180MOL0     H24238  11.388  10.638  -0.026  0.8530 -0.7173  1.1750
  180MOL0     H24239  11.539  10.707   0.170 -0.1408 -0.0491  0.9969
  180MOL0     H24240  11.427  10.844   0.205 -0.1629  0.1300 -0.4976
  180MOL0     H24241  11.461  10.867  -0.054 -0.3292  1.1272  0.1721
  180MOL0     H24242  11.553  10.965   0.061  0.1585 -0.0999 -0.1403
  180MOL0     H24243  11.749  10.836   0.072  1.1071  0.5199 -0.4037
  180MOL0     H24244  11.663  10.690   0.008 -1.4524  0.0482  2.2305
  180MOL0     H24245  11.637  10.824  -0.214  0.8498 -1.4630  1.6177
  180MOL0     H24246  11.720  10.967  -0.128  1.1881  0.4235  0.9344
  180MOL0     H24247  11.855  10.712  -0.165 -1.4449  0.1025 -0.1464
  180MOL0     H24248  11.933  10.848  -0.116 -0.2554 -3.0759  1.2230
  180MOL0     H24249  11.835  10.948  -0.355  0.2456 -0.5075 -2.5305
  180MOL0     H24250  11.988  10.860  -0.336 -0.7124  3.2058  0.1860
  180MOL0     H24251  12.020  10.651  -0.504  0.7503  0.3397 -0.4269
  180MOL0     H24252  11.964  10.438  -0.648 -0.0715  2.3767 -3.1517
  180MOL0     H24253  11.797  10.373  -0.623  1.6408 -1.0527  0.5134
  180MOL0     H24254  11.705  10.516  -0.802  0.0856 -0.1556  0.0481
  180MOL0     H24255  11.873  10.574  -0.835 -0.6227  0.5009 -2.0200
  180MOL0     H24256  11.821  10.275  -0.837  2.9181  0.6366  0.8479
  180MOL0     H24257  11.929  10.379  -0.925  1.2714 -0.8871  0.6081
  180MOL0     H24258  11.635  10.355  -0.961  0.1195 -0.6648  0.9888
  180MOL0     H24259  11.762  10.286  -1.067  1.3063 -1.1560  3.3994
  180MOL0     H24260  11.890  10.389  -1.269  0.5872  4.6685 -0.5151
  180MOL0     H24261  11.812  10.372  -1.532  0.7500  0.0594  0.1146
  180MOL0     H24262  11.846  10.515  -1.897  1.0484 -1.2723  2.0086
  180MOL0     H24263  11.835  10.475  -2.134  0.1047 -4.1257  0.5291
  180MOL0     H24264  11.433  10.413  -2.313 -2.4174  1.3564 -3.3093
  180MOL0     H24265  11.475  10.568  -2.236  2.1503 -1.1221  2.0070
  180MOL0     H24266  11.554  10.669  -2.440 -0.1736  0.3841 -2.1752
  180MOL0     H24267  11.607  10.510  -2.496 -0.5216  2.5035 -1.9739
  180MOL0     H24268  11.364  10.446  -2.562 -2.6848  1.4881 -0.7622
  180MOL0     H24269  11.320  10.594  -2.479  2.9008  1.0795  1.1013
  180MOL0     H24270  11.505  10.602  -2.713  0.4529  4.0497 -1.1048
  180MOL0     H24271  11.407  10.726  -2.626 -1.4435  1.6797 -2.9664
  180MOL0     H24272  11.289  10.501  -2.789 -1.0385  1.2925 -1.0453
  180MOL0     H24273  11.319  10.665  -2.851  0.5550 -1.1667 -0.9258
  180MOL0     H24274  11.076  10.607  -2.790  1.0789 -0.2941 -0.6414
  180MOL0     H24275  11.122  10.581  -2.621  1.3716 -0.7200 -0.2552
  180MOL0     H24276  11.170  10.837  -2.763 -0.1913 -1.6901  0.5862
  180MOL0     H24277  11.195  10.807  -2.584 -1.3701  2.3679  2.2011
  180MOL0     H24278  10.924  10.803  -2.695 -0.4486  0.1710 -1.4385
  180MOL0     H24279  10.986  10.771  -2.525  1.4208 -1.3219 -1.1746
  180MOL0     H24280  11.434  10.320  -2.089  0.3197 -0.4407  1.2784
  180MOL0     H24281  11.477  10.314  -1.845  0.5489  2.8325  2.2442
  180MOL0     H24282  11.450  10.534  -1.419  0.9128  1.8401 -1.9979
  180MOL0     H24283  11.523  10.556  -1.169  1.4649  1.7212 -0.0246
  180MOL0     H24284  11.169  10.460   0.362 -1.0506 -0.9501  0.7646
  180MOL0     H24285  11.017  10.348   0.476  1.6384  2.1631 -0.5538
  180MOL0     H24286  10.589  10.273   0.682 -0.2423  0.4032 -1.0794
  180MOL0     H24287  10.463  10.124   0.790  0.4529 -0.8687  0.6869
  180MOL0     H24288  10.452   9.698   0.603 -2.5488 -1.1775 -0.9282
  180MOL0     H24289  10.309   9.716   0.706 -0.0281  0.3530  0.8123
  180MOL0     H24290  10.434   9.521   0.757 -1.2375 -1.1665  1.3409
  180MOL0     H24291  10.428   9.611   0.906 -1.7467  0.8312 -0.8514
  180MOL0     H24292  10.640   9.703   0.870 -0.2039  1.3487 -1.5132
  180MOL0     H24293  10.666   9.623   0.716  2.6233 -0.2773  1.9422
  180MOL0     H24294  10.773   9.501   0.897 -0.9148  1.6748  0.7529
  180MOL0     H24295  10.609   9.439   0.958  0.3747  1.0168  0.9260
  180MOL0     H24296  10.649   9.204   0.634 -2.8405 -0.4237  1.8826
  180MOL0     H24297  10.617   9.805   0.540 -0.6568  0.9823 -3.8238
  180MOL0     H24298  10.704   9.843   0.358 -0.6980 -0.7286  4.5033
  180MOL0     H24299  10.704  10.013   0.295 -0.1421  3.3915  3.6082
  180MOL0     H24300  10.849   9.957   0.372  0.9176  1.3757  0.1289
  181MOL0     O24301   5.054   1.234   3.297  0.1032  0.1154  0.0441
  181MOL0     C24302   5.025   1.120   3.336  0.1514 -0.0942 -0.2467
  181MOL0     O24303   4.949   1.104   3.443 -0.2991 -0.4470 -0.3551
  181MOL0     C24304   5.007   1.026   3.543  0.6473  0.0934 -0.7134
  181MOL0     C24305   5.148   1.006   3.554 -0.7560  0.7268 -0.0850
  181MOL0     C24306   5.202   0.929   3.655  1.0897 -0.3581  0.3500
  181MOL0     C24307   5.121   0.864   3.747 -0.1449  0.4838 -0.8405
  181MOL0     O24308   5.166   0.791   3.857  0.3256 -0.3544 -0.8649
  181MOL0     C24309   5.173   0.860   3.982 -0.7344  0.2441 -0.3814
  181MOL0     C24310   5.284   0.969   3.977 -0.6768 -0.4705  0.2419
  181MOL0     C24311   5.426   0.895   3.961  0.5914 -0.0724  0.2432
  181MOL0     C24312   5.476   0.838   4.097  0.0001 -0.2128  0.0340
  181MOL0     C24313   5.597   0.921   4.150  0.0359  0.8405  0.4302
  181MOL0     C24314   5.620   0.898   4.299 -0.4913 -0.3359 -0.8210
  181MOL0     C24315   5.746   0.969   4.352 -0.1648  0.5546 -0.8501
  181MOL0     C24316   5.875   0.892   4.302  1.2033  0.0265  0.1509
  181MOL0     N24317   5.995   0.950   4.348  0.5614 -0.3485 -0.2670
  181MOL0     C24318   6.068   0.918   4.457 -0.6328 -0.8499  0.7100
  181MOL0     C24319   6.171   1.009   4.454 -0.5426  1.1627 -0.6103
  181MOL0     C24320   6.266   1.033   4.572  0.7048  0.3966 -0.4961
  181MOL0     C24321   6.192   1.066   4.706 -0.2189 -1.0047  1.5675
  181MOL0     C24322   6.297   1.100   4.811  0.1130  1.2368  0.0856
  181MOL0     C24323   6.239   1.180   4.930 -0.0797 -0.3607  0.3293
  181MOL0     O24324   6.363   1.187   5.011  0.8901  0.4760  0.1851
  181MOL0     C24325   6.355   1.262   5.129 -0.1505  0.7609  0.7263
  181MOL0     C24326   6.251   1.346   5.160 -0.1728  0.6607 -0.4015
  181MOL0     C24327   6.269   1.436   5.263  0.3881 -0.5553  0.2458
  181MOL0     C24328   6.386   1.452   5.332 -0.0582  0.3709 -0.1158
  181MOL0     C24329   6.406   1.557   5.444 -0.0936  0.1636  0.4950
  181MOL0     O24330   6.519   1.554   5.527 -0.6697 -0.2480 -0.2751
  181MOL0     C24331   6.533   1.643   5.633 -0.7186 -0.1474 -0.0533
  181MOL0     C24332   6.605   1.593   5.740 -0.5135  0.5178  0.2195
  181MOL0     C24333   6.643   1.669   5.858 -0.8639 -0.7563 -0.0211
  181MOL0     C24334   6.601   1.802   5.865 -0.4768 -1.2597 -0.4572
  181MOL0     O24335   6.630   1.876   5.976  0.4599  0.0566 -0.3811
  181MOL0     C24336   6.700   1.838   6.085 -0.3127 -0.0158 -0.2973
  181MOL0     C24337   6.724   1.966   6.165  0.4607 -0.8421 -0.6581
  181MOL0     C24338   6.786   1.921   6.297  0.4670 -0.3860 -0.4609
  181MOL0     C24339   6.841   2.052   6.366 -0.6371  0.5310  1.0860
  181MOL0     C24340   6.936   2.018   6.484 -0.6226  0.1525  0.3161
  181MOL0     C24341   6.852   1.959   6.595 -0.1061  0.0979  0.3482
  181MOL0     C24342   6.891   1.998   6.743  0.5227 -0.6378 -0.0654
  181MOL0     C24343   7.023   1.940   6.785  0.1707  0.5401  0.5728
  181MOL0    Cl24344   7.053   1.986   6.962 -0.1390 -0.7172 -0.4558
  181MOL0     C24345   6.506   1.848   5.770  0.5539 -0.4052 -0.7125
  181MOL0     C24346   6.472   1.768   5.652 -0.8469 -1.0793 -0.3785
  181MOL0     O24347   6.322   1.645   5.440 -0.3606 -0.7005 -0.4978
  181MOL0     C24348   6.493   1.367   5.299  0.4579  0.1475  0.2927
  181MOL0     C24349   6.479   1.268   5.201  0.8125  1.0445  0.2766
  181MOL0     N24350   6.168   1.073   4.339 -0.1324  0.8282  0.5241
  181MOL0     N24351   6.057   1.045   4.274  0.2079  0.1913  0.3467
  181MOL0     C24352   4.984   0.884   3.730 -0.0416  0.4246 -0.0253
  181MOL0     C24353   4.920   0.955   3.627  0.3139 -1.0348 -0.7566
  181MOL0     C24354   5.083   0.999   3.274 -0.3853 -0.7424 -0.6398
  181MOL0     C24355   5.001   0.884   3.256  0.3192  0.4333 -0.4642
  181MOL0     C24356   5.050   0.764   3.201 -0.6002 -0.1562  0.0216
  181MOL0     C24357   5.172   0.761   3.131 -0.1020  0.8181 -0.3970
  181MOL0     O24358   5.209   0.657   3.049 -0.6981  0.1768  0.5107
  181MOL0     C24359   5.122   0.638   2.931  0.1837  0.1080  0.7675
  181MOL0     C24360   5.141   0.762   2.829 -0.4785  0.2035 -0.4586
  181MOL0     C24361   5.060   0.737   2.711  0.2595  0.2365  0.0488
  181MOL0     C24362   5.060   0.855   2.620 -1.0345 -0.3210  0.1008
  181MOL0     C24363   5.015   0.826   2.482  1.1255  0.9382 -0.5440
  181MOL0     C24364   4.968   0.798   2.374  0.3209  0.6996 -0.2312
  181MOL0     C24365   5.255   0.871   3.134 -0.3901 -0.6230  0.3331
  181MOL0     C24366   5.207   0.989   3.205 -0.7779 -0.7864  0.2111
  181MOL0     C24367   5.310   1.103   3.205  0.6392  0.5781  0.1591
  181MOL0     H24368   5.217   1.060   3.489 -0.6021  0.8855  0.2070
  181MOL0     H24369   5.310   0.927   3.648  1.0696  0.6940 -0.5022
  181MOL0     H24370   5.079   0.915   3.997 -2.4622 -1.0212 -4.8077
  181MOL0     H24371   5.179   0.793   4.068 -1.8838 -0.6135 -0.9329
  181MOL0     H24372   5.292   1.036   4.063  1.4974  1.5817 -1.4182
  181MOL0     H24373   5.276   1.035   3.890  0.9414  3.3356  2.7290
  181MOL0     H24374   5.495   0.978   3.942  0.7432 -0.3742 -0.5831
  181MOL0     H24375   5.421   0.827   3.875 -0.7893  0.3956 -0.0700
  181MOL0     H24376   5.390   0.839   4.164 -2.3682  0.3675 -2.8047
  181MOL0     H24377   5.509   0.735   4.079 -0.8707 -1.3587  4.0287
  181MOL0     H24378   5.686   0.898   4.091 -0.1989 -2.2723  1.1465
  181MOL0     H24379   5.587   1.029   4.137 -2.4907  0.8488  1.8413
  181MOL0     H24380   5.531   0.935   4.351  0.5037  0.6630  0.2185
  181MOL0     H24381   5.623   0.790   4.319 -1.1340  0.0143  1.4298
  181MOL0     H24382   5.749   0.959   4.460  1.8597  0.5665 -0.8697
  181MOL0     H24383   5.740   1.076   4.330  1.6025  1.3752  2.1342
  181MOL0     H24384   5.872   0.790   4.339 -0.2590 -0.0809 -0.1859
  181MOL0     H24385   5.875   0.900   4.193 -2.4994  0.0454  0.0232
  181MOL0     H24386   6.042   0.864   4.547 -0.8953 -0.3659  0.9249
  181MOL0     H24387   6.333   0.948   4.586  1.5020  0.4420 -3.3967
  181MOL0     H24388   6.328   1.117   4.539  0.2112  1.0938  0.3273
  181MOL0     H24389   6.135   1.156   4.681 -0.8213 -1.4073  1.4621
  181MOL0     H24390   6.127   0.987   4.745 -1.4855 -0.3703  0.8113
  181MOL0     H24391   6.368   1.165   4.759  0.3182 -0.6598 -2.1615
  181MOL0     H24392   6.347   1.011   4.850 -2.4845 -0.3104  0.1051
  181MOL0     H24393   6.160   1.123   4.980  1.1205 -2.0399  0.3751
  181MOL0     H24394   6.206   1.282   4.909 -1.4640 -0.5431  1.4490
  181MOL0     H24395   6.156   1.352   5.108  0.6975  0.2512 -2.1233
  181MOL0     H24396   6.191   1.509   5.282 -0.5535 -1.7133  0.9848
  181MOL0     H24397   6.630   1.489   5.730  0.3391  0.8864 -1.9077
  181MOL0     H24398   6.718   1.617   5.918  1.5866 -1.4678 -3.4254
  181MOL0     H24399   6.641   1.772   6.149  0.1238  1.4402  1.7259
  181MOL0     H24400   6.792   1.791   6.049  1.8423  1.9886  2.2138
  181MOL0     H24401   6.804   2.026   6.121 -0.5976  0.0937 -1.3573
  181MOL0     H24402   6.632   2.023   6.182  0.0321 -2.1540  1.9784
  181MOL0     H24403   6.710   1.898   6.372  1.2657  0.7604  0.7447
  181MOL0     H24404   6.864   1.847   6.282 -1.1205 -1.3845 -6.2966
  181MOL0     H24405   6.759   2.111   6.406 -1.5416  1.1750 -1.5593
  181MOL0     H24406   6.904   2.112   6.299  0.9458 -0.3146  1.7574
  181MOL0     H24407   6.988   2.108   6.516 -1.2475  0.4578  0.4945
  181MOL0     H24408   7.020   1.959   6.446 -0.1759  1.7603 -1.2820
  181MOL0     H24409   6.748   1.992   6.584  0.4016  1.3023 -1.3076
  181MOL0     H24410   6.863   1.850   6.592 -1.6578 -0.2212  3.0404
  181MOL0     H24411   6.809   1.961   6.804 -0.7319 -0.5939 -1.6718
  181MOL0     H24412   6.897   2.106   6.757  0.6688 -0.8510  1.7380
  181MOL0     H24413   7.017   1.831   6.770  0.5704  0.5323  0.4545
  181MOL0     H24414   7.108   1.962   6.719 -0.3739 -1.5073 -0.9485
  181MOL0     H24415   6.457   1.942   5.791 -1.2875 -2.2217  4.6829
  181MOL0     H24416   6.398   1.822   5.593 -2.4549 -0.3949  2.1306
  181MOL0     H24417   6.582   1.385   5.358  0.7527 -0.5632  0.0731
  181MOL0     H24418   6.553   1.190   5.191  2.8178  2.8233  0.6373
  181MOL0     H24419   4.907   0.853   3.799 -0.5213  2.5803  0.4876
  181MOL0     H24420   4.814   0.976   3.611 -0.8008 -5.9624 -1.6992
  181MOL0     H24421   4.900   0.884   3.294  0.5841 -0.8688  0.3025
  181MOL0     H24422   4.978   0.685   3.183  0.1623 -1.2612  1.6756
  181MOL0     H24423   5.016   0.620   2.952 -1.0127  1.2203 -3.4109
  181MOL0     H24424   5.157   0.547   2.879 -1.7510  0.8228 -2.0099
  181MOL0     H24425   5.248   0.765   2.806  1.1431  2.2436  5.5737
  181MOL0     H24426   5.106   0.855   2.874  1.5919  1.3234 -1.0265
  181MOL0     H24427   4.961   0.712   2.750  0.0211  1.3842  0.1931
  181MOL0     H24428   5.112   0.655   2.660  0.2220  1.5422 -2.2367
  181MOL0     H24429   4.983   0.927   2.649 -3.3887 -2.7328  0.2101
  181MOL0     H24430   5.158   0.902   2.630 -0.2068 -2.0411  0.6564
  181MOL0     H24431   4.931   0.773   2.276  1.7698 -0.4818 -0.5165
  181MOL0     H24432   5.346   0.858   3.077  1.3209  1.2962  2.4040
  181MOL0     H24433   5.310   1.147   3.306 -1.6486  0.9959  0.0146
  181MOL0     H24434   5.408   1.066   3.174 -2.1818 -5.9904 -2.7022
  181MOL0     H24435   5.279   1.182   3.137 -4.9707 -0.5269  0.9345
  182MOL0     O24436   0.673   8.328   2.326 -0.2830 -0.8122  0.4209
  182MOL0     C24437   0.749   8.250   2.374 -0.0148  0.2261 -0.2572
  182MOL0     O24438   0.712   8.151   2.464  1.1276 -0.1910  0.8901
  182MOL0     C24439   0.578   8.119   2.477  0.2741 -0.4667  0.0700
  182MOL0     C24440   0.480   8.195   2.545 -0.8284  0.6155  0.4415
  182MOL0     C24441   0.351   8.149   2.532 -0.1842  1.8048 -0.0882
  182MOL0     C24442   0.316   8.024   2.481 -0.0235  0.1419 -0.5328
  182MOL0     O24443   0.186   7.963   2.478  0.2911 -0.4454  0.2372
  182MOL0     C24444   0.063   8.043   2.457  0.5623  0.5927  1.1919
  182MOL0     C24445  -0.065   7.964   2.474  0.0659  0.4258  0.2557
  182MOL0     C24446  -0.202   8.048   2.474 -0.3469 -0.2690  0.1194
  182MOL0     C24447  -0.290   8.058   2.602 -0.3650  0.8592 -0.7396
  182MOL0     C24448  -0.433   8.032   2.568 -0.4002  0.8113  0.3864
  182MOL0     C24449  -0.482   7.886   2.565 -0.4099  0.0406 -0.6985
  182MOL0     C24450  -0.454   7.803   2.692 -0.2258  0.4890 -0.0561
  182MOL0     C24451  -0.438   7.653   2.658  0.2433  0.2688  0.1969
  182MOL0     N24452  -0.345   7.628   2.540  0.1850  0.5911 -0.2948
  182MOL0     C24453  -0.389   7.593   2.415 -0.4292  0.7461 -0.0541
  182MOL0     C24454  -0.280   7.582   2.337  0.4929 -0.2799  0.0908
  182MOL0     C24455  -0.285   7.544   2.198  0.3098 -0.4492 -0.7212
  182MOL0     C24456  -0.253   7.670   2.115 -0.8491  0.5589  0.6970
  182MOL0     C24457  -0.108   7.741   2.124 -0.0534  0.1270  0.2094
  182MOL0     C24458  -0.009   7.660   2.033 -0.6546  0.7022  0.0378
  182MOL0     O24459   0.116   7.733   2.046  0.3054 -0.0560 -0.0883
  182MOL0     C24460   0.227   7.655   2.068 -0.8384 -0.1999  0.1563
  182MOL0     C24461   0.308   7.612   1.962  0.3680 -1.2064 -0.2505
  182MOL0     C24462   0.416   7.539   1.984  0.2789  0.0446 -0.3098
  182MOL0     C24463   0.462   7.504   2.110  0.7057  0.6462 -0.0405
  182MOL0     C24464   0.567   7.400   2.136  0.2705 -0.9495 -0.4529
  182MOL0     O24465   0.586   7.369   2.264 -0.0374 -0.4228 -0.1857
  182MOL0     C24466   0.659   7.260   2.289 -0.0210 -0.2614 -0.5341
  182MOL0     C24467   0.603   7.136   2.305  0.9902 -0.0071  0.6749
  182MOL0     C24468   0.674   7.027   2.346  0.0906 -0.6142  0.3182
  182MOL0     C24469   0.812   7.039   2.382  1.1352  0.4469  0.7073
  182MOL0     O24470   0.881   6.932   2.427  0.2819 -0.5943 -0.1843
  182MOL0     C24471   0.896   6.814   2.349  0.4713 -0.3225 -0.2850
  182MOL0     C24472   0.902   6.709   2.458  0.3684  0.2077 -0.2465
  182MOL0     C24473   0.928   6.572   2.389 -0.4850  0.4769 -0.4242
  182MOL0     C24474   0.888   6.450   2.463  1.0857 -0.5328 -0.5690
  182MOL0     C24475   0.865   6.329   2.376  0.6797 -0.5846  0.3119
  182MOL0     C24476   0.820   6.196   2.453 -0.7457 -0.5245  0.1618
  182MOL0     C24477   0.936   6.105   2.490  0.4585 -0.1628 -0.1512
  182MOL0     C24478   0.872   5.982   2.550  0.4497  0.1886 -0.3857
  182MOL0    Cl24479   0.782   5.872   2.433  0.4111  0.2184 -0.0383
  182MOL0     C24480   0.864   7.165   2.372 -0.1937 -0.0807  0.1593
  182MOL0     C24481   0.785   7.276   2.328 -0.2532  0.0483 -0.4121
  182MOL0     O24482   0.606   7.334   2.041  0.0332 -0.3628  0.2212
  182MOL0     C24483   0.384   7.558   2.213 -0.1527 -0.6423 -0.9741
  182MOL0     C24484   0.266   7.630   2.192  0.7707  0.1757 -0.4391
  182MOL0     N24485  -0.169   7.616   2.419  0.1716 -0.0863 -0.4913
  182MOL0     N24486  -0.210   7.625   2.545 -0.9504 -0.0424  0.5278
  182MOL0     C24487   0.415   7.945   2.439 -0.7492  0.8520 -0.2125
  182MOL0     C24488   0.545   7.996   2.425  0.3743 -0.5818 -0.2350
  182MOL0     C24489   0.895   8.246   2.346  1.1833 -0.3791  0.6656
  182MOL0     C24490   0.959   8.122   2.388  1.3478 -0.7463  0.6320
  182MOL0     C24491   1.093   8.112   2.362 -0.4367  0.1892 -0.2819
  182MOL0     C24492   1.170   8.208   2.296 -0.1003  0.0200  0.9167
  182MOL0     O24493   1.302   8.184   2.268 -0.5095 -0.2798  0.5553
  182MOL0     C24494   1.359   8.052   2.284 -0.3614  1.2336 -0.5131
  182MOL0     C24495   1.494   8.038   2.212  0.8463 -0.8220 -0.8508
  182MOL0     C24496   1.605   8.098   2.301 -0.4837 -0.8043  0.3579
  182MOL0     C24497   1.743   8.108   2.227  0.2143 -0.4895 -0.1307
  182MOL0     C24498   1.736   8.168   2.094 -0.0982 -0.1261  1.4522
  182MOL0     C24499   1.731   8.228   1.984 -0.1671  0.2683 -0.1977
  182MOL0     C24500   1.112   8.323   2.248 -0.0961  0.8446 -0.3576
  182MOL0     C24501   0.971   8.349   2.272 -0.7024 -1.2780 -0.3866
  182MOL0     C24502   0.916   8.480   2.213  0.3872 -0.2419 -0.3178
  182MOL0     H24503   0.488   8.292   2.594  0.8449 -0.4978  2.4784
  182MOL0     H24504   0.274   8.204   2.586  0.3428 -0.1931  2.9818
  182MOL0     H24505   0.052   8.111   2.542 -2.1140  0.9955  0.6134
  182MOL0     H24506   0.043   8.089   2.359 -2.4044  1.0345  1.9114
  182MOL0     H24507  -0.054   7.899   2.560  0.7792  0.4325  0.1747
  182MOL0     H24508  -0.066   7.901   2.385 -2.2072  1.3653 -0.4731
  182MOL0     H24509  -0.269   8.004   2.400  0.6897 -0.9379 -0.4522
  182MOL0     H24510  -0.185   8.144   2.424 -1.3154 -1.4805 -2.7371
  182MOL0     H24511  -0.264   7.995   2.688 -1.5274  0.5241 -0.6208
  182MOL0     H24512  -0.280   8.161   2.636 -4.3492  0.8530  1.0093
  182MOL0     H24513  -0.501   8.071   2.644 -0.4455 -0.9561  1.3031
  182MOL0     H24514  -0.449   8.086   2.474  0.9085  0.1461 -0.2437
  182MOL0     H24515  -0.589   7.893   2.542 -1.0294 -1.9764  1.1601
  182MOL0     H24516  -0.429   7.834   2.485  0.9016  0.6707 -0.2696
  182MOL0     H24517  -0.534   7.829   2.762 -4.0998  0.3313 -4.0431
  182MOL0     H24518  -0.361   7.826   2.746 -0.5697  1.6506  0.0498
  182MOL0     H24519  -0.392   7.611   2.748 -1.4309 -0.0408  0.9416
  182MOL0     H24520  -0.534   7.603   2.641  0.3340 -0.1127  0.7613
  182MOL0     H24521  -0.491   7.571   2.387 -1.7828 -0.3565  4.7787
  182MOL0     H24522  -0.219   7.458   2.190  0.8500 -0.7061  3.8961
  182MOL0     H24523  -0.387   7.513   2.174  0.0384 -0.4839  0.4536
  182MOL0     H24524  -0.259   7.625   2.016 -1.9058 -3.0629  2.2151
  182MOL0     H24525  -0.323   7.751   2.138 -1.6046 -0.0171  0.4447
  182MOL0     H24526  -0.074   7.753   2.227 -1.5688 -0.0899  0.7705
  182MOL0     H24527  -0.101   7.841   2.080  4.1969 -1.1641 -2.6176
  182MOL0     H24528  -0.049   7.658   1.931  1.8312  4.4276 -1.2093
  182MOL0     H24529   0.004   7.557   2.067 -2.4313  0.1593 -0.7825
  182MOL0     H24530   0.288   7.654   1.864  1.5501  0.6737  0.2728
  182MOL0     H24531   0.466   7.497   1.898 -0.6030 -3.8079  0.8515
  182MOL0     H24532   0.498   7.119   2.281  0.1683  4.2088  0.5002
  182MOL0     H24533   0.625   6.931   2.360  0.6745 -1.0587 -0.5761
  182MOL0     H24534   0.809   6.804   2.284  0.7402  2.7105 -1.2835
  182MOL0     H24535   0.991   6.813   2.293  0.6628  0.8534 -0.0012
  182MOL0     H24536   0.970   6.724   2.543  1.3747 -3.9740 -0.0740
  182MOL0     H24537   0.805   6.711   2.509  2.0491  2.6375  3.3282
  182MOL0     H24538   0.865   6.562   2.300  0.9572  1.0298 -1.5489
  182MOL0     H24539   1.033   6.558   2.363 -0.7248 -3.1154  0.0102
  182MOL0     H24540   0.790   6.474   2.504  1.2159  2.1517 -1.6222
  182MOL0     H24541   0.964   6.424   2.538  1.1092 -3.1672 -1.3955
  182MOL0     H24542   0.963   6.310   2.331 -0.0734 -0.1348 -1.6552
  182MOL0     H24543   0.783   6.344   2.304 -1.0874  1.2516  2.5759
  182MOL0     H24544   0.770   6.239   2.540 -0.0400 -0.1644  0.3922
  182MOL0     H24545   0.745   6.136   2.400  0.1691 -2.0205  0.5235
  182MOL0     H24546   0.999   6.150   2.567 -1.9674  3.5482 -0.0987
  182MOL0     H24547   0.993   6.065   2.406 -1.3747 -0.5985 -1.2433
  182MOL0     H24548   0.947   5.923   2.604  1.0195  0.9701 -0.3067
  182MOL0     H24549   0.806   6.020   2.628  2.0095  3.1412 -0.3665
  182MOL0     H24550   0.963   7.186   2.413 -1.2093  1.3634  2.0471
  182MOL0     H24551   0.839   7.371   2.332 -4.1679  2.4196  2.1187
  182MOL0     H24552   0.410   7.536   2.316 -0.6738 -1.3055 -0.9807
  182MOL0     H24553   0.206   7.658   2.278 -0.0193 -1.5517 -0.3878
  182MOL0     H24554   0.391   7.853   2.388 -2.5952 -0.9590  3.5415
  182MOL0     H24555   0.622   7.931   2.385 -2.7956 -3.9781 -1.3407
  182MOL0     H24556   0.906   8.037   2.431 -0.1178  0.3768  1.1000
  182MOL0     H24557   1.138   8.021   2.401 -1.7440 -0.0826  0.6539
  182MOL0     H24558   1.282   7.992   2.236 -0.2504  2.1501 -1.8709
  182MOL0     H24559   1.379   8.024   2.388  2.4643  2.2624 -0.6832
  182MOL0     H24560   1.477   8.084   2.114 -2.2459  0.1694  0.0275
  182MOL0     H24561   1.509   7.930   2.200 -1.0134 -1.3167  0.8046
  182MOL0     H24562   1.637   8.043   2.390  4.9762 -0.9371 -1.2931
  182MOL0     H24563   1.584   8.200   2.335 -3.6426 -0.9696 -0.8102
  182MOL0     H24564   1.804   8.173   2.291 -1.8492  0.7471  0.6807
  182MOL0     H24565   1.789   8.009   2.219  3.1685  0.8081 -0.6731
  182MOL0     H24566   1.721   8.262   1.882 -1.1930 -1.6313 -0.7777
  182MOL0     H24567   1.177   8.387   2.189  0.0019 -1.1661 -2.5960
  182MOL0     H24568   0.822   8.511   2.259 -0.4841 -1.7183 -1.0610
  182MOL0     H24569   0.984   8.564   2.230 -0.1227 -0.3517  3.0754
  182MOL0     H24570   0.891   8.469   2.107 -0.4517 -2.1108  0.0386
  183MOL0     O24571   5.020   3.512   4.414 -1.1740  0.2983 -0.1640
  183MOL0     C24572   4.958   3.478   4.310 -0.0629  0.0802 -0.0222
  183MOL0     O24573   4.994   3.511   4.178 -0.1533 -0.0060  0.5365
  183MOL0     C24574   5.118   3.563   4.163 -0.7419  0.4136  0.6156
  183MOL0     C24575   5.248   3.498   4.150 -0.1105  0.9969 -0.1779
  183MOL0     C24576   5.368   3.569   4.131  0.5147 -0.8647 -0.3790
  183MOL0     C24577   5.360   3.716   4.133 -0.3571 -0.3022  0.1871
  183MOL0     O24578   5.475   3.789   4.130 -0.7454  0.2733 -0.5057
  183MOL0     C24579   5.500   3.926   4.129 -0.4575  0.2967 -0.5459
  183MOL0     C24580   5.461   3.984   4.273 -0.4473  0.2414 -1.6003
  183MOL0     C24581   5.504   4.121   4.287 -0.0270 -0.6270 -0.7949
  183MOL0     C24582   5.431   4.246   4.213  0.0907  0.8658  0.1681
  183MOL0     C24583   5.285   4.235   4.199 -0.3443 -0.4750  0.3102
  183MOL0     C24584   5.222   4.237   4.342  0.7842  0.6823 -0.2540
  183MOL0     C24585   5.073   4.209   4.359  0.6060 -0.0733  0.2350
  183MOL0     C24586   5.027   4.062   4.333  0.1148  0.5050 -0.1908
  183MOL0     N24587   4.883   4.041   4.373  0.3874 -0.5719  0.5442
  183MOL0     C24588   4.858   3.993   4.502  0.3067  1.5644 -0.3868
  183MOL0     C24589   4.732   3.961   4.487 -0.1443  0.5030  0.7835
  183MOL0     C24590   4.658   3.863   4.573  0.1900  0.3298 -1.0619
  183MOL0     C24591   4.632   3.724   4.498 -0.7470 -0.6348 -0.5309
  183MOL0     C24592   4.608   3.594   4.591 -0.2928 -0.3650  0.9101
  183MOL0     C24593   4.467   3.604   4.659  0.0565 -0.0552  0.1462
  183MOL0     O24594   4.377   3.683   4.585 -0.2631  0.2760  0.7214
  183MOL0     C24595   4.254   3.699   4.634 -0.1920  0.0616  0.0454
  183MOL0     C24596   4.198   3.650   4.751  0.4441 -0.9471  0.0484
  183MOL0     C24597   4.063   3.679   4.794 -0.7326 -0.3489  0.1762
  183MOL0     C24598   3.981   3.767   4.717 -0.4518  1.0096  0.4125
  183MOL0     C24599   3.851   3.823   4.762 -0.8753  0.5575 -0.4298
  183MOL0     O24600   3.814   3.949   4.717 -0.2601 -0.1381  0.1077
  183MOL0     C24601   3.715   4.022   4.780 -0.0820  0.8905  0.8048
  183MOL0     C24602   3.685   4.010   4.908 -0.0875 -0.4947  0.6879
  183MOL0     C24603   3.584   4.080   4.970 -1.0317 -0.3999  0.5105
  183MOL0     C24604   3.513   4.191   4.907  0.0595  0.3472  0.2622
  183MOL0     O24605   3.431   4.265   4.981  0.1238 -0.6672 -0.4653
  183MOL0     C24606   3.421   4.418   4.961 -0.5689  0.3770 -0.2539
  183MOL0     C24607   3.271   4.443   4.945  0.0368 -0.9704  0.4494
  183MOL0     C24608   3.211   4.378   4.825  0.3374 -0.5391  0.2940
  183MOL0     C24609   3.243   4.446   4.684 -0.5336 -0.5156  0.7308
  183MOL0     C24610   3.193   4.355   4.575  0.7695 -1.4039 -0.8344
  183MOL0     C24611   3.267   4.227   4.548  1.1567 -0.7675  0.2479
  183MOL0     C24612   3.183   4.138   4.454  0.3232  0.3598 -0.2319
  183MOL0     C24613   3.272   4.040   4.381 -0.3087 -0.0059 -0.0173
  183MOL0    Cl24614   3.364   3.943   4.495 -0.6542  0.0588  0.2510
  183MOL0     C24615   3.547   4.202   4.772  0.3553  0.4607 -0.6358
  183MOL0     C24616   3.646   4.120   4.711  0.2991  0.0638  0.4072
  183MOL0     O24617   3.803   3.740   4.843  0.5947 -1.0192  0.3196
  183MOL0     C24618   4.036   3.823   4.598 -0.4768  0.2279  0.3910
  183MOL0     C24619   4.170   3.789   4.559  0.1957  1.1246  0.8455
  183MOL0     N24620   4.686   3.995   4.356  0.2964 -0.2389  0.2221
  183MOL0     N24621   4.782   4.050   4.292  0.6500  0.2425  0.3584
  183MOL0     C24622   5.232   3.772   4.134 -0.0788 -0.0544 -0.4735
  183MOL0     C24623   5.109   3.709   4.153  0.0683  0.1980  0.2052
  183MOL0     C24624   4.835   3.401   4.312 -0.0086 -0.3716  0.0679
  183MOL0     C24625   4.735   3.428   4.213  0.0820 -0.4172  0.2391
  183MOL0     C24626   4.612   3.360   4.206 -0.6965  0.1176 -0.0786
  183MOL0     C24627   4.581   3.259   4.301 -0.7360 -0.5593 -0.8371
  183MOL0     O24628   4.474   3.175   4.296  0.5249 -0.6460  0.1579
  183MOL0     C24629   4.394   3.180   4.167  0.3422  0.9220  0.6573
  183MOL0     C24630   4.286   3.069   4.164  0.0881 -0.1621  0.3817
  183MOL0     C24631   4.160   3.108   4.241  0.2338  0.3968 -0.2564
  183MOL0     C24632   4.171   3.119   4.395  0.2760 -0.0745  1.0602
  183MOL0     C24633   4.222   3.252   4.426  0.0778 -0.9900 -0.0326
  183MOL0     C24634   4.259   3.361   4.474 -0.8151 -0.4743 -0.7662
  183MOL0     C24635   4.687   3.226   4.394 -1.3229 -0.5073  0.2261
  183MOL0     C24636   4.810   3.299   4.405 -0.8091  0.3458  0.6245
  183MOL0     C24637   4.917   3.249   4.492  0.7533 -0.3009 -0.1520
  183MOL0     H24638   5.249   3.390   4.163  0.2425  0.9849 -0.2903
  183MOL0     H24639   5.457   3.507   4.135 -0.3162 -2.2002  4.4552
  183MOL0     H24640   5.606   3.937   4.104 -1.1578  4.1266 -2.6647
  183MOL0     H24641   5.447   3.979   4.049 -0.8996 -0.8616 -1.0347
  183MOL0     H24642   5.500   3.915   4.348  1.6594  2.5309 -0.4147
  183MOL0     H24643   5.354   3.991   4.292 -0.5767 -1.3528 -1.6601
  183MOL0     H24644   5.610   4.125   4.263  0.2589  2.7096  0.5579
  183MOL0     H24645   5.497   4.144   4.394  2.9789 -1.9668 -0.2037
  183MOL0     H24646   5.470   4.342   4.249  1.1187  0.1628  1.0061
  183MOL0     H24647   5.481   4.240   4.116  3.7581  3.0351  1.6770
  183MOL0     H24648   5.245   4.320   4.143 -0.6735 -1.1481 -0.4880
  183MOL0     H24649   5.248   4.150   4.141 -3.6016  2.5127 -2.4614
  183MOL0     H24650   5.278   4.185   4.420  1.7308 -1.5581 -2.3066
  183MOL0     H24651   5.222   4.340   4.378 -5.7514 -0.0710  3.4141
  183MOL0     H24652   5.008   4.276   4.301  1.5186 -1.4408 -2.5223
  183MOL0     H24653   5.049   4.254   4.456 -1.5794  2.2834 -1.2511
  183MOL0     H24654   5.027   4.039   4.226 -0.0485 -2.9026  0.4019
  183MOL0     H24655   5.099   3.996   4.383  1.3828  0.2388 -2.2476
  183MOL0     H24656   4.921   3.954   4.581  0.1531  0.4212 -0.8023
  183MOL0     H24657   4.697   3.846   4.674 -1.1518 -1.4453 -0.7944
  183MOL0     H24658   4.559   3.908   4.580  1.1804  2.9681 -2.3830
  183MOL0     H24659   4.559   3.741   4.418 -0.1826  2.8654 -0.4838
  183MOL0     H24660   4.725   3.714   4.441  1.1961  2.2400  1.8455
  183MOL0     H24661   4.688   3.581   4.665  0.1969  0.2840  0.5107
  183MOL0     H24662   4.608   3.501   4.533  0.2289  1.1976 -1.7659
  183MOL0     H24663   4.468   3.654   4.757 -1.1217  0.9289 -0.3088
  183MOL0     H24664   4.439   3.499   4.674 -2.2206  0.5291  0.4126
  183MOL0     H24665   4.250   3.589   4.824 -2.4053 -2.3622  1.0180
  183MOL0     H24666   4.030   3.632   4.886  0.2231 -1.5855 -0.0873
  183MOL0     H24667   3.728   3.923   4.958 -1.0611 -2.1858 -1.2554
  183MOL0     H24668   3.560   4.057   5.074  0.0532 -2.1282  0.4205
  183MOL0     H24669   3.448   4.465   5.056  3.9762 -2.1775  0.0059
  183MOL0     H24670   3.484   4.447   4.876 -2.5362  3.2845 -0.8742
  183MOL0     H24671   3.212   4.399   5.025 -2.4247  1.5411  0.1828
  183MOL0     H24672   3.243   4.549   4.945 -1.5449 -1.3234  2.5679
  183MOL0     H24673   3.244   4.274   4.830  3.3963  0.0514 -3.1746
  183MOL0     H24674   3.102   4.376   4.841 -0.1961  1.1299 -2.3384
  183MOL0     H24675   3.350   4.464   4.674 -0.2344 -1.0614  2.5795
  183MOL0     H24676   3.195   4.544   4.674 -0.5239 -0.4849  0.9843
  183MOL0     H24677   3.192   4.415   4.483  1.0556 -2.8975 -1.8592
  183MOL0     H24678   3.086   4.339   4.589  0.4748 -0.8026 -2.2495
  183MOL0     H24679   3.363   4.246   4.500 -1.0502  0.3519 -4.2557
  183MOL0     H24680   3.274   4.165   4.638  1.6751 -1.7853 -0.4721
  183MOL0     H24681   3.142   4.198   4.372 -2.1848 -0.7040  0.1505
  183MOL0     H24682   3.096   4.093   4.503  0.5094 -0.7643 -0.9183
  183MOL0     H24683   3.211   3.972   4.321 -0.4333 -0.0840  0.1948
  183MOL0     H24684   3.346   4.096   4.323 -0.6054  3.9775  2.9993
  183MOL0     H24685   3.508   4.282   4.709 -3.1546  1.4865  2.4722
  183MOL0     H24686   3.662   4.140   4.606  3.7834 -0.9187  0.6147
  183MOL0     H24687   3.977   3.887   4.532 -0.1419 -0.0396 -0.1736
  183MOL0     H24688   4.197   3.821   4.458 -3.4387  1.0354 -0.2934
  183MOL0     H24689   5.224   3.879   4.120 -0.8872  0.2352  1.8050
  183MOL0     H24690   5.012   3.758   4.149 -0.2890 -0.4907  0.2067
  183MOL0     H24691   4.757   3.514   4.150  2.4126  1.5015  3.3864
  183MOL0     H24692   4.561   3.380   4.113 -1.2837  2.0986  0.6223
  183MOL0     H24693   4.443   3.148   4.075 -2.6942  1.7252 -1.3996
  183MOL0     H24694   4.346   3.278   4.156 -2.0836 -0.4778 -4.0111
  183MOL0     H24695   4.337   2.986   4.215  1.0246  1.1653  1.6960
  183MOL0     H24696   4.270   3.053   4.057  1.9768  3.3775 -0.5823
  183MOL0     H24697   4.071   3.048   4.220 -0.2116  0.9127  0.0999
  183MOL0     H24698   4.138   3.210   4.206  2.3303  0.5854 -1.1541
  183MOL0     H24699   4.075   3.090   4.438  1.7887 -3.4512  2.5264
  183MOL0     H24700   4.243   3.042   4.424  0.5352  0.3756  1.6409
  183MOL0     H24701   4.273   3.453   4.527  0.6398 -0.4839 -1.0984
  183MOL0     H24702   4.687   3.137   4.457  2.0108 -3.2407 -3.1662
  183MOL0     H24703   4.894   3.165   4.558  1.9029 -0.9636 -0.5629
  183MOL0     H24704   5.000   3.211   4.430 -2.0163 -1.5272 -3.4417
  183MOL0     H24705   4.944   3.333   4.557 -1.7836 -0.6299  1.4485
  184MOL0     O24706   8.750   4.746   6.853  0.0802 -0.2203  0.4992
  184MOL0     C24707   8.656   4.733   6.935  0.0586 -0.2032  0.4270
  184MOL0     O24708   8.533   4.782   6.903 -0.2284  0.4544 -0.5871
  184MOL0     C24709   8.482   4.828   6.783  1.0308  0.0739 -0.1310
  184MOL0     C24710   8.548   4.827   6.664 -0.5171  0.8273 -0.4939
  184MOL0     C24711   8.485   4.856   6.544  0.0067 -0.4579  0.1073
  184MOL0     C24712   8.348   4.893   6.540 -0.8172 -0.0996 -0.9050
  184MOL0     O24713   8.276   4.905   6.422 -0.5816 -0.1822 -0.3106
  184MOL0     C24714   8.338   4.905   6.302 -0.3319 -0.0895 -1.4104
  184MOL0     C24715   8.386   4.756   6.256  0.3649 -0.0703 -0.3593
  184MOL0     C24716   8.270   4.666   6.216 -0.7653 -0.2568  0.2393
  184MOL0     C24717   8.219   4.696   6.077 -0.3819  1.0112  0.6132
  184MOL0     C24718   8.171   4.563   6.009 -0.3278 -0.3346  1.6989
  184MOL0     C24719   8.296   4.477   5.982 -0.9187  0.6868  0.8020
  184MOL0     C24720   8.282   4.332   6.040 -0.0837  0.1188 -0.9579
  184MOL0     C24721   8.421   4.251   6.029 -0.3909  1.1114 -0.0873
  184MOL0     N24722   8.514   4.314   6.124 -0.0246 -0.0172 -0.3699
  184MOL0     C24723   8.493   4.312   6.258 -0.1001  0.0650  0.8645
  184MOL0     C24724   8.590   4.396   6.302 -0.1321 -0.5797 -0.0618
  184MOL0     C24725   8.606   4.444   6.442 -0.2067 -0.7956  0.1647
  184MOL0     C24726   8.740   4.426   6.501 -0.6842  0.5314  0.2713
  184MOL0     C24727   8.848   4.532   6.479  0.3266  0.5211  0.7214
  184MOL0     C24728   8.962   4.531   6.592 -0.3243  0.4896 -0.8097
  184MOL0     O24729   9.088   4.577   6.539  0.1479 -0.2553  0.1081
  184MOL0     C24730   9.157   4.484   6.468  0.5314  0.9920  0.5758
  184MOL0     C24731   9.110   4.359   6.422 -0.5730 -1.1322 -0.5301
  184MOL0     C24732   9.199   4.260   6.371 -0.5406  0.0415  0.0780
  184MOL0     C24733   9.330   4.290   6.339 -0.4499  0.7743 -0.3579
  184MOL0     C24734   9.418   4.194   6.271 -0.1962  0.1906  0.8347
  184MOL0     O24735   9.378   4.065   6.272 -0.4227 -0.4161 -0.5679
  184MOL0     C24736   9.432   3.980   6.173 -1.1396 -0.4947  0.7481
  184MOL0     C24737   9.563   3.962   6.125 -0.2201  0.8069 -0.9461
  184MOL0     C24738   9.597   3.875   6.021  0.7546 -0.1148  0.3201
  184MOL0     C24739   9.503   3.802   5.948  0.1535  0.3110 -1.2194
  184MOL0     O24740   9.526   3.709   5.840 -0.4136 -0.5078 -0.1321
  184MOL0     C24741   9.650   3.737   5.758  0.0685  0.5886  0.1891
  184MOL0     C24742   9.780   3.661   5.801  0.5081 -0.3892  0.0676
  184MOL0     C24743   9.736   3.518   5.841  0.3676 -0.1983  0.2933
  184MOL0     C24744   9.855   3.432   5.823 -0.8921  0.0365 -0.2277
  184MOL0     C24745   9.825   3.280   5.848  1.3278 -0.1178  0.3812
  184MOL0     C24746   9.951   3.191   5.837  0.2548 -1.2435 -0.4970
  184MOL0     C24747  10.065   3.241   5.929  0.2841  0.7524  0.1507
  184MOL0     C24748  10.179   3.126   5.922  0.0354  0.0255  0.0236
  184MOL0    Cl24749  10.270   3.097   5.784 -0.3341 -0.1598  0.0142
  184MOL0     C24750   9.373   3.813   6.001 -0.0264 -0.4795  0.2156
  184MOL0     C24751   9.332   3.905   6.103  0.1338  0.4212  0.4890
  184MOL0     O24752   9.520   4.238   6.215  0.3211  0.2216 -0.8030
  184MOL0     C24753   9.383   4.417   6.379  0.8606  0.3160 -0.3277
  184MOL0     C24754   9.295   4.508   6.437 -0.1650  0.1770  0.9089
  184MOL0     N24755   8.660   4.446   6.200 -0.2971 -0.1508  0.7749
  184MOL0     N24756   8.620   4.395   6.094 -0.7282 -0.4730 -0.2410
  184MOL0     C24757   8.284   4.905   6.663 -0.3647 -0.4321 -1.0498
  184MOL0     C24758   8.351   4.872   6.781  0.6455  0.2476 -0.2543
  184MOL0     C24759   8.662   4.684   7.070 -0.9029  0.4799  0.5195
  184MOL0     C24760   8.550   4.700   7.158 -1.4003  1.0358 -0.6650
  184MOL0     C24761   8.567   4.657   7.293 -0.8622 -0.8829  0.0104
  184MOL0     C24762   8.677   4.592   7.348  0.4099  0.4464  1.2384
  184MOL0     O24763   8.698   4.568   7.483 -0.5566  0.3134  0.5220
  184MOL0     C24764   8.630   4.641   7.583  0.1390 -0.4116  0.0725
  184MOL0     C24765   8.655   4.603   7.737  0.5165 -0.1200 -0.6871
  184MOL0     C24766   8.797   4.655   7.762 -0.1540 -0.5120 -0.7810
  184MOL0     C24767   8.863   4.596   7.889  0.8339 -0.4539 -0.6831
  184MOL0     C24768   8.992   4.662   7.922 -0.0940  0.4869 -1.7828
  184MOL0     C24769   9.098   4.721   7.948 -0.6645  0.3051 -0.0061
  184MOL0     C24770   8.770   4.549   7.256  0.3509 -0.2165  0.5235
  184MOL0     C24771   8.768   4.591   7.120 -0.4053  0.6889  0.5652
  184MOL0     C24772   8.875   4.533   7.039  0.6303 -0.4098  0.0634
  184MOL0     H24773   8.655   4.809   6.667 -0.8070 -1.0882 -0.6641
  184MOL0     H24774   8.540   4.848   6.450 -2.5525 -2.3148 -1.3791
  184MOL0     H24775   8.279   4.949   6.221  0.4581  0.0794 -1.9165
  184MOL0     H24776   8.434   4.959   6.308 -0.7039  0.3771  1.1295
  184MOL0     H24777   8.452   4.708   6.329  1.3379  0.8793 -0.5871
  184MOL0     H24778   8.447   4.771   6.167  0.6622  5.2746  0.4044
  184MOL0     H24779   8.187   4.665   6.287 -0.1727  0.3093  0.9639
  184MOL0     H24780   8.320   4.569   6.221  2.8687  1.1573 -3.3995
  184MOL0     H24781   8.127   4.756   6.072 -0.7903  0.3123 -1.1403
  184MOL0     H24782   8.298   4.743   6.018  1.1391  0.1262  1.8992
  184MOL0     H24783   8.102   4.516   6.079 -3.4107  1.2399 -0.0455
  184MOL0     H24784   8.126   4.586   5.912 -0.9256 -2.0207  1.5575
  184MOL0     H24785   8.290   4.461   5.874 -1.6573  1.6379  0.6820
  184MOL0     H24786   8.389   4.528   6.010 -1.5136  2.8462 -0.9133
  184MOL0     H24787   8.208   4.276   5.983  1.1056 -0.7613 -1.6961
  184MOL0     H24788   8.251   4.341   6.145 -0.6314 -1.7371 -0.9216
  184MOL0     H24789   8.397   4.147   6.053  3.6294 -0.1921 -0.9305
  184MOL0     H24790   8.452   4.250   5.924  1.5170  2.4391  0.4102
  184MOL0     H24791   8.413   4.270   6.318 -1.2395  1.0394  0.0767
  184MOL0     H24792   8.577   4.549   6.444 -1.5905 -1.1663  0.5582
  184MOL0     H24793   8.533   4.396   6.508 -0.2123 -2.1320 -0.7667
  184MOL0     H24794   8.726   4.433   6.610  0.7001 -1.4963  0.6415
  184MOL0     H24795   8.784   4.327   6.485 -0.4390 -0.0187  3.5304
  184MOL0     H24796   8.794   4.626   6.490  2.6089  1.7213  2.4382
  184MOL0     H24797   8.907   4.523   6.388  5.5069  2.6200  3.4730
  184MOL0     H24798   8.969   4.430   6.635 -1.6740  0.0465 -1.5831
  184MOL0     H24799   8.941   4.595   6.678 -0.5757  1.2592 -1.4425
  184MOL0     H24800   9.007   4.331   6.440 -0.4554 -1.0679  0.2851
  184MOL0     H24801   9.167   4.157   6.357  0.5985 -0.8375  3.1302
  184MOL0     H24802   9.634   4.016   6.187  0.9743  1.0669 -2.4699
  184MOL0     H24803   9.704   3.862   6.007  1.2856  1.0264  2.7178
  184MOL0     H24804   9.632   3.687   5.663  3.5587 -2.8887  1.1093
  184MOL0     H24805   9.663   3.846   5.751  1.1820  0.3692 -1.8836
  184MOL0     H24806   9.862   3.667   5.728  1.9738 -1.7733  1.5089
  184MOL0     H24807   9.819   3.709   5.891  0.8005 -0.6316  0.0726
  184MOL0     H24808   9.697   3.511   5.944  2.5743  0.0330  1.2022
  184MOL0     H24809   9.658   3.484   5.772  2.5344 -1.2538 -1.7400
  184MOL0     H24810   9.924   3.472   5.897 -1.3355 -2.0067  1.3696
  184MOL0     H24811   9.895   3.429   5.721  0.5094 -4.9042  0.2299
  184MOL0     H24812   9.758   3.244   5.769 -0.1791 -0.8304  1.9232
  184MOL0     H24813   9.771   3.257   5.940  0.6845 -1.0112 -0.2001
  184MOL0     H24814   9.914   3.091   5.861 -2.2125 -0.3277 -0.1893
  184MOL0     H24815   9.982   3.196   5.733 -1.0642  1.5859 -0.8597
  184MOL0     H24816  10.030   3.239   6.033 -1.2484 -1.9048 -0.3139
  184MOL0     H24817  10.102   3.338   5.895 -0.0923  1.3573  1.3687
  184MOL0     H24818  10.248   3.136   6.006  0.2028 -1.9399  0.1761
  184MOL0     H24819  10.135   3.030   5.951  1.6202  0.1921  3.5154
  184MOL0     H24820   9.290   3.755   5.961 -0.8737  0.8217  0.0025
  184MOL0     H24821   9.229   3.922   6.134  0.8909  2.1777  2.3585
  184MOL0     H24822   9.489   4.439   6.369  1.4505 -0.5157  3.0124
  184MOL0     H24823   9.333   4.609   6.451 -0.7841  0.3318  1.5017
  184MOL0     H24824   8.177   4.927   6.666  0.1595  2.4226  2.2741
  184MOL0     H24825   8.294   4.865   6.873  0.2308 -0.8313 -0.5740
  184MOL0     H24826   8.453   4.747   7.144 -1.4890  0.6072 -1.5711
  184MOL0     H24827   8.492   4.689   7.364  3.0582  0.9124  3.7619
  184MOL0     H24828   8.523   4.651   7.564  0.3585  0.6719 -0.7380
  184MOL0     H24829   8.670   4.743   7.577  0.2667 -0.4586  0.1117
  184MOL0     H24830   8.633   4.499   7.764  0.0520  0.5492  1.7684
  184MOL0     H24831   8.582   4.664   7.790 -0.5700 -1.9554  0.0338
  184MOL0     H24832   8.806   4.764   7.762  1.6932 -0.6393 -0.6475
  184MOL0     H24833   8.849   4.620   7.673  0.4205  0.4743 -0.8485
  184MOL0     H24834   8.803   4.622   7.977  2.2310 -2.6974  1.0292
  184MOL0     H24835   8.861   4.488   7.871  1.4403  0.0713 -4.7855
  184MOL0     H24836   9.186   4.768   7.985 -1.3088  1.2512  0.3471
  184MOL0     H24837   8.865   4.507   7.285  0.4484  0.3336  1.0176
  184MOL0     H24838   8.937   4.455   7.084  0.9741 -1.6264 -2.3975
  184MOL0     H24839   8.831   4.491   6.948 -0.8873 -2.0263  1.4669
  184MOL0     H24840   8.943   4.613   7.006  2.3325 -1.6797  0.3383
  185MOL0     O24841   3.022   3.702   8.867  0.3026 -0.2310 -0.5681
  185MOL0     C24842   2.916   3.746   8.912 -0.3653 -0.9806  0.1341
  185MOL0     O24843   2.816   3.676   8.971 -0.1906  0.6416 -0.1514
  185MOL0     C24844   2.804   3.545   8.970 -0.4341  1.1697  0.8196
  185MOL0     C24845   2.852   3.453   8.876 -0.4014 -0.8093 -0.1876
  185MOL0     C24846   2.816   3.318   8.887  0.5635  0.2045 -0.1927
  185MOL0     C24847   2.724   3.272   8.975 -0.2276 -0.7147 -0.4526
  185MOL0     O24848   2.712   3.135   8.993 -0.5836  0.1602  0.4220
  185MOL0     C24849   2.616   3.079   9.083 -0.8138 -0.1198 -0.3393
  185MOL0     C24850   2.603   2.929   9.059  0.1016  0.0354 -0.0623
  185MOL0     C24851   2.560   2.900   8.917  0.0858 -0.1031 -0.2731
  185MOL0     C24852   2.493   2.756   8.920 -1.5553  0.5304  0.2129
  185MOL0     C24853   2.432   2.715   8.791  0.8335 -0.0140 -0.6005
  185MOL0     C24854   2.285   2.764   8.769 -0.3112 -0.0323  0.1706
  185MOL0     C24855   2.201   2.689   8.660 -0.4160  0.1175  0.4694
  185MOL0     C24856   2.078   2.756   8.600  0.7185 -0.2079 -0.3430
  185MOL0     N24857   1.973   2.796   8.692  0.0750  0.2323  0.0729
  185MOL0     C24858   1.978   2.927   8.742  0.1318  0.1215  0.8817
  185MOL0     C24859   1.949   2.917   8.875 -0.3035 -0.2311  0.0012
  185MOL0     C24860   1.922   3.044   8.952 -0.0920  0.1709  0.4055
  185MOL0     C24861   1.777   3.106   8.941 -0.6284  0.1224 -0.8358
  185MOL0     C24862   1.757   3.243   9.014 -0.7284  0.1149 -0.9592
  185MOL0     C24863   1.607   3.292   9.025  0.8714  0.3494 -0.2924
  185MOL0     O24864   1.611   3.426   9.080 -0.1438  0.0555 -0.0036
  185MOL0     C24865   1.679   3.520   9.011 -0.5645  0.3986  0.0244
  185MOL0     C24866   1.735   3.615   9.088  0.4038 -1.0805 -0.6363
  185MOL0     C24867   1.793   3.730   9.025 -0.1310 -0.5991 -0.1987
  185MOL0     C24868   1.799   3.728   8.873 -0.0770 -0.4904 -0.0809
  185MOL0     C24869   1.860   3.849   8.805  0.4784  0.8544 -0.1938
  185MOL0     O24870   1.866   3.844   8.667 -0.3444  0.0851 -0.1149
  185MOL0     C24871   1.932   3.953   8.602 -0.0168 -0.2529 -0.9009
  185MOL0     C24872   2.002   3.917   8.486  0.0503  1.0169 -0.6937
  185MOL0     C24873   2.066   4.014   8.413 -0.1067 -0.6637 -0.9591
  185MOL0     C24874   2.069   4.152   8.449  0.3775  0.7810 -0.3966
  185MOL0     O24875   2.125   4.255   8.379 -0.6118 -0.4879 -1.2024
  185MOL0     C24876   2.194   4.223   8.257 -0.6207  0.3131  0.2339
  185MOL0     C24877   2.296   4.331   8.206 -0.4442 -0.8326 -1.0780
  185MOL0     C24878   2.230   4.443   8.114 -0.1725 -0.4940 -0.5663
  185MOL0     C24879   2.327   4.468   8.000 -1.2792 -0.0614 -0.1064
  185MOL0     C24880   2.265   4.585   7.915  0.7281  0.0087 -0.4329
  185MOL0     C24881   2.360   4.650   7.809  0.5637 -0.4046 -0.7361
  185MOL0     C24882   2.315   4.794   7.775 -0.2622  0.5223  1.1812
  185MOL0     C24883   2.386   4.845   7.641 -0.3298 -0.2052  0.9222
  185MOL0    Cl24884   2.569   4.860   7.658 -0.0013 -0.5604 -0.0851
  185MOL0     C24885   1.994   4.180   8.565 -0.0354 -0.3554  1.4242
  185MOL0     C24886   1.924   4.087   8.638  0.5612  0.3139  0.2859
  185MOL0     O24887   1.897   3.938   8.882 -0.8937  0.1226 -0.7383
  185MOL0     C24888   1.751   3.617   8.796 -0.6497 -0.2102 -0.0388
  185MOL0     C24889   1.689   3.519   8.868  0.1650  0.4406 -0.6999
  185MOL0     N24890   1.929   2.784   8.912 -0.1641  0.2416 -0.4878
  185MOL0     N24891   1.944   2.721   8.804 -0.1110  0.6842 -0.4314
  185MOL0     C24892   2.666   3.363   9.068 -0.0695 -0.9332  0.0428
  185MOL0     C24893   2.713   3.494   9.064 -0.8877 -1.1000  0.9083
  185MOL0     C24894   2.898   3.897   8.905  1.0567  0.5343 -0.4010
  185MOL0     C24895   2.767   3.930   8.854  0.2112  1.3152 -0.3446
  185MOL0     C24896   2.720   4.065   8.858 -1.3552  0.2311  0.8905
  185MOL0     C24897   2.814   4.168   8.881 -0.5678  0.4874  0.2784
  185MOL0     O24898   2.803   4.305   8.893  0.3883  0.3176 -0.8147
  185MOL0     C24899   2.689   4.376   8.826 -0.0416  0.0125 -0.7196
  185MOL0     C24900   2.721   4.368   8.671  0.7682  0.4036 -0.1489
  185MOL0     C24901   2.646   4.462   8.567 -0.3285 -0.7316 -0.0155
  185MOL0     C24902   2.695   4.601   8.537  0.6463  0.8459 -0.0886
  185MOL0     C24903   2.837   4.611   8.512  0.5001  0.0482  0.2562
  185MOL0     C24904   2.952   4.623   8.485  0.6649  0.1929  0.1236
  185MOL0     C24905   2.948   4.129   8.914 -0.5918  0.2130 -0.1941
  185MOL0     C24906   2.994   3.997   8.928  0.5149 -0.4928 -1.5419
  185MOL0     C24907   3.120   3.975   9.004 -0.3864 -0.3049 -0.0276
  185MOL0     H24908   2.917   3.486   8.796 -1.2572 -0.9961 -0.9661
  185MOL0     H24909   2.868   3.251   8.820  1.0525 -0.8186  1.1817
  185MOL0     H24910   2.652   3.102   9.184 -0.7808  1.3708 -0.6726
  185MOL0     H24911   2.522   3.131   9.062 -0.0976  2.4177  2.1398
  185MOL0     H24912   2.516   2.914   9.124 -1.5301  5.7707 -0.3848
  185MOL0     H24913   2.684   2.863   9.092  2.3147  2.3984 -0.4455
  185MOL0     H24914   2.644   2.919   8.849  0.6857 -0.4941  0.3397
  185MOL0     H24915   2.493   2.982   8.889  0.3729  0.1055 -0.3622
  185MOL0     H24916   2.575   2.683   8.924 -2.8586 -1.0708 -0.7119
  185MOL0     H24917   2.423   2.734   9.001 -0.5816  0.3713  1.0237
  185MOL0     H24918   2.492   2.755   8.709  1.5171 -4.3177 -2.5256
  185MOL0     H24919   2.424   2.606   8.784  2.8111 -0.5203  2.9035
  185MOL0     H24920   2.231   2.734   8.860  0.9012 -0.3127  0.8116
  185MOL0     H24921   2.284   2.873   8.762 -2.0622  0.4347  4.2576
  185MOL0     H24922   2.162   2.595   8.701 -0.0258  0.2767  1.2145
  185MOL0     H24923   2.275   2.652   8.589 -0.2773 -0.8671  1.1011
  185MOL0     H24924   2.119   2.833   8.533  1.9066 -4.0105 -4.4601
  185MOL0     H24925   2.029   2.683   8.535 -0.2478 -1.1916  1.4287
  185MOL0     H24926   1.993   3.025   8.696 -1.9919  0.3375  0.5364
  185MOL0     H24927   1.940   3.019   9.057  0.1743 -3.4583 -0.3772
  185MOL0     H24928   1.984   3.126   8.912 -0.9218 -0.0415 -1.4101
  185MOL0     H24929   1.753   3.105   8.834 -1.1318 -4.4139 -0.8628
  185MOL0     H24930   1.711   3.031   8.986 -1.3696  1.0580 -0.3304
  185MOL0     H24931   1.809   3.317   8.951 -1.5270  0.8579 -0.7656
  185MOL0     H24932   1.806   3.243   9.112 -0.6250  1.8956 -0.9777
  185MOL0     H24933   1.547   3.240   9.101  2.2480  0.6350  1.0557
  185MOL0     H24934   1.556   3.296   8.928 -1.2850 -2.2330  0.5873
  185MOL0     H24935   1.735   3.593   9.194  0.1017  1.7947  0.0270
  185MOL0     H24936   1.838   3.814   9.077  0.4913  0.1862 -1.9266
  185MOL0     H24937   1.988   3.813   8.456  0.5379  0.6446  0.3290
  185MOL0     H24938   2.114   3.983   8.321 -0.1913  1.5039 -1.8029
  185MOL0     H24939   2.245   4.130   8.285  0.7099  0.9264 -0.0761
  185MOL0     H24940   2.118   4.202   8.181 -1.5227  0.4978  1.0644
  185MOL0     H24941   2.353   4.369   8.291  0.6596 -2.2190 -1.1560
  185MOL0     H24942   2.375   4.290   8.141 -2.2734  1.6419 -5.2953
  185MOL0     H24943   2.135   4.400   8.082 -0.5387 -1.5867  1.7803
  185MOL0     H24944   2.205   4.537   8.165  1.5882 -1.0283  1.4367
  185MOL0     H24945   2.348   4.380   7.937 -1.4295 -1.2879  1.4821
  185MOL0     H24946   2.420   4.511   8.038  0.5116 -0.0843 -3.8950
  185MOL0     H24947   2.232   4.668   7.979 -0.8780  2.3403 -3.9691
  185MOL0     H24948   2.170   4.555   7.870  0.2396  1.7294 -0.6169
  185MOL0     H24949   2.458   4.650   7.859 -1.4581 -1.3308  3.6522
  185MOL0     H24950   2.355   4.584   7.722  1.8339 -0.4766 -0.7797
  185MOL0     H24951   2.340   4.863   7.856  2.6851  2.4275 -1.1234
  185MOL0     H24952   2.208   4.810   7.760  0.2976  2.0783 -2.0919
  185MOL0     H24953   2.351   4.782   7.559 -1.1789  0.1035  1.0451
  185MOL0     H24954   2.351   4.943   7.610 -1.2424 -0.1981  1.9145
  185MOL0     H24955   2.008   4.279   8.608  3.1850 -1.0863  2.3266
  185MOL0     H24956   1.852   4.117   8.713 -2.2418 -3.0334 -0.7887
  185MOL0     H24957   1.766   3.617   8.689 -0.7775 -2.6089 -0.0923
  185MOL0     H24958   1.663   3.440   8.797  3.3283 -1.5028  0.0850
  185MOL0     H24959   2.613   3.334   9.159  0.4627  0.5896  0.8705
  185MOL0     H24960   2.679   3.564   9.139 -3.0384 -0.0283 -0.9475
  185MOL0     H24961   2.707   3.858   8.800  1.4640 -0.0555  0.0247
  185MOL0     H24962   2.622   4.088   8.819 -0.3800  3.4010  0.0302
  185MOL0     H24963   2.691   4.484   8.841  3.2650 -0.2883  2.7923
  185MOL0     H24964   2.597   4.329   8.862  2.1212 -2.4070  2.2646
  185MOL0     H24965   2.703   4.264   8.643 -2.6279  0.7402  0.3652
  185MOL0     H24966   2.826   4.396   8.680  1.3327 -1.8681  1.1363
  185MOL0     H24967   2.542   4.458   8.602 -0.1430 -2.6805  0.4354
  185MOL0     H24968   2.632   4.409   8.472  1.3613 -3.0130  0.9077
  185MOL0     H24969   2.643   4.632   8.446 -3.0651  2.1565  2.2490
  185MOL0     H24970   2.675   4.674   8.616 -0.1820  0.0148  0.5034
  185MOL0     H24971   3.059   4.619   8.492  0.5750 -0.2695  1.3257
  185MOL0     H24972   3.016   4.212   8.926  0.3469 -0.3201 -1.5713
  185MOL0     H24973   3.200   3.933   8.943 -0.5571 -2.4130  1.0879
  185MOL0     H24974   3.161   4.069   9.041  3.0606 -2.1890  1.3883
  185MOL0     H24975   3.106   3.916   9.095  0.8980 -0.8953 -0.1942
  186MOL0     O24976   8.369   3.655   3.852  0.0054  0.6782 -0.2871
  186MOL0     C24977   8.459   3.650   3.936 -0.0710 -0.2070  0.8269
  186MOL0     O24978   8.555   3.553   3.947 -0.3239 -0.2496  0.5395
  186MOL0     C24979   8.573   3.478   3.831 -0.6132 -0.5384 -0.6011
  186MOL0     C24980   8.673   3.515   3.738 -0.4894 -0.5869 -0.4713
  186MOL0     C24981   8.669   3.453   3.616  0.1247 -0.4657 -0.8035
  186MOL0     C24982   8.597   3.339   3.593 -0.2691  0.9912  0.3584
  186MOL0     O24983   8.619   3.284   3.467 -0.4125 -0.0140 -0.6458
  186MOL0     C24984   8.559   3.148   3.436  0.1948 -0.0996 -0.4245
  186MOL0     C24985   8.648   3.084   3.331 -0.3039 -0.1393 -0.1132
  186MOL0     C24986   8.744   2.986   3.391 -0.5113 -0.1846 -0.0651
  186MOL0     C24987   8.848   2.968   3.278 -0.4946  0.2169 -0.4914
  186MOL0     C24988   8.921   2.831   3.285 -0.4417 -0.3462  0.2408
  186MOL0     C24989   9.011   2.793   3.170  0.5072  0.4723 -0.2306
  186MOL0     C24990   9.098   2.675   3.198 -0.2514  0.8498 -0.4295
  186MOL0     C24991   9.032   2.542   3.239 -0.8236  0.0812  1.7696
  186MOL0     N24992   8.967   2.498   3.118 -0.5427  0.2788  0.4644
  186MOL0     C24993   9.039   2.442   3.017  0.0440  0.6986  0.2216
  186MOL0     C24994   8.941   2.426   2.927  0.4102  0.7142 -0.0168
  186MOL0     C24995   8.979   2.384   2.780  0.1993 -0.1705  0.5388
  186MOL0     C24996   8.912   2.471   2.677  0.6336 -0.6864  0.8376
  186MOL0     C24997   8.977   2.454   2.536  0.6652  0.1034  0.1390
  186MOL0     C24998   8.936   2.314   2.483  0.3609  0.7323  0.1852
  186MOL0     O24999   8.950   2.283   2.345 -1.2471 -0.3007  0.2390
  186MOL0     C25000   8.926   2.164   2.279  1.4997  0.1161  0.0507
  186MOL0     C25001   8.949   2.147   2.149  0.2275 -0.0996 -1.0918
  186MOL0     C25002   8.954   2.024   2.077  0.3187  0.0977  0.0908
  186MOL0     C25003   8.925   1.902   2.146  0.6254  0.3934 -0.5351
  186MOL0     C25004   8.914   1.766   2.070  1.1056 -0.3808  0.3187
  186MOL0     O25005   8.908   1.783   1.934 -0.7724 -0.3146 -0.8506
  186MOL0     C25006   8.976   1.687   1.860 -0.1536 -0.1018  0.6550
  186MOL0     C25007   9.070   1.593   1.905  0.4314  0.6951  0.0257
  186MOL0     C25008   9.136   1.510   1.817 -1.0027  0.9938  0.7833
  186MOL0     C25009   9.129   1.534   1.676  0.6701  0.8541 -0.9227
  186MOL0     O25010   9.195   1.453   1.591  0.3599  0.6942 -0.5502
  186MOL0     C25011   9.183   1.306   1.601 -1.2127 -0.3190 -0.6785
  186MOL0     C25012   9.317   1.235   1.569 -0.6168  0.6154 -1.1048
  186MOL0     C25013   9.429   1.261   1.685 -0.4547  0.2546  0.3495
  186MOL0     C25014   9.554   1.177   1.672  0.4836 -0.8405 -0.0113
  186MOL0     C25015   9.637   1.173   1.797  0.2186  0.3207 -1.0790
  186MOL0     C25016   9.781   1.134   1.753 -0.3719  0.8989  0.6406
  186MOL0     C25017   9.864   1.267   1.724 -0.1441  0.1454  0.1860
  186MOL0     C25018  10.001   1.228   1.663  0.4889  0.8735 -0.2267
  186MOL0    Cl25019  10.109   1.146   1.776  0.1876 -0.2975 -0.2598
  186MOL0     C25020   9.033   1.622   1.636 -0.5089  0.4154  0.4005
  186MOL0     C25021   8.958   1.701   1.721 -0.0766  0.4798 -1.2250
  186MOL0     O25022   8.905   1.657   2.131  0.9387 -0.0313  0.3667
  186MOL0     C25023   8.883   1.921   2.280  0.3645 -0.0206 -0.7149
  186MOL0     C25024   8.872   2.051   2.342  0.7692  0.0721  0.9574
  186MOL0     N25025   8.815   2.464   2.977 -0.6255 -0.2474  0.0578
  186MOL0     N25026   8.839   2.512   3.097  0.0740  0.3030 -0.0722
  186MOL0     C25027   8.509   3.290   3.695 -0.2864 -0.0118 -1.3340
  186MOL0     C25028   8.496   3.363   3.807 -0.1451 -0.8231  0.0074
  186MOL0     C25029   8.473   3.764   4.024  0.2379 -0.4418 -0.1749
  186MOL0     C25030   8.390   3.879   4.008  0.3413  0.5547 -0.1954
  186MOL0     C25031   8.392   3.987   4.094  0.5177  0.2164  0.0815
  186MOL0     C25032   8.484   3.997   4.200 -0.3926  0.3854 -0.4081
  186MOL0     O25033   8.494   4.090   4.302  0.3569 -0.2299  0.4065
  186MOL0     C25034   8.486   4.232   4.285  0.3185  0.6148 -1.0801
  186MOL0     C25035   8.592   4.299   4.210 -0.4849 -0.5355  0.5988
  186MOL0     C25036   8.561   4.292   4.054  0.1634  0.9732  0.9075
  186MOL0     C25037   8.609   4.411   3.969  0.1070  0.5695 -0.4849
  186MOL0     C25038   8.609   4.377   3.827 -0.7811  0.9948 -0.4626
  186MOL0     C25039   8.621   4.363   3.710 -0.3806  0.7739 -0.4973
  186MOL0     C25040   8.560   3.885   4.226  0.2523  0.6779  0.2603
  186MOL0     C25041   8.557   3.771   4.143  0.0511  0.2185  0.9108
  186MOL0     C25042   8.652   3.659   4.181  1.3373  0.8937  0.0473
  186MOL0     H25043   8.737   3.602   3.731  1.0542 -1.5925  0.5349
  186MOL0     H25044   8.750   3.483   3.550  1.6206 -3.3228 -0.4412
  186MOL0     H25045   8.546   3.075   3.516 -0.4195 -0.1092 -0.5272
  186MOL0     H25046   8.463   3.173   3.391 -0.4596 -1.8146 -0.0438
  186MOL0     H25047   8.691   3.169   3.277  0.0428  1.0361  1.9139
  186MOL0     H25048   8.593   3.031   3.253 -0.4866  2.6925 -2.0534
  186MOL0     H25049   8.690   2.893   3.410  0.1457 -0.3854  0.8993
  186MOL0     H25050   8.788   3.039   3.476 -1.1353  3.1493 -1.6369
  186MOL0     H25051   8.792   2.967   3.184 -3.7205  0.7105  1.2629
  186MOL0     H25052   8.923   3.047   3.289 -0.0811 -0.2126 -0.1685
  186MOL0     H25053   8.976   2.837   3.379  1.2812  3.9875 -0.8019
  186MOL0     H25054   8.850   2.748   3.288 -1.0138 -0.0368 -2.2490
  186MOL0     H25055   8.955   2.776   3.078  1.4095  1.7278 -1.0535
  186MOL0     H25056   9.081   2.876   3.153  1.2607  0.1987  1.3762
  186MOL0     H25057   9.163   2.702   3.282 -2.2662  1.8696  0.9067
  186MOL0     H25058   9.164   2.666   3.111 -0.6408  2.5224 -0.9347
  186MOL0     H25059   9.096   2.467   3.286 -0.0826 -0.2202  0.3386
  186MOL0     H25060   8.951   2.554   3.312 -2.3188 -1.1296  0.3672
  186MOL0     H25061   9.147   2.429   3.008 -0.1515  0.5863 -2.6954
  186MOL0     H25062   9.085   2.405   2.762  0.6764 -1.1408  2.0504
  186MOL0     H25063   8.957   2.278   2.763  1.7031 -0.6211  1.2446
  186MOL0     H25064   8.806   2.445   2.672  0.1314  0.9273  2.1254
  186MOL0     H25065   8.915   2.576   2.708  1.1922 -0.2168 -0.7209
  186MOL0     H25066   9.086   2.466   2.540  0.8240 -1.3678  1.9604
  186MOL0     H25067   8.937   2.530   2.469 -0.7968  2.1671  3.1592
  186MOL0     H25068   8.831   2.300   2.508  0.9280  1.2680  3.4590
  186MOL0     H25069   9.003   2.249   2.541  0.2919  3.0986  3.1853
  186MOL0     H25070   8.980   2.240   2.103  0.9595  1.2364  1.8524
  186MOL0     H25071   8.980   2.028   1.972  0.0446 -1.4126 -0.0553
  186MOL0     H25072   9.085   1.555   2.006 -0.6733 -2.8020 -1.0070
  186MOL0     H25073   9.195   1.430   1.859  2.5078  3.4443  0.9816
  186MOL0     H25074   9.153   1.277   1.702 -0.9273  1.0315 -0.1848
  186MOL0     H25075   9.108   1.275   1.527 -0.0645 -1.4524 -1.4105
  186MOL0     H25076   9.298   1.128   1.558  3.1303 -0.5528  1.7558
  186MOL0     H25077   9.356   1.271   1.474  0.4737  0.8815 -0.5700
  186MOL0     H25078   9.449   1.369   1.688 -3.0503  0.9527 -2.3956
  186MOL0     H25079   9.386   1.219   1.777 -3.5489 -0.4581 -1.2960
  186MOL0     H25080   9.609   1.229   1.592 -0.1166  0.0512  0.1416
  186MOL0     H25081   9.523   1.078   1.638 -0.6889 -0.5207  0.0816
  186MOL0     H25082   9.597   1.088   1.853 -0.3979  3.1728  3.2908
  186MOL0     H25083   9.631   1.259   1.864  3.8025  0.6415 -0.9647
  186MOL0     H25084   9.836   1.074   1.826  2.5811 -0.9928 -2.8062
  186MOL0     H25085   9.784   1.070   1.664  1.0223  2.9981 -0.9104
  186MOL0     H25086   9.876   1.327   1.814  0.1404  1.7435 -0.8759
  186MOL0     H25087   9.808   1.324   1.649  0.7442 -0.1422 -0.7225
  186MOL0     H25088   9.977   1.154   1.587 -1.5659  3.7300 -2.5495
  186MOL0     H25089  10.068   1.307   1.626  2.3301  0.1672  1.3914
  186MOL0     H25090   9.023   1.622   1.528  0.1838 -0.5992  0.3153
  186MOL0     H25091   8.893   1.778   1.680 -2.9555 -0.4733  1.1937
  186MOL0     H25092   8.864   1.833   2.342 -0.5179 -0.3126 -1.3779
  186MOL0     H25093   8.837   2.055   2.445  0.5219  0.8675  0.8462
  186MOL0     H25094   8.459   3.194   3.693  2.6032 -1.7052  0.6532
  186MOL0     H25095   8.422   3.334   3.881 -2.9296  3.0846 -0.9399
  186MOL0     H25096   8.316   3.863   3.930  0.0504  0.3578  0.1200
  186MOL0     H25097   8.318   4.066   4.096  2.0994  1.7925 -0.7107
  186MOL0     H25098   8.481   4.265   4.389 -0.3679 -2.0764 -0.1624
  186MOL0     H25099   8.382   4.240   4.252 -0.0945 -1.3680 -0.3845
  186MOL0     H25100   8.685   4.250   4.241  0.4844 -0.9101 -2.5153
  186MOL0     H25101   8.593   4.404   4.240  0.0396 -0.0877 -0.8829
  186MOL0     H25102   8.452   4.300   4.051 -0.1429 -1.5610  2.7525
  186MOL0     H25103   8.598   4.196   4.016 -1.2929  0.4003  0.8819
  186MOL0     H25104   8.537   4.492   3.984 -0.5501  0.1682 -1.3742
  186MOL0     H25105   8.710   4.442   3.997 -0.1355  0.0699  0.9845
  186MOL0     H25106   8.642   4.337   3.608  2.0984  2.5992 -0.5569
  186MOL0     H25107   8.625   3.891   4.312  0.7619 -0.9570  0.0291
  186MOL0     H25108   8.690   3.662   4.283  2.9647  0.1962 -0.5054
  186MOL0     H25109   8.590   3.569   4.171 -2.0507  3.2149 -2.3431
  186MOL0     H25110   8.732   3.673   4.108  1.1246  0.2110 -0.3262
  187MOL0     O25111  11.181   7.233   1.702  0.2328  0.2020 -0.1750
  187MOL0     C25112  11.112   7.135   1.675  0.0775  0.1414 -0.5268
  187MOL0     O25113  11.145   7.009   1.706 -0.3878  0.0847  0.0726
  187MOL0     C25114  11.276   6.962   1.704  0.5020 -0.0362 -0.8321
  187MOL0     C25115  11.388   7.029   1.661  0.2381 -0.0595  0.1850
  187MOL0     C25116  11.506   6.956   1.654  0.9967  0.7836 -0.2505
  187MOL0     C25117  11.508   6.819   1.681  0.7775  0.2997  0.4356
  187MOL0     O25118  11.613   6.735   1.679  0.7606 -0.5989 -0.4854
  187MOL0     C25119  11.734   6.745   1.608 -0.5976 -0.3289  0.8595
  187MOL0     C25120  11.845   6.705   1.703 -0.2013 -0.9393  0.0895
  187MOL0     C25121  11.827   6.562   1.746 -0.0308  0.5249 -0.4808
  187MOL0     C25122  11.945   6.522   1.834  1.1989 -0.7915  0.3762
  187MOL0     C25123  11.934   6.372   1.887  0.8520  0.0821  0.2323
  187MOL0     C25124  12.068   6.342   1.959 -0.0387  0.5323 -0.0003
  187MOL0     C25125  12.102   6.199   1.996 -0.6708 -0.3844 -0.1891
  187MOL0     C25126  12.157   6.108   1.880  0.1059  0.5797  0.1669
  187MOL0     N25127  12.257   6.183   1.795 -0.2120 -0.2596 -0.2349
  187MOL0     C25128  12.231   6.248   1.684 -0.4503  0.7428  0.1409
  187MOL0     C25129  12.362   6.287   1.640 -0.2872  0.1861 -0.2084
  187MOL0     C25130  12.391   6.356   1.504  0.1480 -0.9822  0.4716
  187MOL0     C25131  12.380   6.507   1.524 -0.8018 -0.6151 -0.0570
  187MOL0     C25132  12.396   6.601   1.400  0.4064  0.5715  0.3431
  187MOL0     C25133  12.543   6.608   1.354 -0.4410 -0.6838 -0.3045
  187MOL0     O25134  12.584   6.513   1.250  0.1639  0.0498 -0.6394
  187MOL0     C25135  12.715   6.526   1.207  0.3090  0.0295 -0.1598
  187MOL0     C25136  12.722   6.517   1.069  0.4981  0.4922  1.0205
  187MOL0     C25137  12.845   6.515   1.014 -0.0866  0.0154  0.3462
  187MOL0     C25138  12.971   6.502   1.084  0.1300 -0.4469 -0.1193
  187MOL0     C25139  13.102   6.494   1.026  0.0421  0.1461  0.5534
  187MOL0     O25140  13.200   6.501   1.119 -0.3047 -0.2123 -1.3246
  187MOL0     C25141  13.311   6.570   1.085  1.0098 -0.1576  0.8135
  187MOL0     C25142  13.317   6.681   0.997 -0.7551 -0.1137  0.2439
  187MOL0     C25143  13.448   6.744   0.982  0.0405  0.4518  0.5479
  187MOL0     C25144  13.557   6.698   1.051  0.0361  0.6756  0.2506
  187MOL0     O25145  13.666   6.782   1.045 -0.9247 -0.6243  0.2661
  187MOL0     C25146  13.763   6.750   0.936  0.1078  0.8247  0.0170
  187MOL0     C25147  13.838   6.626   0.963 -0.8138 -1.0994 -0.2281
  187MOL0     C25148  13.911   6.635   1.093 -1.0860  0.5165 -0.4050
  187MOL0     C25149  13.988   6.500   1.098 -0.6617 -0.4642  0.4720
  187MOL0     C25150  14.047   6.479   1.239  1.1150  0.0278 -0.3357
  187MOL0     C25151  14.135   6.355   1.224  0.6505 -0.0234  0.3951
  187MOL0     C25152  14.167   6.317   1.370 -0.2329  0.2793  0.2869
  187MOL0     C25153  14.234   6.178   1.383  0.0441  0.4697  0.8447
  187MOL0    Cl25154  14.266   6.133   1.561 -0.3136 -0.0954 -0.4396
  187MOL0     C25155  13.542   6.588   1.138 -1.1056 -0.3349  0.9063
  187MOL0     C25156  13.419   6.528   1.159 -0.7249 -0.0413 -0.2920
  187MOL0     O25157  13.125   6.501   0.901 -0.1090  0.8367  0.1179
  187MOL0     C25158  12.965   6.515   1.225  0.6279  0.4614 -0.9057
  187MOL0     C25159  12.834   6.522   1.286  1.1268  0.1924  0.3481
  187MOL0     N25160  12.458   6.259   1.736  0.9982 -0.1327 -0.8670
  187MOL0     N25161  12.388   6.206   1.833  0.2151 -0.7618 -0.3434
  187MOL0     C25162  11.395   6.755   1.713  0.7409  0.4389  0.1641
  187MOL0     C25163  11.277   6.825   1.745 -0.4252 -0.3646  0.0938
  187MOL0     C25164  10.975   7.161   1.615 -0.3201  0.0730 -0.7059
  187MOL0     C25165  10.946   7.295   1.607 -0.1092  0.0685  0.6984
  187MOL0     C25166  10.824   7.347   1.565  0.2459 -0.8762  0.3273
  187MOL0     C25167  10.716   7.256   1.537  0.3176 -0.9687 -0.2252
  187MOL0     O25168  10.592   7.298   1.499 -0.0577  0.3177 -0.2292
  187MOL0     C25169  10.602   7.403   1.389  0.3864  1.1889 -0.4288
  187MOL0     C25170  10.503   7.514   1.424 -0.1157 -0.6162  0.0878
  187MOL0     C25171  10.357   7.462   1.417  0.8471  0.2665 -0.7472
  187MOL0     C25172  10.252   7.567   1.436  0.6568 -0.1556  0.0923
  187MOL0     C25173  10.254   7.639   1.565  0.9773  0.5276  0.8028
  187MOL0     C25174  10.275   7.676   1.676  0.0963 -0.9486 -0.3009
  187MOL0     C25175  10.741   7.112   1.555  0.1088 -0.4114  0.2836
  187MOL0     C25176  10.870   7.072   1.593  0.5176 -0.1490 -1.3369
  187MOL0     C25177  10.895   6.924   1.568 -0.5777 -0.5059  0.0776
  187MOL0     H25178  11.388   7.134   1.636 -2.8495 -0.1827 -0.6416
  187MOL0     H25179  11.588   7.017   1.618  0.2992 -0.0791 -3.7143
  187MOL0     H25180  11.733   6.681   1.519  1.2058 -3.2163  2.7293
  187MOL0     H25181  11.749   6.846   1.568  0.6944 -0.8992 -0.1815
  187MOL0     H25182  11.853   6.775   1.786  0.2722 -0.4310 -0.3750
  187MOL0     H25183  11.941   6.716   1.651  0.1867 -0.5756  0.8775
  187MOL0     H25184  11.823   6.504   1.653  4.0992 -0.0022 -0.5523
  187MOL0     H25185  11.735   6.552   1.804  1.1262  1.4095  1.6031
  187MOL0     H25186  12.039   6.522   1.778  0.5627  1.1424 -0.8036
  187MOL0     H25187  11.954   6.598   1.912  0.4092 -0.6833  0.3796
  187MOL0     H25188  11.849   6.360   1.955 -0.4584  0.4572 -1.2878
  187MOL0     H25189  11.925   6.300   1.806 -0.1770 -0.8292  1.1312
  187MOL0     H25190  12.151   6.381   1.898 -1.2617 -0.4489 -2.4318
  187MOL0     H25191  12.070   6.399   2.052  2.0453 -0.2825  0.5082
  187MOL0     H25192  12.017   6.146   2.042 -0.8017  1.2140  1.5162
  187MOL0     H25193  12.169   6.204   2.083 -1.9140  3.0632  0.7300
  187MOL0     H25194  12.203   6.017   1.919  1.7997  0.7071 -1.3883
  187MOL0     H25195  12.079   6.076   1.811  0.3632  2.0017 -0.8152
  187MOL0     H25196  12.133   6.244   1.638 -0.3656  1.5122 -0.1171
  187MOL0     H25197  12.490   6.323   1.472 -1.0782 -2.9564 -1.5920
  187MOL0     H25198  12.317   6.341   1.424 -1.3353  3.9820  0.5412
  187MOL0     H25199  12.276   6.533   1.547 -1.6281  1.9097 -5.1562
  187MOL0     H25200  12.447   6.548   1.600  2.2862 -2.1009 -1.7754
  187MOL0     H25201  12.354   6.699   1.427 -1.5961 -0.0090 -0.4995
  187MOL0     H25202  12.339   6.570   1.312  4.6645 -1.1646 -2.0949
  187MOL0     H25203  12.611   6.602   1.439 -0.7710  0.7604  0.0899
  187MOL0     H25204  12.562   6.709   1.316  0.4428 -0.8272 -0.2605
  187MOL0     H25205  12.633   6.520   1.008 -3.1702 -0.4121  5.6958
  187MOL0     H25206  12.852   6.519   0.905  1.1178  1.1540  0.4444
  187MOL0     H25207  13.221   6.711   0.955 -1.1396 -2.9841 -1.1757
  187MOL0     H25208  13.464   6.837   0.928 -3.0341  0.9028  0.2688
  187MOL0     H25209  13.712   6.751   0.839 -0.9347 -0.5366  0.5213
  187MOL0     H25210  13.832   6.834   0.927  0.7617  0.1841 -1.2553
  187MOL0     H25211  13.764   6.544   0.962 -3.4443  1.1406 -0.4124
  187MOL0     H25212  13.910   6.615   0.881 -2.0981 -0.8236 -1.4407
  187MOL0     H25213  13.980   6.719   1.101  3.5825 -3.0792  1.7265
  187MOL0     H25214  13.832   6.639   1.169 -1.2952 -1.6279 -0.4553
  187MOL0     H25215  14.076   6.510   1.033  0.5310  2.1508  2.3147
  187MOL0     H25216  13.925   6.416   1.068 -1.5092 -0.1077  1.2394
  187MOL0     H25217  13.969   6.451   1.310 -0.5055  0.3718 -1.9142
  187MOL0     H25218  14.105   6.570   1.258  1.2684 -0.0446 -0.4525
  187MOL0     H25219  14.072   6.277   1.180 -0.0288  0.1938  0.9518
  187MOL0     H25220  14.225   6.374   1.166  1.2462  1.4177  1.7285
  187MOL0     H25221  14.078   6.307   1.433 -1.5318  0.7044 -1.4098
  187MOL0     H25222  14.236   6.391   1.412  1.8469  0.0914 -2.5273
  187MOL0     H25223  14.172   6.103   1.333  1.0383  2.5076 -4.0558
  187MOL0     H25224  14.332   6.188   1.335  0.3568  3.2093  1.8639
  187MOL0     H25225  13.628   6.559   1.197  0.3569  1.8428 -0.0295
  187MOL0     H25226  13.417   6.447   1.231 -2.8440  1.1965  1.1243
  187MOL0     H25227  13.050   6.499   1.291 -0.5114  1.3557  0.8654
  187MOL0     H25228  12.822   6.514   1.394  0.8069 -0.2009  0.2847
  187MOL0     H25229  11.394   6.648   1.733 -1.3877  0.4167  0.2316
  187MOL0     H25230  11.186   6.774   1.775 -1.4069  0.3012 -1.5619
  187MOL0     H25231  11.027   7.367   1.618  1.0124 -0.8361 -1.0957
  187MOL0     H25232  10.808   7.451   1.541 -3.3895 -0.9589  1.7696
  187MOL0     H25233  10.556   7.351   1.304 -0.0756  0.7079  0.1078
  187MOL0     H25234  10.700   7.447   1.366 -0.8350  4.8841  0.7774
  187MOL0     H25235  10.497   7.587   1.343  2.9485 -0.9031 -0.5214
  187MOL0     H25236  10.533   7.566   1.515 -0.1763 -0.6137  0.1063
  187MOL0     H25237  10.319   7.387   1.487  0.2496  2.7735  1.7967
  187MOL0     H25238  10.346   7.409   1.322 -1.6810  0.0407 -0.3930
  187MOL0     H25239  10.234   7.645   1.361 -0.2754  0.4187  0.8859
  187MOL0     H25240  10.158   7.512   1.430 -0.9967  2.3229  1.4332
  187MOL0     H25241  10.313   7.707   1.772 -2.1969 -0.7557  0.5996
  187MOL0     H25242  10.661   7.044   1.526 -0.1850  0.7198 -1.7685
  187MOL0     H25243  10.985   6.879   1.611 -0.2719 -1.0627 -1.0927
  187MOL0     H25244  10.814   6.856   1.597  0.0180 -0.8487  0.9869
  187MOL0     H25245  10.910   6.908   1.461 -1.0131  0.5642 -0.1512
  188MOL0     O25246  10.395   0.647  11.177 -0.2153 -0.0466  0.4510
  188MOL0     C25247  10.275   0.663  11.188 -0.0248  0.1969 -0.5637
  188MOL0     O25248  10.175   0.617  11.110  0.3318  0.1424 -0.0456
  188MOL0     C25249  10.185   0.494  11.053 -0.0277 -0.1813 -0.0496
  188MOL0     C25250  10.127   0.474  10.926 -0.2647 -0.0380 -0.2636
  188MOL0     C25251  10.147   0.354  10.858 -0.2731  0.6349  1.0307
  188MOL0     C25252  10.215   0.249  10.923 -0.8153  0.6559  0.5064
  188MOL0     O25253  10.231   0.122  10.871  0.2667 -0.7830 -0.1570
  188MOL0     C25254  10.247   0.101  10.732 -1.3498  0.2799  0.0504
  188MOL0     C25255  10.395   0.118  10.682 -0.4781 -0.1044 -0.0247
  188MOL0     C25256  10.508   0.019  10.724 -0.2350 -0.3515 -0.8186
  188MOL0     C25257  10.550   0.038  10.872  0.3128 -0.6494  0.0691
  188MOL0     C25258  10.648  -0.071  10.926 -0.2810 -0.2628 -0.0143
  188MOL0     C25259  10.702  -0.026  11.068 -0.6640  0.4252 -0.0504
  188MOL0     C25260  10.774   0.113  11.078 -0.0452  0.6668 -0.6242
  188MOL0     C25261  10.871   0.121  11.193  0.4530 -1.5060 -0.6268
  188MOL0     N25262  10.992   0.175  11.148  0.1816  0.0807  0.3299
  188MOL0     C25263  11.062   0.120  11.045  0.0686  0.2327 -0.2443
  188MOL0     C25264  11.153   0.224  11.038 -0.6534  0.4230  0.5602
  188MOL0     C25265  11.283   0.218  10.945  0.4232  0.7925  0.4111
  188MOL0     C25266  11.387   0.114  10.994 -0.1723  0.5907  0.0542
  188MOL0     C25267  11.386   0.130  11.149 -0.4248  0.0827 -0.8374
  188MOL0     C25268  11.512   0.053  11.187 -0.2859 -0.3642  0.7975
  188MOL0     O25269  11.517   0.039  11.332  0.3974  1.4725  0.2944
  188MOL0     C25270  11.545   0.147  11.414 -0.6617 -0.4200 -0.4920
  188MOL0     C25271  11.570   0.106  11.553  0.4530  0.1631  0.0671
  188MOL0     C25272  11.622   0.194  11.642  0.1804  0.0820 -0.9074
  188MOL0     C25273  11.652   0.325  11.601 -0.5832 -0.8444  0.6570
  188MOL0     C25274  11.732   0.413  11.692  0.7395 -0.3452  0.1601
  188MOL0     O25275  11.744   0.367  11.823  0.1609  0.6495 -0.0328
  188MOL0     C25276  11.846   0.404  11.903  0.8554 -0.4756  0.8252
  188MOL0     C25277  11.975   0.443  11.860 -0.6413  0.9483  0.3020
  188MOL0     C25278  12.064   0.475  11.957 -0.5794  0.2213 -0.2978
  188MOL0     C25279  12.022   0.485  12.092 -0.6843  0.4818  0.1430
  188MOL0     O25280  12.106   0.533  12.187 -0.1022  0.4598 -0.3775
  188MOL0     C25281  12.097   0.666  12.231 -0.9039 -0.0265  0.3303
  188MOL0     C25282  12.144   0.773  12.127  1.1393  0.4197  0.5039
  188MOL0     C25283  12.109   0.923  12.164 -0.3101  0.9247 -0.1473
  188MOL0     C25284  12.151   0.965  12.306  0.0342  0.3300  1.0098
  188MOL0     C25285  12.130   1.118  12.336  0.2522  0.1563  0.4879
  188MOL0     C25286  12.218   1.165  12.456  0.5503  0.0901 -0.5030
  188MOL0     C25287  12.183   1.310  12.489  0.0796 -0.6676  1.0225
  188MOL0     C25288  12.313   1.394  12.511  0.0467  0.1432  0.0339
  188MOL0    Cl25289  12.409   1.312  12.648 -0.3514 -0.2218  0.2744
  188MOL0     C25290  11.899   0.442  12.126  0.0833  0.3667 -0.7263
  188MOL0     C25291  11.808   0.407  12.036  0.1923 -0.4298  0.6004
  188MOL0     O25292  11.778   0.517  11.636  0.1474  0.5477 -0.2636
  188MOL0     C25293  11.613   0.380  11.475 -0.0601 -0.9419 -0.1933
  188MOL0     C25294  11.555   0.288  11.385  0.1628 -0.1261 -0.6912
  188MOL0     N25295  11.142   0.317  11.137 -0.3276  0.0359  0.4209
  188MOL0     N25296  11.040   0.288  11.195 -0.5890  0.3439  0.3718
  188MOL0     C25297  10.280   0.273  11.044  0.4056  0.0692 -0.2365
  188MOL0     C25298  10.265   0.395  11.108 -0.5810 -0.1144 -0.1023
  188MOL0     C25299  10.247   0.771  11.283 -0.0866 -0.8852 -0.2171
  188MOL0     C25300  10.318   0.756  11.400 -0.2731 -0.0918  0.3758
  188MOL0     C25301  10.291   0.845  11.503  0.3622  1.7895  0.0440
  188MOL0     C25302  10.190   0.942  11.490  0.0662 -0.3284  0.1264
  188MOL0     O25303  10.152   1.030  11.593  0.4206  0.4009 -0.2603
  188MOL0     C25304  10.245   1.051  11.699  0.3430 -0.0372 -1.0025
  188MOL0     C25305  10.198   1.142  11.804 -0.4607 -0.3507  1.1492
  188MOL0     C25306  10.287   1.167  11.932  0.3004  0.4889  0.1507
  188MOL0     C25307  10.210   1.248  12.027 -0.2508 -0.5888  0.4361
  188MOL0     C25308  10.173   1.373  11.976  0.5539 -0.8914  0.9264
  188MOL0     C25309  10.143   1.492  11.944  0.0291  0.3261  0.3750
  188MOL0     C25310  10.114   0.951  11.371 -0.1114  0.8779 -0.3914
  188MOL0     C25311  10.155   0.874  11.257 -0.7256 -0.8352  1.3007
  188MOL0     C25312  10.077   0.890  11.122 -0.0678 -0.4846  0.3254
  188MOL0     H25313  10.062   0.551  10.885  0.8368  0.9435 -0.2205
  188MOL0     H25314  10.093   0.330  10.767  2.4352 -1.1393 -0.2651
  188MOL0     H25315  10.223  -0.003  10.707 -0.1267  0.5313 -2.4055
  188MOL0     H25316  10.179   0.161  10.671  0.7478  1.3801 -1.2780
  188MOL0     H25317  10.429   0.220  10.700  0.9814 -0.3732 -1.1173
  188MOL0     H25318  10.395   0.104  10.574  0.6263  1.5671 -0.2735
  188MOL0     H25319  10.598   0.030  10.662  0.3743  5.0791  0.5425
  188MOL0     H25320  10.475  -0.084  10.710 -1.7359  0.2518 -1.8833
  188MOL0     H25321  10.596   0.136  10.883  2.2331 -1.2799 -1.8099
  188MOL0     H25322  10.459   0.033  10.933 -1.9739 -0.3250 -3.0663
  188MOL0     H25323  10.604  -0.172  10.928  0.4002 -0.5611  0.5477
  188MOL0     H25324  10.734  -0.068  10.859 -2.3116  0.9890 -2.7218
  188MOL0     H25325  10.619  -0.010  11.137 -0.9420  1.9277 -0.6813
  188MOL0     H25326  10.766  -0.103  11.111  0.4435  2.0637  1.3742
  188MOL0     H25327  10.701   0.194  11.080  2.3296  2.9380  1.1013
  188MOL0     H25328  10.821   0.123  10.979  0.7135  1.6389 -0.1907
  188MOL0     H25329  10.828   0.175  11.279  0.5968  0.1894 -1.5690
  188MOL0     H25330  10.894   0.019  11.226  0.1352 -0.4515  3.4913
  188MOL0     H25331  11.053   0.031  10.983  2.0702 -0.0353 -0.2072
  188MOL0     H25332  11.251   0.195  10.843 -2.3150  3.3558  0.5752
  188MOL0     H25333  11.334   0.314  10.949 -0.5568  1.3074  0.6542
  188MOL0     H25334  11.350   0.013  10.978 -1.7233  0.5062  3.2876
  188MOL0     H25335  11.488   0.121  10.953  1.0816  1.5623  3.0049
  188MOL0     H25336  11.306   0.080  11.204 -0.2069  2.3158  1.7593
  188MOL0     H25337  11.389   0.233  11.184 -1.9053  0.4516 -1.7532
  188MOL0     H25338  11.599   0.112  11.155 -0.7590 -0.4433 -0.7123
  188MOL0     H25339  11.500  -0.043  11.136  0.9019  0.4664 -1.1778
  188MOL0     H25340  11.562   0.001  11.580  1.0673 -0.3680 -1.6806
  188MOL0     H25341  11.659   0.151  11.735 -1.0051  1.0380  0.0358
  188MOL0     H25342  12.002   0.462  11.756 -2.3245  4.8032  0.3964
  188MOL0     H25343  12.159   0.511  11.921 -1.8006 -0.1099 -4.3483
  188MOL0     H25344  11.998   0.691  12.270 -0.2526 -0.9340  2.6772
  188MOL0     H25345  12.169   0.673  12.313  2.0806 -1.5733 -1.9463
  188MOL0     H25346  12.251   0.754  12.108  0.7063  0.7487 -2.9529
  188MOL0     H25347  12.091   0.755  12.033  1.5048  4.9157 -0.8254
  188MOL0     H25348  12.159   0.985  12.089  1.3741 -3.4405 -3.0213
  188MOL0     H25349  12.002   0.942  12.150 -0.7272 -2.5727 -3.2813
  188MOL0     H25350  12.257   0.937  12.316 -0.5894 -2.1361  1.4463
  188MOL0     H25351  12.086   0.908  12.372 -2.2499  1.2126 -0.3540
  188MOL0     H25352  12.026   1.145  12.353 -0.1079 -1.1778  0.5185
  188MOL0     H25353  12.169   1.180  12.255 -2.2841  1.6414  0.3114
  188MOL0     H25354  12.204   1.100  12.542 -0.1975  2.8358  1.6022
  188MOL0     H25355  12.323   1.146  12.434  0.1943 -0.4764 -1.8272
  188MOL0     H25356  12.126   1.306  12.582  0.6439  2.1070  1.5998
  188MOL0     H25357  12.125   1.350  12.405 -1.2525 -2.9067  0.8172
  188MOL0     H25358  12.372   1.400  12.419 -0.4662  0.6246 -0.2636
  188MOL0     H25359  12.279   1.487  12.557  2.7151  0.5249  1.4701
  188MOL0     H25360  11.879   0.466  12.231 -1.9001  2.3986 -1.4782
  188MOL0     H25361  11.708   0.381  12.071 -0.4053  1.1606  0.1710
  188MOL0     H25362  11.626   0.483  11.444  0.9550 -0.1798  2.4521
  188MOL0     H25363  11.539   0.318  11.281 -4.5081 -2.0980 -0.8078
  188MOL0     H25364  10.338   0.202  11.101  3.9125  2.3342 -0.6229
  188MOL0     H25365  10.305   0.414  11.207 -1.5930  0.0903  0.2784
  188MOL0     H25366  10.398   0.686  11.420 -0.9294 -1.1316 -0.5240
  188MOL0     H25367  10.355   0.830  11.589  2.0615  0.0124 -1.4598
  188MOL0     H25368  10.340   1.081  11.655  0.7173  2.8855  1.4632
  188MOL0     H25369  10.255   0.954  11.747 -2.8376 -0.8338 -1.6772
  188MOL0     H25370  10.094   1.111  11.822 -0.9862  0.5717 -0.1521
  188MOL0     H25371  10.186   1.244  11.767 -1.1865  0.8357  4.2939
  188MOL0     H25372  10.380   1.216  11.902 -0.1240  2.7649  2.2569
  188MOL0     H25373  10.305   1.067  11.974 -0.5237  0.5037  0.5610
  188MOL0     H25374  10.116   1.207  12.065 -1.0610  0.9133  0.1334
  188MOL0     H25375  10.277   1.276  12.109 -1.0195  0.1999  0.8057
  188MOL0     H25376  10.109   1.593  11.937 -2.5587 -0.5512 -1.0041
  188MOL0     H25377  10.042   1.032  11.367  0.4355  1.3512 -1.0437
  188MOL0     H25378  10.019   0.981  11.111  1.9103  0.7189 -0.8525
  188MOL0     H25379  10.150   0.878  11.041  2.4945 -0.0150  2.3930
  188MOL0     H25380  10.004   0.811  11.102 -0.6939 -0.3982  2.1117
  189MOL0     O25381   1.153   5.564   1.465 -0.9360  0.0727  0.9478
  189MOL0     C25382   1.088   5.490   1.393 -0.0631 -0.9031  0.4825
  189MOL0     O25383   0.971   5.445   1.415  0.4209  0.1123  0.4252
  189MOL0     C25384   0.899   5.470   1.532  1.1046 -0.1617  0.6172
  189MOL0     C25385   0.833   5.350   1.571 -0.4038 -0.7860  0.1873
  189MOL0     C25386   0.724   5.361   1.664 -0.7605  0.2280 -0.5153
  189MOL0     C25387   0.690   5.492   1.707  0.6827  0.5377 -0.3226
  189MOL0     O25388   0.581   5.501   1.801  1.0632 -0.8326 -0.7303
  189MOL0     C25389   0.505   5.624   1.790  1.2520 -0.2635  0.0465
  189MOL0     C25390   0.357   5.584   1.824 -0.4279 -0.3425  0.5245
  189MOL0     C25391   0.357   5.531   1.979 -0.7244 -0.4339  0.5552
  189MOL0     C25392   0.298   5.387   1.972 -0.2040 -0.6848  0.7763
  189MOL0     C25393   0.283   5.298   2.099  1.0205 -0.6481  0.0771
  189MOL0     C25394   0.156   5.224   2.107  0.2312 -0.4896 -0.3068
  189MOL0     C25395   0.169   5.097   2.021  0.3327  0.0483 -0.8806
  189MOL0     C25396   0.032   5.028   1.998 -0.5380  0.4615  0.0732
  189MOL0     N25397  -0.039   5.104   1.897 -0.4236  0.9788  1.1572
  189MOL0     C25398  -0.009   5.119   1.758  0.8659 -0.1929 -0.4504
  189MOL0     C25399  -0.119   5.197   1.717 -0.5022  0.4547  0.9494
  189MOL0     C25400  -0.141   5.249   1.577  0.2127 -0.3777  0.3518
  189MOL0     C25401  -0.031   5.343   1.530 -0.0752  0.3329  0.1185
  189MOL0     C25402  -0.014   5.476   1.615 -0.2681 -0.7579  0.0535
  189MOL0     C25403  -0.130   5.577   1.619 -0.0685  0.1103  1.1930
  189MOL0     O25404  -0.089   5.706   1.667  0.0080 -0.0778  0.0739
  189MOL0     C25405  -0.060   5.714   1.805  0.0965 -0.4884  0.2685
  189MOL0     C25406   0.038   5.818   1.840  0.1709 -0.3027 -0.0191
  189MOL0     C25407   0.084   5.822   1.967 -0.2038  0.4116 -0.8480
  189MOL0     C25408   0.054   5.720   2.075  0.0413 -1.0399 -0.5384
  189MOL0     C25409   0.125   5.714   2.209  1.0593 -1.0156  0.8271
  189MOL0     O25410   0.197   5.828   2.237  0.0335  0.2994 -0.7586
  189MOL0     C25411   0.281   5.833   2.345  0.6842 -0.2310  0.3184
  189MOL0     C25412   0.316   5.739   2.445  0.3064 -0.8359 -0.3831
  189MOL0     C25413   0.388   5.775   2.557 -0.4849 -0.6900  0.3325
  189MOL0     C25414   0.452   5.901   2.571  0.6156  0.6276  0.7273
  189MOL0     O25415   0.522   5.954   2.674 -0.0634  0.2595  0.0426
  189MOL0     C25416   0.519   5.889   2.801  0.5275 -0.4275 -0.1475
  189MOL0     C25417   0.405   5.940   2.881  0.5546  0.3671 -0.3341
  189MOL0     C25418   0.402   5.862   3.021 -0.9769  0.3083  1.4155
  189MOL0     C25419   0.326   5.938   3.127 -0.0497 -0.1920 -0.2828
  189MOL0     C25420   0.308   5.853   3.264  0.1738  0.5457  0.7941
  189MOL0     C25421   0.231   5.941   3.364  0.2088  0.2098  0.4647
  189MOL0     C25422   0.165   5.870   3.487 -0.2107 -0.9798  0.5529
  189MOL0     C25423   0.066   5.966   3.551  0.3187 -0.8304  0.3984
  189MOL0    Cl25424  -0.071   6.007   3.458  0.1132 -0.8745 -0.0298
  189MOL0     C25425   0.428   5.984   2.461 -0.1081 -0.8482 -0.6203
  189MOL0     C25426   0.353   5.952   2.354  0.2277 -0.1218 -0.6774
  189MOL0     O25427   0.120   5.605   2.262 -1.1857 -0.8589 -0.4538
  189MOL0     C25428  -0.041   5.624   2.042  0.6182  0.7229  0.3090
  189MOL0     C25429  -0.093   5.619   1.912 -0.1031 -0.8487  0.3846
  189MOL0     N25430  -0.197   5.223   1.828  0.5689 -0.7926 -0.1832
  189MOL0     N25431  -0.142   5.180   1.936 -0.3781  0.1732  0.2773
  189MOL0     C25432   0.761   5.606   1.670 -0.0734 -0.0929 -0.1471
  189MOL0     C25433   0.861   5.597   1.574 -0.1488 -0.1137 -0.8564
  189MOL0     C25434   1.158   5.450   1.264 -0.7023 -0.9055  0.4373
  189MOL0     C25435   1.107   5.348   1.181  0.4493 -0.3336 -0.7375
  189MOL0     C25436   1.167   5.313   1.064 -0.0667 -0.1149 -0.0283
  189MOL0     C25437   1.301   5.342   1.025  0.3131  0.5725 -0.0748
  189MOL0     O25438   1.349   5.293   0.906 -0.9822  0.8793  0.3855
  189MOL0     C25439   1.491   5.299   0.870 -0.2554 -0.6958 -0.1235
  189MOL0     C25440   1.497   5.265   0.735 -0.0461  0.4528  0.8773
  189MOL0     C25441   1.428   5.376   0.652  0.4527  0.0842 -0.2334
  189MOL0     C25442   1.484   5.520   0.663  0.4425  0.3196 -0.4080
  189MOL0     C25443   1.425   5.623   0.581  0.8927  0.7000  0.4626
  189MOL0     C25444   1.355   5.706   0.512 -0.8914  0.4853 -0.0455
  189MOL0     C25445   1.357   5.440   1.107  0.1243 -0.0757 -0.5236
  189MOL0     C25446   1.292   5.496   1.221 -0.3897 -0.1518 -0.0373
  189MOL0     C25447   1.369   5.612   1.287 -0.8043 -0.1490 -1.0126
  189MOL0     H25448   0.857   5.258   1.519 -2.1803 -0.4962 -1.2811
  189MOL0     H25449   0.669   5.271   1.689  1.3226 -0.1798  3.4217
  189MOL0     H25450   0.545   5.708   1.849 -3.0224  0.4718  2.3364
  189MOL0     H25451   0.498   5.653   1.685  0.4173 -2.2395 -0.4810
  189MOL0     H25452   0.319   5.513   1.750  3.0532 -0.2472 -1.6100
  189MOL0     H25453   0.288   5.669   1.819 -0.9499 -0.7503  0.7612
  189MOL0     H25454   0.287   5.598   2.030  0.7634  0.5197  1.4130
  189MOL0     H25455   0.454   5.531   2.030 -0.7655  3.2007  0.8569
  189MOL0     H25456   0.194   5.401   1.939 -0.1345  2.6638  1.6123
  189MOL0     H25457   0.363   5.355   1.890 -0.8170 -0.7588  0.3136
  189MOL0     H25458   0.370   5.232   2.101 -0.0447 -2.0701  1.0002
  189MOL0     H25459   0.293   5.366   2.185  4.0866  2.1262 -2.1844
  189MOL0     H25460   0.130   5.201   2.211  1.0439 -6.0053 -1.0208
  189MOL0     H25461   0.076   5.292   2.075  1.7250  0.5839 -1.9878
  189MOL0     H25462   0.236   5.034   2.080 -0.9384  0.5164  1.1710
  189MOL0     H25463   0.215   5.127   1.926 -1.1282 -1.3140 -2.0896
  189MOL0     H25464   0.043   4.923   1.970 -3.4932 -0.8399  3.0159
  189MOL0     H25465  -0.018   5.052   2.092  1.6397 -0.2397  1.4898
  189MOL0     H25466   0.063   5.073   1.691 -0.5914 -0.1567 -2.1272
  189MOL0     H25467  -0.134   5.167   1.506  4.0594  2.2900 -2.7538
  189MOL0     H25468  -0.241   5.294   1.580  0.7619  0.8526  1.0031
  189MOL0     H25469   0.057   5.278   1.539 -0.8673 -1.1597 -2.1226
  189MOL0     H25470  -0.025   5.362   1.423  2.2524 -1.3242 -0.1258
  189MOL0     H25471   0.071   5.535   1.577 -1.2252  1.7574  1.5728
  189MOL0     H25472   0.023   5.453   1.715  1.1687  2.9059  0.5282
  189MOL0     H25473  -0.212   5.538   1.680 -0.3243 -0.8858  0.2524
  189MOL0     H25474  -0.179   5.575   1.521  0.6620 -2.1652  0.8097
  189MOL0     H25475   0.067   5.890   1.764 -3.8416 -1.1142 -2.6450
  189MOL0     H25476   0.150   5.904   1.994  0.7427 -0.8202  0.7696
  189MOL0     H25477   0.264   5.643   2.441  0.3581 -0.8388 -2.4891
  189MOL0     H25478   0.391   5.701   2.636 -0.9344 -3.5973 -2.1946
  189MOL0     H25479   0.519   5.780   2.791 -1.4713 -0.5294  0.4397
  189MOL0     H25480   0.614   5.917   2.846  0.4403  2.0746 -1.3477
  189MOL0     H25481   0.418   6.047   2.897  0.3377  0.5611 -1.4209
  189MOL0     H25482   0.315   5.927   2.820  0.7731  2.2764 -1.1308
  189MOL0     H25483   0.370   5.760   2.999  2.3624 -0.7381  0.7683
  189MOL0     H25484   0.502   5.847   3.063 -1.0645  0.3211  1.6273
  189MOL0     H25485   0.230   5.975   3.089  1.1045  1.3276 -1.9357
  189MOL0     H25486   0.388   6.026   3.148  0.1076 -0.5832  0.9637
  189MOL0     H25487   0.406   5.815   3.293  0.2463 -0.8767 -1.1969
  189MOL0     H25488   0.243   5.769   3.240  0.0096  1.2495 -1.4006
  189MOL0     H25489   0.312   5.996   3.413 -0.4032  1.6510 -0.0803
  189MOL0     H25490   0.161   6.006   3.312  0.2244  0.4085  0.6917
  189MOL0     H25491   0.242   5.833   3.556 -0.8584 -0.8209  1.3751
  189MOL0     H25492   0.115   5.777   3.460  0.9094 -1.2403 -0.7713
  189MOL0     H25493   0.037   5.931   3.651 -1.9642  2.5896  1.1320
  189MOL0     H25494   0.122   6.060   3.565  2.0341 -1.7472 -0.0268
  189MOL0     H25495   0.479   6.080   2.466 -3.4808  1.1786 -1.5143
  189MOL0     H25496   0.360   6.025   2.273  0.5653  1.5813  0.8094
  189MOL0     H25497  -0.060   5.543   2.111  1.8841 -0.2525 -0.4541
  189MOL0     H25498  -0.146   5.528   1.885 -2.9184  1.1775 -1.5407
  189MOL0     H25499   0.737   5.705   1.709  0.4348 -1.1282  3.0919
  189MOL0     H25500   0.920   5.681   1.538  1.5993 -0.0563  1.8758
  189MOL0     H25501   1.002   5.320   1.179  0.5090 -0.8204  1.0808
  189MOL0     H25502   1.111   5.258   0.989 -0.1124  0.2691 -0.2760
  189MOL0     H25503   1.548   5.223   0.924 -0.3726  0.7163  2.1217
  189MOL0     H25504   1.534   5.397   0.893  1.3003 -2.0040  3.1665
  189MOL0     H25505   1.448   5.167   0.726 -0.7814  0.9312 -1.0365
  189MOL0     H25506   1.601   5.257   0.701 -0.8446 -0.5970 -1.5443
  189MOL0     H25507   1.324   5.388   0.681  0.0491 -1.9913 -0.7301
  189MOL0     H25508   1.433   5.339   0.549  2.7260 -2.2932  0.6077
  189MOL0     H25509   1.472   5.545   0.768  3.6481  1.5899 -0.2616
  189MOL0     H25510   1.591   5.523   0.641  0.8422 -3.2181  0.3885
  189MOL0     H25511   1.315   5.776   0.442 -0.9827  1.0446  0.5499
  189MOL0     H25512   1.450   5.489   1.079 -1.0751  1.7270 -1.5707
  189MOL0     H25513   1.403   5.581   1.386 -1.4729  0.5967 -0.5388
  189MOL0     H25514   1.464   5.638   1.238 -0.8152 -1.7391 -1.9355
  189MOL0     H25515   1.306   5.702   1.295 -1.2911 -0.6270  0.8973
  190MOL0     O25516   1.809   6.272   1.823 -0.6424  0.0097 -0.7572
  190MOL0     C25517   1.862   6.330   1.732 -0.5558  0.1997  0.7454
  190MOL0     O25518   1.798   6.378   1.622  0.1604 -0.4859  0.3542
  190MOL0     C25519   1.663   6.352   1.609  0.6246  1.0902  0.4429
  190MOL0     C25520   1.561   6.374   1.703  0.3809  0.1745  0.4674
  190MOL0     C25521   1.422   6.361   1.674 -0.3210 -0.2529  0.2334
  190MOL0     C25522   1.384   6.290   1.560  1.5094 -0.2236 -0.1277
  190MOL0     O25523   1.249   6.250   1.538 -0.9025 -0.2885 -0.1555
  190MOL0     C25524   1.199   6.169   1.643  0.8203  0.7103  0.0582
  190MOL0     C25525   1.263   6.031   1.640  0.9781  0.3436 -0.9980
  190MOL0     C25526   1.166   5.935   1.711 -0.6822  0.3865 -0.2062
  190MOL0     C25527   1.239   5.805   1.751  0.0240  0.0235 -0.0705
  190MOL0     C25528   1.160   5.705   1.824  0.8978 -0.2695 -0.0153
  190MOL0     C25529   1.231   5.579   1.835  0.6109 -0.6807 -0.1790
  190MOL0     C25530   1.146   5.475   1.903 -0.4226 -0.3771 -0.1938
  190MOL0     C25531   1.218   5.340   1.927 -0.3440 -0.8666 -0.0288
  190MOL0     N25532   1.112   5.253   1.972  0.4685  1.0485 -0.0550
  190MOL0     C25533   0.992   5.225   1.915 -0.4627  0.3346  0.0274
  190MOL0     C25534   0.927   5.137   1.987 -0.3807 -0.2910 -0.5586
  190MOL0     C25535   0.793   5.081   1.943 -0.3791 -0.6794  0.0383
  190MOL0     C25536   0.820   4.969   1.835  0.6448 -1.3137  0.2023
  190MOL0     C25537   0.694   4.936   1.754 -0.6454 -0.0175  0.4967
  190MOL0     C25538   0.599   4.846   1.832  0.4960  0.2630  0.0227
  190MOL0     O25539   0.458   4.870   1.803 -0.1209  0.2385  0.4573
  190MOL0     C25540   0.349   4.789   1.837 -1.2967  0.1716 -0.9137
  190MOL0     C25541   0.354   4.712   1.953  0.1380  0.3570  0.5381
  190MOL0     C25542   0.247   4.619   1.973 -0.5071  0.3873 -0.2208
  190MOL0     C25543   0.125   4.620   1.887  0.4837 -0.2199  0.5194
  190MOL0     C25544   0.012   4.532   1.918 -0.1020 -0.2542 -0.9400
  190MOL0     O25545  -0.066   4.499   1.808  0.3544  0.3403 -0.1316
  190MOL0     C25546  -0.184   4.425   1.818 -0.9264  0.3827 -0.3292
  190MOL0     C25547  -0.201   4.319   1.734  0.1007  0.0615  0.4908
  190MOL0     C25548  -0.321   4.238   1.733 -0.9503 -0.1483 -0.3178
  190MOL0     C25549  -0.405   4.240   1.840  0.2876  0.3594 -0.0906
  190MOL0     O25550  -0.519   4.158   1.843 -0.3045 -0.5961  0.2638
  190MOL0     C25551  -0.638   4.245   1.858  0.0432 -0.1771  0.1784
  190MOL0     C25552  -0.753   4.180   1.936 -0.8320 -0.4245 -0.3580
  190MOL0     C25553  -0.797   4.045   1.862  0.3072 -0.5414 -0.8623
  190MOL0     C25554  -0.904   4.069   1.756 -0.4535  0.3406 -0.3502
  190MOL0     C25555  -0.878   3.971   1.634 -1.0652  0.9160 -0.3693
  190MOL0     C25556  -0.988   3.959   1.544  0.2629  0.1247 -0.2522
  190MOL0     C25557  -1.099   3.854   1.585 -0.9877  0.3342  0.1923
  190MOL0     C25558  -1.221   3.901   1.514 -0.1600 -0.2301  0.1636
  190MOL0    Cl25559  -1.353   3.796   1.565  0.0631  0.5595  0.0863
  190MOL0     C25560  -0.386   4.340   1.940  0.3983 -0.5163 -0.4615
  190MOL0     C25561  -0.275   4.436   1.922  1.1289 -0.0971 -0.8661
  190MOL0     O25562  -0.003   4.484   2.029  0.0437 -0.1452 -0.2382
  190MOL0     C25563   0.123   4.703   1.775 -0.0070  0.0903 -0.5325
  190MOL0     C25564   0.235   4.780   1.759  0.7546 -0.6040  0.5280
  190MOL0     N25565   1.014   5.099   2.090 -0.4139 -1.0524 -0.2837
  190MOL0     N25566   1.124   5.170   2.081 -0.1285  0.3572 -0.0437
  190MOL0     C25567   1.478   6.259   1.468 -0.7652  0.0432 -1.0819
  190MOL0     C25568   1.610   6.292   1.492 -0.1046 -1.0042  0.3743
  190MOL0     C25569   2.008   6.350   1.752 -0.6067 -0.5010 -0.5717
  190MOL0     C25570   2.062   6.330   1.880  0.2209  0.4270 -0.9630
  190MOL0     C25571   2.187   6.369   1.909 -0.3331  0.0466  0.2930
  190MOL0     C25572   2.279   6.411   1.810 -0.2223 -0.7247  0.8022
  190MOL0     O25573   2.410   6.435   1.843  0.4358  0.0381 -0.4097
  190MOL0     C25574   2.510   6.451   1.741  0.5218 -1.1125 -0.9182
  190MOL0     C25575   2.638   6.487   1.799 -0.4257 -0.3362  1.1589
  190MOL0     C25576   2.647   6.588   1.908 -0.0737  0.2181 -0.7223
  190MOL0     C25577   2.590   6.549   2.045 -0.4983  0.7943  0.6560
  190MOL0     C25578   2.567   6.668   2.127  0.7586 -0.3659  1.1375
  190MOL0     C25579   2.536   6.769   2.188 -0.2652 -0.5456  0.3475
  190MOL0     C25580   2.227   6.414   1.676  0.4725  0.5516  0.4444
  190MOL0     C25581   2.096   6.379   1.639 -0.0436 -0.1325 -0.1119
  190MOL0     C25582   2.050   6.385   1.497 -0.0482  1.3365 -0.1282
  190MOL0     H25583   1.582   6.415   1.802  2.5494 -2.7890  1.3926
  190MOL0     H25584   1.353   6.395   1.751 -0.0274  4.5116 -1.2906
  190MOL0     H25585   1.200   6.219   1.740 -0.6919  3.5354 -1.2845
  190MOL0     H25586   1.092   6.159   1.621  0.6829 -0.5574  1.1696
  190MOL0     H25587   1.362   6.028   1.686 -1.5008  0.4724  5.2830
  190MOL0     H25588   1.261   6.005   1.534  0.6575 -0.5410 -0.7792
  190MOL0     H25589   1.087   5.915   1.638  1.1964 -0.0457 -2.2385
  190MOL0     H25590   1.129   5.990   1.798  2.0517  1.3275  0.4908
  190MOL0     H25591   1.268   5.763   1.655  1.6076 -0.9187  0.7956
  190MOL0     H25592   1.327   5.827   1.812 -2.5103  0.4149  3.8954
  190MOL0     H25593   1.144   5.752   1.922  1.6600  2.9342 -1.3032
  190MOL0     H25594   1.060   5.695   1.780  0.3232  0.2430  1.1254
  190MOL0     H25595   1.256   5.542   1.734  0.0941 -2.7707  0.4093
  190MOL0     H25596   1.326   5.586   1.889  1.3159 -2.6987 -1.0419
  190MOL0     H25597   1.060   5.454   1.839 -0.5637  2.2430 -0.9504
  190MOL0     H25598   1.127   5.519   2.001 -0.5760 -0.7314 -0.0624
  190MOL0     H25599   1.273   5.296   1.844  0.7976  3.3563 -1.7825
  190MOL0     H25600   1.296   5.369   1.998  1.0723  0.3310 -1.9672
  190MOL0     H25601   0.943   5.274   1.832  0.5019 -0.8459 -1.2800
  190MOL0     H25602   0.721   5.045   2.018 -0.3342 -1.1014 -0.1187
  190MOL0     H25603   0.741   5.169   1.905  1.4498  1.9965  3.1957
  190MOL0     H25604   0.899   4.997   1.764 -0.0370 -1.1936 -0.5266
  190MOL0     H25605   0.855   4.880   1.887  1.5237 -0.6582  0.7568
  190MOL0     H25606   0.726   4.881   1.664  0.9565 -0.5745  1.3718
  190MOL0     H25607   0.648   5.027   1.715 -1.6557 -0.3241  0.9345
  190MOL0     H25608   0.600   4.884   1.935 -1.3701  0.7390 -0.1002
  190MOL0     H25609   0.627   4.742   1.814 -0.6501  0.3707 -3.0717
  190MOL0     H25610   0.422   4.718   2.037  1.0277  2.2739 -0.2501
  190MOL0     H25611   0.249   4.553   2.059  1.9766  1.4974  0.6481
  190MOL0     H25612  -0.130   4.295   1.655  0.4131 -0.5360  0.9409
  190MOL0     H25613  -0.347   4.165   1.658 -1.6671 -0.3097  0.0767
  190MOL0     H25614  -0.638   4.348   1.895 -1.7292  0.8751 -2.4006
  190MOL0     H25615  -0.685   4.253   1.759  1.3159 -0.4886 -0.4748
  190MOL0     H25616  -0.712   4.145   2.032 -0.5100 -1.5983 -0.9003
  190MOL0     H25617  -0.832   4.254   1.953 -2.0202 -1.5126 -0.9769
  190MOL0     H25618  -0.721   3.993   1.804  0.4911  1.6715 -2.7311
  190MOL0     H25619  -0.835   3.984   1.945 -0.1800  3.2579  2.0098
  190MOL0     H25620  -0.920   4.167   1.710 -0.7775 -0.1138 -1.2231
  190MOL0     H25621  -1.005   4.037   1.784 -1.0365  1.0179 -1.6184
  190MOL0     H25622  -0.834   3.874   1.658 -0.9467  0.7308 -1.2875
  190MOL0     H25623  -0.805   4.018   1.568  0.3412 -2.2946 -1.3183
  190MOL0     H25624  -1.038   4.052   1.517  0.7681  0.7823  1.0232
  190MOL0     H25625  -0.939   3.924   1.452  1.2163 -1.0948  0.6827
  190MOL0     H25626  -1.107   3.842   1.694  1.2737  1.2595  0.5139
  190MOL0     H25627  -1.085   3.754   1.543  3.3039  0.3038  1.2711
  190MOL0     H25628  -1.255   4.000   1.547 -2.3465 -0.1432 -2.0588
  190MOL0     H25629  -1.212   3.907   1.405 -1.2106 -2.1755 -0.0684
  190MOL0     H25630  -0.455   4.350   2.023 -3.3568 -1.3634 -3.2365
  190MOL0     H25631  -0.273   4.515   1.996 -1.0157  1.2615 -2.1490
  190MOL0     H25632   0.038   4.708   1.708  0.1919 -1.0652 -0.8969
  190MOL0     H25633   0.228   4.841   1.670 -0.3778  1.7123  2.1293
  190MOL0     H25634   1.438   6.222   1.374 -1.8369  0.5604 -0.8465
  190MOL0     H25635   1.676   6.271   1.409  0.4926  3.4184 -0.5538
  190MOL0     H25636   1.999   6.306   1.966  1.1462 -1.3021 -0.7081
  190MOL0     H25637   2.211   6.346   2.012 -0.4688 -3.7917 -0.3652
  190MOL0     H25638   2.482   6.535   1.677 -0.4867  0.1055  1.0223
  190MOL0     H25639   2.510   6.362   1.679  0.0738 -0.6590 -1.5796
  190MOL0     H25640   2.691   6.520   1.709 -1.8242 -1.5736 -0.1754
  190MOL0     H25641   2.692   6.397   1.831 -0.1409  0.1902  2.1987
  190MOL0     H25642   2.614   6.682   1.863 -1.1196  0.7098  0.9891
  190MOL0     H25643   2.754   6.604   1.922 -0.2793  2.1524 -1.1084
  190MOL0     H25644   2.501   6.486   2.042 -0.5051  0.6814  2.4846
  190MOL0     H25645   2.653   6.487   2.109 -0.9943  3.9856  4.6357
  190MOL0     H25646   2.511   6.853   2.250  2.4960 -1.1173  2.4286
  190MOL0     H25647   2.296   6.430   1.595  0.9486 -1.8637  0.2896
  190MOL0     H25648   2.137   6.374   1.432 -0.7539  0.3352 -0.9331
  190MOL0     H25649   1.981   6.303   1.475  2.4255 -1.3620  1.5335
  190MOL0     H25650   2.009   6.484   1.473  0.4124  1.7415  0.7170
  191MOL0     O25651   3.424   4.172   5.700 -0.7812 -0.3703  0.4535
  191MOL0     C25652   3.548   4.206   5.684  0.0333  0.0339 -0.0946
  191MOL0     O25653   3.608   4.311   5.744 -0.2965 -0.9450 -0.0144
  191MOL0     C25654   3.544   4.356   5.850 -0.3791  1.0963 -0.6123
  191MOL0     C25655   3.462   4.471   5.850  0.5518  0.2124  0.1211
  191MOL0     C25656   3.401   4.516   5.970 -0.6273  0.5376  0.4896
  191MOL0     C25657   3.448   4.463   6.092 -0.3979 -0.0884  0.0205
  191MOL0     O25658   3.403   4.513   6.211  0.2040 -0.2635 -0.1525
  191MOL0     C25659   3.492   4.535   6.316 -0.1933 -0.1825  0.1653
  191MOL0     C25660   3.419   4.504   6.451 -0.4939 -0.3087  0.0048
  191MOL0     C25661   3.418   4.351   6.491  0.3745  0.5157  0.3781
  191MOL0     C25662   3.528   4.306   6.593 -1.2267 -0.2171 -0.3274
  191MOL0     C25663   3.495   4.172   6.660  0.1308 -0.6742 -0.2436
  191MOL0     C25664   3.601   4.120   6.757 -0.4072  0.9392  0.4725
  191MOL0     C25665   3.561   3.984   6.801 -0.0471  0.6618 -0.4229
  191MOL0     C25666   3.653   3.932   6.909  0.4404  0.8092  0.0499
  191MOL0     N25667   3.751   3.838   6.848 -0.7645  0.5889 -0.1765
  191MOL0     C25668   3.762   3.696   6.881  0.2161 -0.9271  0.0385
  191MOL0     C25669   3.876   3.656   6.815  0.3385  0.3340  0.1212
  191MOL0     C25670   3.957   3.520   6.823 -0.5362  0.2975  0.4062
  191MOL0     C25671   4.003   3.460   6.960  0.2171  0.1327 -0.7928
  191MOL0     C25672   4.043   3.572   7.061  0.1388  0.0334 -0.1802
  191MOL0     C25673   4.156   3.660   7.020 -0.3693 -0.6556  0.6547
  191MOL0     O25674   4.148   3.782   7.091 -0.0835 -0.4144  0.5451
  191MOL0     C25675   4.227   3.879   7.040 -0.2562  0.3002 -0.8303
  191MOL0     C25676   4.184   4.001   7.086  0.5582 -0.3238  0.1296
  191MOL0     C25677   4.260   4.120   7.060 -0.5389 -0.5699 -0.0722
  191MOL0     C25678   4.374   4.114   6.981 -0.7309  0.2273 -0.4961
  191MOL0     C25679   4.461   4.234   6.954 -0.9292  0.0787  1.0184
  191MOL0     O25680   4.556   4.229   6.847 -0.4870 -0.0016 -0.1412
  191MOL0     C25681   4.639   4.335   6.831  0.6100 -0.3100 -0.1995
  191MOL0     C25682   4.778   4.315   6.805  0.4593 -0.3621  0.4480
  191MOL0     C25683   4.866   4.424   6.783 -0.2154  0.0728  0.0052
  191MOL0     C25684   4.808   4.553   6.767  0.2202 -0.0074  0.0698
  191MOL0     O25685   4.883   4.658   6.720  0.2906 -0.5294 -0.0521
  191MOL0     C25686   4.954   4.632   6.602 -0.9510 -0.4670 -0.3104
  191MOL0     C25687   4.933   4.745   6.503  0.2839  0.0278  0.0762
  191MOL0     C25688   4.996   4.710   6.373 -0.9616 -0.6599  0.7921
  191MOL0     C25689   4.895   4.628   6.279 -0.1882 -1.1252 -0.8852
  191MOL0     C25690   4.945   4.610   6.133  0.4733 -0.9549 -0.3877
  191MOL0     C25691   4.880   4.490   6.068  0.6839 -0.3824  0.9920
  191MOL0     C25692   4.993   4.417   5.984 -0.0911 -0.5422 -0.2953
  191MOL0     C25693   4.945   4.308   5.886  0.0155 -0.9038 -0.2605
  191MOL0    Cl25694   4.842   4.361   5.751  0.0131 -0.2256 -0.4158
  191MOL0     C25695   4.672   4.572   6.790  0.0754 -0.5877 -0.0107
  191MOL0     C25696   4.591   4.475   6.819  0.4961  0.5747 -0.1646
  191MOL0     O25697   4.429   4.334   7.013  0.1699 -0.2706 -0.1686
  191MOL0     C25698   4.410   3.988   6.926 -0.5611  0.2586 -0.8298
  191MOL0     C25699   4.342   3.872   6.960 -0.1937  0.0151  0.0301
  191MOL0     N25700   3.930   3.762   6.740 -0.3571  0.1689  0.9605
  191MOL0     N25701   3.857   3.873   6.759 -0.3668 -0.0477  0.1961
  191MOL0     C25702   3.521   4.348   6.090 -0.1421 -0.3062 -0.4319
  191MOL0     C25703   3.577   4.301   5.976 -0.9782  0.3581  0.6498
  191MOL0     C25704   3.646   4.134   5.591 -0.3206  0.3365  0.3350
  191MOL0     C25705   3.774   4.129   5.632  0.3597 -1.1523 -0.4839
  191MOL0     C25706   3.866   4.065   5.551  0.2591  0.3342 -0.2057
  191MOL0     C25707   3.833   4.007   5.427  0.3771 -0.0681 -0.6362
  191MOL0     O25708   3.937   3.948   5.368  0.1978  0.0872  0.7775
  191MOL0     C25709   3.935   3.922   5.228  0.3767  0.7197 -0.4215
  191MOL0     C25710   3.875   3.785   5.202 -0.0735 -0.1937  0.7253
  191MOL0     C25711   3.956   3.662   5.251 -0.1160 -0.4688  0.1156
  191MOL0     C25712   3.858   3.543   5.248  0.1210 -0.3403  0.4589
  191MOL0     C25713   3.919   3.425   5.306 -0.0012  0.1033  1.0566
  191MOL0     C25714   3.968   3.322   5.347  0.8406 -0.6749  0.0688
  191MOL0     C25715   3.693   3.998   5.397 -0.3900 -0.5804  0.8469
  191MOL0     C25716   3.599   4.060   5.481 -0.9984 -1.4587  0.2180
  191MOL0     C25717   3.453   4.063   5.437 -0.1119 -0.2735 -0.1774
  191MOL0     H25718   3.448   4.519   5.754 -1.3668  2.1234  1.2510
  191MOL0     H25719   3.351   4.613   5.972 -0.6335  0.5626 -0.4700
  191MOL0     H25720   3.586   4.481   6.303 -1.4229 -2.7272  1.1079
  191MOL0     H25721   3.514   4.641   6.308  1.3346 -0.5266 -0.5595
  191MOL0     H25722   3.313   4.531   6.441 -0.2054  2.1104  2.3624
  191MOL0     H25723   3.456   4.571   6.529  1.3162 -0.0403 -1.0334
  191MOL0     H25724   3.413   4.291   6.400 -4.1783  1.5591 -0.3274
  191MOL0     H25725   3.323   4.340   6.545 -0.8853  0.5534 -1.7138
  191MOL0     H25726   3.627   4.298   6.546  0.5227  3.6579  2.1815
  191MOL0     H25727   3.540   4.380   6.672  0.7518 -0.6668 -0.1447
  191MOL0     H25728   3.401   4.182   6.716  0.7462 -1.2210  0.9400
  191MOL0     H25729   3.471   4.106   6.576 -0.7200 -0.4648 -0.1819
  191MOL0     H25730   3.694   4.093   6.706  0.1931  0.0445  1.9632
  191MOL0     H25731   3.613   4.174   6.851  0.1102  0.5610  0.6250
  191MOL0     H25732   3.564   3.923   6.710 -2.7944 -0.4434  0.1146
  191MOL0     H25733   3.456   3.982   6.833  0.3528  0.3465  0.9318
  191MOL0     H25734   3.708   4.007   6.965  1.8007  1.2893 -1.8091
  191MOL0     H25735   3.602   3.864   6.978  2.8315 -0.6388  0.4944
  191MOL0     H25736   3.710   3.639   6.957 -0.1353  1.6215  1.8073
  191MOL0     H25737   3.898   3.450   6.763  1.7455 -1.5790  0.2239
  191MOL0     H25738   4.046   3.529   6.760  2.2211 -4.3680  3.0990
  191MOL0     H25739   3.922   3.399   7.001 -0.4297  0.5386 -1.4593
  191MOL0     H25740   4.097   3.404   6.964  0.3294  0.3790  0.6731
  191MOL0     H25741   4.079   3.522   7.152 -0.0063  1.5635  0.7585
  191MOL0     H25742   3.951   3.619   7.098 -0.2551 -2.1517  1.8562
  191MOL0     H25743   4.164   3.675   6.912  1.8712  0.8748  0.9665
  191MOL0     H25744   4.246   3.607   7.055 -0.8217 -0.2095  2.6590
  191MOL0     H25745   4.093   4.007   7.144 -1.3545  0.1399 -2.7525
  191MOL0     H25746   4.228   4.208   7.114 -0.6238 -0.0187 -1.0063
  191MOL0     H25747   4.817   4.214   6.812  0.3932 -0.7025 -2.6293
  191MOL0     H25748   4.971   4.398   6.767  0.3918  2.5874 -0.5791
  191MOL0     H25749   5.060   4.621   6.624 -0.0726  2.0463 -2.6360
  191MOL0     H25750   4.916   4.538   6.562  0.1761 -2.8834  3.7261
  191MOL0     H25751   4.824   4.751   6.491  0.2768  2.3767  0.8387
  191MOL0     H25752   4.967   4.839   6.547 -1.6233  0.9512 -0.3324
  191MOL0     H25753   5.027   4.804   6.327 -1.1287 -0.3129  1.3687
  191MOL0     H25754   5.087   4.654   6.398 -0.5531 -0.1194  0.5319
  191MOL0     H25755   4.795   4.672   6.282  0.2342 -0.1163 -1.0614
  191MOL0     H25756   4.885   4.531   6.328 -1.3705  0.0628  1.3922
  191MOL0     H25757   5.052   4.593   6.151  0.4222 -1.6634 -0.7457
  191MOL0     H25758   4.922   4.702   6.079 -1.3638 -0.3456  1.3159
  191MOL0     H25759   4.834   4.435   6.150 -2.1523  2.2757  1.3674
  191MOL0     H25760   4.800   4.526   6.002  3.3587  2.0994 -1.2075
  191MOL0     H25761   5.058   4.374   6.060  0.5851 -2.4871 -1.8760
  191MOL0     H25762   5.064   4.477   5.926 -1.4424  0.4875 -0.9557
  191MOL0     H25763   5.026   4.251   5.839  2.3437  2.1552 -0.2486
  191MOL0     H25764   4.883   4.235   5.940 -0.6340 -0.6075 -0.6016
  191MOL0     H25765   4.625   4.669   6.775 -2.4814 -1.6529  0.5955
  191MOL0     H25766   4.488   4.495   6.845  0.3063 -3.5806  3.4678
  191MOL0     H25767   4.502   3.980   6.868 -0.8833 -2.3433 -1.1083
  191MOL0     H25768   4.381   3.777   6.926 -1.6602 -1.4587  2.1837
  191MOL0     H25769   3.549   4.302   6.184 -0.1232  0.2612 -0.1555
  191MOL0     H25770   3.643   4.216   5.970 -1.2151  0.2411 -3.7550
  191MOL0     H25771   3.792   4.166   5.732 -0.7978  1.2616 -1.1047
  191MOL0     H25772   3.966   4.053   5.590  0.5261 -0.1983 -1.0511
  191MOL0     H25773   4.040   3.907   5.198  0.4677 -0.4780  0.4641
  191MOL0     H25774   3.895   3.999   5.160  2.0228  0.3016 -1.9505
  191MOL0     H25775   3.854   3.757   5.099 -2.0683 -1.5057  1.4332
  191MOL0     H25776   3.774   3.780   5.243 -0.7906 -1.9224 -1.0878
  191MOL0     H25777   3.992   3.672   5.354 -0.1278  0.0578  0.0735
  191MOL0     H25778   4.050   3.641   5.198 -1.0174  0.2685 -1.8828
  191MOL0     H25779   3.776   3.567   5.318  2.2318  0.9307  2.6736
  191MOL0     H25780   3.818   3.532   5.147  2.7421 -0.5302 -0.6156
  191MOL0     H25781   4.021   3.234   5.378  2.2347  0.4614  1.0709
  191MOL0     H25782   3.650   3.945   5.312 -1.1869  0.0302  0.8506
  191MOL0     H25783   3.388   3.994   5.492 -0.5917  1.0836  1.0397
  191MOL0     H25784   3.406   4.158   5.465 -3.7778 -2.2264  0.9979
  191MOL0     H25785   3.437   4.040   5.331 -1.2480 -3.6898  0.6194
  192MOL0     O25786   0.392   6.535  10.992 -0.1944  0.0386  0.2972
  192MOL0     C25787   0.319   6.581  11.077 -0.4779  0.2754  0.4980
  192MOL0     O25788   0.209   6.516  11.128 -0.2431  0.5297 -0.3281
  192MOL0     C25789   0.189   6.395  11.068 -0.2119 -0.0421  0.1776
  192MOL0     C25790   0.191   6.364  10.927 -1.1490  0.1447  0.2164
  192MOL0     C25791   0.143   6.240  10.885 -0.5659  0.6658  0.1742
  192MOL0     C25792   0.093   6.143  10.974 -0.1860 -0.8575  0.1715
  192MOL0     O25793   0.048   6.024  10.924 -0.1720 -0.9575 -0.0797
  192MOL0     C25794   0.144   5.927  10.879 -0.2897  0.2215  0.1175
  192MOL0     C25795   0.159   5.932  10.726 -0.3704  0.6243 -0.4075
  192MOL0     C25796   0.269   5.848  10.662  0.1070  0.8694 -0.0939
  192MOL0     C25797   0.251   5.844  10.508 -0.5600 -0.2658  0.1302
  192MOL0     C25798   0.380   5.781  10.439  0.9875  0.3484 -0.2043
  192MOL0     C25799   0.366   5.779  10.290 -0.1457 -0.5925  0.4541
  192MOL0     C25800   0.255   5.675  10.235  0.4263  0.1407 -0.6498
  192MOL0     C25801   0.220   5.699  10.094  0.1465 -0.6212 -0.4498
  192MOL0     N25802   0.132   5.597  10.032 -0.4779  2.4176 -0.3110
  192MOL0     C25803   0.171   5.467  10.011  1.0731 -0.0034 -1.1101
  192MOL0     C25804   0.048   5.405   9.972  0.1692 -1.2999 -0.0848
  192MOL0     C25805   0.038   5.256   9.950 -0.7064 -0.7177 -0.2272
  192MOL0     C25806   0.094   5.221   9.810  1.1205 -0.9117  0.5316
  192MOL0     C25807  -0.015   5.211   9.698 -0.6842  0.3550 -0.1670
  192MOL0     C25808   0.036   5.142   9.571  0.0488  0.2527 -0.5439
  192MOL0     O25809   0.151   5.212   9.531  0.6056 -0.6126 -0.1083
  192MOL0     C25810   0.232   5.173   9.431  0.1701 -0.5398 -0.1819
  192MOL0     C25811   0.348   5.239   9.406 -0.2026 -0.4472  0.2050
  192MOL0     C25812   0.440   5.182   9.312 -0.2602  0.3401  0.1768
  192MOL0     C25813   0.405   5.083   9.222 -0.3597  0.3772  0.7115
  192MOL0     C25814   0.490   5.017   9.116  0.3108  0.1731  0.3464
  192MOL0     O25815   0.619   5.047   9.117  0.4181 -0.0655  0.0282
  192MOL0     C25816   0.701   4.998   9.012 -0.2648  0.7809 -0.1072
  192MOL0     C25817   0.832   4.973   9.024  0.2180 -0.2521 -0.5961
  192MOL0     C25818   0.915   4.924   8.920  0.3444 -0.2479  0.4385
  192MOL0     C25819   0.860   4.893   8.793 -0.2728  0.2665 -0.4672
  192MOL0     O25820   0.929   4.831   8.693 -0.3393  0.1511 -0.2021
  192MOL0     C25821   1.039   4.757   8.729  0.3291  0.5781 -0.6365
  192MOL0     C25822   1.072   4.676   8.605 -1.1570 -0.7465 -0.9681
  192MOL0     C25823   1.167   4.563   8.625 -0.8371 -0.1089  0.2516
  192MOL0     C25824   1.318   4.605   8.628  0.4596  0.0884  0.5386
  192MOL0     C25825   1.409   4.485   8.647 -0.0908  0.6003  0.0120
  192MOL0     C25826   1.545   4.512   8.713 -0.3801  0.6429  0.4155
  192MOL0     C25827   1.636   4.399   8.705 -0.7174  0.3232 -0.3839
  192MOL0     C25828   1.749   4.402   8.803 -0.7652 -0.4531  0.7044
  192MOL0    Cl25829   1.818   4.562   8.796 -0.1721  0.0434  0.0926
  192MOL0     C25830   0.728   4.914   8.776  0.0549 -0.8147  0.2261
  192MOL0     C25831   0.659   4.976   8.876 -0.0868  0.2795 -0.1980
  192MOL0     O25832   0.428   4.947   9.033 -0.2344  0.4543  0.2017
  192MOL0     C25833   0.281   5.020   9.247  0.0010 -0.3602 -0.1659
  192MOL0     C25834   0.196   5.077   9.343  0.0302  0.3795 -0.8938
  192MOL0     N25835  -0.060   5.500   9.992 -0.2043 -0.2332  0.5906
  192MOL0     N25836  -0.002   5.614  10.019  0.0242  0.9192 -0.3691
  192MOL0     C25837   0.083   6.184  11.113 -0.3008 -0.7418  0.0968
  192MOL0     C25838   0.142   6.300  11.163 -0.7685  0.0658 -0.2890
  192MOL0     C25839   0.358   6.719  11.120  0.8857  0.2444 -0.4600
  192MOL0     C25840   0.365   6.829  11.032  0.2338  0.1785 -0.1985
  192MOL0     C25841   0.396   6.958  11.068  0.1603 -0.2804  0.2103
  192MOL0     C25842   0.403   6.992  11.205  0.6845 -0.2226 -0.5069
  192MOL0     O25843   0.423   7.128  11.248 -0.0911  0.1051  0.5947
  192MOL0     C25844   0.350   7.169  11.366  0.3163  0.2688 -0.3414
  192MOL0     C25845   0.384   7.324  11.365  0.3791 -0.3993  0.7939
  192MOL0     C25846   0.365   7.391  11.500 -0.0497 -0.2127 -0.6707
  192MOL0     C25847   0.403   7.542  11.492  0.2127 -0.3135 -0.2931
  192MOL0     C25848   0.460   7.596  11.619 -0.0216 -0.0189  0.9924
  192MOL0     C25849   0.496   7.658  11.717  0.1194 -0.4726  0.4861
  192MOL0     C25850   0.393   6.884  11.294 -0.2043 -0.3602 -1.0325
  192MOL0     C25851   0.370   6.751  11.261  0.1415  0.7057  0.0037
  192MOL0     C25852   0.395   6.640  11.367  0.1702 -0.7768 -0.6109
  192MOL0     H25853   0.217   6.444  10.858 -3.2321  0.3560 -0.4093
  192MOL0     H25854   0.161   6.211  10.782 -1.4417  0.7793 -0.0202
  192MOL0     H25855   0.237   5.943  10.935 -0.6277 -0.8920  1.0428
  192MOL0     H25856   0.100   5.829  10.903 -1.7132  1.4486  3.0659
  192MOL0     H25857   0.160   6.033  10.685 -0.1695 -0.2676 -2.7128
  192MOL0     H25858   0.064   5.893  10.687 -0.0806  0.0343 -0.5268
  192MOL0     H25859   0.267   5.743  10.693 -0.0971  1.5343  2.3270
  192MOL0     H25860   0.357   5.901  10.701 -1.7249  1.2351  4.0435
  192MOL0     H25861   0.166   5.780  10.484 -0.9090  1.0482 -2.5247
  192MOL0     H25862   0.231   5.946  10.474  0.2571 -0.0357  0.3078
  192MOL0     H25863   0.472   5.835  10.465  1.8512 -1.5462  0.9806
  192MOL0     H25864   0.404   5.681  10.477 -4.6570 -0.6545  1.6963
  192MOL0     H25865   0.337   5.879  10.258 -0.9040 -0.4528  1.5082
  192MOL0     H25866   0.465   5.762  10.247  0.6857  0.7691  1.7250
  192MOL0     H25867   0.163   5.690  10.293  1.1940  0.3640  0.5434
  192MOL0     H25868   0.294   5.575  10.256  3.2330  1.1254 -0.7860
  192MOL0     H25869   0.163   5.793  10.096 -0.4064 -0.9108  2.4287
  192MOL0     H25870   0.316   5.705  10.042  2.9227  0.8983  4.1496
  192MOL0     H25871   0.268   5.429  10.042  0.0922 -2.4831 -0.8161
  192MOL0     H25872   0.085   5.204  10.033 -1.6134  1.9751  2.1551
  192MOL0     H25873  -0.068   5.229   9.957 -0.2290 -2.3531  1.6196
  192MOL0     H25874   0.165   5.296   9.776  0.5966 -1.2938 -1.5769
  192MOL0     H25875   0.145   5.124   9.814 -0.2166 -1.7890 -1.5006
  192MOL0     H25876  -0.039   5.311   9.663  2.7632  0.9545 -1.2310
  192MOL0     H25877  -0.102   5.157   9.735 -0.1870  1.2802  2.5313
  192MOL0     H25878  -0.044   5.146   9.496  0.4792  0.7360 -0.9936
  192MOL0     H25879   0.056   5.035   9.580  0.2499  0.1607 -1.7988
  192MOL0     H25880   0.376   5.332   9.454  0.1813  1.5435 -3.4816
  192MOL0     H25881   0.544   5.214   9.305  0.0238 -0.0969  2.0439
  192MOL0     H25882   0.893   4.994   9.112  0.0602  1.1557 -0.7876
  192MOL0     H25883   1.018   4.913   8.954 -0.4388 -1.1420  2.6851
  192MOL0     H25884   1.119   4.820   8.768  0.5581  0.4967 -0.9664
  192MOL0     H25885   1.026   4.690   8.814  0.3123 -0.7847 -1.6799
  192MOL0     H25886   0.982   4.631   8.562 -3.4249  1.0217  1.5966
  192MOL0     H25887   1.118   4.740   8.529  1.7274 -1.1992  0.2696
  192MOL0     H25888   1.139   4.516   8.720 -2.9927 -0.4155 -0.5031
  192MOL0     H25889   1.145   4.486   8.551 -1.0131  1.9265 -1.9438
  192MOL0     H25890   1.323   4.680   8.708 -0.6618 -1.1183  1.7785
  192MOL0     H25891   1.354   4.652   8.536  3.3720 -1.2274  0.8694
  192MOL0     H25892   1.429   4.442   8.549 -4.7760 -1.3481 -0.3037
  192MOL0     H25893   1.348   4.412   8.700 -0.3323 -0.9569 -2.2815
  192MOL0     H25894   1.586   4.594   8.653 -0.9270 -0.2479 -1.2449
  192MOL0     H25895   1.526   4.533   8.819 -1.2782 -2.8786  1.0649
  192MOL0     H25896   1.682   4.393   8.605  0.2564 -1.5143  0.1252
  192MOL0     H25897   1.574   4.310   8.714 -0.3062 -0.1606 -1.9065
  192MOL0     H25898   1.721   4.386   8.908 -0.3883  4.1553  1.7432
  192MOL0     H25899   1.826   4.331   8.771  3.2835  2.0550  3.7849
  192MOL0     H25900   0.674   4.896   8.684 -1.7147 -3.6287  1.7120
  192MOL0     H25901   0.561   4.999   8.835  1.1867  1.2395 -2.9445
  192MOL0     H25902   0.250   4.935   9.187 -0.6243  0.4234 -0.9892
  192MOL0     H25903   0.100   5.025   9.348  0.4033 -0.4502 -1.9343
  192MOL0     H25904   0.031   6.123  11.187 -0.7173  2.9432  3.1538
  192MOL0     H25905   0.130   6.326  11.268  0.4715  0.0693 -0.1321
  192MOL0     H25906   0.378   6.799  10.928  0.5829  0.0735 -0.1258
  192MOL0     H25907   0.419   7.021  10.983  0.4521  0.8138  1.0718
  192MOL0     H25908   0.379   7.124  11.462  0.0267  3.3880  1.3581
  192MOL0     H25909   0.245   7.148  11.344  1.0781 -1.4609 -2.5659
  192MOL0     H25910   0.302   7.363  11.304  1.6287  0.1637 -0.5792
  192MOL0     H25911   0.477   7.350  11.313  0.7312 -0.3165  1.4474
  192MOL0     H25912   0.436   7.348  11.571  0.6509 -0.1141 -1.2909
  192MOL0     H25913   0.266   7.363  11.536  0.8831 -2.6071  0.2242
  192MOL0     H25914   0.453   7.560  11.397 -0.3162  0.8555 -0.3716
  192MOL0     H25915   0.313   7.605  11.488  2.0208  2.4196 -0.5677
  192MOL0     H25916   0.520   7.713  11.805 -4.1340 -1.0743  2.2428
  192MOL0     H25917   0.405   6.903  11.400 -3.8587 -1.8418 -0.1768
  192MOL0     H25918   0.463   6.671  11.446 -1.5184  0.3817  0.4736
  192MOL0     H25919   0.304   6.607  11.418  1.6156 -2.8970  0.7198
  192MOL0     H25920   0.439   6.545  11.337  1.8482 -0.7608  1.6228
  193MOL0     O25921   1.950   3.296   8.654  0.1584 -0.4797 -0.6025
  193MOL0     C25922   2.073   3.312   8.645 -0.1160 -0.0383  1.7731
  193MOL0     O25923   2.149   3.256   8.544 -0.0153  0.3944 -0.9104
  193MOL0     C25924   2.101   3.155   8.462 -0.0918 -0.0262  0.2911
  193MOL0     C25925   2.215   3.101   8.388 -1.0908 -0.3356 -0.8900
  193MOL0     C25926   2.184   2.999   8.296  0.6312 -0.2944  0.4281
  193MOL0     C25927   2.051   2.966   8.263 -0.9074 -0.8030 -0.2417
  193MOL0     O25928   2.016   2.885   8.161  0.0740 -0.1226 -0.6625
  193MOL0     C25929   2.032   2.746   8.199 -0.3129 -1.1296  0.1331
  193MOL0     C25930   1.911   2.663   8.142  0.1561  0.0719  0.2159
  193MOL0     C25931   1.869   2.703   8.001  1.1464  0.0114  0.4857
  193MOL0     C25932   1.738   2.633   7.949 -0.1267 -1.1417  0.0871
  193MOL0     C25933   1.717   2.650   7.795 -0.2188 -0.0701  0.2506
  193MOL0     C25934   1.828   2.583   7.706  1.0223  0.1044 -0.6781
  193MOL0     C25935   1.841   2.429   7.747  1.0548 -0.2397 -0.3338
  193MOL0     C25936   1.949   2.349   7.671 -1.3755 -0.4475  0.2547
  193MOL0     N25937   1.926   2.292   7.541  0.6101 -0.1640 -0.1596
  193MOL0     C25938   2.021   2.291   7.445  0.4188  0.1239  1.5943
  193MOL0     C25939   1.940   2.285   7.329  0.5779  1.5407  0.3837
  193MOL0     C25940   1.999   2.261   7.195  1.3576  0.4920 -0.0703
  193MOL0     C25941   1.971   2.122   7.138  0.6280  0.6418  1.0114
  193MOL0     C25942   2.042   2.007   7.218  0.5464  0.5904  0.5614
  193MOL0     C25943   2.022   1.873   7.144  0.8586 -0.4857 -0.0127
  193MOL0     O25944   2.089   1.876   7.013  0.0142  0.3880  0.0584
  193MOL0     C25945   2.219   1.837   7.003  1.7106  0.6103 -0.2390
  193MOL0     C25946   2.264   1.789   6.879 -0.0015 -0.4767 -0.1942
  193MOL0     C25947   2.397   1.744   6.863 -1.1934  0.1494 -0.3884
  193MOL0     C25948   2.481   1.737   6.975 -0.2256  0.9544  0.9395
  193MOL0     C25949   2.612   1.669   6.948  0.9455  0.3907  0.6915
  193MOL0     O25950   2.646   1.630   6.825  0.0555  0.8161 -0.4991
  193MOL0     C25951   2.709   1.523   6.802  0.0518  0.7802 -0.1057
  193MOL0     C25952   2.640   1.429   6.723 -0.3423 -0.3143  0.6357
  193MOL0     C25953   2.696   1.305   6.679 -1.0932 -0.4404 -0.6521
  193MOL0     C25954   2.827   1.282   6.715 -0.7480 -0.0326 -0.1897
  193MOL0     O25955   2.894   1.160   6.686  0.1884  0.7356  0.9399
  193MOL0     C25956   3.036   1.165   6.654  0.1632 -0.1648  0.1167
  193MOL0     C25957   3.081   1.054   6.553 -0.4386 -0.4764  0.5736
  193MOL0     C25958   3.225   1.072   6.517  1.1193 -0.3919 -0.7578
  193MOL0     C25959   3.270   1.027   6.374  0.2666  0.7329  0.3105
  193MOL0     C25960   3.404   1.095   6.344  0.0792  0.1402 -0.0689
  193MOL0     C25961   3.513   1.069   6.450 -0.4570  0.5849 -0.4255
  193MOL0     C25962   3.538   0.918   6.460  0.2586  0.3819 -0.2514
  193MOL0     C25963   3.667   0.895   6.547 -0.6553 -0.3850 -0.1848
  193MOL0    Cl25964   3.685   0.715   6.566  0.1214  0.7576 -0.1209
  193MOL0     C25965   2.900   1.379   6.795  0.3652  0.0602  1.1281
  193MOL0     C25966   2.843   1.494   6.844 -0.1471 -0.2088  0.4075
  193MOL0     O25967   2.675   1.653   7.052  0.3418 -0.3552 -0.4852
  193MOL0     C25968   2.435   1.781   7.099  0.3124 -1.0638 -0.5428
  193MOL0     C25969   2.302   1.823   7.106 -0.3814  0.4319 -0.2123
  193MOL0     N25970   1.805   2.289   7.357 -0.2782  0.6190 -0.4330
  193MOL0     N25971   1.803   2.292   7.490 -0.7413  0.4657  0.7442
  193MOL0     C25972   1.942   3.033   8.324  0.3419 -0.2943 -0.1144
  193MOL0     C25973   1.963   3.125   8.426 -0.6232  0.4434  0.0534
  193MOL0     C25974   2.141   3.387   8.756 -0.5837 -0.6479  0.8305
  193MOL0     C25975   2.085   3.510   8.792 -0.3150 -0.1981 -0.6247
  193MOL0     C25976   2.155   3.586   8.890  0.4832  0.4818  0.4830
  193MOL0     C25977   2.267   3.543   8.963  0.1285 -0.0642  0.9952
  193MOL0     O25978   2.331   3.619   9.064  0.0344  0.1730  0.5052
  193MOL0     C25979   2.271   3.728   9.136 -0.4462 -0.5155  0.0309
  193MOL0     C25980   2.334   3.735   9.281  0.7140 -0.2291 -0.5754
  193MOL0     C25981   2.478   3.726   9.292 -1.1229 -0.5277 -0.0405
  193MOL0     C25982   2.528   3.735   9.438 -0.1885  0.8355 -0.3799
  193MOL0     C25983   2.465   3.640   9.530 -0.0334 -0.0657  0.4211
  193MOL0     C25984   2.413   3.573   9.619 -0.0047 -0.2063 -0.1905
  193MOL0     C25985   2.329   3.419   8.919  0.8470  0.9796  0.0010
  193MOL0     C25986   2.266   3.339   8.813 -1.6669 -0.3767  0.2352
  193MOL0     C25987   2.339   3.225   8.754 -0.0490  0.0864  1.2611
  193MOL0     H25988   2.316   3.130   8.416 -2.0156  2.5205 -0.1307
  193MOL0     H25989   2.256   2.937   8.244  0.4489  1.2627 -1.8160
  193MOL0     H25990   2.118   2.708   8.143  1.1931 -0.1139  1.6486
  193MOL0     H25991   2.061   2.709   8.298  4.0537  2.2815  0.4414
  193MOL0     H25992   1.820   2.682   8.200  0.6887  1.1127  0.7470
  193MOL0     H25993   1.923   2.555   8.153 -4.6233 -0.5317  1.8072
  193MOL0     H25994   1.948   2.658   7.941 -0.7675 -5.1252  1.2803
  193MOL0     H25995   1.859   2.810   7.980 -0.2170 -0.7079 -3.4083
  193MOL0     H25996   1.710   2.531   7.974  0.4519 -0.5509  3.7654
  193MOL0     H25997   1.658   2.689   7.999  0.1385  1.0482 -1.7430
  193MOL0     H25998   1.623   2.602   7.769 -1.4620  2.3366  0.0530
  193MOL0     H25999   1.712   2.755   7.765 -0.1086 -0.3276 -0.7162
  193MOL0     H26000   1.789   2.574   7.605 -1.7494 -3.9505  0.5046
  193MOL0     H26001   1.922   2.635   7.728 -0.1988  1.0961  2.8176
  193MOL0     H26002   1.743   2.385   7.725 -1.2794  4.0391  0.3149
  193MOL0     H26003   1.852   2.424   7.856  1.6488  1.1501 -0.3113
  193MOL0     H26004   2.037   2.414   7.669 -1.1123 -0.6766  2.2391
  193MOL0     H26005   1.961   2.271   7.747 -1.5953 -0.9968 -0.2703
  193MOL0     H26006   2.129   2.301   7.449  0.5378  1.4038 -1.7008
  193MOL0     H26007   1.954   2.336   7.129 -0.3737  0.6033  1.1883
  193MOL0     H26008   2.107   2.275   7.187  1.2625  0.2317 -2.4031
  193MOL0     H26009   1.861   2.116   7.137  0.5518  1.0970  2.7436
  193MOL0     H26010   1.998   2.108   7.033  0.8619  0.1167  1.1383
  193MOL0     H26011   2.004   1.996   7.320 -1.7382 -1.9315 -0.4219
  193MOL0     H26012   2.147   2.036   7.222  1.3407 -2.1267  3.3910
  193MOL0     H26013   1.914   1.872   7.129  0.5541  2.7889  1.2389
  193MOL0     H26014   2.033   1.788   7.213 -0.6580 -2.2420 -1.8112
  193MOL0     H26015   2.215   1.786   6.782  0.3101  2.0274 -0.5071
  193MOL0     H26016   2.433   1.687   6.778 -1.0694  0.2306 -0.3906
  193MOL0     H26017   2.538   1.446   6.690 -0.4149 -0.2714  0.8809
  193MOL0     H26018   2.640   1.229   6.626 -2.1082  0.1128 -0.4170
  193MOL0     H26019   3.044   1.263   6.604 -3.8194 -0.9060 -2.4263
  193MOL0     H26020   3.090   1.159   6.749 -1.8738 -0.4226  1.3157
  193MOL0     H26021   3.053   0.962   6.606 -1.6621 -0.5268 -0.1349
  193MOL0     H26022   3.018   1.053   6.464  0.7202  2.8343 -0.4282
  193MOL0     H26023   3.255   1.177   6.520  1.2429 -0.2669 -3.6775
  193MOL0     H26024   3.280   1.026   6.600 -0.7862 -2.1496 -0.3893
  193MOL0     H26025   3.198   1.074   6.306  0.1331  1.0865  0.6964
  193MOL0     H26026   3.297   0.922   6.362  2.7546  1.5039 -1.9582
  193MOL0     H26027   3.397   1.204   6.333  2.4058  0.2928 -0.6543
  193MOL0     H26028   3.434   1.063   6.244 -2.6701  2.0765 -1.6730
  193MOL0     H26029   3.608   1.115   6.421  0.5335  0.0610  1.8114
  193MOL0     H26030   3.480   1.115   6.543 -1.6649 -0.5164 -0.2813
  193MOL0     H26031   3.540   0.883   6.356 -3.0573  3.3868 -1.5514
  193MOL0     H26032   3.450   0.885   6.516 -1.6998  4.0845 -0.7683
  193MOL0     H26033   3.744   0.933   6.479 -1.0367 -1.4200 -1.2361
  193MOL0     H26034   3.661   0.938   6.647  0.7233 -5.1548  2.2469
  193MOL0     H26035   3.007   1.376   6.813  0.6541 -0.9055 -0.5519
  193MOL0     H26036   2.898   1.565   6.905 -0.7722 -0.0071  0.7411
  193MOL0     H26037   2.498   1.783   7.188 -2.5100 -0.0752  1.6007
  193MOL0     H26038   2.277   1.843   7.210 -1.0041 -1.2353 -0.0187
  193MOL0     H26039   1.843   3.024   8.282 -0.4468 -0.9123  1.7481
  193MOL0     H26040   1.881   3.161   8.487  0.8298 -1.1353  3.1677
  193MOL0     H26041   2.002   3.542   8.730  0.5888  1.4502 -1.0320
  193MOL0     H26042   2.108   3.681   8.913 -1.4668  0.2275 -2.0349
  193MOL0     H26043   2.162   3.730   9.129 -0.3456  1.4512 -2.3845
  193MOL0     H26044   2.301   3.820   9.086 -1.7939 -1.2995 -2.3598
  193MOL0     H26045   2.289   3.658   9.345  0.4958 -0.8475 -1.4549
  193MOL0     H26046   2.298   3.825   9.331 -3.1696 -2.1549  0.5578
  193MOL0     H26047   2.531   3.796   9.226 -4.0418  2.1207  0.1927
  193MOL0     H26048   2.512   3.630   9.251 -0.6962 -0.3206 -0.1848
  193MOL0     H26049   2.632   3.700   9.434 -0.5342 -0.1682 -1.0077
  193MOL0     H26050   2.534   3.834   9.483 -1.1454  0.1777  1.2629
  193MOL0     H26051   2.366   3.524   9.702  3.6630 -2.0088  1.0301
  193MOL0     H26052   2.419   3.396   8.977  0.8764  0.9759 -0.0465
  193MOL0     H26053   2.387   3.264   8.664 -2.6707 -1.3576 -0.8965
  193MOL0     H26054   2.416   3.188   8.822  1.1577  1.0872  0.4782
  193MOL0     H26055   2.272   3.141   8.735  0.0982 -0.1356  1.6947
  194MOL0     O26056  10.200   6.826   6.569 -1.0990 -0.0199  0.8626
  194MOL0     C26057  10.248   6.941   6.563  0.2689 -0.4311  0.4874
  194MOL0     O26058  10.257   7.023   6.669 -0.3863 -0.0241 -1.1613
  194MOL0     C26059  10.219   6.983   6.796  0.4023 -0.2136  0.6866
  194MOL0     C26060  10.123   7.054   6.869  0.6523 -0.4998 -0.9069
  194MOL0     C26061  10.124   7.031   7.010  0.6705 -0.0930  0.4104
  194MOL0     C26062  10.205   6.951   7.079  0.0407 -0.0901  0.0891
  194MOL0     O26063  10.200   6.949   7.210  0.1121 -0.1789  0.1713
  194MOL0     C26064  10.205   6.816   7.267 -0.4492 -0.4525 -0.0787
  194MOL0     C26065  10.131   6.825   7.404  0.4614 -0.9038  0.0250
  194MOL0     C26066  10.226   6.837   7.518 -0.1680 -0.3667 -0.2812
  194MOL0     C26067  10.164   6.910   7.634 -0.9537  0.6354 -0.1570
  194MOL0     C26068  10.269   6.910   7.753 -0.4360  0.1194 -0.4617
  194MOL0     C26069  10.194   6.940   7.890 -0.4933 -1.2174 -0.7693
  194MOL0     C26070  10.210   7.084   7.943 -0.6066  0.2080  0.6328
  194MOL0     C26071  10.335   7.126   8.027 -0.1573 -0.2780  0.2446
  194MOL0     N26072  10.465   7.112   7.959 -0.3794  0.4894 -0.3268
  194MOL0     C26073  10.513   7.191   7.859 -0.4260 -0.6153  0.3248
  194MOL0     C26074  10.636   7.154   7.832  0.5565  0.0990 -0.2564
  194MOL0     C26075  10.722   7.205   7.722 -0.4886 -0.3993 -0.4682
  194MOL0     C26076  10.693   7.128   7.594  0.6708 -0.7415  0.4719
  194MOL0     C26077  10.761   6.989   7.606  0.1171  0.7134  0.5393
  194MOL0     C26078  10.652   6.879   7.586 -0.1008 -0.0059  0.4714
  194MOL0     O26079  10.576   6.899   7.463 -0.2559  0.1771 -0.2275
  194MOL0     C26080  10.630   6.868   7.340 -0.6992  0.6835  0.5921
  194MOL0     C26081  10.574   6.933   7.229 -0.0282 -0.5844 -0.1396
  194MOL0     C26082  10.611   6.895   7.101  0.1254 -0.5463  0.2976
  194MOL0     C26083  10.708   6.796   7.080  0.6137  0.8967  0.0517
  194MOL0     C26084  10.745   6.740   6.944 -0.0462  0.7077  0.3545
  194MOL0     O26085  10.679   6.806   6.846  0.2157 -0.8532 -0.3203
  194MOL0     C26086  10.670   6.780   6.714 -0.0388 -0.2568 -0.3698
  194MOL0     C26087  10.686   6.646   6.669 -0.4183 -0.9176 -0.7053
  194MOL0     C26088  10.689   6.614   6.540  0.2485 -0.1673  0.3073
  194MOL0     C26089  10.656   6.717   6.443 -0.0552 -1.0514  0.2833
  194MOL0     O26090  10.635   6.696   6.305 -0.3311  0.1044 -0.1617
  194MOL0     C26091  10.629   6.574   6.243  0.2915  0.4253  0.2142
  194MOL0     C26092  10.683   6.572   6.096 -0.8608  0.4712  0.7128
  194MOL0     C26093  10.813   6.659   6.082  0.1361  0.6796  1.5082
  194MOL0     C26094  10.939   6.581   6.127  0.4556 -0.7450 -0.0045
  194MOL0     C26095  11.064   6.674   6.106 -0.6257 -0.8476  1.3899
  194MOL0     C26096  11.197   6.599   6.114  0.0979 -1.8767 -0.4049
  194MOL0     C26097  11.230   6.522   5.982 -0.4921  0.1942 -0.0609
  194MOL0     C26098  11.333   6.416   6.003 -0.7509 -0.5602  0.1750
  194MOL0    Cl26099  11.364   6.355   5.841 -0.2289  0.0339 -0.0885
  194MOL0     C26100  10.648   6.853   6.491  0.1036 -1.0054 -0.1664
  194MOL0     C26101  10.639   6.884   6.625 -0.7181 -0.5250 -1.0979
  194MOL0     O26102  10.825   6.651   6.931 -0.0983  0.1660  0.2562
  194MOL0     C26103  10.768   6.737   7.189 -0.0218 -0.8743  0.0640
  194MOL0     C26104  10.737   6.778   7.319 -0.4837  0.7126 -0.5679
  194MOL0     N26105  10.666   7.058   7.928  0.6420 -0.2395 -0.5372
  194MOL0     N26106  10.569   7.033   8.004  0.3929 -0.6010 -0.4411
  194MOL0     C26107  10.284   6.869   6.996 -0.0927 -0.5532 -0.4923
  194MOL0     C26108  10.302   6.892   6.857 -0.0207 -0.3271  0.8182
  194MOL0     C26109  10.296   6.986   6.428  0.5937 -0.3320 -0.7191
  194MOL0     C26110  10.261   6.907   6.314  0.0496  0.2267 -1.2450
  194MOL0     C26111  10.283   6.957   6.186  0.2105 -0.1410 -0.1402
  194MOL0     C26112  10.362   7.070   6.169 -0.8028  0.2460 -0.0429
  194MOL0     O26113  10.400   7.087   6.037 -0.6711 -0.7598  0.2654
  194MOL0     C26114  10.395   7.218   5.981  0.1358 -0.0199 -0.1469
  194MOL0     C26115  10.266   7.270   5.917 -0.3111  0.2074 -0.0702
  194MOL0     C26116  10.132   7.222   5.972 -0.3600 -0.1736 -0.2801
  194MOL0     C26117  10.012   7.287   5.900 -0.8248 -0.1261  0.4226
  194MOL0     C26118   9.999   7.438   5.915 -0.6181  0.5202 -1.3818
  194MOL0     C26119   9.986   7.552   5.953 -0.0850  0.4104  1.1683
  194MOL0     C26120  10.399   7.153   6.276  1.0599 -0.4072  0.2316
  194MOL0     C26121  10.371   7.108   6.403  0.5666 -0.3467  0.5464
  194MOL0     C26122  10.411   7.206   6.517  0.0325  0.2009  0.4365
  194MOL0     H26123  10.054   7.123   6.822  0.6253  0.0633 -0.0702
  194MOL0     H26124  10.050   7.081   7.072 -0.5947  0.1863 -1.2360
  194MOL0     H26125  10.140   6.746   7.214 -0.1045 -0.8497  0.0068
  194MOL0     H26126  10.305   6.772   7.275  0.0371  0.9926  3.3162
  194MOL0     H26127  10.071   6.734   7.411 -1.8305  0.5747  0.6024
  194MOL0     H26128  10.053   6.902   7.411  1.3133  0.2203 -1.8707
  194MOL0     H26129  10.318   6.890   7.491  1.8476 -2.0648  2.6368
  194MOL0     H26130  10.258   6.736   7.547  0.9751 -0.7558 -2.6566
  194MOL0     H26131  10.128   7.010   7.607 -0.2515  0.6285 -1.1879
  194MOL0     H26132  10.075   6.865   7.678 -2.2620  1.7212 -1.5664
  194MOL0     H26133  10.298   6.805   7.763 -2.9924 -0.5734  0.5296
  194MOL0     H26134  10.354   6.977   7.742  0.0295 -0.4998 -0.6790
  194MOL0     H26135  10.085   6.938   7.881 -0.6288  1.5633 -0.4122
  194MOL0     H26136  10.231   6.876   7.970  3.3337  0.8501 -0.6341
  194MOL0     H26137  10.126   7.104   8.011 -0.9763 -0.9958  0.5452
  194MOL0     H26138  10.218   7.144   7.852  2.8292 -2.3856 -1.0111
  194MOL0     H26139  10.329   7.232   8.056  2.1526 -0.1251  0.4021
  194MOL0     H26140  10.334   7.071   8.122 -2.2256  0.0560  0.4630
  194MOL0     H26141  10.460   7.257   7.793 -2.0177 -2.6519 -0.5486
  194MOL0     H26142  10.694   7.308   7.699  0.3179 -0.0127  0.2373
  194MOL0     H26143  10.829   7.209   7.746  0.3711  3.8985 -3.8471
  194MOL0     H26144  10.589   7.128   7.559  0.0589 -3.0873  2.0712
  194MOL0     H26145  10.751   7.182   7.518  2.0303 -2.3386  0.3132
  194MOL0     H26146  10.811   6.973   7.702  0.3004  3.3164  0.9432
  194MOL0     H26147  10.845   6.982   7.536 -1.4803  0.7470 -1.4665
  194MOL0     H26148  10.579   6.887   7.667 -0.1143  2.8344  0.2746
  194MOL0     H26149  10.707   6.785   7.596  1.7640  0.9954  0.0281
  194MOL0     H26150  10.492   7.003   7.242  0.1308 -0.1907 -1.1037
  194MOL0     H26151  10.561   6.946   7.019  2.4052  4.1557  1.4549
  194MOL0     H26152  10.689   6.563   6.739 -0.7755 -1.6267 -1.5100
  194MOL0     H26153  10.709   6.515   6.501  1.4308  1.2965 -3.3025
  194MOL0     H26154  10.679   6.496   6.301 -0.6596 -1.5547 -1.5121
  194MOL0     H26155  10.521   6.555   6.238  0.5969 -1.1102 -2.2583
  194MOL0     H26156  10.710   6.470   6.065 -0.5765  0.7927 -0.1508
  194MOL0     H26157  10.615   6.614   6.021  0.1651 -1.6256 -1.5567
  194MOL0     H26158  10.829   6.703   5.983 -2.0773 -1.7713 -0.0790
  194MOL0     H26159  10.801   6.752   6.139 -4.4427  1.2409  0.0108
  194MOL0     H26160  10.943   6.494   6.059  0.0716  0.0486 -1.0685
  194MOL0     H26161  10.926   6.561   6.233 -2.2080  0.2094 -0.0882
  194MOL0     H26162  11.063   6.748   6.187 -0.9060 -0.2589  0.8655
  194MOL0     H26163  11.067   6.722   6.008  2.2311 -1.1060  1.2685
  194MOL0     H26164  11.282   6.665   6.129 -0.0572 -1.9561  0.9727
  194MOL0     H26165  11.193   6.529   6.198 -2.8967 -0.7001  0.5935
  194MOL0     H26166  11.267   6.596   5.911  2.1647  1.4165  2.3844
  194MOL0     H26167  11.148   6.481   5.923  1.0086 -1.1503 -1.3056
  194MOL0     H26168  11.429   6.446   6.045 -0.1321 -3.8892  1.4090
  194MOL0     H26169  11.294   6.332   6.061 -2.1655 -0.4173 -0.5273
  194MOL0     H26170  10.638   6.933   6.419  0.6702 -0.9934 -0.2354
  194MOL0     H26171  10.624   6.987   6.656  2.6079  0.2702 -1.6945
  194MOL0     H26172  10.843   6.661   7.173 -0.6838 -2.3344  3.1084
  194MOL0     H26173  10.790   6.714   7.389  4.6693  0.2085 -4.2888
  194MOL0     H26174  10.353   6.794   7.036  0.9508  1.0945  0.9324
  194MOL0     H26175  10.388   6.847   6.809 -1.8902 -0.9417 -2.2271
  194MOL0     H26176  10.203   6.817   6.328 -0.2941  0.5929 -0.2677
  194MOL0     H26177  10.244   6.913   6.095 -0.0655  0.0656 -0.1213
  194MOL0     H26178  10.484   7.225   5.918  1.4463 -1.6895  1.4050
  194MOL0     H26179  10.418   7.286   6.063 -0.0998 -1.3379  1.0555
  194MOL0     H26180  10.260   7.235   5.814 -2.9160  3.3719 -1.1706
  194MOL0     H26181  10.255   7.378   5.915 -4.1033  0.0006  0.7788
  194MOL0     H26182  10.127   7.242   6.080 -0.6817 -0.7346 -0.1863
  194MOL0     H26183  10.117   7.114   5.959 -3.0507  0.1937 -0.9629
  194MOL0     H26184  10.021   7.265   5.793 -4.2050 -1.5850  0.3276
  194MOL0     H26185   9.920   7.238   5.931  0.5092 -2.5449  0.7928
  194MOL0     H26186   9.989   7.650   5.996  1.4582  0.6064  0.6842
  194MOL0     H26187  10.456   7.245   6.273  1.5873 -0.7419 -0.0792
  194MOL0     H26188  10.505   7.172   6.562  0.7882  1.5681 -0.0630
  194MOL0     H26189  10.443   7.301   6.473 -2.8773 -0.1082 -2.7901
  194MOL0     H26190  10.326   7.219   6.584 -1.9262  0.5431 -1.9862
  195MOL0     O26191   0.404   6.766   0.683  0.2864  0.5536 -0.3195
  195MOL0     C26192   0.409   6.814   0.568 -0.1850 -0.2542 -0.1298
  195MOL0     O26193   0.390   6.949   0.531 -0.0940 -0.7402 -0.0208
  195MOL0     C26194   0.415   7.050   0.618 -0.3150 -0.5508  0.8948
  195MOL0     C26195   0.300   7.117   0.663  0.5398  0.5202  0.2938
  195MOL0     C26196   0.320   7.209   0.765 -0.1495 -1.3917  0.0925
  195MOL0     C26197   0.445   7.248   0.805  0.2766  0.1133 -0.1604
  195MOL0     O26198   0.443   7.346   0.912  0.6192  0.5094  0.0992
  195MOL0     C26199   0.568   7.377   0.964 -0.0332  1.2402  0.1814
  195MOL0     C26200   0.537   7.477   1.065  0.1683  0.7305 -0.2330
  195MOL0     C26201   0.671   7.513   1.134  0.8973 -0.1193  0.5061
  195MOL0     C26202   0.712   7.654   1.093  0.0149 -0.1342 -0.4000
  195MOL0     C26203   0.852   7.685   1.150 -0.2995  0.5274  0.5473
  195MOL0     C26204   0.893   7.835   1.115  0.1624 -0.0547  0.4560
  195MOL0     C26205   0.922   7.864   0.961  1.0317  0.1528 -0.6889
  195MOL0     C26206   1.028   7.776   0.892  0.4852  1.5778 -0.3618
  195MOL0     N26207   1.085   7.814   0.756  0.6138 -0.1095  0.1870
  195MOL0     C26208   1.125   7.939   0.721 -0.1372 -0.4138 -0.4337
  195MOL0     C26209   1.136   7.944   0.591  0.1215  0.0807  1.3341
  195MOL0     C26210   1.179   8.070   0.528  0.1422 -0.0330 -0.9457
  195MOL0     C26211   1.069   8.137   0.441 -0.1528 -0.7732  0.6651
  195MOL0     C26212   1.002   8.047   0.328  0.6218 -0.4961 -0.3539
  195MOL0     C26213   1.096   8.028   0.205  0.7057 -0.2125  0.4630
  195MOL0     O26214   1.208   7.934   0.242  0.1650  0.3309 -0.6747
  195MOL0     C26215   1.298   7.892   0.146 -0.0645 -0.4828 -0.0159
  195MOL0     C26216   1.416   7.828   0.182 -0.9880 -0.9638 -0.4865
  195MOL0     C26217   1.507   7.793   0.094  0.1277  0.5779  0.5310
  195MOL0     C26218   1.481   7.812  -0.043  0.3436 -0.4133  0.4136
  195MOL0     C26219   1.562   7.752  -0.149 -0.7316  0.0681  0.6284
  195MOL0     O26220   1.646   7.646  -0.115 -0.0048 -0.7619 -0.1681
  195MOL0     C26221   1.739   7.580  -0.196  0.5633 -0.3027  0.7574
  195MOL0     C26222   1.869   7.608  -0.225  0.6053 -0.7667 -0.5419
  195MOL0     C26223   1.942   7.550  -0.337  0.4889  0.7441 -0.5147
  195MOL0     C26224   1.894   7.425  -0.382  0.8124 -0.7402 -0.4727
  195MOL0     O26225   1.981   7.342  -0.450 -0.1002  0.0687 -0.3343
  195MOL0     C26226   1.935   7.214  -0.498 -0.0140 -0.0312 -0.0865
  195MOL0     C26227   2.034   7.150  -0.594 -0.5388 -0.0009 -0.5587
  195MOL0     C26228   2.019   7.192  -0.736 -0.6649  0.6593  0.4193
  195MOL0     C26229   2.136   7.148  -0.827 -0.0837  0.9557  0.5042
  195MOL0     C26230   2.095   7.048  -0.934 -0.7295 -0.3570  0.4352
  195MOL0     C26231   2.065   6.906  -0.879 -0.7695  0.9871 -0.2365
  195MOL0     C26232   2.057   6.791  -0.990  0.9051  0.1606 -0.1032
  195MOL0     C26233   1.965   6.831  -1.101 -0.3874  0.2898 -0.0250
  195MOL0    Cl26234   1.805   6.856  -1.050 -0.4789 -0.2187 -0.2840
  195MOL0     C26235   1.761   7.400  -0.359  0.3366 -1.0965 -0.1297
  195MOL0     C26236   1.682   7.476  -0.270 -0.0083 -0.5568 -0.0260
  195MOL0     O26237   1.549   7.791  -0.269  0.1651 -0.5496 -0.1684
  195MOL0     C26238   1.372   7.893  -0.082  0.4257  0.2433 -0.2268
  195MOL0     C26239   1.275   7.922   0.012 -0.7531  0.8478 -0.1135
  195MOL0     N26240   1.106   7.813   0.533 -0.1459  0.3214 -0.0896
  195MOL0     N26241   1.087   7.741   0.641  0.2482  0.1190  0.6150
  195MOL0     C26242   0.563   7.191   0.753  0.0247  0.2441 -0.6303
  195MOL0     C26243   0.544   7.079   0.665  0.9004 -0.0503  0.2603
  195MOL0     C26244   0.418   6.718   0.453 -0.0461  0.4871 -0.2307
  195MOL0     C26245   0.340   6.605   0.457  0.0458 -0.2131  0.0159
  195MOL0     C26246   0.344   6.502   0.367 -0.3140  0.4494  0.6449
  195MOL0     C26247   0.409   6.525   0.238  0.3175 -0.4436 -0.2755
  195MOL0     O26248   0.424   6.440   0.129  0.1524  0.0980 -0.0218
  195MOL0     C26249   0.326   6.342   0.121  0.3306  0.3631  0.6494
  195MOL0     C26250   0.361   6.241  -0.002  0.3601 -0.7466  0.0681
  195MOL0     C26251   0.246   6.148  -0.026 -0.8275 -0.0628  0.0361
  195MOL0     C26252   0.281   6.043  -0.120 -0.1528 -0.1444  0.6434
  195MOL0     C26253   0.347   6.085  -0.246 -0.6458 -0.6210  0.5881
  195MOL0     C26254   0.399   6.121  -0.355 -0.1765 -0.4947  0.2425
  195MOL0     C26255   0.479   6.647   0.225  0.1450  0.8707 -0.2415
  195MOL0     C26256   0.485   6.741   0.333 -0.7177 -0.0917 -0.2595
  195MOL0     C26257   0.596   6.845   0.326  0.5948 -1.1121  0.0335
  195MOL0     H26258   0.205   7.091   0.616  1.4856 -0.1845 -1.3289
  195MOL0     H26259   0.230   7.260   0.798  0.0822  1.3573 -2.9808
  195MOL0     H26260   0.620   7.289   1.003 -0.8807  0.1340 -1.0642
  195MOL0     H26261   0.633   7.418   0.886  0.0502  0.1893 -0.3203
  195MOL0     H26262   0.472   7.442   1.147  0.7541  0.8744  0.2997
  195MOL0     H26263   0.483   7.560   1.018 -3.6349 -0.4647  1.5524
  195MOL0     H26264   0.754   7.445   1.109  2.7834  1.9810  0.7245
  195MOL0     H26265   0.653   7.495   1.240 -0.6458 -2.6040 -0.0872
  195MOL0     H26266   0.744   7.652   0.989  2.6328 -1.3257  0.3466
  195MOL0     H26267   0.626   7.718   1.114 -2.5053 -3.5792  0.6736
  195MOL0     H26268   0.861   7.666   1.257 -4.1868 -0.5844  0.8017
  195MOL0     H26269   0.923   7.610   1.113  0.0187  2.6429 -3.8854
  195MOL0     H26270   0.804   7.897   1.128 -0.0835  0.4735 -2.9795
  195MOL0     H26271   0.976   7.864   1.180 -0.4167 -0.1594  1.2574
  195MOL0     H26272   0.985   7.954   0.952  1.0295  0.1751 -0.4934
  195MOL0     H26273   0.835   7.858   0.896  0.4146  2.9671 -0.2715
  195MOL0     H26274   1.109   7.772   0.966  1.0456  1.9260 -0.9503
  195MOL0     H26275   0.987   7.676   0.882 -0.8133  2.3243 -3.8448
  195MOL0     H26276   1.121   8.028   0.784 -3.7617  0.2963 -1.4064
  195MOL0     H26277   1.214   8.140   0.604  0.9813  1.0602 -2.2760
  195MOL0     H26278   1.267   8.052   0.464  0.5482  1.3400 -0.8069
  195MOL0     H26279   0.996   8.171   0.516 -0.3504  0.3830 -0.0346
  195MOL0     H26280   1.106   8.225   0.389 -1.6348  0.1381  1.0893
  195MOL0     H26281   0.914   8.101   0.294 -1.3634  0.4182  5.1391
  195MOL0     H26282   0.959   7.952   0.363  0.3510  0.2636  1.5179
  195MOL0     H26283   1.133   8.124   0.168  0.3788 -0.2704 -0.0255
  195MOL0     H26284   1.021   7.978   0.143  2.2843 -5.8366  2.4021
  195MOL0     H26285   1.421   7.806   0.288  1.4973  3.5973  0.6169
  195MOL0     H26286   1.592   7.730   0.118  1.8853  1.1630 -3.4537
  195MOL0     H26287   1.924   7.684  -0.169 -1.2491  1.5946 -1.7199
  195MOL0     H26288   2.047   7.571  -0.353  0.5790 -1.0727 -2.7694
  195MOL0     H26289   1.932   7.150  -0.409 -2.8793 -0.1066 -0.1228
  195MOL0     H26290   1.836   7.222  -0.544  0.3884  0.2122 -0.9215
  195MOL0     H26291   2.141   7.164  -0.577 -0.1890 -3.3675  0.9845
  195MOL0     H26292   2.023   7.042  -0.577  0.8800  0.2478  2.8308
  195MOL0     H26293   1.927   7.152  -0.780 -0.0433 -1.9747  1.3276
  195MOL0     H26294   2.010   7.301  -0.733  0.1322  0.7362  0.2519
  195MOL0     H26295   2.206   7.093  -0.763 -1.0929 -0.3057  0.5517
  195MOL0     H26296   2.187   7.237  -0.865  0.4038  0.7035  0.5511
  195MOL0     H26297   2.182   7.052  -0.999 -0.8677  3.1134  0.2626
  195MOL0     H26298   2.002   7.081  -0.982 -1.1902 -2.4892 -0.2357
  195MOL0     H26299   2.150   6.881  -0.815 -0.1757  1.6084 -0.7604
  195MOL0     H26300   1.977   6.903  -0.814 -0.5181  0.1208  0.0859
  195MOL0     H26301   2.037   6.693  -0.946  0.2914  0.6974  0.8295
  195MOL0     H26302   2.157   6.788  -1.035  0.8250 -0.1437 -0.2677
  195MOL0     H26303   2.006   6.907  -1.168  0.0983 -1.8267 -2.2768
  195MOL0     H26304   1.957   6.748  -1.172 -0.7825  0.2149  0.1053
  195MOL0     H26305   1.700   7.322  -0.404 -0.8535 -0.3384  0.1120
  195MOL0     H26306   1.577   7.454  -0.252  0.2882 -2.5948 -0.5156
  195MOL0     H26307   1.347   7.915  -0.185 -1.7264 -2.6254 -0.4264
  195MOL0     H26308   1.189   7.978  -0.021 -0.5418  0.7735 -0.8134
  195MOL0     H26309   0.659   7.224   0.790 -1.0769  5.0520 -1.3893
  195MOL0     H26310   0.632   7.019   0.642  0.4134 -1.8562  2.6928
  195MOL0     H26311   0.273   6.591   0.541 -0.0626 -3.1169 -0.4573
  195MOL0     H26312   0.297   6.407   0.390 -0.0253 -0.4594 -2.1030
  195MOL0     H26313   0.232   6.396   0.104 -0.4935 -0.1268  3.2407
  195MOL0     H26314   0.318   6.281   0.211  2.6467 -1.4131 -0.2409
  195MOL0     H26315   0.444   6.176   0.027  0.5121  0.6795  3.3468
  195MOL0     H26316   0.382   6.306  -0.088 -1.0465 -1.2484 -0.6821
  195MOL0     H26317   0.159   6.203  -0.063  0.1823  0.1081 -2.2051
  195MOL0     H26318   0.216   6.098   0.067 -0.1526 -0.5346  0.0061
  195MOL0     H26319   0.350   5.968  -0.080  0.2689 -0.9275 -1.4351
  195MOL0     H26320   0.195   5.983  -0.152 -0.6599  1.3807 -1.0258
  195MOL0     H26321   0.435   6.157  -0.449  1.5904 -2.6730 -0.0003
  195MOL0     H26322   0.529   6.659   0.130  2.3254 -2.5427  0.3049
  195MOL0     H26323   0.543   6.936   0.293  1.7827 -0.5905 -0.4918
  195MOL0     H26324   0.655   6.861   0.416  0.6900 -1.6147  0.0625
  195MOL0     H26325   0.666   6.820   0.246  1.5422  3.2622 -0.8038
  196MOL0     O26326   6.335   4.806   8.704  0.2847  0.9177  0.0197
  196MOL0     C26327   6.256   4.898   8.734 -0.0633  0.7231 -0.4666
  196MOL0     O26328   6.156   4.945   8.652 -0.1601  0.1630  0.4075
  196MOL0     C26329   6.144   4.885   8.530  0.2149 -0.1291 -0.2780
  196MOL0     C26330   6.141   4.962   8.409  0.5642 -0.9498 -0.2721
  196MOL0     C26331   6.116   4.899   8.290  0.5769 -0.5897 -0.2074
  196MOL0     C26332   6.101   4.762   8.282 -0.3290  0.5381  1.0289
  196MOL0     O26333   6.082   4.695   8.156  0.1698 -0.7214 -0.1791
  196MOL0     C26334   6.022   4.779   8.050 -0.1036  0.5318 -1.0066
  196MOL0     C26335   5.993   4.688   7.926 -0.0860 -0.1827  0.0738
  196MOL0     C26336   6.124   4.667   7.846 -0.0454  0.1440  0.0326
  196MOL0     C26337   6.111   4.576   7.731  0.8551  1.1206 -0.4861
  196MOL0     C26338   6.051   4.647   7.607 -0.0112 -0.0414  0.1614
  196MOL0     C26339   6.156   4.736   7.529  0.7158  0.6993 -0.0137
  196MOL0     C26340   6.087   4.858   7.454 -0.8931 -0.1463 -0.7045
  196MOL0     C26341   6.039   4.979   7.549  0.5950  0.6264  0.7633
  196MOL0     N26342   6.158   5.050   7.605  0.4443  0.6270  0.1963
  196MOL0     C26343   6.251   5.128   7.542 -0.6058 -0.7105 -0.4022
  196MOL0     C26344   6.316   5.195   7.642  0.1480  0.3712 -0.4730
  196MOL0     C26345   6.412   5.306   7.617  0.0680 -0.2857 -0.4010
  196MOL0     C26346   6.554   5.277   7.648 -1.3098 -0.7159  0.1661
  196MOL0     C26347   6.597   5.257   7.783  0.3892  1.0188 -0.1864
  196MOL0     C26348   6.575   5.374   7.875 -0.5928 -0.6650 -0.0915
  196MOL0     O26349   6.648   5.355   7.997 -0.1465 -0.8342  0.4309
  196MOL0     C26350   6.603   5.413   8.110  0.8715  0.5557 -0.5685
  196MOL0     C26351   6.689   5.391   8.215 -0.1785  0.3238 -0.5459
  196MOL0     C26352   6.648   5.416   8.344 -0.0293 -0.1378  0.1344
  196MOL0     C26353   6.525   5.478   8.368 -0.2660 -0.0057  0.3150
  196MOL0     C26354   6.478   5.520   8.501 -0.0983 -0.0067 -0.2092
  196MOL0     O26355   6.378   5.611   8.508 -0.2310  0.2421  0.3636
  196MOL0     C26356   6.351   5.676   8.635 -1.0050  0.2772  0.6021
  196MOL0     C26357   6.361   5.813   8.637 -0.0337 -0.1860  0.5279
  196MOL0     C26358   6.323   5.887   8.750 -0.0589  0.2704 -0.3405
  196MOL0     C26359   6.301   5.815   8.873  1.0145  0.5659  0.6709
  196MOL0     O26360   6.255   5.873   8.993 -0.1727  0.0447 -0.0820
  196MOL0     C26361   6.296   6.000   9.046 -0.0656  0.0322  0.6019
  196MOL0     C26362   6.194   6.105   8.999  0.6072 -0.4679 -0.5836
  196MOL0     C26363   6.234   6.246   9.048  0.6607  0.3007  0.1433
  196MOL0     C26364   6.114   6.338   9.014 -0.2739  0.4430  0.3757
  196MOL0     C26365   6.152   6.493   8.998  0.5826  0.4143 -0.3549
  196MOL0     C26366   6.025   6.586   8.991  0.7101 -0.0727  0.3115
  196MOL0     C26367   5.942   6.563   8.866  1.1431  0.4232 -0.1919
  196MOL0     C26368   5.801   6.518   8.899  1.2867  0.1164 -0.5912
  196MOL0    Cl26369   5.806   6.373   8.996 -0.0130 -0.1941  0.3004
  196MOL0     C26370   6.280   5.671   8.861 -0.2663 -0.0154 -0.2828
  196MOL0     C26371   6.320   5.607   8.748  0.0295 -0.4211 -0.2673
  196MOL0     O26372   6.558   5.492   8.597 -0.0050 -0.2147 -0.1107
  196MOL0     C26373   6.440   5.501   8.262  1.3095  0.1042  0.0345
  196MOL0     C26374   6.482   5.471   8.131  1.0483  0.1915 -0.6963
  196MOL0     N26375   6.276   5.146   7.763 -0.5559  0.2392  0.2450
  196MOL0     N26376   6.178   5.058   7.737  0.6059 -0.4521 -0.0048
  196MOL0     C26377   6.110   4.695   8.395 -0.9169  0.6228  0.1154
  196MOL0     C26378   6.117   4.755   8.521 -1.3419  0.2176 -0.5377
  196MOL0     C26379   6.268   4.966   8.868  0.6787 -0.0096  0.3526
  196MOL0     C26380   6.264   5.107   8.881 -0.2079  0.4699 -1.0074
  196MOL0     C26381   6.264   5.160   9.015  0.0208  0.1084 -0.3832
  196MOL0     C26382   6.267   5.087   9.133  0.2682  0.3757 -0.3279
  196MOL0     O26383   6.285   5.141   9.259 -0.0376 -0.1901 -0.6296
  196MOL0     C26384   6.275   5.279   9.290 -0.4595 -0.0020  0.3631
  196MOL0     C26385   6.283   5.316   9.445 -0.5141  0.5366 -0.0139
  196MOL0     C26386   6.135   5.316   9.499 -0.7786  0.1796  0.1687
  196MOL0     C26387   6.129   5.292   9.659  0.3965  0.0323  0.2316
  196MOL0     C26388   6.000   5.286   9.715  0.4433  0.7749  0.5190
  196MOL0     C26389   5.901   5.267   9.770  0.1940 -0.4885 -0.7790
  196MOL0     C26390   6.265   4.946   9.114 -0.5525  0.4415 -0.4578
  196MOL0     C26391   6.280   4.886   8.985 -0.2351  0.0348  0.5769
  196MOL0     C26392   6.269   4.737   8.978 -0.6720  0.5878  0.2665
  196MOL0     H26393   6.158   5.069   8.412  2.1258 -1.1776  0.2045
  196MOL0     H26394   6.119   4.964   8.203 -2.5249 -0.9724 -0.7072
  196MOL0     H26395   5.930   4.827   8.087 -0.7070 -0.4574 -1.1797
  196MOL0     H26396   6.085   4.858   8.010 -0.2790  1.2793  0.1308
  196MOL0     H26397   5.930   4.743   7.855  0.7736 -0.0101 -0.5719
  196MOL0     H26398   5.934   4.601   7.959 -0.8132  0.1381 -0.3398
  196MOL0     H26399   6.189   4.614   7.916 -0.0133 -1.6618 -1.2825
  196MOL0     H26400   6.180   4.759   7.832  0.8705  0.0252  2.4602
  196MOL0     H26401   6.209   4.536   7.703 -0.0065 -0.6809 -1.0800
  196MOL0     H26402   6.058   4.483   7.754  0.3802  0.4190 -3.8587
  196MOL0     H26403   6.014   4.573   7.536 -5.0472  0.2922  2.0683
  196MOL0     H26404   5.958   4.698   7.634  0.7024  1.2087  0.3451
  196MOL0     H26405   6.240   4.770   7.591 -0.0892  1.9810  0.4270
  196MOL0     H26406   6.207   4.675   7.455 -0.2476  0.4834 -0.5137
  196MOL0     H26407   6.004   4.814   7.399 -0.9908 -1.3967  0.4060
  196MOL0     H26408   6.165   4.898   7.388 -1.9870  0.9899 -1.3558
  196MOL0     H26409   5.970   5.049   7.503  0.0299 -1.4785 -1.7947
  196MOL0     H26410   5.982   4.945   7.636  1.0580 -1.1065  0.4368
  196MOL0     H26411   6.274   5.166   7.443  1.4082 -0.9738 -0.0687
  196MOL0     H26412   6.406   5.333   7.511  1.1723 -1.2928 -0.7453
  196MOL0     H26413   6.368   5.388   7.674 -3.7254 -0.5476 -2.6014
  196MOL0     H26414   6.582   5.185   7.596  0.2394 -0.8969  1.2472
  196MOL0     H26415   6.609   5.360   7.603 -1.1032 -1.9398 -1.9392
  196MOL0     H26416   6.694   5.209   7.793 -0.4159 -0.8623 -1.0112
  196MOL0     H26417   6.530   5.179   7.822  0.5644  2.0343  2.3666
  196MOL0     H26418   6.466   5.377   7.878 -0.7159  0.4019 -2.8218
  196MOL0     H26419   6.625   5.459   7.828  0.0236  0.1147  1.8713
  196MOL0     H26420   6.784   5.340   8.203 -1.4813 -2.5392  0.3972
  196MOL0     H26421   6.717   5.393   8.424  3.5738  3.5809 -1.5316
  196MOL0     H26422   6.379   5.872   8.547 -0.1221 -1.9748 -0.7090
  196MOL0     H26423   6.311   5.995   8.745 -0.1104  0.2183 -2.2045
  196MOL0     H26424   6.300   6.000   9.155  2.8371  2.2171  0.6183
  196MOL0     H26425   6.395   6.023   9.005 -1.3368  0.5519 -2.4570
  196MOL0     H26426   6.166   6.101   8.894 -3.4267 -0.0218  0.2837
  196MOL0     H26427   6.100   6.073   9.046  0.4937 -1.4241 -1.4357
  196MOL0     H26428   6.257   6.260   9.154  1.7618  0.2502 -0.0727
  196MOL0     H26429   6.317   6.288   8.990  0.2395  0.0600 -0.6460
  196MOL0     H26430   6.052   6.330   9.103 -1.7186 -0.2959 -0.6493
  196MOL0     H26431   6.059   6.300   8.927  1.5941 -0.1455 -0.6133
  196MOL0     H26432   6.205   6.494   8.903  0.3066  2.6307 -0.5408
  196MOL0     H26433   6.213   6.533   9.080 -0.0511  0.2636  0.2011
  196MOL0     H26434   5.962   6.546   9.072  2.3770 -2.7493  0.3939
  196MOL0     H26435   6.054   6.692   8.992  0.4525 -0.0011  0.3368
  196MOL0     H26436   6.002   6.502   8.798  2.2135  1.5809 -0.3294
  196MOL0     H26437   5.938   6.658   8.811 -2.8991 -0.7983 -2.4649
  196MOL0     H26438   5.745   6.595   8.952 -0.4515 -0.7907 -1.0359
  196MOL0     H26439   5.735   6.510   8.813 -1.5133 -1.2777  1.5213
  196MOL0     H26440   6.246   5.616   8.948  0.8616  1.2959  1.0534
  196MOL0     H26441   6.313   5.499   8.738 -3.3968 -0.3050 -0.3649
  196MOL0     H26442   6.349   5.556   8.284  0.8242 -0.2501 -1.0417
  196MOL0     H26443   6.422   5.491   8.042  2.5264 -1.0498 -2.0209
  196MOL0     H26444   6.098   4.587   8.400  1.2900  0.2783 -1.0031
  196MOL0     H26445   6.115   4.691   8.609 -0.5760 -1.3043 -1.5870
  196MOL0     H26446   6.237   5.174   8.799  1.5321 -0.3994 -2.3601
  196MOL0     H26447   6.255   5.268   9.019 -0.4236  0.0595 -0.0068
  196MOL0     H26448   6.184   5.325   9.251 -0.2190  0.4896  0.3702
  196MOL0     H26449   6.353   5.328   9.231 -0.2261  1.6138  1.9069
  196MOL0     H26450   6.315   5.418   9.469  0.1915 -0.1448  2.1397
  196MOL0     H26451   6.361   5.252   9.486 -0.6587  0.1033 -0.4025
  196MOL0     H26452   6.072   5.233   9.464  0.1789 -0.0021 -1.1862
  196MOL0     H26453   6.077   5.406   9.476  0.0043  0.6847  0.1586
  196MOL0     H26454   6.179   5.195   9.666 -0.0480 -0.3065 -1.0504
  196MOL0     H26455   6.180   5.371   9.716 -0.5472  0.7750  0.0866
  196MOL0     H26456   5.799   5.266   9.802  0.0356  3.4155 -0.6674
  196MOL0     H26457   6.273   4.886   9.204  2.2258 -2.8854 -2.6772
  196MOL0     H26458   6.191   4.686   8.920 -0.6808 -1.2650  1.8112
  196MOL0     H26459   6.364   4.696   8.943 -2.3658 -3.8678  0.2550
  196MOL0     H26460   6.275   4.694   9.078  4.0318  0.3849  0.1177
  197MOL0     O26461   0.907   2.296   4.607 -0.4684  0.5318 -0.1151
  197MOL0     C26462   0.811   2.346   4.659  0.2164  0.7466  0.1601
  197MOL0     O26463   0.754   2.462   4.614 -0.5136  0.3954 -0.0827
  197MOL0     C26464   0.795   2.497   4.494  0.2396  0.8882 -0.0491
  197MOL0     C26465   0.807   2.412   4.381  0.1381 -0.0172  0.0430
  197MOL0     C26466   0.843   2.463   4.257 -0.3486 -0.3791  0.6300
  197MOL0     C26467   0.861   2.605   4.238 -0.9080  0.6542  0.3939
  197MOL0     O26468   0.877   2.655   4.112 -0.1963  0.1440 -0.8641
  197MOL0     C26469   0.961   2.588   4.021 -0.0800  1.1912 -0.5757
  197MOL0     C26470   1.004   2.685   3.911 -1.2751 -0.5085 -0.7290
  197MOL0     C26471   1.038   2.829   3.978 -0.8916  0.5724  0.3475
  197MOL0     C26472   1.094   2.917   3.859  0.4918  0.0421 -0.3094
  197MOL0     C26473   1.133   3.052   3.921 -0.1489 -1.0159 -0.7184
  197MOL0     C26474   1.043   3.171   3.873  0.6955 -1.0627 -0.0682
  197MOL0     C26475   1.081   3.303   3.953 -0.6264  0.3857  0.7089
  197MOL0     C26476   0.996   3.425   3.915  0.8152 -0.1495 -0.4919
  197MOL0     N26477   1.057   3.541   3.963  0.4782  0.8902  0.4076
  197MOL0     C26478   1.040   3.619   4.075  0.0452  0.3357  0.0531
  197MOL0     C26479   1.125   3.721   4.063  0.1037  0.2607 -0.5983
  197MOL0     C26480   1.156   3.824   4.168 -0.1357  0.2233  0.4695
  197MOL0     C26481   1.143   3.973   4.115 -0.9712  0.4999 -0.4054
  197MOL0     C26482   1.018   3.998   4.019  0.0225  0.2048 -0.0474
  197MOL0     C26483   0.890   3.959   4.087 -0.7404  0.1706 -0.2207
  197MOL0     O26484   0.790   4.052   4.031 -0.7633 -0.7967 -0.3660
  197MOL0     C26485   0.678   4.080   4.112 -1.1515  0.2505 -0.2122
  197MOL0     C26486   0.582   4.166   4.053  0.4411 -0.9137  0.5120
  197MOL0     C26487   0.468   4.216   4.136 -0.5743 -0.2029  0.5012
  197MOL0     C26488   0.438   4.147   4.257 -0.2064 -0.2796 -0.9319
  197MOL0     C26489   0.335   4.189   4.363  0.7375 -0.4772  0.8345
  197MOL0     O26490   0.280   4.307   4.337  0.5118 -0.2445  0.7397
  197MOL0     C26491   0.208   4.370   4.441 -0.5063  0.0162  0.6215
  197MOL0     C26492   0.232   4.358   4.577  1.1865  1.0721  0.0638
  197MOL0     C26493   0.152   4.424   4.671 -0.0761  0.4024 -0.1452
  197MOL0     C26494   0.058   4.517   4.632  0.6709 -0.0149 -0.7220
  197MOL0     O26495   0.002   4.586   4.737  0.2783  0.1344  0.6648
  197MOL0     C26496  -0.013   4.719   4.704  0.4281 -0.7545  0.0104
  197MOL0     C26497  -0.018   4.808   4.824 -0.0472 -0.0490  0.4490
  197MOL0     C26498  -0.069   4.949   4.799  0.1725 -0.4583  0.6019
  197MOL0     C26499   0.018   5.045   4.882 -0.5070  0.1261  0.9561
  197MOL0     C26500  -0.020   5.194   4.885  0.2065  0.9365  0.4496
  197MOL0     C26501   0.014   5.264   5.023 -0.5408  0.6470 -0.0818
  197MOL0     C26502   0.166   5.287   5.026 -0.2510 -0.0001  0.4993
  197MOL0     C26503   0.222   5.411   5.096 -0.1668  0.2351 -0.3319
  197MOL0    Cl26504   0.404   5.402   5.106  0.7832  0.3064  0.1962
  197MOL0     C26505   0.026   4.525   4.501  0.4266  0.0576 -0.3841
  197MOL0     C26506   0.098   4.447   4.409  0.0130 -0.0261  0.9072
  197MOL0     O26507   0.301   4.110   4.444  0.6169 -0.1241 -0.2706
  197MOL0     C26508   0.524   4.041   4.294  0.4983 -0.3062 -0.0018
  197MOL0     C26509   0.645   4.015   4.234  0.3420 -0.4735  0.8972
  197MOL0     N26510   1.199   3.702   3.946 -0.0240 -0.9605  0.1600
  197MOL0     N26511   1.148   3.607   3.881 -0.5512 -0.0499  0.2069
  197MOL0     C26512   0.859   2.686   4.350  0.8940 -0.3942  1.0417
  197MOL0     C26513   0.816   2.632   4.481 -0.9954  0.7303 -0.2948
  197MOL0     C26514   0.754   2.258   4.758  0.0068 -0.3857  0.3277
  197MOL0     C26515   0.724   2.324   4.876 -0.0843 -0.3521 -0.2818
  197MOL0     C26516   0.654   2.262   4.978 -0.0791 -0.7174 -0.4394
  197MOL0     C26517   0.623   2.128   4.968 -0.2091 -0.1478 -1.0030
  197MOL0     O26518   0.567   2.076   5.086  0.4119  0.5551 -0.2180
  197MOL0     C26519   0.511   1.944   5.061 -0.2694 -0.8094  0.3187
  197MOL0     C26520   0.448   1.895   5.191  1.2839  0.4723  0.0230
  197MOL0     C26521   0.383   1.751   5.167 -1.0870 -0.0902 -0.6597
  197MOL0     C26522   0.334   1.697   5.298  0.1797 -0.1493  0.5574
  197MOL0     C26523   0.219   1.777   5.354 -0.2470  0.2679  0.1819
  197MOL0     C26524   0.123   1.837   5.407  0.1877  0.3824  0.8718
  197MOL0     C26525   0.659   2.057   4.853  0.2209 -0.4800  0.3536
  197MOL0     C26526   0.713   2.128   4.740 -0.2265 -0.3519  0.6764
  197MOL0     C26527   0.731   2.063   4.608  0.2669  0.1430  0.5938
  197MOL0     H26528   0.790   2.305   4.377  0.4228 -0.0265 -2.3659
  197MOL0     H26529   0.852   2.389   4.178  0.5126  1.2661 -0.8737
  197MOL0     H26530   1.044   2.541   4.074  0.2646  0.4016 -1.7741
  197MOL0     H26531   0.914   2.508   3.962 -1.3296  0.0590  1.7635
  197MOL0     H26532   0.937   2.702   3.826 -0.4698 -0.8664 -1.4420
  197MOL0     H26533   1.097   2.644   3.872 -1.2584  0.2369 -1.5102
  197MOL0     H26534   1.110   2.823   4.061  0.0074 -1.6872 -0.5077
  197MOL0     H26535   0.961   2.889   4.028 -0.3254  2.3491 -0.8451
  197MOL0     H26536   1.187   2.866   3.833  0.2837 -0.2538 -0.4808
  197MOL0     H26537   1.027   2.915   3.773  0.1084  0.8662 -0.0406
  197MOL0     H26538   1.131   3.045   4.030  0.2332  1.3924 -0.5006
  197MOL0     H26539   1.237   3.080   3.903  1.2045 -3.4360  2.4363
  197MOL0     H26540   1.062   3.202   3.770  3.8736 -0.6262  0.5589
  197MOL0     H26541   0.938   3.141   3.883  0.4447 -0.1104  0.3206
  197MOL0     H26542   1.185   3.327   3.929 -1.0192  0.6098 -0.8989
  197MOL0     H26543   1.084   3.284   4.061  2.9612  1.1177  0.8745
  197MOL0     H26544   0.996   3.438   3.807 -0.9734 -2.7259 -0.9048
  197MOL0     H26545   0.896   3.418   3.959  0.3865  7.0684  0.9188
  197MOL0     H26546   0.989   3.570   4.158  0.4071 -0.9064 -0.4282
  197MOL0     H26547   1.088   3.806   4.252 -0.3218  1.5410  0.6234
  197MOL0     H26548   1.256   3.809   4.211  0.2243  2.2567  0.4667
  197MOL0     H26549   1.152   4.041   4.200 -2.0613 -4.6059  4.3851
  197MOL0     H26550   1.235   3.986   4.058 -0.1434  1.3382  1.0452
  197MOL0     H26551   1.035   3.954   3.920  0.2043 -4.6965  1.8780
  197MOL0     H26552   1.012   4.102   3.986 -1.2307 -0.4314 -2.0038
  197MOL0     H26553   0.911   3.953   4.195  0.0273 -7.9609 -0.2588
  197MOL0     H26554   0.867   3.857   4.056 -2.7482  1.1641 -2.2907
  197MOL0     H26555   0.595   4.216   3.957 -1.6234  0.3403  0.8143
  197MOL0     H26556   0.399   4.293   4.102  1.0765  0.9062 -0.4509
  197MOL0     H26557   0.314   4.293   4.607 -0.2543 -0.3818  0.9882
  197MOL0     H26558   0.156   4.416   4.779 -1.7030  1.1967 -0.0061
  197MOL0     H26559   0.065   4.760   4.640  0.0049  0.9207  0.5199
  197MOL0     H26560  -0.108   4.722   4.649 -0.2013 -0.0403  1.0830
  197MOL0     H26561  -0.088   4.766   4.896 -2.5628 -0.4125 -2.0012
  197MOL0     H26562   0.075   4.818   4.880  0.9803  0.4406 -1.2807
  197MOL0     H26563  -0.048   4.969   4.693 -1.1729 -1.7961  0.0539
  197MOL0     H26564  -0.174   4.964   4.826  0.5467 -0.9070  2.4111
  197MOL0     H26565   0.118   5.046   4.838 -0.3920  0.2760  1.2157
  197MOL0     H26566   0.018   5.006   4.984 -0.8266  0.8602  1.2474
  197MOL0     H26567  -0.128   5.196   4.869  0.5109 -0.3341 -2.4105
  197MOL0     H26568   0.021   5.260   4.808  1.7451  1.9366  2.0611
  197MOL0     H26569  -0.017   5.369   5.023 -0.6672  0.6179  0.5636
  197MOL0     H26570  -0.026   5.217   5.114  0.4093  0.7828  0.4117
  197MOL0     H26571   0.208   5.293   4.925 -0.0844  1.4703  0.6459
  197MOL0     H26572   0.202   5.204   5.089 -1.6879  0.2891  1.7644
  197MOL0     H26573   0.210   5.504   5.039  1.4481  0.8430  0.2623
  197MOL0     H26574   0.181   5.425   5.196  2.7545  0.5179  0.9379
  197MOL0     H26575  -0.043   4.600   4.464 -0.8593 -1.3253 -0.8568
  197MOL0     H26576   0.068   4.452   4.305  1.8201 -2.5897  0.1758
  197MOL0     H26577   0.513   3.985   4.386  2.3161 -2.2486 -0.9050
  197MOL0     H26578   0.708   3.945   4.287  3.2577 -0.2744 -1.9759
  197MOL0     H26579   0.887   2.790   4.334  1.8594 -0.8544 -0.5016
  197MOL0     H26580   0.811   2.704   4.563 -1.0475 -1.3004  1.5582
  197MOL0     H26581   0.744   2.431   4.877  3.8778 -0.9336 -0.4512
  197MOL0     H26582   0.620   2.311   5.069 -2.2128 -3.3119  0.2813
  197MOL0     H26583   0.593   1.872   5.055  1.4076  0.2175  5.5502
  197MOL0     H26584   0.436   1.946   4.981 -1.6189  1.6590  1.5390
  197MOL0     H26585   0.365   1.959   5.221 -2.7385 -1.8005 -4.8052
  197MOL0     H26586   0.515   1.888   5.277  1.2601  1.8367  0.1651
  197MOL0     H26587   0.457   1.679   5.133 -0.6643  0.7814 -1.6300
  197MOL0     H26588   0.308   1.748   5.087  0.1582  1.9102 -2.0179
  197MOL0     H26589   0.300   1.594   5.283 -0.4295  0.1297 -0.0116
  197MOL0     H26590   0.415   1.680   5.370 -0.0122 -0.6340  0.6624
  197MOL0     H26591   0.040   1.889   5.451  0.0651  1.0589 -0.1168
  197MOL0     H26592   0.627   1.953   4.852 -3.1981  0.4376  0.8449
  197MOL0     H26593   0.688   1.962   4.601  0.4110  0.1687 -1.0887
  197MOL0     H26594   0.684   2.127   4.533  3.8157  0.7127 -1.3831
  197MOL0     H26595   0.833   2.053   4.570 -0.1955  1.1303 -1.0151
  198MOL0     O26596   8.903   3.306   6.467  0.2807  0.1021  0.0779
  198MOL0     C26597   8.918   3.255   6.578 -0.2978 -0.5857  1.1606
  198MOL0     O26598   8.884   3.314   6.699  0.0083 -0.6130 -0.5127
  198MOL0     C26599   8.820   3.432   6.708 -0.6022  0.7131 -0.3639
  198MOL0     C26600   8.846   3.504   6.825 -0.3621 -0.4727  0.8534
  198MOL0     C26601   8.774   3.618   6.856 -0.6542  0.6151  0.6508
  198MOL0     C26602   8.677   3.663   6.754 -0.1980  0.5451  0.7084
  198MOL0     O26603   8.612   3.780   6.767 -0.5323  0.0428 -0.1567
  198MOL0     C26604   8.574   3.803   6.907  0.4644 -0.1489 -0.9921
  198MOL0     C26605   8.462   3.901   6.887 -0.6133 -1.1567 -0.8139
  198MOL0     C26606   8.371   3.921   7.015 -0.5465  0.1159 -0.5093
  198MOL0     C26607   8.244   3.993   6.989 -0.6068 -0.5940  0.6203
  198MOL0     C26608   8.168   4.017   7.123 -0.1434  0.0062 -0.0819
  198MOL0     C26609   8.066   4.123   7.105  0.0798  0.0895 -0.9044
  198MOL0     C26610   7.938   4.065   7.048  1.3751 -0.8137  0.0335
  198MOL0     C26611   7.823   4.173   7.031  0.0868 -0.7433 -0.9849
  198MOL0     N26612   7.738   4.221   7.143 -0.6427 -0.1566  2.0591
  198MOL0     C26613   7.604   4.198   7.154 -0.8145 -0.2490  0.2304
  198MOL0     C26614   7.566   4.234   7.289  0.5224 -0.1358  0.0545
  198MOL0     C26615   7.432   4.230   7.350  0.3085 -0.7251 -0.3195
  198MOL0     C26616   7.332   4.317   7.275  0.5384  1.1096 -0.1117
  198MOL0     C26617   7.189   4.314   7.327 -0.3560  0.1420  0.1504
  198MOL0     C26618   7.131   4.173   7.299 -0.0194  0.9503  0.0226
  198MOL0     O26619   7.004   4.162   7.359  0.8316  0.4766 -1.2656
  198MOL0     C26620   6.920   4.054   7.337  0.6603 -0.1726 -1.0767
  198MOL0     C26621   6.779   4.069   7.355  0.9750 -0.1473  0.3124
  198MOL0     C26622   6.695   3.979   7.299  0.3263 -0.6110 -0.1933
  198MOL0     C26623   6.739   3.856   7.251  0.0817 -0.3967 -0.7124
  198MOL0     C26624   6.653   3.759   7.193  0.4138 -0.2026  0.4674
  198MOL0     O26625   6.702   3.634   7.195  0.3093  0.1981  0.7869
  198MOL0     C26626   6.636   3.533   7.127  0.0528  0.0828  0.1822
  198MOL0     C26627   6.587   3.548   7.002 -0.7907  0.3848  1.0120
  198MOL0     C26628   6.538   3.446   6.927  0.6142  0.4778 -0.1095
  198MOL0     C26629   6.525   3.326   6.983  0.0721  0.1979  1.1011
  198MOL0     O26630   6.474   3.240   6.890  0.0829  0.5487 -0.1907
  198MOL0     C26631   6.501   3.095   6.895 -0.0502 -0.2767 -0.1643
  198MOL0     C26632   6.433   3.038   6.771  0.8282 -0.1853 -0.4890
  198MOL0     C26633   6.519   3.040   6.641 -0.5640  0.3935  0.1104
  198MOL0     C26634   6.524   3.174   6.580  0.4530 -0.8512 -0.2493
  198MOL0     C26635   6.661   3.226   6.523 -1.0411  0.2915  0.1823
  198MOL0     C26636   6.698   3.148   6.397  0.2989  0.0583  0.0761
  198MOL0     C26637   6.802   3.211   6.310 -1.2516 -0.4466  0.1127
  198MOL0     C26638   6.942   3.218   6.356  0.9756 -0.1884  0.2722
  198MOL0    Cl26639   7.074   3.324   6.292 -0.4937  0.0441  0.3989
  198MOL0     C26640   6.550   3.306   7.117 -0.1540 -0.2481  0.6946
  198MOL0     C26641   6.609   3.415   7.189 -0.4814  1.0601  0.2506
  198MOL0     O26642   6.542   3.800   7.153  0.1882  1.0352 -0.3003
  198MOL0     C26643   6.878   3.836   7.238  0.6695 -0.7970 -0.0371
  198MOL0     C26644   6.969   3.930   7.294  0.7979  0.7075  0.4297
  198MOL0     N26645   7.690   4.272   7.341  0.0988  0.8986  0.1108
  198MOL0     N26646   7.785   4.270   7.252 -0.4578 -0.2602 -0.8409
  198MOL0     C26647   8.657   3.591   6.633  0.4897 -0.4248 -0.7375
  198MOL0     C26648   8.727   3.476   6.609  0.5331 -0.1603  0.0272
  198MOL0     C26649   8.983   3.122   6.576  0.0420 -0.4518  0.4302
  198MOL0     C26650   8.996   3.049   6.455  0.5995  0.1960 -0.0991
  198MOL0     C26651   9.035   2.914   6.460  0.1910  1.5305 -0.2116
  198MOL0     C26652   9.094   2.857   6.577 -0.7105  0.2596  0.2177
  198MOL0     O26653   9.144   2.728   6.584  0.7816  0.8604  0.1168
  198MOL0     C26654   9.115   2.628   6.487 -0.1076  0.8609  0.2947
  198MOL0     C26655   8.972   2.557   6.515 -0.6124  1.2540  0.7162
  198MOL0     C26656   8.854   2.627   6.454  0.8648  0.8743 -0.7373
  198MOL0     C26657   8.710   2.570   6.479  0.8910 -0.4640  0.6683
  198MOL0     C26658   8.653   2.467   6.390  0.5671 -0.8580  0.3987
  198MOL0     C26659   8.611   2.386   6.308 -0.3709  0.1739 -0.2959
  198MOL0     C26660   9.115   2.934   6.686  0.1351  0.1255 -0.2423
  198MOL0     C26661   9.045   3.059   6.700  0.2114 -0.0556  1.2556
  198MOL0     C26662   9.037   3.123   6.841 -0.5251 -0.3999  0.1158
  198MOL0     H26663   8.933   3.468   6.880 -0.8296 -3.4016 -0.1503
  198MOL0     H26664   8.795   3.682   6.941  1.1190 -0.6211  1.1995
  198MOL0     H26665   8.528   3.724   6.967  0.0340 -0.2742 -1.4804
  198MOL0     H26666   8.651   3.850   6.970 -0.8639 -0.2279  0.7730
  198MOL0     H26667   8.390   3.866   6.813 -2.6291 -2.2356  1.5048
  198MOL0     H26668   8.508   3.994   6.852 -0.6155  0.2720  2.5142
  198MOL0     H26669   8.424   3.974   7.095 -0.2479  0.1154 -0.7057
  198MOL0     H26670   8.351   3.824   7.062  1.6657  0.3903  1.1655
  198MOL0     H26671   8.273   4.088   6.943 -3.2886 -1.1009 -2.4321
  198MOL0     H26672   8.178   3.947   6.915 -1.2143 -1.1327  1.4805
  198MOL0     H26673   8.123   3.928   7.168 -0.7875  0.1646 -0.3931
  198MOL0     H26674   8.245   4.050   7.193 -0.1407 -1.1643  0.4986
  198MOL0     H26675   8.035   4.167   7.201 -0.7748 -1.4763 -0.4345
  198MOL0     H26676   8.105   4.194   7.031  2.8814 -3.2054 -2.8566
  198MOL0     H26677   7.907   3.981   7.110 -0.1251 -0.0380  0.3906
  198MOL0     H26678   7.970   4.028   6.950 -0.8573 -2.3804 -0.1593
  198MOL0     H26679   7.883   4.253   6.986 -0.6512  1.3052  1.4021
  198MOL0     H26680   7.759   4.128   6.955  0.0834 -3.9978  0.7653
  198MOL0     H26681   7.539   4.151   7.081  0.5035  1.9215 -2.5359
  198MOL0     H26682   7.399   4.127   7.366  1.0805 -0.7573  1.2902
  198MOL0     H26683   7.445   4.269   7.452  4.0736 -1.3811 -0.4008
  198MOL0     H26684   7.367   4.421   7.266 -3.8700  2.9468  1.4273
  198MOL0     H26685   7.315   4.275   7.175  0.8191  0.2222  0.2018
  198MOL0     H26686   7.127   4.384   7.269 -1.0963 -0.4150  0.2563
  198MOL0     H26687   7.183   4.343   7.432 -3.6494  1.2585 -0.2160
  198MOL0     H26688   7.191   4.097   7.349 -1.8216 -0.6406 -0.1331
  198MOL0     H26689   7.133   4.151   7.192  0.0837  0.1163  0.1934
  198MOL0     H26690   6.734   4.149   7.413  3.5144  0.6472  1.3206
  198MOL0     H26691   6.590   4.007   7.296  0.6411  0.6983  0.2863
  198MOL0     H26692   6.581   3.644   6.951 -0.1724  0.6331  1.3957
  198MOL0     H26693   6.502   3.478   6.829  1.1621  0.6458 -0.2610
  198MOL0     H26694   6.608   3.070   6.895  0.2200  0.8155 -0.7028
  198MOL0     H26695   6.465   3.042   6.983 -0.5638  0.3334 -0.0086
  198MOL0     H26696   6.394   2.937   6.784  2.5312 -1.0278 -1.5624
  198MOL0     H26697   6.346   3.101   6.752  1.5541  0.8707 -0.4164
  198MOL0     H26698   6.621   3.007   6.663 -0.7969  0.3692  1.2627
  198MOL0     H26699   6.489   2.978   6.556  3.5341  2.5852 -3.2868
  198MOL0     H26700   6.507   3.248   6.659  3.5185 -2.7906  2.4860
  198MOL0     H26701   6.452   3.182   6.499 -0.2591  2.1818  0.5526
  198MOL0     H26702   6.740   3.218   6.598 -1.3840 -0.9916  0.4315
  198MOL0     H26703   6.645   3.333   6.507 -0.7552  0.4615  0.9885
  198MOL0     H26704   6.734   3.047   6.419  2.6055  0.6887 -0.5380
  198MOL0     H26705   6.606   3.136   6.340  0.8304  1.6404 -1.1676
  198MOL0     H26706   6.771   3.312   6.281  1.3525 -0.2372 -2.5030
  198MOL0     H26707   6.809   3.156   6.216 -0.1841 -1.8018  0.9389
  198MOL0     H26708   6.927   3.253   6.459 -0.8035  3.6802 -1.1056
  198MOL0     H26709   6.975   3.114   6.364 -0.9130 -0.7947  0.8353
  198MOL0     H26710   6.538   3.204   7.152 -1.0230 -1.1988 -2.0937
  198MOL0     H26711   6.628   3.401   7.295 -1.8086  1.6713  0.5884
  198MOL0     H26712   6.919   3.760   7.173  2.0709  2.4451 -3.3437
  198MOL0     H26713   7.075   3.911   7.280  1.2562  1.5528  2.3250
  198MOL0     H26714   8.582   3.624   6.562  0.5319 -2.0490 -1.5889
  198MOL0     H26715   8.700   3.409   6.528 -0.8481  1.5914 -1.0383
  198MOL0     H26716   8.958   3.090   6.362 -1.5150  0.4191  0.8073
  198MOL0     H26717   9.043   2.853   6.370 -2.8477  3.0527 -1.6815
  198MOL0     H26718   9.194   2.553   6.496  1.0425  1.9373 -0.4430
  198MOL0     H26719   9.126   2.662   6.384  0.0689 -3.2252 -1.2107
  198MOL0     H26720   8.965   2.555   6.624  0.4952  1.0015  0.8010
  198MOL0     H26721   8.971   2.451   6.487 -0.7909  1.6753 -0.9922
  198MOL0     H26722   8.877   2.670   6.356  0.9753  1.3859 -0.4910
  198MOL0     H26723   8.850   2.721   6.510  1.8163 -0.2810  1.3918
  198MOL0     H26724   8.704   2.523   6.578 -0.2247  0.6545  1.1567
  198MOL0     H26725   8.642   2.656   6.484 -0.8887 -1.7233 -0.4849
  198MOL0     H26726   8.568   2.318   6.237  2.1732 -0.2879 -1.5276
  198MOL0     H26727   9.133   2.878   6.778 -1.7006  2.1781  1.4907
  198MOL0     H26728   9.072   3.225   6.824  1.0633 -0.7933  0.8591
  198MOL0     H26729   8.937   3.127   6.886 -0.9095 -0.3249 -0.7334
  198MOL0     H26730   9.104   3.073   6.911  0.9422  0.1080 -0.8854
  199MOL0     O26731   8.440  10.017   7.114  0.7238  0.2068 -1.1877
  199MOL0     C26732   8.437  10.138   7.099  0.6565  0.3908  0.1171
  199MOL0     O26733   8.432  10.229   7.208 -0.7398  0.5704  0.1683
  199MOL0     C26734   8.421  10.173   7.332  0.6268 -0.1864 -0.3545
  199MOL0     C26735   8.349  10.060   7.384  0.5712  0.5771 -1.4119
  199MOL0     C26736   8.364  10.020   7.518  0.3428  0.3396  0.1811
  199MOL0     C26737   8.451  10.087   7.597  0.6399  0.5831  0.2158
  199MOL0     O26738   8.470  10.034   7.724  0.2293 -0.4705 -0.1564
  199MOL0     C26739   8.594   9.962   7.743  0.1177 -0.3214  0.1251
  199MOL0     C26740   8.613   9.931   7.897 -0.2105 -0.0555  0.5505
  199MOL0     C26741   8.559   9.790   7.913 -0.5521  0.0352 -0.3899
  199MOL0     C26742   8.532   9.782   8.070 -0.6796 -0.4065 -0.7324
  199MOL0     C26743   8.545   9.639   8.117  0.4233 -0.2770  0.1160
  199MOL0     C26744   8.695   9.608   8.144  0.2549  0.3393 -0.2488
  199MOL0     C26745   8.739   9.461   8.136 -0.0408  0.0133 -0.6991
  199MOL0     C26746   8.689   9.386   8.261 -0.7872  0.0012 -0.5706
  199MOL0     N26747   8.764   9.426   8.383 -0.2204 -0.5631 -0.8020
  199MOL0     C26748   8.903   9.415   8.396  1.1062 -0.1845  0.2736
  199MOL0     C26749   8.922   9.447   8.531 -0.4775  1.4105  0.0497
  199MOL0     C26750   9.056   9.442   8.592  0.1760 -0.3994  0.5061
  199MOL0     C26751   9.055   9.362   8.725 -0.1794  1.4248  0.0269
  199MOL0     C26752   9.050   9.436   8.859  0.6384  0.3429 -0.0536
  199MOL0     C26753   8.910   9.503   8.877 -0.6496 -0.4427  0.1664
  199MOL0     O26754   8.899   9.554   9.011 -0.1820  0.3333  0.5164
  199MOL0     C26755   8.769   9.573   9.058  0.3427 -0.0830 -0.4688
  199MOL0     C26756   8.751   9.544   9.197  0.2941 -0.2138  0.7594
  199MOL0     C26757   8.626   9.556   9.265 -0.1927 -1.0828 -0.7941
  199MOL0     C26758   8.515   9.597   9.183 -0.0765 -0.5370 -0.1902
  199MOL0     C26759   8.384   9.612   9.259  0.5798 -0.4000 -0.8509
  199MOL0     O26760   8.277   9.665   9.186  0.5312  0.3703 -0.1432
  199MOL0     C26761   8.158   9.697   9.246 -1.2853  0.5050  0.3444
  199MOL0     C26762   8.132   9.738   9.376 -0.3177 -0.7582 -0.1796
  199MOL0     C26763   7.996   9.761   9.417  0.2932  0.1137 -0.2339
  199MOL0     C26764   7.887   9.725   9.322  0.7550 -1.0750  0.1762
  199MOL0     O26765   7.754   9.736   9.361 -0.5315 -0.1751  0.2577
  199MOL0     C26766   7.662   9.624   9.336 -0.1639  0.8300  0.8914
  199MOL0     C26767   7.522   9.669   9.349  1.3704  0.4818  0.2429
  199MOL0     C26768   7.412   9.565   9.353  0.0583 -0.2947 -1.5345
  199MOL0     C26769   7.440   9.450   9.252 -0.0429  0.2309  0.0042
  199MOL0     C26770   7.313   9.376   9.210 -0.1421  0.2811 -1.0241
  199MOL0     C26771   7.240   9.457   9.103 -0.3475 -0.9319  0.6401
  199MOL0     C26772   7.121   9.380   9.049  0.6710  0.7861 -0.0843
  199MOL0     C26773   7.152   9.312   8.919 -0.6695  0.9940  0.0197
  199MOL0    Cl26774   7.215   9.143   8.945  0.0626 -0.2026 -0.2029
  199MOL0     C26775   7.918   9.688   9.196 -0.5700 -0.1606 -0.0376
  199MOL0     C26776   8.055   9.675   9.160  0.5522 -0.2840 -0.6739
  199MOL0     O26777   8.370   9.581   9.380  0.0401  0.8610  0.2982
  199MOL0     C26778   8.538   9.624   9.045  0.0734  0.2637  0.1948
  199MOL0     C26779   8.664   9.616   8.982 -0.2573 -1.1141 -0.6250
  199MOL0     N26780   8.796   9.459   8.591 -0.7299  0.2270  0.3693
  199MOL0     N26781   8.706   9.465   8.503  0.3005  0.6692  0.7837
  199MOL0     C26782   8.530  10.186   7.545  0.8835 -0.4955  0.5861
  199MOL0     C26783   8.515  10.242   7.416  0.5164  0.2906  0.8981
  199MOL0     C26784   8.443  10.197   6.963  0.1695  1.1246 -0.3317
  199MOL0     C26785   8.435  10.334   6.955  0.4758  0.9546  0.1568
  199MOL0     C26786   8.439  10.405   6.832  0.1357 -0.2862 -0.4900
  199MOL0     C26787   8.446  10.335   6.714 -0.4642  0.8304  0.7847
  199MOL0     O26788   8.435  10.389   6.584  0.0882 -0.2204  0.0601
  199MOL0     C26789   8.365  10.308   6.484  0.1222 -0.9919 -0.0198
  199MOL0     C26790   8.336  10.390   6.356 -1.5604  0.7642  0.1879
  199MOL0     C26791   8.452  10.478   6.303  0.3087  0.4893 -0.9050
  199MOL0     C26792   8.411  10.523   6.162 -0.2628 -0.4891 -0.1874
  199MOL0     C26793   8.505  10.616   6.099 -0.1243  0.6048  0.0904
  199MOL0     C26794   8.586  10.689   6.056 -0.3670  1.6022  0.5236
  199MOL0     C26795   8.456  10.195   6.723  0.0803 -0.3520  0.1840
  199MOL0     C26796   8.461  10.126   6.849 -0.3501  0.5580  0.5576
  199MOL0     C26797   8.459   9.978   6.830  0.4851 -0.7412 -0.0554
  199MOL0     H26798   8.281  10.007   7.318 -1.2420 -0.5782  1.2281
  199MOL0     H26799   8.308   9.939   7.563  2.0024 -0.9233  0.0439
  199MOL0     H26800   8.600   9.872   7.681  1.4883 -0.1589  0.0046
  199MOL0     H26801   8.671  10.034   7.715 -0.0786  0.5978  1.8250
  199MOL0     H26802   8.558  10.001   7.962 -2.2226 -1.7136  0.7079
  199MOL0     H26803   8.722   9.932   7.908  0.3280 -0.4707 -3.4261
  199MOL0     H26804   8.637   9.722   7.877 -0.8706 -0.4432 -0.1910
  199MOL0     H26805   8.471   9.764   7.853 -1.2616  2.3681 -0.4315
  199MOL0     H26806   8.600   9.848   8.126 -3.4565  0.2692  2.1493
  199MOL0     H26807   8.435   9.828   8.088 -2.4679 -3.4363 -1.9729
  199MOL0     H26808   8.482   9.632   8.206 -0.7520  2.8357 -0.3563
  199MOL0     H26809   8.495   9.584   8.037 -1.9968  1.7303  0.1049
  199MOL0     H26810   8.747   9.664   8.065 -0.4589  2.9795  1.0374
  199MOL0     H26811   8.722   9.643   8.244 -1.4000 -1.3255  0.8366
  199MOL0     H26812   8.847   9.459   8.122  0.4027 -0.3908  2.1262
  199MOL0     H26813   8.690   9.409   8.053 -3.1756 -1.3220  1.7198
  199MOL0     H26814   8.585   9.413   8.278 -0.8680 -1.3053  1.3152
  199MOL0     H26815   8.697   9.278   8.248  1.7207  0.2635 -1.9238
  199MOL0     H26816   8.976   9.393   8.318  0.7527 -2.8910  0.6183
  199MOL0     H26817   9.119   9.393   8.518 -0.1847  0.5804 -0.4741
  199MOL0     H26818   9.096   9.542   8.607 -0.9879  0.4311 -1.4787
  199MOL0     H26819   8.990   9.275   8.709  1.3280  0.6724 -2.6660
  199MOL0     H26820   9.150   9.309   8.732 -0.6519  0.7114  1.5099
  199MOL0     H26821   9.129   9.512   8.853  0.5719  0.4287  0.1688
  199MOL0     H26822   9.089   9.369   8.936 -0.1515  0.9619  0.8928
  199MOL0     H26823   8.831   9.429   8.866  0.0251 -1.2232  0.4654
  199MOL0     H26824   8.892   9.575   8.797  0.8426 -2.3305 -1.9771
  199MOL0     H26825   8.842   9.516   9.249  1.4103 -0.2133 -1.0939
  199MOL0     H26826   8.620   9.530   9.370 -0.0033  3.6500  0.6309
  199MOL0     H26827   8.209   9.764   9.448 -0.4121  0.6048 -0.5445
  199MOL0     H26828   7.954   9.792   9.511 -1.2350 -2.6611  0.0942
  199MOL0     H26829   7.687   9.587   9.236  1.9379 -0.5455  1.8549
  199MOL0     H26830   7.690   9.533   9.391 -1.1781 -2.2780 -3.2456
  199MOL0     H26831   7.512   9.734   9.436  0.4759  1.2829 -0.4319
  199MOL0     H26832   7.506   9.737   9.265 -0.8423  3.0724  2.5579
  199MOL0     H26833   7.386   9.534   9.455  0.8474 -2.1156 -1.8631
  199MOL0     H26834   7.328   9.627   9.319 -1.2525 -0.5714  0.9704
  199MOL0     H26835   7.522   9.381   9.275 -1.8741 -5.0480 -6.3428
  199MOL0     H26836   7.471   9.502   9.161  1.8998  0.9878  1.0428
  199MOL0     H26837   7.240   9.352   9.287 -2.8063  0.2781 -3.4047
  199MOL0     H26838   7.361   9.288   9.166 -0.0772 -1.5226  2.3174
  199MOL0     H26839   7.201   9.542   9.160  1.1136  0.7917 -0.8119
  199MOL0     H26840   7.305   9.497   9.025  0.2846 -3.8301 -0.4516
  199MOL0     H26841   7.042   9.451   9.024 -0.5058 -0.6274 -0.4937
  199MOL0     H26842   7.074   9.312   9.121 -1.1272  3.9490  1.9553
  199MOL0     H26843   7.065   9.302   8.854  0.7096  0.7407 -1.9087
  199MOL0     H26844   7.223   9.376   8.866 -0.5248  0.3657 -0.5635
  199MOL0     H26845   7.853   9.659   9.115  0.3103 -2.5017  0.0238
  199MOL0     H26846   8.075   9.667   9.054  1.0989 -0.2396 -0.5805
  199MOL0     H26847   8.450   9.649   8.987 -0.2046  1.2343  1.0165
  199MOL0     H26848   8.678   9.657   8.883 -2.6212  2.0052  0.1810
  199MOL0     H26849   8.601  10.238   7.608  0.8302  0.5096 -0.1621
  199MOL0     H26850   8.570  10.329   7.383 -0.4762  0.5566 -0.0900
  199MOL0     H26851   8.433  10.391   7.048 -2.8850  0.5424  0.4677
  199MOL0     H26852   8.429  10.512   6.823 -0.5300 -0.0365  2.4522
  199MOL0     H26853   8.272  10.276   6.531 -1.2808  2.9124  0.2663
  199MOL0     H26854   8.426  10.220   6.461  2.5662  0.4708  0.5004
  199MOL0     H26855   8.250  10.454   6.378 -1.3492  0.4946  1.9549
  199MOL0     H26856   8.307  10.317   6.280 -1.2720  0.0906  0.7128
  199MOL0     H26857   8.545  10.422   6.299 -0.1498 -0.8056  2.8341
  199MOL0     H26858   8.469  10.564   6.368 -2.5498  0.1696  0.4064
  199MOL0     H26859   8.421  10.433   6.100  2.0877  0.0560 -0.7150
  199MOL0     H26860   8.306  10.553   6.157 -0.4530 -1.1455 -0.2997
  199MOL0     H26861   8.667  10.753   6.028 -1.7328  3.0248 -0.3328
  199MOL0     H26862   8.468  10.128   6.639 -1.2697 -0.2193 -0.1264
  199MOL0     H26863   8.534   9.923   6.888  1.4191  2.4851  2.0369
  199MOL0     H26864   8.362   9.939   6.861  0.8271 -1.6342 -0.0782
  199MOL0     H26865   8.467   9.945   6.726 -4.5761  4.9873 -2.8602
  200MOL0     O26866  10.233   1.490  10.788  0.1007 -0.9418  0.1336
  200MOL0     C26867  10.152   1.411  10.839  0.0241 -0.8089  0.7290
  200MOL0     O26868  10.160   1.274  10.822  0.0639  0.0474  0.3462
  200MOL0     C26869  10.244   1.212  10.726 -0.1835  0.4272  0.0452
  200MOL0     C26870  10.324   1.274  10.630 -0.4580  0.1101 -0.9093
  200MOL0     C26871  10.417   1.201  10.556  0.5718 -1.1864 -0.3854
  200MOL0     C26872  10.413   1.060  10.559 -1.0319 -0.3047 -0.1087
  200MOL0     O26873  10.492   0.994  10.464  0.2160 -0.0573  0.3443
  200MOL0     C26874  10.538   0.864  10.491  0.0763 -0.2498  0.0946
  200MOL0     C26875  10.659   0.842  10.410 -0.6467 -0.6058 -0.2421
  200MOL0     C26876  10.776   0.917  10.473 -0.8130  0.5141 -0.2998
  200MOL0     C26877  10.878   0.948  10.362 -0.4416  1.0178 -1.0389
  200MOL0     C26878  10.998   1.017  10.410 -0.7917  0.8543 -0.2027
  200MOL0     C26879  11.110   1.033  10.303  0.1861  0.2893 -0.9051
  200MOL0     C26880  11.089   1.143  10.203 -0.2088  0.3364  0.4799
  200MOL0     C26881  11.035   1.279  10.238  0.3071  0.2541 -0.9005
  200MOL0     N26882  10.897   1.272  10.273  1.2840  0.4158  0.6171
  200MOL0     C26883  10.796   1.261  10.173 -0.9334  0.7102  0.2859
  200MOL0     C26884  10.685   1.287  10.235  0.2378  0.0282  0.5167
  200MOL0     C26885  10.547   1.253  10.175 -0.8715  0.2921 -0.2912
  200MOL0     C26886  10.502   1.341  10.059  0.0105 -0.5010  0.0296
  200MOL0     C26887  10.407   1.449  10.109 -0.0021  0.1746 -0.0186
  200MOL0     C26888  10.475   1.571  10.179  0.0209  0.5357  0.7941
  200MOL0     O26889  10.529   1.640  10.062  0.2109  0.2455 -0.4813
  200MOL0     C26890  10.481   1.764  10.021 -0.9690 -0.2091  0.3567
  200MOL0     C26891  10.544   1.832   9.920 -1.0476  0.0489 -0.1796
  200MOL0     C26892  10.497   1.943   9.854  0.2176 -0.2238 -0.5187
  200MOL0     C26893  10.369   1.992   9.883 -0.6471 -0.5490 -0.8314
  200MOL0     C26894  10.307   2.089   9.789  0.6375 -0.9175 -0.5685
  200MOL0     O26895  10.385   2.151   9.695  0.0639 -0.7273 -0.9913
  200MOL0     C26896  10.341   2.189   9.569  0.6508 -0.4863  0.0900
  200MOL0     C26897  10.388   2.311   9.511 -0.3728  0.0401  0.1591
  200MOL0     C26898  10.350   2.355   9.379 -0.2667 -0.4621  0.7151
  200MOL0     C26899  10.247   2.292   9.312 -0.1557  0.3628 -0.8152
  200MOL0     O26900  10.226   2.329   9.181  0.2956  0.1397  0.0032
  200MOL0     C26901  10.129   2.281   9.089  1.0022 -0.3643  1.4571
  200MOL0     C26902  10.167   2.343   8.953  0.8006  0.1209  0.5236
  200MOL0     C26903  10.046   2.330   8.870  0.1474  0.9253  0.7827
  200MOL0     C26904  10.085   2.392   8.729 -1.0373  0.4544 -0.1849
  200MOL0     C26905   9.984   2.370   8.619 -0.4792 -0.5613 -0.6304
  200MOL0     C26906   9.857   2.440   8.645  1.2157  0.1529  1.3666
  200MOL0     C26907   9.865   2.601   8.638 -0.0718 -0.4252  1.1938
  200MOL0     C26908   9.736   2.667   8.681  0.1720 -0.5696  0.2850
  200MOL0    Cl26909   9.582   2.623   8.587 -0.2559 -0.0592 -0.0300
  200MOL0     C26910  10.189   2.180   9.381  0.5270 -0.2006 -0.7634
  200MOL0     C26911  10.244   2.119   9.493  0.4800 -0.6793 -0.3770
  200MOL0     O26912  10.186   2.100   9.795 -0.2407  0.3959  0.7720
  200MOL0     C26913  10.308   1.935   9.999  0.4698  0.0179  0.2206
  200MOL0     C26914  10.358   1.812  10.055 -0.8386 -0.3657  0.8208
  200MOL0     N26915  10.711   1.320  10.366  0.0499  0.7078  0.8470
  200MOL0     N26916  10.835   1.304  10.394 -0.7296  0.3682 -0.3038
  200MOL0     C26917  10.318   0.997  10.643 -1.3342  0.1183 -0.6298
  200MOL0     C26918  10.237   1.070  10.726 -0.2172 -0.2744 -0.5087
  200MOL0     C26919  10.071   1.463  10.939  0.8073  0.1141  0.2906
  200MOL0     C26920  10.056   1.392  11.058 -0.2957 -0.2616 -0.8951
  200MOL0     C26921   9.981   1.434  11.166  0.3440 -0.0778 -0.6951
  200MOL0     C26922   9.911   1.553  11.153 -0.2881  0.2579 -0.4921
  200MOL0     O26923   9.843   1.605  11.255  0.1559  0.0707 -0.0516
  200MOL0     C26924   9.701   1.568  11.241  0.2272  0.3259 -0.4323
  200MOL0     C26925   9.617   1.653  11.141 -0.7479  1.4825 -0.1859
  200MOL0     C26926   9.584   1.789  11.198 -0.2610 -0.1670 -0.5361
  200MOL0     C26927   9.452   1.837  11.162 -0.0797  0.4894  0.0094
  200MOL0     C26928   9.445   1.862  11.015  0.5545 -0.0381  0.5692
  200MOL0     C26929   9.465   1.879  10.898 -0.3550 -0.2348  0.1300
  200MOL0     C26930   9.928   1.631  11.042 -0.0694  1.0081  0.0877
  200MOL0     C26931   9.988   1.582  10.926 -0.1137 -0.5554 -0.1313
  200MOL0     C26932   9.977   1.654  10.797  0.2005  0.5627  0.2936
  200MOL0     H26933  10.320   1.382  10.617  1.2250  0.2545 -0.4645
  200MOL0     H26934  10.481   1.270  10.501 -0.4451  0.3696  0.3243
  200MOL0     H26935  10.546   0.846  10.599 -1.0933 -3.3743 -0.2071
  200MOL0     H26936  10.462   0.797  10.449 -0.2260 -0.2277  0.5876
  200MOL0     H26937  10.635   0.893  10.317  1.9218  1.6936  0.2253
  200MOL0     H26938  10.675   0.734  10.412  0.7377 -0.4292 -0.8102
  200MOL0     H26939  10.814   0.855  10.554  1.6208 -1.6391 -2.8585
  200MOL0     H26940  10.740   1.012  10.514 -0.8096 -0.5907  2.4655
  200MOL0     H26941  10.926   0.855  10.328  2.1083  2.6007 -2.0279
  200MOL0     H26942  10.832   1.001  10.278 -1.8768 -2.7972 -2.9129
  200MOL0     H26943  10.982   1.108  10.468 -1.4514  1.4951 -1.3595
  200MOL0     H26944  11.043   0.958  10.491  0.8463  1.1193 -0.8680
  200MOL0     H26945  11.201   1.064  10.356 -0.2110  0.9653 -0.6052
  200MOL0     H26946  11.132   0.941  10.248 -2.5465  0.8689 -3.1466
  200MOL0     H26947  11.022   1.107  10.124  0.4430 -2.3532  1.0705
  200MOL0     H26948  11.178   1.156  10.140 -0.3853  2.1796  0.5399
  200MOL0     H26949  11.108   1.302  10.317  0.3330 -3.3225  0.3260
  200MOL0     H26950  11.044   1.364  10.170  1.5822  3.1253  2.5340
  200MOL0     H26951  10.806   1.231  10.069 -1.7067  1.6311 -0.0691
  200MOL0     H26952  10.550   1.148  10.144 -0.3095  1.0577 -3.0563
  200MOL0     H26953  10.479   1.256  10.261  1.3358  0.6705  1.5508
  200MOL0     H26954  10.591   1.369  10.003 -0.1905  1.3135  0.5223
  200MOL0     H26955  10.443   1.276   9.994 -0.4705 -0.4747  0.4286
  200MOL0     H26956  10.332   1.402  10.173  1.0002  1.8623  2.5549
  200MOL0     H26957  10.346   1.468  10.020  1.0202  1.2296 -0.5327
  200MOL0     H26958  10.568   1.526  10.215 -0.6624 -2.9855 -1.3125
  200MOL0     H26959  10.423   1.627  10.257 -0.5575 -1.0038  1.5620
  200MOL0     H26960  10.646   1.801   9.900 -1.1375 -0.2440 -0.1978
  200MOL0     H26961  10.557   1.979   9.771 -1.7793  1.6085 -1.2654
  200MOL0     H26962  10.450   2.377   9.572 -0.7618  0.5627 -0.0029
  200MOL0     H26963  10.394   2.447   9.344  1.0818  0.2544  3.8927
  200MOL0     H26964  10.127   2.172   9.087 -2.6821 -0.4154  1.4664
  200MOL0     H26965  10.027   2.314   9.112 -1.1945 -1.5223 -4.7124
  200MOL0     H26966  10.190   2.448   8.974  3.4813 -0.3433  0.2440
  200MOL0     H26967  10.245   2.284   8.904  2.0182  0.8499  1.5166
  200MOL0     H26968  10.014   2.225   8.861  5.7850 -0.9572 -2.6917
  200MOL0     H26969   9.974   2.396   8.918  1.2673  2.5466  0.2914
  200MOL0     H26970  10.174   2.342   8.691 -0.0838  1.5288  0.5691
  200MOL0     H26971  10.112   2.496   8.751  2.7454 -1.1282  4.3143
  200MOL0     H26972   9.980   2.262   8.602  1.2148 -0.5609 -1.2436
  200MOL0     H26973  10.029   2.406   8.526  1.0726 -3.5839 -1.2001
  200MOL0     H26974   9.784   2.404   8.571  0.2117 -0.7823  2.7558
  200MOL0     H26975   9.819   2.407   8.742  0.5632  2.1942  1.8478
  200MOL0     H26976   9.870   2.630   8.532 -2.6426 -0.6179  0.9705
  200MOL0     H26977   9.952   2.630   8.699 -0.9585  2.5259  1.2389
  200MOL0     H26978   9.717   2.633   8.783 -4.2600  0.1942 -0.0665
  200MOL0     H26979   9.739   2.776   8.669 -2.3876 -0.7103 -3.2854
  200MOL0     H26980  10.108   2.129   9.330  0.4348 -3.1704  1.9932
  200MOL0     H26981  10.195   2.035   9.541 -2.9389  3.6176  4.8773
  200MOL0     H26982  10.214   1.984  10.023 -1.3966 -2.8198 -0.7885
  200MOL0     H26983  10.296   1.754  10.123  0.8462 -1.2711  1.6418
  200MOL0     H26984  10.304   0.890  10.631  0.6342 -0.3540  0.9121
  200MOL0     H26985  10.155   1.031  10.787 -1.1634  0.7543 -1.0916
  200MOL0     H26986  10.110   1.299  11.070 -2.0818 -1.6952 -3.1031
  200MOL0     H26987   9.985   1.393  11.267 -1.6902  2.6406  0.6166
  200MOL0     H26988   9.663   1.583  11.342 -0.8668  0.7402 -0.8869
  200MOL0     H26989   9.683   1.468  11.201  2.5372  0.4481 -1.9474
  200MOL0     H26990   9.523   1.599  11.129 -1.8608  2.9322  1.5200
  200MOL0     H26991   9.661   1.657  11.041  1.3818 -3.4286  0.2548
  200MOL0     H26992   9.657   1.857  11.151  1.8862 -2.7496 -1.2145
  200MOL0     H26993   9.609   1.798  11.304 -1.3537 -0.3460 -0.2599
  200MOL0     H26994   9.384   1.763  11.205 -0.9616 -0.0780 -2.2016
  200MOL0     H26995   9.434   1.928  11.220 -3.2250  0.2127 -0.3582
  200MOL0     H26996   9.476   1.887  10.792 -3.9702 -0.7097 -0.3888
  200MOL0     H26997   9.869   1.722  11.037  0.3511  1.2185 -2.9504
  200MOL0     H26998   9.900   1.728  10.773  0.0636  0.2546 -0.2549
  200MOL0     H26999  10.078   1.695  10.791 -0.7679  3.5920  2.3651
  200MOL0     H27000   9.977   1.567  10.730  1.9627 -2.0931  3.4625
  201MOL0     O27001   9.166   2.353  10.792 -0.1789 -0.0595  0.0042
  201MOL0     C27002   9.219   2.300  10.699 -0.5144  0.6244 -1.0968
  201MOL0     O27003   9.186   2.182  10.647 -0.1952  0.7716 -0.1563
  201MOL0     C27004   9.077   2.125  10.709 -0.0682  0.1891  0.1907
  201MOL0     C27005   9.068   2.042  10.825 -0.6397 -0.9819  0.1540
  201MOL0     C27006   8.945   1.994  10.867 -0.8810  0.4659 -0.2053
  201MOL0     C27007   8.831   2.020  10.797 -0.8272  0.9648  0.0080
  201MOL0     O27008   8.706   1.969  10.825  0.1187  0.2659  0.3692
  201MOL0     C27009   8.700   1.840  10.877 -0.2629 -0.1884 -0.9423
  201MOL0     C27010   8.587   1.756  10.809 -0.5365  0.1416 -0.2952
  201MOL0     C27011   8.558   1.619  10.870 -0.7981 -0.7426 -0.5148
  201MOL0     C27012   8.464   1.531  10.790  0.7748  0.3125 -0.3605
  201MOL0     C27013   8.445   1.389  10.862  0.8161 -0.9377 -0.2100
  201MOL0     C27014   8.362   1.399  10.991  0.6649  0.2611 -0.0953
  201MOL0     C27015   8.283   1.274  11.033 -0.3501  0.1420  0.5839
  201MOL0     C27016   8.141   1.314  11.087  0.0201 -0.0540  0.7090
  201MOL0     N27017   8.058   1.203  11.126 -0.6809 -0.5683  0.9783
  201MOL0     C27018   7.939   1.170  11.081  0.7594 -1.1872 -0.3594
  201MOL0     C27019   7.901   1.073  11.163  0.4293 -0.5598 -0.5218
  201MOL0     C27020   7.778   0.994  11.180  0.0346  0.1802  0.4818
  201MOL0     C27021   7.670   1.012  11.071 -0.6333  0.4463 -1.1423
  201MOL0     C27022   7.572   0.892  11.089 -0.3380 -0.2660  0.0874
  201MOL0     C27023   7.641   0.770  11.020  0.7871  0.1881 -0.5842
  201MOL0     O27024   7.558   0.655  11.014 -0.2899 -0.4198 -0.4649
  201MOL0     C27025   7.487   0.633  10.901 -0.4848 -0.2364  0.5019
  201MOL0     C27026   7.472   0.728  10.798  1.0313  0.6110  0.4499
  201MOL0     C27027   7.413   0.685  10.690 -0.3370  0.1108  0.3046
  201MOL0     C27028   7.358   0.561  10.669 -0.0191  1.2760  0.0131
  201MOL0     C27029   7.279   0.532  10.544  0.0102 -0.4113 -0.3338
  201MOL0     O27030   7.319   0.415  10.499 -0.5256  0.7106 -0.8127
  201MOL0     C27031   7.243   0.365  10.389 -0.3249 -0.4574 -0.2563
  201MOL0     C27032   7.269   0.402  10.255 -0.8507  0.8248 -0.7533
  201MOL0     C27033   7.192   0.343  10.159  0.2523 -1.3509 -0.1280
  201MOL0     C27034   7.091   0.254  10.187 -0.0205  0.9637  0.2604
  201MOL0     O27035   7.016   0.181  10.094  0.3626  0.3132 -0.7003
  201MOL0     C27036   7.058   0.151   9.965 -0.0233  0.2606 -0.2883
  201MOL0     C27037   6.965   0.187   9.849  0.1710 -0.3299  0.4986
  201MOL0     C27038   6.825   0.145   9.874 -0.3064  0.6589  0.8075
  201MOL0     C27039   6.728   0.147   9.759 -0.7291  1.7145 -0.0820
  201MOL0     C27040   6.696   0.285   9.700  0.2338  0.9854 -0.6201
  201MOL0     C27041   6.615   0.279   9.573 -0.3572  0.4887 -0.6163
  201MOL0     C27042   6.573   0.420   9.522 -0.5821  0.1860 -0.3076
  201MOL0     C27043   6.511   0.409   9.384 -0.3184  0.0519 -0.5207
  201MOL0    Cl27044   6.469   0.572   9.321  0.4819  0.0763 -0.2612
  201MOL0     C27045   7.050   0.235  10.320 -1.0222  0.4635 -0.3939
  201MOL0     C27046   7.129   0.294  10.421 -1.2387 -0.3393 -0.4653
  201MOL0     O27047   7.212   0.617  10.491 -0.0161 -0.6853  0.6009
  201MOL0     C27048   7.391   0.469  10.764  0.6889  0.3925  0.9950
  201MOL0     C27049   7.455   0.498  10.880 -0.0200 -1.0301  0.1589
  201MOL0     N27050   7.994   1.048  11.259  0.5832 -0.7837 -0.8595
  201MOL0     N27051   8.086   1.140  11.241  0.1896  0.6084  0.3503
  201MOL0     C27052   8.829   2.099  10.685  0.2822  0.0565  1.0737
  201MOL0     C27053   8.947   2.157  10.644  0.6504 -0.9018 -0.1544
  201MOL0     C27054   9.332   2.367  10.633 -0.2516 -1.2989  0.0646
  201MOL0     C27055   9.313   2.506  10.614  0.3792  0.6197  0.3055
  201MOL0     C27056   9.407   2.583  10.554  0.2242  0.4721  0.9252
  201MOL0     C27057   9.526   2.523  10.500 -0.6682  0.0926 -0.8644
  201MOL0     O27058   9.631   2.591  10.443  0.5789  0.0445 -0.5513
  201MOL0     C27059   9.644   2.737  10.447  0.1212  0.3113 -0.5660
  201MOL0     C27060   9.589   2.804  10.320  0.7910 -0.4840 -0.1104
  201MOL0     C27061   9.694   2.772  10.210 -0.0281 -0.4653  0.4619
  201MOL0     C27062   9.662   2.649  10.122  0.0929 -0.1960  0.5632
  201MOL0     C27063   9.548   2.656  10.028 -0.6643 -0.1342  0.6226
  201MOL0     C27064   9.440   2.663   9.968 -1.0464  0.3873 -0.5329
  201MOL0     C27065   9.545   2.388  10.517 -0.6297 -0.7221 -0.2656
  201MOL0     C27066   9.460   2.315  10.596  0.1365  0.2352 -0.3350
  201MOL0     C27067   9.495   2.169  10.619 -0.4582  0.0594 -0.4645
  201MOL0     H27068   9.165   2.018  10.866  0.4132  1.9371 -0.4232
  201MOL0     H27069   8.934   1.915  10.940 -1.0934 -1.1625 -1.9368
  201MOL0     H27070   8.792   1.780  10.879 -0.9960 -1.3324 -1.0965
  201MOL0     H27071   8.674   1.866  10.980 -3.1770 -1.5368 -1.2520
  201MOL0     H27072   8.616   1.737  10.706 -3.0899 -1.6839 -0.7724
  201MOL0     H27073   8.500   1.822  10.819  0.2675  1.2140 -0.2137
  201MOL0     H27074   8.522   1.625  10.973 -2.2563 -1.8145 -0.9182
  201MOL0     H27075   8.647   1.558  10.883  0.0635  0.1730 -1.8792
  201MOL0     H27076   8.364   1.574  10.782  1.0722  1.3983  1.2568
  201MOL0     H27077   8.504   1.520  10.688 -2.2094 -0.5873 -1.5511
  201MOL0     H27078   8.390   1.326  10.792 -0.5272  0.8632 -0.8580
  201MOL0     H27079   8.549   1.359  10.878  1.5160  1.3130 -0.1821
  201MOL0     H27080   8.405   1.462  11.069 -0.4764 -0.9574  1.5893
  201MOL0     H27081   8.283   1.470  10.964 -0.8899 -1.3802 -0.0767
  201MOL0     H27082   8.340   1.228  11.113  0.7603  0.5489  0.0540
  201MOL0     H27083   8.266   1.209  10.946 -2.7573  0.7572  0.5204
  201MOL0     H27084   8.166   1.364  11.181  0.6407  3.7228 -1.2739
  201MOL0     H27085   8.082   1.384  11.029  0.3928 -0.8531 -0.6936
  201MOL0     H27086   7.869   1.224  11.017 -0.5585 -2.0593  0.2922
  201MOL0     H27087   7.815   0.891  11.185  0.2675  0.2627  0.4577
  201MOL0     H27088   7.733   1.014  11.278 -3.1775 -0.0161 -0.8196
  201MOL0     H27089   7.617   1.105  11.090 -3.6177  0.2162 -6.5317
  201MOL0     H27090   7.710   1.026  10.970  0.0561  0.4143 -0.8764
  201MOL0     H27091   7.472   0.923  11.058  0.0777  2.1329  0.9861
  201MOL0     H27092   7.559   0.884  11.197 -0.9814  2.0814  0.2259
  201MOL0     H27093   7.723   0.735  11.083 -0.6761 -1.2958  0.5663
  201MOL0     H27094   7.685   0.799  10.923  1.1742  0.6338 -0.2814
  201MOL0     H27095   7.504   0.832  10.798  0.9002  0.6632 -0.5367
  201MOL0     H27096   7.418   0.758  10.610 -2.2499 -0.2794 -0.2082
  201MOL0     H27097   7.350   0.470  10.229 -0.4398  1.7475  2.4856
  201MOL0     H27098   7.220   0.371  10.058  2.5848  1.6725  1.2029
  201MOL0     H27099   7.153   0.198   9.940  1.0617 -1.2152  0.8925
  201MOL0     H27100   7.076   0.043   9.964  0.7595  0.3722 -2.6748
  201MOL0     H27101   6.954   0.294   9.827 -0.8413 -0.7774 -1.3922
  201MOL0     H27102   7.003   0.139   9.759  1.1277  3.4436 -1.3135
  201MOL0     H27103   6.831   0.050   9.927  0.1048 -0.0955 -0.5406
  201MOL0     H27104   6.792   0.217   9.950 -0.1223  0.8813  0.6796
  201MOL0     H27105   6.625   0.113   9.774 -0.7962  1.7707 -0.3985
  201MOL0     H27106   6.776   0.084   9.684  0.2788  0.5763  1.4740
  201MOL0     H27107   6.788   0.338   9.674  0.8508 -1.0528 -3.0159
  201MOL0     H27108   6.654   0.355   9.773  1.4444 -0.1016  1.1971
  201MOL0     H27109   6.666   0.217   9.499  1.1574 -1.2222  1.7046
  201MOL0     H27110   6.525   0.224   9.602 -0.0534  1.0415  1.5583
  201MOL0     H27111   6.664   0.478   9.503 -1.8785  1.3600 -3.4789
  201MOL0     H27112   6.507   0.478   9.587 -0.0996  0.9615 -0.4919
  201MOL0     H27113   6.595   0.373   9.323  0.2640  1.1201 -0.3791
  201MOL0     H27114   6.432   0.334   9.377  2.2592 -2.7887 -1.5219
  201MOL0     H27115   6.963   0.179  10.353 -1.9016 -0.6032 -4.0399
  201MOL0     H27116   7.089   0.274  10.520 -0.7444 -0.1571 -0.2293
  201MOL0     H27117   7.358   0.370  10.735 -2.4558  2.2601 -2.7494
  201MOL0     H27118   7.480   0.420  10.952 -1.8524  0.0427  2.0740
  201MOL0     H27119   8.739   2.116  10.627  1.9875  0.8816 -1.5224
  201MOL0     H27120   8.958   2.233  10.567  2.9560  3.4952  3.9322
  201MOL0     H27121   9.225   2.557  10.655 -1.5606 -1.7360 -0.7016
  201MOL0     H27122   9.389   2.689  10.538  1.8264  0.3707 -2.5559
  201MOL0     H27123   9.749   2.765  10.457  0.8485 -2.3769 -0.0746
  201MOL0     H27124   9.605   2.774  10.542 -0.4308 -1.9641  0.1509
  201MOL0     H27125   9.587   2.912  10.337  3.9437 -0.7341  2.9692
  201MOL0     H27126   9.487   2.769  10.300 -0.1711  1.5538  0.8293
  201MOL0     H27127   9.794   2.760  10.251  0.8065 -0.4543 -1.4549
  201MOL0     H27128   9.707   2.851  10.135 -0.2016 -1.2720 -0.4447
  201MOL0     H27129   9.747   2.635  10.055 -2.0670  1.0727 -2.6605
  201MOL0     H27130   9.653   2.551  10.171  0.4823 -1.8224 -2.3924
  201MOL0     H27131   9.354   2.663   9.905  2.0193  1.1818 -5.2127
  201MOL0     H27132   9.634   2.348  10.469 -0.6785  3.8828 -5.2681
  201MOL0     H27133   9.602   2.148  10.612 -0.3477  0.2373  0.5868
  201MOL0     H27134   9.474   2.147  10.724 -0.3277 -1.0004 -0.6533
  201MOL0     H27135   9.437   2.092  10.568 -2.2785  0.5763  0.7079
  202MOL0     O27136   9.569   3.915   3.333  0.3383 -0.4049  0.1700
  202MOL0     C27137   9.504   3.824   3.289 -0.1649  1.0005  0.7650
  202MOL0     O27138   9.544   3.685   3.291  1.2320  0.0992 -0.2310
  202MOL0     C27139   9.650   3.654   3.376  0.0343 -0.6488  1.5111
  202MOL0     C27140   9.639   3.687   3.518  0.7011  0.3375 -0.4652
  202MOL0     C27141   9.742   3.638   3.594 -0.0099 -0.1616  0.4522
  202MOL0     C27142   9.861   3.567   3.547  0.9598 -0.0641 -1.3105
  202MOL0     O27143   9.959   3.533   3.642  0.1949 -0.2277 -0.0671
  202MOL0     C27144  10.086   3.485   3.593  0.2380 -0.8168  0.9145
  202MOL0     C27145  10.175   3.466   3.712 -0.5636 -0.3795  0.8239
  202MOL0     C27146  10.213   3.596   3.785 -0.4296  0.2677  0.3354
  202MOL0     C27147  10.118   3.639   3.893  0.5167  0.1334 -0.1458
  202MOL0     C27148  10.144   3.604   4.043 -0.3124  1.2536 -0.1828
  202MOL0     C27149  10.171   3.461   4.083 -0.9914  0.4100 -0.1741
  202MOL0     C27150  10.151   3.424   4.225  0.2824 -0.5904 -0.1682
  202MOL0     C27151  10.115   3.274   4.245 -0.4583  0.4421  0.3983
  202MOL0     N27152  10.113   3.235   4.382  0.4965  1.2946  0.5677
  202MOL0     C27153  10.034   3.284   4.480  0.3003  1.2141 -1.3647
  202MOL0     C27154  10.057   3.216   4.596  0.5699  0.1051 -0.3534
  202MOL0     C27155   9.968   3.235   4.717 -0.3437 -0.0035 -0.8038
  202MOL0     C27156   9.942   3.114   4.807  0.1345  0.6401  1.3980
  202MOL0     C27157   9.843   3.155   4.910 -0.6823 -0.1925  0.0193
  202MOL0     C27158   9.829   3.031   5.001 -0.2646  0.1790  0.0426
  202MOL0     O27159   9.740   3.055   5.109  0.4217  0.2295 -0.7509
  202MOL0     C27160   9.743   3.183   5.169 -0.4116 -0.3039  0.0814
  202MOL0     C27161   9.634   3.265   5.164  0.4099 -0.3398  0.0317
  202MOL0     C27162   9.624   3.381   5.253 -1.3591 -0.1305  0.5365
  202MOL0     C27163   9.731   3.415   5.336  0.0479  0.9657 -0.7101
  202MOL0     C27164   9.735   3.541   5.403 -0.4873 -0.1574  0.0668
  202MOL0     O27165   9.636   3.634   5.372  1.0673 -0.0937  0.5069
  202MOL0     C27166   9.646   3.762   5.419 -0.1282  0.1958  0.3948
  202MOL0     C27167   9.522   3.831   5.461 -0.6052  0.6439 -0.2980
  202MOL0     C27168   9.511   3.957   5.512  0.0120 -0.5765 -0.0088
  202MOL0     C27169   9.638   4.020   5.523  0.2652 -0.2831  0.3867
  202MOL0     O27170   9.628   4.154   5.571  0.3809 -0.2556 -0.0997
  202MOL0     C27171   9.667   4.191   5.705 -0.3501 -0.2006 -0.5261
  202MOL0     C27172   9.569   4.136   5.816 -1.0681 -0.4067 -0.3004
  202MOL0     C27173   9.431   4.203   5.807 -0.6196  0.7730 -0.6239
  202MOL0     C27174   9.428   4.345   5.867 -0.1990 -0.0728  0.0100
  202MOL0     C27175   9.295   4.414   5.823 -0.2313 -0.0411 -0.7710
  202MOL0     C27176   9.162   4.345   5.866 -0.5911  0.7957 -0.1779
  202MOL0     C27177   9.170   4.287   6.007 -1.0011 -0.3182 -0.1384
  202MOL0     C27178   9.029   4.216   6.037 -0.1564 -0.3757 -0.3125
  202MOL0    Cl27179   9.041   4.070   5.931 -0.1936 -0.2313 -0.7877
  202MOL0     C27180   9.763   3.963   5.497 -0.1909  1.2203 -0.1784
  202MOL0     C27181   9.769   3.836   5.435  0.5022  0.1573 -1.3442
  202MOL0     O27182   9.820   3.554   5.488  0.0547 -0.0733  0.3024
  202MOL0     C27183   9.842   3.326   5.339  0.0058  0.4285 -0.0348
  202MOL0     C27184   9.844   3.215   5.250  0.3985 -0.1028  0.5626
  202MOL0     N27185  10.158   3.121   4.559 -0.0912 -1.2142 -0.1751
  202MOL0     N27186  10.195   3.133   4.430  0.3889  0.8358  0.0556
  202MOL0     C27187   9.867   3.554   3.417  0.4298 -0.2248  0.5851
  202MOL0     C27188   9.766   3.590   3.325  0.3343 -1.0852 -0.0061
  202MOL0     C27189   9.401   3.870   3.186 -0.3852  0.8612 -0.2576
  202MOL0     C27190   9.314   3.974   3.206 -0.1262 -0.0667 -1.6724
  202MOL0     C27191   9.232   4.029   3.126  0.6263 -0.3291  0.0792
  202MOL0     C27192   9.227   3.982   2.996 -0.3858  0.9405  0.1662
  202MOL0     O27193   9.146   4.037   2.900 -0.1297  0.1856  0.1171
  202MOL0     C27194   9.080   4.163   2.927 -0.5680  0.2507 -0.3709
  202MOL0     C27195   9.011   4.204   2.786 -1.0882  0.1728 -1.5632
  202MOL0     C27196   8.878   4.154   2.783  0.3717  0.7008  0.1552
  202MOL0     C27197   8.808   4.207   2.640 -1.2751 -0.4632 -0.2908
  202MOL0     C27198   8.900   4.209   2.527 -0.2410 -1.2403 -0.6984
  202MOL0     C27199   8.973   4.216   2.432 -0.6028  0.9773  0.4008
  202MOL0     C27200   9.292   3.873   2.962 -0.5791  0.8638 -0.1031
  202MOL0     C27201   9.389   3.817   3.048  0.2718 -0.4619  0.0759
  202MOL0     C27202   9.476   3.697   3.001 -0.5121  0.0571  0.4987
  202MOL0     H27203   9.557   3.738   3.568  2.1359  0.3272  2.0398
  202MOL0     H27204   9.727   3.653   3.701 -0.5082  0.2636  0.3260
  202MOL0     H27205  10.077   3.383   3.556 -1.2495 -1.0348  1.8030
  202MOL0     H27206  10.130   3.554   3.521 -1.3324 -0.7106  0.0299
  202MOL0     H27207  10.275   3.438   3.675  1.3657 -1.3897  5.9678
  202MOL0     H27208  10.140   3.383   3.773 -3.0905  1.4008  1.9816
  202MOL0     H27209  10.204   3.667   3.702 -4.5249 -1.0508 -0.5570
  202MOL0     H27210  10.316   3.584   3.820 -0.7972 -0.2162  1.2723
  202MOL0     H27211  10.107   3.747   3.887  0.3806  0.0850 -1.0010
  202MOL0     H27212  10.017   3.603   3.869  0.9816  0.2500 -2.6058
  202MOL0     H27213  10.235   3.654   4.077 -1.5962  1.5932  3.1011
  202MOL0     H27214  10.054   3.637   4.094 -0.5370 -1.9419  1.7165
  202MOL0     H27215  10.116   3.388   4.022 -1.7057 -1.5566  2.6480
  202MOL0     H27216  10.278   3.442   4.072 -1.5899 -2.7292 -1.7107
  202MOL0     H27217  10.058   3.471   4.260  0.8361 -1.6169  3.0179
  202MOL0     H27218  10.231   3.454   4.292  0.0275 -3.4332  1.5947
  202MOL0     H27219  10.019   3.250   4.197  0.1518 -0.8117 -0.2258
  202MOL0     H27220  10.194   3.235   4.181  1.9025  0.6141  3.0425
  202MOL0     H27221   9.954   3.357   4.478 -1.3311 -0.3528  1.0213
  202MOL0     H27222  10.010   3.323   4.767 -1.5980  0.0191  0.2866
  202MOL0     H27223   9.868   3.272   4.691 -0.7415 -0.1357  0.4557
  202MOL0     H27224   9.907   3.036   4.738  2.9598  1.0266 -0.6467
  202MOL0     H27225  10.036   3.075   4.848  0.3936 -1.2358 -0.7366
  202MOL0     H27226   9.748   3.179   4.863 -0.1991  0.7914 -0.4786
  202MOL0     H27227   9.884   3.238   4.968 -0.5609 -1.2141  1.4517
  202MOL0     H27228   9.928   3.003   5.037 -0.2543 -0.4361 -0.4394
  202MOL0     H27229   9.801   2.956   4.926  0.8310  0.7247 -0.9297
  202MOL0     H27230   9.548   3.239   5.104 -0.2940  2.9667 -0.5665
  202MOL0     H27231   9.529   3.434   5.249 -1.0898  0.4253 -4.4717
  202MOL0     H27232   9.434   3.769   5.449  0.2404 -1.0170  1.3989
  202MOL0     H27233   9.411   3.994   5.530 -0.5774 -2.1475  0.1263
  202MOL0     H27234   9.768   4.154   5.725 -0.2704  0.2208 -0.1221
  202MOL0     H27235   9.667   4.300   5.698 -0.6084 -0.2382 -1.1306
  202MOL0     H27236   9.564   4.027   5.816  1.2267 -0.5686  0.8510
  202MOL0     H27237   9.609   4.180   5.908 -0.5124  3.5354 -2.1928
  202MOL0     H27238   9.398   4.199   5.703  3.2732  1.3770 -2.0699
  202MOL0     H27239   9.371   4.129   5.861 -1.2907 -0.1731 -2.5828
  202MOL0     H27240   9.519   4.398   5.837  1.2984 -1.8982  1.0917
  202MOL0     H27241   9.426   4.337   5.976 -1.5299  1.4283  0.1300
  202MOL0     H27242   9.290   4.421   5.714 -0.7319  0.3505 -0.7265
  202MOL0     H27243   9.288   4.513   5.870 -3.9470  0.7414 -2.6571
  202MOL0     H27244   9.077   4.413   5.872 -1.2336  0.1853 -1.8914
  202MOL0     H27245   9.137   4.260   5.801  0.1471 -0.1216  0.7023
  202MOL0     H27246   9.185   4.375   6.070 -1.0611 -0.2712 -0.1889
  202MOL0     H27247   9.246   4.208   6.009 -0.7237 -0.0672  2.6140
  202MOL0     H27248   9.021   4.168   6.135  2.3262 -1.0325 -0.3617
  202MOL0     H27249   8.943   4.266   5.992 -1.3091 -3.7882 -2.3203
  202MOL0     H27250   9.856   4.018   5.510  0.6514 -0.2684  0.3493
  202MOL0     H27251   9.867   3.801   5.403  1.2422  0.0879  0.7741
  202MOL0     H27252   9.929   3.350   5.400 -1.2572  0.7906  1.7242
  202MOL0     H27253   9.926   3.144   5.250 -0.8773 -1.6245  1.0852
  202MOL0     H27254   9.961   3.527   3.370  0.0846 -0.0072 -0.2563
  202MOL0     H27255   9.777   3.576   3.218  0.5322  0.7406 -0.2600
  202MOL0     H27256   9.317   4.011   3.308 -2.5072  0.1387 -1.6420
  202MOL0     H27257   9.173   4.115   3.154 -2.3160 -1.7680 -1.2765
  202MOL0     H27258   9.157   4.239   2.943 -0.3081  0.0031 -0.4384
  202MOL0     H27259   9.020   4.158   3.018  1.7652 -1.0819  1.2305
  202MOL0     H27260   9.070   4.173   2.699  1.2375 -2.8899  0.8147
  202MOL0     H27261   9.012   4.313   2.780  2.9910  0.4656  0.4436
  202MOL0     H27262   8.825   4.185   2.874  0.4246 -1.7138  1.0724
  202MOL0     H27263   8.878   4.045   2.773  1.6420  0.7648 -0.9466
  202MOL0     H27264   8.712   4.161   2.613 -1.3729  0.1773 -1.0473
  202MOL0     H27265   8.778   4.311   2.657 -3.2296 -0.7300 -1.6848
  202MOL0     H27266   9.047   4.230   2.356 -0.6146 -2.6843 -0.4616
  202MOL0     H27267   9.272   3.828   2.865  3.5002  0.5623 -0.9891
  202MOL0     H27268   9.429   3.598   2.999 -2.3759  0.7532  3.4214
  202MOL0     H27269   9.507   3.718   2.898 -0.8235 -1.7591  0.0021
  202MOL0     H27270   9.562   3.673   3.065  0.7103  1.6721 -0.4690
  203MOL0     O27271   6.142   8.293   3.127  0.2204 -0.1044  0.2201
  203MOL0     C27272   6.246   8.250   3.082 -0.3955 -0.2142  0.4949
  203MOL0     O27273   6.329   8.339   3.000  0.4497 -0.0799  0.6055
  203MOL0     C27274   6.279   8.466   2.977  0.9765  0.9713  0.3850
  203MOL0     C27275   6.294   8.564   3.070 -0.5506 -0.0483  0.0132
  203MOL0     C27276   6.258   8.695   3.036  0.3964 -0.2934  0.6755
  203MOL0     C27277   6.199   8.727   2.920 -0.0806 -0.1363  0.5856
  203MOL0     O27278   6.145   8.848   2.881 -0.0725 -0.4903  0.9987
  203MOL0     C27279   6.243   8.943   2.825 -0.3981  0.4411 -0.7939
  203MOL0     C27280   6.168   9.078   2.855 -0.6629  1.1302 -0.0341
  203MOL0     C27281   6.156   9.113   3.008  0.4136  0.2998  0.2642
  203MOL0     C27282   6.039   9.215   3.040  0.7547 -0.2861  0.9445
  203MOL0     C27283   6.033   9.254   3.192 -0.1268  0.0980  1.5030
  203MOL0     C27284   5.887   9.277   3.242 -0.4270 -0.3731 -0.1341
  203MOL0     C27285   5.888   9.277   3.392  0.4476 -0.5347 -0.5721
  203MOL0     C27286   5.925   9.413   3.455 -0.3018 -0.2449  0.5568
  203MOL0     N27287   5.994   9.398   3.580  0.1953  0.4846 -0.6299
  203MOL0     C27288   5.954   9.318   3.683  0.8011 -0.5934 -1.2423
  203MOL0     C27289   6.030   9.347   3.792  0.4758  0.1175 -0.4791
  203MOL0     C27290   6.003   9.287   3.929 -0.4704  0.0244  1.0890
  203MOL0     C27291   5.865   9.332   3.990  0.1134  0.3880 -0.0141
  203MOL0     C27292   5.829   9.253   4.117  0.5527 -0.2713  0.9820
  203MOL0     C27293   5.942   9.251   4.223  0.6042  0.1197  0.5005
  203MOL0     O27294   5.892   9.232   4.354 -0.6237 -0.3320  0.2907
  203MOL0     C27295   5.869   9.111   4.396  0.6675 -0.6254 -0.8753
  203MOL0     C27296   5.837   8.998   4.314 -0.4867  0.1818 -0.3069
  203MOL0     C27297   5.827   8.873   4.379 -0.1988 -0.8443  0.1553
  203MOL0     C27298   5.801   8.864   4.518 -0.0244  0.0921 -0.1679
  203MOL0     C27299   5.785   8.733   4.571  0.7527 -0.8067  0.6413
  203MOL0     O27300   5.706   8.650   4.503  0.0537 -0.3917  0.0537
  203MOL0     C27301   5.692   8.528   4.547 -0.0465  0.4034  0.6373
  203MOL0     C27302   5.732   8.440   4.461 -0.6172 -0.5525 -0.5281
  203MOL0     C27303   5.713   8.305   4.500 -0.1986 -0.4683  0.2175
  203MOL0     C27304   5.655   8.260   4.614 -0.2714  0.3517 -0.2706
  203MOL0     O27305   5.656   8.121   4.643 -0.0852 -0.0588  0.6888
  203MOL0     C27306   5.686   8.065   4.766  0.6874  0.5944 -0.1551
  203MOL0     C27307   5.823   8.101   4.806 -0.3118  0.2697 -0.3757
  203MOL0     C27308   5.878   8.008   4.908 -0.1676  0.2355  1.0706
  203MOL0     C27309   5.789   7.968   5.029 -1.0229 -0.1700  0.5321
  203MOL0     C27310   5.850   7.898   5.149 -0.2626  0.6400 -0.4191
  203MOL0     C27311   6.003   7.926   5.167 -0.1819 -0.2740 -0.2385
  203MOL0     C27312   6.062   7.879   5.301 -0.4677 -0.3610  0.3334
  203MOL0     C27313   6.202   7.949   5.338 -0.3656  0.8193 -0.6809
  203MOL0    Cl27314   6.229   7.938   5.511 -0.1571 -0.5404  0.1628
  203MOL0     C27315   5.634   8.365   4.713 -0.9188  1.1986  1.2411
  203MOL0     C27316   5.652   8.499   4.676  0.6670  0.4446  0.3767
  203MOL0     O27317   5.848   8.704   4.672 -0.1499 -0.4766 -0.2023
  203MOL0     C27318   5.813   8.981   4.592 -0.4280  0.2804 -0.7210
  203MOL0     C27319   5.855   9.099   4.535 -0.1593 -1.1648 -0.5441
  203MOL0     N27320   6.118   9.454   3.745 -0.1555 -0.1159  0.6661
  203MOL0     N27321   6.097   9.480   3.616 -0.0953 -0.0512 -0.1496
  203MOL0     C27322   6.175   8.621   2.830  0.3307  0.1289 -0.5293
  203MOL0     C27323   6.208   8.487   2.858  0.6703 -0.1559  0.4541
  203MOL0     C27324   6.275   8.105   3.081  0.1156 -0.3507  0.8182
  203MOL0     C27325   6.367   8.056   2.989  0.9030 -0.5883  0.4738
  203MOL0     C27326   6.405   7.918   2.987 -0.3989 -0.2267 -0.3875
  203MOL0     C27327   6.343   7.823   3.068  0.1187 -0.0917 -0.2617
  203MOL0     O27328   6.387   7.692   3.054  0.2054 -0.4908 -0.3263
  203MOL0     C27329   6.388   7.614   3.180  0.4973 -0.5936  0.5334
  203MOL0     C27330   6.449   7.473   3.159 -0.4544  0.3783 -0.5719
  203MOL0     C27331   6.374   7.390   3.061 -0.4337  0.5474  0.0967
  203MOL0     C27332   6.380   7.244   3.095 -0.0029 -0.0913 -0.1140
  203MOL0     C27333   6.502   7.174   3.061  0.1342 -1.1329  0.0615
  203MOL0     C27334   6.600   7.110   3.023 -0.0175  0.7499 -1.0358
  203MOL0     C27335   6.244   7.874   3.159 -0.7301 -0.1498 -0.5307
  203MOL0     C27336   6.215   8.014   3.176 -0.0888 -0.0476  0.4288
  203MOL0     C27337   6.105   8.055   3.272 -0.1049 -0.2987 -0.1257
  203MOL0     H27338   6.351   8.547   3.161  2.0571  1.0344 -1.3333
  203MOL0     H27339   6.263   8.782   3.100  0.2069  0.9092 -0.8864
  203MOL0     H27340   6.340   8.938   2.876  0.3055  0.4784 -2.1030
  203MOL0     H27341   6.255   8.928   2.718  1.4788 -2.1732 -0.3128
  203MOL0     H27342   6.066   9.076   2.816 -1.0750  2.9957  0.8411
  203MOL0     H27343   6.224   9.158   2.806  1.6289 -0.8896 -0.9249
  203MOL0     H27344   6.254   9.150   3.039 -0.7826  4.1085  0.0157
  203MOL0     H27345   6.135   9.021   3.063  3.6677 -1.3261 -0.9578
  203MOL0     H27346   6.040   9.306   2.979 -4.2691 -0.9940 -0.6920
  203MOL0     H27347   5.943   9.170   3.012  0.1499 -0.7584  3.5039
  203MOL0     H27348   6.076   9.170   3.249  1.6319  0.8063  1.2897
  203MOL0     H27349   6.093   9.343   3.212 -2.3646  2.6690 -1.9976
  203MOL0     H27350   5.849   9.367   3.194 -3.3710 -1.9566 -1.0174
  203MOL0     H27351   5.827   9.189   3.215 -1.6695 -1.6090  5.4460
  203MOL0     H27352   5.951   9.191   3.417 -1.2635 -2.1898 -1.6704
  203MOL0     H27353   5.785   9.258   3.424 -0.4972 -0.5570 -3.3844
  203MOL0     H27354   5.990   9.460   3.380 -2.2096  1.4815 -0.1386
  203MOL0     H27355   5.839   9.480   3.467 -0.7988 -0.5349 -1.1186
  203MOL0     H27356   5.876   9.242   3.682  0.0845  0.1316 -1.9483
  203MOL0     H27357   5.996   9.178   3.923 -0.1355  0.0990 -2.0146
  203MOL0     H27358   6.082   9.316   3.998 -1.6398 -1.8689  3.3584
  203MOL0     H27359   5.891   9.436   4.012  1.1265 -0.0749  1.0316
  203MOL0     H27360   5.783   9.321   3.918 -0.0093 -1.9871  0.4089
  203MOL0     H27361   5.815   9.154   4.073  0.3961  0.6127 -1.0430
  203MOL0     H27362   5.731   9.281   4.156 -0.6929 -2.9041 -0.0251
  203MOL0     H27363   6.005   9.341   4.214 -0.9693  1.8170  4.1195
  203MOL0     H27364   6.012   9.174   4.189  1.7738  2.1004 -1.9579
  203MOL0     H27365   5.840   8.995   4.206  1.3492  1.1866 -0.3198
  203MOL0     H27366   5.815   8.788   4.313 -0.2395  0.4706 -1.6081
  203MOL0     H27367   5.786   8.468   4.371 -0.3538  0.2431 -0.1349
  203MOL0     H27368   5.736   8.232   4.423 -1.8981  1.6321 -2.4823
  203MOL0     H27369   5.606   8.086   4.837  0.6802 -0.8823  0.3164
  203MOL0     H27370   5.688   7.957   4.750  1.1471  0.7227 -1.0529
  203MOL0     H27371   5.899   8.100   4.727 -1.4944 -0.1178 -1.5516
  203MOL0     H27372   5.814   8.202   4.846 -1.7209  0.0530 -0.1190
  203MOL0     H27373   5.920   7.914   4.872 -2.6290 -0.8986  0.9518
  203MOL0     H27374   5.966   8.064   4.942 -1.3646  3.1056 -0.1995
  203MOL0     H27375   5.700   7.917   4.990  0.2412 -2.5300  0.5904
  203MOL0     H27376   5.759   8.067   5.065 -0.4856  0.1918 -0.0018
  203MOL0     H27377   5.826   7.792   5.151  0.8207  0.2431 -3.2877
  203MOL0     H27378   5.805   7.948   5.235 -0.3294 -0.0254 -0.0657
  203MOL0     H27379   6.064   7.887   5.084 -2.7789 -1.3768 -1.7554
  203MOL0     H27380   6.012   8.035   5.163 -3.5647  0.1385  0.4255
  203MOL0     H27381   6.083   7.772   5.312  0.1562 -0.1512  1.2730
  203MOL0     H27382   5.987   7.913   5.373 -0.2410  0.6087  0.1243
  203MOL0     H27383   6.290   7.912   5.285 -1.3679 -1.9591 -0.5973
  203MOL0     H27384   6.210   8.055   5.313 -1.5458  1.0964  0.0163
  203MOL0     H27385   5.601   8.342   4.814 -0.6587 -1.0595  0.8770
  203MOL0     H27386   5.600   8.579   4.726 -0.6332  2.5860 -3.9407
  203MOL0     H27387   5.801   8.985   4.700  2.9366  0.9181 -0.2485
  203MOL0     H27388   5.856   9.188   4.597  1.4179 -1.9263  0.5647
  203MOL0     H27389   6.111   8.636   2.744  0.5736  0.6755 -0.6234
  203MOL0     H27390   6.176   8.402   2.797 -0.7356  0.0945  0.8044
  203MOL0     H27391   6.410   8.128   2.920  0.8639  0.8108  1.8550
  203MOL0     H27392   6.487   7.883   2.926  3.6732  1.1563  3.7002
  203MOL0     H27393   6.285   7.595   3.210  0.0225  0.4280 -0.3867
  203MOL0     H27394   6.424   7.664   3.270 -1.5972 -2.0617  2.3122
  203MOL0     H27395   6.440   7.431   3.260 -1.8504 -1.4606 -1.3989
  203MOL0     H27396   6.548   7.483   3.113  0.1744 -2.5030 -0.0667
  203MOL0     H27397   6.414   7.405   2.960  3.4248 -1.7931  1.0661
  203MOL0     H27398   6.266   7.406   3.058 -0.0691  3.8258  0.9020
  203MOL0     H27399   6.363   7.231   3.203  0.9936  0.4331  0.1217
  203MOL0     H27400   6.301   7.195   3.038 -0.0417  1.2743 -1.2604
  203MOL0     H27401   6.687   7.056   2.993 -0.6457 -0.5701 -0.6092
  203MOL0     H27402   6.196   7.807   3.230  2.2921 -1.7138  0.2093
  203MOL0     H27403   6.025   8.099   3.212 -0.7210 -0.9498  0.2058
  203MOL0     H27404   6.059   7.964   3.310 -0.2308 -0.9509 -1.7676
  203MOL0     H27405   6.137   8.123   3.352  0.5714  0.2873 -0.8770
  204MOL0     O27406   4.480   7.439   8.182  0.2116 -0.8490  0.3723
  204MOL0     C27407   4.396   7.505   8.120 -0.6688  0.6357  0.5129
  204MOL0     O27408   4.267   7.508   8.148  0.2785 -0.3906  0.0997
  204MOL0     C27409   4.221   7.408   8.232  0.8950 -0.5375 -0.9968
  204MOL0     C27410   4.258   7.265   8.230  0.2693 -0.7339  0.4581
  204MOL0     C27411   4.188   7.177   8.306 -0.5423  0.2179 -0.8946
  204MOL0     C27412   4.077   7.211   8.387 -0.3455 -0.8932 -0.0140
  204MOL0     O27413   4.026   7.105   8.458 -0.0458 -0.0408 -0.2747
  204MOL0     C27414   3.915   7.127   8.540  0.1904  0.1397 -0.0023
  204MOL0     C27415   3.880   7.000   8.604  1.1122  0.5499  0.2614
  204MOL0     C27416   3.991   6.953   8.705  0.1212  0.2947 -0.0238
  204MOL0     C27417   3.983   7.042   8.840  0.0166  0.0201  0.6469
  204MOL0     C27418   4.068   6.978   8.951 -0.2564  0.1946  0.4863
  204MOL0     C27419   4.051   7.055   9.075 -0.0518 -0.0380 -0.0687
  204MOL0     C27420   3.906   7.042   9.134  0.8215 -0.3694 -1.1074
  204MOL0     C27421   3.904   7.133   9.256 -0.1827 -0.5180  0.0587
  204MOL0     N27422   3.913   7.277   9.210  0.2001  0.5871 -0.2639
  204MOL0     C27423   4.008   7.364   9.260  1.0876  0.0602 -0.3974
  204MOL0     C27424   3.974   7.479   9.197  1.1775 -1.0660  0.5657
  204MOL0     C27425   4.043   7.612   9.203  0.6998  0.3622 -0.0019
  204MOL0     C27426   4.112   7.651   9.074  0.0735  0.4559 -1.1073
  204MOL0     C27427   4.172   7.544   8.981 -0.5141 -0.0451 -0.3070
  204MOL0     C27428   4.083   7.479   8.878 -0.6325 -0.1097 -0.7812
  204MOL0     O27429   4.160   7.446   8.758 -0.4040  1.3019 -0.5582
  204MOL0     C27430   4.185   7.552   8.676  0.5753  0.0843 -0.7059
  204MOL0     C27431   4.079   7.630   8.619  0.0807 -0.3467 -0.4515
  204MOL0     C27432   4.105   7.720   8.515 -0.2759  0.9858 -0.6029
  204MOL0     C27433   4.238   7.740   8.485  0.6670  0.0537 -1.0580
  204MOL0     C27434   4.266   7.809   8.354 -0.4146  1.0649 -0.6070
  204MOL0     O27435   4.397   7.850   8.348 -0.2938 -0.1763  0.4565
  204MOL0     C27436   4.447   7.909   8.232  0.2308  0.2896 -1.0634
  204MOL0     C27437   4.397   8.030   8.174 -0.3944  0.5989 -0.7646
  204MOL0     C27438   4.474   8.091   8.075 -0.2995 -0.1812  0.1468
  204MOL0     C27439   4.579   8.025   8.014 -0.6236 -0.9727 -0.6714
  204MOL0     O27440   4.648   8.087   7.915 -0.5886 -0.3545 -0.1913
  204MOL0     C27441   4.718   8.018   7.809  1.0848  0.4098  0.6411
  204MOL0     C27442   4.864   8.032   7.828  0.0522 -0.1930 -1.3168
  204MOL0     C27443   4.941   7.926   7.740  0.8083 -0.1651 -0.5387
  204MOL0     C27444   5.082   7.981   7.738 -0.3288  0.3032 -0.6833
  204MOL0     C27445   5.161   7.889   7.652  0.0727 -0.5465  0.6857
  204MOL0     C27446   5.143   7.905   7.505 -0.0632  0.1255  0.3512
  204MOL0     C27447   5.233   7.806   7.440  0.6739 -0.3353  0.3671
  204MOL0     C27448   5.345   7.864   7.371  0.2094 -0.5990 -0.9958
  204MOL0    Cl27449   5.441   7.951   7.481  0.1776  0.0608 -0.5144
  204MOL0     C27450   4.607   7.884   8.058 -0.4658 -0.4210  0.1153
  204MOL0     C27451   4.557   7.840   8.184 -0.7185  0.3659  0.7831
  204MOL0     O27452   4.189   7.822   8.267 -0.5563  0.4314  0.2384
  204MOL0     C27453   4.343   7.673   8.555  0.1722  0.5533  0.5584
  204MOL0     C27454   4.320   7.589   8.659  0.4684 -0.0287  0.5127
  204MOL0     N27455   3.866   7.454   9.103 -0.4968 -0.2596 -0.3894
  204MOL0     N27456   3.827   7.329   9.110 -0.9914  0.3764 -0.6005
  204MOL0     C27457   4.041   7.351   8.399 -0.4925  0.0335  0.1548
  204MOL0     C27458   4.106   7.448   8.320  0.5795  0.2028 -0.0868
  204MOL0     C27459   4.438   7.579   8.005  0.4302  0.0960  0.0662
  204MOL0     C27460   4.369   7.698   7.976  0.0002  1.0396  0.4490
  204MOL0     C27461   4.399   7.769   7.855  0.3420 -0.2728 -0.2409
  204MOL0     C27462   4.505   7.741   7.771  0.4641 -0.4495  0.0413
  204MOL0     O27463   4.542   7.809   7.659  0.5579 -0.2118  1.2815
  204MOL0     C27464   4.457   7.919   7.608  0.6538  0.1952  0.1683
  204MOL0     C27465   4.505   7.977   7.470  0.5591  0.6897 -1.1600
  204MOL0     C27466   4.529   7.883   7.350 -0.0412 -1.2563 -0.0145
  204MOL0     C27467   4.667   7.882   7.298  0.0118  0.7992 -0.7274
  204MOL0     C27468   4.682   7.823   7.167  0.4166 -0.0096  0.9873
  204MOL0     C27469   4.691   7.741   7.080  0.4933  0.2746  0.2983
  204MOL0     C27470   4.569   7.617   7.801  0.0518 -0.1362 -0.3416
  204MOL0     C27471   4.537   7.534   7.914  1.3045  0.4013 -0.8526
  204MOL0     C27472   4.609   7.399   7.921 -0.0371 -0.2964 -0.0462
  204MOL0     H27473   4.337   7.220   8.171  2.2910 -0.2857  2.6777
  204MOL0     H27474   4.210   7.072   8.292 -2.3819 -0.2808 -0.3710
  204MOL0     H27475   3.923   7.200   8.621 -2.3861 -0.1476  0.5968
  204MOL0     H27476   3.832   7.166   8.481 -1.2393 -1.0195  1.1787
  204MOL0     H27477   3.862   6.934   8.518 -1.8923 -0.2701  1.3814
  204MOL0     H27478   3.786   7.002   8.660  1.8607  2.2912  1.5140
  204MOL0     H27479   4.093   6.960   8.669  1.7689  2.4272  4.3142
  204MOL0     H27480   3.964   6.849   8.726 -0.0878 -0.6669 -4.1654
  204MOL0     H27481   4.003   7.144   8.804 -2.3646 -0.5144 -2.6614
  204MOL0     H27482   3.878   7.036   8.870 -0.6343  2.4524 -0.8690
  204MOL0     H27483   4.040   6.875   8.976 -1.8053  0.4775  0.0417
  204MOL0     H27484   4.171   6.976   8.916 -0.4544  0.9496 -0.1671
  204MOL0     H27485   4.111   7.002   9.149 -3.4247 -2.3324  1.2887
  204MOL0     H27486   4.083   7.159   9.063 -1.9779  0.5654 -0.2729
  204MOL0     H27487   3.883   6.942   9.172 -0.9615  0.8820  1.4071
  204MOL0     H27488   3.837   7.068   9.054  4.1704  0.1068 -4.1271
  204MOL0     H27489   3.816   7.109   9.316  0.5907  0.4261  1.6716
  204MOL0     H27490   3.987   7.109   9.324  3.1438  0.5740 -3.2611
  204MOL0     H27491   4.083   7.349   9.337  0.1452  0.0574  0.5282
  204MOL0     H27492   3.973   7.692   9.228  1.3307  1.1895 -0.8220
  204MOL0     H27493   4.112   7.595   9.286  0.7649  1.1386  0.1102
  204MOL0     H27494   4.046   7.721   9.021  1.6277  1.6953 -1.4891
  204MOL0     H27495   4.192   7.719   9.107 -1.7341  1.4845  1.4798
  204MOL0     H27496   4.203   7.465   9.051 -2.7704 -0.7599 -0.0219
  204MOL0     H27497   4.272   7.572   8.947 -0.4292  0.1201  0.0801
  204MOL0     H27498   4.002   7.552   8.875 -0.8265 -0.3017 -0.2634
  204MOL0     H27499   4.037   7.386   8.913  0.0024 -0.1277  0.0362
  204MOL0     H27500   3.974   7.616   8.642 -0.5945  2.0404 -1.7420
  204MOL0     H27501   4.024   7.765   8.458 -2.8232  0.7180  2.5238
  204MOL0     H27502   4.309   8.075   8.220 -0.9689 -3.6261  2.9189
  204MOL0     H27503   4.454   8.186   8.027  2.0726 -1.2260 -3.2438
  204MOL0     H27504   4.696   7.911   7.818 -3.2673  1.1953  1.9937
  204MOL0     H27505   4.688   8.053   7.710 -0.6290 -3.2501 -0.3300
  204MOL0     H27506   4.891   8.137   7.819  0.6673  0.0435  1.8752
  204MOL0     H27507   4.885   8.010   7.934 -3.2072 -0.9099 -0.6994
  204MOL0     H27508   4.934   7.824   7.780 -0.1937 -0.5145 -1.5497
  204MOL0     H27509   4.898   7.926   7.639  1.2900 -0.0474 -0.7511
  204MOL0     H27510   5.113   7.998   7.842  0.9922  3.5402 -1.4962
  204MOL0     H27511   5.090   8.081   7.693  0.8248  2.1985  3.2451
  204MOL0     H27512   5.152   7.783   7.677 -1.0586 -1.2958 -2.4113
  204MOL0     H27513   5.269   7.902   7.663 -0.1698  1.4378  1.1420
  204MOL0     H27514   5.044   7.879   7.466  0.6884 -1.4866 -0.6033
  204MOL0     H27515   5.154   8.008   7.471 -1.5598 -0.7304 -3.1692
  204MOL0     H27516   5.177   7.743   7.371 -0.4023  0.4064  0.5289
  204MOL0     H27517   5.262   7.728   7.511  1.2174 -0.0116  0.5144
  204MOL0     H27518   5.408   7.787   7.326  0.1723  0.8415 -3.7324
  204MOL0     H27519   5.304   7.932   7.295  1.6410 -1.0537 -2.2332
  204MOL0     H27520   4.685   7.837   7.998 -1.0967  1.5689 -2.4651
  204MOL0     H27521   4.589   7.745   8.227  1.7739  0.5943 -0.4118
  204MOL0     H27522   4.446   7.693   8.527  1.1412  1.9265  4.4491
  204MOL0     H27523   4.384   7.526   8.719 -0.7279 -1.2845  0.5388
  204MOL0     H27524   3.961   7.380   8.466 -0.9461 -1.6218  0.3951
  204MOL0     H27525   4.091   7.555   8.324 -0.3201  0.0733  0.2610
  204MOL0     H27526   4.284   7.736   8.033 -0.5368  0.8842 -0.2254
  204MOL0     H27527   4.331   7.849   7.825  2.0326  1.0651 -0.6447
  204MOL0     H27528   4.465   7.999   7.681  2.0073 -0.8525  1.2416
  204MOL0     H27529   4.351   7.897   7.601  1.1034 -1.9319 -0.7988
  204MOL0     H27530   4.598   8.033   7.486  2.6796 -2.8371 -0.1650
  204MOL0     H27531   4.442   8.063   7.446  0.8612  1.3407  0.2680
  204MOL0     H27532   4.464   7.934   7.278  2.0620  1.5420 -0.1385
  204MOL0     H27533   4.495   7.781   7.367  0.6888 -1.3413  1.0565
  204MOL0     H27534   4.717   7.980   7.295  3.8070 -0.8611  1.3706
  204MOL0     H27535   4.744   7.834   7.359  1.6073  1.2935 -2.2618
  204MOL0     H27536   4.673   7.669   7.003  0.6820  1.7288 -1.1711
  204MOL0     H27537   4.640   7.588   7.725 -0.0679  3.6443 -2.0821
  204MOL0     H27538   4.555   7.314   7.965 -2.3673  1.7864  1.3951
  204MOL0     H27539   4.636   7.382   7.816  1.8853  0.4619  0.2938
  204MOL0     H27540   4.708   7.412   7.964  1.1885 -1.8247 -2.2106
  205MOL0     O27541   9.531   3.455   4.138 -0.6867 -0.8177 -0.2447
  205MOL0     C27542   9.634   3.518   4.167 -0.3465  0.3642 -0.6120
  205MOL0     O27543   9.725   3.479   4.262 -0.1353 -0.3926 -0.4864
  205MOL0     C27544   9.703   3.360   4.327 -0.1771 -0.2378 -0.5988
  205MOL0     C27545   9.639   3.349   4.452  0.2283  0.1611 -0.4513
  205MOL0     C27546   9.614   3.216   4.510 -1.5104  0.6122 -0.5316
  205MOL0     C27547   9.643   3.097   4.433 -0.3950 -0.4203 -0.6377
  205MOL0     O27548   9.591   2.978   4.473  0.2036  0.3670 -0.3813
  205MOL0     C27549   9.655   2.848   4.447 -1.0746  0.2172  0.3312
  205MOL0     C27550   9.642   2.775   4.580  0.1070  1.0056  0.3907
  205MOL0     C27551   9.676   2.627   4.549 -0.7224 -0.4470 -0.5259
  205MOL0     C27552   9.832   2.592   4.559 -0.3016 -0.9377  0.4294
  205MOL0     C27553   9.841   2.437   4.537 -0.0048 -0.6955 -0.4454
  205MOL0     C27554   9.989   2.392   4.528 -0.2483  1.0550  0.2758
  205MOL0     C27555   9.983   2.236   4.490  0.0440  0.3288 -1.3266
  205MOL0     C27556  10.111   2.164   4.537 -0.6196 -0.5491  0.3202
  205MOL0     N27557  10.104   2.021   4.489  0.0368 -0.1824 -0.0709
  205MOL0     C27558  10.157   1.973   4.377 -0.5809  0.9997 -0.3583
  205MOL0     C27559  10.135   1.836   4.383 -0.4069  0.9206  0.2748
  205MOL0     C27560  10.180   1.743   4.271  0.0453 -1.4331 -0.0047
  205MOL0     C27561  10.073   1.676   4.192  0.0692 -0.1815 -0.8066
  205MOL0     C27562  10.062   1.737   4.054  1.3960  0.4487 -0.0237
  205MOL0     C27563   9.938   1.677   3.959 -0.0893 -0.2052  0.1947
  205MOL0     O27564   9.948   1.530   3.936 -0.4114  0.5248 -0.1030
  205MOL0     C27565  10.065   1.478   3.882 -0.6594  0.0217 -0.1293
  205MOL0     C27566  10.109   1.517   3.752  0.7390 -0.7679 -0.2156
  205MOL0     C27567  10.223   1.460   3.702  0.0070 -0.2376 -0.5308
  205MOL0     C27568  10.307   1.373   3.785 -0.7360  0.2954  0.2655
  205MOL0     C27569  10.428   1.318   3.737 -0.2139  1.5339  0.5520
  205MOL0     O27570  10.494   1.224   3.811 -0.4890 -0.0708 -1.1272
  205MOL0     C27571  10.616   1.175   3.756  0.3065  0.3153  0.0754
  205MOL0     C27572  10.738   1.208   3.809 -0.5932  0.4074  0.4913
  205MOL0     C27573  10.855   1.155   3.754 -0.0043 -0.6834 -0.7700
  205MOL0     C27574  10.845   1.049   3.670  0.4838 -0.4060  0.2130
  205MOL0     O27575  10.973   1.018   3.622  0.3580 -0.4478 -0.1857
  205MOL0     C27576  10.981   0.938   3.507  0.0310  0.4573 -0.2352
  205MOL0     C27577  11.118   0.930   3.455  1.1099  0.8838  0.1607
  205MOL0     C27578  11.213   0.868   3.547 -0.2040 -0.2566 -0.9285
  205MOL0     C27579  11.259   0.724   3.508 -0.0386 -0.1077  0.4696
  205MOL0     C27580  11.361   0.667   3.619  0.3390  0.3184  0.0031
  205MOL0     C27581  11.406   0.523   3.590 -0.9792  0.3237  0.1934
  205MOL0     C27582  11.456   0.436   3.713  0.2368  0.0317 -0.6282
  205MOL0     C27583  11.580   0.485   3.785 -0.3589  0.1594 -0.0465
  205MOL0    Cl27584  11.637   0.377   3.896  0.2556 -0.0538 -0.3817
  205MOL0     C27585  10.725   0.997   3.629 -0.9640  0.2527 -0.4804
  205MOL0     C27586  10.603   1.059   3.670 -0.6466 -0.2869  0.3907
  205MOL0     O27587  10.469   1.361   3.627  0.7354  0.0859  0.2984
  205MOL0     C27588  10.258   1.333   3.907  0.3369 -0.4552  0.2909
  205MOL0     C27589  10.143   1.394   3.958 -0.0065  0.6055 -1.3491
  205MOL0     N27590  10.047   1.812   4.486  0.2354 -0.5112 -0.4799
  205MOL0     N27591  10.044   1.922   4.555 -0.5235 -0.1888  0.3324
  205MOL0     C27592   9.705   3.112   4.307  1.3047  0.5600 -0.2593
  205MOL0     C27593   9.731   3.243   4.256  0.4807  0.8400  0.5772
  205MOL0     C27594   9.670   3.646   4.104 -0.2432 -0.5975 -0.2074
  205MOL0     C27595   9.779   3.718   4.158 -0.4580 -0.4890 -1.9119
  205MOL0     C27596   9.847   3.813   4.083 -0.1079  0.0962  0.1542
  205MOL0     C27597   9.792   3.858   3.966  1.0798 -0.3708 -0.2204
  205MOL0     O27598   9.855   3.952   3.892  0.0821 -0.2019  0.2330
  205MOL0     C27599   9.810   3.967   3.747  0.1079 -0.0187  0.2299
  205MOL0     C27600   9.921   4.041   3.668 -0.6712 -0.6117 -0.5064
  205MOL0     C27601  10.070   4.007   3.676  0.6433 -0.0469 -0.0714
  205MOL0     C27602  10.149   4.081   3.781  0.3172 -0.8927 -0.0071
  205MOL0     C27603  10.289   4.046   3.789  0.1329 -0.2777  0.9798
  205MOL0     C27604  10.401   3.988   3.794  0.7047 -0.1127 -0.8379
  205MOL0     C27605   9.671   3.797   3.920 -0.1506 -0.2388  0.8782
  205MOL0     C27606   9.606   3.698   3.993 -0.2684 -1.1660  0.4887
  205MOL0     C27607   9.481   3.656   3.924 -0.2689  0.1995  0.1190
  205MOL0     H27608   9.606   3.434   4.510  2.9924 -0.6069  2.5479
  205MOL0     H27609   9.556   3.209   4.601  0.7662 -0.6896  0.8983
  205MOL0     H27610   9.612   2.812   4.353 -0.3921  0.7449 -0.1975
  205MOL0     H27611   9.762   2.864   4.427 -1.0483 -1.5123 -1.3017
  205MOL0     H27612   9.541   2.787   4.621 -2.1011  0.1249 -4.1566
  205MOL0     H27613   9.717   2.801   4.656 -0.0242 -0.7923  1.1769
  205MOL0     H27614   9.636   2.603   4.450 -2.5470  1.9474 -0.4844
  205MOL0     H27615   9.625   2.564   4.623  2.8723 -3.7704 -0.5435
  205MOL0     H27616   9.889   2.644   4.482 -4.3432 -0.6467 -2.6952
  205MOL0     H27617   9.856   2.612   4.664  0.0206 -0.9682  0.3618
  205MOL0     H27618   9.795   2.384   4.620  1.2028 -3.7321 -1.5564
  205MOL0     H27619   9.785   2.411   4.447 -1.6410 -0.3098  0.4355
  205MOL0     H27620  10.046   2.452   4.457 -0.1280 -0.2631 -0.7702
  205MOL0     H27621  10.030   2.410   4.628 -2.7198 -0.4968  1.6750
  205MOL0     H27622   9.973   2.225   4.382  1.7625  0.4923 -1.5434
  205MOL0     H27623   9.904   2.199   4.556  0.8098  1.6321  0.4039
  205MOL0     H27624  10.196   2.211   4.486 -1.1107  0.4121  0.3788
  205MOL0     H27625  10.110   2.168   4.646 -0.3545 -0.4436  0.3193
  205MOL0     H27626  10.222   2.007   4.297  0.6041 -1.2583 -0.4581
  205MOL0     H27627  10.250   1.792   4.202 -1.2504 -1.4222 -1.3526
  205MOL0     H27628  10.247   1.669   4.316  4.2926  2.4865  0.9316
  205MOL0     H27629  10.099   1.570   4.191  2.3076  0.2751  1.0638
  205MOL0     H27630   9.977   1.690   4.243  1.5421  2.0107  1.6624
  205MOL0     H27631  10.152   1.740   3.991  1.2141  0.7281 -0.2710
  205MOL0     H27632  10.058   1.845   4.068  0.1312  0.5552 -1.0067
  205MOL0     H27633   9.954   1.729   3.864  1.7806  0.4928  0.8493
  205MOL0     H27634   9.845   1.714   4.003 -0.9317  2.5053 -3.4045
  205MOL0     H27635  10.043   1.592   3.709  2.7123  1.1129 -0.1608
  205MOL0     H27636  10.251   1.492   3.602 -0.2880 -2.6916 -1.4455
  205MOL0     H27637  10.746   1.295   3.873 -0.2195 -0.0105  1.0216
  205MOL0     H27638  10.948   1.189   3.798 -0.2588 -2.2046  1.0777
  205MOL0     H27639  10.964   0.835   3.541  0.3803  0.0414 -1.2862
  205MOL0     H27640  10.900   0.959   3.436 -1.9903 -2.3816  1.0151
  205MOL0     H27641  11.109   0.870   3.364 -2.8941  0.4817  0.6450
  205MOL0     H27642  11.145   1.036   3.446  2.7521  0.8086  2.9495
  205MOL0     H27643  11.311   0.916   3.544  0.2203 -0.7322  1.9761
  205MOL0     H27644  11.184   0.864   3.653  2.5753  1.5029  0.0115
  205MOL0     H27645  11.313   0.725   3.413 -0.6441 -3.9678 -0.0621
  205MOL0     H27646  11.174   0.658   3.487  1.4242 -2.9508  2.8985
  205MOL0     H27647  11.319   0.678   3.720 -0.1989  2.7351 -0.4207
  205MOL0     H27648  11.455   0.723   3.614 -0.2412  1.3177  0.0348
  205MOL0     H27649  11.332   0.466   3.533 -0.0818 -1.5365  0.8055
  205MOL0     H27650  11.494   0.542   3.528 -0.6908 -1.5127 -0.0086
  205MOL0     H27651  11.456   0.333   3.676 -1.7315  0.2206 -1.3040
  205MOL0     H27652  11.385   0.447   3.796 -0.1563  2.0959 -1.1639
  205MOL0     H27653  11.651   0.505   3.705 -1.9968  3.1451 -0.9127
  205MOL0     H27654  11.579   0.577   3.843  1.7834 -0.4922  1.1414
  205MOL0     H27655  10.720   0.908   3.569 -0.9966 -0.3979  0.4623
  205MOL0     H27656  10.504   1.033   3.633 -0.2764 -4.1300  1.6047
  205MOL0     H27657  10.306   1.257   3.969 -0.6433 -1.4035 -0.0997
  205MOL0     H27658  10.097   1.338   4.038  3.1211 -1.1613 -0.6220
  205MOL0     H27659   9.739   3.026   4.250  2.4205 -0.3854  1.7291
  205MOL0     H27660   9.786   3.250   4.163 -0.4435  1.2103  0.0583
  205MOL0     H27661   9.812   3.701   4.259 -1.5859  0.7928 -1.2883
  205MOL0     H27662   9.936   3.842   4.139  0.9817 -0.8640 -1.0343
  205MOL0     H27663   9.715   4.021   3.747  0.6480  0.9768 -1.0237
  205MOL0     H27664   9.791   3.870   3.699 -3.8007  0.0335  1.3849
  205MOL0     H27665   9.907   4.137   3.719 -2.3067  0.0384 -2.0887
  205MOL0     H27666   9.899   4.063   3.563  0.5399 -1.7590 -1.0231
  205MOL0     H27667  10.114   4.033   3.580 -1.9308  1.1565 -1.0317
  205MOL0     H27668  10.079   3.898   3.670 -1.3848 -0.2563 -0.1427
  205MOL0     H27669  10.128   4.187   3.770 -0.7874 -1.2259 -1.5493
  205MOL0     H27670  10.107   4.050   3.877  1.9220 -3.2577  0.0117
  205MOL0     H27671  10.490   3.930   3.806  0.8358  0.5626  2.4113
  205MOL0     H27672   9.608   3.845   3.845 -2.0535 -1.9372  1.3012
  205MOL0     H27673   9.446   3.728   3.850  1.8047  2.0387  0.8372
  205MOL0     H27674   9.500   3.557   3.881  1.2623  0.6049 -0.1627
  205MOL0     H27675   9.404   3.634   4.000 -0.8186 -2.3374 -1.0553
  206MOL0     O27676   5.329   8.525   5.107 -0.4397 -0.2955  0.2903
  206MOL0     C27677   5.372   8.642   5.116 -0.8966  0.4681  0.0637
  206MOL0     O27678   5.416   8.707   5.227  0.1941 -0.5078 -0.5831
  206MOL0     C27679   5.466   8.642   5.339  0.7687 -0.1099 -0.8372
  206MOL0     C27680   5.446   8.513   5.378 -0.8207 -0.4701 -0.3265
  206MOL0     C27681   5.515   8.459   5.490 -0.3597  0.1005  0.4170
  206MOL0     C27682   5.589   8.533   5.584  0.1037 -0.8314 -0.1464
  206MOL0     O27683   5.651   8.477   5.692 -1.4970  0.2714  0.3910
  206MOL0     C27684   5.597   8.361   5.752 -0.5790 -0.1070  0.7031
  206MOL0     C27685   5.471   8.400   5.820  1.1470 -0.4595 -0.0624
  206MOL0     C27686   5.448   8.319   5.948  0.1649  0.6623  0.0492
  206MOL0     C27687   5.434   8.176   5.926  0.1773  0.8394  0.0974
  206MOL0     C27688   5.401   8.095   6.054 -1.1698 -0.5861  0.7870
  206MOL0     C27689   5.276   8.127   6.142 -0.4184  0.1068  0.8135
  206MOL0     C27690   5.307   8.075   6.286 -0.4008 -1.1814 -0.9915
  206MOL0     C27691   5.181   7.987   6.318  0.6428  0.1494  0.2266
  206MOL0     N27692   5.170   7.955   6.462  0.3721 -0.5859 -0.3091
  206MOL0     C27693   5.190   7.842   6.521 -0.1816  0.6471  0.3035
  206MOL0     C27694   5.166   7.860   6.649 -0.0941  0.4568  0.7181
  206MOL0     C27695   5.151   7.755   6.752  0.3662  0.4087 -0.7151
  206MOL0     C27696   5.272   7.759   6.848  0.3739  0.9803 -0.2373
  206MOL0     C27697   5.263   7.852   6.966 -0.1605 -0.0312  0.6373
  206MOL0     C27698   5.286   8.008   6.939  0.7366  1.4252 -0.9946
  206MOL0     O27699   5.339   8.081   7.060  0.0694  0.6226 -0.4431
  206MOL0     C27700   5.250   8.143   7.141 -0.4045 -0.6068  0.6040
  206MOL0     C27701   5.114   8.107   7.151 -0.7378  0.4087 -0.3465
  206MOL0     C27702   5.026   8.162   7.248  0.6788 -0.2753 -0.9543
  206MOL0     C27703   5.076   8.260   7.342  0.1161  0.7488  0.6861
  206MOL0     C27704   4.988   8.307   7.442 -0.6799 -0.7061  0.2812
  206MOL0     O27705   4.860   8.269   7.442 -0.3022  0.4810 -0.6066
  206MOL0     C27706   4.758   8.326   7.513  0.0909  0.0141 -0.1264
  206MOL0     C27707   4.639   8.341   7.447  0.3150 -0.1709 -0.3638
  206MOL0     C27708   4.528   8.409   7.494  0.2308 -0.2473 -1.0354
  206MOL0     C27709   4.525   8.449   7.633  0.1165  0.7149  0.4230
  206MOL0     O27710   4.417   8.494   7.706 -0.9789  0.0101 -0.6647
  206MOL0     C27711   4.325   8.586   7.645 -0.4516  0.5226 -1.0317
  206MOL0     C27712   4.249   8.669   7.742 -0.9356 -0.2870 -0.6210
  206MOL0     C27713   4.330   8.785   7.787 -0.2040  0.3282 -0.9034
  206MOL0     C27714   4.252   8.881   7.871 -0.2040 -0.4509 -0.6520
  206MOL0     C27715   4.323   9.014   7.896  0.3242  0.8254 -0.8786
  206MOL0     C27716   4.447   9.007   7.984 -0.2364  1.0754 -1.3394
  206MOL0     C27717   4.507   9.147   7.989  0.1045  0.4131  0.0072
  206MOL0     C27718   4.622   9.154   8.092 -1.3996  0.6432  0.0796
  206MOL0    Cl27719   4.673   9.318   8.047  0.0365 -0.1554 -0.5119
  206MOL0     C27720   4.636   8.413   7.706 -0.5322 -0.3494  0.0081
  206MOL0     C27721   4.755   8.359   7.646  0.8890  0.9164  0.7063
  206MOL0     O27722   5.040   8.396   7.511 -0.3407  0.0360  0.1057
  206MOL0     C27723   5.216   8.297   7.319  0.7144 -0.0706 -0.5179
  206MOL0     C27724   5.299   8.241   7.222  0.2444  0.0806 -0.1121
  206MOL0     N27725   5.131   7.995   6.668  1.2296 -0.1274 -0.8807
  206MOL0     N27726   5.138   8.050   6.555  0.1825 -0.1913  0.1711
  206MOL0     C27727   5.595   8.677   5.552  0.4554 -0.2795 -1.5168
  206MOL0     C27728   5.536   8.725   5.430 -0.2486 -0.2640  0.3654
  206MOL0     C27729   5.387   8.716   4.983 -0.4650  0.4637 -0.2632
  206MOL0     C27730   5.473   8.825   4.970 -0.1758 -0.6156  0.3234
  206MOL0     C27731   5.502   8.885   4.848 -1.1843 -0.5957 -0.3292
  206MOL0     C27732   5.456   8.831   4.729 -0.6652 -0.2594  0.5910
  206MOL0     O27733   5.511   8.871   4.611 -0.6499 -0.0931  0.3009
  206MOL0     C27734   5.415   8.923   4.517 -0.4108 -0.7313  0.1706
  206MOL0     C27735   5.468   9.056   4.469  0.7313 -1.2428  0.4783
  206MOL0     C27736   5.435   9.090   4.329 -0.9056  0.2403  0.9326
  206MOL0     C27737   5.442   8.969   4.226 -0.9351  0.6648  0.6411
  206MOL0     C27738   5.480   9.029   4.100  0.0652  0.0969 -0.6428
  206MOL0     C27739   5.509   9.075   3.996  0.2811  0.3563 -0.3284
  206MOL0     C27740   5.373   8.712   4.734 -0.7510  0.6160  0.4691
  206MOL0     C27741   5.327   8.664   4.863  0.5523  0.8915  0.2959
  206MOL0     C27742   5.230   8.549   4.841  0.7705  0.4922  0.1117
  206MOL0     H27743   5.384   8.443   5.322 -1.1753 -0.6665  0.3140
  206MOL0     H27744   5.511   8.352   5.506 -0.0134 -0.2527 -1.5667
  206MOL0     H27745   5.592   8.281   5.677  1.7487  0.5533 -0.2273
  206MOL0     H27746   5.663   8.319   5.828 -0.5504 -0.1576  0.6502
  206MOL0     H27747   5.396   8.396   5.740  4.7096  3.6709 -4.1708
  206MOL0     H27748   5.468   8.504   5.855  0.4706 -0.5550  0.1899
  206MOL0     H27749   5.361   8.365   5.996 -0.8918 -0.8309 -0.3786
  206MOL0     H27750   5.533   8.336   6.015  0.0240 -0.8358  0.6479
  206MOL0     H27751   5.354   8.153   5.855  0.2797 -2.3488  0.8531
  206MOL0     H27752   5.517   8.133   5.869 -1.2388 -1.0492 -0.6677
  206MOL0     H27753   5.414   7.989   6.029  0.1918 -0.2348 -0.1066
  206MOL0     H27754   5.488   8.115   6.116 -0.2186  0.3246 -0.7704
  206MOL0     H27755   5.250   8.233   6.137 -0.9358  0.0141  1.4650
  206MOL0     H27756   5.204   8.062   6.091  1.3080 -0.4105 -1.1112
  206MOL0     H27757   5.313   8.173   6.334  0.8815 -1.3715 -0.7331
  206MOL0     H27758   5.400   8.020   6.303  1.7150  2.1635 -0.9554
  206MOL0     H27759   5.091   8.038   6.284 -0.9073 -2.8287 -0.4250
  206MOL0     H27760   5.194   7.890   6.270 -1.6848  0.0047 -0.2063
  206MOL0     H27761   5.203   7.742   6.482  2.9183  1.0358  0.0813
  206MOL0     H27762   5.058   7.775   6.806  0.0961 -2.3362  0.0021
  206MOL0     H27763   5.147   7.659   6.700 -1.9298  1.2631 -2.2588
  206MOL0     H27764   5.286   7.656   6.882  2.4468  2.1168  2.7137
  206MOL0     H27765   5.360   7.779   6.786 -0.2416  1.8100 -0.8647
  206MOL0     H27766   5.351   7.838   7.029 -0.2639 -1.9853  0.3994
  206MOL0     H27767   5.171   7.830   7.021  0.5907 -0.7108  1.6644
  206MOL0     H27768   5.198   8.056   6.896  1.4895  0.9759 -3.1657
  206MOL0     H27769   5.364   8.019   6.863  0.6390 -3.2776 -2.0837
  206MOL0     H27770   5.068   8.034   7.085  0.3822 -0.9938  0.3633
  206MOL0     H27771   4.922   8.134   7.261  0.8138  0.5594  3.4548
  206MOL0     H27772   4.639   8.285   7.354 -0.9855 -0.6379 -0.0967
  206MOL0     H27773   4.434   8.408   7.439 -1.1507 -0.3646  1.2113
  206MOL0     H27774   4.383   8.659   7.587  2.2841 -2.1677 -1.9664
  206MOL0     H27775   4.255   8.525   7.588 -0.2804 -1.4331  0.7471
  206MOL0     H27776   4.160   8.710   7.693  1.4867  3.5375 -2.3181
  206MOL0     H27777   4.235   8.598   7.824  1.3206  0.3236  0.3706
  206MOL0     H27778   4.425   8.756   7.833  1.1927  0.5177 -3.4192
  206MOL0     H27779   4.385   8.839   7.709  3.1366 -2.4729 -0.7546
  206MOL0     H27780   4.230   8.839   7.970  1.0464  0.3049 -0.0205
  206MOL0     H27781   4.156   8.908   7.826 -0.1132 -0.0006 -0.5785
  206MOL0     H27782   4.259   9.091   7.941  2.8676  2.6633 -0.2134
  206MOL0     H27783   4.354   9.057   7.801 -0.4888  0.0474 -1.5148
  206MOL0     H27784   4.409   8.982   8.083 -2.5488  3.0146 -1.6429
  206MOL0     H27785   4.512   8.933   7.937 -3.5435 -1.5778 -2.1165
  206MOL0     H27786   4.434   9.225   8.013  0.9270  0.7563  1.5523
  206MOL0     H27787   4.561   9.178   7.899  3.6626 -0.6123  1.6106
  206MOL0     H27788   4.618   9.140   8.200  1.2031  3.2159  0.6413
  206MOL0     H27789   4.694   9.080   8.054 -1.5113  1.3942 -1.6986
  206MOL0     H27790   4.633   8.425   7.814  0.9329 -0.5841  0.0971
  206MOL0     H27791   4.849   8.347   7.699  1.1393  0.5031  0.1834
  206MOL0     H27792   5.275   8.355   7.390 -1.6745  0.8159  0.8270
  206MOL0     H27793   5.402   8.273   7.213  0.2705 -0.0280 -0.1948
  206MOL0     H27794   5.645   8.745   5.620 -2.1139  1.7012 -1.4511
  206MOL0     H27795   5.549   8.827   5.395  1.1335 -1.5143 -3.1998
  206MOL0     H27796   5.531   8.843   5.059  0.3219 -2.3143  0.3712
  206MOL0     H27797   5.575   8.966   4.845 -0.7418 -0.4851  4.8093
  206MOL0     H27798   5.322   8.941   4.571  0.7612  1.4160  1.6491
  206MOL0     H27799   5.409   8.845   4.441  0.2582 -0.1522 -0.4886
  206MOL0     H27800   5.576   9.065   4.480  0.8065  0.0664 -0.9371
  206MOL0     H27801   5.406   9.122   4.529 -1.8072 -2.5409 -0.5535
  206MOL0     H27802   5.500   9.170   4.293 -0.3932 -1.2866 -1.7674
  206MOL0     H27803   5.331   9.120   4.343 -1.9305 -2.1451 -0.8895
  206MOL0     H27804   5.517   8.890   4.232 -2.5629 -0.8394  2.2441
  206MOL0     H27805   5.341   8.927   4.230 -1.8670  2.5626 -0.9300
  206MOL0     H27806   5.542   9.134   3.913  0.1799 -1.5020 -1.7362
  206MOL0     H27807   5.334   8.677   4.639  0.4830  1.7864 -0.5010
  206MOL0     H27808   5.158   8.585   4.767  0.0533  2.4260  1.6640
  206MOL0     H27809   5.286   8.466   4.796  1.0309  1.2018 -0.9089
  206MOL0     H27810   5.175   8.516   4.930  0.2772  3.1851  0.8698
  207MOL0     O27811   3.281   7.369   2.322  0.1145 -0.2091 -0.3892
  207MOL0     C27812   3.385   7.319   2.366  0.8008 -0.1446 -1.7250
  207MOL0     O27813   3.497   7.296   2.293  0.2003 -0.6028 -0.2183
  207MOL0     C27814   3.520   7.313   2.159  0.6332 -0.6991  0.1808
  207MOL0     C27815   3.415   7.297   2.062 -0.9709  0.8568  0.0521
  207MOL0     C27816   3.447   7.315   1.925 -0.2997  0.0311 -0.1017
  207MOL0     C27817   3.581   7.321   1.890  0.5304  0.6530  0.4149
  207MOL0     O27818   3.610   7.299   1.752  0.0432  1.1231 -0.3093
  207MOL0     C27819   3.750   7.298   1.722 -0.6708  0.6670  1.2554
  207MOL0     C27820   3.761   7.251   1.574 -0.3572  0.9393  0.7211
  207MOL0     C27821   3.743   7.096   1.559  0.4408  0.7137 -0.3475
  207MOL0     C27822   3.795   7.053   1.419  0.4434  0.4031  0.3862
  207MOL0     C27823   3.790   6.897   1.386  0.4875  0.0200  0.8198
  207MOL0     C27824   3.858   6.881   1.251 -0.6679 -0.3479  0.2887
  207MOL0     C27825   3.849   6.739   1.191  0.1207  0.0769 -1.1271
  207MOL0     C27826   3.944   6.721   1.076  0.2894 -0.4731  0.3771
  207MOL0     N27827   3.907   6.823   0.972 -0.1426 -0.6489  0.6561
  207MOL0     C27828   3.799   6.825   0.884  0.8457 -0.8416 -0.6099
  207MOL0     C27829   3.825   6.923   0.790  0.1802  0.9592 -0.4488
  207MOL0     C27830   3.750   6.951   0.668 -0.2392 -0.0039  0.4360
  207MOL0     C27831   3.760   6.826   0.576  0.0343 -0.1312  0.2462
  207MOL0     C27832   3.644   6.814   0.468  0.2540  0.0054 -0.2493
  207MOL0     C27833   3.511   6.889   0.479 -0.6130  0.3029  1.0346
  207MOL0     O27834   3.467   6.913   0.353 -0.5245  0.0696  0.4171
  207MOL0     C27835   3.444   6.806   0.272 -0.7736 -0.1523  0.7544
  207MOL0     C27836   3.384   6.681   0.318  0.6094  0.3220  0.1633
  207MOL0     C27837   3.345   6.580   0.229 -0.1722  1.2641 -0.8269
  207MOL0     C27838   3.368   6.593   0.092 -0.0026 -0.6579  0.8088
  207MOL0     C27839   3.341   6.497  -0.013  0.6278 -0.2181 -0.6049
  207MOL0     O27840   3.347   6.536  -0.143 -0.2601  0.0591 -0.5055
  207MOL0     C27841   3.293   6.452  -0.230 -0.2774 -0.4098 -0.2308
  207MOL0     C27842   3.178   6.483  -0.299 -0.3664  0.3910 -1.3492
  207MOL0     C27843   3.110   6.388  -0.380 -0.6969  0.2768 -0.0281
  207MOL0     C27844   3.168   6.263  -0.395 -0.7283  0.3813  1.2289
  207MOL0     O27845   3.111   6.162  -0.465  0.0496 -0.1602  1.1329
  207MOL0     C27846   2.971   6.180  -0.504 -0.3455  0.9011  0.2395
  207MOL0     C27847   2.882   6.163  -0.385  1.4545 -0.2551 -0.0217
  207MOL0     C27848   2.739   6.203  -0.429 -0.0577  0.2729  0.3417
  207MOL0     C27849   2.635   6.198  -0.317 -0.0306  0.5436 -0.5154
  207MOL0     C27850   2.617   6.063  -0.251 -0.3912 -0.1303  0.1665
  207MOL0     C27851   2.532   6.059  -0.122  0.4162 -0.8493  0.0202
  207MOL0     C27852   2.402   6.128  -0.148  0.2336 -0.8612  0.3622
  207MOL0     C27853   2.291   6.079  -0.055 -0.6095  0.4799 -0.1379
  207MOL0    Cl27854   2.347   6.100   0.109  0.1121  0.0014  0.1585
  207MOL0     C27855   3.300   6.243  -0.337 -0.1699  0.6242  0.8199
  207MOL0     C27856   3.360   6.330  -0.256  0.2896  0.2752  0.0393
  207MOL0     O27857   3.307   6.379   0.025  0.2883 -0.5975  0.6216
  207MOL0     C27858   3.432   6.714   0.045  0.6099  0.8735 -0.3623
  207MOL0     C27859   3.467   6.817   0.133 -0.6983 -0.5181 -0.4292
  207MOL0     N27860   3.945   6.985   0.838  0.1200 -0.1945 -0.1386
  207MOL0     N27861   3.985   6.930   0.942  0.4223  0.0198  0.2047
  207MOL0     C27862   3.681   7.339   1.987 -0.0541 -0.2773 -0.4301
  207MOL0     C27863   3.653   7.338   2.118  0.9341  0.3124 -1.0328
  207MOL0     C27864   3.377   7.253   2.500 -0.2672 -0.3094  0.1956
  207MOL0     C27865   3.491   7.167   2.544  0.9226 -0.6301 -0.4031
  207MOL0     C27866   3.491   7.099   2.662  0.9073 -0.0179 -0.1268
  207MOL0     C27867   3.377   7.104   2.738  0.7179 -0.6169  0.3555
  207MOL0     O27868   3.379   7.030   2.847 -0.3537  0.5891 -0.0752
  207MOL0     C27869   3.261   6.950   2.852 -0.0012 -0.7034 -0.1283
  207MOL0     C27870   3.283   6.842   2.963  0.6803  0.5375  0.5867
  207MOL0     C27871   3.159   6.802   3.047  0.0439 -0.5215  0.3865
  207MOL0     C27872   3.122   6.918   3.147 -0.5356  0.9629  0.1080
  207MOL0     C27873   3.015   6.885   3.238 -0.0638 -0.9635 -0.6066
  207MOL0     C27874   2.940   6.825   3.316  0.2635 -0.3074 -0.0701
  207MOL0     C27875   3.271   7.187   2.711 -0.4158 -0.0692 -0.7057
  207MOL0     C27876   3.267   7.264   2.594  0.1159 -0.5373 -0.4674
  207MOL0     C27877   3.159   7.371   2.580 -1.0324  0.2092 -0.5644
  207MOL0     H27878   3.314   7.284   2.100 -2.2098 -1.0759 -3.4618
  207MOL0     H27879   3.361   7.316   1.858 -0.9183  1.2761  0.6754
  207MOL0     H27880   3.808   7.390   1.733  2.6357 -0.8243 -1.6739
  207MOL0     H27881   3.795   7.219   1.784 -1.2691 -1.0053 -0.3480
  207MOL0     H27882   3.863   7.279   1.545 -1.5482  2.8852 -2.0371
  207MOL0     H27883   3.696   7.313   1.511 -0.6671  1.7720  1.8380
  207MOL0     H27884   3.639   7.063   1.570  1.2253 -1.1056  2.7231
  207MOL0     H27885   3.809   7.054   1.635 -0.9232 -0.0166  0.4690
  207MOL0     H27886   3.732   7.098   1.342 -0.4256  2.3745  2.1362
  207MOL0     H27887   3.894   7.095   1.401  0.2865  1.1356  1.1620
  207MOL0     H27888   3.838   6.832   1.460  1.3354  0.0462  0.3054
  207MOL0     H27889   3.689   6.857   1.391  0.3556  0.3776  1.1128
  207MOL0     H27890   3.816   6.951   1.177 -0.0231 -1.1617 -0.8779
  207MOL0     H27891   3.964   6.907   1.259 -0.8212  0.2445  0.4518
  207MOL0     H27892   3.749   6.717   1.152  0.0201 -0.7919 -0.4205
  207MOL0     H27893   3.878   6.669   1.270  0.5732  0.5369 -0.8782
  207MOL0     H27894   4.046   6.727   1.114  1.1475  1.9591 -1.9959
  207MOL0     H27895   3.927   6.624   1.029  1.9947  0.0221 -1.3584
  207MOL0     H27896   3.723   6.747   0.886  2.7456 -2.8363 -2.1793
  207MOL0     H27897   3.647   6.965   0.702 -0.0715 -1.6401  1.7111
  207MOL0     H27898   3.785   7.046   0.626  0.1630 -0.3008  0.0856
  207MOL0     H27899   3.854   6.824   0.521 -0.3606 -0.0445 -0.4379
  207MOL0     H27900   3.756   6.741   0.645  0.8471  1.4702  2.3569
  207MOL0     H27901   3.618   6.708   0.464 -1.4047  0.4147 -2.2461
  207MOL0     H27902   3.698   6.846   0.378  0.7499  0.2566  0.1304
  207MOL0     H27903   3.529   6.983   0.532  1.4222 -0.3959  1.6784
  207MOL0     H27904   3.438   6.826   0.531 -0.2200 -0.3250  0.8318
  207MOL0     H27905   3.362   6.680   0.424 -1.0701  2.5447 -0.0745
  207MOL0     H27906   3.287   6.492   0.256 -1.3750  2.4007  0.4158
  207MOL0     H27907   3.154   6.588  -0.305 -2.9189 -0.1522 -1.6260
  207MOL0     H27908   3.015   6.415  -0.423 -1.0932 -1.1389 -0.0918
  207MOL0     H27909   2.944   6.276  -0.549 -0.4352  1.8268  2.1608
  207MOL0     H27910   2.940   6.108  -0.581  2.3316 -0.4178  0.2775
  207MOL0     H27911   2.897   6.062  -0.347 -2.0400 -0.1030  2.1478
  207MOL0     H27912   2.913   6.227  -0.302 -2.1167 -1.3042  2.3521
  207MOL0     H27913   2.751   6.308  -0.460  1.5138 -0.2853 -1.0371
  207MOL0     H27914   2.712   6.144  -0.517  1.7129  3.3583 -2.4877
  207MOL0     H27915   2.539   6.232  -0.357 -0.7989  2.5992  2.7118
  207MOL0     H27916   2.672   6.272  -0.245  2.2214 -0.8190 -0.1471
  207MOL0     H27917   2.715   6.017  -0.233 -1.3316 -2.0619  0.6719
  207MOL0     H27918   2.570   5.998  -0.326 -0.1178  0.1760 -0.2767
  207MOL0     H27919   2.505   5.954  -0.110 -1.7459 -0.3401  0.0359
  207MOL0     H27920   2.592   6.087  -0.035 -2.2653 -2.2660  2.4887
  207MOL0     H27921   2.376   6.103  -0.251 -0.3439 -2.4906  0.8567
  207MOL0     H27922   2.417   6.234  -0.128  2.9004 -1.0045 -0.5623
  207MOL0     H27923   2.196   6.131  -0.071 -1.1342 -0.0423  1.1791
  207MOL0     H27924   2.289   5.972  -0.077 -1.6165  0.5035 -0.2455
  207MOL0     H27925   3.344   6.145  -0.328  0.0616  0.6007 -0.3609
  207MOL0     H27926   3.453   6.303  -0.208  0.2384 -1.4135 -0.7335
  207MOL0     H27927   3.428   6.740  -0.060 -1.6977 -4.5807 -1.9709
  207MOL0     H27928   3.489   6.905   0.073 -0.1410 -1.3677 -1.5180
  207MOL0     H27929   3.786   7.350   1.964 -0.1398  1.7054 -0.0558
  207MOL0     H27930   3.723   7.352   2.199 -0.6357 -0.3263  0.5179
  207MOL0     H27931   3.577   7.161   2.478  3.3916 -1.0341  2.5995
  207MOL0     H27932   3.564   7.020   2.682  1.8710  0.8608 -0.0928
  207MOL0     H27933   3.235   6.910   2.754  0.3106 -0.3480 -0.3589
  207MOL0     H27934   3.178   7.008   2.893 -0.5058 -1.5578  0.0862
  207MOL0     H27935   3.365   6.886   3.021  2.2382 -1.0196 -0.3504
  207MOL0     H27936   3.317   6.758   2.902 -0.2148 -1.4451  2.7076
  207MOL0     H27937   3.182   6.714   3.107 -2.0393 -0.5141  1.2833
  207MOL0     H27938   3.075   6.780   2.981  0.1031  1.2568 -0.3401
  207MOL0     H27939   3.199   6.945   3.220  1.5655 -0.3312 -1.4991
  207MOL0     H27940   3.108   6.998   3.074  1.3471 -0.3898 -1.8758
  207MOL0     H27941   2.862   6.763   3.355  0.4580 -1.3473 -1.2696
  207MOL0     H27942   3.186   7.200   2.777  0.5632  2.0904  0.1995
  207MOL0     H27943   3.103   7.377   2.486 -1.1144 -1.3843 -0.6399
  207MOL0     H27944   3.083   7.372   2.659 -1.2841 -0.8663 -0.7817
  207MOL0     H27945   3.223   7.459   2.586  2.6265 -2.2880  3.7364
  208MOL0     O27946   6.035   2.786   4.315 -0.2324 -0.1264 -0.5340
  208MOL0     C27947   6.082   2.741   4.416  0.5099 -0.3579 -0.0112
  208MOL0     O27948   6.134   2.617   4.424  0.1781 -0.1517  0.4811
  208MOL0     C27949   6.085   2.523   4.336 -0.7013  0.1360  1.1869
  208MOL0     C27950   5.961   2.463   4.369 -0.1454 -0.2362  0.2431
  208MOL0     C27951   5.903   2.360   4.292  0.2328 -0.6086  1.2701
  208MOL0     C27952   5.978   2.320   4.177 -0.1010  0.1606 -0.9967
  208MOL0     O27953   5.931   2.214   4.106  0.2485 -0.3935  0.5681
  208MOL0     C27954   6.019   2.119   4.054  0.0147  0.6869  0.1788
  208MOL0     C27955   5.939   1.999   4.003  0.0360 -0.1965 -0.4879
  208MOL0     C27956   5.852   1.920   4.107  0.2532  0.0202  0.1986
  208MOL0     C27957   5.895   1.778   4.106  0.1162 -0.9027  0.0808
  208MOL0     C27958   5.876   1.712   4.249  0.2545  0.6354  0.8423
  208MOL0     C27959   5.985   1.776   4.345  0.3415 -0.2476 -0.1722
  208MOL0     C27960   5.969   1.703   4.482 -0.5828  0.3899 -0.2669
  208MOL0     C27961   6.063   1.742   4.589 -0.1905 -0.1772  0.4696
  208MOL0     N27962   6.040   1.874   4.635 -0.4846 -0.4109  0.0868
  208MOL0     C27963   6.070   1.994   4.577  0.3751  0.9125 -0.5167
  208MOL0     C27964   6.024   2.098   4.652  0.0551  0.5731  0.5054
  208MOL0     C27965   6.057   2.236   4.612 -0.8369 -0.3166  1.1082
  208MOL0     C27966   6.070   2.331   4.726 -0.3433  0.0208  0.0378
  208MOL0     C27967   6.173   2.274   4.829 -0.0218  1.0497 -0.6271
  208MOL0     C27968   6.231   2.386   4.916 -0.0496  0.4128 -0.1580
  208MOL0     O27969   6.346   2.430   4.843 -0.4952 -0.1471  0.9425
  208MOL0     C27970   6.432   2.523   4.896 -0.3591  1.1109 -0.5211
  208MOL0     C27971   6.486   2.632   4.814 -1.4056  0.5953 -1.1411
  208MOL0     C27972   6.552   2.728   4.876  0.3707 -0.5902  0.5414
  208MOL0     C27973   6.563   2.736   5.022 -1.7212 -0.5817  1.1554
  208MOL0     C27974   6.631   2.848   5.090 -0.3304  0.2970 -0.1160
  208MOL0     O27975   6.647   2.831   5.230  0.6631  0.6213 -0.6927
  208MOL0     C27976   6.698   2.941   5.296  0.3911  0.0672 -0.4894
  208MOL0     C27977   6.618   3.057   5.317 -0.3760 -0.6889  0.0474
  208MOL0     C27978   6.673   3.158   5.383 -0.1856 -0.4329  0.5639
  208MOL0     C27979   6.807   3.170   5.422 -0.3039 -0.4881  0.1768
  208MOL0     O27980   6.867   3.277   5.480  0.0454  0.4328 -0.1188
  208MOL0     C27981   6.798   3.400   5.509  0.0764 -0.1830 -0.3569
  208MOL0     C27982   6.885   3.479   5.619  0.0202  0.3057  0.3451
  208MOL0     C27983   6.949   3.393   5.732  0.3799 -0.1902 -0.4730
  208MOL0     C27984   6.841   3.374   5.841  0.2379 -1.1726  0.3921
  208MOL0     C27985   6.885   3.268   5.942 -0.5164 -0.2981 -0.0042
  208MOL0     C27986   6.894   3.120   5.888  1.1205  0.2282  0.1388
  208MOL0     C27987   6.760   3.049   5.838 -0.1668 -0.1862  2.4176
  208MOL0     C27988   6.657   3.014   5.948 -1.1451 -0.2337  0.2184
  208MOL0    Cl27989   6.501   3.008   5.874 -0.2305  0.1757  0.5404
  208MOL0     C27990   6.887   3.058   5.390  0.6387  0.0126 -0.1432
  208MOL0     C27991   6.834   2.941   5.328 -0.3513  0.8755 -0.7446
  208MOL0     O27992   6.668   2.941   5.023 -0.1174  0.3157 -0.1505
  208MOL0     C27993   6.513   2.629   5.095 -0.5177 -0.5379 -1.2105
  208MOL0     C27994   6.444   2.527   5.039  0.4624  0.8996 -0.1036
  208MOL0     N27995   5.954   2.035   4.758 -0.3841 -0.2324 -0.2782
  208MOL0     N27996   5.962   1.909   4.740  0.3476 -0.1692  0.1333
  208MOL0     C27997   6.100   2.390   4.143 -0.9646 -0.0153 -0.8514
  208MOL0     C27998   6.159   2.487   4.228 -0.0284  0.3898 -0.7526
  208MOL0     C27999   6.129   2.823   4.529  0.8356 -0.6744  0.6814
  208MOL0     C28000   6.157   2.770   4.654 -0.2516 -0.0152 -0.4904
  208MOL0     C28001   6.234   2.840   4.747 -0.4705 -0.0751  0.1388
  208MOL0     C28002   6.278   2.968   4.722 -0.1056 -0.9537 -1.2605
  208MOL0     O28003   6.370   3.020   4.815 -0.3565 -0.0119 -0.9089
  208MOL0     C28004   6.416   3.156   4.810 -0.2009 -0.3108  0.5519
  208MOL0     C28005   6.350   3.251   4.908  0.1750 -0.8567 -0.1707
  208MOL0     C28006   6.375   3.399   4.860  0.3305 -0.2021 -0.1877
  208MOL0     C28007   6.350   3.492   4.987  0.1052 -0.0770  0.2615
  208MOL0     C28008   6.443   3.463   5.098 -0.5986  0.5383 -0.3517
  208MOL0     C28009   6.526   3.435   5.183 -0.3068 -0.5843 -0.2673
  208MOL0     C28010   6.232   3.038   4.607 -0.2352  0.3586 -0.5030
  208MOL0     C28011   6.163   2.966   4.514 -0.6212  0.1955 -0.4580
  208MOL0     C28012   6.136   3.038   4.386 -0.6837  0.1722 -0.5790
  208MOL0     H28013   5.911   2.494   4.461  0.5436  1.0871  0.2028
  208MOL0     H28014   5.807   2.315   4.315 -1.4631  0.3531 -3.0636
  208MOL0     H28015   6.057   2.180   3.971 -3.0337  2.9764  0.2821
  208MOL0     H28016   6.090   2.078   4.126 -0.8757  1.8889  1.8132
  208MOL0     H28017   6.006   1.931   3.948 -1.7832 -0.9235 -1.9109
  208MOL0     H28018   5.866   2.030   3.928  0.9783  1.1351 -0.8904
  208MOL0     H28019   5.744   1.918   4.089  0.1796  1.3933  0.4018
  208MOL0     H28020   5.867   1.972   4.202  3.3226 -1.5570  0.7029
  208MOL0     H28021   5.840   1.724   4.028  1.9256 -3.0525  0.1822
  208MOL0     H28022   5.997   1.759   4.072 -0.7962 -2.5760 -1.9440
  208MOL0     H28023   5.782   1.722   4.304  0.8619  0.2584  1.9881
  208MOL0     H28024   5.902   1.606   4.241 -0.7021  0.3430  1.4179
  208MOL0     H28025   6.088   1.764   4.309 -0.1768  1.8168 -2.6627
  208MOL0     H28026   5.968   1.881   4.369 -0.9674 -0.4206 -0.3129
  208MOL0     H28027   5.981   1.596   4.466  0.3813  0.2639  1.1359
  208MOL0     H28028   5.867   1.724   4.516 -0.3189  0.4885  0.4805
  208MOL0     H28029   6.062   1.671   4.672  0.5052  0.6664  1.2233
  208MOL0     H28030   6.169   1.742   4.559 -0.4161 -0.1519 -0.3316
  208MOL0     H28031   6.131   1.999   4.487  2.6699 -2.5596  0.6239
  208MOL0     H28032   6.147   2.237   4.550 -2.7350  4.3370 -2.1270
  208MOL0     H28033   5.984   2.277   4.542  1.0735  4.6063  1.5692
  208MOL0     H28034   6.111   2.427   4.696  0.5268 -0.1924  0.4978
  208MOL0     H28035   5.971   2.335   4.772 -1.1905 -1.3901 -1.5234
  208MOL0     H28036   6.249   2.219   4.773  0.1142 -0.9272  1.3603
  208MOL0     H28037   6.127   2.213   4.907  0.3977  1.4649 -0.0523
  208MOL0     H28038   6.259   2.349   5.015  0.6054 -0.2143 -0.5647
  208MOL0     H28039   6.160   2.468   4.932 -0.5102 -0.0857  0.3646
  208MOL0     H28040   6.456   2.630   4.710 -0.8832 -0.3751 -1.2878
  208MOL0     H28041   6.595   2.807   4.816  0.1381 -1.0424 -0.2433
  208MOL0     H28042   6.518   3.068   5.277 -1.9997  0.3090  3.8524
  208MOL0     H28043   6.602   3.239   5.397 -0.9921 -1.3417  1.8952
  208MOL0     H28044   6.792   3.454   5.414 -2.3822  0.7687  0.2812
  208MOL0     H28045   6.703   3.375   5.556 -0.8615  3.0838 -0.2755
  208MOL0     H28046   6.963   3.534   5.567 -0.6500 -1.3238 -2.6102
  208MOL0     H28047   6.820   3.549   5.673  0.7934 -0.2530  2.0767
  208MOL0     H28048   6.985   3.297   5.693  1.1641  0.0303 -0.3132
  208MOL0     H28049   7.039   3.430   5.781  0.8993 -4.2600  2.1153
  208MOL0     H28050   6.746   3.343   5.795  0.6754 -3.4256  0.8863
  208MOL0     H28051   6.826   3.469   5.893  0.3529 -0.3650 -1.0017
  208MOL0     H28052   6.811   3.271   6.022 -1.4794  1.6595 -0.8937
  208MOL0     H28053   6.977   3.296   5.995 -0.5749 -1.1284  0.5519
  208MOL0     H28054   6.961   3.125   5.802  0.5252  4.4265 -0.3061
  208MOL0     H28055   6.945   3.063   5.966  0.2963 -0.4714  0.1851
  208MOL0     H28056   6.788   2.966   5.774  0.9872  2.2061 -0.3940
  208MOL0     H28057   6.710   3.118   5.770 -0.6812 -0.3519  2.6184
  208MOL0     H28058   6.681   2.927   6.010 -0.3891 -0.2731 -0.1173
  208MOL0     H28059   6.651   3.101   6.014  0.2210 -0.0088  0.0718
  208MOL0     H28060   6.991   3.074   5.417 -0.1015  1.2000  2.3529
  208MOL0     H28061   6.901   2.861   5.300 -1.1431  0.8461 -2.6764
  208MOL0     H28062   6.525   2.607   5.201 -0.7994  2.0758 -0.5812
  208MOL0     H28063   6.415   2.449   5.109  2.2486 -0.4886 -0.8489
  208MOL0     H28064   6.151   2.363   4.051 -0.8871 -1.0128 -0.5314
  208MOL0     H28065   6.255   2.528   4.199  1.4202 -1.3309  1.2571
  208MOL0     H28066   6.123   2.668   4.666  0.4974 -0.3833 -1.4128
  208MOL0     H28067   6.277   2.799   4.837  1.9649 -0.7275 -1.2078
  208MOL0     H28068   6.406   3.192   4.707 -0.7550 -3.7322 -0.7390
  208MOL0     H28069   6.524   3.159   4.827  0.3800  0.7162 -2.6688
  208MOL0     H28070   6.391   3.224   5.006  3.3864  0.2543 -1.0802
  208MOL0     H28071   6.244   3.226   4.895 -0.6863  2.1366  0.4325
  208MOL0     H28072   6.300   3.414   4.781  1.2693 -1.9127 -1.4745
  208MOL0     H28073   6.477   3.417   4.825  0.9248  0.4864  1.7858
  208MOL0     H28074   6.372   3.596   4.962  0.6648 -0.2500  0.0352
  208MOL0     H28075   6.244   3.476   5.008  0.3807  1.0734  2.9594
  208MOL0     H28076   6.597   3.411   5.260 -1.0758  0.5344  0.8282
  208MOL0     H28077   6.271   3.137   4.583  1.8920  0.4264  2.6011
  208MOL0     H28078   6.032   3.070   4.375 -0.5989  0.8968  0.6267
  208MOL0     H28079   6.184   3.137   4.388  1.0431 -0.4519 -3.5202
  208MOL0     H28080   6.177   2.984   4.300 -0.5923  0.3795 -0.6692
  209MOL0     O28081   2.342   5.034   7.357 -0.3609  0.0089 -0.2891
  209MOL0     C28082   2.330   5.061   7.239 -0.2594  0.0798 -0.7621
  209MOL0     O28083   2.341   5.185   7.192 -0.5453  0.2841 -0.0286
  209MOL0     C28084   2.379   5.285   7.276  0.0411  0.3860  0.6864
  209MOL0     C28085   2.508   5.279   7.329 -0.6278  0.0919 -0.4027
  209MOL0     C28086   2.558   5.374   7.414 -0.2826 -1.2544  0.1434
  209MOL0     C28087   2.475   5.488   7.440  0.2585 -0.3144  0.2164
  209MOL0     O28088   2.516   5.590   7.524  0.4210  0.5801  0.2131
  209MOL0     C28089   2.508   5.575   7.669  0.4321  0.6372 -0.4655
  209MOL0     C28090   2.443   5.700   7.735 -1.7275  0.0421 -0.3110
  209MOL0     C28091   2.514   5.829   7.698  0.6010 -0.2888  0.9838
  209MOL0     C28092   2.430   5.951   7.732 -1.0925 -0.3015 -0.5433
  209MOL0     C28093   2.449   5.975   7.883  0.8397 -0.0888  1.1757
  209MOL0     C28094   2.387   6.107   7.919 -0.2264  0.5630  0.6456
  209MOL0     C28095   2.427   6.153   8.066 -0.7579 -0.0620  0.3052
  209MOL0     C28096   2.574   6.208   8.094  0.2283  0.3588  0.5740
  209MOL0     N28097   2.672   6.099   8.145  0.4060 -0.2831  0.6223
  209MOL0     C28098   2.617   5.986   8.207 -0.8038  0.1349  1.2332
  209MOL0     C28099   2.721   5.897   8.203 -0.7962 -0.1545  0.6235
  209MOL0     C28100   2.718   5.756   8.252  0.4361 -0.6402  0.2173
  209MOL0     C28101   2.829   5.719   8.358 -0.8626 -0.3454  0.3550
  209MOL0     C28102   2.822   5.567   8.384 -0.6527  0.3063  0.2450
  209MOL0     C28103   2.956   5.499   8.434  0.5599  0.9252  0.8205
  209MOL0     O28104   2.908   5.369   8.480  0.4426  0.1195 -0.9541
  209MOL0     C28105   2.985   5.330   8.581 -0.7306 -0.2109 -0.3613
  209MOL0     C28106   3.123   5.358   8.589 -0.3915  0.6126 -0.0163
  209MOL0     C28107   3.213   5.304   8.684 -0.3952 -0.9012 -0.6587
  209MOL0     C28108   3.162   5.218   8.789  0.6435 -0.0771 -0.3127
  209MOL0     C28109   3.250   5.141   8.882 -0.5425 -0.2793 -0.3064
  209MOL0     O28110   3.199   5.090   8.991  0.5113 -0.0924  0.8036
  209MOL0     C28111   3.266   5.020   9.089  0.0565 -0.2580  0.6552
  209MOL0     C28112   3.248   5.064   9.214 -0.4794  0.2415  0.3839
  209MOL0     C28113   3.307   5.008   9.320  0.3264  1.0999 -0.7650
  209MOL0     C28114   3.378   4.889   9.298 -0.3798 -0.8511 -0.2004
  209MOL0     O28115   3.443   4.818   9.400 -0.1487 -0.5596  0.5009
  209MOL0     C28116   3.511   4.895   9.505 -0.1765 -0.3032 -0.1423
  209MOL0     C28117   3.432   4.918   9.631 -0.0786  0.3581  0.2974
  209MOL0     C28118   3.389   4.778   9.685  0.7376  0.7653  0.0226
  209MOL0     C28119   3.311   4.817   9.806 -0.1107 -0.1737  0.3110
  209MOL0     C28120   3.263   4.696   9.881 -0.2043 -0.1956 -1.1232
  209MOL0     C28121   3.197   4.702  10.021  0.6780  0.2694 -1.0870
  209MOL0     C28122   3.174   4.566  10.075  0.6449 -0.6436 -0.2493
  209MOL0     C28123   3.134   4.571  10.221  0.3147 -0.8463 -0.1974
  209MOL0    Cl28124   3.246   4.671  10.320  0.1871 -0.1793 -0.5249
  209MOL0     C28125   3.399   4.836   9.168  0.5482 -0.6250  0.7452
  209MOL0     C28126   3.340   4.905   9.053  0.0046 -0.1825 -0.0081
  209MOL0     O28127   3.370   5.128   8.859  0.4766  0.9012 -0.0484
  209MOL0     C28128   3.022   5.200   8.786 -0.6421  0.5626 -0.0647
  209MOL0     C28129   2.934   5.254   8.685 -0.0565 -0.1775 -1.0351
  209MOL0     N28130   2.830   5.962   8.137 -1.1013  0.2177  0.2205
  209MOL0     N28131   2.798   6.080   8.100 -0.6842 -0.2796  0.0069
  209MOL0     C28132   2.352   5.504   7.376  0.0085  0.0606 -0.0700
  209MOL0     C28133   2.300   5.405   7.304 -0.1632  0.0218  0.3626
  209MOL0     C28134   2.299   4.957   7.138  0.6627  0.4579 -0.0429
  209MOL0     C28135   2.220   4.989   7.029 -0.5910  0.2772  0.9296
  209MOL0     C28136   2.178   4.897   6.928  0.6178  0.1173 -0.5145
  209MOL0     C28137   2.216   4.772   6.943  0.7322 -0.2253 -0.2446
  209MOL0     O28138   2.163   4.685   6.848  0.2891 -1.3884 -0.1156
  209MOL0     C28139   2.181   4.548   6.858  0.7492  0.2411 -0.2159
  209MOL0     C28140   2.118   4.496   6.724  0.4901 -0.0574 -0.3713
  209MOL0     C28141   2.154   4.351   6.701 -0.8828 -0.4139 -0.4554
  209MOL0     C28142   2.099   4.295   6.569  1.1694  1.0673 -0.7633
  209MOL0     C28143   1.953   4.297   6.562  0.3155  0.5248 -0.2317
  209MOL0     C28144   1.833   4.276   6.555 -0.1827 -0.8198  0.3727
  209MOL0     C28145   2.299   4.730   7.049  0.7187  0.1415  0.3854
  209MOL0     C28146   2.336   4.819   7.142  0.2790 -1.8446 -1.0836
  209MOL0     C28147   2.411   4.757   7.260 -0.7110 -0.2926 -0.6470
  209MOL0     H28148   2.559   5.191   7.291  0.0017 -0.9191  2.4804
  209MOL0     H28149   2.658   5.353   7.449  1.1336 -1.0627 -3.4132
  209MOL0     H28150   2.479   5.473   7.694  0.2810  1.2691  2.2114
  209MOL0     H28151   2.610   5.582   7.709  1.5466  1.2754 -3.1717
  209MOL0     H28152   2.439   5.683   7.843 -0.2570  2.4827  0.2282
  209MOL0     H28153   2.345   5.705   7.688 -1.7529 -2.9951 -0.7450
  209MOL0     H28154   2.515   5.818   7.590  0.4511 -1.4019  1.0867
  209MOL0     H28155   2.614   5.829   7.744  2.5000 -1.5011 -2.7198
  209MOL0     H28156   2.465   6.031   7.666  0.4685 -0.4986  0.0048
  209MOL0     H28157   2.323   5.937   7.715 -1.0976 -0.9932 -0.0070
  209MOL0     H28158   2.406   5.889   7.935  0.9327 -2.1185 -1.8327
  209MOL0     H28159   2.557   5.980   7.896  0.7813 -1.2065  2.2786
  209MOL0     H28160   2.413   6.197   7.861 -0.0070  1.6645  2.3805
  209MOL0     H28161   2.279   6.091   7.907  0.0315 -1.2925  0.5897
  209MOL0     H28162   2.394   6.077   8.138  1.4911 -1.6809 -0.2426
  209MOL0     H28163   2.364   6.241   8.080 -1.4040 -0.6413  1.2013
  209MOL0     H28164   2.612   6.248   8.000 -0.8311 -3.0358 -1.4761
  209MOL0     H28165   2.558   6.280   8.175 -2.0502  0.9241 -0.2859
  209MOL0     H28166   2.525   5.972   8.263 -0.8688 -0.8319  0.8968
  209MOL0     H28167   2.626   5.733   8.306 -1.5836  1.3499 -2.1297
  209MOL0     H28168   2.732   5.696   8.162  3.1974  2.7263 -1.8522
  209MOL0     H28169   2.925   5.756   8.321 -0.4594 -0.8508  0.8737
  209MOL0     H28170   2.810   5.767   8.455 -2.0402  1.4556 -0.7115
  209MOL0     H28171   2.783   5.518   8.295  0.6795 -1.9117  0.8264
  209MOL0     H28172   2.752   5.535   8.462  1.4841  0.6521  2.4538
  209MOL0     H28173   3.000   5.560   8.514  0.0605 -0.4247  2.1670
  209MOL0     H28174   3.026   5.491   8.350 -0.7589  0.4131 -0.2645
  209MOL0     H28175   3.175   5.410   8.508 -0.2257 -0.0369 -0.3321
  209MOL0     H28176   3.320   5.316   8.672 -0.2001 -0.8715  0.9065
  209MOL0     H28177   3.185   5.151   9.234  2.7215  2.2257  2.7498
  209MOL0     H28178   3.284   5.051   9.418 -2.3067 -0.8878 -0.4211
  209MOL0     H28179   3.596   4.831   9.528 -1.5244 -3.1310 -2.2897
  209MOL0     H28180   3.540   4.995   9.471 -0.2769 -0.2428 -0.0504
  209MOL0     H28181   3.486   4.975   9.707  2.5069 -0.2583 -0.9523
  209MOL0     H28182   3.353   4.985   9.596  2.6609  2.4314 -2.4363
  209MOL0     H28183   3.327   4.738   9.605  1.3875 -0.2150 -0.0007
  209MOL0     H28184   3.483   4.724   9.699 -0.2047 -0.9748 -0.1293
  209MOL0     H28185   3.232   4.885   9.773  1.0689 -0.0845 -2.7121
  209MOL0     H28186   3.390   4.865   9.865  2.0845 -4.9111  1.6938
  209MOL0     H28187   3.349   4.629   9.885 -0.7113 -1.1754 -4.0719
  209MOL0     H28188   3.196   4.638   9.818 -0.9663  2.3553 -2.8273
  209MOL0     H28189   3.250   4.762  10.095 -4.0431  1.7315  1.5347
  209MOL0     H28190   3.102   4.753  10.005  1.1033  1.6069  0.4056
  209MOL0     H28191   3.264   4.507  10.056  1.6400  1.2331 -1.6132
  209MOL0     H28192   3.091   4.509  10.032  1.5222 -1.8494 -0.3967
  209MOL0     H28193   3.036   4.616  10.236  0.8541  0.0916  0.6204
  209MOL0     H28194   3.139   4.473  10.268 -2.9083  0.1768  2.6223
  209MOL0     H28195   3.463   4.749   9.159  2.2791  0.8106 -1.9921
  209MOL0     H28196   3.343   4.848   8.960 -0.0341 -1.5487  0.7980
  209MOL0     H28197   3.000   5.132   8.868  0.7146 -0.4793 -0.5347
  209MOL0     H28198   2.833   5.215   8.684  1.1453 -3.9010  1.1846
  209MOL0     H28199   2.314   5.602   7.403  1.6646  0.6457  0.2272
  209MOL0     H28200   2.203   5.396   7.255 -0.0959  0.8075  0.0756
  209MOL0     H28201   2.189   5.093   7.028 -1.7688  0.0531 -3.1675
  209MOL0     H28202   2.115   4.937   6.849  2.2083  2.2933 -0.7574
  209MOL0     H28203   2.122   4.507   6.940 -0.6414 -4.0239 -2.9875
  209MOL0     H28204   2.283   4.517   6.883 -0.0195 -1.5736  0.8102
  209MOL0     H28205   2.158   4.545   6.634  0.4277  1.0272  0.1811
  209MOL0     H28206   2.010   4.507   6.730  0.0638 -1.5546 -3.3091
  209MOL0     H28207   2.122   4.287   6.784 -1.0847 -0.8304 -0.8448
  209MOL0     H28208   2.263   4.350   6.699 -0.8839 -0.7034 -0.5795
  209MOL0     H28209   2.141   4.348   6.483  1.7303 -1.1484 -1.9141
  209MOL0     H28210   2.134   4.192   6.569 -0.9154  0.1923  2.5815
  209MOL0     H28211   1.729   4.263   6.536 -0.2080  0.4335 -0.4559
  209MOL0     H28212   2.326   4.626   7.066  0.2218 -0.2962 -1.3566
  209MOL0     H28213   2.379   4.804   7.353  0.4267  2.2221 -1.4137
  209MOL0     H28214   2.394   4.650   7.274 -1.8923  0.0747  0.9838
  209MOL0     H28215   2.516   4.785   7.245 -0.4750 -1.8176 -2.1519
  210MOL0     O28216   9.609   3.087   8.133  0.7204 -0.3887 -0.8238
  210MOL0     C28217   9.640   3.201   8.150  0.2023 -0.5261  0.8928
  210MOL0     O28218   9.637   3.268   8.266 -0.0660  0.5832  0.4576
  210MOL0     C28219   9.595   3.211   8.384  0.3555 -0.9295  0.1546
  210MOL0     C28220   9.552   3.070   8.402 -0.5794 -0.3277  0.7429
  210MOL0     C28221   9.513   3.028   8.529  1.8457 -0.4204  0.0146
  210MOL0     C28222   9.515   3.117   8.640 -1.0707 -0.3098  0.8394
  210MOL0     O28223   9.476   3.080   8.769  0.7615  0.6591  0.3972
  210MOL0     C28224   9.341   3.035   8.781 -0.5042 -0.4571 -0.3919
  210MOL0     C28225   9.323   2.925   8.884  0.8878 -0.7877  0.4755
  210MOL0     C28226   9.409   2.798   8.871 -0.5980  0.1225  0.4430
  210MOL0     C28227   9.401   2.699   8.991 -0.3085 -0.4937  0.6615
  210MOL0     C28228   9.505   2.575   8.971  0.5557 -0.0899  0.6103
  210MOL0     C28229   9.489   2.474   9.080 -0.1680 -0.4008 -0.2421
  210MOL0     C28230   9.573   2.350   9.058 -0.5813 -0.2621 -0.2847
  210MOL0     C28231   9.559   2.256   9.171 -0.1694 -0.1816  0.4513
  210MOL0     N28232   9.668   2.166   9.153  0.0454  0.2953 -0.0183
  210MOL0     C28233   9.672   2.064   9.063 -1.4040  0.0665  0.8187
  210MOL0     C28234   9.799   2.018   9.064  0.4831  0.3516 -0.5423
  210MOL0     C28235   9.859   1.926   8.964 -0.7733  0.3890 -0.5283
  210MOL0     C28236   9.763   1.817   8.919 -1.0042  0.3715 -0.1213
  210MOL0     C28237   9.696   1.735   9.038  0.0634 -0.8776  0.0805
  210MOL0     C28238   9.797   1.646   9.112  0.3788  0.5961  0.4238
  210MOL0     O28239   9.726   1.578   9.214  0.1595  0.3567  0.7674
  210MOL0     C28240   9.738   1.442   9.206  0.7054  0.3586 -0.2344
  210MOL0     C28241   9.815   1.374   9.289 -1.1796  0.6566 -0.3978
  210MOL0     C28242   9.801   1.237   9.303  0.0629 -0.9875 -0.2682
  210MOL0     C28243   9.718   1.163   9.221 -0.3974  0.1308 -0.2377
  210MOL0     C28244   9.710   1.024   9.224 -0.7563  0.2181 -0.0656
  210MOL0     O28245   9.795   0.964   9.318  0.6654 -0.5700 -0.1532
  210MOL0     C28246   9.789   0.826   9.323  0.6256 -0.4366 -0.8182
  210MOL0     C28247   9.700   0.763   9.411  0.2125 -0.0104 -0.3277
  210MOL0     C28248   9.702   0.620   9.423 -0.6400  0.4073  0.1256
  210MOL0     C28249   9.791   0.546   9.342  0.1402  0.2330 -0.2964
  210MOL0     O28250   9.774   0.409   9.336  0.0863 -0.5007 -1.1433
  210MOL0     C28251   9.829   0.346   9.219 -0.4297  0.2398  0.6060
  210MOL0     C28252   9.815   0.203   9.245 -0.0721  0.8476  0.1077
  210MOL0     C28253   9.847   0.106   9.123 -0.6928  0.6461  0.0139
  210MOL0     C28254   9.724   0.095   9.031 -1.0550  0.8949 -0.1300
  210MOL0     C28255   9.747   0.004   8.909 -0.8510 -0.1684 -0.3266
  210MOL0     C28256   9.602  -0.021   8.845  0.3285 -0.2927 -0.5403
  210MOL0     C28257   9.604  -0.120   8.717 -0.2111 -0.0496 -0.7188
  210MOL0     C28258   9.468  -0.136   8.648 -1.5490  0.1583  0.1175
  210MOL0    Cl28259   9.367  -0.199   8.782  0.0519 -0.1990  0.0255
  210MOL0     C28260   9.877   0.607   9.251  0.1904 -0.4586  0.2325
  210MOL0     C28261   9.870   0.745   9.237 -0.1507 -0.8292 -0.2045
  210MOL0     O28262   9.631   0.967   9.157  0.0020  0.4039  0.8158
  210MOL0     C28263   9.645   1.233   9.128  0.3174 -0.0720 -0.9044
  210MOL0     C28264   9.649   1.369   9.126  0.0060 -0.7533 -0.4091
  210MOL0     N28265   9.863   2.097   9.162  0.0273  0.0598 -0.0383
  210MOL0     N28266   9.790   2.185   9.212 -0.5489  0.3092 -0.7801
  210MOL0     C28267   9.547   3.253   8.621 -0.3002  0.4916  0.0482
  210MOL0     C28268   9.589   3.299   8.490 -0.6316 -0.0441  0.4162
  210MOL0     C28269   9.710   3.272   8.043  0.8866 -1.2191  0.7031
  210MOL0     C28270   9.755   3.194   7.940  0.3327 -0.3838  0.6473
  210MOL0     C28271   9.838   3.236   7.832 -0.8620 -0.7170 -0.4731
  210MOL0     C28272   9.876   3.370   7.822 -0.6362  1.1191 -0.8199
  210MOL0     O28273   9.958   3.416   7.713 -0.4814 -0.4279  0.6860
  210MOL0     C28274   9.995   3.556   7.718 -0.1866  0.3880  0.2178
  210MOL0     C28275  10.053   3.578   7.581 -0.3105 -0.3798  0.6090
  210MOL0     C28276  10.085   3.722   7.563 -1.3084 -0.0267 -0.5497
  210MOL0     C28277  10.205   3.779   7.639 -0.1943 -0.0914 -0.1408
  210MOL0     C28278  10.249   3.896   7.556  0.1855 -1.6641 -0.3167
  210MOL0     C28279  10.276   3.989   7.477 -0.4868  0.0317 -0.4314
  210MOL0     C28280   9.828   3.456   7.936  0.6227 -0.3734 -0.4962
  210MOL0     C28281   9.740   3.411   8.039 -0.9176  0.0866  0.2548
  210MOL0     C28282   9.706   3.530   8.142  0.4738  0.9159  0.1390
  210MOL0     H28283   9.564   2.990   8.330 -1.6216  0.4919 -0.3921
  210MOL0     H28284   9.472   2.931   8.554 -1.7218  0.7376 -0.7873
  210MOL0     H28285   9.284   3.126   8.806  0.4946  0.5566 -1.6683
  210MOL0     H28286   9.302   2.997   8.687 -0.3822  0.9310 -1.0351
  210MOL0     H28287   9.220   2.886   8.878  1.4610 -2.0861 -2.1390
  210MOL0     H28288   9.350   2.973   8.979  1.7691  0.2523 -0.2866
  210MOL0     H28289   9.513   2.830   8.858 -0.7003 -0.6843 -3.8682
  210MOL0     H28290   9.385   2.754   8.773  0.4217  1.1403 -0.2865
  210MOL0     H28291   9.443   2.762   9.070 -0.3577  1.4334 -0.7800
  210MOL0     H28292   9.298   2.669   9.012 -0.9056 -0.1348 -1.4705
  210MOL0     H28293   9.496   2.535   8.869 -2.0583  5.7332 -1.8657
  210MOL0     H28294   9.606   2.615   8.984  0.6450 -1.0644  3.9455
  210MOL0     H28295   9.509   2.533   9.170  1.1067  0.4604 -1.0546
  210MOL0     H28296   9.383   2.451   9.091 -0.0841 -0.4302  0.6190
  210MOL0     H28297   9.676   2.385   9.046  0.0492 -2.2414 -1.0561
  210MOL0     H28298   9.550   2.314   8.958 -1.1058  0.7227 -0.5311
  210MOL0     H28299   9.589   2.306   9.264  2.9281 -0.4483 -0.2668
  210MOL0     H28300   9.459   2.215   9.182 -1.3844  2.1960 -0.8748
  210MOL0     H28301   9.587   2.042   9.000 -0.1651  1.0344 -1.3163
  210MOL0     H28302   9.900   1.986   8.882  1.2636 -3.3934 -2.5018
  210MOL0     H28303   9.946   1.881   9.013 -1.7485  0.0541  0.9523
  210MOL0     H28304   9.677   1.852   8.861  0.8109  1.1729 -2.4402
  210MOL0     H28305   9.810   1.748   8.848  4.7544  2.2151  1.3954
  210MOL0     H28306   9.622   1.667   8.994  0.6367 -0.9379 -0.7992
  210MOL0     H28307   9.639   1.792   9.113  0.0825 -1.4306  0.5248
  210MOL0     H28308   9.879   1.708   9.149 -0.7779  0.7999  2.7880
  210MOL0     H28309   9.836   1.574   9.039 -0.6739 -0.4588  0.8731
  210MOL0     H28310   9.873   1.436   9.357  0.8470 -1.0055 -0.5071
  210MOL0     H28311   9.866   1.190   9.376  0.1839  0.1786  0.3942
  210MOL0     H28312   9.635   0.826   9.470 -0.7092 -2.5786  1.5871
  210MOL0     H28313   9.636   0.559   9.483  0.4718  0.9477  1.9898
  210MOL0     H28314   9.753   0.362   9.142  0.9705  1.1622 -0.6370
  210MOL0     H28315   9.934   0.364   9.196 -0.6832  0.1106 -0.7826
  210MOL0     H28316   9.894   0.181   9.317  1.1909  0.6445 -1.3188
  210MOL0     H28317   9.713   0.179   9.280 -0.4508  1.3140 -0.6537
  210MOL0     H28318   9.937   0.137   9.068 -0.0866 -0.1136  0.5522
  210MOL0     H28319   9.879   0.013   9.171  2.2503  1.4230 -0.2354
  210MOL0     H28320   9.699   0.193   8.990  2.7406  1.0423 -2.5293
  210MOL0     H28321   9.646   0.059   9.099 -3.0291 -2.0558 -3.6140
  210MOL0     H28322   9.791  -0.092   8.938  0.9626  1.2704  2.1270
  210MOL0     H28323   9.814   0.030   8.827 -1.0336  0.2631 -0.3443
  210MOL0     H28324   9.530  -0.048   8.924 -1.5254  1.1342 -1.6636
  210MOL0     H28325   9.572   0.074   8.800 -2.9789 -0.5545  0.7973
  210MOL0     H28326   9.650  -0.210   8.760  0.2318  1.1505  1.4734
  210MOL0     H28327   9.681  -0.089   8.646 -0.6519  2.4854 -0.1785
  210MOL0     H28328   9.439  -0.033   8.625 -1.3827  0.1816  0.0150
  210MOL0     H28329   9.476  -0.200   8.560  0.1511  0.3407  0.1069
  210MOL0     H28330   9.957   0.552   9.201  0.1211 -0.5886  0.2670
  210MOL0     H28331   9.950   0.797   9.185 -0.2231 -0.0480  0.4481
  210MOL0     H28332   9.570   1.181   9.070  0.4436 -3.0964  1.3906
  210MOL0     H28333   9.583   1.419   9.057 -1.7419  0.2529  1.8600
  210MOL0     H28334   9.532   3.327   8.699 -1.5800 -1.1136  1.3903
  210MOL0     H28335   9.615   3.403   8.475 -0.9000  0.0923  0.8783
  210MOL0     H28336   9.740   3.087   7.931 -1.8460 -0.1044  0.4781
  210MOL0     H28337   9.871   3.169   7.753  1.3858  0.7721 -0.9080
  210MOL0     H28338  10.070   3.579   7.795  2.2913 -0.3101 -1.8337
  210MOL0     H28339   9.904   3.615   7.730 -1.7177 -1.8374  0.2469
  210MOL0     H28340   9.977   3.553   7.507  2.5473 -1.2022 -2.2942
  210MOL0     H28341  10.144   3.517   7.576 -1.4036 -2.0535  0.4012
  210MOL0     H28342  10.002   3.790   7.581  0.7169  2.4429  0.0073
  210MOL0     H28343  10.117   3.722   7.459  0.0331  0.2191 -0.1652
  210MOL0     H28344  10.178   3.812   7.740  2.2739  1.6224  0.0336
  210MOL0     H28345  10.276   3.696   7.637  0.0191 -0.1758  3.7013
  210MOL0     H28346  10.314   4.076   7.426  2.8900  0.3796  2.2773
  210MOL0     H28347   9.854   3.562   7.932  1.0212 -0.3947  1.0423
  210MOL0     H28348   9.771   3.533   8.230 -1.7254 -0.1857  1.8976
  210MOL0     H28349   9.709   3.628   8.092  1.1897  1.1805  0.6797
  210MOL0     H28350   9.605   3.517   8.183  0.1120 -2.1020 -1.4238
  211MOL0     O28351   7.623   8.377   0.429  0.2698 -0.6556  0.0102
  211MOL0     C28352   7.542   8.297   0.390  0.0083 -0.2028  2.0905
  211MOL0     O28353   7.438   8.319   0.309 -0.6636 -0.6187 -0.1625
  211MOL0     C28354   7.414   8.454   0.277 -0.2943  0.0314 -0.5773
  211MOL0     C28355   7.327   8.521   0.363 -0.7213 -1.6418 -0.1973
  211MOL0     C28356   7.293   8.652   0.339  0.4990 -0.4727  0.1526
  211MOL0     C28357   7.355   8.718   0.231 -0.4879  0.1231 -1.0699
  211MOL0     O28358   7.346   8.854   0.201 -0.2710  0.0567  0.5929
  211MOL0     C28359   7.216   8.903   0.227  0.3110 -0.8710  0.0892
  211MOL0     C28360   7.214   9.054   0.187  0.2133  0.2309 -0.0554
  211MOL0     C28361   7.217   9.081   0.034 -0.3852 -1.3396  0.0816
  211MOL0     C28362   7.201   9.232  -0.012  0.1184  0.2164 -0.0429
  211MOL0     C28363   7.105   9.318   0.061  0.8706 -0.8221 -0.2313
  211MOL0     C28364   6.966   9.275   0.030 -0.2656  0.7014  0.4785
  211MOL0     C28365   6.857   9.357   0.107  0.5123 -0.6614 -0.0947
  211MOL0     C28366   6.873   9.339   0.259  0.3632 -0.3509  0.2426
  211MOL0     N28367   6.777   9.427   0.333  0.1158  0.0777 -0.5728
  211MOL0     C28368   6.649   9.409   0.355  0.2550  0.1702  0.9813
  211MOL0     C28369   6.607   9.520   0.424 -0.2730 -0.2771  0.4778
  211MOL0     C28370   6.469   9.530   0.473  1.0382 -0.6104 -0.3883
  211MOL0     C28371   6.447   9.437   0.588  1.0536 -0.5399  1.0861
  211MOL0     C28372   6.531   9.460   0.712  0.4978  0.0763  0.9030
  211MOL0     C28373   6.489   9.361   0.826 -0.9117  0.0568  0.3207
  211MOL0     O28374   6.505   9.226   0.787  0.1738 -0.0563 -0.0819
  211MOL0     C28375   6.632   9.178   0.780  0.7285  0.6042  0.8111
  211MOL0     C28376   6.666   9.131   0.649 -0.6298 -0.1793  0.1924
  211MOL0     C28377   6.796   9.090   0.611  0.5596 -0.5116  0.4470
  211MOL0     C28378   6.897   9.086   0.708  0.2346  0.2847 -0.2462
  211MOL0     C28379   7.027   9.014   0.682 -0.1133 -0.4222  0.5093
  211MOL0     O28380   7.120   9.003   0.783 -0.9290  0.2342  1.7237
  211MOL0     C28381   7.254   8.973   0.756 -1.2725 -1.3188  0.4475
  211MOL0     C28382   7.305   8.843   0.754  0.6057 -0.7659  0.3816
  211MOL0     C28383   7.432   8.807   0.714 -0.2276 -0.0872  0.5644
  211MOL0     C28384   7.526   8.908   0.676 -0.8138 -0.4785  0.4737
  211MOL0     O28385   7.655   8.881   0.655  0.5087 -0.3748 -0.7048
  211MOL0     C28386   7.687   8.748   0.607  0.2042  0.3100  0.2167
  211MOL0     C28387   7.800   8.751   0.502  0.6301 -0.1298  0.2025
  211MOL0     C28388   7.740   8.822   0.378  0.4569 -0.2061  0.1366
  211MOL0     C28389   7.853   8.883   0.290  0.8357 -0.8021 -0.9352
  211MOL0     C28390   7.951   8.789   0.217 -0.1737  0.4501  0.3013
  211MOL0     C28391   7.878   8.716   0.108  0.1721 -0.2239  1.4008
  211MOL0     C28392   7.919   8.581   0.076 -0.8196  0.8072  0.5080
  211MOL0     C28393   7.915   8.477   0.192  0.6116 -0.3583  0.8178
  211MOL0    Cl28394   7.962   8.314   0.153  0.0905 -0.0965 -0.2338
  211MOL0     C28395   7.478   9.048   0.672  0.2668  0.2706 -0.1075
  211MOL0     C28396   7.336   9.078   0.708 -0.6450 -0.8037  0.2851
  211MOL0     O28397   7.038   8.964   0.568  0.1707 -0.8465 -0.2420
  211MOL0     C28398   6.872   9.135   0.827  0.4490 -0.5689 -0.7105
  211MOL0     C28399   6.744   9.186   0.866  0.4819  0.0805  0.2148
  211MOL0     N28400   6.720   9.601   0.449 -0.0635  0.6268  0.8302
  211MOL0     N28401   6.820   9.542   0.397  0.3691  0.1741  0.2313
  211MOL0     C28402   7.450   8.650   0.153  0.5222  0.3417  0.4368
  211MOL0     C28403   7.475   8.519   0.179 -0.5962 -0.4435 -0.2152
  211MOL0     C28404   7.536   8.163   0.447  0.3272 -0.2969 -0.3551
  211MOL0     C28405   7.408   8.109   0.453 -0.6691  0.5712 -0.5492
  211MOL0     C28406   7.392   7.972   0.498  0.3537  0.0551 -0.3185
  211MOL0     C28407   7.506   7.901   0.535 -0.3356  0.0252  0.3127
  211MOL0     O28408   7.511   7.771   0.584  0.8008 -0.2488 -0.6392
  211MOL0     C28409   7.384   7.712   0.622  0.3583  1.3702  0.7097
  211MOL0     C28410   7.332   7.761   0.748 -0.1178 -0.3841  0.3022
  211MOL0     C28411   7.188   7.702   0.755  0.5852 -0.0565 -0.3232
  211MOL0     C28412   7.105   7.776   0.858 -0.3274 -0.3123 -0.4140
  211MOL0     C28413   7.054   7.901   0.797  0.6737 -0.5294 -0.4916
  211MOL0     C28414   7.004   8.009   0.765  0.2636  0.0535  0.8221
  211MOL0     C28415   7.626   7.959   0.520 -0.4544 -0.0501  0.4961
  211MOL0     C28416   7.651   8.086   0.479 -0.6450  0.4120 -0.1016
  211MOL0     C28417   7.783   8.148   0.447 -0.6842  0.2126  0.7545
  211MOL0     H28418   7.283   8.466   0.445 -2.2625  0.7295  0.6768
  211MOL0     H28419   7.227   8.693   0.415  0.8521  0.7441 -0.1791
  211MOL0     H28420   7.142   8.843   0.174  0.4757 -1.9314  1.0273
  211MOL0     H28421   7.201   8.899   0.336  0.6767 -0.8976  0.1424
  211MOL0     H28422   7.299   9.101   0.238  2.0776 -2.0698 -0.8852
  211MOL0     H28423   7.122   9.095   0.230  0.8635 -0.9189  2.6666
  211MOL0     H28424   7.145   9.014  -0.012  2.2163 -3.6338 -0.9145
  211MOL0     H28425   7.314   9.054  -0.010 -0.3415  1.9446 -2.2890
  211MOL0     H28426   7.298   9.282  -0.017  0.6754 -0.9218 -3.8071
  211MOL0     H28427   7.178   9.240  -0.119  0.2570 -2.4224 -0.3193
  211MOL0     H28428   7.121   9.311   0.169 -1.7121  1.5087  0.4019
  211MOL0     H28429   7.120   9.422   0.033  1.7230 -0.4938  1.2984
  211MOL0     H28430   6.940   9.293  -0.074 -1.9032  3.0180  1.2079
  211MOL0     H28431   6.956   9.167   0.043  1.2755  0.3635 -0.8375
  211MOL0     H28432   6.754   9.329   0.083 -0.5668  3.2686 -0.6987
  211MOL0     H28433   6.870   9.464   0.090 -1.6238 -0.1671  1.0482
  211MOL0     H28434   6.843   9.240   0.293 -5.8514  0.5888 -1.1688
  211MOL0     H28435   6.970   9.355   0.307 -0.2267 -0.3252  1.4819
  211MOL0     H28436   6.586   9.340   0.300  1.6780  1.2775 -2.3159
  211MOL0     H28437   6.465   9.630   0.517  2.5007 -0.7294  0.0735
  211MOL0     H28438   6.402   9.505   0.390 -3.1707  4.0694  1.0989
  211MOL0     H28439   6.339   9.425   0.601  1.0181 -1.8337 -0.2560
  211MOL0     H28440   6.481   9.345   0.542 -0.9078 -0.2839 -1.0286
  211MOL0     H28441   6.519   9.563   0.748 -1.9885 -0.0665  0.6349
  211MOL0     H28442   6.636   9.445   0.685  0.7502 -0.8555  2.2956
  211MOL0     H28443   6.381   9.377   0.836 -0.7679  0.7331  0.8444
  211MOL0     H28444   6.533   9.372   0.925 -2.4851 -0.9204  1.1598
  211MOL0     H28445   6.594   9.133   0.568  0.2722 -4.8385 -1.0251
  211MOL0     H28446   6.806   9.062   0.507 -2.1799  2.4035 -0.7736
  211MOL0     H28447   7.243   8.756   0.776 -0.0199 -1.1535 -2.5085
  211MOL0     H28448   7.467   8.704   0.718 -0.7607 -0.3490 -0.9903
  211MOL0     H28449   7.720   8.689   0.694 -0.2870 -2.2144 -1.2036
  211MOL0     H28450   7.603   8.700   0.555  3.1929 -2.0982 -2.7936
  211MOL0     H28451   7.880   8.807   0.551  0.9851  0.0050 -0.5191
  211MOL0     H28452   7.842   8.654   0.474 -1.5365 -0.4469 -2.2954
  211MOL0     H28453   7.677   8.755   0.319 -1.5218  1.4468  0.2561
  211MOL0     H28454   7.676   8.907   0.403  0.3393 -0.5880  1.1999
  211MOL0     H28455   7.915   8.946   0.354  0.1426 -0.1214 -0.9145
  211MOL0     H28456   7.804   8.949   0.218  1.6796 -1.2385 -1.9313
  211MOL0     H28457   7.998   8.722   0.289  0.7581  0.2070 -0.5073
  211MOL0     H28458   8.028   8.845   0.163 -0.8559 -0.1008 -1.3049
  211MOL0     H28459   7.770   8.699   0.114  0.1161  0.1329  1.4193
  211MOL0     H28460   7.895   8.771   0.015 -1.8094 -2.2585 -0.2914
  211MOL0     H28461   8.023   8.586   0.044 -2.1226  0.2177 -4.6302
  211MOL0     H28462   7.867   8.545  -0.013 -0.8315 -1.4818  1.3639
  211MOL0     H28463   7.953   8.514   0.288 -2.2377  0.6018  1.6870
  211MOL0     H28464   7.807   8.469   0.211 -0.2457  1.5327 -2.4991
  211MOL0     H28465   7.556   9.119   0.649  2.7889 -1.0877  3.4895
  211MOL0     H28466   7.305   9.182   0.700  0.2078 -0.6477 -1.3106
  211MOL0     H28467   6.953   9.131   0.900 -0.5824 -2.2907  0.4193
  211MOL0     H28468   6.731   9.229   0.965 -2.8306  1.1836 -0.5725
  211MOL0     H28469   7.500   8.707   0.075 -0.5323 -0.3051 -0.7637
  211MOL0     H28470   7.547   8.460   0.123 -1.3742 -1.4175 -0.2129
  211MOL0     H28471   7.320   8.159   0.414 -1.2822 -1.9422 -2.6833
  211MOL0     H28472   7.290   7.935   0.509  0.5000  0.0329  1.1751
  211MOL0     H28473   7.387   7.603   0.631  1.3047  1.3817  0.5824
  211MOL0     H28474   7.305   7.725   0.548 -3.6650 -1.8993  3.8962
  211MOL0     H28475   7.339   7.869   0.763 -0.2798 -0.6432  2.6178
  211MOL0     H28476   7.400   7.712   0.818  0.6910 -3.0932 -2.1674
  211MOL0     H28477   7.203   7.603   0.798 -1.7838 -1.7143 -3.0069
  211MOL0     H28478   7.124   7.699   0.666 -1.9944 -2.3257  1.4422
  211MOL0     H28479   7.016   7.722   0.894  1.5201 -0.4360  4.8459
  211MOL0     H28480   7.164   7.795   0.948  3.0840  0.2507 -2.5862
  211MOL0     H28481   6.954   8.100   0.741 -3.4699 -2.1830 -0.7572
  211MOL0     H28482   7.712   7.897   0.543 -2.5252 -3.9102 -1.2182
  211MOL0     H28483   7.868   8.083   0.470 -1.6908 -1.0677  0.9404
  211MOL0     H28484   7.783   8.188   0.346 -0.0773  3.8675  2.0579
  211MOL0     H28485   7.805   8.237   0.507  0.3469  0.0162  0.6916
  212MOL0     O28486   0.399   7.996   3.692  0.8695  0.9806  0.3245
  212MOL0     C28487   0.476   7.927   3.627  0.5401 -0.6961 -0.0781
  212MOL0     O28488   0.589   7.970   3.577 -0.7325  0.0510  0.1103
  212MOL0     C28489   0.641   8.091   3.620  0.2476  0.4726 -1.0808
  212MOL0     C28490   0.632   8.209   3.546 -0.5775 -0.2553  0.1097
  212MOL0     C28491   0.724   8.321   3.573 -0.4226 -0.5010 -0.1133
  212MOL0     C28492   0.807   8.309   3.684 -1.0290  0.9232  0.6604
  212MOL0     O28493   0.883   8.406   3.734 -0.2520 -0.5613  0.0308
  212MOL0     C28494   0.818   8.470   3.852 -0.2951 -0.5126  0.3723
  212MOL0     C28495   0.876   8.615   3.873  0.6644  0.5853 -0.6269
  212MOL0     C28496   1.028   8.602   3.913 -0.1924  0.1930  0.0528
  212MOL0     C28497   1.106   8.729   3.909  0.6965  0.3220 -0.4258
  212MOL0     C28498   1.258   8.715   3.950 -1.3487 -0.2784 -1.3286
  212MOL0     C28499   1.292   8.746   4.097  0.3552  0.1884  0.2160
  212MOL0     C28500   1.302   8.620   4.179 -1.0465 -0.3483 -0.3443
  212MOL0     C28501   1.421   8.526   4.146 -0.6940 -0.7920 -0.4995
  212MOL0     N28502   1.555   8.599   4.150 -1.0119 -0.4274 -0.7618
  212MOL0     C28503   1.630   8.631   4.265  0.0479  1.3365  0.8302
  212MOL0     C28504   1.742   8.690   4.210  0.3804 -0.2595  0.4427
  212MOL0     C28505   1.870   8.741   4.283 -0.3639 -0.2870  0.2149
  212MOL0     C28506   1.908   8.658   4.414 -0.2469  0.9799  1.0394
  212MOL0     C28507   1.835   8.716   4.534 -0.3100 -0.0427  0.3639
  212MOL0     C28508   1.845   8.626   4.656 -0.4440  0.1265  0.0215
  212MOL0     O28509   1.797   8.498   4.614 -0.4486 -0.5141  0.4020
  212MOL0     C28510   1.671   8.468   4.595  0.2059  0.0231  0.2709
  212MOL0     C28511   1.644   8.356   4.519 -0.3050  1.0732  0.1052
  212MOL0     C28512   1.516   8.312   4.494 -1.1420  0.6839 -0.7656
  212MOL0     C28513   1.408   8.398   4.531 -0.5299  0.2233 -0.9280
  212MOL0     C28514   1.276   8.353   4.497 -0.4040 -0.4053  0.1554
  212MOL0     O28515   1.273   8.264   4.385  0.2746  0.6763  0.2262
  212MOL0     C28516   1.159   8.246   4.314 -0.6807  1.3777  0.5992
  212MOL0     C28517   1.042   8.200   4.379 -0.0758  0.0720 -0.0415
  212MOL0     C28518   0.914   8.179   4.324 -0.4578  0.7043  0.4795
  212MOL0     C28519   0.910   8.214   4.188  0.2588 -0.7148 -0.1089
  212MOL0     O28520   0.798   8.188   4.115  0.5595  0.4981  0.8373
  212MOL0     C28521   0.665   8.214   4.165 -0.2598 -0.0737 -0.5888
  212MOL0     C28522   0.564   8.184   4.053  0.1116  0.6690  0.6063
  212MOL0     C28523   0.469   8.309   4.032 -0.0675 -0.9035  0.3966
  212MOL0     C28524   0.361   8.315   4.151 -0.8800 -0.4847  1.0129
  212MOL0     C28525   0.285   8.448   4.145 -0.2225  0.3679  0.6687
  212MOL0     C28526   0.172   8.452   4.240  0.6123  0.0341  0.2158
  212MOL0     C28527   0.044   8.410   4.163  0.6463 -0.6810  0.7500
  212MOL0     C28528  -0.063   8.345   4.250 -0.1131  0.4308 -0.3575
  212MOL0    Cl28529  -0.216   8.294   4.160 -0.0159  0.1340 -0.0642
  212MOL0     C28530   1.024   8.257   4.114 -0.4191  0.3858 -0.5027
  212MOL0     C28531   1.145   8.285   4.182 -0.3059 -0.3024  0.2068
  212MOL0     O28532   1.178   8.396   4.560  0.0416 -0.2906  0.0549
  212MOL0     C28533   1.439   8.500   4.621 -1.0500  0.2169  0.1968
  212MOL0     C28534   1.569   8.540   4.651 -0.3915 -0.1143  0.1306
  212MOL0     N28535   1.711   8.726   4.082 -0.6334  0.2358 -0.5604
  212MOL0     N28536   1.607   8.670   4.047 -0.3306 -0.0103  0.1390
  212MOL0     C28537   0.816   8.189   3.760  0.1265 -0.2387 -0.3005
  212MOL0     C28538   0.734   8.081   3.729  0.2048 -0.2677  0.4545
  212MOL0     C28539   0.457   7.778   3.621 -0.2635  0.7785  0.0761
  212MOL0     C28540   0.559   7.704   3.553  0.9172  0.6922  0.4385
  212MOL0     C28541   0.559   7.559   3.541 -0.1123  0.3151  0.1205
  212MOL0     C28542   0.448   7.485   3.588  0.5928  0.4049  0.7431
  212MOL0     O28543   0.460   7.344   3.567 -0.4588  0.0487 -0.6341
  212MOL0     C28544   0.357   7.255   3.612  0.0420  0.5023 -0.4054
  212MOL0     C28545   0.431   7.139   3.672  0.1905  0.3268  0.2005
  212MOL0     C28546   0.533   7.059   3.589  0.9500 -0.0285 -0.1971
  212MOL0     C28547   0.593   6.926   3.638  0.4545  0.4435 -0.3995
  212MOL0     C28548   0.482   6.822   3.645 -1.2105 -1.3789 -0.8281
  212MOL0     C28549   0.394   6.743   3.656  0.3441  0.0029 -0.5284
  212MOL0     C28550   0.340   7.557   3.642  0.8772  0.2572  0.1443
  212MOL0     C28551   0.345   7.699   3.667 -0.1890 -0.2097 -0.0784
  212MOL0     C28552   0.229   7.764   3.737 -0.3551  0.9496 -0.0597
  212MOL0     H28553   0.561   8.220   3.464 -0.5851 -0.9389  0.0182
  212MOL0     H28554   0.722   8.414   3.517 -0.4879 -0.9045 -0.7808
  212MOL0     H28555   0.710   8.477   3.836 -0.3742  3.3145  1.6313
  212MOL0     H28556   0.834   8.414   3.945  0.7908 -2.0264 -0.6768
  212MOL0     H28557   0.816   8.668   3.947 -3.4189 -0.9930 -2.4954
  212MOL0     H28558   0.856   8.667   3.778  1.0331  0.6624 -0.6621
  212MOL0     H28559   1.087   8.526   3.861  2.1548  1.0687  1.2804
  212MOL0     H28560   1.035   8.567   4.016  0.1999 -0.9170 -0.3291
  212MOL0     H28561   1.111   8.766   3.806  2.4790  2.7246  0.4091
  212MOL0     H28562   1.054   8.798   3.976  1.0021 -3.5788  4.4625
  212MOL0     H28563   1.304   8.616   3.938 -0.3674 -0.2007  1.2287
  212MOL0     H28564   1.317   8.793   3.901  1.9583 -0.5628  1.7706
  212MOL0     H28565   1.388   8.799   4.105  0.5634 -0.4368  2.8607
  212MOL0     H28566   1.218   8.815   4.138  1.0177 -0.0304  1.8663
  212MOL0     H28567   1.216   8.553   4.176 -0.3960 -1.8870  5.1104
  212MOL0     H28568   1.318   8.647   4.284 -0.3985 -1.8955 -0.0286
  212MOL0     H28569   1.428   8.446   4.221 -2.6294 -1.1450 -0.6531
  212MOL0     H28570   1.405   8.482   4.047  1.4134 -3.1198  0.0795
  212MOL0     H28571   1.615   8.608   4.370 -1.0392  2.0867  0.8490
  212MOL0     H28572   1.952   8.726   4.213  2.2165  4.1770  1.8548
  212MOL0     H28573   1.869   8.850   4.298  0.5007 -0.0154 -1.4903
  212MOL0     H28574   1.871   8.556   4.400 -2.2187  1.9210 -1.2382
  212MOL0     H28575   2.017   8.645   4.418 -0.5615 -1.9850  2.4529
  212MOL0     H28576   1.729   8.739   4.521 -0.8339 -2.3204  0.3574
  212MOL0     H28577   1.874   8.814   4.565 -2.0945  0.3299  1.5636
  212MOL0     H28578   1.798   8.669   4.745  0.2342 -0.9295  0.9203
  212MOL0     H28579   1.948   8.615   4.692 -0.1683 -0.4264 -0.8993
  212MOL0     H28580   1.732   8.304   4.483 -1.1763 -0.6327  0.3398
  212MOL0     H28581   1.506   8.220   4.437 -2.6746  2.1519 -3.0536
  212MOL0     H28582   1.041   8.184   4.486 -1.0232 -0.3567 -0.1033
  212MOL0     H28583   0.833   8.138   4.383  0.1695 -1.4340 -0.0423
  212MOL0     H28584   0.659   8.137   4.243 -0.9101 -0.6313 -1.1726
  212MOL0     H28585   0.640   8.308   4.215 -1.4551 -0.8329  0.3220
  212MOL0     H28586   0.612   8.170   3.956 -0.5161  3.0203 -0.1250
  212MOL0     H28587   0.508   8.095   4.082  3.5429 -0.9589  2.9044
  212MOL0     H28588   0.534   8.397   4.037 -2.5027  1.1394 -1.3890
  212MOL0     H28589   0.416   8.306   3.936 -2.0131 -0.1807  1.4033
  212MOL0     H28590   0.409   8.313   4.249 -1.4156  2.9821  1.4520
  212MOL0     H28591   0.298   8.225   4.153  0.6251 -1.5605  1.7130
  212MOL0     H28592   0.257   8.465   4.040 -0.8332 -1.2876  0.5367
  212MOL0     H28593   0.351   8.532   4.166 -1.9264  2.3275 -1.2630
  212MOL0     H28594   0.186   8.397   4.334  0.6501 -0.4864 -0.0894
  212MOL0     H28595   0.164   8.556   4.271  4.2322  0.6829 -0.5837
  212MOL0     H28596   0.069   8.342   4.082  2.5425 -1.2135  1.7225
  212MOL0     H28597   0.002   8.504   4.125 -0.1039 -2.0872 -2.1320
  212MOL0     H28598  -0.029   8.252   4.296 -2.1092  0.5894  1.6497
  212MOL0     H28599  -0.087   8.413   4.332  0.0428  1.1559 -0.9017
  212MOL0     H28600   1.024   8.267   4.006  2.7528 -1.3456 -0.7769
  212MOL0     H28601   1.237   8.315   4.132  0.5993  0.2983  2.1289
  212MOL0     H28602   1.360   8.556   4.670  0.2549  1.1118  1.3662
  212MOL0     H28603   1.589   8.631   4.706 -3.3315  0.2924  0.6673
  212MOL0     H28604   0.881   8.182   3.847 -1.4390  1.1882  1.0510
  212MOL0     H28605   0.754   7.990   3.785 -0.3899 -0.4412  0.3926
  212MOL0     H28606   0.641   7.745   3.496  0.8189 -1.4460 -1.3550
  212MOL0     H28607   0.638   7.501   3.493  0.3386  0.2936  0.8846
  212MOL0     H28608   0.302   7.228   3.520 -1.9843  0.8392  0.6431
  212MOL0     H28609   0.285   7.300   3.680  1.8428  1.2647  1.0609
  212MOL0     H28610   0.346   7.080   3.710 -0.3841  0.4555 -0.8474
  212MOL0     H28611   0.482   7.181   3.760  1.7626 -3.1073  1.0915
  212MOL0     H28612   0.617   7.128   3.575  2.3713 -1.6622 -0.1383
  212MOL0     H28613   0.488   7.043   3.491 -0.2514 -1.6093  0.5589
  212MOL0     H28614   0.667   6.880   3.572  0.3510 -3.3235  1.8507
  212MOL0     H28615   0.633   6.940   3.739  1.3221 -3.2026 -0.0942
  212MOL0     H28616   0.320   6.669   3.674  1.0805 -0.5144  0.4773
  212MOL0     H28617   0.256   7.495   3.671  0.3556  1.1122  0.5307
  212MOL0     H28618   0.262   7.840   3.809  0.2611 -0.1924  0.9074
  212MOL0     H28619   0.169   7.805   3.656 -1.6813  0.8236  0.8197
  212MOL0     H28620   0.173   7.687   3.790 -0.2855  1.4741  0.8059
  213MOL0     O28621   2.144   4.175   0.830 -0.1392 -0.3044  0.2171
  213MOL0     C28622   2.244   4.202   0.764 -0.0424 -0.0014  0.2548
  213MOL0     O28623   2.332   4.115   0.696 -0.4216  0.2609 -0.0150
  213MOL0     C28624   2.326   3.976   0.714  0.3179 -0.0627 -0.8860
  213MOL0     C28625   2.204   3.905   0.690  0.3281 -0.3134 -0.8080
  213MOL0     C28626   2.191   3.770   0.701  0.5452  0.1261  0.5697
  213MOL0     C28627   2.307   3.699   0.735 -0.6050 -0.1518  0.0530
  213MOL0     O28628   2.315   3.560   0.751 -0.0757 -0.9708 -0.4566
  213MOL0     C28629   2.213   3.495   0.837  0.6770 -0.3050  0.3677
  213MOL0     C28630   2.280   3.380   0.910 -0.0487  0.8385  0.0232
  213MOL0     C28631   2.175   3.307   1.001 -0.2803  1.4185  0.3196
  213MOL0     C28632   2.067   3.228   0.914  0.3388  0.2040  0.7845
  213MOL0     C28633   1.960   3.152   1.008 -0.3246 -0.2736  0.5603
  213MOL0     C28634   1.918   3.235   1.130 -0.6566 -0.0316 -0.5607
  213MOL0     C28635   1.808   3.163   1.192  0.3322  1.1784 -0.6274
  213MOL0     C28636   1.834   3.040   1.275  0.4970 -0.8084 -0.4323
  213MOL0     N28637   1.922   3.072   1.392  0.6161  0.5991  0.4439
  213MOL0     C28638   2.054   3.081   1.382 -0.5766  0.1735 -0.4248
  213MOL0     C28639   2.098   3.117   1.505  0.2263  0.5015  0.9476
  213MOL0     C28640   2.243   3.129   1.538 -0.5432  0.1599  0.4303
  213MOL0     C28641   2.322   3.013   1.563  1.1135 -0.4263 -0.5542
  213MOL0     C28642   2.401   2.960   1.446 -0.5836 -0.1279  0.8659
  213MOL0     C28643   2.514   2.871   1.500  0.1424 -0.1763 -0.0889
  213MOL0     O28644   2.587   2.812   1.394 -0.4300  0.7775 -0.4436
  213MOL0     C28645   2.681   2.883   1.311  0.0597  0.0962  0.4561
  213MOL0     C28646   2.743   3.004   1.339  0.9263 -0.3488  0.5394
  213MOL0     C28647   2.848   3.055   1.261 -0.5377 -0.0967  0.3771
  213MOL0     C28648   2.893   2.992   1.143  0.2197  1.1981 -0.4385
  213MOL0     C28649   3.005   3.048   1.058 -0.1726  0.4915  0.3276
  213MOL0     O28650   3.032   2.983   0.939 -0.5794  0.1033  0.1865
  213MOL0     C28651   3.137   3.029   0.861 -0.8999  0.3794 -0.1612
  213MOL0     C28652   3.125   3.150   0.786  0.1160 -0.2733 -0.8037
  213MOL0     C28653   3.239   3.186   0.714 -0.4355  0.1099  0.4134
  213MOL0     C28654   3.356   3.102   0.715 -0.2908  0.8125  0.6546
  213MOL0     O28655   3.473   3.121   0.644  0.2043  0.5105  0.0983
  213MOL0     C28656   3.480   3.235   0.552 -0.0029  0.0464  0.6496
  213MOL0     C28657   3.609   3.218   0.464 -0.0778  0.4578 -0.5013
  213MOL0     C28658   3.588   3.106   0.360  0.8146  0.0687 -0.6976
  213MOL0     C28659   3.724   3.078   0.289  0.2296 -0.2871  0.1808
  213MOL0     C28660   3.717   2.966   0.180  0.5190 -0.2649 -1.2227
  213MOL0     C28661   3.603   2.978   0.089  0.3469 -0.6772 -0.2019
  213MOL0     C28662   3.598   3.103   0.011 -0.0491  0.1996 -0.2586
  213MOL0     C28663   3.487   3.094  -0.094  0.0060 -0.5658 -0.2907
  213MOL0    Cl28664   3.331   3.064  -0.025  0.2932 -0.1250 -0.1071
  213MOL0     C28665   3.367   2.988   0.790  0.3781 -0.3482 -0.5284
  213MOL0     C28666   3.254   2.949   0.860 -0.9269  0.3715 -1.2200
  213MOL0     O28667   3.057   3.152   1.100  1.3916 -0.5695  0.1255
  213MOL0     C28668   2.822   2.872   1.105  0.1939  0.8286  0.3507
  213MOL0     C28669   2.720   2.817   1.187  1.1079 -0.2991  0.4656
  213MOL0     N28670   1.987   3.143   1.584  0.2584  0.9037  0.2401
  213MOL0     N28671   1.882   3.119   1.513 -0.2155 -0.8488  0.5509
  213MOL0     C28672   2.431   3.762   0.750 -0.4334 -0.4597  0.1071
  213MOL0     C28673   2.438   3.904   0.744 -0.6541  0.2588  0.9457
  213MOL0     C28674   2.268   4.346   0.755 -0.0492 -0.2293 -0.4053
  213MOL0     C28675   2.163   4.444   0.771 -0.6745  0.1334  0.3785
  213MOL0     C28676   2.185   4.578   0.780 -0.0538  1.1251 -0.1549
  213MOL0     C28677   2.313   4.625   0.788  0.8823  0.3598 -1.1770
  213MOL0     O28678   2.345   4.748   0.825  0.3184  0.2368 -0.8362
  213MOL0     C28679   2.251   4.853   0.846 -0.1905 -0.1907 -0.0624
  213MOL0     C28680   2.337   4.985   0.869 -0.6753 -0.2850 -0.0127
  213MOL0     C28681   2.275   5.112   0.926  0.6930 -0.0320 -0.4746
  213MOL0     C28682   2.209   5.098   1.069  0.9526 -0.3726 -0.5784
  213MOL0     C28683   2.311   5.075   1.172  0.9324 -0.3174  0.3313
  213MOL0     C28684   2.405   5.031   1.248  0.9544 -0.5677  0.1810
  213MOL0     C28685   2.417   4.541   0.767 -0.3622  0.9234 -0.0903
  213MOL0     C28686   2.398   4.405   0.752  0.1183  0.0172 -0.2456
  213MOL0     C28687   2.520   4.325   0.730 -0.3608  0.8828  0.1151
  213MOL0     H28688   2.119   3.969   0.667 -0.7929 -1.8839 -1.2081
  213MOL0     H28689   2.099   3.714   0.685 -0.8996  2.7764 -1.2138
  213MOL0     H28690   2.163   3.565   0.904 -0.1783 -0.4732 -0.0867
  213MOL0     H28691   2.132   3.461   0.773 -1.6517 -2.6589  4.2259
  213MOL0     H28692   2.360   3.426   0.969  1.2213 -0.2695 -0.7653
  213MOL0     H28693   2.322   3.304   0.843 -0.7896 -1.4652  2.0034
  213MOL0     H28694   2.120   3.388   1.050 -0.4695  0.0790  2.4789
  213MOL0     H28695   2.213   3.237   1.076 -2.8264 -1.0608 -0.5251
  213MOL0     H28696   2.018   3.306   0.855  0.4606 -0.6203 -0.4312
  213MOL0     H28697   2.107   3.145   0.855 -0.9776  1.2661 -1.7447
  213MOL0     H28698   1.873   3.124   0.947  0.4410  0.2696 -0.8247
  213MOL0     H28699   2.001   3.053   1.030  2.2338  0.3585 -0.9078
  213MOL0     H28700   2.000   3.250   1.202 -1.7580 -0.3882  0.8159
  213MOL0     H28701   1.881   3.334   1.103  1.0981  1.4756  2.0536
  213MOL0     H28702   1.744   3.119   1.115  0.8878  0.9204 -0.9411
  213MOL0     H28703   1.755   3.231   1.260 -0.5760  0.9718 -1.1172
  213MOL0     H28704   1.741   3.021   1.329 -0.3318  1.3360 -1.0002
  213MOL0     H28705   1.867   2.955   1.213 -2.4893 -1.1003 -1.7912
  213MOL0     H28706   2.119   3.068   1.296  3.1328  0.9803  2.0558
  213MOL0     H28707   2.291   3.204   1.474  0.9457 -1.5702 -0.6017
  213MOL0     H28708   2.240   3.182   1.634 -2.1497 -0.6948  0.8813
  213MOL0     H28709   2.384   3.034   1.651 -2.4169  1.1331  1.7942
  213MOL0     H28710   2.263   2.925   1.591  2.8865 -1.7714 -0.8935
  213MOL0     H28711   2.442   3.043   1.388  2.2353 -2.1621 -0.2772
  213MOL0     H28712   2.343   2.916   1.365 -0.5932  3.6041 -1.3743
  213MOL0     H28713   2.480   2.788   1.562  1.9713 -0.2809  0.8563
  213MOL0     H28714   2.589   2.935   1.547  0.2923  0.4044 -1.0882
  213MOL0     H28715   2.724   3.045   1.438  2.0422 -0.9324  1.0138
  213MOL0     H28716   2.913   3.139   1.282  3.9812 -2.3204 -2.9371
  213MOL0     H28717   3.044   3.222   0.784  0.1326  0.0701  2.9858
  213MOL0     H28718   3.229   3.270   0.646 -1.6809  0.9447  1.6008
  213MOL0     H28719   3.399   3.244   0.479  0.2482 -1.5763  0.1417
  213MOL0     H28720   3.492   3.329   0.607 -1.6270 -0.9862  2.9370
  213MOL0     H28721   3.628   3.314   0.414  0.7409 -0.7914 -2.7161
  213MOL0     H28722   3.690   3.201   0.536 -1.0767 -1.4571  0.2280
  213MOL0     H28723   3.546   3.017   0.407  0.1739  0.5465 -0.3425
  213MOL0     H28724   3.502   3.128   0.295  0.0265 -0.3507  0.1872
  213MOL0     H28725   3.797   3.048   0.365 -1.6930  0.2075  2.3855
  213MOL0     H28726   3.760   3.171   0.246 -1.3795  0.5673  0.5823
  213MOL0     H28727   3.697   2.880   0.244 -0.4729  0.8354 -0.0086
  213MOL0     H28728   3.802   2.966   0.111  0.5096  0.4661 -1.2395
  213MOL0     H28729   3.607   2.888   0.028 -1.4778  0.2983 -1.8697
  213MOL0     H28730   3.507   2.971   0.140  0.7291  0.3162  0.7084
  213MOL0     H28731   3.688   3.137  -0.041 -0.7540  1.6970 -0.5671
  213MOL0     H28732   3.566   3.187   0.074 -0.3967  3.4583 -4.3542
  213MOL0     H28733   3.488   3.188  -0.150  5.7630 -1.9015 -3.1920
  213MOL0     H28734   3.510   3.014  -0.164  0.8801 -1.1511  0.6340
  213MOL0     H28735   3.456   2.925   0.791  0.6227 -0.0001 -0.0389
  213MOL0     H28736   3.259   2.857   0.917  0.9608  0.6135 -0.9428
  213MOL0     H28737   2.838   2.822   1.010 -1.1704  0.7449  0.1521
  213MOL0     H28738   2.664   2.728   1.160  2.4332 -1.5223  1.5745
  213MOL0     H28739   2.518   3.697   0.759  1.8627  2.1381 -1.7704
  213MOL0     H28740   2.534   3.955   0.754 -0.1879 -0.3884 -0.0193
  213MOL0     H28741   2.059   4.426   0.795 -1.1771  1.7466 -0.4839
  213MOL0     H28742   2.099   4.641   0.800 -0.3991  0.3168  1.0046
  213MOL0     H28743   2.196   4.837   0.939 -1.4257 -3.5116 -1.1798
  213MOL0     H28744   2.183   4.864   0.761 -0.8173  1.9940  0.6696
  213MOL0     H28745   2.395   5.012   0.780  1.1042 -0.7204  0.9476
  213MOL0     H28746   2.423   4.968   0.935 -2.1247  0.6525  2.2093
  213MOL0     H28747   2.201   5.139   0.849 -0.5263  0.1934  0.7341
  213MOL0     H28748   2.354   5.187   0.926 -0.2067  0.9525  0.2858
  213MOL0     H28749   2.151   5.188   1.093  1.0696  0.4768 -3.1269
  213MOL0     H28750   2.136   5.017   1.068 -0.0244 -0.1331  5.8634
  213MOL0     H28751   2.472   5.003   1.327  1.4988  2.9011  1.0876
  213MOL0     H28752   2.520   4.573   0.758 -0.3888  0.5964 -1.8052
  213MOL0     H28753   2.507   4.294   0.626 -0.1908  3.9857 -0.9321
  213MOL0     H28754   2.614   4.378   0.745 -0.1323 -0.0956  2.6714
  213MOL0     H28755   2.512   4.237   0.794 -4.9987  1.6305  0.9442
  214MOL0     O28756   8.646   2.777   9.088  0.3019  0.2654 -0.3535
  214MOL0     C28757   8.597   2.765   9.202  0.0367  1.0025  0.1424
  214MOL0     O28758   8.461   2.786   9.226 -1.1496  0.6456  0.2183
  214MOL0     C28759   8.386   2.874   9.158  0.0128 -0.5590  0.2190
  214MOL0     C28760   8.276   2.845   9.077  0.3285 -0.8459  0.8537
  214MOL0     C28761   8.201   2.956   9.027  0.1805  0.2510 -0.1834
  214MOL0     C28762   8.219   3.090   9.047 -0.0926 -0.9949 -0.2520
  214MOL0     O28763   8.131   3.184   9.000 -0.3857 -0.1174 -0.6324
  214MOL0     C28764   8.086   3.282   9.101 -0.8006 -0.6117 -0.0589
  214MOL0     C28765   8.130   3.430   9.056  0.9546  0.4021  0.1555
  214MOL0     C28766   8.018   3.519   9.109 -0.0710  0.5921  0.2093
  214MOL0     C28767   8.058   3.664   9.091 -0.9054 -1.1249 -0.9771
  214MOL0     C28768   7.972   3.750   9.193 -0.1506 -0.5156  0.0738
  214MOL0     C28769   7.814   3.747   9.169  0.6587 -0.4292 -1.0315
  214MOL0     C28770   7.769   3.778   9.025  0.4064  0.3220  0.3600
  214MOL0     C28771   7.620   3.758   9.004 -0.3232 -0.6428 -0.3620
  214MOL0     N28772   7.542   3.859   9.078  0.3463 -0.9265  0.5519
  214MOL0     C28773   7.481   3.847   9.197  0.6353 -0.4414 -0.1180
  214MOL0     C28774   7.448   3.981   9.229 -0.0651  0.0938 -0.5027
  214MOL0     C28775   7.369   4.016   9.342  0.1662 -0.0548 -1.0212
  214MOL0     C28776   7.220   4.006   9.311  0.5338  0.0220 -0.1920
  214MOL0     C28777   7.123   4.081   9.414  0.0226 -0.0688 -0.5357
  214MOL0     C28778   7.154   4.095   9.561  0.5075  0.3086  0.1553
  214MOL0     O28779   7.185   3.966   9.595  1.1210  0.2733  0.5855
  214MOL0     C28780   7.208   3.927   9.727 -0.2182  0.6234  0.3766
  214MOL0     C28781   7.225   4.011   9.838  0.6704 -0.6932 -0.6659
  214MOL0     C28782   7.258   3.966   9.968 -0.2894 -0.6588 -0.5630
  214MOL0     C28783   7.285   3.824   9.981  0.3916 -0.1086 -0.4293
  214MOL0     C28784   7.288   3.764  10.121  0.0527 -0.7781  0.3691
  214MOL0     O28785   7.301   3.844  10.234 -0.2446  0.3753 -0.1935
  214MOL0     C28786   7.313   3.791  10.362 -0.9357 -0.0734  0.3988
  214MOL0     C28787   7.242   3.843  10.470  0.5720  0.1045 -0.1198
  214MOL0     C28788   7.273   3.801  10.602 -0.4107 -0.5174 -0.2147
  214MOL0     C28789   7.374   3.700  10.624  0.4997 -0.4501  0.7313
  214MOL0     O28790   7.414   3.649  10.742 -0.3036  0.4495 -0.9947
  214MOL0     C28791   7.384   3.739  10.853  0.0830 -0.1750  0.5463
  214MOL0     C28792   7.462   3.685  10.973  0.9051 -0.1711  0.1936
  214MOL0     C28793   7.611   3.691  10.961  0.1022 -0.3924  0.0710
  214MOL0     C28794   7.687   3.627  11.078  0.7886 -0.4413 -0.3797
  214MOL0     C28795   7.836   3.657  11.067  0.8061  1.2384 -0.0393
  214MOL0     C28796   7.873   3.794  11.108  0.1650  0.7058  0.4216
  214MOL0     C28797   7.897   3.797  11.256  0.4891 -0.2993  0.1620
  214MOL0     C28798   7.919   3.943  11.307 -0.4142  0.5068  0.2101
  214MOL0    Cl28799   8.031   4.037  11.208  0.2118 -0.0024 -0.2687
  214MOL0     C28800   7.420   3.632  10.513 -0.2952 -0.5876  0.4423
  214MOL0     C28801   7.395   3.681  10.383 -0.5738 -0.2306  0.2032
  214MOL0     O28802   7.284   3.643  10.129  0.4864 -0.2027  1.2104
  214MOL0     C28803   7.278   3.737   9.865  0.4523 -0.3027 -0.4849
  214MOL0     C28804   7.224   3.789   9.748 -0.0981 -0.2515 -0.6581
  214MOL0     N28805   7.510   4.065   9.143  1.3422  0.6148 -0.1308
  214MOL0     N28806   7.548   3.992   9.051 -0.6809 -0.6512  0.3786
  214MOL0     C28807   8.344   3.105   9.116 -0.2246 -0.0518 -0.1136
  214MOL0     C28808   8.416   3.010   9.175  0.2455  0.4990 -0.0823
  214MOL0     C28809   8.679   2.720   9.319 -0.4708  0.0548 -0.0215
  214MOL0     C28810   8.813   2.732   9.303  0.2417 -0.4996 -0.3491
  214MOL0     C28811   8.907   2.684   9.398 -1.0112  0.4271 -0.8988
  214MOL0     C28812   8.865   2.630   9.514  0.0973 -0.1233 -0.2593
  214MOL0     O28813   8.949   2.579   9.608  0.0903  0.2670  0.6646
  214MOL0     C28814   8.991   2.452   9.571 -0.4063 -0.6049 -0.7517
  214MOL0     C28815   9.084   2.380   9.661 -0.5524  0.0699 -0.5673
  214MOL0     C28816   9.236   2.419   9.667 -0.1632 -0.5502  0.0849
  214MOL0     C28817   9.314   2.390   9.545  0.3924  0.3591 -0.4068
  214MOL0     C28818   9.274   2.441   9.419 -0.1872 -0.1921  0.4627
  214MOL0     C28819   9.243   2.478   9.304 -0.9027  0.7647 -0.1424
  214MOL0     C28820   8.726   2.618   9.529 -0.1378  0.4650  0.4463
  214MOL0     C28821   8.628   2.658   9.435  0.6004  0.2393 -0.2518
  214MOL0     C28822   8.487   2.625   9.456  0.4756  0.5699 -0.0844
  214MOL0     H28823   8.252   2.744   9.047 -2.9937  0.4919 -1.6587
  214MOL0     H28824   8.115   2.938   8.964  1.4655  1.2277 -2.3298
  214MOL0     H28825   7.977   3.278   9.103 -0.9098  1.3954  0.7800
  214MOL0     H28826   8.127   3.276   9.203 -0.6199  3.5085  0.2711
  214MOL0     H28827   8.129   3.446   8.947  1.9944  1.3281  0.2653
  214MOL0     H28828   8.236   3.456   9.067  1.2839 -0.9304  0.4010
  214MOL0     H28829   8.005   3.488   9.213 -2.7228 -1.6682 -0.6833
  214MOL0     H28830   7.919   3.510   9.064 -0.9377  2.7530  1.5579
  214MOL0     H28831   8.165   3.676   9.111 -1.5057  6.0817  1.0967
  214MOL0     H28832   8.037   3.704   8.991 -0.5263  3.4295  0.5008
  214MOL0     H28833   7.990   3.713   9.294  1.0811 -2.1835 -0.7123
  214MOL0     H28834   7.992   3.858   9.184  3.6428 -1.0438  0.1648
  214MOL0     H28835   7.779   3.649   9.203  3.6161 -1.4515 -0.6418
  214MOL0     H28836   7.763   3.820   9.234 -0.1079  0.0044 -2.0900
  214MOL0     H28837   7.820   3.710   8.956  0.0205  1.7076 -1.3436
  214MOL0     H28838   7.795   3.878   8.989  1.5627 -0.4182 -0.9645
  214MOL0     H28839   7.597   3.776   8.899  0.5286  1.4502 -0.2371
  214MOL0     H28840   7.574   3.664   9.035  1.5617 -1.9669 -1.4058
  214MOL0     H28841   7.458   3.754   9.248 -0.7458 -0.0236  0.0800
  214MOL0     H28842   7.404   3.968   9.433 -1.2181  2.0300  0.7195
  214MOL0     H28843   7.388   4.122   9.364 -1.2165  0.7688 -3.3850
  214MOL0     H28844   7.191   4.039   9.211 -0.2666 -0.6334 -0.1796
  214MOL0     H28845   7.209   3.898   9.298 -2.9219  0.5217 -2.7675
  214MOL0     H28846   7.034   4.018   9.403 -0.0544  0.1687 -1.3137
  214MOL0     H28847   7.102   4.179   9.368  1.6539  1.1972  1.2395
  214MOL0     H28848   7.064   4.128   9.614  0.3003  0.7724 -0.4734
  214MOL0     H28849   7.238   4.159   9.586  0.6997  1.2899 -2.6474
  214MOL0     H28850   7.208   4.118   9.839  1.1191 -0.6182 -0.8972
  214MOL0     H28851   7.257   4.021  10.062 -2.4191  1.8463 -1.9361
  214MOL0     H28852   7.173   3.923  10.444 -0.0021  0.2712  1.7547
  214MOL0     H28853   7.229   3.860  10.682  0.4190  1.9256 -1.4718
  214MOL0     H28854   7.411   3.844  10.835 -2.6736  0.6237  0.6379
  214MOL0     H28855   7.275   3.747  10.862  0.1271  2.3998 -0.3369
  214MOL0     H28856   7.429   3.734  11.065  1.1035  0.7157 -0.1940
  214MOL0     H28857   7.430   3.581  10.983  0.0913  0.0032 -0.5448
  214MOL0     H28858   7.651   3.657  10.865 -0.1469  2.4402 -1.1328
  214MOL0     H28859   7.627   3.799  10.951  1.4399 -0.6434 -0.6758
  214MOL0     H28860   7.671   3.520  11.094 -3.3643 -0.5541 -3.5913
  214MOL0     H28861   7.651   3.679  11.167  1.9527  0.9758 -0.7114
  214MOL0     H28862   7.849   3.647  10.959 -1.5297 -0.2208 -0.2549
  214MOL0     H28863   7.898   3.580  11.115  0.0681  0.2347 -0.6517
  214MOL0     H28864   7.970   3.814  11.061  1.0578  1.2672  2.3908
  214MOL0     H28865   7.791   3.866  11.093 -1.0568 -0.7095  0.0414
  214MOL0     H28866   7.984   3.733  11.271 -0.5967 -1.7498  0.5783
  214MOL0     H28867   7.812   3.749  11.306  0.0022  0.1677 -0.1951
  214MOL0     H28868   7.817   3.983  11.301 -1.1474 -1.1183  1.0008
  214MOL0     H28869   7.956   3.941  11.410  1.4939 -2.9641 -0.3819
  214MOL0     H28870   7.496   3.558  10.537  1.9383  0.5967 -2.4872
  214MOL0     H28871   7.444   3.633  10.299 -0.6629 -1.1414  0.6637
  214MOL0     H28872   7.281   3.629   9.869  5.0907 -0.3143  0.4081
  214MOL0     H28873   7.201   3.717   9.670  1.3477 -1.1107 -0.3234
  214MOL0     H28874   8.383   3.206   9.120  4.5732 -1.5172 -2.5179
  214MOL0     H28875   8.505   3.028   9.234  1.9064 -1.7837 -1.6804
  214MOL0     H28876   8.838   2.792   9.216 -0.5127 -0.2387 -0.3885
  214MOL0     H28877   9.012   2.705   9.386  0.0300 -1.6070  3.0506
  214MOL0     H28878   9.024   2.459   9.467  0.3442 -0.1809 -0.4903
  214MOL0     H28879   8.909   2.381   9.558  0.0185 -1.3349  0.3970
  214MOL0     H28880   9.079   2.274   9.634 -0.3789 -0.3134  0.8269
  214MOL0     H28881   9.053   2.374   9.766  3.2537 -2.5409  0.6645
  214MOL0     H28882   9.278   2.367   9.754 -0.2609  0.8143  0.9900
  214MOL0     H28883   9.246   2.526   9.688 -0.6379  0.6475 -4.5910
  214MOL0     H28884   9.411   2.429   9.579 -0.8981  3.9034 -0.3080
  214MOL0     H28885   9.317   2.283   9.527 -0.9057  0.1494  0.4393
  214MOL0     H28886   9.213   2.520   9.210 -0.9711  1.0111 -0.0113
  214MOL0     H28887   8.715   2.567   9.624  3.1593 -1.3427 -0.0136
  214MOL0     H28888   8.464   2.542   9.389  2.1366 -2.2375  2.5471
  214MOL0     H28889   8.482   2.579   9.556 -0.1246 -0.7653 -0.7141
  214MOL0     H28890   8.419   2.709   9.440  0.0903 -0.2138 -3.2132
  215MOL0     O28891   7.648   8.744   8.617  0.0549 -0.4010 -0.0773
  215MOL0     C28892   7.667   8.698   8.508  0.7794 -0.5620  0.5371
  215MOL0     O28893   7.776   8.725   8.431  0.4127  0.1262  0.4034
  215MOL0     C28894   7.879   8.796   8.487 -0.6710  0.7190  0.1391
  215MOL0     C28895   7.860   8.930   8.535  0.0740  0.8182  0.7361
  215MOL0     C28896   7.972   8.995   8.588  0.0343 -0.6318  0.4627
  215MOL0     C28897   8.104   8.946   8.578 -0.7057 -0.0711  0.7358
  215MOL0     O28898   8.200   9.028   8.623  0.0239 -0.5751 -0.0190
  215MOL0     C28899   8.325   9.027   8.555  0.2559  0.6742  0.0132
  215MOL0     C28900   8.412   9.136   8.604 -0.1915 -0.0199  0.6698
  215MOL0     C28901   8.539   9.170   8.543 -0.3558 -0.1418  0.3345
  215MOL0     C28902   8.637   9.059   8.561  0.3983 -0.8641 -1.0297
  215MOL0     C28903   8.750   9.074   8.454  0.4818 -0.0130  1.7236
  215MOL0     C28904   8.853   8.956   8.440  0.4690  0.6006  0.2054
  215MOL0     C28905   8.933   8.920   8.564 -0.4527 -0.5410  0.9070
  215MOL0     C28906   9.049   8.810   8.561  0.3626  0.3118 -0.2445
  215MOL0     N28907   9.075   8.754   8.697 -0.5842 -0.1616  0.3000
  215MOL0     C28908   9.174   8.812   8.779 -0.0492  0.3226 -1.2210
  215MOL0     C28909   9.172   8.720   8.885 -0.0632 -0.3059 -1.4698
  215MOL0     C28910   9.247   8.725   9.024 -0.0652 -0.7627 -0.7372
  215MOL0     C28911   9.183   8.822   9.122  0.3227  0.5909 -0.3525
  215MOL0     C28912   9.245   8.968   9.112  0.3888 -0.0736 -0.9682
  215MOL0     C28913   9.146   9.082   9.123  0.4733 -0.5568 -0.0592
  215MOL0     O28914   9.042   9.072   9.028  0.2796 -0.1505  0.6508
  215MOL0     C28915   8.919   9.120   9.060  0.2868  0.2222 -0.4720
  215MOL0     C28916   8.838   9.146   8.956  0.2330  0.3640  0.1483
  215MOL0     C28917   8.708   9.200   8.968 -0.4564 -0.2764  0.3712
  215MOL0     C28918   8.652   9.222   9.092  0.2426  0.6584  0.6892
  215MOL0     C28919   8.512   9.276   9.100  0.5597  1.3869 -0.2316
  215MOL0     O28920   8.457   9.316   8.980  0.8108 -0.1487 -0.1063
  215MOL0     C28921   8.325   9.324   8.962 -1.0796 -0.1722  0.4890
  215MOL0     C28922   8.226   9.275   9.051 -0.3686 -0.0809  0.3662
  215MOL0     C28923   8.090   9.286   9.024  0.5399 -0.8412 -0.3722
  215MOL0     C28924   8.047   9.354   8.906 -0.7300  0.6490 -1.3253
  215MOL0     O28925   7.915   9.371   8.869 -0.3984  0.0233  0.4977
  215MOL0     C28926   7.800   9.359   8.962  0.5319 -0.9088 -1.3965
  215MOL0     C28927   7.705   9.245   8.912 -0.6117  0.2638  0.0260
  215MOL0     C28928   7.618   9.285   8.797 -0.3465  0.2580  0.5992
  215MOL0     C28929   7.593   9.183   8.683 -0.1178 -0.2608 -1.4190
  215MOL0     C28930   7.555   9.260   8.560  0.3160 -0.1268  0.1543
  215MOL0     C28931   7.548   9.155   8.441 -0.4806 -0.4496  0.1141
  215MOL0     C28932   7.506   9.220   8.309  0.6472 -0.6245 -0.0414
  215MOL0     C28933   7.574   9.156   8.180 -0.8120  0.4405  0.4273
  215MOL0    Cl28934   7.507   9.243   8.034 -0.1020 -0.3642 -0.4012
  215MOL0     C28935   8.147   9.406   8.819  0.7167  0.8444 -0.5404
  215MOL0     C28936   8.284   9.396   8.843 -0.0725  0.5688 -0.1654
  215MOL0     O28937   8.460   9.294   9.212  0.2729  0.3175  0.1031
  215MOL0     C28938   8.732   9.180   9.202 -0.1325  0.5742 -0.1178
  215MOL0     C28939   8.863   9.139   9.182  1.2782 -0.5006 -0.1807
  215MOL0     N28940   9.077   8.619   8.865  0.5811 -0.5847 -0.2134
  215MOL0     N28941   9.016   8.649   8.752  0.0222  0.1551 -1.0642
  215MOL0     C28942   8.124   8.826   8.507  0.3612 -0.3678  1.7630
  215MOL0     C28943   8.012   8.751   8.463 -0.3884 -0.0002  0.1574
  215MOL0     C28944   7.582   8.584   8.454  0.1973  0.1169 -0.6770
  215MOL0     C28945   7.644   8.489   8.372 -0.1489 -0.1805  0.2488
  215MOL0     C28946   7.561   8.393   8.320  0.0899  0.2674  0.0824
  215MOL0     C28947   7.422   8.379   8.342 -0.3248  0.1669  0.4761
  215MOL0     O28948   7.349   8.273   8.280 -0.1512  0.8371 -0.4365
  215MOL0     C28949   7.215   8.239   8.319  0.1080  0.2167  2.0711
  215MOL0     C28950   7.210   8.129   8.427  1.1228 -0.3609  0.4053
  215MOL0     C28951   7.069   8.070   8.438 -0.0912  0.6084 -0.2945
  215MOL0     C28952   7.031   7.983   8.313  0.4981 -0.4804  0.2726
  215MOL0     C28953   6.898   7.915   8.343 -0.6629  0.3432  0.0456
  215MOL0     C28954   6.793   7.869   8.366 -0.4818 -1.1226 -0.5139
  215MOL0     C28955   7.370   8.469   8.437  0.2180 -0.2399 -0.3567
  215MOL0     C28956   7.441   8.575   8.483 -0.5098  0.8229  0.4791
  215MOL0     C28957   7.370   8.674   8.568  0.0294 -0.3158 -0.1655
  215MOL0     H28958   7.757   8.965   8.529 -0.0448  0.6291  1.4917
  215MOL0     H28959   7.964   9.089   8.641  1.2528 -0.3634  0.2049
  215MOL0     H28960   8.374   8.930   8.565  0.9221  0.7163 -2.2654
  215MOL0     H28961   8.308   9.030   8.447  1.7580 -4.2648 -0.6054
  215MOL0     H28962   8.431   9.119   8.710 -2.8522  1.3340  1.4531
  215MOL0     H28963   8.356   9.230   8.599 -2.4653 -1.3643 -1.4297
  215MOL0     H28964   8.579   9.255   8.598 -0.8001  0.7992 -0.7539
  215MOL0     H28965   8.512   9.184   8.438 -0.2969 -2.1245  0.0067
  215MOL0     H28966   8.682   9.070   8.660 -3.0326 -0.4200  0.6202
  215MOL0     H28967   8.597   8.957   8.559  4.4972 -2.6483 -2.8349
  215MOL0     H28968   8.706   9.097   8.357  2.5553  2.6382  1.2954
  215MOL0     H28969   8.815   9.158   8.482  2.3068 -0.9858  0.5663
  215MOL0     H28970   8.798   8.865   8.413  1.0678  0.6701 -1.3010
  215MOL0     H28971   8.919   8.977   8.355 -0.7196 -0.4954 -1.0374
  215MOL0     H28972   8.860   8.868   8.627 -3.2584 -1.1327 -2.5580
  215MOL0     H28973   8.980   9.010   8.604  0.3059 -0.7936  0.6102
  215MOL0     H28974   9.006   8.724   8.510 -3.5599  0.2881  2.6406
  215MOL0     H28975   9.135   8.854   8.510  1.2113 -0.2122  0.6869
  215MOL0     H28976   9.247   8.889   8.760  1.7758 -1.5784 -2.3367
  215MOL0     H28977   9.242   8.619   9.052 -0.8800 -1.2634 -2.6294
  215MOL0     H28978   9.351   8.755   9.019 -0.2452  0.5330  1.8755
  215MOL0     H28979   9.076   8.836   9.105 -0.2685 -1.1895  1.4860
  215MOL0     H28980   9.196   8.792   9.226 -0.9546  1.9205  0.2258
  215MOL0     H28981   9.313   8.979   9.027 -0.8982  3.0547 -1.7249
  215MOL0     H28982   9.325   8.977   9.186  3.0538 -3.0466 -3.1892
  215MOL0     H28983   9.204   9.168   9.089  0.2293 -0.3482  0.0501
  215MOL0     H28984   9.110   9.083   9.227  0.3982 -2.6604 -0.0296
  215MOL0     H28985   8.889   9.142   8.860 -0.8783  2.2165 -0.5747
  215MOL0     H28986   8.649   9.231   8.882  0.1407 -2.2742 -0.8296
  215MOL0     H28987   8.245   9.232   9.149 -2.2279  1.8480  1.6795
  215MOL0     H28988   8.021   9.240   9.094 -0.5882 -0.1655 -1.0162
  215MOL0     H28989   7.841   9.345   9.063 -1.8836  2.0315  0.1891
  215MOL0     H28990   7.744   9.451   8.980  0.2512 -1.1718 -0.9116
  215MOL0     H28991   7.763   9.154   8.894  0.7894  1.0349  0.4267
  215MOL0     H28992   7.639   9.211   8.992 -2.6999 -0.2721 -1.8397
  215MOL0     H28993   7.523   9.313   8.843 -2.4146 -2.0658 -1.9705
  215MOL0     H28994   7.658   9.380   8.760  0.2584  1.1411  3.2913
  215MOL0     H28995   7.531   9.107   8.732 -0.4447  0.6659 -0.3482
  215MOL0     H28996   7.690   9.141   8.655  2.1576  1.1908  3.1880
  215MOL0     H28997   7.621   9.337   8.520 -3.1240 -0.3094 -7.3913
  215MOL0     H28998   7.456   9.304   8.571 -0.2330 -1.8157  3.2938
  215MOL0     H28999   7.646   9.107   8.437 -0.1151  0.2461  0.5309
  215MOL0     H29000   7.469   9.082   8.463 -1.2070 -0.5518 -2.4741
  215MOL0     H29001   7.516   9.329   8.313 -1.0948 -0.4599  3.0605
  215MOL0     H29002   7.398   9.216   8.294  0.4512  3.8742 -1.2276
  215MOL0     H29003   7.681   9.178   8.177 -0.3780 -1.4773  0.6396
  215MOL0     H29004   7.564   9.049   8.160 -1.6922 -0.3191  4.1067
  215MOL0     H29005   8.124   9.447   8.721 -2.2246  0.1735 -0.2154
  215MOL0     H29006   8.351   9.444   8.772 -2.6398  3.5939 -0.7631
  215MOL0     H29007   8.691   9.187   9.302  1.1859  1.9137  0.3673
  215MOL0     H29008   8.920   9.113   9.271  1.0467 -0.6594 -0.0793
  215MOL0     H29009   8.224   8.801   8.473  1.5173  0.3808  4.3599
  215MOL0     H29010   8.032   8.655   8.414  3.1150  0.5805  0.1642
  215MOL0     H29011   7.751   8.486   8.352 -0.3114 -0.5101 -0.6550
  215MOL0     H29012   7.606   8.319   8.255  0.3664  0.4942  0.0128
  215MOL0     H29013   7.156   8.210   8.232  2.6749  2.6634 -0.7435
  215MOL0     H29014   7.165   8.328   8.356 -2.9162 -1.8976  3.4197
  215MOL0     H29015   7.243   8.168   8.523 -2.2769  1.5785  0.9201
  215MOL0     H29016   7.291   8.059   8.402  0.9817 -0.3170 -0.2007
  215MOL0     H29017   6.996   8.152   8.437  2.5608  3.3365 -4.9382
  215MOL0     H29018   7.061   8.011   8.530 -1.6743  3.6961  1.7326
  215MOL0     H29019   7.013   8.044   8.223 -0.1986 -2.0063 -0.6527
  215MOL0     H29020   7.110   7.910   8.296  1.0906 -1.1169  4.6908
  215MOL0     H29021   6.694   7.838   8.390 -0.4657 -0.7419  0.0812
  215MOL0     H29022   7.267   8.463   8.471  0.1648  5.3243  1.3880
  215MOL0     H29023   7.409   8.776   8.559  0.0707  0.1955  4.0025
  215MOL0     H29024   7.263   8.668   8.547  0.0866  0.0476 -0.5838
  215MOL0     H29025   7.385   8.632   8.668 -3.3016 -0.1858  0.5174
  216MOL0     O29026   0.557  10.794   0.910 -0.8765  0.3112 -0.3355
  216MOL0     C29027   0.592  10.891   0.976  0.8492  0.5052 -0.6339
  216MOL0     O29028   0.578  11.017   0.922 -0.1525 -0.2569  0.7798
  216MOL0     C29029   0.549  11.028   0.789 -0.0840  0.1753  0.4889
  216MOL0     C29030   0.640  10.981   0.693  0.4066  0.5917  0.0461
  216MOL0     C29031   0.608  10.997   0.559 -0.1341  0.4060 -0.0890
  216MOL0     C29032   0.497  11.077   0.520 -0.1812  0.2909  0.3965
  216MOL0     O29033   0.473  11.111   0.391 -0.0992 -0.7364 -0.7904
  216MOL0     C29034   0.495  11.012   0.289 -1.2329  0.7688 -0.2626
  216MOL0     C29035   0.367  10.959   0.252  0.0449 -0.4498  0.6475
  216MOL0     C29036   0.294  10.863   0.348  0.5751  0.1692  0.8053
  216MOL0     C29037   0.378  10.741   0.405  0.8893  0.6722 -0.2716
  216MOL0     C29038   0.286  10.659   0.492 -0.5639 -0.6474  0.0205
  216MOL0     C29039   0.227  10.732   0.606 -0.0957 -0.6525 -0.2656
  216MOL0     C29040   0.214  10.638   0.731  0.2174  0.0517 -0.3606
  216MOL0     C29041   0.107  10.693   0.823 -0.1777  0.4604 -0.8173
  216MOL0     N29042   0.115  10.623   0.955 -0.4955 -0.5390  0.1188
  216MOL0     C29043   0.219  10.631   1.046 -0.4007 -0.0525  1.3403
  216MOL0     C29044   0.176  10.564   1.152  0.4905 -0.2594 -0.0441
  216MOL0     C29045   0.253  10.540   1.277 -0.6086  0.6791 -0.6514
  216MOL0     C29046   0.168  10.525   1.404 -0.3294 -0.1576 -0.7092
  216MOL0     C29047   0.255  10.498   1.529  0.2078  0.9212  0.0629
  216MOL0     C29048   0.168  10.484   1.655  0.2375  0.4445  0.3603
  216MOL0     O29049   0.110  10.613   1.674 -0.6820  0.3557  1.5610
  216MOL0     C29050  -0.027  10.633   1.682 -1.1770  0.2379 -0.2063
  216MOL0     C29051  -0.063  10.765   1.710 -0.2682 -0.3921 -0.1836
  216MOL0     C29052  -0.197  10.797   1.725  0.1716 -0.0416  0.3819
  216MOL0     C29053  -0.292  10.695   1.709  0.2518  0.5772 -0.3511
  216MOL0     C29054  -0.437  10.728   1.701  0.3941 -0.0040  0.3843
  216MOL0     O29055  -0.513  10.640   1.622 -0.4149 -0.0476 -0.2805
  216MOL0     C29056  -0.644  10.668   1.594  0.6572  0.4266  0.3538
  216MOL0     C29057  -0.729  10.567   1.617 -0.4498 -0.3182  0.4232
  216MOL0     C29058  -0.861  10.575   1.562 -0.2211  0.0352  0.3103
  216MOL0     C29059  -0.910  10.693   1.503 -0.2892 -0.1417 -0.1462
  216MOL0     O29060  -1.042  10.678   1.470 -0.6662  0.3712 -0.3383
  216MOL0     C29061  -1.109  10.809   1.477  0.5937  0.0561 -0.7958
  216MOL0     C29062  -1.264  10.771   1.454 -0.3307  0.7430  0.5518
  216MOL0     C29063  -1.355  10.879   1.496  0.8149 -0.8275 -0.6302
  216MOL0     C29064  -1.448  10.926   1.373  0.5848  0.7410 -0.3075
  216MOL0     C29065  -1.567  10.833   1.347  0.3956  0.4969  0.5482
  216MOL0     C29066  -1.654  10.894   1.242  1.0505  1.0595  0.0603
  216MOL0     C29067  -1.752  10.800   1.173  0.1076  0.3205  0.4516
  216MOL0     C29068  -1.891  10.756   1.249 -0.2172 -0.2634  0.2573
  216MOL0    Cl29069  -1.864  10.691   1.417 -0.2986 -0.3847 -0.1263
  216MOL0     C29070  -0.819  10.802   1.486 -0.9869  0.1099  0.5334
  216MOL0     C29071  -0.679  10.789   1.521 -0.6494  0.1101 -0.4186
  216MOL0     O29072  -0.477  10.828   1.768  0.0705  0.2478 -0.0361
  216MOL0     C29073  -0.246  10.559   1.683  0.0064 -0.5757  0.1958
  216MOL0     C29074  -0.114  10.526   1.683 -0.2093  0.6377  0.3871
  216MOL0     N29075   0.061  10.493   1.113  0.0745 -0.6326  0.1852
  216MOL0     N29076   0.022  10.535   1.000 -0.1367  0.6631  0.1707
  216MOL0     C29077   0.422  11.148   0.614  0.3458 -0.1372  0.2539
  216MOL0     C29078   0.448  11.119   0.749  0.1542  0.2678 -1.6928
  216MOL0     C29079   0.589  10.873   1.123  0.1835  0.3349 -0.8097
  216MOL0     C29080   0.557  10.989   1.199  0.9450  0.9740  0.3780
  216MOL0     C29081   0.542  10.988   1.335  0.6962  0.0136 -0.3148
  216MOL0     C29082   0.551  10.867   1.401 -0.1243  0.2298  0.0642
  216MOL0     O29083   0.541  10.837   1.535 -0.7192  0.2707  1.0001
  216MOL0     C29084   0.493  10.941   1.606 -0.4716  1.2437 -0.1253
  216MOL0     C29085   0.523  10.917   1.760  0.5745 -0.0799  0.4796
  216MOL0     C29086   0.460  10.785   1.824  1.0018 -1.1663 -0.0651
  216MOL0     C29087   0.302  10.799   1.842 -0.7250  0.2296  0.1996
  216MOL0     C29088   0.260  10.895   1.948 -0.0249  0.4090 -0.2977
  216MOL0     C29089   0.239  10.958   2.053 -1.0032  0.1778  0.0399
  216MOL0     C29090   0.593  10.755   1.334 -0.1680 -0.0297  0.7912
  216MOL0     C29091   0.611  10.755   1.198  0.0821  0.5692  0.0710
  216MOL0     C29092   0.643  10.618   1.143 -0.0755  0.4671 -1.3202
  216MOL0     H29093   0.716  10.908   0.717 -0.6389 -0.6063 -0.1676
  216MOL0     H29094   0.672  10.941   0.491  0.9269 -1.1151  2.0409
  216MOL0     H29095   0.549  11.057   0.206  0.6416 -0.8339  0.0237
  216MOL0     H29096   0.562  10.929   0.315  2.1827  3.2356 -0.5996
  216MOL0     H29097   0.388  10.910   0.156  1.6822  2.4815 -0.6303
  216MOL0     H29098   0.306  11.044   0.219  2.3545  1.1875  0.3072
  216MOL0     H29099   0.200  10.827   0.305  3.0270 -3.1057 -2.4349
  216MOL0     H29100   0.270  10.923   0.436 -1.1586  0.5493  0.1035
  216MOL0     H29101   0.415  10.679   0.324  1.5859  2.0953 -1.0731
  216MOL0     H29102   0.457  10.778   0.471  0.2598 -0.8666  1.4456
  216MOL0     H29103   0.203  10.622   0.431 -0.7537  1.2218 -0.9175
  216MOL0     H29104   0.350  10.578   0.529 -1.0036 -0.3209  1.5567
  216MOL0     H29105   0.291  10.816   0.636 -0.7406 -1.2394  3.0986
  216MOL0     H29106   0.131  10.781   0.587 -0.2920 -0.7731  0.4053
  216MOL0     H29107   0.311  10.647   0.780  0.0476  0.5830 -0.1171
  216MOL0     H29108   0.186  10.538   0.695 -2.6080  0.5996  0.0810
  216MOL0     H29109   0.137  10.797   0.844  0.5311  0.0135  0.4572
  216MOL0     H29110   0.007  10.670   0.786 -0.6692  0.3641  0.5160
  216MOL0     H29111   0.313  10.680   1.022 -0.5890  0.1915  1.0898
  216MOL0     H29112   0.321  10.458   1.250 -1.1611  0.5926 -1.8298
  216MOL0     H29113   0.315  10.629   1.292 -2.5056  1.7581  1.2382
  216MOL0     H29114   0.120  10.623   1.411  3.3693  1.7917  0.5862
  216MOL0     H29115   0.091  10.448   1.398 -1.6529  1.1919 -1.5165
  216MOL0     H29116   0.325  10.582   1.536  0.1809  0.8303  1.8650
  216MOL0     H29117   0.313  10.407   1.509  1.2256  1.2920  1.1672
  216MOL0     H29118   0.219  10.450   1.746 -1.2634 -3.6263 -0.0915
  216MOL0     H29119   0.090  10.407   1.651 -0.9878  1.6592  0.3195
  216MOL0     H29120   0.009  10.846   1.712 -2.2746  1.5210 -1.1577
  216MOL0     H29121  -0.236  10.897   1.737  0.0109 -0.3082  2.5640
  216MOL0     H29122  -0.683  10.484   1.668 -1.1823 -1.5815 -0.8967
  216MOL0     H29123  -0.939  10.504   1.585 -0.5964  0.6004  0.8297
  216MOL0     H29124  -1.104  10.858   1.574  0.9881  2.5503 -1.9938
  216MOL0     H29125  -1.057  10.877   1.409 -0.6261  2.3191  0.4107
  216MOL0     H29126  -1.262  10.752   1.346  1.5922  3.4245  0.0063
  216MOL0     H29127  -1.280  10.677   1.507 -1.8380 -1.7065 -3.7247
  216MOL0     H29128  -1.415  10.843   1.580  2.7206 -0.7286  0.8274
  216MOL0     H29129  -1.292  10.966   1.515 -2.1453  2.1075 -3.1138
  216MOL0     H29130  -1.387  10.934   1.283  0.0344 -0.9893 -0.8772
  216MOL0     H29131  -1.483  11.026   1.401  1.9835  0.8334  1.3288
  216MOL0     H29132  -1.627  10.828   1.438 -1.7521 -1.9241 -0.8597
  216MOL0     H29133  -1.523  10.740   1.309  4.0886  3.0050 -1.9757
  216MOL0     H29134  -1.714  10.971   1.290 -0.5486  0.0428 -0.2175
  216MOL0     H29135  -1.594  10.942   1.163  0.0678  1.0298 -0.7267
  216MOL0     H29136  -1.699  10.708   1.145  1.5203  1.4850 -0.8803
  216MOL0     H29137  -1.781  10.833   1.073  2.2506 -0.4968 -0.4980
  216MOL0     H29138  -1.950  10.848   1.258 -2.3237 -1.6278  1.3103
  216MOL0     H29139  -1.939  10.677   1.191 -2.8003  0.5985  1.0698
  216MOL0     H29140  -0.844  10.897   1.440 -1.0864  1.0323  2.3994
  216MOL0     H29141  -0.614  10.872   1.498 -0.5732  0.4562  0.9972
  216MOL0     H29142  -0.313  10.474   1.687  4.3726 -4.3965  0.9372
  216MOL0     H29143  -0.100  10.419   1.667 -1.2606  0.3921  1.0552
  216MOL0     H29144   0.342  11.219   0.590  0.0328 -0.6430 -0.2298
  216MOL0     H29145   0.387  11.158   0.831  0.9072 -2.5571  0.3786
  216MOL0     H29146   0.574  11.084   1.149  1.3972  1.7262  1.8883
  216MOL0     H29147   0.538  11.084   1.385 -0.8730 -0.4534  0.5123
  216MOL0     H29148   0.393  10.977   1.582 -0.0565  2.6248  0.0811
  216MOL0     H29149   0.558  11.025   1.579 -0.1973  0.0599 -3.5429
  216MOL0     H29150   0.477  11.005   1.806  0.7993  1.5279 -2.1745
  216MOL0     H29151   0.632  10.927   1.771  0.8321  0.5164 -2.1140
  216MOL0     H29152   0.493  10.769   1.928  1.5478  2.4781  0.4656
  216MOL0     H29153   0.472  10.691   1.769 -0.0708 -2.1821  1.3397
  216MOL0     H29154   0.262  10.821   1.743  3.3576 -2.8875 -2.4538
  216MOL0     H29155   0.273  10.699   1.875  0.8904 -0.9538 -1.7910
  216MOL0     H29156   0.223  11.021   2.138  0.8179  3.5627 -1.9151
  216MOL0     H29157   0.611  10.662   1.387 -0.4228 -0.6037 -0.0990
  216MOL0     H29158   0.719  10.576   1.209 -1.7307  1.6126  1.4603
  216MOL0     H29159   0.562  10.544   1.139  0.5938 -0.6149  2.2239
  216MOL0     H29160   0.672  10.618   1.037 -2.0982 -0.8041 -1.9268
  217MOL0     O29161   4.449   3.750   9.004  1.0278  0.0238 -0.2761
  217MOL0     C29162   4.536   3.816   8.952 -0.4462 -0.5411 -0.7207
  217MOL0     O29163   4.524   3.880   8.828  0.0405  0.1695  0.2623
  217MOL0     C29164   4.394   3.861   8.780 -0.7826  0.7357 -0.2135
  217MOL0     C29165   4.348   3.752   8.702  0.4208  0.4861  0.8888
  217MOL0     C29166   4.215   3.744   8.663  0.0718  0.5693  0.2085
  217MOL0     C29167   4.123   3.844   8.701  0.1470  0.1190  0.4842
  217MOL0     O29168   3.987   3.831   8.661 -0.1554  0.4388 -0.1349
  217MOL0     C29169   3.918   3.947   8.628 -0.0563 -0.3340 -0.3401
  217MOL0     C29170   3.794   3.910   8.547  0.0287 -0.4803  0.1454
  217MOL0     C29171   3.665   3.903   8.636 -0.4095 -0.3308 -0.4344
  217MOL0     C29172   3.541   3.927   8.561  0.5957 -0.2280 -0.2715
  217MOL0     C29173   3.409   3.881   8.628 -0.0444 -0.1424 -0.6337
  217MOL0     C29174   3.298   3.887   8.525 -0.9043  0.2074 -0.5611
  217MOL0     C29175   3.169   3.854   8.605  0.1756  0.5800 -0.1309
  217MOL0     C29176   3.063   3.777   8.511  0.2660  0.4376  0.2827
  217MOL0     N29177   3.090   3.640   8.501  0.4006 -0.1972 -0.2004
  217MOL0     C29178   3.185   3.568   8.562 -0.0074 -0.2213 -0.3270
  217MOL0     C29179   3.177   3.439   8.514 -0.1715 -0.3928  0.0445
  217MOL0     C29180   3.253   3.324   8.579  1.0017 -0.7012 -0.5805
  217MOL0     C29181   3.398   3.322   8.526 -0.3846  0.1484  0.7339
  217MOL0     C29182   3.476   3.208   8.578  0.4553 -0.1093  0.0498
  217MOL0     C29183   3.445   3.085   8.487  0.1501 -0.9538 -0.5071
  217MOL0     O29184   3.543   2.984   8.517 -0.0863 -0.0305 -0.4549
  217MOL0     C29185   3.538   2.918   8.636 -0.4866 -0.6020  0.4472
  217MOL0     C29186   3.440   2.930   8.737  0.4324 -1.4069 -0.3616
  217MOL0     C29187   3.447   2.856   8.852 -0.3945  0.3306 -0.3174
  217MOL0     C29188   3.561   2.778   8.878  0.4057  0.4980  0.1319
  217MOL0     C29189   3.562   2.689   9.002 -0.0603  0.0548  0.2634
  217MOL0     O29190   3.474   2.719   9.105 -0.1227 -0.5634 -0.2599
  217MOL0     C29191   3.459   2.629   9.207  0.4608  0.2410  0.4071
  217MOL0     C29192   3.348   2.538   9.204 -0.7443  0.7634 -0.3427
  217MOL0     C29193   3.328   2.442   9.306  0.6916  0.3688 -0.5629
  217MOL0     C29194   3.417   2.431   9.414 -1.0956 -0.1418  0.6531
  217MOL0     O29195   3.395   2.337   9.501 -0.0481 -0.1692 -0.2617
  217MOL0     C29196   3.506   2.295   9.575  0.7919  0.2161 -0.4809
  217MOL0     C29197   3.466   2.197   9.681  0.5351  0.7589 -0.4747
  217MOL0     C29198   3.372   2.096   9.618  0.2077 -1.5947  0.3376
  217MOL0     C29199   3.358   1.976   9.703  0.5320 -0.2807 -0.0966
  217MOL0     C29200   3.259   1.875   9.649 -0.3939  0.1554 -0.4873
  217MOL0     C29201   3.319   1.799   9.531  0.2339 -0.8146  0.2134
  217MOL0     C29202   3.214   1.696   9.481 -0.2298 -0.0265  0.0069
  217MOL0     C29203   3.281   1.610   9.380 -0.4086 -1.3503 -0.2099
  217MOL0    Cl29204   3.189   1.466   9.336 -0.8678  0.0897 -0.0954
  217MOL0     C29205   3.516   2.532   9.417  0.6692 -1.1906 -0.0907
  217MOL0     C29206   3.534   2.628   9.321  1.4524 -0.1400  0.3809
  217MOL0     O29207   3.637   2.590   9.003  1.1929  0.0993  0.4139
  217MOL0     C29208   3.668   2.772   8.782 -0.5924 -0.2095  0.1752
  217MOL0     C29209   3.653   2.843   8.665 -1.4188  0.0365 -0.3259
  217MOL0     N29210   3.060   3.431   8.443  0.3360  0.7442  0.7769
  217MOL0     N29211   3.019   3.553   8.423  0.5531  0.7910 -0.8414
  217MOL0     C29212   4.170   3.952   8.778 -0.2041 -0.5013 -0.0966
  217MOL0     C29213   4.304   3.961   8.811 -0.4457  0.1593 -0.4456
  217MOL0     C29214   4.669   3.822   9.012  1.1817 -0.4889 -0.1284
  217MOL0     C29215   4.762   3.935   8.999  0.6308 -0.9831 -0.2176
  217MOL0     C29216   4.889   3.932   9.063 -0.1691  0.4941 -0.4080
  217MOL0     C29217   4.942   3.821   9.119 -0.3720  0.5279  0.4795
  217MOL0     O29218   5.069   3.818   9.172 -0.2334  0.4190 -0.4353
  217MOL0     C29219   5.079   3.790   9.315  0.3689 -0.3848  0.3357
  217MOL0     C29220   5.217   3.722   9.350  0.6864 -1.3239  0.0448
  217MOL0     C29221   5.246   3.676   9.495  0.5102  0.2281 -0.5160
  217MOL0     C29222   5.251   3.795   9.605 -0.4871  0.2629 -0.7893
  217MOL0     C29223   5.112   3.848   9.643 -0.8093 -0.4910 -0.8531
  217MOL0     C29224   5.004   3.907   9.669  0.1522 -0.8862  0.6039
  217MOL0     C29225   4.861   3.702   9.119  0.1976 -0.1666  0.2750
  217MOL0     C29226   4.729   3.711   9.082 -0.0784  0.0462  0.2388
  217MOL0     C29227   4.664   3.575   9.091  0.6497 -0.5424 -0.1452
  217MOL0     H29228   4.405   3.661   8.683 -0.7982 -0.4280  1.4390
  217MOL0     H29229   4.160   3.661   8.620 -4.3302  3.8526 -1.2357
  217MOL0     H29230   3.888   4.001   8.719  3.4229  0.3344  0.5664
  217MOL0     H29231   3.976   4.018   8.569  1.3265 -0.6980  0.5373
  217MOL0     H29232   3.817   3.807   8.520  1.1377 -0.2178  0.0331
  217MOL0     H29233   3.785   3.983   8.466  1.4299 -0.3796  0.0527
  217MOL0     H29234   3.666   3.970   8.723 -2.0671 -0.1390 -0.5344
  217MOL0     H29235   3.656   3.815   8.700  1.7544  0.4358  1.0885
  217MOL0     H29236   3.535   4.033   8.533  0.5990 -0.1058  0.1796
  217MOL0     H29237   3.561   3.870   8.470  0.0831 -3.5950  1.5536
  217MOL0     H29238   3.421   3.776   8.655  1.3793 -0.2756 -1.6362
  217MOL0     H29239   3.390   3.938   8.719 -3.7725 -0.9410 -0.7544
  217MOL0     H29240   3.288   3.987   8.483 -0.3545  1.0394  1.1734
  217MOL0     H29241   3.326   3.819   8.444  0.3163  2.3117 -1.9906
  217MOL0     H29242   3.122   3.951   8.625 -1.3994  0.4060 -2.5875
  217MOL0     H29243   3.191   3.804   8.700  5.2089 -1.1191 -1.8386
  217MOL0     H29244   2.965   3.780   8.560  0.5234  1.6826  0.7563
  217MOL0     H29245   3.055   3.828   8.415 -0.4531 -3.3108 -1.8614
  217MOL0     H29246   3.262   3.609   8.627  0.0378  0.2202 -0.6560
  217MOL0     H29247   3.272   3.331   8.687  3.0419 -1.9767 -0.7966
  217MOL0     H29248   3.210   3.227   8.554 -0.4140 -0.3287  0.2642
  217MOL0     H29249   3.398   3.325   8.416 -1.6947  1.8308  0.7384
  217MOL0     H29250   3.447   3.418   8.544 -0.3578  0.2596  0.1102
  217MOL0     H29251   3.464   3.192   8.685 -1.2614 -0.0053 -0.0977
  217MOL0     H29252   3.582   3.223   8.555 -0.1766  2.5100 -1.7089
  217MOL0     H29253   3.440   3.109   8.381 -1.5616 -0.2131 -0.2993
  217MOL0     H29254   3.348   3.043   8.517 -0.6561  2.4165  2.4124
  217MOL0     H29255   3.351   2.991   8.725  1.4131  0.3145  0.6587
  217MOL0     H29256   3.352   2.842   8.902 -0.0579 -2.1954 -0.2178
  217MOL0     H29257   3.286   2.557   9.117  1.0444  0.6127 -1.7200
  217MOL0     H29258   3.242   2.376   9.306  0.5737  0.5167 -1.2243
  217MOL0     H29259   3.569   2.246   9.500 -1.9420 -0.1956 -2.6788
  217MOL0     H29260   3.565   2.379   9.613 -0.3649  0.7692  0.1470
  217MOL0     H29261   3.558   2.147   9.713  0.1576  0.6950  0.5542
  217MOL0     H29262   3.433   2.271   9.754  1.3587  0.8481 -0.1786
  217MOL0     H29263   3.275   2.146   9.616  1.3372  0.8352  1.6859
  217MOL0     H29264   3.399   2.072   9.515 -3.2523 -0.8512 -0.8819
  217MOL0     H29265   3.342   2.005   9.807 -0.2948  1.6291 -0.7224
  217MOL0     H29266   3.455   1.924   9.709  0.2543 -0.6701  1.6171
  217MOL0     H29267   3.160   1.919   9.634  0.0107  0.8295 -1.2573
  217MOL0     H29268   3.239   1.800   9.726  2.6095  0.2692  0.5381
  217MOL0     H29269   3.341   1.867   9.448 -0.5376 -1.9964 -0.9856
  217MOL0     H29270   3.419   1.762   9.554  1.5139  0.6381 -2.5138
  217MOL0     H29271   3.125   1.745   9.441 -0.7834 -0.5350  0.5849
  217MOL0     H29272   3.181   1.632   9.563  0.1419  0.5315  0.5985
  217MOL0     H29273   3.306   1.673   9.294  1.8504 -1.2773  0.4460
  217MOL0     H29274   3.380   1.596   9.424  1.4898  2.8832 -2.4873
  217MOL0     H29275   3.590   2.534   9.497 -0.0092  0.2059  0.5312
  217MOL0     H29276   3.619   2.695   9.334  3.2169 -1.7818 -1.8282
  217MOL0     H29277   3.758   2.716   8.806  0.3112  1.4830  0.9202
  217MOL0     H29278   3.728   2.837   8.587 -0.7016 -0.1539  0.3622
  217MOL0     H29279   4.103   4.032   8.808  2.2035  1.4440  0.3982
  217MOL0     H29280   4.338   4.052   8.858  0.5915  1.3489 -3.2832
  217MOL0     H29281   4.730   4.019   8.939 -0.7267 -0.0573  1.6608
  217MOL0     H29282   4.943   4.025   9.074 -2.2090  1.9084 -1.7263
  217MOL0     H29283   4.995   3.732   9.353 -0.2932  0.6969  0.5624
  217MOL0     H29284   5.053   3.884   9.365 -1.3995 -0.9436  0.5115
  217MOL0     H29285   5.295   3.796   9.331 -0.4436 -0.4598 -1.5182
  217MOL0     H29286   5.221   3.646   9.271 -2.0001  0.4866 -2.0623
  217MOL0     H29287   5.337   3.615   9.489  1.7649  2.1342 -2.5079
  217MOL0     H29288   5.181   3.598   9.536  0.7780 -0.2945 -1.0660
  217MOL0     H29289   5.303   3.763   9.696 -0.4232 -1.1660 -1.3028
  217MOL0     H29290   5.312   3.865   9.547  0.6766 -1.0485 -1.2136
  217MOL0     H29291   4.915   3.940   9.717  2.0490  4.4548  1.1413
  217MOL0     H29292   4.901   3.610   9.160 -0.1468 -0.1529  0.6507
  217MOL0     H29293   4.608   3.565   9.184  0.4085 -0.9137 -0.3272
  217MOL0     H29294   4.601   3.550   9.005  1.4646  2.4510 -1.7572
  217MOL0     H29295   4.739   3.496   9.102 -0.1680 -1.3665 -0.3254
  218MOL0     O29296   5.928   9.665   3.257 -0.3047 -0.3687  0.2990
  218MOL0     C29297   5.946   9.741   3.161 -0.0645  0.1025  0.2077
  218MOL0     O29298   5.853   9.773   3.066 -0.6699 -0.1476 -0.0449
  218MOL0     C29299   5.728   9.725   3.072 -0.3264 -0.3863  0.4290
  218MOL0     C29300   5.615   9.814   3.074  0.5685  0.1051 -0.8647
  218MOL0     C29301   5.483   9.774   3.073 -0.8235  0.4816 -0.3418
  218MOL0     C29302   5.455   9.642   3.070 -0.2617  1.3413  0.4007
  218MOL0     O29303   5.319   9.610   3.092 -0.3332  0.1123 -0.0992
  218MOL0     C29304   5.275   9.473   3.105 -1.1072 -0.3731  0.2776
  218MOL0     C29305   5.129   9.469   3.135  0.8646 -0.6718 -0.0092
  218MOL0     C29306   5.084   9.511   3.281  1.4292  0.1870  1.0492
  218MOL0     C29307   5.153   9.636   3.340 -0.1093  0.1813 -0.6157
  218MOL0     C29308   5.066   9.692   3.448  0.0288 -0.2669 -0.2110
  218MOL0     C29309   5.113   9.829   3.489  0.3685  0.7074  0.1717
  218MOL0     C29310   5.011   9.883   3.601 -0.0401 -0.1246  0.8598
  218MOL0     C29311   5.023   9.827   3.745  0.3736 -0.3264  0.4116
  218MOL0     N29312   5.159   9.798   3.792  0.4178  0.6341  0.7109
  218MOL0     C29313   5.208   9.668   3.788 -0.4296 -0.2220  0.4051
  218MOL0     C29314   5.330   9.677   3.846 -0.3629  0.7477 -0.8452
  218MOL0     C29315   5.429   9.565   3.874 -0.2158 -0.3995  1.5400
  218MOL0     C29316   5.415   9.513   4.017  0.0147  0.0143 -0.0544
  218MOL0     C29317   5.290   9.441   4.048  0.3056 -0.6661 -0.5105
  218MOL0     C29318   5.245   9.425   4.194  0.5351  0.3002  0.5026
  218MOL0     O29319   5.232   9.551   4.257 -0.2358  0.0767 -0.4524
  218MOL0     C29320   5.138   9.645   4.215  0.3855  0.8404 -0.2859
  218MOL0     C29321   5.016   9.606   4.157 -0.2050  0.4164  0.3787
  218MOL0     C29322   4.918   9.706   4.123  0.6735  0.0120  0.2799
  218MOL0     C29323   4.930   9.845   4.173  0.0724 -0.0735 -0.5319
  218MOL0     C29324   4.822   9.951   4.151  0.0162  0.9567 -0.2021
  218MOL0     O29325   4.859  10.077   4.193 -0.5691 -0.2726 -0.1781
  218MOL0     C29326   4.795  10.182   4.125 -0.9167 -0.9100 -0.0948
  218MOL0     C29327   4.844  10.224   3.999  0.6281 -0.3981  0.1299
  218MOL0     C29328   4.770  10.319   3.926  0.0918 -0.0996 -0.0904
  218MOL0     C29329   4.656  10.370   3.985 -0.1227 -0.4069  0.3370
  218MOL0     O29330   4.580  10.454   3.918  0.0397  0.0517  0.3853
  218MOL0     C29331   4.518  10.412   3.790 -0.4021 -0.0663 -0.5054
  218MOL0     C29332   4.538  10.484   3.656  0.6692 -0.1794  0.0614
  218MOL0     C29333   4.504  10.632   3.655  0.9056 -0.8278  0.0871
  218MOL0     C29334   4.598  10.741   3.717  0.0400  0.6401  1.0208
  218MOL0     C29335   4.748  10.742   3.663 -0.0261  0.1770 -0.2376
  218MOL0     C29336   4.759  10.865   3.563 -0.5401 -0.7168  0.2522
  218MOL0     C29337   4.911  10.892   3.558  0.2007 -0.3667  0.7838
  218MOL0     C29338   4.941  10.963   3.418 -0.5128  0.0807 -0.4461
  218MOL0    Cl29339   5.120  11.024   3.392 -0.0487 -0.1347  0.5904
  218MOL0     C29340   4.620  10.342   4.121  0.2626  0.9201  0.5658
  218MOL0     C29341   4.694  10.248   4.187  0.6713  0.0236  0.1258
  218MOL0     O29342   4.726   9.919   4.085  0.5423  1.0364  0.1892
  218MOL0     C29343   5.059   9.874   4.228  0.2021  0.5461 -0.4506
  218MOL0     C29344   5.155   9.777   4.257  0.6179 -0.4229  0.9245
  218MOL0     N29345   5.341   9.810   3.882 -0.2140 -0.4858 -0.3493
  218MOL0     N29346   5.250   9.877   3.842 -0.5059 -1.1814  0.1789
  218MOL0     C29347   5.556   9.551   3.037  0.1583  0.3298 -0.0410
  218MOL0     C29348   5.693   9.593   3.030  0.8311  0.6096 -0.6600
  218MOL0     C29349   6.080   9.803   3.140  0.1554  0.0547  0.1530
  218MOL0     C29350   6.090   9.910   3.053  0.2845  0.1216  0.1955
  218MOL0     C29351   6.212   9.948   2.999  0.3199  0.3091 -0.9294
  218MOL0     C29352   6.327   9.891   3.040  0.3477 -1.3301 -0.9775
  218MOL0     O29353   6.450   9.916   2.993  0.3683  0.0997  1.0488
  218MOL0     C29354   6.460   9.963   2.856 -0.7186  0.1769 -0.3416
  218MOL0     C29355   6.426   9.858   2.760  0.9901  0.0107 -0.3643
  218MOL0     C29356   6.505   9.877   2.627  0.2977 -0.1057  0.6394
  218MOL0     C29357   6.475   9.759   2.536  0.4079  0.1618 -1.2122
  218MOL0     C29358   6.523   9.798   2.402  0.9558  0.2484  0.5687
  218MOL0     C29359   6.571   9.823   2.298 -0.9203  0.6170  1.1304
  218MOL0     C29360   6.317   9.802   3.146 -0.8303  0.4107  0.1777
  218MOL0     C29361   6.199   9.753   3.194  0.2428 -0.8211  0.1060
  218MOL0     C29362   6.201   9.653   3.298 -0.4923  0.2437 -0.8486
  218MOL0     H29363   5.642   9.917   3.094  2.3224 -0.6191  0.9836
  218MOL0     H29364   5.402   9.846   3.076 -0.9115  0.3763 -0.1595
  218MOL0     H29365   5.288   9.431   3.005  2.1395 -1.7707  1.1391
  218MOL0     H29366   5.333   9.418   3.180 -0.6228 -1.0853 -0.5999
  218MOL0     H29367   5.099   9.364   3.127  2.7393 -1.1538 -1.2500
  218MOL0     H29368   5.077   9.524   3.056  0.7089 -0.0169  0.5364
  218MOL0     H29369   5.122   9.431   3.346 -0.1802 -2.0830 -0.6169
  218MOL0     H29370   4.976   9.521   3.289  1.3586  0.7090 -0.2706
  218MOL0     H29371   5.252   9.609   3.379 -0.4596  0.5197  0.5435
  218MOL0     H29372   5.163   9.722   3.273 -0.9296  0.3051 -0.5855
  218MOL0     H29373   4.966   9.707   3.407  2.2516  2.1211 -5.7066
  218MOL0     H29374   5.059   9.631   3.539 -0.7505  0.0531 -0.0451
  218MOL0     H29375   5.219   9.821   3.517  0.2049 -4.8419  0.3296
  218MOL0     H29376   5.101   9.878   3.392 -1.8172  0.4647  0.2877
  218MOL0     H29377   4.907   9.870   3.569 -0.3597  0.7702  1.4857
  218MOL0     H29378   5.027   9.992   3.605 -0.7213  0.1143 -1.3715
  218MOL0     H29379   4.974   9.887   3.821  1.3062  1.4249 -0.3067
  218MOL0     H29380   4.967   9.734   3.733 -0.0366 -0.3016  1.9440
  218MOL0     H29381   5.167   9.578   3.744 -0.0187 -1.0526  1.6718
  218MOL0     H29382   5.426   9.478   3.808 -0.9482 -1.3834  2.8421
  218MOL0     H29383   5.525   9.616   3.858  0.1488 -1.0559  1.5752
  218MOL0     H29384   5.502   9.456   4.050 -0.3523 -1.9605 -2.2647
  218MOL0     H29385   5.408   9.600   4.083  0.8083 -0.5720  0.8286
  218MOL0     H29386   5.299   9.339   4.011 -2.2414 -0.9526 -0.5063
  218MOL0     H29387   5.210   9.505   4.008  0.1212  1.2465  2.5249
  218MOL0     H29388   5.318   9.369   4.254  0.3937  1.6196  1.9804
  218MOL0     H29389   5.154   9.368   4.212  1.1816 -1.4003 -1.3195
  218MOL0     H29390   5.003   9.502   4.129  0.3944  0.7492 -1.2576
  218MOL0     H29391   4.828   9.674   4.071  1.3731 -1.5747 -0.0127
  218MOL0     H29392   4.928  10.171   3.955 -0.0008 -1.7602  0.5254
  218MOL0     H29393   4.803  10.346   3.826 -0.6314 -1.4596 -0.7206
  218MOL0     H29394   4.544  10.308   3.768  5.0024  1.5000 -3.2104
  218MOL0     H29395   4.413  10.416   3.819 -0.6483  0.1477 -1.4065
  218MOL0     H29396   4.640  10.466   3.621  0.2327  2.0985 -2.7546
  218MOL0     H29397   4.467  10.440   3.586  2.1786 -1.5914 -0.6360
  218MOL0     H29398   4.504  10.641   3.546 -0.7197  0.7086  0.1487
  218MOL0     H29399   4.400  10.653   3.685  1.9977  0.8871  3.1517
  218MOL0     H29400   4.598  10.701   3.818  2.1850  2.1984  1.7181
  218MOL0     H29401   4.561  10.844   3.714  2.4134  1.5360  0.3096
  218MOL0     H29402   4.775  10.646   3.617 -2.0851 -0.8084  0.4805
  218MOL0     H29403   4.821  10.760   3.743 -0.7602  0.5443  0.3634
  218MOL0     H29404   4.743  10.829   3.461  0.6944  2.4701 -1.2100
  218MOL0     H29405   4.691  10.947   3.586 -2.2611 -1.5017 -1.6705
  218MOL0     H29406   4.963  10.796   3.551 -2.7567 -1.9256 -1.9990
  218MOL0     H29407   4.949  10.939   3.650  2.0841 -2.5854  1.2250
  218MOL0     H29408   4.913  10.896   3.337  0.7036 -1.7857  0.6096
  218MOL0     H29409   4.885  11.056   3.411 -0.2428  0.2119 -0.9329
  218MOL0     H29410   4.536  10.398   4.161 -0.9016 -2.0444  2.6516
  218MOL0     H29411   4.677  10.208   4.286 -0.5100 -0.8651 -0.3933
  218MOL0     H29412   5.067   9.980   4.251  2.0316  1.1411 -3.3891
  218MOL0     H29413   5.249   9.801   4.307 -0.0026  2.2556  0.9296
  218MOL0     H29414   5.529   9.452   3.003 -2.1140  1.6273 -2.4182
  218MOL0     H29415   5.762   9.514   3.000  1.4431 -0.1944  2.4980
  218MOL0     H29416   6.013   9.978   3.019  0.0673 -1.0981 -1.9197
  218MOL0     H29417   6.223  10.033   2.932 -0.1562  0.1926 -1.1644
  218MOL0     H29418   6.560  10.001   2.836 -0.8397  2.5383  2.7316
  218MOL0     H29419   6.396  10.049   2.834 -0.2779 -0.1605 -3.3202
  218MOL0     H29420   6.318   9.863   2.744  0.4562  4.6131  2.7744
  218MOL0     H29421   6.449   9.762   2.807 -0.4592  1.0932  2.8394
  218MOL0     H29422   6.611   9.888   2.651  0.7062  2.2912 -1.7558
  218MOL0     H29423   6.475   9.970   2.578 -2.0209 -1.2969 -0.3802
  218MOL0     H29424   6.518   9.669   2.580 -0.5380  0.0851 -0.4011
  218MOL0     H29425   6.368   9.739   2.522 -0.3689  3.4392 -0.7284
  218MOL0     H29426   6.611   9.843   2.201  4.8665 -1.4423  2.6797
  218MOL0     H29427   6.414   9.769   3.183 -0.2104  1.3313 -0.5837
  218MOL0     H29428   6.295   9.617   3.341 -2.5702 -0.7699  3.4830
  218MOL0     H29429   6.142   9.686   3.384 -2.7479 -3.3829 -0.8155
  218MOL0     H29430   6.161   9.559   3.261 -1.9212 -0.0289  1.2181
  219MOL0     O29431   4.323   1.750  11.508  0.7102 -0.0961  0.1072
  219MOL0     C29432   4.403   1.821  11.445 -0.4030  0.0076  0.8153
  219MOL0     O29433   4.476   1.926  11.505  0.3173  0.8396 -0.1091
  219MOL0     C29434   4.445   1.968  11.632  0.5518 -0.6828  0.2974
  219MOL0     C29435   4.369   2.089  11.646 -1.0443 -0.0343 -0.0938
  219MOL0     C29436   4.373   2.157  11.767 -0.7190 -0.4607  0.0133
  219MOL0     C29437   4.435   2.099  11.882  0.7566 -0.5455  0.2459
  219MOL0     O29438   4.438   2.154  12.006  0.3504 -0.7636 -1.1770
  219MOL0     C29439   4.354   2.267  12.028 -0.2931  0.2330 -1.0604
  219MOL0     C29440   4.390   2.328  12.169 -0.8648 -1.0846 -0.7866
  219MOL0     C29441   4.389   2.231  12.291 -0.3008  1.0887 -0.0094
  219MOL0     C29442   4.441   2.290  12.421  0.0558 -0.8675  0.4366
  219MOL0     C29443   4.448   2.183  12.533 -0.0913 -0.5652 -0.0320
  219MOL0     C29444   4.490   2.252  12.663 -0.4508  0.6057 -0.1399
  219MOL0     C29445   4.488   2.153  12.782 -0.1322 -0.8542 -0.5274
  219MOL0     C29446   4.514   2.243  12.916  0.0322  0.2629 -0.1729
  219MOL0     N29447   4.471   2.169  13.039 -0.3332  0.0601  0.9889
  219MOL0     C29448   4.540   2.056  13.087  0.8335  0.9644 -0.3439
  219MOL0     C29449   4.454   1.994  13.175  0.1273 -0.7663  0.2381
  219MOL0     C29450   4.468   1.857  13.241  0.2141  0.9879  0.2207
  219MOL0     C29451   4.392   1.751  13.154 -0.7018  0.2073 -0.5133
  219MOL0     C29452   4.292   1.667  13.241 -0.9852 -0.9087  0.3650
  219MOL0     C29453   4.298   1.515  13.210  0.3893  0.3724  0.6223
  219MOL0     O29454   4.167   1.465  13.184 -0.1544  0.6452  0.6693
  219MOL0     C29455   4.097   1.511  13.076  0.4737  0.2707 -0.4144
  219MOL0     C29456   3.964   1.522  13.089  0.6488 -0.0496  0.0333
  219MOL0     C29457   3.878   1.571  12.988 -0.1627 -0.2490 -1.0271
  219MOL0     C29458   3.925   1.637  12.882 -0.2070 -0.1786 -0.1364
  219MOL0     C29459   3.839   1.703  12.780  0.0783  0.7293  0.1888
  219MOL0     O29460   3.716   1.745  12.817 -0.4101 -0.1429 -0.2368
  219MOL0     C29461   3.642   1.816  12.728  0.0140  0.2232  0.3484
  219MOL0     C29462   3.528   1.751  12.680  0.2434  0.6920 -0.7080
  219MOL0     C29463   3.454   1.809  12.583  0.3413 -0.8621  0.4199
  219MOL0     C29464   3.475   1.940  12.531 -1.2943 -0.1712  1.1308
  219MOL0     O29465   3.385   1.986  12.432 -0.7361  0.4385  0.0961
  219MOL0     C29466   3.422   2.052  12.310  0.6669 -0.8173 -0.1569
  219MOL0     C29467   3.316   2.085  12.206 -0.5522 -0.2947 -1.5735
  219MOL0     C29468   3.194   2.151  12.272  0.1029  0.6683  0.1798
  219MOL0     C29469   3.090   2.169  12.166 -0.7645 -0.0014 -0.1852
  219MOL0     C29470   2.945   2.188  12.220  0.5860  0.5001  0.1730
  219MOL0     C29471   2.920   2.328  12.293 -0.2459  0.2299  0.1065
  219MOL0     C29472   2.775   2.318  12.353  0.5616  1.0388  0.9540
  219MOL0     C29473   2.734   2.460  12.383  0.5619 -0.9160 -0.2327
  219MOL0    Cl29474   2.847   2.555  12.494  0.4148 -0.5859  0.6926
  219MOL0     C29475   3.603   1.997  12.565 -0.6661 -0.5367 -0.1741
  219MOL0     C29476   3.687   1.944  12.659  0.0842 -0.2033 -0.0927
  219MOL0     O29477   3.867   1.690  12.660  0.7605  1.4715 -0.2381
  219MOL0     C29478   4.067   1.634  12.854  0.4652  0.3715 -0.1971
  219MOL0     C29479   4.150   1.577  12.964  0.4848  1.0960 -0.3617
  219MOL0     N29480   4.340   2.067  13.166 -0.5383 -0.7715 -0.5276
  219MOL0     N29481   4.346   2.177  13.094  0.4559 -0.0656 -1.0483
  219MOL0     C29482   4.508   1.980  11.861 -0.6266  0.3794  0.5064
  219MOL0     C29483   4.506   1.911  11.739  0.6298 -0.4438 -0.4539
  219MOL0     C29484   4.442   1.789  11.299 -0.9830 -0.0078 -0.2336
  219MOL0     C29485   4.573   1.834  11.257 -0.7262  0.0799 -0.1060
  219MOL0     C29486   4.607   1.841  11.125  0.6227 -0.7638  0.8258
  219MOL0     C29487   4.523   1.771  11.035 -0.9479 -0.2668  0.2958
  219MOL0     O29488   4.555   1.756  10.901 -0.0273 -0.2866  0.1567
  219MOL0     C29489   4.696   1.762  10.853 -0.4852 -0.3411  1.0003
  219MOL0     C29490   4.717   1.651  10.754  0.0375  0.6360  0.4810
  219MOL0     C29491   4.706   1.520  10.825 -1.0166 -0.0566 -0.5399
  219MOL0     C29492   4.822   1.496  10.926 -0.8741  0.4499  0.1197
  219MOL0     C29493   4.956   1.500  10.869  0.0155 -0.0900  0.0252
  219MOL0     C29494   5.073   1.488  10.836  0.4876 -0.2864  0.6692
  219MOL0     C29495   4.400   1.726  11.076 -0.5036  0.1953  0.1401
  219MOL0     C29496   4.349   1.742  11.205  0.5613 -0.2152 -0.1452
  219MOL0     C29497   4.202   1.695  11.235 -0.6566 -1.3289  0.1300
  219MOL0     H29498   4.327   2.147  11.565  1.2112  1.8452 -0.0115
  219MOL0     H29499   4.315   2.249  11.773  1.3493  0.8099  2.0443
  219MOL0     H29500   4.370   2.349  11.957  0.1637  2.5670  1.5619
  219MOL0     H29501   4.248   2.242  12.034 -0.8147  2.5076  1.0729
  219MOL0     H29502   4.312   2.405  12.176 -0.1165 -0.3688 -0.1370
  219MOL0     H29503   4.485   2.377  12.149 -0.3985 -2.0004 -0.8489
  219MOL0     H29504   4.443   2.138  12.268  1.6461  1.8323  1.2559
  219MOL0     H29505   4.283   2.207  12.301  0.0950 -1.2157 -0.6831
  219MOL0     H29506   4.542   2.331  12.413  0.3241  0.0494  5.2136
  219MOL0     H29507   4.381   2.380  12.440 -2.1570 -1.2511 -3.5900
  219MOL0     H29508   4.346   2.145  12.546 -0.0895 -0.5169  0.1246
  219MOL0     H29509   4.519   2.103  12.509 -0.4622 -0.7708 -0.4629
  219MOL0     H29510   4.592   2.290  12.650 -0.0205 -0.9275 -1.4280
  219MOL0     H29511   4.427   2.340  12.683  0.8460  1.1503  1.9781
  219MOL0     H29512   4.566   2.079  12.768 -2.5256 -3.2319 -2.2268
  219MOL0     H29513   4.390   2.106  12.793 -0.9436  0.5731 -1.3101
  219MOL0     H29514   4.620   2.268  12.907  0.3489 -1.5056 -2.7152
  219MOL0     H29515   4.468   2.342  12.915 -1.4176 -0.3761  0.0232
  219MOL0     H29516   4.619   1.990  13.052 -1.1458 -1.4157 -0.5764
  219MOL0     H29517   4.576   1.844  13.245  0.1265  0.1551  4.3465
  219MOL0     H29518   4.434   1.864  13.345  1.3433  1.2154  0.5903
  219MOL0     H29519   4.338   1.794  13.070 -2.9586 -0.8875  0.3008
  219MOL0     H29520   4.471   1.686  13.116  1.1919  1.0952  1.6343
  219MOL0     H29521   4.192   1.711  13.233 -1.6663 -2.2913  1.0369
  219MOL0     H29522   4.326   1.659  13.345 -1.3785 -2.3495  0.3991
  219MOL0     H29523   4.324   1.471  13.307  0.3538  0.7371  0.7979
  219MOL0     H29524   4.375   1.493  13.136 -0.7664 -1.3623 -0.1355
  219MOL0     H29525   3.910   1.487  13.176  0.8286  1.2180  0.6829
  219MOL0     H29526   3.773   1.564  13.015  0.5994 -0.9759  2.1239
  219MOL0     H29527   3.495   1.653  12.714 -0.5176 -0.0630 -3.3647
  219MOL0     H29528   3.365   1.751  12.561  0.9556 -2.0567  0.9727
  219MOL0     H29529   3.471   2.142  12.349 -1.8153  0.3232  0.4893
  219MOL0     H29530   3.497   1.987  12.263  0.6624 -0.3863 -0.7714
  219MOL0     H29531   3.359   2.153  12.133  1.9014  0.6906  0.6467
  219MOL0     H29532   3.286   1.986  12.169 -1.8666 -1.6661  2.5469
  219MOL0     H29533   3.157   2.082  12.349  0.1063  0.9610  0.4448
  219MOL0     H29534   3.224   2.242  12.325 -4.3088  0.3199  3.9125
  219MOL0     H29535   3.093   2.080  12.103  2.6510 -1.2369  1.5069
  219MOL0     H29536   3.108   2.264  12.115  0.9580  0.6493  1.5196
  219MOL0     H29537   2.919   2.105  12.286  0.0484 -0.8139 -1.6090
  219MOL0     H29538   2.878   2.195  12.134 -0.9315 -3.7806  0.7584
  219MOL0     H29539   2.997   2.338  12.370 -1.9626  1.3893  1.7599
  219MOL0     H29540   2.924   2.419  12.232  0.8030  0.6686  0.8054
  219MOL0     H29541   2.769   2.249  12.438 -1.4551  1.3868  1.1446
  219MOL0     H29542   2.700   2.286  12.280  1.9765  2.3229 -1.1649
  219MOL0     H29543   2.723   2.515  12.289 -0.9336 -1.0446 -0.1664
  219MOL0     H29544   2.633   2.446  12.423  0.9939 -2.3104  0.4453
  219MOL0     H29545   3.628   2.088  12.512 -0.6269  1.0525  2.4049
  219MOL0     H29546   3.765   2.004  12.704 -1.8813  3.4840 -1.2430
  219MOL0     H29547   4.111   1.669  12.762 -1.5240 -0.2356 -1.4554
  219MOL0     H29548   4.257   1.563  12.954  0.4738  0.0879  0.8047
  219MOL0     H29549   4.563   1.933  11.942  0.0822  1.1194  0.4697
  219MOL0     H29550   4.537   1.809  11.715 -4.7003 -2.2886 -0.7602
  219MOL0     H29551   4.645   1.868  11.330 -0.0403 -0.4515 -0.5219
  219MOL0     H29552   4.705   1.862  11.084  0.2756 -0.9123 -0.1074
  219MOL0     H29553   4.774   1.757  10.929  2.6080  2.3117 -1.6877
  219MOL0     H29554   4.709   1.856  10.798 -0.9577  0.0410  1.5328
  219MOL0     H29555   4.812   1.652  10.700 -0.0027  0.8783  0.4136
  219MOL0     H29556   4.642   1.650  10.674  2.2441 -3.0149 -1.8284
  219MOL0     H29557   4.714   1.436  10.755  1.8463  1.3356 -2.0664
  219MOL0     H29558   4.617   1.515  10.888 -0.6203 -0.8201 -0.0213
  219MOL0     H29559   4.823   1.582  10.994 -0.1852  1.8493 -1.5782
  219MOL0     H29560   4.796   1.413  10.993  4.4387  0.8817  3.3771
  219MOL0     H29561   5.176   1.479  10.806  0.3687 -0.2390  0.2431
  219MOL0     H29562   4.337   1.691  10.995  1.6510 -1.4134 -0.9703
  219MOL0     H29563   4.143   1.761  11.300  0.0724 -0.3690 -0.1488
  219MOL0     H29564   4.146   1.671  11.144 -3.3515 -0.3038  1.4053
  219MOL0     H29565   4.197   1.593  11.274 -0.8204 -1.7811 -1.0413
  220MOL0     O29566   6.687   1.148   9.128 -0.4414  0.3343 -0.4293
  220MOL0     C29567   6.653   1.199   9.233 -0.6400 -0.6890  0.2913
  220MOL0     O29568   6.688   1.160   9.364  0.9865  0.3515 -0.1813
  220MOL0     C29569   6.738   1.032   9.374  0.2063 -0.7328 -0.3868
  220MOL0     C29570   6.682   0.938   9.467  0.2783  0.1216  1.1233
  220MOL0     C29571   6.732   0.814   9.495 -0.2597 -0.4534  0.2207
  220MOL0     C29572   6.846   0.770   9.431  1.1071  0.3414  0.7317
  220MOL0     O29573   6.887   0.647   9.473 -0.0952  0.4043 -0.3065
  220MOL0     C29574   7.024   0.631   9.483 -0.2131  1.3518 -0.3618
  220MOL0     C29575   7.044   0.482   9.540 -0.4812 -0.0397 -0.2113
  220MOL0     C29576   7.029   0.380   9.437 -0.0510  0.8147 -0.6333
  220MOL0     C29577   7.157   0.360   9.354  0.3019 -0.0881 -0.2557
  220MOL0     C29578   7.144   0.229   9.284  1.2434  0.4416 -0.9770
  220MOL0     C29579   7.266   0.202   9.195 -0.4062  0.3090  0.1591
  220MOL0     C29580   7.243   0.070   9.105 -1.4514 -1.1257  0.0932
  220MOL0     C29581   7.347   0.055   8.991 -0.1621 -0.5504 -0.6482
  220MOL0     N29582   7.320   0.135   8.872 -0.3041 -0.8094  0.6093
  220MOL0     C29583   7.291   0.270   8.860  0.6785 -1.3151  0.0283
  220MOL0     C29584   7.305   0.293   8.727 -0.3206 -0.1454  0.2223
  220MOL0     C29585   7.291   0.424   8.657 -0.3430  0.1806 -0.9872
  220MOL0     C29586   7.154   0.455   8.614 -0.3193  1.0635 -0.9736
  220MOL0     C29587   7.144   0.593   8.563 -0.3411 -0.8204  0.4003
  220MOL0     C29588   6.997   0.644   8.555  0.6344  0.1772 -1.0334
  220MOL0     O29589   7.004   0.767   8.493 -0.5145  0.0997 -0.3093
  220MOL0     C29590   6.877   0.836   8.470 -1.2475  0.0726  0.6082
  220MOL0     C29591   6.757   0.830   8.540 -0.0675 -0.1179  0.6220
  220MOL0     C29592   6.642   0.903   8.494  0.0878  0.1120 -0.4695
  220MOL0     C29593   6.643   1.000   8.388  0.3370 -0.0962 -1.1130
  220MOL0     C29594   6.512   1.080   8.350 -0.7859  0.0340 -0.3029
  220MOL0     O29595   6.409   1.057   8.425 -0.2655  0.4114  0.5351
  220MOL0     C29596   6.302   1.141   8.418  0.2059  1.1955 -1.1497
  220MOL0     C29597   6.196   1.090   8.488  0.0392 -0.4499 -0.2412
  220MOL0     C29598   6.071   1.144   8.476 -1.0208 -0.2674  0.6598
  220MOL0     C29599   6.059   1.266   8.407 -0.2145  0.1712  0.0930
  220MOL0     O29600   5.934   1.317   8.412 -0.4660  0.1755 -0.0017
  220MOL0     C29601   5.896   1.405   8.303 -0.1462  1.0507 -0.3313
  220MOL0     C29602   5.885   1.547   8.347 -1.0548 -0.6858  0.0214
  220MOL0     C29603   5.893   1.641   8.217  0.7169  0.6155 -0.0012
  220MOL0     C29604   5.834   1.776   8.237  0.5320  0.4076 -0.8000
  220MOL0     C29605   5.873   1.891   8.144 -0.6596  0.0465 -0.0028
  220MOL0     C29606   5.799   1.896   8.008 -0.3110 -0.9425  0.2704
  220MOL0     C29607   5.850   2.011   7.927  0.2349 -0.2897  0.3476
  220MOL0     C29608   5.733   2.058   7.831 -0.2061 -1.0498 -0.4165
  220MOL0    Cl29609   5.689   1.938   7.710 -0.0720 -0.4028 -0.3805
  220MOL0     C29610   6.168   1.345   8.373  0.5264 -0.3169 -0.1397
  220MOL0     C29611   6.288   1.279   8.372  0.5497  1.3004  0.9679
  220MOL0     O29612   6.508   1.135   8.234 -0.2814  0.6549 -0.6012
  220MOL0     C29613   6.770   1.002   8.314 -0.0239 -0.9037 -0.2969
  220MOL0     C29614   6.880   0.919   8.358 -0.5034 -0.0657  0.4914
  220MOL0     N29615   7.326   0.170   8.661 -0.2816  0.4757  0.5151
  220MOL0     N29616   7.339   0.076   8.747  0.4687  0.1692 -0.2047
  220MOL0     C29617   6.905   0.865   9.336  0.9228 -0.2445  0.6198
  220MOL0     C29618   6.854   0.997   9.308 -0.1798 -1.0569  0.5381
  220MOL0     C29619   6.557   1.318   9.223 -0.5470 -0.2473  0.5110
  220MOL0     C29620   6.498   1.367   9.343  0.0254  0.5115  0.5671
  220MOL0     C29621   6.407   1.475   9.330  0.6431  0.0057  0.0953
  220MOL0     C29622   6.367   1.538   9.214 -0.4016  0.9684 -0.0063
  220MOL0     O29623   6.310   1.663   9.202 -0.4839  0.4134 -0.3268
  220MOL0     C29624   6.377   1.773   9.276 -0.1970  0.2845  0.2300
  220MOL0     C29625   6.496   1.823   9.200 -0.9288 -0.1181  0.8527
  220MOL0     C29626   6.581   1.928   9.272 -0.6000 -0.6181 -0.7854
  220MOL0     C29627   6.585   2.064   9.205 -0.1607  1.2573 -0.4899
  220MOL0     C29628   6.449   2.119   9.206 -0.2283  0.3884 -1.2078
  220MOL0     C29629   6.334   2.157   9.195 -0.6380 -0.4916  0.6111
  220MOL0     C29630   6.426   1.484   9.096  0.7160 -0.1012  0.1626
  220MOL0     C29631   6.524   1.381   9.102  1.4041 -0.4416 -0.1605
  220MOL0     C29632   6.587   1.347   8.966 -0.0396 -0.8562  0.4739
  220MOL0     H29633   6.594   0.968   9.524 -1.4845 -1.7958 -0.4336
  220MOL0     H29634   6.674   0.767   9.574 -3.8826 -0.4847 -2.2431
  220MOL0     H29635   7.082   0.639   9.390  2.0671  0.8067  0.9521
  220MOL0     H29636   7.068   0.701   9.554 -3.0643  1.5180  1.4278
  220MOL0     H29637   6.967   0.464   9.616 -2.3756  3.2543 -1.1583
  220MOL0     H29638   7.148   0.476   9.572 -0.0606  0.8089 -1.3733
  220MOL0     H29639   6.942   0.367   9.371  0.7523  0.5765 -1.6671
  220MOL0     H29640   7.027   0.299   9.510 -1.6323 -0.0654 -1.5935
  220MOL0     H29641   7.194   0.432   9.280 -1.2952 -1.1115 -2.1434
  220MOL0     H29642   7.241   0.355   9.423 -1.0095 -0.2703  1.3771
  220MOL0     H29643   7.142   0.148   9.358 -0.2002  0.7638 -0.6480
  220MOL0     H29644   7.053   0.223   9.224  1.1147  1.1454 -0.8520
  220MOL0     H29645   7.281   0.291   9.132  4.0254  0.2355  0.7626
  220MOL0     H29646   7.359   0.191   9.252 -0.3961 -4.0232 -0.3674
  220MOL0     H29647   7.143   0.079   9.062 -0.5904  0.5787 -1.6906
  220MOL0     H29648   7.258  -0.008   9.181 -0.0693 -1.2370 -0.2684
  220MOL0     H29649   7.453   0.069   9.014 -0.3694 -1.0368  0.7041
  220MOL0     H29650   7.340  -0.045   8.949  0.6559 -1.0567  0.3723
  220MOL0     H29651   7.257   0.354   8.920  1.1856  0.8185 -2.4997
  220MOL0     H29652   7.318   0.501   8.729 -1.8628 -0.3566  0.1905
  220MOL0     H29653   7.362   0.411   8.574  0.1510 -0.2920 -0.4975
  220MOL0     H29654   7.136   0.384   8.533  2.2782 -0.0148 -0.7217
  220MOL0     H29655   7.096   0.448   8.707  1.2727 -0.2308 -0.0079
  220MOL0     H29656   7.185   0.586   8.462  2.4645  0.0484  1.3924
  220MOL0     H29657   7.197   0.659   8.633  0.2986 -0.3377 -0.5244
  220MOL0     H29658   6.957   0.647   8.657 -1.4092 -1.6480 -1.6883
  220MOL0     H29659   6.937   0.574   8.495  0.0122 -0.8346  0.6977
  220MOL0     H29660   6.754   0.766   8.628  0.6616  0.6784  1.2396
  220MOL0     H29661   6.549   0.899   8.550 -0.6820 -5.0593 -1.6006
  220MOL0     H29662   6.200   0.989   8.527 -1.4387 -1.1187 -1.7261
  220MOL0     H29663   5.979   1.124   8.530 -3.1591  3.5861 -1.0923
  220MOL0     H29664   5.959   1.380   8.217  0.0963  2.1528 -0.4982
  220MOL0     H29665   5.800   1.373   8.262 -0.5515  1.1757  0.4932
  220MOL0     H29666   5.796   1.558   8.410  0.2934 -2.6038  2.4141
  220MOL0     H29667   5.967   1.570   8.416 -0.3551  1.4745 -1.4309
  220MOL0     H29668   5.997   1.670   8.198 -0.1852  3.9290 -0.6490
  220MOL0     H29669   5.838   1.602   8.131  0.2779 -2.2959  1.4805
  220MOL0     H29670   5.867   1.804   8.337  0.7422  2.4890 -1.4093
  220MOL0     H29671   5.726   1.760   8.235  0.4581  0.7305  0.2913
  220MOL0     H29672   5.982   1.901   8.144 -0.8548  3.0563 -0.7435
  220MOL0     H29673   5.856   1.980   8.206  0.6184 -0.8998  1.7845
  220MOL0     H29674   5.820   1.800   7.959  2.8554 -1.1017  1.6268
  220MOL0     H29675   5.695   1.905   8.039 -1.5480 -1.4490 -3.2914
  220MOL0     H29676   5.930   1.975   7.863 -0.2425  0.4018 -0.6651
  220MOL0     H29677   5.886   2.099   7.981  0.4753  0.4584 -0.9940
  220MOL0     H29678   5.651   2.105   7.886 -0.7620 -0.3852 -1.7874
  220MOL0     H29679   5.781   2.136   7.773 -3.5830  0.6798 -1.1436
  220MOL0     H29680   6.150   1.449   8.347 -0.0448  0.0703  1.6636
  220MOL0     H29681   6.376   1.325   8.327  1.3939  1.0472  2.2816
  220MOL0     H29682   6.760   1.054   8.220 -2.3942 -1.3224 -0.3491
  220MOL0     H29683   6.968   0.909   8.295  0.5864 -0.7914  2.0561
  220MOL0     H29684   6.988   0.831   9.276 -2.4631 -1.7325 -3.7861
  220MOL0     H29685   6.894   1.050   9.222 -1.9309  1.0825  0.9630
  220MOL0     H29686   6.522   1.341   9.445  0.0811 -1.5487  0.0653
  220MOL0     H29687   6.378   1.515   9.427  1.9090  2.7512 -0.5389
  220MOL0     H29688   6.405   1.748   9.379  2.6384  3.9037  0.5362
  220MOL0     H29689   6.310   1.860   9.275 -1.0416 -0.3198 -1.8722
  220MOL0     H29690   6.459   1.856   9.102  0.7511  0.1794  0.2934
  220MOL0     H29691   6.566   1.742   9.176  0.8808  1.3569  0.9718
  220MOL0     H29692   6.681   1.885   9.277 -1.0494 -1.5715  2.2967
  220MOL0     H29693   6.552   1.950   9.375 -2.4795 -1.9425 -0.9700
  220MOL0     H29694   6.663   2.127   9.250 -1.5597  0.2962  3.7328
  220MOL0     H29695   6.618   2.043   9.102 -1.8919 -1.3031 -0.6011
  220MOL0     H29696   6.237   2.203   9.185  1.1288  3.0483 -4.9580
  220MOL0     H29697   6.395   1.540   9.009 -3.9208 -0.6710  1.1770
  220MOL0     H29698   6.693   1.371   8.972  0.4414 -0.9281 -4.1046
  220MOL0     H29699   6.577   1.243   8.934 -3.1816  0.7080 -5.0593
  220MOL0     H29700   6.539   1.402   8.884 -1.5982  0.2422  2.0497
  221MOL0     O29701  11.290   7.362   9.743  0.1783 -0.0623  0.6409
  221MOL0     C29702  11.201   7.389   9.666  0.1228  0.3827  0.3730
  221MOL0     O29703  11.175   7.324   9.547  0.4600 -0.2256 -0.4676
  221MOL0     C29704  11.228   7.195   9.515 -0.1086 -0.0192 -0.3159
  221MOL0     C29705  11.157   7.080   9.564 -0.1103  0.0402  1.3729
  221MOL0     C29706  11.222   6.955   9.547  0.0892  0.1231 -0.3094
  221MOL0     C29707  11.334   6.945   9.475 -0.5778  0.3909  0.5893
  221MOL0     O29708  11.417   6.828   9.479  0.0709  0.4036 -0.3714
  221MOL0     C29709  11.468   6.788   9.610  0.3857  0.2597  0.1462
  221MOL0     C29710  11.608   6.738   9.603  0.5007 -0.3282 -0.0928
  221MOL0     C29711  11.714   6.784   9.712 -0.4299  0.1855 -0.1088
  221MOL0     C29712  11.674   6.781   9.855 -0.2236 -0.2009  0.3399
  221MOL0     C29713  11.787   6.804   9.958  1.1137 -0.0245  0.6665
  221MOL0     C29714  11.863   6.940   9.948 -0.1051  0.7917 -0.1721
  221MOL0     C29715  11.965   6.962  10.061 -0.3852 -0.4232 -0.3531
  221MOL0     C29716  12.082   6.864  10.019 -0.2449  0.4542 -0.8608
  221MOL0     N29717  12.197   6.888  10.106 -0.4076  0.0308 -0.0725
  221MOL0     C29718  12.279   7.009  10.122  0.6030  0.1486  0.7945
  221MOL0     C29719  12.393   6.962  10.185 -0.2946  0.5331 -0.0243
  221MOL0     C29720  12.517   7.035  10.222  0.2672 -0.4784 -0.4628
  221MOL0     C29721  12.634   7.024  10.117  1.0365  0.0224 -0.1018
  221MOL0     C29722  12.569   7.080   9.994  0.2265  0.5338  0.6230
  221MOL0     C29723  12.665   7.113   9.873  0.8232 -0.9124  0.1548
  221MOL0     O29724  12.612   7.206   9.772 -0.1479  0.1457 -0.3796
  221MOL0     C29725  12.689   7.312   9.744  1.4821 -0.3261 -0.2308
  221MOL0     C29726  12.651   7.436   9.806 -0.7776  0.8777  0.0390
  221MOL0     C29727  12.739   7.548   9.801 -0.6008  0.2508 -0.4668
  221MOL0     C29728  12.850   7.539   9.708  0.4843  0.2438 -0.7720
  221MOL0     C29729  12.925   7.666   9.680  0.2362 -0.7147 -0.5712
  221MOL0     O29730  13.028   7.659   9.592  0.0399 -0.3572 -0.1314
  221MOL0     C29731  13.120   7.766   9.584  0.1750  0.1296  0.5299
  221MOL0     C29732  13.096   7.904   9.579  0.2850 -0.5326 -0.0790
  221MOL0     C29733  13.202   7.998   9.585 -0.0602 -0.0797  0.5476
  221MOL0     C29734  13.333   7.954   9.571  0.2624 -0.6215 -0.4934
  221MOL0     O29735  13.439   8.044   9.550 -0.6344  0.2522 -0.3346
  221MOL0     C29736  13.419   8.173   9.611  0.2770 -0.7112 -0.4731
  221MOL0     C29737  13.549   8.216   9.683  0.0117  1.0215 -0.0035
  221MOL0     C29738  13.510   8.343   9.764 -0.3105 -0.1153  0.4321
  221MOL0     C29739  13.632   8.408   9.832 -0.1715 -0.2018 -0.5483
  221MOL0     C29740  13.614   8.530   9.924  0.3492  0.2191 -0.4511
  221MOL0     C29741  13.556   8.650   9.859  0.3969 -0.5469  0.1761
  221MOL0     C29742  13.490   8.754   9.953  0.6322 -0.6589 -0.4954
  221MOL0     C29743  13.597   8.847  10.013  0.0556  1.0916  0.1087
  221MOL0    Cl29744  13.730   8.782  10.106 -0.1642  0.1940  0.2003
  221MOL0     C29745  13.357   7.819   9.558 -0.0328  1.1556  0.3351
  221MOL0     C29746  13.255   7.727   9.569  0.7238  0.2704  0.7771
  221MOL0     O29747  12.890   7.765   9.742 -0.3319 -0.4472  0.7301
  221MOL0     C29748  12.878   7.418   9.641  0.8920 -0.6875  0.5933
  221MOL0     C29749  12.799   7.310   9.659  0.2580  0.0478  0.0538
  221MOL0     N29750  12.377   6.825  10.200  0.5264 -0.2425  1.0817
  221MOL0     N29751  12.260   6.782  10.157 -0.3906  0.9665  0.0417
  221MOL0     C29752  11.401   7.055   9.431 -0.1244  0.4748 -0.6394
  221MOL0     C29753  11.347   7.183   9.446 -0.3594  0.1822 -0.0284
  221MOL0     C29754  11.145   7.521   9.673  1.0705 -0.3758  0.0325
  221MOL0     C29755  11.113   7.591   9.556  0.2503 -0.5154 -0.2106
  221MOL0     C29756  11.074   7.728   9.566 -0.2993  0.8364  0.2351
  221MOL0     C29757  11.062   7.794   9.682 -0.1599 -0.4345  1.2173
  221MOL0     O29758  11.022   7.927   9.691  0.2492  0.3688  0.6165
  221MOL0     C29759  10.982   8.000   9.576 -0.2208 -0.3108  0.3065
  221MOL0     C29760  10.963   8.149   9.595  0.8072  0.0138  0.4235
  221MOL0     C29761  10.966   8.249   9.474 -0.0072  0.5541  0.2499
  221MOL0     C29762  10.877   8.370   9.512  0.4921 -0.6156  1.2458
  221MOL0     C29763  10.896   8.482   9.415  0.5704  0.0513  0.6089
  221MOL0     C29764  10.910   8.567   9.327  0.3558 -0.0222  0.2101
  221MOL0     C29765  11.103   7.724   9.798  0.2749 -0.1245 -0.4467
  221MOL0     C29766  11.132   7.587   9.789  0.2066  0.5526  0.3445
  221MOL0     C29767  11.144   7.519   9.923  0.7056  0.1927 -1.2328
  221MOL0     H29768  11.064   7.080   9.620 -1.4764 -0.2984 -0.7641
  221MOL0     H29769  11.191   6.855   9.576 -0.0584 -0.8280 -3.3400
  221MOL0     H29770  11.465   6.872   9.681 -0.3452  0.5176 -0.1787
  221MOL0     H29771  11.391   6.722   9.652 -2.0503  1.4923 -2.1116
  221MOL0     H29772  11.649   6.767   9.506 -0.0417  2.0758  0.3252
  221MOL0     H29773  11.598   6.629   9.606 -1.7573 -0.2524 -1.9274
  221MOL0     H29774  11.740   6.885   9.678 -0.2116  0.3547  0.5511
  221MOL0     H29775  11.800   6.719   9.691 -0.8594  0.2058 -2.1659
  221MOL0     H29776  11.598   6.856   9.878  1.2659  1.1712  0.9356
  221MOL0     H29777  11.626   6.682   9.862 -0.2706 -0.2769 -0.9338
  221MOL0     H29778  11.747   6.798  10.059  0.9981 -1.1060  0.5681
  221MOL0     H29779  11.850   6.714   9.949 -0.3955 -1.2027  1.4149
  221MOL0     H29780  11.902   6.957   9.847 -1.5360 -0.5544 -0.9926
  221MOL0     H29781  11.788   7.020   9.951 -0.1990  0.7103 -0.3176
  221MOL0     H29782  11.932   6.954  10.165 -0.0206 -1.1621 -0.2846
  221MOL0     H29783  12.008   7.062  10.052  2.2523 -1.4314 -0.0349
  221MOL0     H29784  12.054   6.761  10.040  1.4378 -1.0967 -5.1607
  221MOL0     H29785  12.109   6.858   9.913 -0.2873 -1.9675 -0.7680
  221MOL0     H29786  12.249   7.108  10.090 -0.1918 -0.0054  1.0569
  221MOL0     H29787  12.481   7.134  10.250 -2.3874 -0.6995 -2.7232
  221MOL0     H29788  12.545   6.983  10.314 -2.8267  1.0322  1.4916
  221MOL0     H29789  12.716   7.089  10.148  0.7485  0.5226 -0.3680
  221MOL0     H29790  12.674   6.923  10.101  0.9257 -0.0520  0.0936
  221MOL0     H29791  12.508   7.170  10.010 -3.4081 -0.2505 -5.4953
  221MOL0     H29792  12.491   7.015   9.953  1.9131  0.5518 -3.0494
  221MOL0     H29793  12.680   7.019   9.819 -2.2691 -1.8857  0.8034
  221MOL0     H29794  12.754   7.163   9.914 -0.7862  2.3338 -0.0318
  221MOL0     H29795  12.573   7.444   9.880  1.3798  4.4742  2.2071
  221MOL0     H29796  12.715   7.631   9.866 -0.2739 -0.1648  0.2015
  221MOL0     H29797  12.994   7.939   9.588  0.4659 -0.3185  1.4621
  221MOL0     H29798  13.162   8.098   9.579 -1.4638 -0.6723 -0.7462
  221MOL0     H29799  13.387   8.255   9.545 -0.2048  0.1591  0.7881
  221MOL0     H29800  13.335   8.175   9.681  1.0892 -0.3590  0.5215
  221MOL0     H29801  13.576   8.134   9.750 -0.9862 -1.4381 -2.3862
  221MOL0     H29802  13.637   8.227   9.619  2.7924 -2.1027  2.9113
  221MOL0     H29803  13.470   8.414   9.691  2.1559  1.0217  0.0908
  221MOL0     H29804  13.432   8.336   9.841  2.7495 -0.1384  3.7839
  221MOL0     H29805  13.693   8.434   9.745 -0.9582 -1.5787 -1.5495
  221MOL0     H29806  13.688   8.332   9.885  2.0153  0.2567 -2.0716
  221MOL0     H29807  13.711   8.550   9.970  0.4708  0.7065 -0.9216
  221MOL0     H29808  13.545   8.505  10.005 -1.4223 -0.0260 -1.9703
  221MOL0     H29809  13.631   8.704   9.800 -2.7359  3.6261 -0.4630
  221MOL0     H29810  13.485   8.609   9.786  1.0511 -2.9913  0.8123
  221MOL0     H29811  13.436   8.705  10.035 -2.4831  1.1331 -1.2973
  221MOL0     H29812  13.429   8.816   9.887  2.4174  0.3250 -1.2652
  221MOL0     H29813  13.646   8.893   9.927  2.6990 -1.6610 -0.0315
  221MOL0     H29814  13.546   8.915  10.083  0.1202 -0.8022  2.1296
  221MOL0     H29815  13.457   7.782   9.535 -0.2085  1.4022 -0.8930
  221MOL0     H29816  13.282   7.623   9.550  0.0198  0.1685  0.3267
  221MOL0     H29817  12.958   7.411   9.567  0.3470  6.4492 -1.4376
  221MOL0     H29818  12.813   7.216   9.606  2.0258  0.3117 -0.0050
  221MOL0     H29819  11.482   7.048   9.359 -0.7494 -2.2826 -1.1830
  221MOL0     H29820  11.409   7.268   9.419 -0.8591  0.4248 -0.4251
  221MOL0     H29821  11.110   7.534   9.464  0.6082  0.9998 -1.1884
  221MOL0     H29822  11.043   7.767   9.470 -2.7341  0.3173  0.7390
  221MOL0     H29823  10.894   7.950   9.534 -1.6203  3.3244 -1.5950
  221MOL0     H29824  11.071   7.994   9.512 -1.5253 -0.4036 -1.5801
  221MOL0     H29825  11.045   8.176   9.663 -0.9236 -0.8472  2.9861
  221MOL0     H29826  10.865   8.150   9.644  0.8392 -4.8453  1.0972
  221MOL0     H29827  10.937   8.205   9.378 -0.9217 -0.6513  1.0519
  221MOL0     H29828  11.068   8.282   9.454 -0.1810  0.2707 -1.2395
  221MOL0     H29829  10.775   8.333   9.499  0.9251 -1.1485 -0.9940
  221MOL0     H29830  10.888   8.403   9.616  1.1053 -0.4831  1.1376
  221MOL0     H29831  10.931   8.640   9.251  1.2079 -1.5029 -1.0373
  221MOL0     H29832  11.104   7.767   9.898 -1.7573 -0.5474 -0.2068
  221MOL0     H29833  11.249   7.519   9.954 -0.2998  1.9944  2.7372
  221MOL0     H29834  11.086   7.580   9.992  1.6773  0.1645 -0.3684
  221MOL0     H29835  11.110   7.416   9.933  2.3112 -0.0944  3.4819
  222MOL0     O29836   6.018   7.594   4.006  0.0865  0.0237  0.9283
  222MOL0     C29837   6.054   7.477   3.974  0.2156 -0.6409 -0.7910
  222MOL0     O29838   6.173   7.426   4.019  0.3026  0.2735 -0.0204
  222MOL0     C29839   6.270   7.515   4.079  0.7526 -0.5403  0.3354
  222MOL0     C29840   6.394   7.482   4.040 -0.8579 -0.1616 -0.2687
  222MOL0     C29841   6.504   7.561   4.087 -0.0488 -0.1041 -0.7872
  222MOL0     C29842   6.493   7.649   4.198 -0.2267  0.3465  0.1265
  222MOL0     O29843   6.611   7.702   4.241 -0.4707 -0.4854 -0.2044
  222MOL0     C29844   6.614   7.793   4.357 -0.2950 -0.7077 -0.5339
  222MOL0     C29845   6.764   7.837   4.379  0.5763 -0.1140 -0.1187
  222MOL0     C29846   6.852   7.743   4.458 -0.7701  0.0585 -0.1470
  222MOL0     C29847   6.969   7.817   4.531  0.3020 -0.1579 -0.1606
  222MOL0     C29848   7.112   7.741   4.512  1.1574  0.9168  0.3991
  222MOL0     C29849   7.210   7.806   4.609  0.4628 -0.0568  0.4646
  222MOL0     C29850   7.345   7.734   4.613  0.7203 -0.3538  0.4919
  222MOL0     C29851   7.337   7.627   4.724 -0.1099  0.8312 -0.6743
  222MOL0     N29852   7.380   7.679   4.855 -0.0706  0.3170 -0.3712
  222MOL0     C29853   7.509   7.684   4.898 -0.1753 -0.0642 -0.4374
  222MOL0     C29854   7.504   7.756   5.019  0.1995  0.2701  0.2464
  222MOL0     C29855   7.619   7.814   5.102  0.1957  0.2538 -0.0419
  222MOL0     C29856   7.740   7.717   5.120  0.0971 -0.4092  0.7857
  222MOL0     C29857   7.699   7.576   5.161  0.5179  0.5480 -0.1922
  222MOL0     C29858   7.824   7.482   5.167 -0.3703 -0.4941 -0.4570
  222MOL0     O29859   7.810   7.415   5.296  0.3154  0.2417 -0.1446
  222MOL0     C29860   7.913   7.350   5.360 -0.2444  0.2908 -0.5168
  222MOL0     C29861   7.884   7.304   5.485 -1.7099  0.2772  0.7800
  222MOL0     C29862   7.978   7.238   5.566 -0.8236  1.6907 -0.7655
  222MOL0     C29863   8.114   7.205   5.518  0.0070 -0.5356  0.7598
  222MOL0     C29864   8.205   7.122   5.594 -0.5441  0.9400 -0.1710
  222MOL0     O29865   8.155   7.081   5.715  0.1689  0.4217 -0.1221
  222MOL0     C29866   8.235   7.062   5.827  0.7119  0.3714  0.7841
  222MOL0     C29867   8.351   7.121   5.874  0.5066  0.0383 -0.2028
  222MOL0     C29868   8.425   7.069   5.993  0.6734  0.3571 -0.5599
  222MOL0     C29869   8.379   6.960   6.043  0.1916  0.6511  0.2122
  222MOL0     O29870   8.445   6.906   6.151  0.2636  0.1012  0.1479
  222MOL0     C29871   8.373   6.854   6.266 -0.2978  1.1527 -0.0368
  222MOL0     C29872   8.427   6.910   6.396 -0.1059 -0.3657 -0.9737
  222MOL0     C29873   8.411   7.054   6.405  0.8428  0.1921  0.2362
  222MOL0     C29874   8.450   7.114   6.541  0.4199  0.7574 -0.2659
  222MOL0     C29875   8.429   7.271   6.530  1.3623  0.8071 -0.1835
  222MOL0     C29876   8.489   7.340   6.654 -0.4668  0.7382  0.8893
  222MOL0     C29877   8.511   7.490   6.634  0.7890 -0.4206  0.5666
  222MOL0     C29878   8.528   7.563   6.760 -0.0000  0.2667  0.1446
  222MOL0    Cl29879   8.369   7.571   6.841  0.1851  0.1405 -0.2126
  222MOL0     C29880   8.253   6.909   6.015 -0.1315 -0.4247  0.7625
  222MOL0     C29881   8.175   6.962   5.903 -0.1688  0.2025  0.1838
  222MOL0     O29882   8.316   7.109   5.553  0.0608  0.2187  1.3911
  222MOL0     C29883   8.144   7.246   5.384 -0.2482 -0.0660 -0.3666
  222MOL0     C29884   8.045   7.317   5.309  0.3290 -0.0937 -0.5440
  222MOL0     N29885   7.371   7.771   5.049 -0.0191  0.8605 -0.3264
  222MOL0     N29886   7.309   7.735   4.956  0.7802 -0.1881 -0.2028
  222MOL0     C29887   6.367   7.670   4.245  0.6180 -0.7727  0.4675
  222MOL0     C29888   6.258   7.602   4.192 -0.4445 -1.3651 -0.0865
  222MOL0     C29889   5.968   7.383   3.888 -0.0335 -1.0905  0.2683
  222MOL0     C29890   6.009   7.253   3.879  0.1063 -1.0649 -0.3397
  222MOL0     C29891   5.934   7.163   3.806 -0.6220  0.5646  0.2243
  222MOL0     C29892   5.829   7.199   3.725 -0.1714  0.2715  0.8816
  222MOL0     O29893   5.753   7.114   3.653  0.2309  1.0275 -0.0119
  222MOL0     C29894   5.817   7.007   3.584  0.0769 -0.6940  0.9450
  222MOL0     C29895   5.741   6.949   3.465 -0.1820 -0.0660  0.5586
  222MOL0     C29896   5.770   7.034   3.342 -0.1306 -0.4814  0.4266
  222MOL0     C29897   5.693   6.991   3.204  0.0803  0.6699  0.0855
  222MOL0     C29898   5.564   7.055   3.184  0.1819  0.0833 -0.1542
  222MOL0     C29899   5.468   7.133   3.189  0.3056 -0.4892  0.6621
  222MOL0     C29900   5.786   7.332   3.733 -0.7622  0.5915 -0.0356
  222MOL0     C29901   5.859   7.428   3.807  0.4619  0.0229 -0.2597
  222MOL0     C29902   5.807   7.573   3.815 -0.7259 -0.1639 -1.0495
  222MOL0     H29903   6.416   7.417   3.956  0.3959 -0.5905  0.3571
  222MOL0     H29904   6.604   7.561   4.044 -0.6190  4.9656 -2.7401
  222MOL0     H29905   6.559   7.884   4.330  3.4625  1.7199 -0.6772
  222MOL0     H29906   6.583   7.744   4.450 -3.1666  1.6177 -0.0840
  222MOL0     H29907   6.761   7.929   4.439  0.1647  0.3289 -0.8047
  222MOL0     H29908   6.810   7.865   4.284 -1.5548 -1.9916 -1.7929
  222MOL0     H29909   6.883   7.656   4.399 -1.0565  0.3628 -0.7462
  222MOL0     H29910   6.800   7.690   4.539 -0.9138  0.8339  0.2729
  222MOL0     H29911   6.976   7.923   4.505 -5.2296  0.1604 -1.4580
  222MOL0     H29912   6.949   7.807   4.638  2.0090  0.6954  0.2764
  222MOL0     H29913   7.096   7.634   4.528  3.1444  0.6928  1.1072
  222MOL0     H29914   7.143   7.752   4.407 -1.4567 -2.3975 -0.8734
  222MOL0     H29915   7.234   7.907   4.574 -2.8850  1.4589  2.0673
  222MOL0     H29916   7.169   7.798   4.711 -0.3282 -3.8577 -0.0003
  222MOL0     H29917   7.426   7.801   4.642 -1.7505  1.5806  3.6099
  222MOL0     H29918   7.357   7.695   4.512  0.4323  1.0555 -0.1037
  222MOL0     H29919   7.235   7.587   4.721 -1.3435  3.7169 -0.0026
  222MOL0     H29920   7.403   7.541   4.709 -1.2492 -0.5462  1.5833
  222MOL0     H29921   7.596   7.644   4.846  0.8337 -2.6974  2.8588
  222MOL0     H29922   7.664   7.900   5.051 -0.3807 -0.4932 -1.8933
  222MOL0     H29923   7.574   7.825   5.201 -0.5366 -2.1571 -0.0472
  222MOL0     H29924   7.786   7.718   5.021  1.3676 -1.8036  1.3225
  222MOL0     H29925   7.814   7.741   5.198  2.8197  0.6956 -1.9343
  222MOL0     H29926   7.631   7.547   5.081 -0.5821  0.5413  0.7265
  222MOL0     H29927   7.645   7.584   5.256 -1.4097  2.8317 -1.3847
  222MOL0     H29928   7.917   7.539   5.173  0.4386 -1.8908  1.2407
  222MOL0     H29929   7.824   7.425   5.074 -1.2105 -0.6356 -0.3809
  222MOL0     H29930   7.787   7.338   5.520 -1.9727  0.0188  0.3124
  222MOL0     H29931   7.931   7.191   5.651 -2.9386 -1.1097 -3.2700
  222MOL0     H29932   8.392   7.200   5.812 -0.2633 -0.3141 -1.1822
  222MOL0     H29933   8.514   7.119   6.031  0.7578 -0.7922  0.8337
  222MOL0     H29934   8.267   6.878   6.254 -0.8046 -0.2445  1.3071
  222MOL0     H29935   8.386   6.746   6.266 -0.9435  1.0526 -1.5654
  222MOL0     H29936   8.382   6.852   6.478  0.9642 -1.2944 -1.0315
  222MOL0     H29937   8.532   6.880   6.399 -0.3684 -1.2731  0.8242
  222MOL0     H29938   8.480   7.090   6.328  0.4688  1.2207  0.3636
  222MOL0     H29939   8.308   7.075   6.373 -0.1829 -1.4782  2.1859
  222MOL0     H29940   8.551   7.083   6.567 -0.7093 -3.8392 -0.4007
  222MOL0     H29941   8.381   7.080   6.618 -2.6198  3.3910 -1.5836
  222MOL0     H29942   8.321   7.288   6.516  0.0810 -3.4756  2.5611
  222MOL0     H29943   8.485   7.313   6.446  0.2214 -0.8895 -1.8649
  222MOL0     H29944   8.428   7.307   6.739 -0.6012 -0.5239  0.3295
  222MOL0     H29945   8.583   7.285   6.660 -2.4716 -2.9219  1.6652
  222MOL0     H29946   8.438   7.546   6.574  4.4299  0.7178 -3.2611
  222MOL0     H29947   8.604   7.503   6.578 -0.7951  0.4860 -2.0644
  222MOL0     H29948   8.599   7.510   6.825  0.2178 -1.6981 -1.5819
  222MOL0     H29949   8.570   7.661   6.737  2.6478 -0.9930 -0.7927
  222MOL0     H29950   8.225   6.817   6.066 -0.6313 -0.7004  0.0122
  222MOL0     H29951   8.088   6.910   5.866  0.0948 -0.7267  0.8365
  222MOL0     H29952   8.238   7.231   5.332  0.3045  1.6931  0.0475
  222MOL0     H29953   8.076   7.339   5.207  1.5702  0.9567  0.0273
  222MOL0     H29954   6.356   7.724   4.339  0.8985 -0.7937  0.5150
  222MOL0     H29955   6.160   7.601   4.239 -1.2614  2.1148 -1.4073
  222MOL0     H29956   6.095   7.214   3.933  0.0125 -3.4705 -1.7871
  222MOL0     H29957   5.984   7.067   3.802 -0.2827  0.7770 -2.2946
  222MOL0     H29958   5.820   6.925   3.656 -1.7818  0.5999  2.5832
  222MOL0     H29959   5.921   7.029   3.557 -0.2210 -2.0778 -1.7002
  222MOL0     H29960   5.632   6.954   3.472 -0.4860 -2.3645 -1.4727
  222MOL0     H29961   5.771   6.851   3.427 -0.6385  0.6609 -1.7974
  222MOL0     H29962   5.871   7.028   3.301 -0.0179  0.0079  0.6286
  222MOL0     H29963   5.735   7.132   3.376 -2.0710 -0.1678 -2.1743
  222MOL0     H29964   5.760   7.026   3.125 -0.4274  0.6027 -0.3779
  222MOL0     H29965   5.686   6.882   3.195  2.4565  0.3764  0.9501
  222MOL0     H29966   5.384   7.200   3.190  1.9003  1.6123  1.7965
  222MOL0     H29967   5.704   7.358   3.666 -3.8789 -3.6366  1.6597
  222MOL0     H29968   5.794   7.609   3.917  2.9341  1.2141 -0.9475
  222MOL0     H29969   5.876   7.639   3.762  0.4194  1.1643  1.9336
  222MOL0     H29970   5.706   7.567   3.773 -1.1537 -1.0078  0.0338
  223MOL0     O29971   7.699   4.874  10.261  0.6213 -0.2504  0.2208
  223MOL0     C29972   7.640   4.910  10.356  1.4257 -0.3967 -0.2750
  223MOL0     O29973   7.696   4.982  10.456  0.5100 -0.3105 -0.4378
  223MOL0     C29974   7.823   5.020  10.465 -0.7684 -0.0996 -0.4008
  223MOL0     C29975   7.894   5.024  10.585  0.6364  0.5393  0.1299
  223MOL0     C29976   8.011   5.090  10.587  0.4970  0.7883 -0.4037
  223MOL0     C29977   8.076   5.146  10.475  0.7733  0.1094  1.0045
  223MOL0     O29978   8.195   5.218  10.488 -0.2587  0.2193 -0.4231
  223MOL0     C29979   8.248   5.244  10.617 -0.4858 -0.3676  0.0698
  223MOL0     C29980   8.355   5.356  10.591  0.6545 -0.5280  0.5639
  223MOL0     C29981   8.407   5.405  10.724 -0.0237 -0.4246 -0.3673
  223MOL0     C29982   8.497   5.307  10.795  0.3977  0.9333  0.2352
  223MOL0     C29983   8.564   5.375  10.918 -0.6627 -0.5500 -0.0641
  223MOL0     C29984   8.706   5.326  10.919  0.1233  0.0249  0.0285
  223MOL0     C29985   8.784   5.351  11.052  1.7308  0.3872 -0.5165
  223MOL0     C29986   8.787   5.228  11.141 -1.6282 -0.4685  0.6145
  223MOL0     N29987   8.911   5.240  11.222  1.0753  0.3595  0.6103
  223MOL0     C29988   9.038   5.212  11.193  0.0786 -0.4217 -0.2901
  223MOL0     C29989   9.118   5.256  11.298  0.3281 -0.1535 -1.1035
  223MOL0     C29990   9.264   5.221  11.319  0.5493 -0.5362 -0.2595
  223MOL0     C29991   9.337   5.329  11.404 -0.6944  0.0714  0.6326
  223MOL0     C29992   9.452   5.283  11.491  0.1473 -0.5934 -0.4591
  223MOL0     C29993   9.571   5.223  11.425  0.3468  0.3815 -0.0673
  223MOL0     O29994   9.675   5.171  11.515  0.2876  0.7417  1.2649
  223MOL0     C29995   9.774   5.250  11.568  0.7226  0.1738  0.8072
  223MOL0     C29996   9.791   5.388  11.539  0.8520 -0.4514 -0.3447
  223MOL0     C29997   9.883   5.470  11.603 -0.8957 -0.9730 -0.2718
  223MOL0     C29998   9.964   5.418  11.704 -0.1887 -0.3700  0.2523
  223MOL0     C29999  10.066   5.494  11.766  0.4844 -1.0405 -0.6338
  223MOL0     O30000  10.133   5.439  11.863 -0.6308 -0.4642 -0.2735
  223MOL0     C30001  10.234   5.505  11.931 -0.1351 -0.5038 -0.3140
  223MOL0     C30002  10.355   5.440  11.952 -1.0034  0.4096 -0.5013
  223MOL0     C30003  10.461   5.496  12.018  0.2738 -0.0352  0.1576
  223MOL0     C30004  10.449   5.626  12.065 -0.4328  0.3555  0.8107
  223MOL0     O30005  10.538   5.716  12.123  0.2583  0.6743  0.0658
  223MOL0     C30006  10.658   5.749  12.067  0.3676  0.4818 -0.0860
  223MOL0     C30007  10.762   5.797  12.173  0.2584  0.1864 -0.0132
  223MOL0     C30008  10.798   5.702  12.289 -0.3597 -0.3000 -0.6056
  223MOL0     C30009  10.938   5.733  12.346  0.1718  0.1296 -0.6790
  223MOL0     C30010  10.997   5.602  12.416  0.0203 -0.8214 -0.0158
  223MOL0     C30011  11.139   5.624  12.476 -0.0689  0.3844  0.6883
  223MOL0     C30012  11.199   5.500  12.542 -0.1560 -0.3394  0.2333
  223MOL0     C30013  11.288   5.550  12.663 -0.5655  0.5319 -0.5782
  223MOL0    Cl30014  11.189   5.628  12.798  0.1990 -0.4503  0.3870
  223MOL0     C30015  10.323   5.695  12.047 -0.2251  0.8613 -0.8068
  223MOL0     C30016  10.217   5.627  11.996  0.2819  0.1719 -0.2956
  223MOL0     O30017  10.081   5.610  11.730 -0.3086  0.0051  0.6941
  223MOL0     C30018   9.946   5.281  11.737 -0.0292 -1.4090 -0.8299
  223MOL0     C30019   9.850   5.206  11.671  0.7122  0.0613 -0.6877
  223MOL0     N30020   9.036   5.326  11.383 -0.1491 -0.1155  0.2792
  223MOL0     N30021   8.914   5.315  11.334 -0.3621 -0.0012  0.8463
  223MOL0     C30022   8.003   5.151  10.356  0.5395 -0.5245 -0.7219
  223MOL0     C30023   7.883   5.080  10.342  0.4595 -0.2147 -0.5386
  223MOL0     C30024   7.505   4.862  10.379  0.3663 -0.4888 -0.3645
  223MOL0     C30025   7.441   4.882  10.499  0.0278  0.1008 -0.2062
  223MOL0     C30026   7.309   4.833  10.532 -0.4048  0.0688 -0.5345
  223MOL0     C30027   7.245   4.749  10.445  0.1712 -0.2348  0.7279
  223MOL0     O30028   7.125   4.695  10.488 -0.1707 -0.5451  0.1018
  223MOL0     C30029   7.043   4.609  10.402  0.2078  0.0995  0.1306
  223MOL0     C30030   7.102   4.470  10.402 -1.2420  0.1714  0.0294
  223MOL0     C30031   6.993   4.361  10.408  0.5128 -0.2804 -0.4255
  223MOL0     C30032   7.025   4.235  10.324 -0.5128  0.2039 -1.5492
  223MOL0     C30033   7.167   4.192  10.362  0.4504  0.6583  0.0867
  223MOL0     C30034   7.278   4.147  10.372  0.0369  0.4376  0.2642
  223MOL0     C30035   7.309   4.724  10.321 -1.0561 -0.2398 -0.7851
  223MOL0     C30036   7.433   4.770  10.289 -0.9397  0.4373 -1.5436
  223MOL0     C30037   7.476   4.730  10.157  0.0766  0.3998 -0.2174
  223MOL0     H30038   7.850   4.978  10.673  0.8082 -0.0668 -0.0934
  223MOL0     H30039   8.056   5.086  10.685  4.1865 -0.5997 -2.0017
  223MOL0     H30040   8.181   5.287  10.693 -3.7490 -3.8036 -0.5775
  223MOL0     H30041   8.293   5.154  10.660  4.7375  0.1467 -3.4622
  223MOL0     H30042   8.301   5.441  10.548 -0.7277 -0.7701  1.7483
  223MOL0     H30043   8.444   5.334  10.531  1.4921  0.4154  1.4186
  223MOL0     H30044   8.332   5.438  10.797  0.5873  1.3646 -0.4941
  223MOL0     H30045   8.452   5.503  10.705  2.6283 -0.6668  3.4075
  223MOL0     H30046   8.437   5.222  10.829  0.7371  0.2205 -0.8810
  223MOL0     H30047   8.560   5.264  10.716  0.2893 -0.6324  0.9627
  223MOL0     H30048   8.549   5.482  10.906 -1.6735 -0.9041 -2.4287
  223MOL0     H30049   8.508   5.344  11.007 -0.6999  2.4606  1.0748
  223MOL0     H30050   8.712   5.222  10.884 -1.3579 -0.2813  0.6263
  223MOL0     H30051   8.750   5.388  10.840 -4.0132  2.6786 -0.4533
  223MOL0     H30052   8.734   5.431  11.105 -2.4835 -2.5724  0.4560
  223MOL0     H30053   8.882   5.390  11.023  2.4687 -2.0601 -1.6725
  223MOL0     H30054   8.697   5.216  11.202 -0.4747  0.1477  2.5268
  223MOL0     H30055   8.789   5.141  11.075  1.9350  0.8170 -1.2683
  223MOL0     H30056   9.064   5.144  11.113  0.5232 -0.7531  0.1354
  223MOL0     H30057   9.277   5.128  11.375  0.9230  1.2094  2.7972
  223MOL0     H30058   9.317   5.217  11.224 -1.0187 -0.4902 -1.1644
  223MOL0     H30059   9.384   5.390  11.326 -0.0395 -2.3727 -1.0161
  223MOL0     H30060   9.267   5.397  11.453 -3.2641 -2.2185  0.4436
  223MOL0     H30061   9.416   5.200  11.553 -0.1166  1.0210  1.6616
  223MOL0     H30062   9.499   5.355  11.559  1.7177 -0.2903 -1.8102
  223MOL0     H30063   9.604   5.302  11.357  0.5524  0.4412  0.1033
  223MOL0     H30064   9.546   5.149  11.348  0.7209  2.0108 -1.8390
  223MOL0     H30065   9.724   5.439  11.470 -0.3068 -2.1959 -0.5786
  223MOL0     H30066   9.908   5.571  11.572 -0.7698 -0.2142  2.0953
  223MOL0     H30067  10.369   5.345  11.901 -1.6956  0.6070 -1.0844
  223MOL0     H30068  10.554   5.440  12.023  0.5122 -0.0225 -2.5932
  223MOL0     H30069  10.689   5.662  12.009 -0.6812  0.3706 -0.4946
  223MOL0     H30070  10.641   5.832  11.998  1.9801  0.0756 -1.0290
  223MOL0     H30071  10.851   5.815  12.112  0.1929  1.9795  0.3543
  223MOL0     H30072  10.730   5.898  12.201 -4.5725 -0.0050 -3.5436
  223MOL0     H30073  10.715   5.694  12.360 -2.8479  1.4241 -3.1552
  223MOL0     H30074  10.810   5.599  12.253  1.8797 -1.3299  2.5902
  223MOL0     H30075  10.935   5.823  12.409 -1.4543  1.9195 -3.1424
  223MOL0     H30076  11.007   5.760  12.265  0.9221 -0.2620 -0.1876
  223MOL0     H30077  11.003   5.519  12.345  0.1585 -0.1902 -0.7474
  223MOL0     H30078  10.925   5.576  12.495 -0.9188 -0.6137 -0.7822
  223MOL0     H30079  11.202   5.664  12.396  2.6919  1.5923  3.2800
  223MOL0     H30080  11.119   5.692  12.560 -0.2496  0.9544  0.1963
  223MOL0     H30081  11.258   5.460  12.459 -2.3328 -0.3099 -1.4104
  223MOL0     H30082  11.117   5.433  12.566 -0.1276 -0.6904 -0.6346
  223MOL0     H30083  11.352   5.469  12.701  0.9579  1.8258 -0.2905
  223MOL0     H30084  11.356   5.625  12.621 -1.4992  0.9165 -1.4442
  223MOL0     H30085  10.301   5.788  12.100 -0.2895  1.5221 -1.9564
  223MOL0     H30086  10.135   5.698  12.004 -0.3881 -0.8071  3.4511
  223MOL0     H30087  10.008   5.237  11.814  1.4253 -3.5584 -3.0800
  223MOL0     H30088   9.825   5.110  11.715  1.6657 -1.4704 -3.2936
  223MOL0     H30089   8.039   5.215  10.276  1.6379 -2.5053 -1.8919
  223MOL0     H30090   7.828   5.084  10.249  2.1078 -0.3933 -1.5474
  223MOL0     H30091   7.481   4.951  10.572 -2.0391  2.5055 -1.2193
  223MOL0     H30092   7.249   4.826  10.623 -2.6771 -2.0813 -2.0556
  223MOL0     H30093   7.015   4.656  10.307 -2.2490 -0.2591  0.6266
  223MOL0     H30094   6.947   4.595  10.451 -0.7664 -1.6259 -2.0630
  223MOL0     H30095   7.163   4.466  10.493  1.1647 -0.4607 -1.4979
  223MOL0     H30096   7.146   4.462  10.302 -4.1153  0.5208 -1.3603
  223MOL0     H30097   6.897   4.395  10.368  1.0213 -1.6577 -3.0009
  223MOL0     H30098   6.979   4.340  10.515 -0.2017  0.9530 -0.2596
  223MOL0     H30099   6.950   4.157  10.333 -0.4612  0.3927  4.8620
  223MOL0     H30100   7.032   4.275  10.222 -1.0009  0.2814 -1.5514
  223MOL0     H30101   7.382   4.120  10.379 -0.3704 -1.2856 -0.0520
  223MOL0     H30102   7.240   4.670  10.258 -2.7348  1.1218 -0.1804
  223MOL0     H30103   7.400   4.670  10.106  0.4959 -1.8075  1.6142
  223MOL0     H30104   7.492   4.821  10.098 -2.0478 -0.4280 -2.2466
  223MOL0     H30105   7.568   4.673  10.170 -0.6577 -1.3698 -2.1537
  224MOL0     O30106   8.865   6.738   1.720  0.1396  0.2653  0.0690
  224MOL0     C30107   8.835   6.721   1.836 -0.2381  0.1690  0.5287
  224MOL0     O30108   8.712   6.729   1.889 -0.7800 -0.4055 -0.3624
  224MOL0     C30109   8.611   6.739   1.800 -0.4176 -0.1050  1.1636
  224MOL0     C30110   8.563   6.858   1.761 -0.3772 -0.4591  0.5892
  224MOL0     C30111   8.446   6.881   1.688 -0.3472  1.0331 -0.3218
  224MOL0     C30112   8.373   6.761   1.646 -0.5422 -0.5204 -0.3846
  224MOL0     O30113   8.262   6.782   1.569  0.3898 -0.2207  0.0640
  224MOL0     C30114   8.285   6.735   1.431 -0.2331 -0.1738 -0.5286
  224MOL0     C30115   8.200   6.802   1.332 -0.7277 -0.2807 -0.2252
  224MOL0     C30116   8.057   6.760   1.339  0.6006  0.2334  0.4346
  224MOL0     C30117   8.031   6.613   1.330  0.1089  0.1221  0.4917
  224MOL0     C30118   7.880   6.588   1.310  0.5449  0.4450  0.3409
  224MOL0     C30119   7.796   6.614   1.433 -0.5081 -0.6393 -0.1783
  224MOL0     C30120   7.653   6.587   1.401 -0.2263 -0.6333 -0.4245
  224MOL0     C30121   7.559   6.629   1.515 -0.1563 -0.3802  0.6573
  224MOL0     N30122   7.423   6.591   1.485  0.3773 -0.6815  0.3415
  224MOL0     C30123   7.368   6.476   1.509  1.1083  0.1687 -0.2040
  224MOL0     C30124   7.238   6.485   1.475  0.4418 -0.1762 -0.5040
  224MOL0     C30125   7.138   6.370   1.484  0.4290  0.4047  1.1022
  224MOL0     C30126   7.098   6.335   1.629  0.2883 -0.4162 -0.3681
  224MOL0     C30127   6.964   6.260   1.642 -0.7278 -0.6223 -1.0911
  224MOL0     C30128   6.994   6.111   1.621 -0.5006 -0.2654  0.1072
  224MOL0     O30129   6.884   6.022   1.675  0.1377 -0.0385 -0.1831
  224MOL0     C30130   6.769   6.000   1.608 -0.7445 -0.8580  1.0411
  224MOL0     C30131   6.732   6.067   1.489 -0.5782  0.9213  0.1053
  224MOL0     C30132   6.619   6.021   1.414 -0.4086 -0.1275  0.1985
  224MOL0     C30133   6.550   5.910   1.458 -0.2167 -0.3133  0.1090
  224MOL0     C30134   6.451   5.865   1.370  1.2009  0.7611 -0.3625
  224MOL0     O30135   6.343   5.938   1.343 -0.4177  0.2462  0.2104
  224MOL0     C30136   6.246   5.883   1.268 -0.3973 -0.8903 -0.3648
  224MOL0     C30137   6.250   5.856   1.130 -0.4861  1.1496 -0.1466
  224MOL0     C30138   6.149   5.786   1.075  0.5978  0.9328  0.2344
  224MOL0     C30139   6.034   5.760   1.142  0.4973  0.1131 -0.3241
  224MOL0     O30140   5.932   5.716   1.068  0.0483 -0.3620  0.0684
  224MOL0     C30141   5.839   5.626   1.133 -0.1429  1.0052 -0.1199
  224MOL0     C30142   5.708   5.624   1.055 -0.3961 -0.1316  0.5847
  224MOL0     C30143   5.637   5.751   1.021  0.6771 -0.1364 -0.9649
  224MOL0     C30144   5.610   5.829   1.149 -0.1836 -0.2525  0.3143
  224MOL0     C30145   5.490   5.927   1.140  0.2215  0.0798  0.3716
  224MOL0     C30146   5.361   5.834   1.137 -0.6837  0.3658  0.2594
  224MOL0     C30147   5.230   5.916   1.142 -0.0437 -0.5498  0.8941
  224MOL0     C30148   5.140   5.865   1.032 -0.3959  0.0965 -1.1363
  224MOL0    Cl30149   5.195   5.931   0.878 -0.0067 -0.3753  0.0917
  224MOL0     C30150   6.022   5.797   1.278 -0.2185 -0.3613 -0.4833
  224MOL0     C30151   6.131   5.866   1.338 -0.7998 -0.1525  0.6189
  224MOL0     O30152   6.485   5.760   1.310 -0.7866 -0.1781 -0.0348
  224MOL0     C30153   6.591   5.839   1.571 -1.0131 -0.3628  0.1734
  224MOL0     C30154   6.689   5.896   1.652 -0.1115  0.1817  0.5056
  224MOL0     N30155   7.209   6.610   1.425  0.7284  0.6922 -0.9163
  224MOL0     N30156   7.327   6.674   1.433 -0.6613  0.1280 -0.0195
  224MOL0     C30157   8.424   6.632   1.678 -1.2707 -0.1087  0.4256
  224MOL0     C30158   8.552   6.623   1.747  0.2999 -0.5657 -0.3097
  224MOL0     C30159   8.951   6.706   1.922 -0.2102 -0.6124 -0.0824
  224MOL0     C30160   8.972   6.807   2.009 -0.3172 -0.5433 -0.7425
  224MOL0     C30161   9.074   6.802   2.110 -0.9866  0.6673 -0.4987
  224MOL0     C30162   9.172   6.703   2.108 -0.2856 -0.5492  0.5213
  224MOL0     O30163   9.271   6.708   2.199  0.0633 -0.9636  0.1337
  224MOL0     C30164   9.242   6.668   2.334 -0.2713 -0.1525 -0.1861
  224MOL0     C30165   9.241   6.526   2.377 -0.1253 -0.7289  0.0785
  224MOL0     C30166   9.326   6.424   2.303  0.5008 -0.1207 -0.5094
  224MOL0     C30167   9.470   6.453   2.302 -0.3799  0.4615  0.3917
  224MOL0     C30168   9.536   6.322   2.306  0.0731  0.0588  0.0088
  224MOL0     C30169   9.598   6.219   2.335  0.9084  0.3369  0.9081
  224MOL0     C30170   9.165   6.609   2.005 -0.1332 -0.0223 -0.8808
  224MOL0     C30171   9.058   6.609   1.915  0.2919  0.1183  0.5886
  224MOL0     C30172   9.043   6.494   1.811 -0.4568  0.6969 -0.8587
  224MOL0     H30173   8.621   6.938   1.806 -1.1814  1.4714 -1.6364
  224MOL0     H30174   8.407   6.980   1.665 -0.1015  0.5024 -3.3802
  224MOL0     H30175   8.389   6.754   1.402 -0.7251  0.6059 -1.8478
  224MOL0     H30176   8.262   6.629   1.419  0.0221 -0.1372 -1.4275
  224MOL0     H30177   8.235   6.775   1.232 -0.0343 -0.4525  0.0559
  224MOL0     H30178   8.203   6.909   1.354 -1.9829 -0.4173  0.7361
  224MOL0     H30179   8.008   6.799   1.249  1.7612  0.8372  0.0468
  224MOL0     H30180   8.016   6.804   1.430 -0.8290 -1.0190  0.4546
  224MOL0     H30181   8.075   6.574   1.238 -0.6241 -2.1092  1.0185
  224MOL0     H30182   8.062   6.557   1.419 -0.5886 -3.7661 -1.4963
  224MOL0     H30183   7.841   6.640   1.222  0.8388 -1.5173 -1.0256
  224MOL0     H30184   7.860   6.485   1.279  0.6556  0.4210  0.3506
  224MOL0     H30185   7.837   6.555   1.516  2.5748 -1.6558 -2.2328
  224MOL0     H30186   7.798   6.722   1.451 -2.4065 -0.2067 -2.2196
  224MOL0     H30187   7.629   6.483   1.376 -2.3274 -0.4569  0.6575
  224MOL0     H30188   7.623   6.651   1.318  0.9484  0.8072  0.2200
  224MOL0     H30189   7.591   6.568   1.601  2.2939 -1.5564 -0.9743
  224MOL0     H30190   7.575   6.734   1.539  0.6045  0.0896 -1.7037
  224MOL0     H30191   7.433   6.390   1.520  3.3643  1.7263 -0.7074
  224MOL0     H30192   7.046   6.401   1.433 -1.4541 -1.9467  2.8308
  224MOL0     H30193   7.193   6.288   1.436  4.0068  3.4399 -0.4873
  224MOL0     H30194   7.184   6.294   1.683  0.2289 -3.5012 -2.3852
  224MOL0     H30195   7.071   6.430   1.677  3.0179  0.2938 -0.0389
  224MOL0     H30196   6.903   6.293   1.557  1.1146 -0.2297 -2.3255
  224MOL0     H30197   6.917   6.293   1.736 -3.0973  0.1534 -2.4490
  224MOL0     H30198   7.086   6.094   1.678 -0.4586  0.0202  0.1223
  224MOL0     H30199   7.013   6.091   1.516  0.2115  0.3481  0.1145
  224MOL0     H30200   6.795   6.147   1.450  1.8992 -0.9328  0.0179
  224MOL0     H30201   6.593   6.067   1.320  0.0420 -1.4817 -0.6180
  224MOL0     H30202   6.331   5.891   1.067  0.5188 -0.1038  0.4235
  224MOL0     H30203   6.146   5.751   0.973 -0.8486  1.2404  0.1530
  224MOL0     H30204   5.882   5.527   1.148  1.5054  1.2995 -2.3215
  224MOL0     H30205   5.800   5.660   1.230 -1.6995 -2.0568  0.4366
  224MOL0     H30206   5.733   5.576   0.959 -3.2628  0.2123 -0.4173
  224MOL0     H30207   5.630   5.559   1.095 -1.8188  1.9318  1.3057
  224MOL0     H30208   5.692   5.821   0.958 -0.0313  0.0734 -1.3686
  224MOL0     H30209   5.542   5.732   0.968  0.9208 -0.2596 -1.3631
  224MOL0     H30210   5.706   5.876   1.170  0.2691  0.2772 -2.5009
  224MOL0     H30211   5.586   5.764   1.233  1.2001 -1.6692 -0.3318
  224MOL0     H30212   5.488   5.974   1.041  2.7330 -3.2713 -1.4815
  224MOL0     H30213   5.486   6.011   1.210 -3.7973 -0.2165  0.7219
  224MOL0     H30214   5.356   5.780   1.041  1.0958  0.4695  0.0736
  224MOL0     H30215   5.371   5.764   1.220  0.9149 -0.2122 -0.3874
  224MOL0     H30216   5.259   6.019   1.120 -2.5790  0.1373  0.4200
  224MOL0     H30217   5.172   5.908   1.234 -3.1980 -2.7763 -1.0898
  224MOL0     H30218   5.142   5.757   1.045  2.2813  0.1864 -0.3704
  224MOL0     H30219   5.036   5.900   1.039 -0.4610  0.4470 -3.1242
  224MOL0     H30220   5.927   5.782   1.329 -1.7864  2.7235 -2.1942
  224MOL0     H30221   6.139   5.894   1.442 -3.3307  0.2962  0.7581
  224MOL0     H30222   6.535   5.750   1.597 -2.2097 -0.3484 -2.1365
  224MOL0     H30223   6.714   5.854   1.748 -0.7143 -4.1216 -1.0205
  224MOL0     H30224   8.382   6.543   1.631 -0.5282  0.6819 -1.8842
  224MOL0     H30225   8.591   6.524   1.767 -2.7657 -2.1480 -1.3903
  224MOL0     H30226   8.918   6.901   2.004  1.8762  0.7424 -2.1957
  224MOL0     H30227   9.097   6.876   2.187  0.6703 -1.3174  1.0426
  224MOL0     H30228   9.147   6.713   2.366 -1.3265 -1.4027 -1.4625
  224MOL0     H30229   9.320   6.714   2.396  0.6706 -2.2795  0.3057
  224MOL0     H30230   9.138   6.491   2.373 -0.2258 -0.3034 -1.5738
  224MOL0     H30231   9.282   6.512   2.478  1.2904 -1.1799 -0.5377
  224MOL0     H30232   9.291   6.420   2.199  0.1409  1.8645 -0.4975
  224MOL0     H30233   9.303   6.328   2.349 -2.7804  1.2607  1.0884
  224MOL0     H30234   9.500   6.509   2.214 -2.2647  0.6534 -0.1590
  224MOL0     H30235   9.501   6.503   2.395  1.1259 -3.6086  2.3209
  224MOL0     H30236   9.643   6.122   2.350 -0.4418 -0.9253 -2.2978
  224MOL0     H30237   9.245   6.537   1.994  2.3180  2.1659  1.2062
  224MOL0     H30238   9.121   6.417   1.818 -1.5956 -0.5218 -1.1181
  224MOL0     H30239   8.949   6.442   1.829  0.2146  0.0223  0.9952
  224MOL0     H30240   9.055   6.527   1.708 -0.4414  0.9045 -0.7905
  225MOL0     O30241   8.048   6.118   9.896  0.7169 -0.4729 -0.2982
  225MOL0     C30242   8.082   6.011   9.859 -0.1244  0.3371 -0.1548
  225MOL0     O30243   8.067   5.958   9.736  0.3251  0.4899 -0.3511
  225MOL0     C30244   7.957   6.007   9.665 -0.7381 -0.2409 -0.6051
  225MOL0     C30245   7.954   6.139   9.621  0.2787  0.2662  0.4252
  225MOL0     C30246   7.860   6.181   9.528 -0.2509 -0.0591  0.4057
  225MOL0     C30247   7.763   6.095   9.475  0.5141  0.0993  0.3690
  225MOL0     O30248   7.672   6.142   9.379 -0.2716  0.0171  0.1968
  225MOL0     C30249   7.555   6.194   9.440  0.2536 -0.0688 -0.1570
  225MOL0     C30250   7.490   6.294   9.352 -0.7982 -0.7544  0.0809
  225MOL0     C30251   7.345   6.323   9.378  0.1363 -0.8444 -0.4235
  225MOL0     C30252   7.287   6.420   9.273 -0.2562  0.8141 -0.1330
  225MOL0     C30253   7.139   6.404   9.248 -0.5198 -0.2988  0.6525
  225MOL0     C30254   7.053   6.480   9.362  0.8668 -0.5340  0.0322
  225MOL0     C30255   6.905   6.470   9.341  0.3395 -0.4043 -0.4320
  225MOL0     C30256   6.812   6.563   9.416 -0.7333 -0.3714  0.0411
  225MOL0     N30257   6.793   6.698   9.360  1.0053  0.6170 -0.3889
  225MOL0     C30258   6.728   6.725   9.236 -0.7298 -0.3895 -0.0048
  225MOL0     C30259   6.719   6.866   9.233  1.2068  0.6812  0.1438
  225MOL0     C30260   6.678   6.944   9.121 -0.2486  0.0186  0.5918
  225MOL0     C30261   6.533   6.982   9.125 -0.0050 -0.2596 -0.6370
  225MOL0     C30262   6.492   7.081   9.236  0.3127  0.1079  0.2557
  225MOL0     C30263   6.347   7.128   9.234 -0.0293  0.3743  0.6043
  225MOL0     O30264   6.264   7.019   9.213  0.3240  0.5429 -0.9942
  225MOL0     C30265   6.130   7.032   9.208  1.7309 -0.4090 -0.2936
  225MOL0     C30266   6.061   7.156   9.217 -0.3560  0.0974  0.1801
  225MOL0     C30267   5.923   7.171   9.179 -0.9019  0.6097  0.4276
  225MOL0     C30268   5.855   7.065   9.126  0.2808 -0.3298 -0.6649
  225MOL0     C30269   5.717   7.074   9.079 -0.3423  0.0236  0.2166
  225MOL0     O30270   5.663   6.959   9.030 -0.3996  0.5341  0.6079
  225MOL0     C30271   5.543   6.953   8.967  0.5328 -0.0984 -0.3010
  225MOL0     C30272   5.481   7.046   8.886 -0.3670 -1.4885  0.6604
  225MOL0     C30273   5.368   7.022   8.811  0.3333 -0.3278  0.3616
  225MOL0     C30274   5.324   6.894   8.809 -0.0601 -0.6568 -0.7921
  225MOL0     O30275   5.211   6.885   8.737 -0.0846 -0.2700 -0.1031
  225MOL0     C30276   5.141   6.757   8.719 -0.2570 -1.2231 -0.4900
  225MOL0     C30277   5.012   6.776   8.639  0.3620 -0.7115  0.1322
  225MOL0     C30278   4.930   6.653   8.608 -0.8709 -0.7443 -0.1390
  225MOL0     C30279   4.812   6.678   8.508  0.3460 -0.1258  0.3039
  225MOL0     C30280   4.755   6.549   8.442  0.8765 -0.0792 -0.1825
  225MOL0     C30281   4.707   6.456   8.553 -0.2090 -1.4819  1.2236
  225MOL0     C30282   4.651   6.326   8.486  0.6515  1.0996 -0.9691
  225MOL0     C30283   4.609   6.237   8.608  0.5522  0.1317  0.1938
  225MOL0    Cl30284   4.495   6.315   8.720  0.1648  0.0787  0.2847
  225MOL0     C30285   5.378   6.787   8.881  0.2540  0.3279 -0.1722
  225MOL0     C30286   5.489   6.818   8.962 -0.4225  0.6421  0.3290
  225MOL0     O30287   5.666   7.183   9.099 -0.4793  1.0324  0.4556
  225MOL0     C30288   5.912   6.936   9.135 -0.1891 -0.1174 -0.6989
  225MOL0     C30289   6.045   6.928   9.177 -0.1613  0.3361  1.2100
  225MOL0     N30290   6.763   6.908   9.363  0.6472 -0.2145  0.5735
  225MOL0     N30291   6.816   6.810   9.428  0.1109 -0.1061  0.0895
  225MOL0     C30292   7.766   5.960   9.510 -0.5599 -0.9727 -0.8708
  225MOL0     C30293   7.866   5.918   9.607 -0.7216  0.5229  0.2909
  225MOL0     C30294   8.150   5.910   9.953 -0.7157  0.3761  0.0154
  225MOL0     C30295   8.193   5.784   9.900  0.3661  0.2382  0.3965
  225MOL0     C30296   8.236   5.674   9.975  0.3181 -0.5202  0.6232
  225MOL0     C30297   8.254   5.696  10.114  1.0754  0.9340 -0.1247
  225MOL0     O30298   8.285   5.590  10.196 -0.5589 -0.7787 -0.1999
  225MOL0     C30299   8.391   5.604  10.295  0.0424 -0.2348  0.3561
  225MOL0     C30300   8.522   5.677  10.247 -0.8177  0.7557  0.3150
  225MOL0     C30301   8.616   5.602  10.142  0.0175 -0.1914  0.4865
  225MOL0     C30302   8.729   5.505  10.205 -0.5623 -0.6379 -0.2605
  225MOL0     C30303   8.812   5.446  10.098  0.2302 -0.2338  0.3180
  225MOL0     C30304   8.848   5.402   9.996  0.2512 -0.4986  0.3302
  225MOL0     C30305   8.229   5.820  10.167 -1.2589 -0.0916  0.6661
  225MOL0     C30306   8.172   5.927  10.090  0.2593 -0.3881 -0.9130
  225MOL0     C30307   8.118   6.051  10.180 -1.0269 -0.1896  0.6791
  225MOL0     H30308   8.008   6.221   9.668  1.9414 -0.9246  0.6765
  225MOL0     H30309   7.844   6.286   9.508  0.6812 -0.1538 -0.9827
  225MOL0     H30310   7.492   6.108   9.464  0.2321  0.7136  3.0495
  225MOL0     H30311   7.583   6.245   9.533 -0.2716  1.5818 -0.8632
  225MOL0     H30312   7.503   6.263   9.248  0.5573  0.4525 -0.1568
  225MOL0     H30313   7.543   6.390   9.350  0.8563 -1.6086 -2.3388
  225MOL0     H30314   7.327   6.372   9.474  2.4208  1.6045 -1.1376
  225MOL0     H30315   7.287   6.230   9.375  0.5827 -1.0973 -2.2768
  225MOL0     H30316   7.310   6.526   9.286 -1.3862  1.0649 -0.0931
  225MOL0     H30317   7.336   6.384   9.182 -1.3947 -1.8169  0.1959
  225MOL0     H30318   7.113   6.448   9.151  2.3372  0.8079  0.2922
  225MOL0     H30319   7.112   6.298   9.250 -2.2834  0.0773 -1.0085
  225MOL0     H30320   7.081   6.433   9.457 -1.0720 -0.9617  0.4375
  225MOL0     H30321   7.080   6.586   9.357  1.4709 -0.7510 -2.5335
  225MOL0     H30322   6.886   6.374   9.389 -4.4796  0.1682 -0.7713
  225MOL0     H30323   6.889   6.475   9.233 -2.1970 -0.6156 -0.1158
  225MOL0     H30324   6.710   6.528   9.435 -0.0540 -1.0469  2.8072
  225MOL0     H30325   6.862   6.577   9.513 -1.5576 -1.0665  0.5811
  225MOL0     H30326   6.693   6.657   9.159 -1.9181  0.3678 -0.1604
  225MOL0     H30327   6.739   7.034   9.131 -1.7747  1.1079  0.4044
  225MOL0     H30328   6.703   6.885   9.032 -0.2682  2.1630 -0.9096
  225MOL0     H30329   6.514   7.036   9.032  0.3685 -0.0684 -0.6063
  225MOL0     H30330   6.471   6.892   9.131  1.8705 -1.5958 -0.3557
  225MOL0     H30331   6.561   7.166   9.237  1.1166 -0.5320  1.2563
  225MOL0     H30332   6.518   7.032   9.330 -0.2752 -1.7290 -0.4961
  225MOL0     H30333   6.339   7.200   9.152 -3.1564  0.3625  0.7816
  225MOL0     H30334   6.317   7.187   9.321 -0.5672  1.0522 -0.0367
  225MOL0     H30335   6.104   7.250   9.250  0.9851 -0.5584  0.3507
  225MOL0     H30336   5.892   7.275   9.182  0.1562  1.1341 -2.8745
  225MOL0     H30337   5.524   7.145   8.872 -0.9872 -1.3314 -0.2637
  225MOL0     H30338   5.310   7.094   8.753  0.3236  0.4103  1.2523
  225MOL0     H30339   5.211   6.699   8.657  1.1833  0.6392 -0.7028
  225MOL0     H30340   5.129   6.711   8.818 -2.6379 -0.6429 -0.4585
  225MOL0     H30341   4.952   6.842   8.702  3.9958  2.8206  0.2979
  225MOL0     H30342   5.041   6.830   8.548 -0.3789  1.3242  1.0524
  225MOL0     H30343   4.993   6.586   8.548  0.8140 -1.0069  1.8360
  225MOL0     H30344   4.904   6.600   8.700 -2.4977  1.0288  0.5016
  225MOL0     H30345   4.833   6.749   8.428 -0.4358 -0.1385  0.0762
  225MOL0     H30346   4.730   6.733   8.557 -1.2784 -0.6665 -1.6597
  225MOL0     H30347   4.826   6.499   8.376  1.7734  0.3005  0.4649
  225MOL0     H30348   4.669   6.575   8.379 -0.1064  0.9962  1.5271
  225MOL0     H30349   4.796   6.432   8.612 -1.6703 -1.7161  3.4117
  225MOL0     H30350   4.638   6.509   8.619 -0.4688 -0.9994  0.5730
  225MOL0     H30351   4.732   6.274   8.433 -1.2170 -2.0115 -1.0759
  225MOL0     H30352   4.571   6.332   8.411  0.5472 -0.3948 -1.0079
  225MOL0     H30353   4.564   6.144   8.574  2.8218 -1.0785  0.2790
  225MOL0     H30354   4.697   6.204   8.664  1.0903 -0.4212 -0.9289
  225MOL0     H30355   5.337   6.687   8.873 -1.7417  1.1246 -0.3501
  225MOL0     H30356   5.536   6.737   9.018 -1.9550 -0.8413 -0.4497
  225MOL0     H30357   5.860   6.848   9.097  2.4364 -0.9453 -2.6489
  225MOL0     H30358   6.094   6.831   9.183  3.6831  1.9847  0.0444
  225MOL0     H30359   7.695   5.892   9.463 -0.2004 -0.0463 -2.8458
  225MOL0     H30360   7.884   5.813   9.626  0.3073  0.5591 -0.3557
  225MOL0     H30361   8.202   5.772   9.792  4.2777 -0.1111  0.6524
  225MOL0     H30362   8.245   5.573   9.937  0.8445 -0.8963  1.7155
  225MOL0     H30363   8.424   5.503  10.321  2.7206  1.0301  2.3499
  225MOL0     H30364   8.347   5.651  10.383  0.1425  0.9617 -0.1975
  225MOL0     H30365   8.573   5.711  10.337 -0.1491  3.2868 -0.9210
  225MOL0     H30366   8.515   5.773  10.196  0.4821  0.6360 -0.1268
  225MOL0     H30367   8.668   5.683  10.090  1.2628  0.8903  3.1991
  225MOL0     H30368   8.557   5.556  10.062 -0.2611  1.4872 -0.3043
  225MOL0     H30369   8.789   5.566  10.274 -1.5768  2.6597 -2.0568
  225MOL0     H30370   8.671   5.430  10.259 -0.1973  0.6909  2.1713
  225MOL0     H30371   8.874   5.377   9.895 -0.7282  0.1001 -0.0873
  225MOL0     H30372   8.234   5.830  10.275 -0.1612 -1.8711  0.8134
  225MOL0     H30373   8.191   6.074  10.259 -1.2581  2.0026  0.3243
  225MOL0     H30374   8.095   6.146  10.131 -0.5697 -0.7701 -0.7070
  225MOL0     H30375   8.037   6.017  10.244  1.2149 -2.0419  2.7401
  226MOL0     O30376   9.067   5.381   6.359 -1.1039 -0.1668  1.2069
  226MOL0     C30377   9.093   5.457   6.446  0.4280 -1.1052 -0.6719
  226MOL0     O30378   8.995   5.508   6.529  0.5403  0.6639  0.4305
  226MOL0     C30379   8.870   5.494   6.507  0.6057  0.6726 -0.4015
  226MOL0     C30380   8.780   5.591   6.444 -1.1005 -0.4467  0.2646
  226MOL0     C30381   8.642   5.574   6.432  1.0050  0.7493 -0.7467
  226MOL0     C30382   8.581   5.458   6.478  0.3359 -1.1154  0.2714
  226MOL0     O30383   8.445   5.455   6.470  0.0469  0.7565  0.4928
  226MOL0     C30384   8.356   5.354   6.526  0.0924 -0.3433  0.2314
  226MOL0     C30385   8.208   5.374   6.500 -0.2030  0.4461 -0.0475
  226MOL0     C30386   8.159   5.368   6.359 -0.0845 -1.0710 -0.6455
  226MOL0     C30387   8.191   5.230   6.300 -0.6086 -0.4314  0.5280
  226MOL0     C30388   8.108   5.203   6.167 -0.6107  0.9744 -0.5762
  226MOL0     C30389   8.124   5.309   6.064  1.2092 -0.2703  0.5655
  226MOL0     C30390   8.271   5.341   6.025  0.8459  0.2842 -0.6001
  226MOL0     C30391   8.280   5.429   5.895  0.3792  0.4760 -0.4831
  226MOL0     N30392   8.221   5.350   5.781 -0.5265 -0.4051  0.0779
  226MOL0     C30393   8.268   5.223   5.759 -0.4940 -0.3089 -0.2449
  226MOL0     C30394   8.175   5.163   5.674  0.1535 -0.1692 -0.0011
  226MOL0     C30395   8.186   5.017   5.627 -0.7194  0.1469 -0.5563
  226MOL0     C30396   8.209   5.007   5.477  0.1798 -0.4191  0.7035
  226MOL0     C30397   8.089   5.052   5.385 -0.0717  0.9033 -0.5695
  226MOL0     C30398   7.951   4.984   5.420  0.1837  0.1523 -0.3576
  226MOL0     O30399   7.868   4.993   5.301  0.5210 -0.5945 -0.1742
  226MOL0     C30400   7.798   5.109   5.283 -0.4904  0.0651  0.8768
  226MOL0     C30401   7.734   5.119   5.152  0.6918 -0.0590  0.4690
  226MOL0     C30402   7.633   5.213   5.136  0.2471 -1.1096  0.1659
  226MOL0     C30403   7.612   5.321   5.230 -0.1019 -1.3002  0.2515
  226MOL0     C30404   7.506   5.424   5.215  0.3985  0.0060  1.3098
  226MOL0     O30405   7.468   5.502   5.322  0.0823  1.0291  0.4765
  226MOL0     C30406   7.383   5.613   5.315 -0.1066 -0.2319  1.0277
  226MOL0     C30407   7.306   5.617   5.423  0.4583 -0.4603 -0.6726
  226MOL0     C30408   7.228   5.734   5.439 -0.1621 -0.1969  0.4308
  226MOL0     C30409   7.220   5.835   5.336 -0.5639 -0.6220  0.0110
  226MOL0     O30410   7.134   5.944   5.350  0.1076 -0.3531 -0.1790
  226MOL0     C30411   7.027   5.965   5.247  0.4025 -0.6402 -0.6781
  226MOL0     C30412   6.980   6.097   5.281 -0.8019  1.2858  0.1297
  226MOL0     C30413   6.847   6.137   5.228  0.0295 -0.0858  0.7050
  226MOL0     C30414   6.825   6.144   5.075 -0.2725 -0.2818  1.2800
  226MOL0     C30415   6.680   6.173   5.024 -0.3537 -0.1187 -0.5467
  226MOL0     C30416   6.643   6.319   5.041 -0.8383 -0.2506 -0.2836
  226MOL0     C30417   6.526   6.366   4.945 -0.3807  1.2510  0.3294
  226MOL0     C30418   6.586   6.417   4.814 -0.3438  0.4259 -0.8647
  226MOL0    Cl30419   6.456   6.493   4.718 -0.3755 -0.3915  0.3214
  226MOL0     C30420   7.289   5.814   5.220 -0.8020  0.1290 -0.3152
  226MOL0     C30421   7.376   5.712   5.213  0.6204 -0.4451  0.3642
  226MOL0     O30422   7.443   5.433   5.106 -0.3618  0.4893  0.5859
  226MOL0     C30423   7.695   5.316   5.346  0.1733 -0.0796 -0.2127
  226MOL0     C30424   7.770   5.207   5.382  1.4772 -0.1732  0.6582
  226MOL0     N30425   8.086   5.270   5.640 -0.0093 -0.2867  0.0907
  226MOL0     N30426   8.105   5.375   5.714  0.0181 -0.0185 -1.1607
  226MOL0     C30427   8.662   5.358   6.531 -0.0238 -0.8737 -0.1666
  226MOL0     C30428   8.804   5.375   6.552  0.3111 -1.1977 -0.1184
  226MOL0     C30429   9.233   5.488   6.484  0.1940  0.0036  0.0172
  226MOL0     C30430   9.249   5.575   6.592  1.0895 -0.0007  0.2700
  226MOL0     C30431   9.381   5.619   6.624 -0.3977  0.1044  1.1320
  226MOL0     C30432   9.491   5.586   6.541 -0.4021  0.1694 -0.8178
  226MOL0     O30433   9.616   5.636   6.579  0.2268 -0.6339 -0.3588
  226MOL0     C30434   9.689   5.724   6.497  1.1858 -1.1155 -0.0961
  226MOL0     C30435   9.799   5.668   6.424 -0.6722 -0.7230  0.7014
  226MOL0     C30436   9.894   5.590   6.515  0.0355 -0.0022  0.3251
  226MOL0     C30437  10.033   5.592   6.464  0.3713  0.2457  0.2653
  226MOL0     C30438  10.032   5.535   6.326  0.1626 -0.2984  0.2833
  226MOL0     C30439  10.014   5.497   6.212 -0.9674 -0.6624 -0.4361
  226MOL0     C30440   9.480   5.484   6.450  0.9070 -0.5505  0.3530
  226MOL0     C30441   9.351   5.433   6.424  0.0109  0.7395 -1.0054
  226MOL0     C30442   9.341   5.302   6.339 -0.4949 -0.6273  0.0884
  226MOL0     H30443   8.820   5.690   6.427  1.1996 -1.0683  1.6966
  226MOL0     H30444   8.573   5.650   6.397 -0.9130 -0.2099  0.7544
  226MOL0     H30445   8.383   5.258   6.482 -2.4612  0.1315 -2.6904
  226MOL0     H30446   8.360   5.339   6.634 -0.9387 -2.2131  0.0570
  226MOL0     H30447   8.179   5.464   6.555  0.4961  0.6732 -0.0482
  226MOL0     H30448   8.155   5.292   6.549  0.3689  1.3743  2.2792
  226MOL0     H30449   8.210   5.447   6.303  0.1804  0.6479  1.8599
  226MOL0     H30450   8.055   5.399   6.341  0.2511 -1.7932 -4.9563
  226MOL0     H30451   8.295   5.220   6.267 -1.3249  1.8038 -2.9469
  226MOL0     H30452   8.150   5.146   6.357 -1.6216 -3.1793 -3.7596
  226MOL0     H30453   8.146   5.107   6.131  0.2381  1.8974 -2.2266
  226MOL0     H30454   8.005   5.177   6.194  0.1263 -0.5304  0.9756
  226MOL0     H30455   8.062   5.278   5.979  1.2386  0.3344  0.3129
  226MOL0     H30456   8.078   5.399   6.107 -0.0128  0.7025 -2.5471
  226MOL0     H30457   8.314   5.240   6.025 -1.5825 -0.8823  1.5641
  226MOL0     H30458   8.306   5.399   6.111 -1.1535 -0.3812  0.7527
  226MOL0     H30459   8.219   5.520   5.895  1.2337  1.0606 -0.8805
  226MOL0     H30460   8.383   5.465   5.884  0.4330  0.2062 -0.8805
  226MOL0     H30461   8.364   5.183   5.791 -0.0069  1.7196  1.0401
  226MOL0     H30462   8.276   4.970   5.667 -0.4784  1.7825  0.9410
  226MOL0     H30463   8.096   4.969   5.667 -0.8142  1.8846  1.4983
  226MOL0     H30464   8.291   5.076   5.457 -0.4488 -0.1256 -1.0243
  226MOL0     H30465   8.235   4.906   5.443  0.5049 -0.8556  2.1825
  226MOL0     H30466   8.111   5.034   5.280  0.9556  0.4593 -0.2968
  226MOL0     H30467   8.082   5.160   5.372  0.6454  1.2416  1.4638
  226MOL0     H30468   7.921   5.019   5.519  1.4487 -1.9931  0.8540
  226MOL0     H30469   7.972   4.877   5.434 -0.3091 -0.1137 -1.5148
  226MOL0     H30470   7.750   5.031   5.091  1.6764 -1.0261  2.0217
  226MOL0     H30471   7.578   5.213   5.042  1.0019 -2.0180 -0.2849
  226MOL0     H30472   7.313   5.543   5.502  1.0060  0.7347  0.4470
  226MOL0     H30473   7.180   5.765   5.532  1.6545  0.0069  1.3442
  226MOL0     H30474   7.079   5.969   5.151  0.6895 -1.4506 -0.5601
  226MOL0     H30475   6.945   5.894   5.245  0.2719 -0.4728 -1.3870
  226MOL0     H30476   6.972   6.102   5.390 -2.0318 -4.1774  0.5458
  226MOL0     H30477   7.047   6.174   5.241  1.5817 -1.5200 -1.7465
  226MOL0     H30478   6.768   6.070   5.262 -0.5724 -1.3866 -2.8044
  226MOL0     H30479   6.823   6.236   5.269  2.1914 -0.0777  2.1078
  226MOL0     H30480   6.854   6.050   5.027  2.8455  2.0572 -1.9574
  226MOL0     H30481   6.902   6.210   5.035  0.3978  0.4636  3.6681
  226MOL0     H30482   6.600   6.106   5.057  1.0562 -1.1733  0.8624
  226MOL0     H30483   6.683   6.159   4.915  0.0051  3.0147 -1.0203
  226MOL0     H30484   6.621   6.335   5.147 -3.7455 -0.6050 -0.7544
  226MOL0     H30485   6.735   6.377   5.025  0.7934 -2.0673  1.7010
  226MOL0     H30486   6.453   6.432   4.993 -1.5205 -0.4477  1.0641
  226MOL0     H30487   6.475   6.273   4.915  2.4584 -0.6510  0.9543
  226MOL0     H30488   6.647   6.504   4.842 -3.0231  1.6102  1.7721
  226MOL0     H30489   6.646   6.345   4.757 -1.0513  0.5347 -1.7764
  226MOL0     H30490   7.274   5.877   5.133 -1.2094 -2.4912 -2.2858
  226MOL0     H30491   7.431   5.701   5.120  0.7715  0.2650  0.3680
  226MOL0     H30492   7.684   5.381   5.432 -0.2908 -0.0086 -0.3220
  226MOL0     H30493   7.834   5.215   5.470  1.7902 -0.0647  0.4236
  226MOL0     H30494   8.619   5.261   6.555  0.5210 -1.0558  0.0756
  226MOL0     H30495   8.855   5.288   6.592  0.6740 -0.1071  1.9401
  226MOL0     H30496   9.178   5.625   6.657  1.1878 -0.5725  0.8225
  226MOL0     H30497   9.389   5.680   6.713 -0.2789 -0.6187  1.6241
  226MOL0     H30498   9.719   5.806   6.563  0.5714 -0.6515 -0.3852
  226MOL0     H30499   9.621   5.782   6.433  1.2461 -2.6647 -1.6547
  226MOL0     H30500   9.848   5.749   6.371  3.0577 -0.8073  3.5858
  226MOL0     H30501   9.760   5.596   6.351  3.9160 -0.1680 -2.6883
  226MOL0     H30502   9.861   5.486   6.527 -0.1345  0.0334  0.1655
  226MOL0     H30503   9.895   5.639   6.612  0.2420 -0.5519  0.6063
  226MOL0     H30504  10.087   5.686   6.468  1.2878  0.2065 -4.6786
  226MOL0     H30505  10.089   5.530   6.534  1.4524  0.5630 -0.3015
  226MOL0     H30506   9.992   5.469   6.111  1.6624  1.3936 -1.7033
  226MOL0     H30507   9.568   5.458   6.392  0.3188  0.8320 -1.2160
  226MOL0     H30508   9.443   5.263   6.326 -0.3903 -0.2817 -0.1469
  226MOL0     H30509   9.273   5.229   6.385  1.0352 -0.6404  2.5338
  226MOL0     H30510   9.291   5.336   6.249 -1.6253 -2.1728  0.0985
  227MOL0     O30511   0.261   7.307   4.866  0.1216 -0.6901  0.2171
  227MOL0     C30512   0.272   7.298   4.742 -0.1604  0.5284 -1.1457
  227MOL0     O30513   0.173   7.282   4.654  0.3394  0.2635 -0.5076
  227MOL0     C30514   0.050   7.249   4.705 -0.5684  0.1327  0.6931
  227MOL0     C30515  -0.002   7.120   4.691  0.2938  0.6566  0.5729
  227MOL0     C30516  -0.132   7.092   4.737 -0.3431 -0.4352 -0.9345
  227MOL0     C30517  -0.215   7.199   4.786 -1.5828 -0.6524  0.0005
  227MOL0     O30518  -0.332   7.180   4.858 -0.8765  0.1775 -0.0960
  227MOL0     C30519  -0.336   7.098   4.973 -1.0030  0.5438  0.8005
  227MOL0     C30520  -0.432   7.134   5.076  0.3048 -0.0050 -0.8329
  227MOL0     C30521  -0.571   7.188   5.030 -0.3825 -0.0988 -1.1156
  227MOL0     C30522  -0.563   7.325   4.958  0.6784 -0.4028  0.5083
  227MOL0     C30523  -0.708   7.388   4.972 -0.4537  0.2538  0.9782
  227MOL0     C30524  -0.714   7.537   4.938  0.3219  0.6559 -0.2122
  227MOL0     C30525  -0.859   7.576   4.954  0.4214  0.6105 -0.4139
  227MOL0     C30526  -0.875   7.731   4.963 -0.3285 -0.9719  0.3469
  227MOL0     N30527  -1.006   7.761   4.905  0.6311 -0.1146 -0.1620
  227MOL0     C30528  -1.108   7.806   4.983 -0.5694  0.3255  0.0591
  227MOL0     C30529  -1.212   7.826   4.898 -0.9003  0.5662  1.0420
  227MOL0     C30530  -1.359   7.861   4.906  0.3604 -0.2082 -0.6958
  227MOL0     C30531  -1.411   7.941   5.028 -0.1496  0.3531 -0.5637
  227MOL0     C30532  -1.316   8.061   5.079 -0.3500 -0.1735  0.5657
  227MOL0     C30533  -1.302   8.180   4.977  0.5326 -0.0570 -0.8407
  227MOL0     O30534  -1.419   8.263   4.994  0.4589  0.1371 -1.3254
  227MOL0     C30535  -1.417   8.359   5.098  0.4950 -0.2897  0.1999
  227MOL0     C30536  -1.314   8.399   5.180  0.5750  0.4713 -0.1039
  227MOL0     C30537  -1.324   8.508   5.258  0.1159 -0.0478 -0.7953
  227MOL0     C30538  -1.443   8.585   5.270  0.2193  0.3739 -0.2938
  227MOL0     C30539  -1.446   8.711   5.350 -0.1863 -0.0427 -0.0312
  227MOL0     O30540  -1.556   8.793   5.340 -0.2378 -0.1992 -0.4245
  227MOL0     C30541  -1.584   8.891   5.431  0.1567 -0.0727 -1.0218
  227MOL0     C30542  -1.609   9.023   5.380  0.4046  0.2621  0.5365
  227MOL0     C30543  -1.647   9.129   5.461 -0.3389 -0.0817 -0.0093
  227MOL0     C30544  -1.664   9.108   5.597 -0.6147 -0.4592 -0.0552
  227MOL0     O30545  -1.717   9.192   5.687 -0.3664 -0.1211 -0.0755
  227MOL0     C30546  -1.787   9.309   5.632 -0.0450  0.1384 -0.7507
  227MOL0     C30547  -1.832   9.384   5.754 -0.9785  0.2171  0.5639
  227MOL0     C30548  -1.897   9.308   5.862 -0.6046 -0.5634 -0.0914
  227MOL0     C30549  -2.040   9.262   5.817 -1.2027  0.1178  0.4138
  227MOL0     C30550  -2.134   9.259   5.933 -0.0358  0.4400 -0.0100
  227MOL0     C30551  -2.249   9.171   5.898  0.3837  0.8523  0.3476
  227MOL0     C30552  -2.217   9.027   5.948 -0.3165  0.4654 -0.5317
  227MOL0     C30553  -2.352   8.954   5.942 -0.6397 -0.5203  0.3320
  227MOL0    Cl30554  -2.342   8.825   6.057  0.3691  0.3685  0.3563
  227MOL0     C30555  -1.622   8.981   5.649  0.7104 -0.4345  0.4624
  227MOL0     C30556  -1.586   8.874   5.571 -0.2404  1.1019  0.5640
  227MOL0     O30557  -1.366   8.718   5.439 -0.1946  0.6061  0.1151
  227MOL0     C30558  -1.544   8.550   5.182  0.5009  0.0618  0.4144
  227MOL0     C30559  -1.529   8.441   5.093  0.7389  0.6018 -0.2797
  227MOL0     N30560  -1.164   7.806   4.775 -0.4865  0.1974  0.3870
  227MOL0     N30561  -1.040   7.768   4.775 -0.0347  0.1429  0.1106
  227MOL0     C30562  -0.163   7.334   4.791  0.3732  1.1354 -0.3460
  227MOL0     C30563  -0.036   7.349   4.744 -0.8874 -0.1066  0.3621
  227MOL0     C30564   0.399   7.335   4.670  0.7753 -0.1523  0.1916
  227MOL0     C30565   0.524   7.306   4.728  0.6596 -0.3666  0.3470
  227MOL0     C30566   0.639   7.322   4.659 -0.2316 -0.6479  0.8430
  227MOL0     C30567   0.637   7.380   4.528  0.5845 -0.1562  0.4345
  227MOL0     O30568   0.749   7.379   4.445  0.2392  0.0590  0.0193
  227MOL0     C30569   0.856   7.282   4.461 -0.1621 -0.3307  1.3865
  227MOL0     C30570   0.986   7.334   4.387  0.0908 -0.1099 -0.3188
  227MOL0     C30571   1.059   7.213   4.327 -0.0704 -0.3357  0.5563
  227MOL0     C30572   1.195   7.255   4.273  0.4189 -0.0562  0.6395
  227MOL0     C30573   1.185   7.379   4.184 -0.4682  0.3526 -0.3915
  227MOL0     C30574   1.176   7.467   4.104 -0.0200  0.0590 -0.3442
  227MOL0     C30575   0.515   7.427   4.479  0.2953 -0.6632  0.9181
  227MOL0     C30576   0.402   7.409   4.551 -0.4699 -0.6655  0.0938
  227MOL0     C30577   0.280   7.463   4.486  0.1158 -0.8489 -0.1730
  227MOL0     H30578   0.059   7.036   4.662 -1.4947 -1.1475  1.8022
  227MOL0     H30579  -0.177   6.995   4.717 -2.5255  0.0657  1.1499
  227MOL0     H30580  -0.340   6.994   4.940  0.7738  0.6232  0.2089
  227MOL0     H30581  -0.240   7.104   5.026 -0.7812 -2.3615  0.9305
  227MOL0     H30582  -0.393   7.205   5.151 -2.8575  0.2829  0.6918
  227MOL0     H30583  -0.453   7.046   5.137 -1.9959  2.4453  2.2615
  227MOL0     H30584  -0.638   7.187   5.116 -2.8641 -1.3218 -2.9209
  227MOL0     H30585  -0.612   7.110   4.965  1.9739 -3.0516  0.6659
  227MOL0     H30586  -0.490   7.397   4.995  0.7063  0.8042 -1.7572
  227MOL0     H30587  -0.539   7.311   4.853  2.7793 -0.0416  0.9053
  227MOL0     H30588  -0.779   7.339   4.905  0.7182 -3.2672  2.0621
  227MOL0     H30589  -0.737   7.379   5.077 -3.6511 -3.4625  0.0427
  227MOL0     H30590  -0.640   7.589   5.001  1.8779  1.6531 -2.7020
  227MOL0     H30591  -0.679   7.550   4.836  3.1439  0.0688  0.5844
  227MOL0     H30592  -0.906   7.539   5.045 -3.2579  1.2966 -1.8230
  227MOL0     H30593  -0.918   7.537   4.870 -0.5499 -0.1347  0.5801
  227MOL0     H30594  -0.870   7.755   5.069  0.9996  2.7015 -0.4026
  227MOL0     H30595  -0.796   7.788   4.914 -1.0205 -0.1895  0.1044
  227MOL0     H30596  -1.105   7.821   5.091 -0.2734  1.3010 -0.0750
  227MOL0     H30597  -1.375   7.924   4.818  0.8037 -0.3522 -0.8825
  227MOL0     H30598  -1.421   7.771   4.901  2.3218 -1.6440 -0.4227
  227MOL0     H30599  -1.504   7.986   4.993  1.0540  1.5721 -2.3469
  227MOL0     H30600  -1.429   7.874   5.113 -1.9684 -0.2269 -1.3688
  227MOL0     H30601  -1.218   8.024   5.106 -0.4062 -0.2710  0.6337
  227MOL0     H30602  -1.363   8.092   5.173 -3.8617  0.5706 -1.2588
  227MOL0     H30603  -1.288   8.157   4.871  1.2775  0.2453 -0.8110
  227MOL0     H30604  -1.216   8.241   5.003 -0.2173  0.7760 -0.2454
  227MOL0     H30605  -1.230   8.331   5.194  0.3221  0.5397  2.0945
  227MOL0     H30606  -1.234   8.545   5.306  1.4262  0.5691 -3.5533
  227MOL0     H30607  -1.594   9.042   5.274  1.1876 -3.2847 -0.1296
  227MOL0     H30608  -1.672   9.221   5.409  1.1006 -0.2661 -1.1129
  227MOL0     H30609  -1.726   9.369   5.563  4.8102 -3.8835 -0.5874
  227MOL0     H30610  -1.877   9.270   5.584 -0.7708  1.9418 -0.9310
  227MOL0     H30611  -1.745   9.427   5.804  0.7837 -2.5033  0.0330
  227MOL0     H30612  -1.899   9.464   5.721 -1.6699 -0.2584  0.7914
  227MOL0     H30613  -1.829   9.234   5.905 -0.5943 -0.9766 -0.7940
  227MOL0     H30614  -1.895   9.380   5.944  3.1944  1.4889 -1.7180
  227MOL0     H30615  -2.021   9.158   5.789  0.6679  0.0374  1.7493
  227MOL0     H30616  -2.080   9.314   5.730 -2.0341 -2.1881 -0.6570
  227MOL0     H30617  -2.172   9.360   5.950 -1.3473  0.1740 -1.2497
  227MOL0     H30618  -2.086   9.225   6.026  1.8558  1.0182 -0.7364
  227MOL0     H30619  -2.338   9.215   5.944 -0.1970  0.2312 -0.1708
  227MOL0     H30620  -2.254   9.175   5.789 -0.3991  4.3565  0.3700
  227MOL0     H30621  -2.188   9.041   6.052 -2.0516  1.8039 -0.1724
  227MOL0     H30622  -2.127   8.996   5.894  0.2987  1.6862 -0.2390
  227MOL0     H30623  -2.439   9.015   5.970 -0.7783 -0.0549 -1.0158
  227MOL0     H30624  -2.380   8.922   5.841 -0.1064 -1.5249  0.4916
  227MOL0     H30625  -1.631   8.972   5.757  0.0667  2.4420  0.7265
  227MOL0     H30626  -1.552   8.777   5.606 -3.7542 -0.8074 -0.7762
  227MOL0     H30627  -1.640   8.598   5.163  0.6323 -0.1656 -1.0016
  227MOL0     H30628  -1.604   8.412   5.021 -0.4473  0.2499  1.0425
  227MOL0     H30629  -0.222   7.420   4.822 -1.7175 -0.5582  0.6715
  227MOL0     H30630   0.015   7.445   4.740 -0.2420 -0.3726  1.6769
  227MOL0     H30631   0.522   7.286   4.835 -0.0171  1.3645  0.7029
  227MOL0     H30632   0.730   7.275   4.696  0.7203  1.6831  1.6294
  227MOL0     H30633   0.808   7.193   4.419 -2.4170  1.7941 -0.8843
  227MOL0     H30634   0.890   7.264   4.564 -0.4342  3.8054  2.3857
  227MOL0     H30635   1.039   7.391   4.464 -2.6667  1.2211  0.7221
  227MOL0     H30636   0.955   7.398   4.303 -2.5455 -0.3685  0.3721
  227MOL0     H30637   0.997   7.173   4.247 -0.2372  0.1654  0.4322
  227MOL0     H30638   1.060   7.136   4.405  1.4227 -0.6973  0.1997
  227MOL0     H30639   1.283   7.258   4.338 -0.5265  1.8168  1.9162
  227MOL0     H30640   1.229   7.189   4.192  2.0562 -0.6202  1.7505
  227MOL0     H30641   1.156   7.543   4.031 -1.9678 -0.1475 -0.0864
  227MOL0     H30642   0.513   7.443   4.371  0.6642  1.3094  1.1831
  227MOL0     H30643   0.258   7.385   4.413  1.8268  1.0903 -2.9655
  227MOL0     H30644   0.197   7.478   4.554 -0.5769 -1.6156 -0.8328
  227MOL0     H30645   0.304   7.557   4.434 -0.9825 -1.2552 -1.4607
  228MOL0     O30646   3.902   6.413   1.492  0.5696 -1.0070 -0.0481
  228MOL0     C30647   3.818   6.339   1.532 -0.0785  1.0587  0.2594
  228MOL0     O30648   3.696   6.365   1.577  0.6801  0.2751  0.7956
  228MOL0     C30649   3.612   6.471   1.527 -0.6523 -1.1325 -0.0167
  228MOL0     C30650   3.611   6.515   1.395 -0.6769 -1.2072 -0.1074
  228MOL0     C30651   3.530   6.626   1.347  1.0001 -0.3549 -0.3157
  228MOL0     C30652   3.443   6.684   1.446 -0.1428 -0.5527 -0.0990
  228MOL0     O30653   3.360   6.790   1.416  0.1146 -0.2415  0.1498
  228MOL0     C30654   3.393   6.912   1.490 -0.0226 -1.1724 -0.0742
  228MOL0     C30655   3.277   6.995   1.557  0.2123  0.0686  0.8300
  228MOL0     C30656   3.198   7.089   1.470 -0.0737  0.5491  0.1381
  228MOL0     C30657   3.178   7.058   1.318  0.1303 -0.1817  0.0786
  228MOL0     C30658   3.064   7.124   1.243  0.3926 -0.1292 -0.3879
  228MOL0     C30659   3.069   7.271   1.238 -0.9144  0.4680 -0.6219
  228MOL0     C30660   2.963   7.353   1.315 -0.8675  0.2884 -1.2794
  228MOL0     C30661   2.833   7.381   1.243 -0.7139 -0.1887  0.1604
  228MOL0     N30662   2.724   7.444   1.320  0.2658  0.3150  0.1419
  228MOL0     C30663   2.717   7.581   1.341 -0.1710  0.1238 -0.3779
  228MOL0     C30664   2.586   7.602   1.368  0.6658 -0.1878 -1.2249
  228MOL0     C30665   2.514   7.740   1.371 -0.1183  0.0886 -0.3891
  228MOL0     C30666   2.401   7.747   1.462  0.0233  0.6202  0.6967
  228MOL0     C30667   2.330   7.877   1.471  0.1962 -0.0465 -0.5651
  228MOL0     C30668   2.224   7.862   1.594  0.9135 -0.0491  0.4608
  228MOL0     O30669   2.163   7.993   1.628  0.5851 -0.0517  0.6606
  228MOL0     C30670   2.187   8.033   1.753  0.0787  0.0788 -0.0191
  228MOL0     C30671   2.090   8.113   1.817  0.0150  0.2985 -0.0836
  228MOL0     C30672   2.097   8.159   1.953  0.7042  0.3393  0.8584
  228MOL0     C30673   2.211   8.132   2.021 -0.0130  0.4015 -0.1170
  228MOL0     C30674   2.221   8.191   2.151 -0.6659 -0.8571 -0.3544
  228MOL0     O30675   2.345   8.179   2.201  0.1958 -0.3245 -0.2355
  228MOL0     C30676   2.382   8.246   2.318 -0.0935  0.2982 -0.1316
  228MOL0     C30677   2.385   8.178   2.442  0.6015  0.2986  0.9877
  228MOL0     C30678   2.399   8.247   2.564  0.4323  0.4044  0.0631
  228MOL0     C30679   2.420   8.380   2.575 -0.2581  0.3259 -0.5366
  228MOL0     O30680   2.439   8.450   2.692  0.5963  0.3773  0.3508
  228MOL0     C30681   2.429   8.399   2.826  0.7173  1.3481 -0.1525
  228MOL0     C30682   2.419   8.508   2.917  0.2254 -0.1196  0.4610
  228MOL0     C30683   2.559   8.573   2.937 -0.3055 -0.0352 -0.1970
  228MOL0     C30684   2.569   8.637   3.075 -0.2435 -0.6303  0.4697
  228MOL0     C30685   2.477   8.767   3.078  0.0986  1.0304  1.1327
  228MOL0     C30686   2.524   8.856   3.184  0.5953 -0.3348  1.0107
  228MOL0     C30687   2.432   8.975   3.208  0.4667 -0.0645  0.6350
  228MOL0     C30688   2.502   9.089   3.280 -0.2308  0.1880  0.7181
  228MOL0    Cl30689   2.404   9.230   3.287  0.4694  0.0906  0.3260
  228MOL0     C30690   2.426   8.454   2.459 -0.7470 -0.1799  1.5225
  228MOL0     C30691   2.411   8.384   2.330 -0.6921  0.5195 -1.1759
  228MOL0     O30692   2.134   8.270   2.193  0.2814 -0.0243  0.4011
  228MOL0     C30693   2.312   8.053   1.962  0.0731 -0.0006  0.4142
  228MOL0     C30694   2.301   8.005   1.832  0.0076  0.1743 -0.5645
  228MOL0     N30695   2.511   7.481   1.378 -0.4571 -0.8976  0.5314
  228MOL0     N30696   2.598   7.390   1.346  1.1299  0.3269  0.5002
  228MOL0     C30697   3.429   6.630   1.574  0.5181 -0.4354  0.4279
  228MOL0     C30698   3.512   6.515   1.607  0.3602 -1.4754 -0.6731
  228MOL0     C30699   3.856   6.188   1.536 -0.1469  0.4899 -0.0353
  228MOL0     C30700   3.759   6.097   1.571 -0.4001 -0.0269  0.0432
  228MOL0     C30701   3.776   5.959   1.569 -0.5626  0.2558  0.2888
  228MOL0     C30702   3.903   5.907   1.549 -0.1098  0.3788 -0.9186
  228MOL0     O30703   3.922   5.769   1.581  0.5730 -0.3292 -0.6283
  228MOL0     C30704   4.044   5.728   1.647 -0.2679  0.1900  0.4773
  228MOL0     C30705   4.033   5.590   1.721 -0.2499 -0.7603  0.2262
  228MOL0     C30706   4.000   5.470   1.631 -0.2935  0.3525  0.4274
  228MOL0     C30707   4.026   5.346   1.704  0.4245  0.2701 -0.2020
  228MOL0     C30708   3.920   5.319   1.815  1.0572  0.5162 -0.3706
  228MOL0     C30709   3.844   5.295   1.902  0.0210 -0.4007  0.0784
  228MOL0     C30710   4.003   5.997   1.519  0.2005 -0.5514 -0.2452
  228MOL0     C30711   3.987   6.136   1.513 -0.3748 -0.8979 -0.9065
  228MOL0     C30712   4.109   6.221   1.471 -0.4456  0.9579 -0.8036
  228MOL0     H30713   3.675   6.468   1.321 -1.0607 -2.0011  0.0503
  228MOL0     H30714   3.558   6.691   1.265  4.2896  0.3554  1.2113
  228MOL0     H30715   3.469   6.881   1.562  1.5386 -0.2052 -1.2380
  228MOL0     H30716   3.439   6.986   1.423 -1.0151 -1.0921 -0.6860
  228MOL0     H30717   3.320   7.057   1.636  0.4064  1.2859 -0.2046
  228MOL0     H30718   3.205   6.923   1.598 -0.8753 -0.2855 -1.5500
  228MOL0     H30719   3.246   7.187   1.469  4.0388 -1.2544 -1.0324
  228MOL0     H30720   3.100   7.113   1.513  0.9037  2.8718  1.2258
  228MOL0     H30721   3.274   7.067   1.266  1.1885 -5.8499  0.3527
  228MOL0     H30722   3.155   6.952   1.304 -1.8674  0.3679 -1.2245
  228MOL0     H30723   3.071   7.077   1.145  1.3748 -0.5634 -0.1187
  228MOL0     H30724   2.972   7.096   1.295  1.7292 -0.4675  1.9287
  228MOL0     H30725   3.172   7.300   1.262 -0.1583 -1.2804 -1.5353
  228MOL0     H30726   3.058   7.311   1.137  0.1223  3.1083  0.2163
  228MOL0     H30727   3.010   7.445   1.350  1.0461 -0.9452 -0.4761
  228MOL0     H30728   2.930   7.301   1.406  1.7625  1.6303  0.5516
  228MOL0     H30729   2.857   7.441   1.155  1.3623  0.6713  1.2386
  228MOL0     H30730   2.788   7.285   1.217 -1.4585 -0.2498  1.5690
  228MOL0     H30731   2.787   7.657   1.307  2.0226 -1.3024  0.7930
  228MOL0     H30732   2.588   7.808   1.414 -0.9939  0.3656  0.7416
  228MOL0     H30733   2.483   7.781   1.275 -0.1647  3.5603  0.9853
  228MOL0     H30734   2.328   7.675   1.423  0.8784  0.3905 -0.5573
  228MOL0     H30735   2.430   7.701   1.557 -0.7544 -1.6713 -0.0988
  228MOL0     H30736   2.293   7.928   1.382 -1.4527  0.7048  0.5026
  228MOL0     H30737   2.411   7.940   1.509  0.4869 -0.9657  0.3817
  228MOL0     H30738   2.293   7.820   1.668  0.9531 -1.8150 -0.5250
  228MOL0     H30739   2.143   7.792   1.575 -0.5451  1.7897 -0.3722
  228MOL0     H30740   2.000   8.128   1.759  0.2116  1.8551 -0.0332
  228MOL0     H30741   2.016   8.219   1.993  3.2160  2.9854  2.3447
  228MOL0     H30742   2.358   8.073   2.445 -2.6449  0.8720 -2.2467
  228MOL0     H30743   2.390   8.194   2.658 -1.2412  0.0954 -0.2470
  228MOL0     H30744   2.337   8.341   2.835  3.1403 -2.6037  2.1887
  228MOL0     H30745   2.518   8.338   2.845  0.5208  1.6942  2.0625
  228MOL0     H30746   2.356   8.588   2.877  2.1844  0.2129 -2.2608
  228MOL0     H30747   2.376   8.474   3.011 -0.9459 -0.0208 -0.0305
  228MOL0     H30748   2.640   8.500   2.928  1.5116  1.9647 -0.6872
  228MOL0     H30749   2.572   8.654   2.866 -1.4245  1.3449  1.1072
  228MOL0     H30750   2.669   8.667   3.109  0.6393 -2.1060 -0.7297
  228MOL0     H30751   2.525   8.581   3.158 -0.1181  1.0793  1.7636
  228MOL0     H30752   2.372   8.741   3.091  0.5016 -3.7615 -2.3887
  228MOL0     H30753   2.479   8.819   2.982 -3.2667 -0.4437  0.1033
  228MOL0     H30754   2.522   8.807   3.282 -0.0659  4.2334  3.5662
  228MOL0     H30755   2.625   8.884   3.151 -1.2879  2.0391 -3.6470
  228MOL0     H30756   2.338   8.950   3.258 -0.6867 -0.6630 -1.6548
  228MOL0     H30757   2.393   9.009   3.111 -0.1068  1.8156  1.4993
  228MOL0     H30758   2.551   9.065   3.375  1.3494  0.8443  0.0965
  228MOL0     H30759   2.583   9.108   3.209 -1.7457 -2.4329 -1.9512
  228MOL0     H30760   2.451   8.559   2.457 -1.7254  0.0573  0.7166
  228MOL0     H30761   2.404   8.434   2.234  0.1430 -0.7604 -1.9475
  228MOL0     H30762   2.411   8.052   2.006 -0.6120  0.2894  2.0827
  228MOL0     H30763   2.390   7.960   1.789  1.1755  0.4233  1.4640
  228MOL0     H30764   3.357   6.652   1.652 -0.9966 -0.8041 -0.8197
  228MOL0     H30765   3.506   6.480   1.710  2.0909  5.2287  2.2804
  228MOL0     H30766   3.655   6.120   1.592  0.0575  0.2520  2.1428
  228MOL0     H30767   3.701   5.889   1.602 -3.9985  2.7994 -1.4588
  228MOL0     H30768   4.076   5.797   1.726  0.3557 -0.8217  1.1293
  228MOL0     H30769   4.136   5.727   1.588 -0.1246  1.1826  0.6654
  228MOL0     H30770   3.950   5.612   1.789 -1.2774 -0.6986 -1.0091
  228MOL0     H30771   4.128   5.574   1.773 -0.4930 -0.3255  0.8100
  228MOL0     H30772   4.065   5.474   1.544 -1.0287  0.5572 -0.1215
  228MOL0     H30773   3.894   5.472   1.604 -0.9882 -0.7865  2.7852
  228MOL0     H30774   4.022   5.266   1.630 -5.5953  0.2050 -0.3106
  228MOL0     H30775   4.126   5.348   1.747  0.4257  5.0421  0.1117
  228MOL0     H30776   3.778   5.282   1.986 -1.2689  0.8248 -0.7096
  228MOL0     H30777   4.100   5.956   1.491  0.0836 -1.2154  0.3097
  228MOL0     H30778   4.193   6.154   1.452 -0.0376  2.2812 -4.6073
  228MOL0     H30779   4.098   6.273   1.375 -1.3053  0.7778 -0.8130
  228MOL0     H30780   4.135   6.298   1.544 -0.9136  0.5827 -0.2365
  229MOL0     O30781   3.181   1.970   4.188 -0.3506 -0.0293  0.1209
  229MOL0     C30782   3.243   1.878   4.136  0.0525 -1.4872  0.4338
  229MOL0     O30783   3.214   1.822   4.006 -1.1739  0.0194 -0.4690
  229MOL0     C30784   3.131   1.888   3.918 -0.1625  0.1118 -0.6108
  229MOL0     C30785   3.129   2.029   3.905  0.2293  0.0698  0.1494
  229MOL0     C30786   3.032   2.092   3.829  0.4657 -0.5238 -0.3499
  229MOL0     C30787   2.928   2.025   3.758 -0.0282  0.1319  0.3440
  229MOL0     O30788   2.822   2.088   3.707 -0.2579 -0.6860  0.4714
  229MOL0     C30789   2.842   2.212   3.634 -1.2747 -1.4033 -0.1667
  229MOL0     C30790   2.746   2.237   3.513 -0.6757  0.0632 -0.2881
  229MOL0     C30791   2.777   2.380   3.446 -0.2100  0.3615  0.8170
  229MOL0     C30792   2.738   2.519   3.500  0.3373 -0.1795  0.0380
  229MOL0     C30793   2.606   2.509   3.569 -0.3258 -0.4478  0.3533
  229MOL0     C30794   2.534   2.645   3.607 -0.4804  0.1658  0.8180
  229MOL0     C30795   2.494   2.742   3.498 -0.3386 -0.4901 -0.5658
  229MOL0     C30796   2.513   2.890   3.550  0.0563  0.5586 -0.3668
  229MOL0     N30797   2.428   2.911   3.670  0.1602  0.1813  0.6001
  229MOL0     C30798   2.448   2.891   3.795 -0.2391 -0.1026 -0.6567
  229MOL0     C30799   2.331   2.912   3.856 -1.0371  0.0550 -0.0814
  229MOL0     C30800   2.305   2.910   4.001 -1.0466 -0.1869  0.5689
  229MOL0     C30801   2.371   3.036   4.075  0.7527  1.1714  0.5833
  229MOL0     C30802   2.379   3.009   4.226  0.0074  0.0553  1.7248
  229MOL0     C30803   2.241   2.978   4.297  0.4358  0.0791  0.6041
  229MOL0     O30804   2.195   2.840   4.300 -0.4829 -0.3783 -1.1412
  229MOL0     C30805   2.239   2.756   4.402 -0.4154  0.0113  0.8633
  229MOL0     C30806   2.370   2.769   4.456 -0.7987 -0.5999 -0.1845
  229MOL0     C30807   2.417   2.674   4.545  0.1768  0.3923  0.4035
  229MOL0     C30808   2.350   2.550   4.565  0.7514 -0.2194  0.7919
  229MOL0     C30809   2.408   2.438   4.629  0.7984  0.1378 -0.1350
  229MOL0     O30810   2.363   2.321   4.574  0.5557 -0.0503 -0.7992
  229MOL0     C30811   2.402   2.205   4.639  0.0188  1.1447 -0.7468
  229MOL0     C30812   2.534   2.160   4.645 -0.9943 -0.6745 -0.9265
  229MOL0     C30813   2.569   2.066   4.739  0.0784  0.2862 -0.1746
  229MOL0     C30814   2.472   2.015   4.830 -0.3503 -0.1920  0.1765
  229MOL0     O30815   2.515   1.924   4.923 -0.0491  0.2790 -0.0794
  229MOL0     C30816   2.590   1.995   5.025  0.3766  0.2576 -0.1508
  229MOL0     C30817   2.743   2.039   4.994 -0.3272 -0.2997  0.0987
  229MOL0     C30818   2.824   2.033   5.123  0.5867  0.9850 -0.1834
  229MOL0     C30819   2.978   2.047   5.109 -0.3842 -0.6009 -0.1507
  229MOL0     C30820   3.048   2.000   5.240 -0.0163 -0.2840 -0.7162
  229MOL0     C30821   3.201   1.982   5.215 -0.2951  0.3513 -0.3914
  229MOL0     C30822   3.265   1.931   5.345 -0.5354  1.0376 -0.3849
  229MOL0     C30823   3.311   2.061   5.413  0.1569 -0.4301 -0.4333
  229MOL0    Cl30824   3.364   2.016   5.579  0.2784 -0.1455 -0.0607
  229MOL0     C30825   2.344   2.054   4.828  0.8935 -0.3090  0.9496
  229MOL0     C30826   2.302   2.148   4.729  0.2076 -0.5060 -0.4921
  229MOL0     O30827   2.496   2.452   4.715  0.0809  0.1347  0.7017
  229MOL0     C30828   2.224   2.544   4.509 -0.7663  0.8254  0.1855
  229MOL0     C30829   2.166   2.643   4.434  0.4844  0.3334 -0.4421
  229MOL0     N30830   2.232   2.930   3.767 -0.9806 -0.6674 -0.5675
  229MOL0     N30831   2.292   2.939   3.650 -0.1921 -0.2394 -0.3652
  229MOL0     C30832   2.930   1.884   3.779 -0.6337 -0.3593  0.9644
  229MOL0     C30833   3.019   1.819   3.860 -0.5882 -0.0968  0.1382
  229MOL0     C30834   3.340   1.817   4.228  0.2682 -0.3328  0.5236
  229MOL0     C30835   3.369   1.677   4.202  0.4454 -1.4745  0.8963
  229MOL0     C30836   3.461   1.612   4.283  0.0260  0.8837  0.0095
  229MOL0     C30837   3.538   1.662   4.387  0.2924 -1.2995  0.0043
  229MOL0     O30838   3.623   1.598   4.473 -0.7113  0.2511  0.6177
  229MOL0     C30839   3.613   1.450   4.482 -0.6573  0.6076 -0.3320
  229MOL0     C30840   3.680   1.397   4.606  0.4792  0.0295 -0.5244
  229MOL0     C30841   3.826   1.444   4.621  0.1853  0.1366 -0.7026
  229MOL0     C30842   3.905   1.352   4.714  0.0512  0.5547  0.1073
  229MOL0     C30843   4.048   1.395   4.712  0.5021  0.6895 -0.9291
  229MOL0     C30844   4.159   1.446   4.701 -0.0884  0.8169  0.1580
  229MOL0     C30845   3.531   1.803   4.400 -0.1959  0.8543  0.4177
  229MOL0     C30846   3.431   1.878   4.326  0.5655  0.5002 -0.1329
  229MOL0     C30847   3.416   2.018   4.357  0.2546 -0.8548  0.3851
  229MOL0     H30848   3.192   2.090   3.969 -1.2846 -1.0055  2.8339
  229MOL0     H30849   3.034   2.200   3.828 -3.0271 -0.3110  1.0242
  229MOL0     H30850   2.827   2.291   3.708  1.8406  0.0159 -0.8976
  229MOL0     H30851   2.941   2.226   3.589 -1.9557  1.6277 -0.9104
  229MOL0     H30852   2.640   2.226   3.539 -0.3227 -0.8367  0.8307
  229MOL0     H30853   2.766   2.161   3.436 -0.9742 -2.1063  1.6688
  229MOL0     H30854   2.735   2.376   3.345  3.2211 -0.1147 -0.7165
  229MOL0     H30855   2.883   2.382   3.422 -0.2623 -1.7377  0.1189
  229MOL0     H30856   2.803   2.563   3.576 -1.6740 -0.9834  2.3672
  229MOL0     H30857   2.732   2.592   3.419  1.0897  0.4241  0.5025
  229MOL0     H30858   2.528   2.455   3.514  1.3879 -1.0435 -1.6076
  229MOL0     H30859   2.631   2.467   3.667  2.0313  2.3184  1.0767
  229MOL0     H30860   2.442   2.618   3.660 -0.3430  1.1598  1.5834
  229MOL0     H30861   2.606   2.697   3.670 -1.6442  0.9047  1.5758
  229MOL0     H30862   2.388   2.735   3.472 -0.3702  1.5070 -1.1572
  229MOL0     H30863   2.546   2.729   3.404 -0.6721  0.1921 -0.8526
  229MOL0     H30864   2.617   2.905   3.581  1.1778 -2.1965 -2.4090
  229MOL0     H30865   2.485   2.962   3.472 -0.8646 -0.0249 -0.5872
  229MOL0     H30866   2.542   2.872   3.846  1.2887  0.9542 -2.9439
  229MOL0     H30867   2.199   2.935   3.994 -0.4440  2.5318  0.0996
  229MOL0     H30868   2.328   2.816   4.052  0.0227  1.5888  3.6201
  229MOL0     H30869   2.476   3.052   4.046  1.1133 -1.5680  0.0330
  229MOL0     H30870   2.317   3.126   4.045 -3.0840 -1.6742 -2.0603
  229MOL0     H30871   2.422   3.092   4.282  2.6166  0.0078 -0.0661
  229MOL0     H30872   2.451   2.928   4.240  0.4305  0.5526  2.4815
  229MOL0     H30873   2.159   3.035   4.251 -3.0394 -2.4645  3.1071
  229MOL0     H30874   2.245   3.014   4.400 -0.7244 -0.3541  0.8070
  229MOL0     H30875   2.429   2.860   4.451 -0.5361 -0.7813 -0.4933
  229MOL0     H30876   2.516   2.681   4.590  0.4146 -0.1536 -0.0235
  229MOL0     H30877   2.610   2.200   4.580  1.4925 -0.7630  1.6978
  229MOL0     H30878   2.664   2.014   4.738 -1.4641 -2.7268 -1.6944
  229MOL0     H30879   2.527   2.074   5.067 -1.2708 -0.6061 -0.9012
  229MOL0     H30880   2.590   1.917   5.101 -0.2353  0.3071 -0.1016
  229MOL0     H30881   2.790   1.976   4.918 -1.9262  1.3691 -2.4310
  229MOL0     H30882   2.744   2.134   4.939  1.9540 -0.5811 -0.4399
  229MOL0     H30883   2.773   2.107   5.186  1.0460  0.8732  0.3361
  229MOL0     H30884   2.799   1.937   5.169 -0.9516  0.0622 -2.7676
  229MOL0     H30885   3.010   2.152   5.103  0.7084 -0.9963 -2.2149
  229MOL0     H30886   3.014   1.979   5.032  1.3483 -0.1309  0.2040
  229MOL0     H30887   3.007   1.900   5.259 -0.2841 -0.1913 -0.7996
  229MOL0     H30888   3.027   2.072   5.319  0.2701 -1.4317  0.4550
  229MOL0     H30889   3.221   1.913   5.133  0.8447  0.1265  0.0490
  229MOL0     H30890   3.244   2.076   5.177  0.9781 -0.7661 -1.8351
  229MOL0     H30891   3.356   1.873   5.325  1.8224  3.5547  2.1487
  229MOL0     H30892   3.193   1.876   5.406  2.0523 -1.8467  0.3667
  229MOL0     H30893   3.397   2.109   5.367  1.3127 -2.0395 -0.0221
  229MOL0     H30894   3.224   2.128   5.420  0.4339  0.1903 -2.3056
  229MOL0     H30895   2.272   2.010   4.897  0.1592  0.2082  0.5306
  229MOL0     H30896   2.202   2.185   4.711 -0.3606 -1.4557  0.5847
  229MOL0     H30897   2.156   2.462   4.529 -4.0115  3.0087 -0.9350
  229MOL0     H30898   2.069   2.632   4.388  0.7118  3.8392 -2.0364
  229MOL0     H30899   2.836   1.834   3.755 -0.1847 -2.3844  3.0825
  229MOL0     H30900   2.997   1.716   3.887 -1.9571 -0.2110 -1.2404
  229MOL0     H30901   3.309   1.621   4.132 -3.5601  0.8064  2.1851
  229MOL0     H30902   3.460   1.505   4.270  0.7878  0.7694  0.7916
  229MOL0     H30903   3.661   1.408   4.393  0.8080  3.9565 -1.2978
  229MOL0     H30904   3.506   1.427   4.480 -0.2711 -1.3524 -0.8733
  229MOL0     H30905   3.664   1.289   4.609 -0.2380 -0.0543  5.4831
  229MOL0     H30906   3.622   1.422   4.696  0.1523 -0.3801 -0.6163
  229MOL0     H30907   3.834   1.547   4.658  3.3311 -0.6571  1.2020
  229MOL0     H30908   3.866   1.431   4.520  1.3259  3.1649 -0.7419
  229MOL0     H30909   3.865   1.338   4.815 -4.6558 -3.7481 -1.9303
  229MOL0     H30910   3.901   1.252   4.669 -1.5764  0.6351  0.0151
  229MOL0     H30911   4.257   1.487   4.693  0.9800 -1.8051 -1.8727
  229MOL0     H30912   3.576   1.846   4.489 -4.2075  3.7190  1.3787
  229MOL0     H30913   3.320   2.036   4.406  0.8464 -0.1411  1.3221
  229MOL0     H30914   3.488   2.064   4.426 -1.5125  0.9423  1.1510
  229MOL0     H30915   3.433   2.067   4.261 -0.2752 -1.3434  0.0408
  230MOL0     O30916   1.704   9.669   9.871  0.8146 -0.2153  0.4971
  230MOL0     C30917   1.625   9.640   9.785  0.4889 -0.0091 -0.7940
  230MOL0     O30918   1.622   9.515   9.728  0.3901 -0.7469 -0.2915
  230MOL0     C30919   1.729   9.421   9.740 -0.3645 -0.6633  0.0555
  230MOL0     C30920   1.733   9.317   9.648 -0.7550 -0.2407 -0.6186
  230MOL0     C30921   1.835   9.219   9.645 -0.0514  0.3605  0.3416
  230MOL0     C30922   1.922   9.218   9.754  0.2061  0.8288 -0.2049
  230MOL0     O30923   1.993   9.100   9.772 -0.9904 -0.7598 -0.6217
  230MOL0     C30924   2.131   9.122   9.732 -0.3768  0.2343 -0.1420
  230MOL0     C30925   2.210   9.198   9.840  1.1899  0.1121  0.7877
  230MOL0     C30926   2.361   9.216   9.816 -0.1469  0.6314 -1.0191
  230MOL0     C30927   2.390   9.286   9.681  0.2386 -0.1407 -0.7960
  230MOL0     C30928   2.535   9.320   9.675  0.3945  0.0551  0.2987
  230MOL0     C30929   2.567   9.367   9.539  0.2652 -0.3862 -0.8678
  230MOL0     C30930   2.708   9.423   9.527  0.3831 -0.5366  0.4011
  230MOL0     C30931   2.824   9.326   9.527  0.4959 -1.2382  0.1671
  230MOL0     N30932   2.850   9.257   9.650  0.3064 -0.3026  0.3554
  230MOL0     C30933   2.866   9.303   9.772 -0.7258  0.2189 -0.3040
  230MOL0     C30934   2.866   9.191   9.851  0.5733 -0.3117 -0.9474
  230MOL0     C30935   2.880   9.182   9.999 -0.0535 -0.8188  0.7217
  230MOL0     C30936   3.018   9.217  10.052  1.0944 -0.7549 -0.5290
  230MOL0     C30937   3.128   9.106  10.031  0.0673 -0.6668 -0.7962
  230MOL0     C30938   3.081   8.968  10.090  0.4703  0.5270  0.6208
  230MOL0     O30939   3.031   8.990  10.227 -0.2731 -0.2277  1.0780
  230MOL0     C30940   3.118   9.033  10.329  0.1530 -0.5455 -0.2534
  230MOL0     C30941   3.056   9.093  10.440  0.2876 -0.1097  0.1416
  230MOL0     C30942   3.125   9.096  10.562  0.1111 -0.3075 -0.7405
  230MOL0     C30943   3.264   9.085  10.574 -0.1241 -0.4890  0.4187
  230MOL0     C30944   3.328   9.139  10.691 -0.1563  0.1568 -0.3616
  230MOL0     O30945   3.430   9.222  10.645 -0.2842 -0.2514  0.1442
  230MOL0     C30946   3.520   9.295  10.727 -0.5517  0.3712  1.0351
  230MOL0     C30947   3.556   9.416  10.667  0.9853 -0.1727  0.4399
  230MOL0     C30948   3.673   9.480  10.707 -0.9480 -0.7933  0.2722
  230MOL0     C30949   3.747   9.434  10.812  0.5227  0.4832 -0.3155
  230MOL0     O30950   3.865   9.494  10.825 -0.5136  0.2431 -0.7891
  230MOL0     C30951   3.935   9.479  10.953  1.4022 -0.0396  1.2819
  230MOL0     C30952   4.060   9.557  10.950  0.1238 -1.1396  0.9964
  230MOL0     C30953   4.149   9.505  11.056  0.0049  0.1913  0.0099
  230MOL0     C30954   4.286   9.578  11.033 -0.7200  0.2059 -0.5583
  230MOL0     C30955   4.404   9.522  11.115 -0.3171 -0.1550 -0.3498
  230MOL0     C30956   4.529   9.599  11.081 -0.2836 -0.3346  0.4500
  230MOL0     C30957   4.654   9.537  11.142  1.3214  1.2448 -0.3540
  230MOL0     C30958   4.681   9.572  11.295 -0.3375  0.2642 -1.3546
  230MOL0    Cl30959   4.778   9.431  11.360  0.2151 -0.3012  0.1072
  230MOL0     C30960   3.701   9.320  10.883  0.7206  0.1821  0.1168
  230MOL0     C30961   3.594   9.244  10.826  0.2774  0.0685  0.4250
  230MOL0     O30962   3.284   9.118  10.810  0.1261 -0.0873 -1.1013
  230MOL0     C30963   3.329   9.042  10.459 -0.8224  0.1622 -0.0000
  230MOL0     C30964   3.261   9.005  10.342 -0.3097  0.5702  0.4978
  230MOL0     N30965   2.838   9.087   9.778  0.1654  0.1994  1.3357
  230MOL0     N30966   2.825   9.126   9.659 -0.3723 -0.1115 -0.3778
  230MOL0     C30967   1.907   9.308   9.866 -0.4545 -0.5340  0.0415
  230MOL0     C30968   1.813   9.408   9.853  0.5200  0.3369  0.2534
  230MOL0     C30969   1.519   9.740   9.747  0.5059  0.2312 -0.5942
  230MOL0     C30970   1.394   9.689   9.717  0.1280 -0.1217 -0.4820
  230MOL0     C30971   1.279   9.773   9.682  0.5474 -0.6576 -1.0022
  230MOL0     C30972   1.303   9.911   9.679  0.0841  0.3026 -0.3523
  230MOL0     O30973   1.186   9.986   9.647 -0.5320  0.0068 -0.4308
  230MOL0     C30974   1.207  10.128   9.631  0.1834  0.0809 -0.5402
  230MOL0     C30975   1.066  10.182   9.639  0.4345 -0.7082 -0.2009
  230MOL0     C30976   0.969  10.147   9.533 -0.0860  0.2036 -0.0217
  230MOL0     C30977   0.820  10.198   9.554 -0.9383 -0.1869 -0.3285
  230MOL0     C30978   0.796  10.341   9.570  0.7495  0.1144 -0.8497
  230MOL0     C30979   0.739  10.449   9.573 -0.2722 -0.1058 -1.0302
  230MOL0     C30980   1.426   9.969   9.715 -0.3302  0.5395  0.2769
  230MOL0     C30981   1.538   9.881   9.746  0.1125 -0.1437  0.0446
  230MOL0     C30982   1.679   9.944   9.781 -0.4213 -0.7234 -0.5882
  230MOL0     H30983   1.661   9.304   9.568  0.1896 -0.6994 -1.4217
  230MOL0     H30984   1.830   9.130   9.583  2.2865 -0.4398  1.1967
  230MOL0     H30985   2.188   9.037   9.694  1.2425  1.2986 -0.1636
  230MOL0     H30986   2.120   9.184   9.642 -0.3940 -2.5834 -2.2432
  230MOL0     H30987   2.203   9.144   9.935  0.5269  2.0815  1.9241
  230MOL0     H30988   2.165   9.297   9.856 -0.2218 -0.4491  0.4203
  230MOL0     H30989   2.418   9.122   9.814 -0.4026  0.2133  2.8149
  230MOL0     H30990   2.392   9.277   9.902  1.8131 -2.2198  0.4866
  230MOL0     H30991   2.356   9.221   9.600 -0.6508 -2.2393  1.1551
  230MOL0     H30992   2.333   9.379   9.670  1.6444  0.4500 -5.8503
  230MOL0     H30993   2.544   9.392   9.757 -1.3123 -1.4260  1.9038
  230MOL0     H30994   2.596   9.235   9.708  1.2425  1.6090  3.0545
  230MOL0     H30995   2.553   9.296   9.457 -0.2812 -0.0127 -1.1039
  230MOL0     H30996   2.496   9.447   9.516 -0.3369 -0.7003 -0.1532
  230MOL0     H30997   2.721   9.491   9.611 -0.5779  2.5548 -1.7569
  230MOL0     H30998   2.695   9.480   9.434 -1.6925 -0.2411  0.8205
  230MOL0     H30999   2.796   9.256   9.447 -0.2830 -1.6737  0.8092
  230MOL0     H31000   2.910   9.390   9.506 -2.8209  3.3072 -1.2777
  230MOL0     H31001   2.890   9.403   9.808  0.0300 -0.0141 -0.1503
  230MOL0     H31002   2.821   9.258  10.051  0.7263  0.1539  0.2363
  230MOL0     H31003   2.858   9.081  10.034  2.1313 -1.4541  0.4132
  230MOL0     H31004   3.051   9.313  10.012  1.0044 -0.4592  0.0854
  230MOL0     H31005   3.010   9.245  10.158  1.6811 -1.3795 -0.3098
  230MOL0     H31006   3.208   9.136  10.099 -1.9061 -0.2392  1.4615
  230MOL0     H31007   3.169   9.105   9.929  1.3576 -0.0606 -0.3049
  230MOL0     H31008   3.166   8.900  10.103 -1.8456 -2.1564  3.0534
  230MOL0     H31009   3.003   8.925  10.027  1.4262 -0.0677 -0.1827
  230MOL0     H31010   2.953   9.123  10.427  0.4709  0.1621 -0.7943
  230MOL0     H31011   3.076   9.145  10.646 -0.1803 -1.1218 -0.4250
  230MOL0     H31012   3.507   9.446  10.574  2.1919 -0.0535 -0.1797
  230MOL0     H31013   3.710   9.545  10.628  3.1000 -5.3218 -2.0367
  230MOL0     H31014   3.874   9.513  11.038 -1.6663  1.6801 -1.3827
  230MOL0     H31015   3.963   9.375  10.972 -2.9714 -1.0177  3.6878
  230MOL0     H31016   4.103   9.537  10.851  3.1355 -1.8090  2.3310
  230MOL0     H31017   4.027   9.661  10.957 -2.4850 -1.6136 -1.8520
  230MOL0     H31018   4.115   9.537  11.155  2.9385  3.7955  0.0894
  230MOL0     H31019   4.171   9.398  11.058  0.6234  0.3155  0.4228
  230MOL0     H31020   4.269   9.684  11.055 -0.4960 -0.2241  2.0635
  230MOL0     H31021   4.321   9.560  10.931 -2.4563 -0.1503 -1.1299
  230MOL0     H31022   4.413   9.414  11.100 -2.2648 -0.1298 -2.0837
  230MOL0     H31023   4.378   9.545  11.219  1.4560  0.4271 -0.0002
  230MOL0     H31024   4.541   9.592  10.972 -1.0642 -0.8010  0.3861
  230MOL0     H31025   4.515   9.703  11.113 -3.1356 -0.4680 -0.0619
  230MOL0     H31026   4.741   9.565  11.083  0.6436 -0.8499 -2.4926
  230MOL0     H31027   4.645   9.430  11.119  1.6674  0.9129  0.9475
  230MOL0     H31028   4.715   9.675  11.309 -1.9579  0.5527  1.2252
  230MOL0     H31029   4.590   9.575  11.356 -0.7720 -3.0835 -1.6364
  230MOL0     H31030   3.760   9.270  10.960  0.3428  0.9604  0.9434
  230MOL0     H31031   3.572   9.144  10.863  1.8206  0.5849  3.0756
  230MOL0     H31032   3.435   9.018  10.452 -1.0627 -1.0373  0.1512
  230MOL0     H31033   3.312   8.959  10.258  1.5455 -1.0885  2.3977
  230MOL0     H31034   1.964   9.290   9.957  0.3363 -0.9911 -0.5325
  230MOL0     H31035   1.807   9.483   9.932  2.7352  0.6405  0.1953
  230MOL0     H31036   1.384   9.581   9.716 -3.1456  0.0538 -1.9261
  230MOL0     H31037   1.182   9.749   9.638  0.2580  0.1431 -0.8058
  230MOL0     H31038   1.263  10.159   9.543 -1.3414 -0.9370 -1.9252
  230MOL0     H31039   1.267  10.168   9.714 -1.3204 -1.7124  1.5316
  230MOL0     H31040   1.082  10.290   9.637  2.9008 -0.9653  1.5674
  230MOL0     H31041   1.020  10.165   9.737 -2.2194  0.6601 -1.1189
  230MOL0     H31042   0.955  10.038   9.534 -5.0408  0.5695  1.9804
  230MOL0     H31043   1.006  10.185   9.438 -1.1106 -1.4346 -1.1442
  230MOL0     H31044   0.755  10.149   9.482 -1.9235  1.4297 -0.5944
  230MOL0     H31045   0.791  10.153   9.650  0.4512 -3.2902 -1.2219
  230MOL0     H31046   0.687  10.535   9.609  0.1845 -1.3258  3.0849
  230MOL0     H31047   1.441  10.076   9.706 -1.1561  0.5529 -1.5272
  230MOL0     H31048   1.701   9.981   9.882 -1.4994 -4.1319  1.0390
  230MOL0     H31049   1.765   9.882   9.755  0.5173 -0.2050  1.1296
  230MOL0     H31050   1.688  10.037   9.723 -1.6910  1.8624  3.0205
  231MOL0     O31051   0.197   4.180   1.357  0.2118 -0.2219  0.2904
  231MOL0     C31052   0.098   4.118   1.393  0.6242 -0.8676 -0.7418
  231MOL0     O31053   0.007   4.063   1.309  0.3389  1.0359 -0.1446
  231MOL0     C31054   0.010   4.096   1.179 -0.0177 -0.5926 -0.5138
  231MOL0     C31055  -0.020   4.226   1.133 -0.6597 -0.4019 -0.5732
  231MOL0     C31056  -0.039   4.244   1.001  0.4712 -0.3659  0.4506
  231MOL0     C31057  -0.026   4.149   0.903  0.3706 -0.5431 -0.5267
  231MOL0     O31058  -0.060   4.200   0.781  0.0528 -0.1660 -0.2989
  231MOL0     C31059  -0.063   4.120   0.665 -0.5262 -1.0952 -0.9257
  231MOL0     C31060  -0.153   4.175   0.541  0.5112  0.5592 -0.5446
  231MOL0     C31061  -0.286   4.245   0.583  0.7125  0.2264  0.1421
  231MOL0     C31062  -0.409   4.156   0.589  0.0352 -0.0098 -0.2441
  231MOL0     C31063  -0.546   4.235   0.610 -0.1985 -0.3242  0.5226
  231MOL0     C31064  -0.674   4.143   0.587  0.0267 -0.6892 -0.0518
  231MOL0     C31065  -0.688   4.051   0.697 -0.7321 -0.1665  0.0399
  231MOL0     C31066  -0.788   3.942   0.660  0.0175 -0.2959  0.4627
  231MOL0     N31067  -0.725   3.817   0.606  1.0347 -0.9813 -0.1651
  231MOL0     C31068  -0.771   3.696   0.662  0.6097 -0.1294 -0.6266
  231MOL0     C31069  -0.681   3.607   0.603 -0.1645 -0.7468  0.1477
  231MOL0     C31070  -0.674   3.468   0.630  0.2451  1.0688  0.3857
  231MOL0     C31071  -0.582   3.434   0.749 -0.6847  0.2874  0.0279
  231MOL0     C31072  -0.649   3.456   0.888 -0.4313  0.6851 -0.2715
  231MOL0     C31073  -0.544   3.439   0.991 -0.8414  0.1689 -0.5335
  231MOL0     O31074  -0.499   3.306   1.007  0.7614  0.3916 -0.3434
  231MOL0     C31075  -0.410   3.275   1.106  0.3664  0.3010 -0.4492
  231MOL0     C31076  -0.356   3.363   1.200 -0.0050 -0.4433  0.7062
  231MOL0     C31077  -0.269   3.315   1.300  0.3250 -0.1831 -0.8729
  231MOL0     C31078  -0.215   3.175   1.294 -0.1118  0.6564  0.4801
  231MOL0     C31079  -0.109   3.120   1.379 -0.3350 -0.5376 -0.1933
  231MOL0     O31080  -0.079   2.993   1.376 -0.3997 -0.6402 -0.0454
  231MOL0     C31081   0.052   2.949   1.374  0.6588  0.7189 -0.6567
  231MOL0     C31082   0.165   3.021   1.384 -0.5258 -0.5682 -0.0187
  231MOL0     C31083   0.299   2.975   1.383  0.8689 -0.3127 -0.2260
  231MOL0     C31084   0.316   2.840   1.362 -0.2951 -0.8369  0.2081
  231MOL0     O31085   0.445   2.796   1.360  0.3925  0.0541  0.3421
  231MOL0     C31086   0.487   2.672   1.420 -0.3810  0.8194  0.1856
  231MOL0     C31087   0.634   2.681   1.458 -0.3123  0.3170 -1.0944
  231MOL0     C31088   0.666   2.796   1.564  1.0152 -0.3696  0.2065
  231MOL0     C31089   0.803   2.843   1.607  0.6545  0.3447 -0.6859
  231MOL0     C31090   0.908   2.868   1.501  0.2016  0.7685 -0.0349
  231MOL0     C31091   0.862   2.959   1.386 -0.6826 -0.0461  0.2405
  231MOL0     C31092   0.978   2.986   1.288 -0.1482  0.4394  0.2734
  231MOL0     C31093   0.982   3.121   1.235 -0.5385  0.6531  0.3952
  231MOL0    Cl31094   1.013   3.247   1.352 -0.3246  0.1329 -0.4360
  231MOL0     C31095   0.210   2.757   1.354  1.5744 -0.2612  0.4773
  231MOL0     C31096   0.079   2.810   1.353 -0.0816  0.1486 -0.7842
  231MOL0     O31097  -0.057   3.195   1.453 -0.0628  0.0000  0.1848
  231MOL0     C31098  -0.262   3.097   1.185 -0.8460  0.0426 -0.0819
  231MOL0     C31099  -0.360   3.143   1.099 -0.5981  0.8020 -0.3468
  231MOL0     N31100  -0.583   3.677   0.527  0.2617 -0.5833 -0.6033
  231MOL0     N31101  -0.609   3.805   0.530 -0.4501 -0.7970  1.3295
  231MOL0     C31102   0.018   4.027   0.947 -0.8365  0.2147  1.0685
  231MOL0     C31103   0.042   3.994   1.081 -0.1166 -0.6788 -0.5119
  231MOL0     C31104   0.084   4.095   1.533  0.6540  0.1686  1.1424
  231MOL0     C31105   0.010   3.981   1.567 -0.2584  0.6242 -0.2603
  231MOL0     C31106  -0.012   3.944   1.697  1.7975 -0.1100 -0.1213
  231MOL0     C31107   0.050   4.025   1.796  1.1210  0.6631 -0.6356
  231MOL0     O31108   0.030   3.984   1.925 -0.8808  0.6469 -0.5081
  231MOL0     C31109  -0.033   4.073   2.025  0.2802  0.2514  0.6335
  231MOL0     C31110  -0.158   4.010   2.064  0.5658  0.2994  1.0121
  231MOL0     C31111  -0.158   3.866   2.113  0.4190 -0.2712 -0.3153
  231MOL0     C31112  -0.283   3.777   2.092  0.5608  0.0459  0.5915
  231MOL0     C31113  -0.409   3.855   2.120 -0.2022  0.2010 -0.7943
  231MOL0     C31114  -0.516   3.899   2.125  0.7571 -0.2168  0.3047
  231MOL0     C31115   0.116   4.148   1.764  0.3834 -0.9607  1.6597
  231MOL0     C31116   0.136   4.188   1.631  0.5322 -0.5566 -0.3941
  231MOL0     C31117   0.219   4.313   1.603  0.6636  0.9513 -0.3242
  231MOL0     H31118  -0.039   4.310   1.200 -1.5104 -0.4734 -0.7182
  231MOL0     H31119  -0.072   4.345   0.978  1.2782 -0.7192 -2.7092
  231MOL0     H31120   0.037   4.099   0.625 -0.1428  0.2509 -0.7129
  231MOL0     H31121  -0.099   4.019   0.690  1.8167 -1.6477  0.5046
  231MOL0     H31122  -0.186   4.090   0.480 -0.4620  2.0376 -2.1495
  231MOL0     H31123  -0.088   4.238   0.481  1.0097 -0.8821 -1.5670
  231MOL0     H31124  -0.318   4.332   0.524 -1.2070  0.3344  1.2631
  231MOL0     H31125  -0.264   4.288   0.682  2.1433  0.3632 -0.2128
  231MOL0     H31126  -0.419   4.108   0.491 -1.3893  1.6725 -0.9912
  231MOL0     H31127  -0.393   4.087   0.673  1.5406  0.1950 -0.3314
  231MOL0     H31128  -0.557   4.278   0.710  0.9190 -3.1427  1.9711
  231MOL0     H31129  -0.551   4.309   0.529 -1.4247 -2.2121 -1.2433
  231MOL0     H31130  -0.763   4.206   0.589  1.4472  1.4118  1.3585
  231MOL0     H31131  -0.653   4.090   0.494 -0.9768 -2.5871  0.7395
  231MOL0     H31132  -0.716   4.098   0.792 -3.2401  1.2836 -1.3057
  231MOL0     H31133  -0.593   4.003   0.722 -1.5581 -2.0165 -0.2195
  231MOL0     H31134  -0.858   3.930   0.743 -1.3333  2.0645 -0.2263
  231MOL0     H31135  -0.851   3.996   0.588  1.7228  0.4475 -0.5246
  231MOL0     H31136  -0.846   3.649   0.725 -0.9471 -5.7473 -5.7734
  231MOL0     H31137  -0.776   3.434   0.652 -0.5988  1.8992 -1.9392
  231MOL0     H31138  -0.645   3.414   0.540 -0.5424 -1.6547  1.6405
  231MOL0     H31139  -0.545   3.332   0.758 -2.1785 -0.2488  0.3802
  231MOL0     H31140  -0.496   3.501   0.738 -2.8707  3.0940 -1.1952
  231MOL0     H31141  -0.736   3.392   0.903 -0.7162  1.3079  0.8632
  231MOL0     H31142  -0.676   3.562   0.880  1.4595  1.1263 -1.4189
  231MOL0     H31143  -0.579   3.470   1.090  0.1094 -1.3959  0.3325
  231MOL0     H31144  -0.457   3.498   0.960 -1.9083  2.4617  0.6127
  231MOL0     H31145  -0.386   3.467   1.207  0.2811 -0.2940 -0.1844
  231MOL0     H31146  -0.247   3.402   1.361 -0.9719 -1.5085  1.6117
  231MOL0     H31147   0.145   3.127   1.385 -0.7050 -0.5850 -0.7196
  231MOL0     H31148   0.386   3.038   1.391 -1.2413  2.8645 -0.6736
  231MOL0     H31149   0.438   2.659   1.517  1.6144 -0.6176  1.0676
  231MOL0     H31150   0.465   2.578   1.368 -0.6361 -0.5066  2.5467
  231MOL0     H31151   0.675   2.587   1.498 -0.1664  0.5082 -0.7939
  231MOL0     H31152   0.692   2.686   1.365 -1.5127  2.8484 -1.7736
  231MOL0     H31153   0.625   2.888   1.520 -1.7484 -0.8090  1.6030
  231MOL0     H31154   0.602   2.776   1.650 -0.5580  1.4728 -0.4703
  231MOL0     H31155   0.848   2.774   1.680  0.5134 -1.6810 -2.4311
  231MOL0     H31156   0.783   2.934   1.664 -0.4969  0.5332 -1.3786
  231MOL0     H31157   0.929   2.771   1.455 -0.6004  0.6340 -0.1487
  231MOL0     H31158   0.990   2.924   1.546  1.0300  0.8133 -1.5476
  231MOL0     H31159   0.788   2.915   1.319 -0.0329 -0.1827 -0.3947
  231MOL0     H31160   0.822   3.050   1.431 -0.4614  0.7561 -1.1306
  231MOL0     H31161   0.976   2.923   1.198  3.3047 -1.8640  1.5841
  231MOL0     H31162   1.073   2.961   1.337  0.3214  0.4529 -0.5970
  231MOL0     H31163   1.065   3.114   1.163 -0.4907 -1.0566  0.5677
  231MOL0     H31164   0.888   3.131   1.181 -1.2329  1.3603  1.6951
  231MOL0     H31165   0.236   2.658   1.319  0.0864  0.2468 -2.3078
  231MOL0     H31166  -0.000   2.740   1.327 -1.8133  2.1731 -1.1479
  231MOL0     H31167  -0.228   2.996   1.165  0.4943  0.4295  0.1472
  231MOL0     H31168  -0.394   3.073   1.024 -2.6014  1.2214  0.1052
  231MOL0     H31169   0.016   3.946   0.875 -1.0301  2.0752 -1.1507
  231MOL0     H31170   0.075   3.894   1.106 -0.8861 -1.0203 -0.8371
  231MOL0     H31171  -0.029   3.914   1.491  2.1627  0.5612 -1.5515
  231MOL0     H31172  -0.072   3.858   1.728 -1.4050  2.9230  3.0375
  231MOL0     H31173  -0.060   4.170   1.983 -1.2883 -1.2049 -1.9561
  231MOL0     H31174   0.035   4.076   2.111 -1.2982 -3.7333  2.2786
  231MOL0     H31175  -0.221   4.015   1.974 -0.1233  3.3503  1.5835
  231MOL0     H31176  -0.207   4.076   2.136  2.1723  1.6346  0.9258
  231MOL0     H31177  -0.132   3.879   2.219 -1.6617 -0.3255  0.2473
  231MOL0     H31178  -0.075   3.814   2.066  1.8587  0.5889  1.1778
  231MOL0     H31179  -0.289   3.728   1.994 -1.2859 -1.0323  1.1802
  231MOL0     H31180  -0.292   3.699   2.168 -0.5225  0.3159  0.7614
  231MOL0     H31181  -0.616   3.937   2.119  1.8776  2.8245 -1.2808
  231MOL0     H31182   0.174   4.203   1.837  0.7792 -0.1501  0.7539
  231MOL0     H31183   0.211   4.372   1.511  1.1207  2.1637  0.3979
  231MOL0     H31184   0.205   4.377   1.690 -2.1106  1.6259 -1.1531
  231MOL0     H31185   0.324   4.284   1.609  0.6624  1.0442  0.1543
  232MOL0     O31186   0.545   2.105   0.387  0.2781  0.1087 -0.5444
  232MOL0     C31187   0.573   2.067   0.498 -1.2337 -1.4493  0.6902
  232MOL0     O31188   0.697   2.015   0.531 -0.6824  0.3927  0.0627
  232MOL0     C31189   0.796   2.007   0.427  0.8031 -0.1715 -0.4361
  232MOL0     C31190   0.830   2.116   0.350 -0.1384 -0.9609  0.5426
  232MOL0     C31191   0.927   2.105   0.247  0.3511 -0.7143 -0.8352
  232MOL0     C31192   1.005   1.991   0.224  1.0419 -0.3815  0.6428
  232MOL0     O31193   1.109   1.979   0.130  0.8579  0.2810 -0.0620
  232MOL0     C31194   1.146   2.089   0.057 -0.3172 -1.1765  0.2798
  232MOL0     C31195   1.269   2.051  -0.026  0.7965  1.0388  0.7153
  232MOL0     C31196   1.403   2.083   0.022  0.1344  0.7039  0.5821
  232MOL0     C31197   1.514   2.060  -0.085 -0.8760 -0.3800 -0.1602
  232MOL0     C31198   1.653   2.097  -0.037  0.2618 -0.6495 -0.5034
  232MOL0     C31199   1.670   2.249  -0.063 -0.2386 -0.1208 -0.7373
  232MOL0     C31200   1.803   2.316  -0.013 -0.0083  0.0401 -0.9949
  232MOL0     C31201   1.810   2.295   0.130  0.2141  0.3693 -0.0445
  232MOL0     N31202   1.708   2.369   0.205 -0.2113  0.8971  0.0210
  232MOL0     C31203   1.684   2.504   0.183  0.3098 -0.3580  1.1053
  232MOL0     C31204   1.592   2.530   0.285 -0.0430 -0.3959  0.4506
  232MOL0     C31205   1.570   2.671   0.329 -0.0965 -0.2812 -0.1114
  232MOL0     C31206   1.591   2.782   0.216 -0.3427 -0.9979 -0.4674
  232MOL0     C31207   1.556   2.925   0.280 -0.2935  1.0885 -0.0196
  232MOL0     C31208   1.664   2.973   0.376 -0.7813  0.1299 -0.3005
  232MOL0     O31209   1.797   2.974   0.331  0.5363 -0.2338 -0.2858
  232MOL0     C31210   1.841   3.078   0.252 -0.5945  0.0779  0.2723
  232MOL0     C31211   1.968   3.065   0.206 -0.0572  0.6542  0.0702
  232MOL0     C31212   2.032   3.165   0.138 -0.3080  0.4756  0.5072
  232MOL0     C31213   1.966   3.287   0.103  0.0181  0.2297 -0.2079
  232MOL0     C31214   2.038   3.395   0.042  0.9417  0.6835  1.0951
  232MOL0     O31215   1.969   3.479  -0.041 -0.1843  0.6580 -0.3180
  232MOL0     C31216   2.015   3.606  -0.058  0.1636 -0.3312  0.4626
  232MOL0     C31217   2.125   3.650  -0.120 -0.1909  0.1017  0.2218
  232MOL0     C31218   2.163   3.781  -0.132  0.2084  0.0079 -0.4450
  232MOL0     C31219   2.072   3.880  -0.092 -0.4566 -0.4109  0.6733
  232MOL0     O31220   2.089   4.012  -0.125  1.6038  0.1884 -0.2196
  232MOL0     C31221   2.211   4.056  -0.192  0.1251 -0.1173 -0.0363
  232MOL0     C31222   2.216   4.023  -0.337 -0.5245 -0.0217  0.0986
  232MOL0     C31223   2.318   4.114  -0.402  0.5820 -0.7378  0.6519
  232MOL0     C31224   2.293   4.104  -0.564 -0.9800  0.2366  0.2760
  232MOL0     C31225   2.405   4.183  -0.648 -0.6522 -1.4470  0.2511
  232MOL0     C31226   2.456   4.320  -0.594 -0.5036 -1.0760  0.6459
  232MOL0     C31227   2.579   4.388  -0.671  0.8930  0.1252  0.6927
  232MOL0     C31228   2.629   4.503  -0.585  0.2001 -0.1181  0.6193
  232MOL0    Cl31229   2.484   4.617  -0.591 -0.0124 -0.1291 -0.3759
  232MOL0     C31230   1.954   3.834  -0.047  0.9958  0.0922 -1.2167
  232MOL0     C31231   1.920   3.701  -0.018 -0.2418 -0.4451 -0.8551
  232MOL0     O31232   2.155   3.400   0.065 -0.0866 -0.1634  0.4399
  232MOL0     C31233   1.833   3.301   0.154  0.5625 -0.2915 -0.2896
  232MOL0     C31234   1.770   3.196   0.219 -0.2170  0.7083  0.4679
  232MOL0     N31235   1.552   2.415   0.339  0.9081 -0.7372  0.0317
  232MOL0     N31236   1.622   2.314   0.295  0.0528 -0.1546  0.6045
  232MOL0     C31237   0.974   1.880   0.309  0.5272  0.3340 -0.5162
  232MOL0     C31238   0.865   1.884   0.407  0.3156  0.2568 -0.3239
  232MOL0     C31239   0.480   2.086   0.608  0.3294 -0.6602  1.2999
  232MOL0     C31240   0.526   2.145   0.728 -0.3528  0.0223  0.3500
  232MOL0     C31241   0.422   2.154   0.825  0.1863  0.1317 -0.4195
  232MOL0     C31242   0.290   2.121   0.799 -0.4422 -0.4750  1.1493
  232MOL0     O31243   0.203   2.128   0.897  0.2355 -0.2738  0.2965
  232MOL0     C31244   0.183   2.252   0.964  0.0924 -0.1997  0.5034
  232MOL0     C31245   0.242   2.242   1.111 -0.2406 -0.1807 -0.2790
  232MOL0     C31246   0.181   2.123   1.193  0.0700 -0.2472  0.1876
  232MOL0     C31247   0.049   2.163   1.263  0.3826 -1.1591 -0.3657
  232MOL0     C31248   0.063   2.270   1.365 -0.5001  0.2214  0.4023
  232MOL0     C31249   0.091   2.355   1.450  0.1930  0.1654  0.0288
  232MOL0     C31250   0.256   2.065   0.679  0.5801 -0.0567 -0.5857
  232MOL0     C31251   0.348   2.043   0.587  0.7991 -0.0676  0.1295
  232MOL0     C31252   0.299   1.979   0.468  0.4120  0.1194  0.6894
  232MOL0     H31253   0.769   2.204   0.367 -0.8600 -1.9641  3.8845
  232MOL0     H31254   0.943   2.192   0.184 -0.2228 -0.2197 -0.3237
  232MOL0     H31255   1.069   2.122  -0.013  2.1457  0.5639 -1.8124
  232MOL0     H31256   1.184   2.174   0.115  2.5170  0.3027 -3.3570
  232MOL0     H31257   1.258   2.119  -0.111  0.5031  0.3969  0.2266
  232MOL0     H31258   1.264   1.948  -0.062 -1.9995  1.8905 -1.8205
  232MOL0     H31259   1.414   2.013   0.104 -0.7165 -0.0331  0.0767
  232MOL0     H31260   1.408   2.185   0.061  1.0190 -0.1784  2.9175
  232MOL0     H31261   1.509   1.952  -0.102 -2.7522 -0.1362 -1.5749
  232MOL0     H31262   1.485   2.109  -0.179 -4.7545  1.0355  1.5342
  232MOL0     H31263   1.677   2.061   0.063  0.1498 -3.8213 -1.5193
  232MOL0     H31264   1.724   2.046  -0.102  1.5976 -0.9874  1.1614
  232MOL0     H31265   1.667   2.262  -0.172 -2.8565 -0.5037 -0.7798
  232MOL0     H31266   1.585   2.308  -0.030  0.6683 -0.5878  2.8595
  232MOL0     H31267   1.790   2.423  -0.035 -1.1498  0.0202 -0.4953
  232MOL0     H31268   1.888   2.262  -0.055  0.8402  0.0402  0.6781
  232MOL0     H31269   1.797   2.188   0.151 -1.5812 -0.1431 -3.1353
  232MOL0     H31270   1.911   2.315   0.166 -0.4225 -0.7810  2.5582
  232MOL0     H31271   1.742   2.572   0.121 -1.0428  0.7805  1.0377
  232MOL0     H31272   1.467   2.688   0.360  0.1164 -0.2722  0.6221
  232MOL0     H31273   1.641   2.691   0.410  1.0657 -0.1375 -1.1294
  232MOL0     H31274   1.694   2.785   0.178 -0.6350  0.0693 -1.2153
  232MOL0     H31275   1.523   2.773   0.130  0.2131 -1.0067 -0.9178
  232MOL0     H31276   1.471   2.919   0.349 -0.6467  1.3135 -0.4339
  232MOL0     H31277   1.549   2.993   0.195  2.7273 -2.6177 -3.5695
  232MOL0     H31278   1.673   2.902   0.458  0.1683 -0.4421 -0.8791
  232MOL0     H31279   1.624   3.067   0.416 -1.3211  0.1396 -0.8448
  232MOL0     H31280   2.023   2.973   0.221 -1.4927  0.2791  4.8024
  232MOL0     H31281   2.134   3.144   0.108 -0.7651  0.7202 -1.3151
  232MOL0     H31282   2.185   3.569  -0.161 -0.5686  0.4430 -1.0174
  232MOL0     H31283   2.265   3.806  -0.159  0.3731  0.9331  0.9491
  232MOL0     H31284   2.228   4.163  -0.177 -1.1026 -0.0730  1.2759
  232MOL0     H31285   2.301   4.026  -0.137  1.0368  3.3493  0.6229
  232MOL0     H31286   2.240   3.918  -0.352  0.7450  0.3186 -0.4563
  232MOL0     H31287   2.117   4.046  -0.376 -0.1512  1.1456 -0.2060
  232MOL0     H31288   2.305   4.217  -0.369  1.6088 -1.0391  2.0910
  232MOL0     H31289   2.417   4.077  -0.374 -1.1507 -4.1631  2.9811
  232MOL0     H31290   2.197   4.148  -0.593 -1.0144 -0.6057 -0.9741
  232MOL0     H31291   2.293   3.997  -0.586  1.7257  0.4724 -1.2825
  232MOL0     H31292   2.370   4.211  -0.747  1.4550  0.4565 -0.0395
  232MOL0     H31293   2.498   4.126  -0.649  0.1123 -0.3500  2.3534
  232MOL0     H31294   2.369   4.386  -0.602 -0.5504 -1.3646 -2.9120
  232MOL0     H31295   2.493   4.305  -0.492  0.2274  0.1578  0.5803
  232MOL0     H31296   2.551   4.408  -0.775 -1.1907  1.1420  1.3871
  232MOL0     H31297   2.657   4.313  -0.685 -0.2866 -1.3482  1.7796
  232MOL0     H31298   2.653   4.469  -0.484 -2.5587 -0.1237  1.3500
  232MOL0     H31299   2.721   4.548  -0.625  0.1617  0.7760  1.4983
  232MOL0     H31300   1.872   3.906  -0.051 -0.3650 -1.4257 -1.5441
  232MOL0     H31301   1.826   3.680   0.031 -0.0002 -2.1953 -1.0835
  232MOL0     H31302   1.777   3.392   0.136 -2.7478 -2.2952 -0.8714
  232MOL0     H31303   1.665   3.217   0.236  0.0217  2.4137  0.0501
  232MOL0     H31304   1.023   1.783   0.296 -0.2234 -0.2519  0.8146
  232MOL0     H31305   0.851   1.807   0.482  1.5414  0.8474  0.5407
  232MOL0     H31306   0.627   2.184   0.741 -0.1336 -0.1330 -0.8158
  232MOL0     H31307   0.463   2.180   0.922  2.3079 -2.6944 -0.4183
  232MOL0     H31308   0.077   2.278   0.955  0.3996  0.9521  0.1422
  232MOL0     H31309   0.241   2.334   0.923 -0.5438  0.4441  0.8676
  232MOL0     H31310   0.224   2.340   1.156  0.5273  0.3746 -1.1503
  232MOL0     H31311   0.349   2.222   1.097  0.1334  0.1226  1.8214
  232MOL0     H31312   0.251   2.082   1.266 -0.5765 -0.0711  0.9245
  232MOL0     H31313   0.139   2.041   1.133 -2.3123  0.5766  0.6276
  232MOL0     H31314  -0.036   2.180   1.195 -2.0383 -1.8374  2.2762
  232MOL0     H31315   0.007   2.080   1.320  0.7181 -0.7419  0.5021
  232MOL0     H31316   0.121   2.426   1.524 -0.5162  0.6264 -0.1144
  232MOL0     H31317   0.151   2.036   0.677  1.1333 -2.3980  0.6084
  232MOL0     H31318   0.232   1.901   0.505 -1.7229  1.4663 -0.1355
  232MOL0     H31319   0.239   2.049   0.410 -0.9343 -1.3892  0.1909
  232MOL0     H31320   0.374   1.931   0.404 -0.1814 -3.4091  2.4103
  233MOL0     O31321   7.520   0.236   9.899 -0.3854 -0.0989  0.4982
  233MOL0     C31322   7.509   0.115   9.922  0.1012  0.7610 -1.0719
  233MOL0     O31323   7.559   0.052  10.043  0.2657  0.8040  0.1410
  233MOL0     C31324   7.614   0.130  10.134  0.8969  0.0384  0.2182
  233MOL0     C31325   7.748   0.180  10.127  0.1455  0.2546  1.0091
  233MOL0     C31326   7.806   0.254  10.229 -1.4261  0.2671  0.1804
  233MOL0     C31327   7.730   0.296  10.334  0.3371 -0.1785 -0.0373
  233MOL0     O31328   7.775   0.401  10.430  0.3177  0.1599 -0.5616
  233MOL0     C31329   7.916   0.412  10.458  0.2047  0.6289 -0.0411
  233MOL0     C31330   7.928   0.502  10.582 -0.0964 -0.6752  0.5457
  233MOL0     C31331   8.068   0.476  10.646  0.0094 -0.5323 -0.0106
  233MOL0     C31332   8.082   0.541  10.789 -0.5355  0.2859 -0.1722
  233MOL0     C31333   8.229   0.528  10.839  0.0501  0.1278  0.5088
  233MOL0     C31334   8.318   0.638  10.776 -0.1576  0.4279  0.0750
  233MOL0     C31335   8.458   0.637  10.849  0.1292 -0.1439  0.0473
  233MOL0     C31336   8.542   0.522  10.804  0.8622 -0.3979  0.3304
  233MOL0     N31337   8.679   0.525  10.856 -0.2746 -0.1183 -0.0356
  233MOL0     C31338   8.734   0.408  10.896  0.2831 -0.9456 -0.0901
  233MOL0     C31339   8.865   0.429  10.902  0.5568 -0.5415 -0.4378
  233MOL0     C31340   8.970   0.323  10.953 -0.0775  0.4284  0.7249
  233MOL0     C31341   8.916   0.188  10.997  0.2823  0.3803 -0.8174
  233MOL0     C31342   9.009   0.078  11.051 -1.1921  0.4905  0.4132
  233MOL0     C31343   9.115   0.132  11.153  0.4580 -0.1300 -0.4557
  233MOL0     O31344   9.183   0.030  11.240  0.0024 -0.2017  0.9229
  233MOL0     C31345   9.123   0.008  11.362 -0.1653  0.1234 -0.7513
  233MOL0     C31346   9.138   0.099  11.476 -0.0662  0.3650 -0.9456
  233MOL0     C31347   9.087   0.066  11.599 -0.0243 -0.0264  0.0395
  233MOL0     C31348   9.030  -0.061  11.620  0.7476 -0.4871 -0.2189
  233MOL0     C31349   8.973  -0.107  11.755  0.6460 -0.7849  0.5093
  233MOL0     O31350   8.978  -0.252  11.773  1.2704  0.0751 -0.1206
  233MOL0     C31351   8.956  -0.302  11.898 -0.4440 -0.2015  0.0859
  233MOL0     C31352   9.052  -0.278  11.999  0.2086 -0.8542  1.0358
  233MOL0     C31353   9.027  -0.310  12.131  1.0546  0.5022  0.4986
  233MOL0     C31354   8.915  -0.380  12.174  0.3636 -0.0485 -0.6578
  233MOL0     O31355   8.880  -0.417  12.302 -1.0981 -0.0396 -0.4542
  233MOL0     C31356   8.922  -0.324  12.410 -0.1131 -0.0350  0.8260
  233MOL0     C31357   8.996  -0.419  12.510  0.1878  0.0751  0.8756
  233MOL0     C31358   8.917  -0.379  12.647  0.5591 -0.2571  1.1669
  233MOL0     C31359   8.953  -0.472  12.763 -0.1838 -0.0522  0.5825
  233MOL0     C31360   8.874  -0.451  12.896 -0.7160 -0.7583  0.7408
  233MOL0     C31361   8.943  -0.529  13.006 -0.1258  0.4133  0.8314
  233MOL0     C31362   8.880  -0.553  13.142  0.1393 -0.0700 -0.2941
  233MOL0     C31363   8.861  -0.423  13.218 -1.2413  0.2753  1.1328
  233MOL0    Cl31364   8.787  -0.468  13.374  0.7095  0.4085 -0.0910
  233MOL0     C31365   8.832  -0.419  12.069  1.7659 -0.5222  0.0805
  233MOL0     C31366   8.847  -0.382  11.930  0.1701 -0.8230 -0.1057
  233MOL0     O31367   8.918  -0.024  11.821  1.0990 -0.3733 -0.0877
  233MOL0     C31368   9.015  -0.152  11.507 -0.5328  0.7885 -0.0082
  233MOL0     C31369   9.070  -0.113  11.381 -0.8195 -0.1838  0.6950
  233MOL0     N31370   8.889   0.562  10.870  0.8884 -0.0520 -0.0561
  233MOL0     N31371   8.782   0.619  10.832 -0.8067  0.0470  0.5618
  233MOL0     C31372   7.595   0.245  10.348  0.3383  0.2985 -0.1849
  233MOL0     C31373   7.541   0.166  10.249  0.1192 -0.5912 -0.2715
  233MOL0     C31374   7.428   0.016   9.831  0.4620 -0.5247  0.1561
  233MOL0     C31375   7.385  -0.112   9.883 -1.1363 -0.5633 -0.2174
  233MOL0     C31376   7.321  -0.210   9.805  0.3076 -0.2238  0.4715
  233MOL0     C31377   7.292  -0.180   9.675  0.0094  1.3657  0.0577
  233MOL0     O31378   7.226  -0.274   9.596 -0.2621 -0.0463  0.5165
  233MOL0     C31379   7.304  -0.399   9.582 -0.6617 -0.4002 -0.5366
  233MOL0     C31380   7.241  -0.491   9.482 -0.3463 -0.0501 -0.4709
  233MOL0     C31381   7.257  -0.446   9.335 -0.0089  0.7941 -0.0159
  233MOL0     C31382   7.407  -0.473   9.278  0.2172  0.1959  0.1410
  233MOL0     C31383   7.462  -0.343   9.283  0.6128 -0.2709 -0.4665
  233MOL0     C31384   7.499  -0.228   9.300 -0.0667  0.1632  0.5517
  233MOL0     C31385   7.322  -0.052   9.628 -0.7099 -1.0890  0.5746
  233MOL0     C31386   7.385   0.051   9.703  0.1516  0.4501 -0.1836
  233MOL0     C31387   7.399   0.182   9.629  0.5528  1.2560  0.3597
  233MOL0     H31388   7.797   0.156  10.034  1.2461 -0.6980  1.8055
  233MOL0     H31389   7.904   0.296  10.212 -1.2712 -0.1501  0.0270
  233MOL0     H31390   7.969   0.317  10.468  3.3839  2.2750  0.3139
  233MOL0     H31391   7.971   0.470  10.382  2.8095 -2.0448 -0.3924
  233MOL0     H31392   7.854   0.478  10.659  1.0379  1.7720  2.5393
  233MOL0     H31393   7.917   0.607  10.552 -1.2399 -0.9734 -0.1626
  233MOL0     H31394   8.132   0.521  10.571  0.9936 -1.0380  0.5055
  233MOL0     H31395   8.102   0.373  10.638 -0.4986 -0.6560 -0.6352
  233MOL0     H31396   8.048   0.644  10.792 -2.1867 -0.2527  2.1679
  233MOL0     H31397   8.004   0.487  10.843 -0.1177 -0.6008 -0.4189
  233MOL0     H31398   8.235   0.547  10.947  3.5552  3.7344 -0.0876
  233MOL0     H31399   8.271   0.429  10.817 -0.6031  0.0204 -0.2818
  233MOL0     H31400   8.334   0.618  10.670  1.5802 -1.9804  0.6892
  233MOL0     H31401   8.273   0.737  10.780  0.7452  0.8921 -0.7739
  233MOL0     H31402   8.436   0.622  10.955  0.2237 -3.1972 -0.2666
  233MOL0     H31403   8.510   0.729  10.821  0.0855  0.6961  2.4785
  233MOL0     H31404   8.494   0.429  10.838 -0.3967  0.1255  0.0361
  233MOL0     H31405   8.554   0.510  10.696  2.8846 -1.2173  0.5943
  233MOL0     H31406   8.690   0.312  10.920 -1.9438 -0.3406 -1.4406
  233MOL0     H31407   9.041   0.303  10.872  1.5153  0.3778  2.0718
  233MOL0     H31408   9.018   0.368  11.041  0.3344 -0.5562  1.0245
  233MOL0     H31409   8.850   0.207  11.082 -0.9409  0.7902 -1.8281
  233MOL0     H31410   8.857   0.151  10.913  2.3976 -0.1589 -2.1257
  233MOL0     H31411   9.060   0.021  10.973 -0.6449 -2.2555  2.6113
  233MOL0     H31412   8.946  -0.000  11.094 -1.6602  1.0350  0.7388
  233MOL0     H31413   9.065   0.214  11.205 -0.4402  0.2555 -1.8501
  233MOL0     H31414   9.194   0.178  11.094  2.6416 -0.5911  1.9469
  233MOL0     H31415   9.201   0.186  11.459  1.2610 -0.6231 -1.2995
  233MOL0     H31416   9.107   0.136  11.680  5.0318  0.3150 -1.1376
  233MOL0     H31417   9.151  -0.235  11.984 -0.4316  0.5144  0.6598
  233MOL0     H31418   9.114  -0.269  12.181  2.6319  3.2299 -3.9316
  233MOL0     H31419   8.997  -0.255  12.371  2.7539 -0.9420  4.1892
  233MOL0     H31420   8.833  -0.271  12.443 -0.8562  0.5472 -1.8608
  233MOL0     H31421   8.986  -0.523  12.478  2.7868 -1.0942  3.4861
  233MOL0     H31422   9.104  -0.403  12.514  0.3003 -0.3838 -0.0349
  233MOL0     H31423   8.939  -0.275  12.676 -0.3509  0.6418 -1.1730
  233MOL0     H31424   8.809  -0.392  12.641  0.8181 -2.3120  0.0841
  233MOL0     H31425   9.057  -0.457  12.791  0.2410 -0.3969 -0.7842
  233MOL0     H31426   8.934  -0.572  12.723  0.1417  1.4543 -3.8400
  233MOL0     H31427   8.769  -0.479  12.890 -0.4626 -1.6306  0.2945
  233MOL0     H31428   8.881  -0.344  12.918  1.5229 -0.3519 -1.4472
  233MOL0     H31429   8.968  -0.627  12.964  1.6088  1.0411  0.2685
  233MOL0     H31430   9.044  -0.489  13.023  1.7101 -2.9896 -0.9379
  233MOL0     H31431   8.949  -0.624  13.189  1.5486  1.2751 -0.2261
  233MOL0     H31432   8.781  -0.599  13.142 -0.7058  1.6041  1.6679
  233MOL0     H31433   8.949  -0.361  13.236  0.9561 -2.4051  0.3223
  233MOL0     H31434   8.786  -0.367  13.160 -1.0999  1.0988  1.7253
  233MOL0     H31435   8.740  -0.475  12.084  0.7215  1.0055 -0.3298
  233MOL0     H31436   8.777  -0.405  11.850 -0.9715  2.2745 -0.1564
  233MOL0     H31437   8.955  -0.241  11.516 -0.3732  0.7383  0.6281
  233MOL0     H31438   9.063  -0.184  11.300 -0.3426  1.2296 -0.6438
  233MOL0     H31439   7.545   0.290  10.433  0.9653 -1.1611  0.9790
  233MOL0     H31440   7.437   0.136  10.256 -0.0504 -0.1426 -0.7859
  233MOL0     H31441   7.411  -0.143   9.984  0.4198  0.5530 -0.2519
  233MOL0     H31442   7.300  -0.310   9.842 -0.4512  0.0815  0.8874
  233MOL0     H31443   7.309  -0.461   9.672 -1.6889 -2.6929 -1.9720
  233MOL0     H31444   7.404  -0.363   9.555 -0.0935 -1.5052  0.0786
  233MOL0     H31445   7.132  -0.501   9.491 -0.2245 -1.2353 -0.1514
  233MOL0     H31446   7.287  -0.590   9.491  0.9219  0.6240  0.9530
  233MOL0     H31447   7.235  -0.338   9.333  3.3991  1.6097  0.1836
  233MOL0     H31448   7.194  -0.503   9.267 -0.0138 -0.1915  0.8013
  233MOL0     H31449   7.465  -0.540   9.342  0.3758  2.7107  2.8661
  233MOL0     H31450   7.412  -0.496   9.171  0.3570  0.9313 -0.0160
  233MOL0     H31451   7.515  -0.122   9.302 -0.2159  0.1807  1.7716
  233MOL0     H31452   7.303  -0.018   9.526  2.2771 -0.2317  0.2274
  233MOL0     H31453   7.361   0.165   9.528 -1.5685 -4.4232  1.7183
  233MOL0     H31454   7.350   0.262   9.685 -0.2088  1.9266 -1.1985
  233MOL0     H31455   7.505   0.209   9.629  1.0628 -0.5458  1.4889
  234MOL0     O31456   8.120   0.133   6.156 -0.0290  1.1299  1.1493
  234MOL0     C31457   8.089   0.250   6.134  1.1008  0.0244  0.8309
  234MOL0     O31458   8.117   0.360   6.205 -0.3085 -0.3163 -0.4594
  234MOL0     C31459   8.170   0.353   6.333  0.2043 -0.4000  0.8396
  234MOL0     C31460   8.126   0.246   6.413 -0.5554 -0.2032 -0.7699
  234MOL0     C31461   8.168   0.249   6.548 -0.7800  0.2441 -0.0975
  234MOL0     C31462   8.268   0.343   6.597  0.3496 -0.7299  0.5283
  234MOL0     O31463   8.307   0.336   6.725 -0.0809 -0.0258 -0.7145
  234MOL0     C31464   8.433   0.400   6.763  0.6421  0.5168  0.2249
  234MOL0     C31465   8.467   0.387   6.909 -0.8402  0.0728 -0.4416
  234MOL0     C31466   8.422   0.517   6.988 -0.5055 -0.8328  0.7579
  234MOL0     C31467   8.273   0.544   6.983 -0.6991 -0.2008  0.0828
  234MOL0     C31468   8.217   0.444   7.079  0.3822 -0.0315  0.5131
  234MOL0     C31469   8.202   0.491   7.220  1.0037 -0.2141  1.1188
  234MOL0     C31470   8.082   0.581   7.229  0.3514  0.0667  1.3362
  234MOL0     C31471   8.042   0.631   7.355  0.6018  0.3108 -0.2309
  234MOL0     N31472   8.040   0.522   7.454  0.1478  0.7477  0.1040
  234MOL0     C31473   8.102   0.522   7.575  0.7615 -0.2462 -0.4918
  234MOL0     C31474   8.058   0.412   7.642 -0.0653  0.4306  0.6633
  234MOL0     C31475   8.120   0.355   7.773 -0.1161  0.1497  0.0104
  234MOL0     C31476   8.201   0.230   7.729  0.9210 -0.7838 -0.2692
  234MOL0     C31477   8.175   0.109   7.817 -0.0136  0.6572 -0.3139
  234MOL0     C31478   8.257   0.125   7.950  0.3672  0.5118 -0.4302
  234MOL0     O31479   8.261   0.015   8.040  1.3822 -0.1591  0.4368
  234MOL0     C31480   8.291   0.036   8.169 -0.4313  0.4596  0.2126
  234MOL0     C31481   8.297  -0.084   8.238 -0.9914  0.0458  0.0845
  234MOL0     C31482   8.344  -0.070   8.371  0.5963  1.0228  0.3996
  234MOL0     C31483   8.393   0.040   8.435 -0.6333 -0.8389 -0.0520
  234MOL0     C31484   8.468   0.027   8.564 -0.5229 -0.5785 -0.5722
  234MOL0     O31485   8.433  -0.070   8.645  0.0556  0.0217  0.0279
  234MOL0     C31486   8.519  -0.105   8.749  0.8008  0.4947 -0.3086
  234MOL0     C31487   8.473  -0.132   8.877 -0.1030  0.4581 -0.1274
  234MOL0     C31488   8.558  -0.179   8.975  0.0811  1.0526 -0.5580
  234MOL0     C31489   8.689  -0.216   8.949 -0.5021  0.1324 -0.6493
  234MOL0     O31490   8.753  -0.283   9.051  0.5508  0.5051 -0.6664
  234MOL0     C31491   8.894  -0.293   9.063 -0.7104  0.1476 -0.0574
  234MOL0     C31492   8.953  -0.424   8.995 -0.2949 -0.5184  0.5685
  234MOL0     C31493   9.104  -0.418   8.962  0.0623  0.2968  0.4894
  234MOL0     C31494   9.121  -0.540   8.873 -0.1559 -0.1228 -0.5040
  234MOL0     C31495   9.265  -0.556   8.824  0.9599  0.0799 -0.9411
  234MOL0     C31496   9.277  -0.556   8.675 -0.5354  0.2166  0.8128
  234MOL0     C31497   9.417  -0.598   8.623  0.3028  0.2373  0.0228
  234MOL0     C31498   9.419  -0.596   8.466 -0.2448 -0.0644 -0.4338
  234MOL0    Cl31499   9.322  -0.734   8.420 -0.3363 -0.2287  0.3523
  234MOL0     C31500   8.735  -0.185   8.823 -0.1541  0.5091  0.2473
  234MOL0     C31501   8.646  -0.140   8.722  0.2265 -0.2958  0.2464
  234MOL0     O31502   8.554   0.118   8.588  0.5515  1.1178  0.6203
  234MOL0     C31503   8.390   0.156   8.356  0.1506 -0.1163  0.0741
  234MOL0     C31504   8.342   0.154   8.226 -0.7334  0.0348 -0.2876
  234MOL0     N31505   7.958   0.360   7.561  0.7200  0.4380  0.7664
  234MOL0     N31506   7.945   0.426   7.453 -0.7915 -0.3911  0.2076
  234MOL0     C31507   8.319   0.435   6.507 -0.2402  0.5574 -0.0077
  234MOL0     C31508   8.259   0.451   6.379  0.1509 -0.6160  0.1615
  234MOL0     C31509   8.029   0.264   5.993 -0.3940 -0.5704  0.6364
  234MOL0     C31510   8.115   0.308   5.889 -0.1283 -0.8102 -1.2961
  234MOL0     C31511   8.077   0.315   5.763  0.3829 -0.7655  0.7432
  234MOL0     C31512   7.950   0.281   5.722  0.0758  0.6651  0.6333
  234MOL0     O31513   7.904   0.298   5.594 -0.9287  1.2242  0.6895
  234MOL0     C31514   7.803   0.205   5.538 -0.3176 -0.0667 -0.5296
  234MOL0     C31515   7.796   0.192   5.384 -0.5562 -0.1651 -0.3163
  234MOL0     C31516   7.932   0.154   5.316  0.3804  0.5574 -0.1598
  234MOL0     C31517   8.069   0.201   5.378 -0.4649  0.5854  0.0326
  234MOL0     C31518   8.123   0.113   5.496 -0.4873 -0.8160 -0.0756
  234MOL0     C31519   8.162   0.045   5.582 -0.5346 -0.0324 -0.1246
  234MOL0     C31520   7.858   0.230   5.822  0.7188 -0.4832 -0.3266
  234MOL0     C31521   7.900   0.220   5.955 -0.3385  0.0765  0.9689
  234MOL0     C31522   7.798   0.172   6.046 -0.1433 -0.1423  0.2262
  234MOL0     H31523   8.054   0.171   6.381  0.9952 -1.1883 -2.1625
  234MOL0     H31524   8.144   0.169   6.617 -2.9362  1.1969  0.3509
  234MOL0     H31525   8.514   0.350   6.709 -0.0444  0.4065 -0.7203
  234MOL0     H31526   8.429   0.508   6.747 -3.4449  0.2233 -1.9978
  234MOL0     H31527   8.571   0.364   6.932 -0.6434 -0.5974 -1.9056
  234MOL0     H31528   8.416   0.296   6.943 -1.0535  0.3816  0.0803
  234MOL0     H31529   8.474   0.602   6.942 -1.1278 -0.7168  0.2568
  234MOL0     H31530   8.453   0.509   7.093 -0.1627 -0.2805  0.6991
  234MOL0     H31531   8.247   0.645   7.016  2.0154 -0.1664  2.5233
  234MOL0     H31532   8.226   0.521   6.887 -0.0666 -0.2724 -0.2202
  234MOL0     H31533   8.121   0.419   7.033  1.6845 -2.4968 -1.1204
  234MOL0     H31534   8.266   0.347   7.089  2.0782  0.7831  0.5327
  234MOL0     H31535   8.199   0.410   7.293 -0.1216  1.4942  3.0713
  234MOL0     H31536   8.290   0.554   7.240  0.5710  1.3657 -1.3912
  234MOL0     H31537   8.001   0.528   7.177  1.1784  0.2615 -0.2068
  234MOL0     H31538   8.102   0.675   7.178 -0.9197  2.1715  4.4127
  234MOL0     H31539   8.122   0.698   7.389  1.2047 -2.0349  3.5386
  234MOL0     H31540   7.942   0.676   7.355  0.7893  0.8142  2.0084
  234MOL0     H31541   8.174   0.595   7.610 -1.8254  1.2669  2.1844
  234MOL0     H31542   8.186   0.428   7.820 -1.7375  0.8741  1.2550
  234MOL0     H31543   8.044   0.331   7.847  1.3844 -0.7390  1.3341
  234MOL0     H31544   8.181   0.213   7.623 -0.2312  0.2995 -0.2514
  234MOL0     H31545   8.308   0.251   7.731  0.6422  1.0715 -1.9153
  234MOL0     H31546   8.204   0.016   7.769 -0.4220  0.5487 -0.3510
  234MOL0     H31547   8.070   0.092   7.840  0.2663 -1.1182 -0.2202
  234MOL0     H31548   8.205   0.208   7.999 -4.7643 -2.2591 -0.5369
  234MOL0     H31549   8.363   0.150   7.935  1.1354 -2.0477  0.1811
  234MOL0     H31550   8.272  -0.181   8.197  0.1574 -1.4480  2.6401
  234MOL0     H31551   8.356  -0.166   8.421  0.5536 -0.5166 -2.3464
  234MOL0     H31552   8.370  -0.114   8.907  0.5985  4.4581  0.4153
  234MOL0     H31553   8.506  -0.192   9.069 -3.0556 -2.5497 -2.4932
  234MOL0     H31554   8.939  -0.202   9.020 -1.1195  0.1870 -0.4064
  234MOL0     H31555   8.932  -0.293   9.165  1.7193 -2.6828 -0.8043
  234MOL0     H31556   8.945  -0.506   9.067  0.0522 -1.6728 -0.6855
  234MOL0     H31557   8.890  -0.446   8.909  0.7354 -1.7864  0.1051
  234MOL0     H31558   9.137  -0.334   8.899 -0.5383  0.6914  0.6905
  234MOL0     H31559   9.163  -0.419   9.054 -2.8465 -1.9830  2.5173
  234MOL0     H31560   9.062  -0.517   8.784 -0.5837  0.9769  0.0477
  234MOL0     H31561   9.078  -0.629   8.921 -0.4114  0.4790  0.4038
  234MOL0     H31562   9.291  -0.657   8.858 -2.5637  0.0287  2.2779
  234MOL0     H31563   9.334  -0.479   8.861 -3.3003  2.5245  2.9985
  234MOL0     H31564   9.203  -0.624   8.631 -0.5889  0.9204 -0.2204
  234MOL0     H31565   9.248  -0.460   8.629 -0.2418 -0.8501 -1.7957
  234MOL0     H31566   9.426  -0.696   8.670 -1.5299  0.7363  1.5407
  234MOL0     H31567   9.499  -0.543   8.671 -0.3929  1.1126  0.2312
  234MOL0     H31568   9.388  -0.498   8.431 -1.8428 -0.4030 -0.0549
  234MOL0     H31569   9.520  -0.609   8.426 -0.2925  0.7281 -0.8128
  234MOL0     H31570   8.841  -0.197   8.801 -0.4598 -0.1747 -0.9331
  234MOL0     H31571   8.670  -0.134   8.616 -1.2447 -0.3939 -0.1180
  234MOL0     H31572   8.426   0.242   8.411  0.5484  0.0136 -0.3874
  234MOL0     H31573   8.345   0.242   8.162  3.0432 -2.7283 -4.5171
  234MOL0     H31574   8.395   0.503   6.545 -0.2180  0.1413  0.6984
  234MOL0     H31575   8.286   0.542   6.326 -0.3964  1.6040  3.3502
  234MOL0     H31576   8.212   0.330   5.932 -1.0426 -1.7712  1.4868
  234MOL0     H31577   8.139   0.336   5.677 -2.6958 -2.3135 -2.1144
  234MOL0     H31578   7.700   0.223   5.570  0.0556  1.3233 -0.0092
  234MOL0     H31579   7.842   0.108   5.569 -2.0643 -1.6860 -3.0317
  234MOL0     H31580   7.764   0.285   5.337  1.1238 -0.3324 -1.8970
  234MOL0     H31581   7.716   0.119   5.372 -1.1442  0.1981  1.1524
  234MOL0     H31582   7.936   0.207   5.220  1.1073  1.9495  0.6009
  234MOL0     H31583   7.928   0.046   5.299 -1.5313  0.4876  0.5193
  234MOL0     H31584   8.146   0.197   5.301  0.9633  0.3870  1.4028
  234MOL0     H31585   8.045   0.307   5.392 -0.2111  0.8484 -1.4043
  234MOL0     H31586   8.197  -0.008   5.669  1.5150  2.6769  0.8518
  234MOL0     H31587   7.754   0.205   5.805  0.2522 -1.6024  3.2700
  234MOL0     H31588   7.804   0.063   6.039  0.5855 -0.0666 -0.4510
  234MOL0     H31589   7.818   0.199   6.150  3.4726 -0.2076 -0.3309
  234MOL0     H31590   7.700   0.211   6.017  0.5649  1.4687 -0.1230
  235MOL0     O31591  11.292   0.911   7.643  0.5478 -0.0644 -0.7003
  235MOL0     C31592  11.204   0.974   7.703 -0.6525 -0.9273  0.1503
  235MOL0     O31593  11.209   1.006   7.830  0.3168 -0.6386 -1.4875
  235MOL0     C31594  11.298   0.942   7.915 -1.0128  0.0899 -0.1673
  235MOL0     C31595  11.434   0.910   7.894  0.7085 -0.3297 -0.3676
  235MOL0     C31596  11.514   0.860   8.001 -0.1305 -0.1741  0.2550
  235MOL0     C31597  11.456   0.829   8.127  0.1274  0.1844 -0.7611
  235MOL0     O31598  11.532   0.755   8.203  0.1159 -0.3701  0.4263
  235MOL0     C31599  11.515   0.721   8.338  0.2323 -0.5324 -0.5073
  235MOL0     C31600  11.643   0.677   8.401 -0.4855  0.9907  0.0725
  235MOL0     C31601  11.741   0.793   8.419  0.0614  1.5044  0.4958
  235MOL0     C31602  11.723   0.893   8.526 -0.5203 -0.9619 -0.0920
  235MOL0     C31603  11.853   0.986   8.550  0.1187  0.1567 -0.1288
  235MOL0     C31604  11.879   1.040   8.688 -1.0562 -0.2761 -0.7803
  235MOL0     C31605  11.777   1.138   8.749  0.5716 -0.2978  0.3415
  235MOL0     C31606  11.760   1.254   8.653  1.0907  0.8956 -0.1981
  235MOL0     N31607  11.618   1.277   8.614  0.0977  0.3868 -0.3989
  235MOL0     C31608  11.514   1.313   8.690  0.0687 -0.8920 -0.8005
  235MOL0     C31609  11.399   1.313   8.625  0.2686 -0.4701 -1.2354
  235MOL0     C31610  11.272   1.350   8.691 -0.5415  0.5196  0.5224
  235MOL0     C31611  11.177   1.367   8.580  1.2118  0.4513  0.7080
  235MOL0     C31612  11.038   1.400   8.631  0.5056 -0.6828  0.1845
  235MOL0     C31613  10.937   1.373   8.521  0.7672 -0.3303 -0.0368
  235MOL0     O31614  10.946   1.436   8.391  0.4329  0.4678 -0.4579
  235MOL0     C31615  10.852   1.389   8.304  0.3611 -0.1581 -0.2312
  235MOL0     C31616  10.881   1.382   8.168 -0.1511 -0.5030  0.1564
  235MOL0     C31617  10.796   1.320   8.073 -0.0800  0.3649 -0.4263
  235MOL0     C31618  10.659   1.288   8.112 -1.0212 -0.6374 -0.4627
  235MOL0     C31619  10.566   1.250   8.008  0.4980  0.2619  0.1968
  235MOL0     O31620  10.603   1.246   7.882 -0.6599 -0.9053  0.1102
  235MOL0     C31621  10.515   1.219   7.784  0.0804 -0.8683 -0.4739
  235MOL0     C31622  10.409   1.315   7.769  0.3331  0.1694  1.1988
  235MOL0     C31623  10.320   1.303   7.666 -1.0277  0.3440  0.7045
  235MOL0     C31624  10.330   1.201   7.575 -0.4455  0.0785  0.4377
  235MOL0     O31625  10.246   1.191   7.469 -0.0619 -1.2980  0.0110
  235MOL0     C31626  10.156   1.089   7.474  0.1081 -0.6215  0.0608
  235MOL0     C31627  10.022   1.131   7.416  0.5963  0.2396 -0.2940
  235MOL0     C31628  10.038   1.146   7.264 -0.1959 -0.0850  0.4512
  235MOL0     C31629  10.000   1.019   7.180  0.5188  0.0467 -0.7021
  235MOL0     C31630  10.013   1.041   7.028 -0.4216  0.3080 -0.4403
  235MOL0     C31631   9.897   1.117   6.967 -0.6858  0.3116  0.7130
  235MOL0     C31632   9.905   1.135   6.818 -0.2735  0.0029  0.9566
  235MOL0     C31633   9.827   1.256   6.758  0.3919 -0.5727  0.2988
  235MOL0    Cl31634   9.659   1.256   6.805  0.3256 -0.6061  0.0373
  235MOL0     C31635  10.422   1.096   7.599  0.0429 -0.0315 -0.3947
  235MOL0     C31636  10.520   1.105   7.705 -0.4325 -0.4891 -0.1758
  235MOL0     O31637  10.455   1.206   8.047  1.0437 -0.9164 -0.0323
  235MOL0     C31638  10.632   1.277   8.242  0.6419 -0.1670 -0.1000
  235MOL0     C31639  10.726   1.313   8.340 -0.8525 -0.9489 -0.0413
  235MOL0     N31640  11.432   1.287   8.487 -0.8217 -0.3358 -0.3592
  235MOL0     N31641  11.558   1.246   8.494 -0.1133 -0.1351 -0.3703
  235MOL0     C31642  11.319   0.861   8.146  0.6908  0.4109 -0.5459
  235MOL0     C31643  11.245   0.927   8.044  0.0986 -0.0268  0.0460
  235MOL0     C31644  11.080   0.995   7.619  0.2784  0.0901  0.2959
  235MOL0     C31645  11.076   0.941   7.483  0.4096  0.8014 -0.1691
  235MOL0     C31646  10.968   0.960   7.405  1.1456  0.7290 -0.2671
  235MOL0     C31647  10.855   1.024   7.447  1.1703  0.6365 -0.3715
  235MOL0     O31648  10.729   1.048   7.381 -0.2660 -0.1342 -0.8825
  235MOL0     C31649  10.665   0.937   7.321 -0.8290  0.1963  0.7376
  235MOL0     C31650  10.630   0.984   7.177  0.7483  0.3922  0.6358
  235MOL0     C31651  10.746   1.013   7.078 -0.7645 -0.1188  0.7193
  235MOL0     C31652  10.714   1.066   6.939  0.7684  0.3400  1.0352
  235MOL0     C31653  10.688   1.206   6.915 -0.9727 -0.1624 -0.3542
  235MOL0     C31654  10.668   1.325   6.909 -0.3974 -0.3252 -0.7172
  235MOL0     C31655  10.861   1.082   7.573 -0.5941 -0.7590 -0.5252
  235MOL0     C31656  10.968   1.065   7.666 -0.5069  0.5338 -0.8032
  235MOL0     C31657  10.947   1.113   7.807  0.4363 -0.3090  0.0782
  235MOL0     H31658  11.482   0.941   7.802  2.2561 -0.0651  0.4867
  235MOL0     H31659  11.615   0.824   7.987 -1.1681 -2.4200 -2.7199
  235MOL0     H31660  11.471   0.812   8.379  1.3132  0.6128 -1.8200
  235MOL0     H31661  11.439   0.642   8.350 -1.0199  0.8754  1.5167
  235MOL0     H31662  11.695   0.606   8.337 -1.1047  1.8678 -1.4433
  235MOL0     H31663  11.616   0.634   8.498 -0.3111 -0.4355 -0.4941
  235MOL0     H31664  11.764   0.836   8.321  0.3972 -1.4096 -0.8001
  235MOL0     H31665  11.835   0.739   8.439 -1.0922 -0.4053  1.0347
  235MOL0     H31666  11.648   0.963   8.487 -0.2537 -1.6101 -1.8322
  235MOL0     H31667  11.693   0.842   8.619 -0.6283 -1.5027 -0.4227
  235MOL0     H31668  11.940   0.928   8.517 -1.0288 -0.4086 -2.3645
  235MOL0     H31669  11.838   1.063   8.474 -2.0982 -1.6965 -1.7233
  235MOL0     H31670  11.874   0.953   8.753 -0.7874 -1.3982 -2.2050
  235MOL0     H31671  11.980   1.082   8.693 -1.6647  1.3720  5.3995
  235MOL0     H31672  11.808   1.168   8.849  0.0100 -0.4914  0.5778
  235MOL0     H31673  11.685   1.079   8.759  1.8907 -2.2795  1.3193
  235MOL0     H31674  11.785   1.343   8.712  0.0782  0.1133  1.4785
  235MOL0     H31675  11.829   1.251   8.568  1.6952 -0.0195  0.3113
  235MOL0     H31676  11.508   1.332   8.797 -0.3863  0.9498 -1.1299
  235MOL0     H31677  11.235   1.265   8.748 -2.0963 -0.1762 -1.4155
  235MOL0     H31678  11.277   1.434   8.761 -3.6776 -0.7733  2.5266
  235MOL0     H31679  11.211   1.452   8.520 -0.2371  1.3753  1.1408
  235MOL0     H31680  11.167   1.275   8.520 -1.1654  0.1440  1.4796
  235MOL0     H31681  11.031   1.507   8.654  2.2827 -0.7090  0.9713
  235MOL0     H31682  11.016   1.341   8.720  1.2270  0.1485  0.9350
  235MOL0     H31683  10.841   1.398   8.568  0.3478  4.0603 -2.6092
  235MOL0     H31684  10.936   1.264   8.520  0.6497 -0.3414  0.6135
  235MOL0     H31685  10.971   1.428   8.127 -1.3759  1.3073 -0.6683
  235MOL0     H31686  10.814   1.327   7.967 -2.6871 -1.8886 -1.1159
  235MOL0     H31687  10.388   1.397   7.837  2.0169  0.6068  1.2295
  235MOL0     H31688  10.242   1.377   7.645 -0.2840  1.2889  1.1812
  235MOL0     H31689  10.192   1.011   7.406  2.1806  2.8831 -3.2331
  235MOL0     H31690  10.139   1.066   7.580  0.7972  1.8055  0.7536
  235MOL0     H31691   9.957   1.047   7.441  4.0957 -1.8605  2.7732
  235MOL0     H31692   9.991   1.221   7.471 -0.5820 -0.1173 -0.3528
  235MOL0     H31693  10.000   1.244   7.235 -1.0478  0.1503  2.2380
  235MOL0     H31694  10.145   1.159   7.244 -0.4764  0.4576 -0.7432
  235MOL0     H31695   9.900   0.982   7.202 -0.5255  0.1831 -4.4813
  235MOL0     H31696  10.058   0.933   7.215  0.6569  0.2437 -0.4384
  235MOL0     H31697  10.023   0.938   6.993  2.4584  0.5571 -0.5550
  235MOL0     H31698  10.109   1.091   7.012  1.0564 -1.8221  1.1908
  235MOL0     H31699   9.806   1.058   6.981 -0.5205  0.2932  1.8742
  235MOL0     H31700   9.888   1.214   7.017  1.5046  0.8398  0.1788
  235MOL0     H31701   9.878   1.044   6.762  3.9758 -1.6561  1.2504
  235MOL0     H31702  10.010   1.150   6.795 -0.6240  0.8517 -0.1645
  235MOL0     H31703   9.872   1.348   6.797 -1.9705 -0.2238  2.4575
  235MOL0     H31704   9.835   1.264   6.649  0.0406 -0.2287  0.2960
  235MOL0     H31705  10.418   1.010   7.532 -1.1268  0.1171 -0.5282
  235MOL0     H31706  10.591   1.025   7.723 -1.5460 -1.0099  2.3846
  235MOL0     H31707  10.537   1.246   8.286  0.9616  0.4020  1.0240
  235MOL0     H31708  10.688   1.308   8.442 -1.3262  3.4052  0.1739
  235MOL0     H31709  11.271   0.850   8.243  1.0050  0.6494 -0.3616
  235MOL0     H31710  11.142   0.957   8.060  0.3905  1.3737 -0.5944
  235MOL0     H31711  11.156   0.883   7.439 -0.7915 -0.5763 -0.6447
  235MOL0     H31712  10.959   0.913   7.308  1.6465 -0.6858  0.3521
  235MOL0     H31713  10.577   0.910   7.380 -0.7268  0.3214  0.9458
  235MOL0     H31714  10.738   0.855   7.319  0.4862  1.2479  2.4133
  235MOL0     H31715  10.573   1.077   7.181  1.5179  0.9709 -1.1509
  235MOL0     H31716  10.580   0.907   7.118  3.8411 -2.6978  1.7067
  235MOL0     H31717  10.793   0.915   7.071  0.9305  0.5603  1.8823
  235MOL0     H31718  10.812   1.076   7.138 -0.9503 -0.1634  0.9718
  235MOL0     H31719  10.785   1.024   6.867 -2.1279  0.4095 -2.1197
  235MOL0     H31720  10.626   1.011   6.905  0.9959 -0.0052  0.9880
  235MOL0     H31721  10.638   1.426   6.894  0.6603 -0.2699 -2.8807
  235MOL0     H31722  10.771   1.139   7.597  2.3540  3.8210  0.8822
  235MOL0     H31723  10.844   1.151   7.817 -0.0072 -1.2185 -0.8315
  235MOL0     H31724  10.954   1.040   7.888 -4.0195 -1.8144 -0.6150
  235MOL0     H31725  11.011   1.202   7.812 -0.4098  0.3409 -0.3442
  236MOL0     O31726   1.936   1.373   0.024 -0.0340  0.1558 -1.0225
  236MOL0     C31727   2.005   1.270   0.042  0.5814 -0.2563 -1.0855
  236MOL0     O31728   2.077   1.256   0.168 -0.4910 -0.0504  0.8980
  236MOL0     C31729   2.069   1.366   0.250 -0.1509  0.0578  0.6791
  236MOL0     C31730   1.954   1.379   0.332  0.7955 -0.1364  0.4059
  236MOL0     C31731   1.929   1.489   0.419 -0.5814 -0.7065  0.0659
  236MOL0     C31732   2.034   1.581   0.430  0.4361  1.7359  0.3273
  236MOL0     O31733   2.024   1.688   0.521  0.2390 -0.1420 -0.2849
  236MOL0     C31734   1.919   1.691   0.611  0.5530  0.1299  0.2382
  236MOL0     C31735   1.961   1.802   0.705  0.0611  0.1865 -0.2514
  236MOL0     C31736   1.860   1.803   0.820  0.7135  0.6812 -0.2056
  236MOL0     C31737   1.723   1.875   0.800  0.3374 -0.0254  0.2140
  236MOL0     C31738   1.708   2.032   0.797 -1.5618  0.8827  0.7677
  236MOL0     C31739   1.759   2.106   0.668 -0.0314  0.5101 -0.1625
  236MOL0     C31740   1.752   2.264   0.659  0.1584  0.2738  0.2282
  236MOL0     C31741   1.822   2.339   0.775 -0.2040  0.7456 -0.0555
  236MOL0     N31742   1.964   2.322   0.759 -0.9877 -0.8492  0.3830
  236MOL0     C31743   2.038   2.216   0.790 -0.0532 -0.0114  0.1052
  236MOL0     C31744   2.167   2.228   0.734 -1.0332  0.1629  1.1640
  236MOL0     C31745   2.286   2.159   0.786  0.1653 -0.2237 -0.3752
  236MOL0     C31746   2.420   2.195   0.697  1.2035 -0.7414 -0.8692
  236MOL0     C31747   2.416   2.113   0.564  0.7308 -0.0823 -0.2365
  236MOL0     C31748   2.541   2.143   0.480  0.1662 -0.7603  0.9187
  236MOL0     O31749   2.563   2.287   0.448  0.5206  0.2223  0.8148
  236MOL0     C31750   2.476   2.332   0.356  0.1010  0.3920 -0.2030
  236MOL0     C31751   2.369   2.418   0.386  0.1218 -0.2191 -0.0520
  236MOL0     C31752   2.283   2.464   0.287  0.4496  0.2720 -0.6914
  236MOL0     C31753   2.305   2.438   0.145 -0.2189 -0.2958 -0.5428
  236MOL0     C31754   2.208   2.484   0.037 -0.3569  0.6050  0.3713
  236MOL0     O31755   2.096   2.547   0.074  0.4812 -0.1228  0.8670
  236MOL0     C31756   2.010   2.620  -0.016 -0.1805  0.0450  0.9071
  236MOL0     C31757   1.967   2.579  -0.143 -0.1643  1.2117 -0.4571
  236MOL0     C31758   1.880   2.660  -0.213  0.1372 -0.0283  1.2338
  236MOL0     C31759   1.839   2.780  -0.167  0.5593  0.2988 -0.2227
  236MOL0     O31760   1.764   2.861  -0.245 -0.2604  0.7117 -0.1437
  236MOL0     C31761   1.785   3.002  -0.254  0.4101  0.2944 -0.0152
  236MOL0     C31762   1.704   3.083  -0.157 -0.4811  0.5954  0.7336
  236MOL0     C31763   1.558   3.053  -0.146  0.3780  0.0955  0.3782
  236MOL0     C31764   1.471   3.173  -0.104 -0.9710 -0.1438 -0.9099
  236MOL0     C31765   1.328   3.166  -0.136 -0.4336 -0.4707 -0.4227
  236MOL0     C31766   1.259   3.037  -0.081  0.9967  0.0800 -0.4896
  236MOL0     C31767   1.107   3.055  -0.106 -0.1606 -0.2871 -0.3995
  236MOL0     C31768   1.034   2.920  -0.114  0.0004 -0.2905 -0.2037
  236MOL0    Cl31769   1.040   2.834   0.035 -0.3003  0.6887 -0.1175
  236MOL0     C31770   1.881   2.818  -0.040 -0.4330  0.0619 -1.2376
  236MOL0     C31771   1.970   2.740   0.037 -0.8230 -0.2004 -0.2383
  236MOL0     O31772   2.245   2.483  -0.080 -0.2413 -0.8612 -0.0987
  236MOL0     C31773   2.420   2.362   0.116  0.3912 -0.4407 -0.1950
  236MOL0     C31774   2.504   2.318   0.215  0.5694 -0.6309  0.4114
  236MOL0     N31775   2.158   2.344   0.662  0.4972 -0.2144 -0.0596
  236MOL0     N31776   2.034   2.395   0.666 -0.0527  0.4265  0.1752
  236MOL0     C31777   2.147   1.566   0.349  0.0748  0.3564  1.0021
  236MOL0     C31778   2.168   1.461   0.261  0.3453 -0.0245 -0.1131
  236MOL0     C31779   1.997   1.149  -0.038  0.7138 -0.3479  0.8560
  236MOL0     C31780   2.045   1.035   0.024 -0.7860 -0.6289  0.1457
  236MOL0     C31781   2.038   0.912  -0.031 -0.4647 -0.3892  0.4709
  236MOL0     C31782   1.990   0.891  -0.161 -0.7598 -0.5459  0.5198
  236MOL0     O31783   1.989   0.769  -0.228  0.1258 -1.3895  0.2313
  236MOL0     C31784   2.077   0.672  -0.183  0.0592  0.4001  0.3569
  236MOL0     C31785   2.116   0.583  -0.308 -0.7862 -0.1239 -0.0683
  236MOL0     C31786   2.236   0.485  -0.269 -0.7131 -0.4371  0.7285
  236MOL0     C31787   2.226   0.388  -0.146  0.3716 -0.8396 -1.2675
  236MOL0     C31788   2.350   0.308  -0.134 -0.0109 -0.6725 -0.0925
  236MOL0     C31789   2.450   0.239  -0.138 -0.9106  0.2825  0.1039
  236MOL0     C31790   1.939   1.004  -0.230  0.3884 -0.0444  0.6373
  236MOL0     C31791   1.948   1.131  -0.174  0.5273 -0.3132  0.4567
  236MOL0     C31792   1.901   1.267  -0.237  0.4099  0.8406 -0.1768
  236MOL0     H31793   1.875   1.305   0.326 -3.4096  3.8216  1.0423
  236MOL0     H31794   1.837   1.496   0.476 -0.8850 -1.8104 -0.2696
  236MOL0     H31795   1.828   1.712   0.554  1.6218  3.5161 -0.4724
  236MOL0     H31796   1.909   1.601   0.673  5.8395 -0.2596  0.9774
  236MOL0     H31797   1.949   1.905   0.669 -2.7380  1.0619  2.6947
  236MOL0     H31798   2.060   1.790   0.750 -0.3240 -1.3328  0.2516
  236MOL0     H31799   1.904   1.829   0.917  0.6282 -0.3918  0.1374
  236MOL0     H31800   1.840   1.699   0.845  2.3553  0.5165  0.5582
  236MOL0     H31801   1.675   1.823   0.717  0.1988  0.7658 -0.2081
  236MOL0     H31802   1.668   1.840   0.889  4.8682 -2.4674  2.4305
  236MOL0     H31803   1.601   2.052   0.807 -2.0468  0.0933 -2.1112
  236MOL0     H31804   1.754   2.069   0.889  2.2499 -1.9113  0.2427
  236MOL0     H31805   1.865   2.084   0.658  0.4099  1.5888  1.7466
  236MOL0     H31806   1.718   2.074   0.571  0.8851  4.1551 -1.9359
  236MOL0     H31807   1.644   2.282   0.666  0.2267  0.4675  0.9341
  236MOL0     H31808   1.794   2.309   0.569  4.3270  0.7777  2.1622
  236MOL0     H31809   1.792   2.443   0.763  0.0364  0.8027 -0.1706
  236MOL0     H31810   1.780   2.305   0.870 -0.6897 -0.7000 -0.7524
  236MOL0     H31811   2.008   2.140   0.861 -3.3775  0.6098 -0.4868
  236MOL0     H31812   2.303   2.193   0.888 -1.5090 -1.0352  0.1995
  236MOL0     H31813   2.270   2.051   0.789 -0.9842 -0.0771 -0.9858
  236MOL0     H31814   2.436   2.302   0.685 -1.9051  0.4594  3.3184
  236MOL0     H31815   2.501   2.167   0.765  0.0176 -1.0749  0.4672
  236MOL0     H31816   2.322   2.130   0.510  0.4056  1.4913  0.7470
  236MOL0     H31817   2.423   2.005   0.579 -0.0730 -0.5858 -2.9561
  236MOL0     H31818   2.542   2.090   0.384  0.1852 -1.9054  1.5363
  236MOL0     H31819   2.631   2.110   0.531  0.9817  0.8925  0.6010
  236MOL0     H31820   2.353   2.438   0.492  1.4014 -1.8393  0.5001
  236MOL0     H31821   2.195   2.517   0.322  1.7694  1.1420  1.5529
  236MOL0     H31822   2.000   2.485  -0.189  0.3281  0.9987  0.3137
  236MOL0     H31823   1.836   2.631  -0.309  2.3862 -1.5448  0.5805
  236MOL0     H31824   1.888   3.035  -0.237  1.2493 -1.6971 -0.8312
  236MOL0     H31825   1.767   3.029  -0.358  2.7164  1.9029 -0.0867
  236MOL0     H31826   1.749   3.075  -0.058  0.8504 -1.7960  0.0171
  236MOL0     H31827   1.716   3.190  -0.179 -0.4352  0.2527 -1.0803
  236MOL0     H31828   1.525   3.024  -0.246  0.5550  0.5522  0.1853
  236MOL0     H31829   1.544   2.975  -0.071  0.5018  0.7536  1.1031
  236MOL0     H31830   1.503   3.257  -0.167 -0.9974  0.4515 -0.1408
  236MOL0     H31831   1.500   3.199  -0.002 -2.6766  3.4843 -1.1609
  236MOL0     H31832   1.314   3.174  -0.245  0.1301  3.0797 -0.3687
  236MOL0     H31833   1.280   3.255  -0.095  0.3392  0.1874 -0.9066
  236MOL0     H31834   1.292   2.950  -0.138  0.4132 -0.7186  0.3635
  236MOL0     H31835   1.288   3.027   0.024  2.0284 -3.4050 -0.9640
  236MOL0     H31836   1.075   3.099  -0.201  0.3312 -2.4028 -1.6024
  236MOL0     H31837   1.078   3.125  -0.027  1.9594  2.7342 -2.0376
  236MOL0     H31838   0.929   2.922  -0.146  0.2300  0.4569 -0.9432
  236MOL0     H31839   1.082   2.853  -0.185  1.1532 -1.0337  1.2388
  236MOL0     H31840   1.847   2.911   0.004 -1.7731 -0.5284 -0.9522
  236MOL0     H31841   2.006   2.760   0.137  1.3068  0.9201 -1.1625
  236MOL0     H31842   2.440   2.327   0.015 -1.7045  0.9778 -1.1564
  236MOL0     H31843   2.583   2.255   0.175 -0.3258  0.9495 -4.4797
  236MOL0     H31844   2.224   1.642   0.357  0.0547  0.8661 -2.2376
  236MOL0     H31845   2.254   1.465   0.194  1.5380  0.0262  1.3764
  236MOL0     H31846   2.092   1.041   0.122  1.4392  3.1159 -0.9465
  236MOL0     H31847   2.073   0.825   0.024 -1.1464 -1.9493 -1.4318
  236MOL0     H31848   2.018   0.606  -0.120  1.0743  1.9514  3.1100
  236MOL0     H31849   2.161   0.707  -0.122 -0.4137  1.4996  0.4123
  236MOL0     H31850   2.144   0.654  -0.387 -2.9136  0.1705 -0.6155
  236MOL0     H31851   2.030   0.527  -0.345 -0.5043 -3.2409  3.4927
  236MOL0     H31852   2.329   0.541  -0.257 -0.5929 -0.3038 -0.5941
  236MOL0     H31853   2.247   0.424  -0.360 -0.3199  0.5499  0.1005
  236MOL0     H31854   2.194   0.443  -0.058 -1.2969 -0.8266 -1.8493
  236MOL0     H31855   2.148   0.311  -0.152  0.1063 -0.5072 -2.5908
  236MOL0     H31856   2.547   0.196  -0.153 -1.0691  0.4317 -1.5481
  236MOL0     H31857   1.903   0.992  -0.332  2.5483  2.9516 -0.6246
  236MOL0     H31858   1.878   1.244  -0.342  0.9002 -0.5180  0.0017
  236MOL0     H31859   1.808   1.293  -0.187  0.1589 -1.8093  0.8907
  236MOL0     H31860   1.975   1.348  -0.232  1.1770  0.0714  2.6649
  237MOL0     O31861   2.302   5.636  10.487 -0.1649 -0.2256 -1.2155
  237MOL0     C31862   2.265   5.624  10.605  0.8289  0.8625 -0.5248
  237MOL0     O31863   2.332   5.563  10.708 -0.3874 -0.1557 -0.1351
  237MOL0     C31864   2.462   5.524  10.685  0.6086 -0.6541 -0.6475
  237MOL0     C31865   2.507   5.426  10.775  0.4282  0.4624 -0.2345
  237MOL0     C31866   2.629   5.368  10.771  0.9580 -0.5180  0.6620
  237MOL0     C31867   2.718   5.404  10.675  0.2661  0.7873  0.1608
  237MOL0     O31868   2.842   5.337  10.685  1.0566 -0.2372 -0.5178
  237MOL0     C31869   2.948   5.399  10.614 -0.2607 -0.5959 -0.2474
  237MOL0     C31870   3.072   5.317  10.598  0.1694 -0.1176  0.1151
  237MOL0     C31871   3.035   5.170  10.600 -0.1045 -0.1816  0.5705
  237MOL0     C31872   2.965   5.135  10.459 -0.0263 -0.0906  0.1952
  237MOL0     C31873   2.902   4.992  10.444  0.1124 -0.1458  0.4546
  237MOL0     C31874   2.816   4.993  10.306  0.0091  1.4385  0.2705
  237MOL0     C31875   2.826   4.852  10.240  0.5201  0.0447  0.7227
  237MOL0     C31876   2.751   4.837  10.098 -0.2071 -0.1315  0.1543
  237MOL0     N31877   2.610   4.824  10.109 -0.5249 -0.0166 -0.1242
  237MOL0     C31878   2.533   4.767  10.221 -0.5179  0.7506  1.5524
  237MOL0     C31879   2.402   4.771  10.178  0.1922  0.4769 -0.6353
  237MOL0     C31880   2.284   4.697  10.237  0.3072 -0.0407 -0.4220
  237MOL0     C31881   2.164   4.788  10.261  0.0481 -1.1862  0.4370
  237MOL0     C31882   2.051   4.696  10.303 -0.5451  0.4962  0.4071
  237MOL0     C31883   1.933   4.783  10.344 -0.1416  0.7393 -0.6896
  237MOL0     O31884   1.957   4.822  10.476  0.2769 -0.0928  0.0865
  237MOL0     C31885   1.910   4.942  10.514 -0.4151 -0.1856 -0.1433
  237MOL0     C31886   1.965   4.991  10.639  0.8812 -0.6927 -0.2647
  237MOL0     C31887   1.917   5.119  10.686 -0.4615 -0.5232 -1.0423
  237MOL0     C31888   1.808   5.187  10.624  0.5485 -0.2348 -0.3918
  237MOL0     C31889   1.757   5.321  10.676  0.1520  0.3967 -0.1587
  237MOL0     O31890   1.662   5.389  10.605  0.5594  0.1796  0.7844
  237MOL0     C31891   1.597   5.488  10.657  0.3089 -0.6197  0.2386
  237MOL0     C31892   1.517   5.564  10.565 -0.0628  0.4185  0.4755
  237MOL0     C31893   1.426   5.660  10.611  0.3157  0.1407  0.3018
  237MOL0     C31894   1.404   5.684  10.746 -0.0803 -0.1403  0.3767
  237MOL0     O31895   1.330   5.786  10.797 -0.5804 -0.8092  0.9495
  237MOL0     C31896   1.230   5.840  10.723  0.3392 -0.3366 -1.5232
  237MOL0     C31897   1.150   5.938  10.814  0.2318  0.0413  1.3436
  237MOL0     C31898   1.043   6.000  10.730  0.1329  0.0948 -0.5883
  237MOL0     C31899   1.095   6.118  10.653  0.2023  0.2655 -0.1477
  237MOL0     C31900   0.983   6.182  10.575  0.6068  0.2975  0.7416
  237MOL0     C31901   1.036   6.320  10.525 -0.3186 -1.1831 -0.1111
  237MOL0     C31902   0.923   6.388  10.436 -0.1810  0.4634 -0.7256
  237MOL0     C31903   0.922   6.542  10.451 -0.6301 -0.3360 -0.1667
  237MOL0    Cl31904   0.879   6.593  10.609 -0.3541 -0.0913  0.3490
  237MOL0     C31905   1.485   5.612  10.834  0.3730  1.0716  0.5643
  237MOL0     C31906   1.576   5.523  10.794 -0.3544  0.2744 -0.1504
  237MOL0     O31907   1.814   5.366  10.776  0.2907  0.6263  0.2190
  237MOL0     C31908   1.751   5.132  10.505  0.6486  0.4132  0.2493
  237MOL0     C31909   1.801   5.010  10.459  0.1587 -0.6804  0.5571
  237MOL0     N31910   2.401   4.833  10.061  0.9146 -0.6401  0.3085
  237MOL0     N31911   2.518   4.861  10.024  0.4553 -0.0156  0.1859
  237MOL0     C31912   2.684   5.505  10.582 -0.1668  0.8015 -0.0985
  237MOL0     C31913   2.559   5.565  10.595  0.4630  0.0060 -0.7810
  237MOL0     C31914   2.144   5.704  10.639  0.3734  0.7506 -0.4011
  237MOL0     C31915   2.156   5.808  10.729 -0.1578 -0.4147  0.1197
  237MOL0     C31916   2.054   5.891  10.764  0.3204  0.7294  0.1110
  237MOL0     C31917   1.931   5.859  10.714  0.4330  0.3707  0.1884
  237MOL0     O31918   1.835   5.940  10.756  0.5724  0.6250  0.0110
  237MOL0     C31919   1.700   5.885  10.766 -0.0908 -0.4556 -1.1783
  237MOL0     C31920   1.615   5.979  10.866 -0.1929  0.3848 -0.0135
  237MOL0     C31921   1.573   6.119  10.810  1.1067 -0.2714  0.1848
  237MOL0     C31922   1.469   6.193  10.895 -0.1862  0.4674  0.1764
  237MOL0     C31923   1.418   6.297  10.802 -1.3280  0.3990 -1.0197
  237MOL0     C31924   1.376   6.387  10.729 -0.1384 -0.7335  1.3025
  237MOL0     C31925   1.914   5.742  10.628 -0.1948 -0.3232  1.0043
  237MOL0     C31926   2.019   5.658  10.593 -0.4547 -0.6074 -0.4015
  237MOL0     C31927   1.998   5.526  10.513  0.2504 -0.7231  0.1657
  237MOL0     H31928   2.437   5.383  10.846 -1.2764  1.4547 -1.2349
  237MOL0     H31929   2.638   5.280  10.834  0.7084  0.6976  2.4683
  237MOL0     H31930   2.923   5.432  10.513  3.4008  2.0728 -0.4563
  237MOL0     H31931   2.985   5.490  10.661 -1.1242  0.7205 -1.9733
  237MOL0     H31932   3.133   5.339  10.687  0.2294  2.3183 -0.4532
  237MOL0     H31933   3.126   5.351  10.509  1.3478 -2.7601 -0.2455
  237MOL0     H31934   2.962   5.131  10.671  0.9315 -2.3392  0.5523
  237MOL0     H31935   3.124   5.108  10.614  0.4816  0.9522  2.0363
  237MOL0     H31936   2.880   5.203  10.448 -0.7066 -0.9522  0.0437
  237MOL0     H31937   3.026   5.146  10.369 -0.2981 -3.0326 -0.4461
  237MOL0     H31938   2.993   4.932  10.456  2.6651  3.4850  1.0594
  237MOL0     H31939   2.834   4.960  10.522  0.1055 -1.3456 -0.0266
  237MOL0     H31940   2.712   5.015  10.329 -0.9234 -2.6672  0.8805
  237MOL0     H31941   2.858   5.073  10.245 -1.4388  2.1022  0.1073
  237MOL0     H31942   2.799   4.773  10.310 -1.2770  0.1964  0.2308
  237MOL0     H31943   2.935   4.851  10.227  0.6584  1.9869  1.4175
  237MOL0     H31944   2.788   4.905  10.021  0.3538 -1.5390 -0.8792
  237MOL0     H31945   2.779   4.737  10.063  0.0292  0.5661 -1.7636
  237MOL0     H31946   2.580   4.716  10.305  1.0384  0.4663  0.5400
  237MOL0     H31947   2.256   4.612  10.173  1.6641 -1.7527  1.1602
  237MOL0     H31948   2.321   4.670  10.336  1.3003 -1.6556 -1.1962
  237MOL0     H31949   2.187   4.858  10.342 -1.1058  2.5456 -2.1772
  237MOL0     H31950   2.135   4.846  10.172 -0.6799 -0.4379  1.1492
  237MOL0     H31951   2.091   4.637  10.385 -2.0105 -2.1739 -0.6670
  237MOL0     H31952   2.016   4.643  10.214 -3.3592  2.9506 -0.0932
  237MOL0     H31953   1.846   4.716  10.350  1.0952 -1.0058 -1.4839
  237MOL0     H31954   1.910   4.861  10.271 -0.2722  1.1154 -0.2510
  237MOL0     H31955   2.052   4.965  10.699  0.0832  1.0893  1.7763
  237MOL0     H31956   1.966   5.144  10.779  0.1881 -0.8436 -1.2894
  237MOL0     H31957   1.510   5.545  10.458 -0.2076  0.4832  0.4732
  237MOL0     H31958   1.362   5.704  10.535 -1.6876 -1.1612  1.1749
  237MOL0     H31959   1.273   5.878  10.631  2.4443 -0.3149 -0.5776
  237MOL0     H31960   1.156   5.765  10.692  0.5123 -1.4358  0.5569
  237MOL0     H31961   1.110   5.881  10.898  2.7454 -1.1012  1.8570
  237MOL0     H31962   1.221   6.013  10.851  0.1762  0.1792  1.1689
  237MOL0     H31963   0.999   5.938  10.652 -1.3526 -0.9036  0.9562
  237MOL0     H31964   0.956   6.034  10.788  1.7437  2.8359  0.3890
  237MOL0     H31965   1.188   6.102  10.597 -0.2910  2.4322 -1.6883
  237MOL0     H31966   1.130   6.191  10.727  0.6034 -1.7671  1.7837
  237MOL0     H31967   0.897   6.193  10.642  1.0011  1.9149  1.0083
  237MOL0     H31968   0.940   6.117  10.498 -0.8929 -0.2230  1.9517
  237MOL0     H31969   1.063   6.383  10.610  2.1862 -2.1935 -0.0469
  237MOL0     H31970   1.123   6.311  10.458 -0.9771  0.9160 -1.3427
  237MOL0     H31971   0.822   6.354  10.459  0.5999 -0.4309  1.6905
  237MOL0     H31972   0.936   6.368  10.330 -2.0819 -0.1746 -0.8784
  237MOL0     H31973   1.022   6.581  10.435 -0.0673 -0.1071  3.2553
  237MOL0     H31974   0.844   6.577  10.382 -0.7696 -1.9380 -0.8574
  237MOL0     H31975   1.484   5.650  10.936  1.4677  1.4757  0.4350
  237MOL0     H31976   1.621   5.463  10.873 -2.4040 -1.3258 -0.1158
  237MOL0     H31977   1.675   5.184  10.447  1.1538 -0.3106 -1.0889
  237MOL0     H31978   1.758   4.966  10.369 -0.8254  0.0619  0.6511
  237MOL0     H31979   2.738   5.536  10.493 -0.5516 -0.2962 -0.7382
  237MOL0     H31980   2.535   5.650  10.531 -0.4153  0.2914 -0.0960
  237MOL0     H31981   2.255   5.846  10.752 -0.3021  0.7945 -1.1453
  237MOL0     H31982   2.085   5.977  10.823  1.9517 -1.2654  2.3186
  237MOL0     H31983   1.703   5.778  10.784  0.4247 -0.4652 -1.3071
  237MOL0     H31984   1.657   5.886  10.665  0.3325 -0.3995 -1.3616
  237MOL0     H31985   1.679   5.999  10.952  0.9644  1.9060 -1.1535
  237MOL0     H31986   1.522   5.928  10.892 -1.0716  1.9454  0.0920
  237MOL0     H31987   1.544   6.109  10.705  3.1153 -2.5049 -0.2576
  237MOL0     H31988   1.663   6.181  10.810  1.5232 -0.8415 -1.2866
  237MOL0     H31989   1.405   6.127  10.953 -1.3079 -1.0304 -2.5600
  237MOL0     H31990   1.535   6.243  10.966  2.3473 -2.4258  0.0938
  237MOL0     H31991   1.349   6.466  10.661 -1.4976 -0.5090  2.0662
  237MOL0     H31992   1.816   5.712  10.594 -0.7564 -0.7821  2.9282
  237MOL0     H31993   1.898   5.485  10.501  1.2430 -3.5471  0.6353
  237MOL0     H31994   2.041   5.546  10.415  2.5972  0.5039  1.3472
  237MOL0     H31995   2.060   5.449  10.561  3.2514  3.5378  3.9989
  238MOL0     O31996   2.749   4.191   9.422  0.2634 -0.0161  0.2571
  238MOL0     C31997   2.750   4.197   9.301 -0.5933  0.5766 -0.3071
  238MOL0     O31998   2.806   4.100   9.216 -0.2883 -0.8051 -0.7675
  238MOL0     C31999   2.880   4.003   9.278  0.3211  0.4591  0.0267
  238MOL0     C32000   2.995   4.024   9.357 -0.0749 -0.3430  0.0728
  238MOL0     C32001   3.062   3.912   9.411 -0.7726 -0.0209 -0.5605
  238MOL0     C32002   3.029   3.778   9.385 -0.2188 -1.2010  0.4902
  238MOL0     O32003   3.107   3.697   9.455 -0.0842  0.2723  0.2258
  238MOL0     C32004   3.103   3.558   9.425  0.0468  0.9335  0.0707
  238MOL0     C32005   3.214   3.483   9.499  0.5414  0.1498  0.0096
  238MOL0     C32006   3.268   3.350   9.433 -0.4196 -0.0481 -0.3560
  238MOL0     C32007   3.343   3.281   9.547 -0.8027 -0.1570 -0.3760
  238MOL0     C32008   3.431   3.160   9.507  1.1317 -0.5976 -0.2513
  238MOL0     C32009   3.478   3.074   9.633 -0.9329 -0.5184  0.6184
  238MOL0     C32010   3.380   2.986   9.703 -0.0344 -0.2941  0.5524
  238MOL0     C32011   3.440   2.888   9.803  0.3572  0.7006 -0.4948
  238MOL0     N32012   3.343   2.782   9.838  0.2085 -0.7787  0.0980
  238MOL0     C32013   3.379   2.657   9.882  0.1270  0.4547  1.0117
  238MOL0     C32014   3.264   2.594   9.882  0.3637  0.5125  0.7983
  238MOL0     C32015   3.244   2.446   9.918 -0.0323  0.1710 -0.6483
  238MOL0     C32016   3.314   2.389  10.037 -0.2321  0.4850 -0.0735
  238MOL0     C32017   3.242   2.399  10.169 -0.0176 -0.3802 -0.1533
  238MOL0     C32018   3.222   2.546  10.216 -0.7878 -0.6492  0.7865
  238MOL0     O32019   3.346   2.591  10.270  0.4846 -0.4015  0.2851
  238MOL0     C32020   3.340   2.719  10.329  0.0132  0.5389 -0.1148
  238MOL0     C32021   3.227   2.806  10.323 -0.1466 -0.6629  0.0645
  238MOL0     C32022   3.242   2.934  10.369  0.4093  0.6104 -0.8340
  238MOL0     C32023   3.362   2.985  10.420 -0.6406  1.2605 -0.3843
  238MOL0     C32024   3.352   3.126  10.483  0.7385  0.3164  0.2951
  238MOL0     O32025   3.465   3.150  10.557 -0.5917 -0.0596 -0.4059
  238MOL0     C32026   3.494   3.277  10.596  0.6174 -0.4326  0.1014
  238MOL0     C32027   3.579   3.354  10.519  0.0670 -0.1645  0.3299
  238MOL0     C32028   3.620   3.483  10.564 -0.0943  0.6376  0.4184
  238MOL0     C32029   3.577   3.537  10.683  0.4814 -0.1412  0.2481
  238MOL0     O32030   3.620   3.652  10.732 -0.0921 -0.1111  0.0238
  238MOL0     C32031   3.561   3.760  10.672  0.2056 -0.8588  0.0727
  238MOL0     C32032   3.462   3.839  10.765  1.2976 -0.1626  0.6039
  238MOL0     C32033   3.420   3.989  10.721 -0.0227  0.6282  0.3209
  238MOL0     C32034   3.421   4.091  10.839  0.3531  0.4241 -0.2161
  238MOL0     C32035   3.307   4.080  10.943 -1.2364  0.7427 -1.2366
  238MOL0     C32036   3.282   4.206  11.021 -0.0743  0.7721 -0.2633
  238MOL0     C32037   3.190   4.194  11.137 -0.0116  0.5397 -0.2961
  238MOL0     C32038   3.055   4.126  11.098 -0.1920 -0.1828 -0.6225
  238MOL0    Cl32039   2.981   4.232  10.979 -0.2748  0.6186 -0.3078
  238MOL0     C32040   3.472   3.460  10.757 -0.3604 -0.4222 -0.4549
  238MOL0     C32041   3.433   3.335  10.713 -0.3665  0.7171 -0.6813
  238MOL0     O32042   3.250   3.193  10.468 -0.0593 -1.0275  0.2746
  238MOL0     C32043   3.473   2.905  10.426  0.0972  0.2988  0.5502
  238MOL0     C32044   3.462   2.772  10.379  1.2563  0.3920 -0.6971
  238MOL0     N32045   3.161   2.680   9.856 -0.0963 -0.5242  0.3632
  238MOL0     N32046   3.212   2.793   9.828  0.0575 -0.3121  0.2021
  238MOL0     C32047   2.914   3.757   9.302  0.4900 -0.5028 -0.2713
  238MOL0     C32048   2.839   3.864   9.246  0.4164 -1.0133 -0.2660
  238MOL0     C32049   2.665   4.306   9.251 -1.2267 -0.6235 -0.0961
  238MOL0     C32050   2.566   4.275   9.157  0.7794  0.0615 -0.4386
  238MOL0     C32051   2.482   4.369   9.111 -0.3569 -0.0839 -0.2339
  238MOL0     C32052   2.499   4.504   9.148 -0.7625  0.2228  0.5233
  238MOL0     O32053   2.423   4.603   9.092 -0.8621 -0.1713  0.1092
  238MOL0     C32054   2.278   4.593   9.075  0.4422 -0.0643  0.2626
  238MOL0     C32055   2.216   4.690   8.967 -0.5362  0.3365 -0.2432
  238MOL0     C32056   2.292   4.665   8.837  0.3526 -0.3059 -1.5601
  238MOL0     C32057   2.218   4.719   8.717  0.0812 -0.4601  0.0203
  238MOL0     C32058   2.246   4.628   8.604 -1.1111 -0.2953 -0.1406
  238MOL0     C32059   2.233   4.545   8.509 -0.1756 -0.9623 -0.0561
  238MOL0     C32060   2.599   4.539   9.247  0.1190 -0.1672  0.2535
  238MOL0     C32061   2.677   4.437   9.306  1.1063  0.7839  1.0976
  238MOL0     C32062   2.794   4.481   9.389  0.1752 -0.5368 -0.5163
  238MOL0     H32063   3.041   4.121   9.374 -2.6767  1.2684 -1.4035
  238MOL0     H32064   3.141   3.922   9.485  1.0702  0.8852 -2.5195
  238MOL0     H32065   3.006   3.530   9.467  1.5473  1.6715  4.4719
  238MOL0     H32066   3.099   3.546   9.316  0.1508  1.0403  0.0538
  238MOL0     H32067   3.181   3.469   9.603  2.0969  0.5592  0.5911
  238MOL0     H32068   3.301   3.549   9.493  0.1546  0.8263  1.3622
  238MOL0     H32069   3.326   3.377   9.344  1.2500  0.5953  0.8814
  238MOL0     H32070   3.187   3.279   9.414  1.7952 -3.3142  1.5360
  238MOL0     H32071   3.396   3.355   9.608  1.8940  1.4978 -4.3353
  238MOL0     H32072   3.269   3.244   9.618 -0.0429 -0.1664  0.4353
  238MOL0     H32073   3.367   3.103   9.439 -3.3449 -0.1662  3.1278
  238MOL0     H32074   3.520   3.189   9.452  1.8902 -1.2802  0.5799
  238MOL0     H32075   3.568   3.016   9.609  0.3265  1.3870  0.4615
  238MOL0     H32076   3.532   3.152   9.689  0.5755  0.8732 -2.5227
  238MOL0     H32077   3.331   2.934   9.620 -0.5197  2.6577 -1.1465
  238MOL0     H32078   3.311   3.039   9.768 -0.5497 -1.4824  0.9899
  238MOL0     H32079   3.529   2.847   9.754  0.2310  0.5807 -0.6248
  238MOL0     H32080   3.488   2.930   9.892  1.4461  0.6737 -1.0601
  238MOL0     H32081   3.478   2.619   9.905 -0.3335 -4.5683 -3.2981
  238MOL0     H32082   3.139   2.417   9.929  0.1554 -0.4783 -0.4990
  238MOL0     H32083   3.285   2.388   9.835  3.1588 -4.7102  3.6625
  238MOL0     H32084   3.328   2.284  10.012 -2.5568  0.8149 -3.4591
  238MOL0     H32085   3.412   2.435  10.054  0.5208 -1.5041  1.2863
  238MOL0     H32086   3.292   2.339  10.245 -1.8848 -0.1891  1.2997
  238MOL0     H32087   3.148   2.343  10.159  0.6340 -1.5981  0.3750
  238MOL0     H32088   3.149   2.552  10.297  1.1352 -0.4456  2.5906
  238MOL0     H32089   3.207   2.614  10.131  1.5840  0.5414  1.2317
  238MOL0     H32090   3.140   2.773  10.267 -0.6786 -0.1037  0.5543
  238MOL0     H32091   3.154   2.996  10.381 -1.1243 -1.5721 -0.3150
  238MOL0     H32092   3.594   3.318  10.418  1.1151  0.1770  0.3523
  238MOL0     H32093   3.661   3.556  10.495  0.5278  0.8684  1.0277
  238MOL0     H32094   3.639   3.829  10.637  0.6684 -0.0372  2.5471
  238MOL0     H32095   3.503   3.738  10.582  1.5334 -3.8018 -0.1894
  238MOL0     H32096   3.367   3.785  10.773 -0.1305  2.2960  1.4089
  238MOL0     H32097   3.495   3.836  10.869  2.5773 -1.5061  0.1890
  238MOL0     H32098   3.493   4.021  10.646 -0.0772 -0.9196 -0.4357
  238MOL0     H32099   3.322   3.982  10.672  0.3409  0.6470 -0.4273
  238MOL0     H32100   3.412   4.193  10.799  0.8291  0.3505 -0.5252
  238MOL0     H32101   3.519   4.062  10.878 -0.1879 -1.8922 -0.4674
  238MOL0     H32102   3.326   3.995  11.009 -4.2360  1.6405  0.9832
  238MOL0     H32103   3.216   4.056  10.887 -2.5033  1.5112  0.4237
  238MOL0     H32104   3.365   4.258  11.070  1.8900 -2.6456  0.2776
  238MOL0     H32105   3.218   4.266  10.955  1.3049  1.2879 -1.1593
  238MOL0     H32106   3.156   4.290  11.177  1.8830  0.4355  1.7708
  238MOL0     H32107   3.236   4.133  11.216  0.1903 -1.0119 -1.5653
  238MOL0     H32108   3.050   4.025  11.058 -1.9617 -0.2043 -0.4336
  238MOL0     H32109   2.985   4.125  11.183 -3.4033 -1.1342 -3.0729
  238MOL0     H32110   3.437   3.516  10.843  0.6129  1.9015 -1.4895
  238MOL0     H32111   3.355   3.279  10.762 -0.1716  2.8519  2.3566
  238MOL0     H32112   3.576   2.929  10.452  1.3768 -1.3925 -2.4201
  238MOL0     H32113   3.545   2.701  10.381  0.8766 -0.2298 -3.2064
  238MOL0     H32114   2.899   3.657   9.261 -0.1197 -0.4744 -0.1264
  238MOL0     H32115   2.763   3.841   9.171  1.3137  2.0466 -2.3280
  238MOL0     H32116   2.541   4.187   9.099 -3.8206  1.7110 -1.3225
  238MOL0     H32117   2.421   4.345   9.024  0.6545  1.8652 -1.5741
  238MOL0     H32118   2.233   4.630   9.168 -1.2328  1.0529 -0.9274
  238MOL0     H32119   2.235   4.492   9.078 -0.1350  0.1164  4.5357
  238MOL0     H32120   2.242   4.786   9.013  3.0970 -1.4131  1.7889
  238MOL0     H32121   2.108   4.676   8.953 -0.0403 -1.2375 -3.5909
  238MOL0     H32122   2.298   4.557   8.821  1.9707 -0.5356  0.2320
  238MOL0     H32123   2.396   4.699   8.840 -0.8397  3.7619  0.0289
  238MOL0     H32124   2.110   4.711   8.733  0.0417 -2.5859 -0.9218
  238MOL0     H32125   2.244   4.824   8.706 -0.4920 -0.1104  1.6657
  238MOL0     H32126   2.221   4.489   8.419  0.7273  1.6238 -1.9312
  238MOL0     H32127   2.616   4.644   9.267 -3.1896  1.7265 -4.8334
  238MOL0     H32128   2.783   4.433   9.486 -1.3173 -2.4385 -1.5500
  238MOL0     H32129   2.892   4.456   9.349 -0.0987 -0.3155 -1.3416
  238MOL0     H32130   2.793   4.588   9.410  0.7799 -0.6878  0.3125
  239MOL0     O32131   7.435   6.929   2.385  0.4566  0.3106  0.2217
  239MOL0     C32132   7.367   6.831   2.411 -1.0518  0.0472  0.3164
  239MOL0     O32133   7.225   6.832   2.394 -0.2081 -0.4600  0.2674
  239MOL0     C32134   7.170   6.948   2.351 -0.0870  0.2579 -0.6221
  239MOL0     C32135   7.154   6.952   2.213 -0.6701 -0.2657  1.0059
  239MOL0     C32136   7.107   7.070   2.152  0.3224  0.0907  0.0881
  239MOL0     C32137   7.074   7.184   2.233  0.5629 -1.2391  0.4090
  239MOL0     O32138   7.043   7.303   2.176  0.2820 -0.0940 -0.3952
  239MOL0     C32139   7.092   7.361   2.058 -0.0384  0.1700  0.8822
  239MOL0     C32140   7.004   7.464   1.991 -0.6071 -0.5857  0.4471
  239MOL0     C32141   6.991   7.599   2.064  1.2407 -0.6550  0.3017
  239MOL0     C32142   6.838   7.636   2.094  0.1005 -0.3026  0.6932
  239MOL0     C32143   6.822   7.775   2.174  0.1899  0.7727  0.0207
  239MOL0     C32144   6.675   7.793   2.210 -0.3375 -0.2459  0.2151
  239MOL0     C32145   6.623   7.925   2.268 -0.5052  0.3344 -0.4781
  239MOL0     C32146   6.700   7.947   2.406  0.0420 -0.5297  0.1510
  239MOL0     N32147   6.668   8.083   2.464  0.7244  0.4602 -0.6709
  239MOL0     C32148   6.549   8.157   2.483  0.0409  0.2011  0.7088
  239MOL0     C32149   6.574   8.247   2.577 -0.7360  0.2116  0.0904
  239MOL0     C32150   6.477   8.354   2.635  0.6106 -0.5713  0.7674
  239MOL0     C32151   6.518   8.498   2.607 -0.3984  0.0295  0.3966
  239MOL0     C32152   6.534   8.528   2.463 -0.2278 -0.5475  0.4706
  239MOL0     C32153   6.550   8.684   2.431  0.3191  1.3105 -0.9358
  239MOL0     O32154   6.425   8.758   2.439 -0.1325 -0.1545  0.5033
  239MOL0     C32155   6.433   8.855   2.340 -0.2375 -0.2236 -0.4716
  239MOL0     C32156   6.538   8.945   2.344 -0.1499 -0.1753  0.0675
  239MOL0     C32157   6.538   9.044   2.249  0.4099 -0.6258  0.0769
  239MOL0     C32158   6.440   9.049   2.146  0.1755 -0.1946 -0.4555
  239MOL0     C32159   6.452   9.163   2.056 -0.3227 -0.2141 -0.7058
  239MOL0     O32160   6.532   9.272   2.088 -0.3225 -0.2379  0.0107
  239MOL0     C32161   6.567   9.372   2.004  0.2283 -1.1319  0.1355
  239MOL0     C32162   6.670   9.447   2.052  0.3172 -0.3745 -1.1400
  239MOL0     C32163   6.721   9.556   1.991  0.8281 -0.0848 -0.1522
  239MOL0     C32164   6.660   9.613   1.877  1.7002 -0.8687 -0.0847
  239MOL0     O32165   6.680   9.734   1.813  0.0453 -0.3891  0.0141
  239MOL0     C32166   6.806   9.801   1.822  1.1173  0.6596 -0.8127
  239MOL0     C32167   6.911   9.754   1.733 -0.9682 -0.0076 -0.7380
  239MOL0     C32168   6.870   9.752   1.588  0.3757 -0.3634 -0.4413
  239MOL0     C32169   6.997   9.748   1.512 -0.6478 -0.4700  0.6933
  239MOL0     C32170   6.988   9.760   1.370 -0.2537 -0.4864 -0.6137
  239MOL0     C32171   7.129   9.778   1.300 -0.1295 -0.7293 -1.2648
  239MOL0     C32172   7.140   9.860   1.174  0.6039  0.5451  1.1723
  239MOL0     C32173   7.082   9.770   1.067 -0.5299 -0.2570 -0.4529
  239MOL0    Cl32174   7.145   9.819   0.905  0.0647 -0.1802  0.2589
  239MOL0     C32175   6.554   9.536   1.829 -0.6794 -0.6283  0.4366
  239MOL0     C32176   6.515   9.416   1.882  0.8769 -1.2223  0.2248
  239MOL0     O32177   6.390   9.147   1.947  0.0265  0.8336  0.2195
  239MOL0     C32178   6.332   8.957   2.154  0.3095  0.3646 -0.5032
  239MOL0     C32179   6.327   8.861   2.250 -0.7407  0.3777  1.2141
  239MOL0     N32180   6.707   8.239   2.609 -0.4652  0.5456  0.1779
  239MOL0     N32181   6.759   8.138   2.549 -0.1672 -0.1657 -0.9221
  239MOL0     C32182   7.081   7.174   2.367 -0.6850 -0.3757 -0.4855
  239MOL0     C32183   7.128   7.059   2.432 -0.2936 -0.0330 -0.2192
  239MOL0     C32184   7.449   6.711   2.415  0.5118  0.1400  0.1988
  239MOL0     C32185   7.557   6.699   2.326 -0.7767  0.7132 -0.1432
  239MOL0     C32186   7.628   6.580   2.320  0.4239  0.2715 -0.0337
  239MOL0     C32187   7.604   6.477   2.409  0.4914  0.3633  1.2566
  239MOL0     O32188   7.685   6.371   2.406 -0.5860 -0.0655  0.0803
  239MOL0     C32189   7.758   6.344   2.529  0.5586  0.2592 -0.2775
  239MOL0     C32190   7.867   6.231   2.499 -0.9418  0.1169  0.0072
  239MOL0     C32191   7.956   6.211   2.612 -0.2127  0.4731 -0.0007
  239MOL0     C32192   8.047   6.092   2.599  0.1314  0.6805 -0.1152
  239MOL0     C32193   8.172   6.124   2.658  0.1871 -0.8845  0.1471
  239MOL0     C32194   8.277   6.155   2.703 -0.5116 -0.4304  1.1443
  239MOL0     C32195   7.501   6.492   2.498  0.2009  0.5029 -0.0415
  239MOL0     C32196   7.407   6.594   2.495  0.7775 -0.9380 -0.5623
  239MOL0     C32197   7.299   6.583   2.597 -0.1840 -0.1331 -0.0198
  239MOL0     H32198   7.173   6.870   2.145  2.2104  1.9505 -1.1373
  239MOL0     H32199   7.097   7.066   2.044  1.6127 -1.4514 -0.0124
  239MOL0     H32200   7.186   7.413   2.077 -1.9846  3.3090  2.7012
  239MOL0     H32201   7.097   7.282   1.982  1.4564  0.6300  0.4623
  239MOL0     H32202   6.906   7.418   1.975 -3.1319  3.9810  1.0139
  239MOL0     H32203   7.041   7.486   1.891 -2.9356 -1.5904 -0.7189
  239MOL0     H32204   7.044   7.682   2.018 -1.0639  2.2659  2.5316
  239MOL0     H32205   7.036   7.591   2.163  0.7117  4.5107  1.2220
  239MOL0     H32206   6.776   7.637   2.005  0.3543  0.1884  0.5212
  239MOL0     H32207   6.799   7.568   2.171 -1.5435  2.6244  2.6461
  239MOL0     H32208   6.880   7.772   2.267  1.6099  0.0013 -0.8544
  239MOL0     H32209   6.835   7.862   2.110 -1.0816 -0.1111 -1.5367
  239MOL0     H32210   6.623   7.782   2.115  1.4507  2.8005 -1.2883
  239MOL0     H32211   6.639   7.706   2.265  0.6366  0.0404  1.3661
  239MOL0     H32212   6.516   7.917   2.291 -0.2171  0.8228  1.1535
  239MOL0     H32213   6.646   8.004   2.196  1.5633  0.8514  0.6952
  239MOL0     H32214   6.676   7.873   2.482 -0.1851 -0.8408 -0.2225
  239MOL0     H32215   6.809   7.938   2.395  0.6031  2.4972  2.0445
  239MOL0     H32216   6.451   8.128   2.448 -0.2308 -0.6359  2.0931
  239MOL0     H32217   6.382   8.334   2.586 -0.1851  2.1733  1.0435
  239MOL0     H32218   6.459   8.349   2.743  0.9038  0.1456  0.8506
  239MOL0     H32219   6.445   8.569   2.647 -1.8950 -1.0950 -0.2526
  239MOL0     H32220   6.614   8.517   2.655 -0.5504  2.1706 -0.0369
  239MOL0     H32221   6.443   8.499   2.409 -0.1326  1.8527 -1.1465
  239MOL0     H32222   6.619   8.471   2.426 -0.9516 -3.8796  3.3746
  239MOL0     H32223   6.594   8.686   2.331  1.9149  1.0737 -0.2605
  239MOL0     H32224   6.625   8.719   2.503 -2.1713 -1.1066  3.2828
  239MOL0     H32225   6.609   8.944   2.425 -1.6442 -7.0860  1.9998
  239MOL0     H32226   6.622   9.112   2.243 -1.3583  2.2113  3.3702
  239MOL0     H32227   6.702   9.412   2.150  1.2062 -0.5564 -1.4870
  239MOL0     H32228   6.785   9.624   2.047  2.1803 -0.1418 -1.5522
  239MOL0     H32229   6.800   9.910   1.813 -0.3499  0.5488 -1.3322
  239MOL0     H32230   6.837   9.790   1.927 -4.5108 -3.3196  0.8985
  239MOL0     H32231   7.003   9.810   1.751 -1.2766  0.2545  0.0882
  239MOL0     H32232   6.924   9.652   1.770  0.0177  0.1687 -0.5765
  239MOL0     H32233   6.805   9.665   1.574  0.7672 -0.9567  1.1437
  239MOL0     H32234   6.821   9.847   1.569  2.2215  0.2774 -2.5015
  239MOL0     H32235   7.053   9.656   1.528  2.5914  0.2670 -4.2682
  239MOL0     H32236   7.066   9.829   1.538  0.2503 -0.7504 -0.6958
  239MOL0     H32237   6.919   9.845   1.370 -3.8103 -3.1380 -1.5925
  239MOL0     H32238   6.941   9.669   1.332 -1.8227 -0.2825  0.7159
  239MOL0     H32239   7.184   9.842   1.370 -1.4046 -1.8348  0.8576
  239MOL0     H32240   7.183   9.683   1.301  0.5653 -0.3528  0.7593
  239MOL0     H32241   7.244   9.883   1.149  0.2784 -0.1975 -1.0295
  239MOL0     H32242   7.075   9.947   1.187  0.2322  0.2020  1.6775
  239MOL0     H32243   7.098   9.662   1.075  0.6963 -0.0394  0.3011
  239MOL0     H32244   6.973   9.774   1.056 -0.4670 -0.2468 -1.1402
  239MOL0     H32245   6.500   9.582   1.747  0.2591  0.3660  0.3381
  239MOL0     H32246   6.434   9.357   1.841  0.1059 -1.6185  2.1911
  239MOL0     H32247   6.250   8.966   2.083  0.3333 -1.2546 -0.7582
  239MOL0     H32248   6.244   8.791   2.245 -0.8812  0.5817  0.5419
  239MOL0     H32249   7.059   7.255   2.435  1.6804 -0.3522  0.3465
  239MOL0     H32250   7.149   7.057   2.539 -3.6356 -0.2442  0.5260
  239MOL0     H32251   7.587   6.773   2.252  0.9131  0.5627  0.3521
  239MOL0     H32252   7.713   6.576   2.252 -1.0026 -1.6691 -1.8383
  239MOL0     H32253   7.689   6.315   2.609  1.2674 -1.6519 -0.3196
  239MOL0     H32254   7.800   6.437   2.571 -1.0848  0.2133  1.6121
  239MOL0     H32255   7.926   6.252   2.410  1.4076 -0.0793  1.4218
  239MOL0     H32256   7.821   6.135   2.475  0.0018 -0.9525  2.1674
  239MOL0     H32257   7.891   6.193   2.698  0.1763 -4.7622 -0.4417
  239MOL0     H32258   8.014   6.303   2.622  1.6064 -0.7336  1.1323
  239MOL0     H32259   8.000   6.020   2.667  2.2944  0.4526  1.2596
  239MOL0     H32260   8.063   6.054   2.497 -3.3764  3.2324 -1.8013
  239MOL0     H32261   8.372   6.190   2.740 -0.1266  1.5312 -1.4609
  239MOL0     H32262   7.486   6.418   2.576 -2.4473 -0.2551 -1.1410
  239MOL0     H32263   7.311   6.514   2.681 -1.8159 -0.0613  0.3116
  239MOL0     H32264   7.315   6.675   2.654 -2.0967 -1.3351  2.6399
  239MOL0     H32265   7.201   6.572   2.549 -0.6311 -1.8702  1.1892
  240MOL0     O32266   3.183   3.061   8.255 -0.4323 -0.3219 -0.5993
  240MOL0     C32267   3.163   3.007   8.144 -0.0441  0.4201  0.7002
  240MOL0     O32268   3.137   2.870   8.116  0.2834  0.0333 -0.5824
  240MOL0     C32269   3.158   2.781   8.210 -0.8782  0.1279  0.6637
  240MOL0     C32270   3.129   2.801   8.343  0.2249 -0.1208  0.1005
  240MOL0     C32271   3.158   2.700   8.442 -0.2741 -0.0992  1.1759
  240MOL0     C32272   3.235   2.587   8.410 -0.7719 -0.4113  0.3831
  240MOL0     O32273   3.284   2.502   8.507 -0.8739 -0.0552 -0.1110
  240MOL0     C32274   3.343   2.551   8.631  0.2295  0.5526 -0.4621
  240MOL0     C32275   3.422   2.440   8.692  0.3651  0.2071 -0.7327
  240MOL0     C32276   3.323   2.358   8.775  0.1516  0.6410  0.4805
  240MOL0     C32277   3.362   2.216   8.812 -0.7909 -0.2953 -0.6078
  240MOL0     C32278   3.485   2.210   8.898  0.1013 -0.6625 -0.2838
  240MOL0     C32279   3.541   2.067   8.908 -0.1196  0.2410 -0.1581
  240MOL0     C32280   3.673   2.065   8.977 -0.0278  0.3880  0.1602
  240MOL0     C32281   3.792   2.143   8.927  0.8814 -0.1401 -0.0116
  240MOL0     N32282   3.913   2.096   9.003  0.3039  0.0988 -0.5433
  240MOL0     C32283   3.960   1.966   9.013 -0.2869 -0.5579 -0.3977
  240MOL0     C32284   4.085   1.977   9.064  0.5714  0.8734  0.0966
  240MOL0     C32285   4.161   1.855   9.088 -0.0868  0.5177  0.0895
  240MOL0     C32286   4.131   1.748   8.983 -0.0740 -0.1939 -0.3039
  240MOL0     C32287   4.232   1.643   8.954 -0.3523  0.3483 -0.8586
  240MOL0     C32288   4.252   1.557   9.086 -0.6158 -0.5221  0.6270
  240MOL0     O32289   4.139   1.485   9.133 -0.4126 -0.3267 -0.1617
  240MOL0     C32290   4.054   1.408   9.050  0.0069  0.1729  0.4313
  240MOL0     C32291   4.105   1.351   8.928  0.2580  0.8600  0.0972
  240MOL0     C32292   4.022   1.277   8.840 -0.1117  0.1036 -0.3316
  240MOL0     C32293   3.888   1.265   8.863  0.9274  0.2044 -0.1342
  240MOL0     C32294   3.789   1.180   8.780  0.6000 -1.1364 -0.4742
  240MOL0     O32295   3.656   1.163   8.815  0.0271  0.3806  0.7990
  240MOL0     C32296   3.579   1.062   8.751 -0.2688 -0.2456 -0.4187
  240MOL0     C32297   3.453   1.097   8.710  0.5567 -0.5428  0.5906
  240MOL0     C32298   3.354   1.014   8.659  0.8492  0.0578 -1.0171
  240MOL0     C32299   3.397   0.879   8.637  0.5251 -1.3622  0.2922
  240MOL0     O32300   3.312   0.778   8.592 -1.0093 -0.4269  0.2263
  240MOL0     C32301   3.181   0.785   8.645  0.6289 -0.3090  0.5820
  240MOL0     C32302   3.093   0.677   8.578 -0.5271  0.1782 -0.4625
  240MOL0     C32303   2.949   0.685   8.627 -0.9097 -0.1158  0.6639
  240MOL0     C32304   2.865   0.582   8.548  0.2770 -0.7965  0.7852
  240MOL0     C32305   2.724   0.554   8.608  0.4198 -0.3687 -0.3182
  240MOL0     C32306   2.651   0.460   8.524  1.1070  0.5450  0.8915
  240MOL0     C32307   2.503   0.437   8.562  0.9973  0.4925 -0.1346
  240MOL0     C32308   2.424   0.414   8.433  0.1255 -0.1003  0.0285
  240MOL0    Cl32309   2.405   0.562   8.320 -0.4132 -0.1467 -0.2827
  240MOL0     C32310   3.524   0.841   8.672 -0.7200 -0.7282 -0.4460
  240MOL0     C32311   3.617   0.928   8.740 -0.0791  0.9713 -0.5471
  240MOL0     O32312   3.839   1.145   8.675 -0.2328  0.0932 -0.5862
  240MOL0     C32313   3.843   1.313   8.987  0.1777 -0.0169  0.1597
  240MOL0     C32314   3.922   1.377   9.087 -0.0934 -0.2097  0.9929
  240MOL0     N32315   4.116   2.101   9.095  0.1117  0.0269  0.2502
  240MOL0     N32316   4.019   2.173   9.059  0.0650 -1.4240  0.6789
  240MOL0     C32317   3.276   2.571   8.278 -0.5258  0.4001  0.7840
  240MOL0     C32318   3.234   2.665   8.178  0.6507 -0.5821 -0.2769
  240MOL0     C32319   3.140   3.098   8.024 -0.5917 -1.1494 -0.1116
  240MOL0     C32320   3.105   3.046   7.895  0.4607 -0.2898 -1.5918
  240MOL0     C32321   3.100   3.117   7.779  0.3604  0.2385 -0.3624
  240MOL0     C32322   3.093   3.259   7.787 -0.4891  0.4530 -0.0521
  240MOL0     O32323   3.076   3.342   7.676  0.4628  0.4738  0.3359
  240MOL0     C32324   3.092   3.291   7.538 -0.0699  0.3483 -1.1408
  240MOL0     C32325   3.016   3.371   7.443  0.5611  0.1913  0.0217
  240MOL0     C32326   2.874   3.389   7.480  0.6771  0.0036 -0.1068
  240MOL0     C32327   2.797   3.489   7.387 -0.5896  0.3301  0.2947
  240MOL0     C32328   2.660   3.508   7.436  0.6516  0.8200  0.3645
  240MOL0     C32329   2.544   3.507   7.479  0.0599  0.3738  1.2955
  240MOL0     C32330   3.118   3.318   7.910  0.5299  0.6215 -0.0020
  240MOL0     C32331   3.142   3.242   8.021  1.0816 -0.7580 -0.3941
  240MOL0     C32332   3.160   3.313   8.145 -0.2714 -1.3096  0.3206
  240MOL0     H32333   3.074   2.875   8.400  2.6104  0.5872  1.6273
  240MOL0     H32334   3.124   2.728   8.541  0.4023 -0.6232  1.5607
  240MOL0     H32335   3.409   2.637   8.617  2.7655 -0.3690  4.1110
  240MOL0     H32336   3.259   2.576   8.696  0.6907  2.9634 -0.7004
  240MOL0     H32337   3.493   2.476   8.767  1.3968 -1.0215 -1.0921
  240MOL0     H32338   3.470   2.384   8.612  0.5763  2.6529 -2.4141
  240MOL0     H32339   3.225   2.343   8.728 -0.6023 -0.2834  2.2272
  240MOL0     H32340   3.303   2.416   8.866 -0.4656 -0.2473  0.9268
  240MOL0     H32341   3.270   2.174   8.853 -1.4229 -0.5163 -2.1840
  240MOL0     H32342   3.381   2.158   8.721  0.1448 -0.0108 -0.6078
  240MOL0     H32343   3.558   2.266   8.839  2.2476 -2.1727  0.8363
  240MOL0     H32344   3.470   2.242   9.002  0.9511 -1.3018  0.0487
  240MOL0     H32345   3.470   2.000   8.958  1.0838 -1.9506 -1.2269
  240MOL0     H32346   3.545   2.023   8.808 -3.0221  3.8482 -2.0975
  240MOL0     H32347   3.699   1.959   8.974 -0.6770  0.2488 -0.7420
  240MOL0     H32348   3.658   2.094   9.082 -0.6234 -1.4949  0.6469
  240MOL0     H32349   3.794   2.122   8.819 -0.7930 -2.9294  0.3966
  240MOL0     H32350   3.799   2.250   8.945  0.6510 -0.3040  1.1197
  240MOL0     H32351   3.903   1.877   8.989  1.2105 -1.4238 -0.8924
  240MOL0     H32352   4.267   1.884   9.079  0.2576 -0.1496  1.6253
  240MOL0     H32353   4.137   1.824   9.190 -2.0819 -1.4451 -0.9114
  240MOL0     H32354   4.031   1.708   9.004 -3.0001  3.9866 -4.2764
  240MOL0     H32355   4.123   1.788   8.882 -0.5856  3.5416  1.0751
  240MOL0     H32356   4.323   1.688   8.915  0.2160  1.3990  1.5228
  240MOL0     H32357   4.199   1.581   8.869  0.6191 -3.0547  1.0440
  240MOL0     H32358   4.282   1.619   9.170  1.3361 -2.0397  1.1297
  240MOL0     H32359   4.337   1.494   9.060  0.6539  1.8524 -1.4455
  240MOL0     H32360   4.212   1.354   8.907  0.0945 -1.5371 -1.3465
  240MOL0     H32361   4.072   1.245   8.749  3.5401 -0.1420  1.5852
  240MOL0     H32362   3.423   1.202   8.710  2.4799  0.0483 -0.2749
  240MOL0     H32363   3.253   1.053   8.652  1.3619  1.9437  0.9235
  240MOL0     H32364   3.170   0.775   8.754 -1.0588  0.7833  0.5449
  240MOL0     H32365   3.138   0.885   8.631  0.9261  0.2210  2.9729
  240MOL0     H32366   3.110   0.690   8.471 -0.2243  2.8310 -0.1511
  240MOL0     H32367   3.141   0.587   8.618 -2.3624 -0.6186  0.0919
  240MOL0     H32368   2.947   0.669   8.735 -1.9162 -3.7688  0.2358
  240MOL0     H32369   2.912   0.786   8.603 -3.5442 -1.7616 -3.4964
  240MOL0     H32370   2.914   0.485   8.533 -1.3990 -1.9749  2.4123
  240MOL0     H32371   2.857   0.618   8.445 -0.2947 -0.6318  0.8867
  240MOL0     H32372   2.655   0.639   8.608 -3.6611 -3.3079  0.9479
  240MOL0     H32373   2.741   0.520   8.711  0.3133 -1.0561 -0.5233
  240MOL0     H32374   2.649   0.491   8.419  1.5715 -1.9312  0.0855
  240MOL0     H32375   2.717   0.373   8.520  0.8929  0.3167  2.0283
  240MOL0     H32376   2.465   0.531   8.603 -0.8157  0.7425 -2.2031
  240MOL0     H32377   2.502   0.351   8.629  0.2623 -1.6417 -2.7214
  240MOL0     H32378   2.475   0.338   8.373 -1.2362 -0.1117 -1.1701
  240MOL0     H32379   2.326   0.377   8.464 -1.2839  2.5570 -0.9191
  240MOL0     H32380   3.558   0.743   8.640  1.0799 -0.0066 -0.8723
  240MOL0     H32381   3.717   0.899   8.769 -0.6222  1.1361  1.6518
  240MOL0     H32382   3.744   1.288   9.026  0.7971  1.2194  2.7321
  240MOL0     H32383   3.882   1.407   9.183 -0.8394  2.8458 -0.1452
  240MOL0     H32384   3.345   2.489   8.258  2.1933  2.5842  0.5493
  240MOL0     H32385   3.259   2.664   8.073  0.6424 -3.0821 -0.3049
  240MOL0     H32386   3.093   2.938   7.895  0.1756 -0.2745 -0.0889
  240MOL0     H32387   3.108   3.062   7.686  0.6428  1.0726 -0.8444
  240MOL0     H32388   3.060   3.188   7.520  0.7007  0.1686 -1.5181
  240MOL0     H32389   3.198   3.303   7.514  0.0643  0.8259 -0.3459
  240MOL0     H32390   3.008   3.324   7.344 -1.2983  0.9744 -0.2381
  240MOL0     H32391   3.054   3.471   7.422 -3.0960  1.5538 -0.8852
  240MOL0     H32392   2.859   3.427   7.581 -2.3888 -0.4996 -0.2552
  240MOL0     H32393   2.825   3.291   7.479 -1.4992  1.0088  1.0943
  240MOL0     H32394   2.852   3.583   7.396  0.0162 -0.0303  0.3981
  240MOL0     H32395   2.783   3.468   7.280 -4.0189  2.3254  0.1878
  240MOL0     H32396   2.442   3.490   7.510  0.2123 -0.6223  1.2942
  240MOL0     H32397   3.126   3.425   7.924 -3.0318  0.9627  0.3929
  240MOL0     H32398   3.151   3.421   8.130  1.3037 -1.2994 -0.7907
  240MOL0     H32399   3.071   3.280   8.198 -2.3768  2.6378 -0.3641
  240MOL0     H32400   3.257   3.294   8.192  1.6638  3.5712 -1.0664
  241MOL0     O32401   3.683   0.384   0.760  1.0031  0.1962  1.0152
  241MOL0     C32402   3.795   0.417   0.719  0.3719  1.2957 -0.1975
  241MOL0     O32403   3.864   0.340   0.625 -1.0385 -0.2697  0.0877
  241MOL0     C32404   3.802   0.235   0.569 -0.1599 -0.2105  0.2763
  241MOL0     C32405   3.740   0.136   0.643 -0.6737  1.5125 -0.1849
  241MOL0     C32406   3.678   0.033   0.576 -0.0126  0.9052  0.7689
  241MOL0     C32407   3.677   0.019   0.432 -0.0957  0.4981  0.0940
  241MOL0     O32408   3.602  -0.084   0.369  0.5895  0.0972  0.1894
  241MOL0     C32409   3.658  -0.138   0.245  0.5521  0.7248 -0.4366
  241MOL0     C32410   3.695  -0.288   0.273  0.3003 -0.5296 -0.2843
  241MOL0     C32411   3.784  -0.330   0.165  0.3341 -0.3680 -0.2539
  241MOL0     C32412   3.850  -0.464   0.204 -0.6780 -0.1182 -0.4834
  241MOL0     C32413   3.939  -0.516   0.083  0.4044 -0.4662  0.9762
  241MOL0     C32414   4.002  -0.646   0.134 -0.3060 -0.0038  0.3362
  241MOL0     C32415   4.114  -0.710   0.059  0.6205 -0.0232 -0.0540
  241MOL0     C32416   4.159  -0.841   0.136 -0.2444 -0.2038  0.0693
  241MOL0     N32417   4.069  -0.949   0.109 -0.8139  0.5491 -0.2432
  241MOL0     C32418   4.024  -1.040   0.199 -0.2465  0.6298 -0.3863
  241MOL0     C32419   3.968  -1.140   0.116  0.2918 -0.3670 -0.6320
  241MOL0     C32420   3.903  -1.273   0.151 -0.7358 -0.6442  0.5047
  241MOL0     C32421   3.811  -1.283   0.274 -0.0613  0.5751 -0.8737
  241MOL0     C32422   3.886  -1.361   0.384  0.9314 -0.1551  0.0374
  241MOL0     C32423   3.970  -1.279   0.487  0.0142  1.3069 -0.6757
  241MOL0     O32424   4.078  -1.230   0.410  0.2522 -0.4177  0.3092
  241MOL0     C32425   4.183  -1.305   0.363 -0.0124  0.0803 -0.0939
  241MOL0     C32426   4.288  -1.233   0.303 -0.6731  0.6354  0.5139
  241MOL0     C32427   4.417  -1.285   0.298  0.3908 -0.0827  0.5862
  241MOL0     C32428   4.445  -1.420   0.332 -0.1543 -0.0259  0.6184
  241MOL0     C32429   4.589  -1.471   0.335  0.1930 -0.3302 -0.5756
  241MOL0     O32430   4.696  -1.381   0.339 -0.1422  0.7144 -0.1835
  241MOL0     C32431   4.828  -1.415   0.369 -0.7991  0.8306 -0.3420
  241MOL0     C32432   4.853  -1.515   0.462  0.1574  0.2965  0.2626
  241MOL0     C32433   4.987  -1.543   0.499 -0.1187  0.2066 -0.1041
  241MOL0     C32434   5.095  -1.499   0.424  0.0360 -0.4270 -0.1039
  241MOL0     O32435   5.228  -1.533   0.455  0.2623  0.0737 -0.5424
  241MOL0     C32436   5.345  -1.442   0.412 -0.0684  0.6790 -0.4541
  241MOL0     C32437   5.410  -1.498   0.288 -1.1369  0.7426  0.4320
  241MOL0     C32438   5.462  -1.641   0.303 -0.6201  0.3144  0.0375
  241MOL0     C32439   5.534  -1.672   0.430 -0.6464  1.1506 -0.4777
  241MOL0     C32440   5.580  -1.822   0.446  0.4684  0.0395 -0.8434
  241MOL0     C32441   5.467  -1.924   0.449  0.3339 -0.2111 -0.1738
  241MOL0     C32442   5.352  -1.901   0.550 -0.9554 -0.5215  0.0078
  241MOL0     C32443   5.250  -2.006   0.525  0.1874  0.2205 -0.2984
  241MOL0    Cl32444   5.142  -2.004   0.659  0.0139 -0.3969 -0.4445
  241MOL0     C32445   5.063  -1.413   0.315 -0.4089  0.8313  0.6869
  241MOL0     C32446   4.936  -1.368   0.291 -0.8751  0.5937  0.5131
  241MOL0     O32447   4.597  -1.597   0.324  0.5965 -0.2513  0.2568
  241MOL0     C32448   4.343  -1.494   0.394  0.3489 -0.3037 -0.0291
  241MOL0     C32449   4.216  -1.447   0.397 -0.6772 -0.1718 -0.1035
  241MOL0     N32450   3.983  -1.101  -0.013  0.0354  0.1764 -0.6476
  241MOL0     N32451   4.038  -0.985  -0.020  1.2175  0.5791 -0.3920
  241MOL0     C32452   3.736   0.124   0.360  0.1401 -1.2645 -0.4084
  241MOL0     C32453   3.802   0.229   0.428 -0.4026  0.1971  0.2073
  241MOL0     C32454   3.870   0.525   0.797 -1.1468  0.3979  0.5933
  241MOL0     C32455   4.002   0.495   0.818 -0.2463 -0.0474  0.8084
  241MOL0     C32456   4.098   0.588   0.865  0.2543 -0.6019 -0.3039
  241MOL0     C32457   4.053   0.721   0.898 -0.5420  0.4751  0.2373
  241MOL0     O32458   4.116   0.828   0.945  0.0158 -0.4776  0.4133
  241MOL0     C32459   4.264   0.813   0.962 -0.2669  0.6025 -0.7262
  241MOL0     C32460   4.313   0.738   1.096 -0.9617 -0.3016  0.0574
  241MOL0     C32461   4.279   0.827   1.219 -0.0839  0.0628 -0.0659
  241MOL0     C32462   4.329   0.763   1.353 -0.2914 -0.8327 -0.5446
  241MOL0     C32463   4.292   0.626   1.383  0.1552 -0.7936 -0.6898
  241MOL0     C32464   4.260   0.516   1.401 -0.3991  0.6808  0.2028
  241MOL0     C32465   3.920   0.747   0.882 -0.3617 -0.8054 -0.0753
  241MOL0     C32466   3.823   0.655   0.826  0.3440  0.6188 -1.1244
  241MOL0     C32467   3.682   0.695   0.822  0.8786  0.0411 -0.3133
  241MOL0     H32468   3.718   0.136   0.749 -2.6514  0.9707 -0.5422
  241MOL0     H32469   3.641  -0.050   0.634 -0.5169  1.7956  1.7636
  241MOL0     H32470   3.581  -0.127   0.168 -2.4870 -1.1645  2.1022
  241MOL0     H32471   3.755  -0.096   0.219  2.5563 -5.3958 -5.1895
  241MOL0     H32472   3.604  -0.348   0.276 -1.6339  2.2611  0.0665
  241MOL0     H32473   3.751  -0.292   0.367  0.1233 -1.0610 -0.1991
  241MOL0     H32474   3.866  -0.259   0.148  1.3337 -1.6923 -1.2497
  241MOL0     H32475   3.732  -0.364   0.075  1.2156  1.9686 -1.7597
  241MOL0     H32476   3.897  -0.454   0.302  2.4716  1.0900 -1.9999
  241MOL0     H32477   3.769  -0.537   0.212  0.7516 -1.5454  2.9250
  241MOL0     H32478   3.871  -0.529  -0.002 -0.8866 -1.0263  2.0510
  241MOL0     H32479   4.016  -0.444   0.057  2.2781 -2.0855  1.7717
  241MOL0     H32480   4.048  -0.628   0.231 -1.3159  1.1867  0.6218
  241MOL0     H32481   3.928  -0.726   0.139  0.9584 -1.1261  2.1912
  241MOL0     H32482   4.195  -0.638   0.047  0.1390  0.4682 -0.4105
  241MOL0     H32483   4.086  -0.744  -0.041 -3.0106  1.3441  0.3148
  241MOL0     H32484   4.257  -0.872   0.098  1.7988 -0.0938  4.6364
  241MOL0     H32485   4.167  -0.816   0.242 -1.8243  2.6942 -0.3958
  241MOL0     H32486   4.029  -1.022   0.306  4.4379 -0.6355 -0.1602
  241MOL0     H32487   3.850  -1.304   0.061  3.0796  2.2654 -3.2144
  241MOL0     H32488   3.989  -1.337   0.173 -0.4207 -1.0154 -1.5793
  241MOL0     H32489   3.772  -1.189   0.315 -2.0546 -2.1106  4.3415
  241MOL0     H32490   3.727  -1.346   0.245  0.7877 -0.8903 -0.2302
  241MOL0     H32491   3.938  -1.443   0.332  1.2985  0.4185 -0.5107
  241MOL0     H32492   3.810  -1.410   0.446  1.0475 -0.1487  0.1845
  241MOL0     H32493   4.012  -1.328   0.575  0.7337  1.5405 -0.8819
  241MOL0     H32494   3.900  -1.201   0.517 -0.8528  0.5590 -0.7298
  241MOL0     H32495   4.263  -1.135   0.263  0.7287  0.6403 -0.4097
  241MOL0     H32496   4.495  -1.216   0.268  1.6769 -0.8168  2.0599
  241MOL0     H32497   4.777  -1.570   0.517  0.7931 -1.9207 -0.9616
  241MOL0     H32498   4.999  -1.615   0.580 -0.6849 -0.2727 -0.4484
  241MOL0     H32499   5.313  -1.338   0.401 -2.2855  0.0591 -0.3028
  241MOL0     H32500   5.429  -1.440   0.482  0.0920 -0.7382 -0.5775
  241MOL0     H32501   5.336  -1.497   0.208 -0.5626 -1.4733 -0.1881
  241MOL0     H32502   5.496  -1.432   0.271  0.6472 -0.3234  4.2298
  241MOL0     H32503   5.375  -1.705   0.288  0.4385 -1.7436  2.1749
  241MOL0     H32504   5.535  -1.654   0.222 -1.5639 -1.2344 -0.6114
  241MOL0     H32505   5.473  -1.659   0.520 -0.6041  2.2314 -0.5897
  241MOL0     H32506   5.617  -1.602   0.441  1.1153 -1.1697  2.5393
  241MOL0     H32507   5.631  -1.819   0.543  0.5014  1.6347 -0.8797
  241MOL0     H32508   5.648  -1.847   0.364  0.9415 -1.9360  0.0914
  241MOL0     H32509   5.415  -1.936   0.354 -0.4861 -1.5685  0.4232
  241MOL0     H32510   5.521  -2.017   0.470  1.9162  0.7217  0.0692
  241MOL0     H32511   5.306  -1.802   0.544  0.2089  0.5746  4.8343
  241MOL0     H32512   5.390  -1.911   0.652 -1.3989 -3.1556 -0.0180
  241MOL0     H32513   5.209  -1.991   0.425  1.5156 -0.2675 -0.9376
  241MOL0     H32514   5.286  -2.110   0.530 -0.4719  0.0327  0.7985
  241MOL0     H32515   5.141  -1.401   0.241  1.7000 -3.5861  1.8849
  241MOL0     H32516   4.915  -1.304   0.205  0.3756  0.3554  0.0082
  241MOL0     H32517   4.360  -1.595   0.430 -1.7619 -0.5050  0.5184
  241MOL0     H32518   4.141  -1.515   0.436  1.9065 -2.1131  1.8281
  241MOL0     H32519   3.732   0.122   0.251 -1.3812 -4.7474 -0.4097
  241MOL0     H32520   3.834   0.311   0.364 -1.1461 -0.5947 -1.2207
  241MOL0     H32521   4.027   0.400   0.771 -3.7764 -0.1156 -1.3172
  241MOL0     H32522   4.201   0.557   0.881  0.5487  0.3408 -0.2795
  241MOL0     H32523   4.306   0.913   0.970 -2.0775  1.2499  1.9582
  241MOL0     H32524   4.313   0.769   0.874 -0.4524  0.5535 -0.8055
  241MOL0     H32525   4.421   0.735   1.085 -0.8645  2.4212 -0.5045
  241MOL0     H32526   4.270   0.639   1.113 -0.1892 -0.7051 -0.3201
  241MOL0     H32527   4.172   0.848   1.224 -0.0682  0.0708  0.2689
  241MOL0     H32528   4.325   0.926   1.212 -2.3217  1.2071  0.2479
  241MOL0     H32529   4.437   0.767   1.339 -0.0126 -0.7468  1.2833
  241MOL0     H32530   4.310   0.837   1.432  0.6326  2.6523 -3.3524
  241MOL0     H32531   4.240   0.412   1.417  0.3731  0.2927 -1.2081
  241MOL0     H32532   3.876   0.846   0.891 -0.3432 -0.7327 -0.7225
  241MOL0     H32533   3.647   0.638   0.736  0.3310 -0.7597  0.4202
  241MOL0     H32534   3.624   0.660   0.908 -4.0488  2.2622 -2.3584
  241MOL0     H32535   3.664   0.801   0.804 -0.7840 -0.3484 -1.1011
  242MOL0     O32536   8.153   8.424   4.183  0.0258 -0.5988  0.0007
  242MOL0     C32537   8.205   8.461   4.084 -0.1846 -0.5838 -0.4745
  242MOL0     O32538   8.181   8.406   3.971 -0.7132 -0.6732 -0.0980
  242MOL0     C32539   8.149   8.483   3.865 -0.0004 -0.1898 -0.8222
  242MOL0     C32540   8.053   8.590   3.882  1.6674  0.7896 -0.5478
  242MOL0     C32541   8.038   8.690   3.788  0.2002 -0.3965 -0.5450
  242MOL0     C32542   8.103   8.685   3.664  0.6694 -1.4704 -0.0020
  242MOL0     O32543   8.087   8.763   3.554 -0.4625 -1.1733 -0.0939
  242MOL0     C32544   7.998   8.876   3.572 -0.3976 -0.5322  0.2469
  242MOL0     C32545   7.868   8.864   3.495  0.2173  0.0802 -0.8815
  242MOL0     C32546   7.768   8.782   3.566 -0.5074 -0.2931 -0.1491
  242MOL0     C32547   7.659   8.741   3.473 -0.6724 -0.4997  0.1162
  242MOL0     C32548   7.537   8.688   3.538  0.0279  0.6132 -0.3023
  242MOL0     C32549   7.427   8.615   3.455 -0.8967 -0.7565  0.5667
  242MOL0     C32550   7.363   8.710   3.346 -0.8145  0.2567 -0.5621
  242MOL0     C32551   7.254   8.640   3.260  0.5105  0.0098 -0.5610
  242MOL0     N32552   7.318   8.570   3.146  0.0771 -0.4231  0.0347
  242MOL0     C32553   7.374   8.644   3.041  0.7634 -0.1064  0.0445
  242MOL0     C32554   7.451   8.547   2.969  0.3165  0.6286  0.0793
  242MOL0     C32555   7.532   8.564   2.842 -0.5660  0.0302  0.6104
  242MOL0     C32556   7.662   8.661   2.865  0.0867 -0.2910 -0.3647
  242MOL0     C32557   7.775   8.569   2.913  0.4463 -0.5320  0.5380
  242MOL0     C32558   7.873   8.635   3.000  0.3108  0.1604 -0.3427
  242MOL0     O32559   7.966   8.532   3.041 -0.2133  0.4120 -0.7549
  242MOL0     C32560   8.085   8.572   3.091  0.3295  0.5080  0.1190
  242MOL0     C32561   8.098   8.626   3.215 -0.3156  0.7015 -0.5859
  242MOL0     C32562   8.229   8.656   3.270 -0.4572  0.6924  0.3049
  242MOL0     C32563   8.339   8.637   3.190 -0.8620  0.4724  0.3122
  242MOL0     C32564   8.478   8.661   3.245 -1.2419 -0.0916 -0.4677
  242MOL0     O32565   8.590   8.655   3.158  1.1006  0.1679 -0.5681
  242MOL0     C32566   8.698   8.720   3.207 -0.8529  0.6066  0.3632
  242MOL0     C32567   8.810   8.638   3.233 -0.1235 -0.4784 -0.3159
  242MOL0     C32568   8.929   8.695   3.279 -0.0350  0.4480 -0.6043
  242MOL0     C32569   8.938   8.835   3.287  0.5994  0.0966 -0.6769
  242MOL0     O32570   9.054   8.900   3.312 -0.2648  0.1798 -0.7553
  242MOL0     C32571   9.173   8.824   3.287 -0.6706  0.0683  0.7358
  242MOL0     C32572   9.295   8.920   3.266 -0.2519 -0.0615 -0.7577
  242MOL0     C32573   9.422   8.837   3.273 -0.5587 -0.2475  0.0570
  242MOL0     C32574   9.547   8.929   3.261  0.0683  0.3091  0.1726
  242MOL0     C32575   9.673   8.849   3.274  1.9774 -0.9168  0.0467
  242MOL0     C32576   9.802   8.898   3.228 -0.7957 -0.4961 -0.4478
  242MOL0     C32577   9.923   8.823   3.273  0.9400  0.9300  0.5444
  242MOL0     C32578  10.041   8.908   3.267  0.2616 -0.6374 -0.6099
  242MOL0    Cl32579  10.069   8.968   3.105  0.1279 -0.0153 -0.6024
  242MOL0     C32580   8.824   8.913   3.262  0.4423 -0.9267 -0.1729
  242MOL0     C32581   8.705   8.858   3.217 -0.8225 -0.1524  0.3236
  242MOL0     O32582   8.489   8.693   3.367 -0.0070 -0.5533 -0.3853
  242MOL0     C32583   8.328   8.592   3.056  0.2888  0.5056  0.9449
  242MOL0     C32584   8.205   8.539   3.016  0.2277  0.7312 -1.2662
  242MOL0     N32585   7.434   8.429   3.030 -0.4638 -0.2912 -0.2793
  242MOL0     N32586   7.356   8.437   3.129  0.6322 -0.1730  0.1879
  242MOL0     C32587   8.192   8.575   3.648  0.4930  0.3925 -0.3886
  242MOL0     C32588   8.222   8.475   3.747 -0.4781  0.1863  0.0124
  242MOL0     C32589   8.314   8.560   4.113 -0.8990 -0.4107 -0.9412
  242MOL0     C32590   8.432   8.523   4.054 -0.8253 -0.4284  0.0963
  242MOL0     C32591   8.544   8.601   4.071 -0.3299  0.1069  0.3022
  242MOL0     C32592   8.541   8.708   4.162 -0.2152 -0.1263  0.3397
  242MOL0     O32593   8.648   8.785   4.191  0.6077  0.0180  0.8302
  242MOL0     C32594   8.649   8.868   4.307  0.6564 -0.0158  1.0219
  242MOL0     C32595   8.788   8.911   4.322 -0.0748  0.2778  1.2451
  242MOL0     C32596   8.876   8.807   4.400 -0.9922  0.4932 -0.0130
  242MOL0     C32597   9.019   8.859   4.424 -0.1609 -0.1937 -0.7895
  242MOL0     C32598   9.105   8.878   4.303  0.3888 -0.9370  0.2129
  242MOL0     C32599   9.170   8.895   4.207  0.0021  0.8534  0.2211
  242MOL0     C32600   8.422   8.732   4.235 -0.6796 -0.0661  0.0152
  242MOL0     C32601   8.303   8.663   4.203 -0.0016 -0.5775 -0.3614
  242MOL0     C32602   8.169   8.713   4.264  0.2610 -0.8194 -0.1096
  242MOL0     H32603   7.994   8.594   3.973  1.5191 -5.5921  0.1049
  242MOL0     H32604   7.947   8.749   3.798  0.2516 -0.4720  0.4997
  242MOL0     H32605   7.979   8.900   3.677 -0.4375  1.2710 -0.1430
  242MOL0     H32606   8.047   8.967   3.536 -1.6059  0.2603  0.5564
  242MOL0     H32607   7.900   8.816   3.402 -0.9362 -0.0102 -1.2566
  242MOL0     H32608   7.824   8.962   3.471  1.8400  0.2388 -3.7097
  242MOL0     H32609   7.721   8.838   3.648  2.4135 -2.8914  3.6376
  242MOL0     H32610   7.810   8.698   3.621  2.2912  0.3203 -1.1969
  242MOL0     H32611   7.633   8.827   3.411  1.2931 -0.4806 -0.7769
  242MOL0     H32612   7.700   8.661   3.410 -2.7004 -0.9178 -0.7409
  242MOL0     H32613   7.562   8.615   3.616 -3.7351 -2.2739 -1.5077
  242MOL0     H32614   7.480   8.762   3.595 -2.8430 -2.7186  1.5759
  242MOL0     H32615   7.467   8.524   3.409 -2.3761 -0.8157 -0.6699
  242MOL0     H32616   7.354   8.587   3.531 -1.4836  2.2092  1.1871
  242MOL0     H32617   7.443   8.738   3.277  1.2376 -2.0104  0.7460
  242MOL0     H32618   7.322   8.793   3.405 -0.9941 -0.1696 -0.0821
  242MOL0     H32619   7.189   8.574   3.318  0.8979 -1.2860 -1.5468
  242MOL0     H32620   7.189   8.720   3.222 -2.1621 -0.8171  1.9227
  242MOL0     H32621   7.356   8.748   3.014  1.3584 -0.7612 -3.3108
  242MOL0     H32622   7.567   8.465   2.811  0.8904  0.4219  0.9021
  242MOL0     H32623   7.474   8.620   2.769 -5.4198 -1.1323  3.2048
  242MOL0     H32624   7.683   8.727   2.780  0.7068  0.4646  0.3674
  242MOL0     H32625   7.649   8.729   2.950 -0.5763 -2.1156  1.0590
  242MOL0     H32626   7.821   8.528   2.822 -1.6751 -1.6362 -0.0921
  242MOL0     H32627   7.728   8.491   2.973  1.1943 -1.3740  0.0449
  242MOL0     H32628   7.817   8.677   3.084 -2.1312 -3.4388  0.0610
  242MOL0     H32629   7.923   8.716   2.946  0.1358  1.2749  1.0977
  242MOL0     H32630   8.023   8.620   3.294  0.2491 -1.1125 -0.1379
  242MOL0     H32631   8.240   8.686   3.374  0.1628 -1.2577  0.8515
  242MOL0     H32632   8.800   8.533   3.210 -6.1800 -0.1955 -0.5409
  242MOL0     H32633   9.016   8.636   3.306  2.4033  3.9319 -0.1602
  242MOL0     H32634   9.202   8.752   3.365  0.4440  1.2754  1.4786
  242MOL0     H32635   9.159   8.773   3.191 -2.0571  2.5696 -0.4899
  242MOL0     H32636   9.305   8.976   3.172 -1.3421  2.3575  0.4695
  242MOL0     H32637   9.307   8.997   3.343  0.3384 -0.2263 -0.6809
  242MOL0     H32638   9.436   8.805   3.376  2.2815  3.2673  0.9557
  242MOL0     H32639   9.423   8.756   3.199 -2.1964  2.5942 -3.3778
  242MOL0     H32640   9.548   9.007   3.338 -0.0169  0.5951 -0.1115
  242MOL0     H32641   9.538   8.981   3.165 -2.4128 -1.1558 -0.4740
  242MOL0     H32642   9.653   8.753   3.225  3.5951 -1.5081  0.4827
  242MOL0     H32643   9.672   8.828   3.381 -1.0094  1.8730  0.7330
  242MOL0     H32644   9.799   8.891   3.119  0.0438 -4.0917 -0.3889
  242MOL0     H32645   9.813   8.995   3.278  1.2280 -1.8670  2.0476
  242MOL0     H32646   9.948   8.744   3.202 -1.1409  0.2427  0.5075
  242MOL0     H32647   9.907   8.781   3.373 -1.2883 -2.0340 -0.9089
  242MOL0     H32648  10.034   8.997   3.330  0.2185  0.4781 -2.1080
  242MOL0     H32649  10.128   8.859   3.312 -1.0663 -1.5768  1.0346
  242MOL0     H32650   8.831   9.017   3.292  3.7653 -1.0097 -0.3084
  242MOL0     H32651   8.617   8.907   3.175  1.4278  1.7896 -2.5369
  242MOL0     H32652   8.420   8.568   3.003  0.6075 -3.6283  2.9440
  242MOL0     H32653   8.204   8.478   2.926 -0.3434 -0.4269 -0.5055
  242MOL0     H32654   8.239   8.555   3.552 -0.3253 -1.3384 -0.4695
  242MOL0     H32655   8.287   8.390   3.730 -0.7397 -0.8972  3.6465
  242MOL0     H32656   8.425   8.427   4.004 -0.6271 -0.2003 -0.3731
  242MOL0     H32657   8.632   8.575   4.012 -0.8279 -0.1012 -0.3572
  242MOL0     H32658   8.628   8.817   4.401  2.3086 -0.2385  1.2981
  242MOL0     H32659   8.586   8.955   4.291  0.3516 -0.7575 -2.9985
  242MOL0     H32660   8.779   8.994   4.392  0.3520  0.8591  0.6146
  242MOL0     H32661   8.830   8.945   4.227  0.8084 -2.5030  0.5446
  242MOL0     H32662   8.883   8.714   4.344 -0.3326  0.9629 -0.7335
  242MOL0     H32663   8.826   8.781   4.494 -0.8161 -1.3134 -0.3850
  242MOL0     H32664   9.011   8.953   4.480 -1.6574 -1.4295  1.1629
  242MOL0     H32665   9.070   8.787   4.489  4.0218  0.6812 -2.7135
  242MOL0     H32666   9.214   8.934   4.118 -1.5692  1.4600 -0.3182
  242MOL0     H32667   8.415   8.820   4.298  0.5347 -0.7211  1.1245
  242MOL0     H32668   8.177   8.816   4.299 -1.8966 -1.1816  1.7196
  242MOL0     H32669   8.080   8.697   4.202 -1.8685  1.6466  2.0597
  242MOL0     H32670   8.152   8.652   4.354  2.2007 -1.1617  0.0624
  243MOL0     O32671  10.599   6.347   0.566 -0.4842 -0.1240  1.2503
  243MOL0     C32672  10.488   6.393   0.540  1.4306 -0.1421  0.7509
  243MOL0     O32673  10.443   6.538   0.559 -0.8693  0.4068 -0.0349
  243MOL0     C32674  10.546   6.623   0.575 -0.1673 -0.3954 -0.5341
  243MOL0     C32675  10.637   6.642   0.477 -1.3922  0.4483  0.3144
  243MOL0     C32676  10.754   6.722   0.508  0.4047 -0.4345  0.3769
  243MOL0     C32677  10.774   6.785   0.637  0.6159  0.7540  0.6848
  243MOL0     O32678  10.886   6.858   0.688 -0.0064  0.5183 -0.1472
  243MOL0     C32679  10.988   6.890   0.594 -1.2740 -0.0748 -0.2582
  243MOL0     C32680  10.947   7.013   0.506  0.0334  0.5595  0.9247
  243MOL0     C32681  10.940   7.150   0.575  0.2031 -0.4748 -0.7374
  243MOL0     C32682  10.961   7.261   0.473  0.3643 -0.7914 -0.0382
  243MOL0     C32683  11.021   7.389   0.536 -0.0988 -0.6098  0.3672
  243MOL0     C32684  10.935   7.447   0.648  0.6186 -0.3207 -1.0118
  243MOL0     C32685  11.001   7.575   0.704 -0.0579  0.0244 -0.3649
  243MOL0     C32686  11.110   7.535   0.809  0.2972  0.5235 -0.0808
  243MOL0     N32687  11.052   7.476   0.938  0.0450 -1.1847  0.8053
  243MOL0     C32688  11.142   7.413   1.020 -0.7331  1.0410 -0.0861
  243MOL0     C32689  11.082   7.377   1.135 -0.5322 -0.3020 -0.2404
  243MOL0     C32690  11.144   7.303   1.252 -0.5703  1.0344  0.5623
  243MOL0     C32691  11.213   7.178   1.210  0.7371  0.3670  0.1110
  243MOL0     C32692  11.219   7.076   1.331 -0.3041  0.1037  0.6598
  243MOL0     C32693  11.300   6.941   1.306  0.2768 -0.6116 -0.7345
  243MOL0     O32694  11.435   6.961   1.277 -1.2268  0.2156  0.2210
  243MOL0     C32695  11.489   6.849   1.222 -0.3984 -0.8202  0.2250
  243MOL0     C32696  11.565   6.878   1.110 -0.0524  0.4636 -1.0535
  243MOL0     C32697  11.609   6.764   1.045  0.2102  0.5878 -0.5508
  243MOL0     C32698  11.599   6.632   1.094  0.2089 -0.7142 -0.0438
  243MOL0     C32699  11.644   6.516   1.008  0.1557  0.1685 -0.6346
  243MOL0     O32700  11.647   6.541   0.876 -0.5418 -0.3398 -0.0846
  243MOL0     C32701  11.714   6.449   0.798  0.7786  0.7316  0.2868
  243MOL0     C32702  11.858   6.466   0.786  0.2238  0.9460 -0.0028
  243MOL0     C32703  11.937   6.364   0.719  0.3286  0.8166 -0.0823
  243MOL0     C32704  11.865   6.253   0.665 -0.7646 -0.6274 -0.1120
  243MOL0     O32705  11.936   6.178   0.571  0.0258  0.0499 -0.7917
  243MOL0     C32706  11.875   6.061   0.519 -0.0094 -0.0561 -0.2690
  243MOL0     C32707  11.993   5.986   0.452  0.6917 -0.6297 -0.1350
  243MOL0     C32708  11.946   5.865   0.372  0.2992 -0.0889  0.0592
  243MOL0     C32709  12.073   5.775   0.341 -1.0242  0.0746  0.2787
  243MOL0     C32710  12.012   5.643   0.282 -0.5454 -0.6895 -0.4220
  243MOL0     C32711  11.958   5.661   0.136 -0.0860  0.9642 -0.3382
  243MOL0     C32712  11.984   5.538   0.047  0.1414 -1.2484  0.3249
  243MOL0     C32713  11.920   5.536  -0.094  1.0772  0.0873 -0.3245
  243MOL0    Cl32714  11.748   5.544  -0.086  0.1135 -0.4105 -0.1454
  243MOL0     C32715  11.723   6.238   0.684 -0.6915  0.0358  0.0957
  243MOL0     C32716  11.649   6.332   0.760  0.8457  0.5389  0.3595
  243MOL0     O32717  11.690   6.426   1.069 -0.3224  0.0430  0.2487
  243MOL0     C32718  11.529   6.614   1.219  0.8071  0.9796 -0.2532
  243MOL0     C32719  11.475   6.723   1.283  1.1091 -0.4071 -0.1868
  243MOL0     N32720  10.951   7.424   1.118 -0.9288  0.7634  0.7079
  243MOL0     N32721  10.942   7.497   1.008 -0.2151 -0.4275 -0.0255
  243MOL0     C32722  10.673   6.783   0.728 -0.5830  0.1713  0.5429
  243MOL0     C32723  10.557   6.709   0.691  0.3151  0.0146  0.3778
  243MOL0     C32724  10.388   6.294   0.498  0.1400 -0.6842 -0.7012
  243MOL0     C32725  10.423   6.159   0.497 -0.2846  1.3116  1.2712
  243MOL0     C32726  10.330   6.064   0.453  0.5590  0.6732 -0.4775
  243MOL0     C32727  10.190   6.086   0.443 -0.9810  0.2743 -0.4199
  243MOL0     O32728  10.102   5.988   0.406  0.4271  0.0158 -0.1901
  243MOL0     C32729   9.966   6.012   0.448  0.1527 -0.7679  1.2492
  243MOL0     C32730   9.897   5.872   0.432  0.5062  0.0228  0.3646
  243MOL0     C32731   9.782   5.896   0.338 -0.2018  0.2100  0.3568
  243MOL0     C32732   9.825   5.875   0.191  0.0268  0.2904  0.2966
  243MOL0     C32733   9.713   5.924   0.099  0.0261 -0.0130 -0.7300
  243MOL0     C32734   9.621   5.960   0.028 -0.0745 -0.7815 -0.6339
  243MOL0     C32735  10.150   6.216   0.453  1.1099 -0.2673  0.4244
  243MOL0     C32736  10.248   6.325   0.455  0.4155 -0.3678  0.2478
  243MOL0     C32737  10.200   6.461   0.415 -0.0490 -0.2327  0.4363
  243MOL0     H32738  10.638   6.582   0.387  0.8922  2.4923 -1.1281
  243MOL0     H32739  10.824   6.741   0.428 -0.6571 -0.8919 -0.6880
  243MOL0     H32740  11.076   6.927   0.647 -1.7083  1.4238 -0.5341
  243MOL0     H32741  11.009   6.803   0.533 -2.0578 -1.9265  1.9744
  243MOL0     H32742  10.847   6.977   0.478 -0.2134  2.0984 -0.3221
  243MOL0     H32743  11.013   7.019   0.419 -0.7919 -1.5594  0.0686
  243MOL0     H32744  11.021   7.159   0.648 -1.7339 -0.3037  1.5177
  243MOL0     H32745  10.846   7.161   0.630  0.4260  2.3601 -0.7577
  243MOL0     H32746  11.020   7.233   0.385 -1.1971  1.4231 -1.8953
  243MOL0     H32747  10.863   7.296   0.441 -0.6304 -0.5154  2.9733
  243MOL0     H32748  11.125   7.372   0.563  0.0815 -1.6791 -0.9312
  243MOL0     H32749  11.039   7.459   0.454  3.9042 -3.1679 -1.2518
  243MOL0     H32750  10.838   7.466   0.600 -0.8882 -1.3021  1.4951
  243MOL0     H32751  10.896   7.383   0.727  0.1523  1.7270  0.4898
  243MOL0     H32752  10.927   7.641   0.750  2.6345  2.6710  0.5371
  243MOL0     H32753  11.049   7.631   0.623 -1.1347 -1.8345 -2.3681
  243MOL0     H32754  11.171   7.459   0.758  0.0132 -0.4288  0.9645
  243MOL0     H32755  11.172   7.624   0.820  0.7378  0.4097 -1.4125
  243MOL0     H32756  11.245   7.398   0.989 -0.5629  2.0265 -0.0420
  243MOL0     H32757  11.221   7.365   1.299 -0.4037  0.4869  1.0202
  243MOL0     H32758  11.070   7.289   1.332 -0.8072  0.2701  0.2197
  243MOL0     H32759  11.143   7.133   1.139  0.2053  0.4135  0.6018
  243MOL0     H32760  11.316   7.195   1.175  1.0501 -0.8097  0.4318
  243MOL0     H32761  11.125   7.047   1.379 -0.2347 -0.2032  0.6135
  243MOL0     H32762  11.276   7.135   1.403  2.8695 -1.3330 -0.4615
  243MOL0     H32763  11.243   6.879   1.236 -1.6083 -0.9053  0.9648
  243MOL0     H32764  11.295   6.891   1.403 -2.9903  0.0963 -0.3991
  243MOL0     H32765  11.566   6.972   1.055  0.9689 -0.9415 -3.6419
  243MOL0     H32766  11.666   6.772   0.953 -2.2600 -0.0590 -2.2278
  243MOL0     H32767  11.914   6.539   0.844  1.1019  0.0146  0.3628
  243MOL0     H32768  12.043   6.373   0.700  0.6397 -1.1657  0.4622
  243MOL0     H32769  11.848   5.987   0.595 -0.0422 -1.0190 -1.1900
  243MOL0     H32770  11.800   6.082   0.442  0.1085 -0.6396 -0.5497
  243MOL0     H32771  12.054   6.052   0.390  0.9600 -0.4343  0.3331
  243MOL0     H32772  12.072   5.950   0.519  0.8964  1.7691  1.0101
  243MOL0     H32773  11.871   5.814   0.433 -1.8003  1.1606 -1.3429
  243MOL0     H32774  11.896   5.908   0.285  0.0303  1.9889  1.1874
  243MOL0     H32775  12.147   5.754   0.419  1.2584 -2.1144 -2.2977
  243MOL0     H32776  12.135   5.822   0.264  0.9996  0.5985  2.1303
  243MOL0     H32777  11.926   5.624   0.346 -1.0254  2.6577  0.0872
  243MOL0     H32778  12.082   5.560   0.297 -0.7326 -0.8406 -0.3909
  243MOL0     H32779  11.850   5.675   0.142 -0.1462  0.2878  4.9889
  243MOL0     H32780  12.004   5.750   0.092  0.6046  0.0967 -1.4341
  243MOL0     H32781  11.940   5.459   0.109  3.5901 -2.4538  1.4681
  243MOL0     H32782  12.090   5.516   0.033  0.0528  0.2093 -4.4672
  243MOL0     H32783  11.974   5.610  -0.154 -1.9273  2.6957 -0.0183
  243MOL0     H32784  11.929   5.430  -0.121  1.1587 -0.1235  0.5145
  243MOL0     H32785  11.667   6.156   0.640 -1.7010  2.1941 -2.9248
  243MOL0     H32786  11.545   6.314   0.786  1.0401  0.4539  1.0896
  243MOL0     H32787  11.496   6.518   1.258 -1.8263  2.6478  1.9564
  243MOL0     H32788  11.416   6.711   1.373 -1.5160 -0.8982 -1.8520
  243MOL0     H32789  10.681   6.848   0.815 -0.2433  0.9535 -0.0539
  243MOL0     H32790  10.476   6.707   0.764  0.3465  2.0301  0.5287
  243MOL0     H32791  10.523   6.123   0.518 -0.7852 -1.7184 -0.8348
  243MOL0     H32792  10.368   5.963   0.450 -0.4818  0.2782 -0.7661
  243MOL0     H32793   9.934   6.095   0.384  1.9983 -0.6891  0.3453
  243MOL0     H32794   9.948   6.047   0.550  2.1536  0.7131  1.1544
  243MOL0     H32795   9.861   5.839   0.529  0.8532 -1.0328  0.1439
  243MOL0     H32796   9.961   5.795   0.388  0.9716  0.1413  0.8226
  243MOL0     H32797   9.748   6.000   0.345  0.8446  0.5099  1.2768
  243MOL0     H32798   9.697   5.842   0.380 -2.9622  5.1672  1.9374
  243MOL0     H32799   9.908   5.945   0.176  0.9111 -0.6647  0.5846
  243MOL0     H32800   9.862   5.774   0.171  3.6600  1.7744 -1.4538
  243MOL0     H32801   9.546   5.994  -0.041  1.1722  3.3218 -0.2501
  243MOL0     H32802  10.052   6.250   0.422  1.2196 -0.2909  0.0352
  243MOL0     H32803  10.277   6.538   0.407  1.0770 -1.4519 -1.2412
  243MOL0     H32804  10.137   6.461   0.325  1.3919  0.1523 -0.6041
  243MOL0     H32805  10.132   6.490   0.495 -0.5519  0.9496 -0.3821
  244MOL0     O32806   9.191   4.700   4.040  0.5936 -0.4234 -0.2296
  244MOL0     C32807   9.118   4.600   4.040  0.2627  0.0611 -0.3248
  244MOL0     O32808   9.025   4.569   3.937 -0.2447 -0.4161  0.0322
  244MOL0     C32809   9.013   4.635   3.813  0.5112 -0.0534 -0.2551
  244MOL0     C32810   9.105   4.714   3.753  0.3660  0.8413 -0.3419
  244MOL0     C32811   9.089   4.785   3.633  1.2139  0.3120  0.0540
  244MOL0     C32812   8.963   4.765   3.567 -1.1529 -0.6026 -0.3446
  244MOL0     O32813   8.915   4.852   3.476  0.2845  0.2144  0.2347
  244MOL0     C32814   9.006   4.947   3.414 -0.1615  0.3697  0.2867
  244MOL0     C32815   8.930   5.043   3.319  0.3395 -0.5173 -0.2784
  244MOL0     C32816   8.853   4.944   3.219 -0.4811  0.2805  0.4082
  244MOL0     C32817   8.761   5.024   3.120 -0.6270  1.1077 -0.1222
  244MOL0     C32818   8.748   4.968   2.975 -0.0382 -0.2107  0.8238
  244MOL0     C32819   8.696   4.823   2.969  0.2726 -0.6635  0.8761
  244MOL0     C32820   8.699   4.754   2.830 -0.7700 -0.4325  0.1210
  244MOL0     C32821   8.603   4.818   2.733 -0.0164  0.3133  0.1276
  244MOL0     N32822   8.620   4.735   2.611  0.3984 -0.4753  0.4860
  244MOL0     C32823   8.554   4.613   2.584 -0.1471 -0.4094 -0.5217
  244MOL0     C32824   8.622   4.549   2.494 -0.3930  0.2803  0.8866
  244MOL0     C32825   8.588   4.417   2.422 -0.4182 -0.0324 -0.1784
  244MOL0     C32826   8.565   4.440   2.277  0.0405  1.1072  1.0331
  244MOL0     C32827   8.646   4.342   2.188 -0.3233  0.1274 -1.0344
  244MOL0     C32828   8.582   4.349   2.046 -0.1084  0.4303 -0.7521
  244MOL0     O32829   8.602   4.477   1.986 -0.2476  0.5225 -0.2336
  244MOL0     C32830   8.578   4.489   1.848  0.0715 -0.4194 -0.5354
  244MOL0     C32831   8.543   4.384   1.762 -0.1370  0.6262  0.8338
  244MOL0     C32832   8.544   4.396   1.625  0.5898 -0.1446  0.4563
  244MOL0     C32833   8.574   4.518   1.558 -0.1620 -0.6087 -0.0222
  244MOL0     C32834   8.565   4.541   1.409  0.6799  0.1466  0.1045
  244MOL0     O32835   8.588   4.675   1.367  0.2892 -0.8207 -0.9386
  244MOL0     C32836   8.622   4.699   1.237  0.7974  0.7188 -0.9683
  244MOL0     C32837   8.728   4.619   1.184 -1.0328 -0.1712 -0.8766
  244MOL0     C32838   8.765   4.653   1.054  0.4338  0.0428 -0.1518
  244MOL0     C32839   8.709   4.750   0.967  0.7980  0.8560  0.7362
  244MOL0     O32840   8.746   4.759   0.835 -0.4781  0.0828  0.3740
  244MOL0     C32841   8.750   4.888   0.777 -0.0205  0.1479 -0.0991
  244MOL0     C32842   8.780   4.860   0.634 -0.5893  0.3638 -0.4949
  244MOL0     C32843   8.669   4.807   0.536 -0.8579 -0.1792 -0.5285
  244MOL0     C32844   8.651   4.656   0.545  0.3131 -0.1451  0.0828
  244MOL0     C32845   8.538   4.614   0.456 -0.2163 -0.0136 -0.2517
  244MOL0     C32846   8.496   4.470   0.489  0.8587  0.3796  0.9062
  244MOL0     C32847   8.366   4.433   0.419  0.2748 -0.3671  0.3741
  244MOL0     C32848   8.394   4.335   0.308  0.2320 -0.2011  0.5145
  244MOL0    Cl32849   8.532   4.372   0.197  0.0947  0.0875  0.0578
  244MOL0     C32850   8.610   4.834   1.034 -1.1347 -0.9271 -0.0925
  244MOL0     C32851   8.570   4.813   1.165 -1.1608  0.6110 -0.6884
  244MOL0     O32852   8.562   4.442   1.336 -0.3254  0.0848  0.8897
  244MOL0     C32853   8.599   4.627   1.647  0.2727 -0.9925 -0.2637
  244MOL0     C32854   8.610   4.616   1.784 -0.0397  0.8725 -0.5317
  244MOL0     N32855   8.744   4.621   2.477  0.8591  0.4329  0.7111
  244MOL0     N32856   8.736   4.737   2.539  0.3892  0.4841  0.0427
  244MOL0     C32857   8.877   4.682   3.619  0.3024 -0.0810  0.1253
  244MOL0     C32858   8.898   4.616   3.740 -0.0832  0.4257  0.4785
  244MOL0     C32859   9.110   4.506   4.154 -1.1235  0.1102 -0.3691
  244MOL0     C32860   9.049   4.383   4.133  0.2409 -0.7398  0.7623
  244MOL0     C32861   9.030   4.293   4.232  0.2342  0.1195 -0.1869
  244MOL0     C32862   9.074   4.320   4.362  0.3395 -1.0331 -0.2840
  244MOL0     O32863   9.064   4.239   4.476 -0.4425 -0.2686 -0.1253
  244MOL0     C32864   9.029   4.100   4.472 -1.0236 -0.5262  0.2167
  244MOL0     C32865   9.024   4.049   4.620  0.6193  0.5476  0.6099
  244MOL0     C32866   8.924   4.134   4.704 -0.3994  0.0806  0.6128
  244MOL0     C32867   8.789   4.119   4.624  0.1175 -0.5249  0.6701
  244MOL0     C32868   8.683   4.108   4.720  0.4718  1.4910 -0.3025
  244MOL0     C32869   8.609   4.090   4.810 -0.1645  0.3048 -0.8207
  244MOL0     C32870   9.137   4.442   4.380  0.1113  0.1481 -0.1437
  244MOL0     C32871   9.166   4.522   4.277 -0.1519  0.2921  0.1272
  244MOL0     C32872   9.247   4.647   4.311 -0.2681 -0.5798  0.2446
  244MOL0     H32873   9.191   4.741   3.815 -0.5422  3.1109  0.0107
  244MOL0     H32874   9.160   4.861   3.604 -0.8481  1.8017 -1.3437
  244MOL0     H32875   9.058   4.999   3.495 -1.4648 -0.5572  1.7768
  244MOL0     H32876   9.088   4.897   3.360  1.7352 -1.2276  4.2743
  244MOL0     H32877   9.000   5.110   3.268  1.4945 -0.3653  1.4046
  244MOL0     H32878   8.856   5.090   3.384  2.3067  0.2204  1.5461
  244MOL0     H32879   8.795   4.862   3.261 -0.7293 -0.0148 -0.5025
  244MOL0     H32880   8.935   4.901   3.161  0.5814 -1.4736  3.0013
  244MOL0     H32881   8.660   5.042   3.155  0.1386  3.5832  1.0621
  244MOL0     H32882   8.802   5.124   3.100  1.6927  0.3907  0.7377
  244MOL0     H32883   8.688   5.041   2.920 -2.6300 -3.1429 -0.5396
  244MOL0     H32884   8.848   4.964   2.931  0.6982  2.5682  2.0302
  244MOL0     H32885   8.744   4.753   3.038 -1.9066 -2.8362  0.3235
  244MOL0     H32886   8.594   4.826   3.007  0.4704 -0.0580  1.3714
  244MOL0     H32887   8.666   4.650   2.843 -4.0563  0.5191  0.2273
  244MOL0     H32888   8.798   4.760   2.785  0.1865 -6.2240  0.7181
  244MOL0     H32889   8.510   4.795   2.786  1.3646  0.6486  2.8741
  244MOL0     H32890   8.600   4.927   2.726 -2.7048  0.4534  1.9803
  244MOL0     H32891   8.464   4.567   2.624 -1.1125  0.6414 -1.4378
  244MOL0     H32892   8.671   4.346   2.433  0.4361  0.8941 -0.4471
  244MOL0     H32893   8.499   4.379   2.472 -0.9826  2.7725  1.1718
  244MOL0     H32894   8.458   4.419   2.263 -0.6854  4.1870  1.3336
  244MOL0     H32895   8.590   4.539   2.239  0.7439  0.4540 -0.2519
  244MOL0     H32896   8.625   4.243   2.229  3.2723  1.1040  4.0118
  244MOL0     H32897   8.752   4.367   2.189 -1.0137  3.4680 -0.4723
  244MOL0     H32898   8.477   4.319   2.047  0.2257 -0.9548 -2.6285
  244MOL0     H32899   8.644   4.275   1.994 -1.4930 -0.7412 -0.8164
  244MOL0     H32900   8.524   4.288   1.809  0.2819 -0.9702 -2.0585
  244MOL0     H32901   8.506   4.326   1.551 -3.6670  2.7607 -0.4257
  244MOL0     H32902   8.783   4.536   1.227 -1.1336 -1.4249 -2.9850
  244MOL0     H32903   8.844   4.590   1.014  0.3869  0.1208 -0.3638
  244MOL0     H32904   8.651   4.934   0.777 -0.5301 -0.3840 -4.8782
  244MOL0     H32905   8.831   4.953   0.810  0.0832  0.8589 -1.6526
  244MOL0     H32906   8.789   4.961   0.592  1.3002  0.6164  0.4009
  244MOL0     H32907   8.876   4.810   0.617 -0.9072 -0.0548 -1.0929
  244MOL0     H32908   8.585   4.862   0.579  0.3681 -0.1630  2.0390
  244MOL0     H32909   8.679   4.830   0.430 -2.4012 -1.5936 -1.0151
  244MOL0     H32910   8.643   4.626   0.650  0.3693 -1.0086 -0.1486
  244MOL0     H32911   8.744   4.611   0.509 -0.4958 -0.5110 -1.6658
  244MOL0     H32912   8.570   4.618   0.352 -1.2374  1.4350 -0.5442
  244MOL0     H32913   8.454   4.685   0.458 -1.5582 -1.5588 -0.4095
  244MOL0     H32914   8.578   4.400   0.470  2.0380  1.6645  1.1245
  244MOL0     H32915   8.470   4.469   0.595 -2.6829 -2.2533  0.2249
  244MOL0     H32916   8.308   4.519   0.385 -0.4496 -1.8922 -2.6185
  244MOL0     H32917   8.304   4.371   0.484  0.2712  0.2567  0.9738
  244MOL0     H32918   8.415   4.234   0.345  0.6692 -1.1565 -2.1149
  244MOL0     H32919   8.296   4.342   0.260 -1.1410  2.5284  3.3213
  244MOL0     H32920   8.566   4.916   0.979  1.1989  0.4430 -0.0885
  244MOL0     H32921   8.491   4.864   1.220 -2.1237 -2.5754  1.1978
  244MOL0     H32922   8.601   4.731   1.615 -2.3697 -1.0664 -0.8830
  244MOL0     H32923   8.641   4.696   1.851 -1.4006  0.3730  0.7380
  244MOL0     H32924   8.782   4.654   3.575  1.5736 -4.6705 -0.1884
  244MOL0     H32925   8.824   4.544   3.774  0.4345  0.9818  2.9811
  244MOL0     H32926   9.012   4.351   4.036  0.0046  0.5885  0.3929
  244MOL0     H32927   8.986   4.196   4.208  0.4262  0.3650 -1.6296
  244MOL0     H32928   9.104   4.044   4.414 -1.3020  0.3945 -1.0707
  244MOL0     H32929   8.937   4.092   4.414 -0.6281  1.5031 -0.7770
  244MOL0     H32930   9.121   4.055   4.670  0.6547  1.8184  0.4096
  244MOL0     H32931   9.002   3.942   4.619  4.8889 -0.5855 -1.9544
  244MOL0     H32932   8.956   4.237   4.722 -3.8949  1.1038  1.8171
  244MOL0     H32933   8.913   4.087   4.801 -0.5656 -1.6140 -0.1982
  244MOL0     H32934   8.777   4.208   4.561  1.4466 -0.6910  0.1562
  244MOL0     H32935   8.774   4.036   4.554  0.2033  0.7648 -0.9624
  244MOL0     H32936   8.550   4.050   4.891  0.9619 -2.0859 -1.0863
  244MOL0     H32937   9.175   4.466   4.479  1.8126 -3.7922  0.3588
  244MOL0     H32938   9.344   4.645   4.260 -0.7325 -1.0920 -0.6318
  244MOL0     H32939   9.188   4.734   4.283  0.1255 -1.0989 -2.4711
  244MOL0     H32940   9.276   4.649   4.417  0.0062 -1.5074  0.1945
  245MOL0     O32941   9.462  11.434   0.992  0.2849 -1.0221  0.0558
  245MOL0     C32942   9.343  11.458   0.989  1.1173  0.0376  0.1431
  245MOL0     O32943   9.245  11.387   1.059 -0.0400 -0.0316 -0.4436
  245MOL0     C32944   9.290  11.299   1.162 -0.3165 -0.0674  0.0375
  245MOL0     C32945   9.331  11.175   1.131  0.3976 -0.3434 -0.7698
  245MOL0     C32946   9.352  11.087   1.234  0.2260 -0.8568 -0.0476
  245MOL0     C32947   9.337  11.115   1.365 -0.6918  0.1711 -0.0087
  245MOL0     O32948   9.373  11.008   1.451  0.1581 -0.3010  0.4612
  245MOL0     C32949   9.339  11.025   1.592  0.7522  0.3090  0.4751
  245MOL0     C32950   9.387  10.904   1.667  0.6617 -0.4663  0.7728
  245MOL0     C32951   9.362  10.919   1.828  0.7890  0.1877  0.6877
  245MOL0     C32952   9.406  10.791   1.903 -0.2663  0.1745  0.7792
  245MOL0     C32953   9.398  10.817   2.055  0.2879 -0.9179 -0.6027
  245MOL0     C32954   9.416  10.700   2.150 -1.0968 -0.9897 -0.6395
  245MOL0     C32955   9.367  10.573   2.103 -0.1207  0.7820  0.0747
  245MOL0     C32956   9.217  10.580   2.083  0.1528 -0.6998  0.2478
  245MOL0     N32957   9.153  10.454   2.050  0.0296 -0.4067 -0.3000
  245MOL0     C32958   9.198  10.334   1.992 -0.2771 -0.9252 -0.5431
  245MOL0     C32959   9.085  10.258   1.970  1.2054 -0.8338  0.7386
  245MOL0     C32960   9.094  10.110   1.924 -0.4028 -0.2561  0.3540
  245MOL0     C32961   9.216  10.041   1.974  0.1858  0.6938 -0.5816
  245MOL0     C32962   9.224   9.890   1.972 -0.1645  0.8826  0.6007
  245MOL0     C32963   9.121   9.815   2.060  0.9327 -0.4208  0.4446
  245MOL0     O32964   9.140   9.674   2.018  0.2500 -0.0106  0.1633
  245MOL0     C32965   9.040   9.585   2.057 -0.2570 -0.5819 -0.0343
  245MOL0     C32966   8.914   9.608   2.123 -0.0326  0.8941  0.1801
  245MOL0     C32967   8.826   9.509   2.150 -0.4187 -0.0550 -0.5353
  245MOL0     C32968   8.853   9.378   2.108  0.9762 -0.0232 -0.2765
  245MOL0     C32969   8.774   9.276   2.168  0.9913  0.6051  0.4587
  245MOL0     O32970   8.643   9.288   2.148 -0.0503  0.3017 -0.0981
  245MOL0     C32971   8.554   9.192   2.173  0.0072 -0.2871 -0.1684
  245MOL0     C32972   8.453   9.184   2.085 -0.3075  1.0483 -0.1012
  245MOL0     C32973   8.342   9.104   2.110  0.2680 -0.1568 -0.4265
  245MOL0     C32974   8.335   9.011   2.214  0.1337  0.3347  0.1464
  245MOL0     O32975   8.216   8.941   2.222  0.4581 -0.7658 -0.5494
  245MOL0     C32976   8.216   8.822   2.303  0.7460  1.5215  1.1193
  245MOL0     C32977   8.125   8.709   2.254  0.7031  0.6369 -1.7327
  245MOL0     C32978   8.008   8.753   2.180  0.4075  0.1736  0.9581
  245MOL0     C32979   7.909   8.643   2.143 -0.1956  0.6297 -0.1689
  245MOL0     C32980   7.769   8.681   2.088  0.6620 -0.2577  0.4575
  245MOL0     C32981   7.754   8.744   1.951 -0.0131 -0.1114 -0.0006
  245MOL0     C32982   7.614   8.777   1.897 -0.3276  1.0393  0.1249
  245MOL0     C32983   7.534   8.845   2.005  0.1624 -1.1362 -0.5528
  245MOL0    Cl32984   7.372   8.892   1.945 -0.1987 -0.2712 -0.0045
  245MOL0     C32985   8.429   9.028   2.314  0.4743  0.9258  0.3853
  245MOL0     C32986   8.541   9.118   2.287 -0.0545 -0.8450  0.7578
  245MOL0     O32987   8.835   9.168   2.186  0.7119  0.9935  1.0222
  245MOL0     C32988   8.964   9.356   2.027 -0.8571 -0.7559  0.3127
  245MOL0     C32989   9.062   9.457   2.001 -0.1887 -0.7132  0.2575
  245MOL0     N32990   8.974  10.327   2.009 -0.0333  0.0111  0.0514
  245MOL0     N32991   9.015  10.438   2.058 -0.0913  0.2197 -0.1968
  245MOL0     C32992   9.289  11.240   1.400 -0.3718 -0.3698 -0.8566
  245MOL0     C32993   9.265  11.334   1.298 -0.0774 -0.2718 -0.3884
  245MOL0     C32994   9.292  11.556   0.898 -0.6438  0.0122  0.8496
  245MOL0     C32995   9.158  11.561   0.867 -0.7263  0.4518 -0.5201
  245MOL0     C32996   9.107  11.641   0.759  0.2435  0.2315  0.3034
  245MOL0     C32997   9.193  11.727   0.679  0.4354  0.2204  0.2088
  245MOL0     O32998   9.139  11.829   0.599 -0.4751 -0.6780  0.0628
  245MOL0     C32999   9.001  11.827   0.570 -0.3331  0.0061 -0.3754
  245MOL0     C33000   8.968  11.933   0.461 -0.0583  0.8661 -0.1857
  245MOL0     C33001   9.027  11.903   0.333 -0.1037 -0.1919  1.8902
  245MOL0     C33002   8.975  12.007   0.231 -0.3104 -1.1888 -0.1882
  245MOL0     C33003   9.037  11.994   0.100 -0.3614  0.0959 -0.2554
  245MOL0     C33004   9.079  11.994  -0.014 -0.1873 -0.3636  0.2000
  245MOL0     C33005   9.329  11.720   0.708 -0.3153 -0.1648  1.0621
  245MOL0     C33006   9.383  11.641   0.816 -0.0873  1.3043 -0.2513
  245MOL0     C33007   9.532  11.650   0.851 -0.5885 -0.2859 -0.6698
  245MOL0     H33008   9.329  11.141   1.028 -2.9657 -0.4434 -0.8047
  245MOL0     H33009   9.382  10.989   1.198  2.1738  0.0489 -1.0408
  245MOL0     H33010   9.386  11.117   1.626  1.4342  1.3817 -2.9377
  245MOL0     H33011   9.231  11.031   1.607  0.7491 -1.7218  1.6016
  245MOL0     H33012   9.495  10.900   1.650  0.3294 -0.0097 -1.8603
  245MOL0     H33013   9.329  10.818   1.634 -1.7374  1.9678 -1.8747
  245MOL0     H33014   9.257  10.939   1.850  0.7250  0.7359 -0.0465
  245MOL0     H33015   9.422  11.001   1.868  2.0276 -1.1987  1.7815
  245MOL0     H33016   9.342  10.708   1.873  1.4950 -1.1884  0.5960
  245MOL0     H33017   9.511  10.775   1.875  0.5442  3.6587  1.3091
  245MOL0     H33018   9.459  10.902   2.086 -1.9048  1.1034 -1.5489
  245MOL0     H33019   9.298  10.852   2.080  2.3994  4.9009  1.2501
  245MOL0     H33020   9.520  10.672   2.169 -2.0515 -2.3663  3.9758
  245MOL0     H33021   9.376  10.721   2.250 -3.1573  1.3142 -1.8494
  245MOL0     H33022   9.385  10.496   2.178  0.1764  1.6236  0.8833
  245MOL0     H33023   9.409  10.533   2.010 -2.4426  0.5780 -0.9788
  245MOL0     H33024   9.166  10.625   2.169 -0.2285 -1.2838  0.3345
  245MOL0     H33025   9.190  10.643   1.998 -1.0206 -2.8511 -1.0625
  245MOL0     H33026   9.300  10.301   2.002  0.4414  1.1785 -0.3754
  245MOL0     H33027   9.002  10.070   1.968 -0.5613  0.0546  0.3119
  245MOL0     H33028   9.069  10.097   1.819 -0.9950 -0.3520  0.5034
  245MOL0     H33029   9.307  10.079   1.926  1.3746 -1.8188 -0.4325
  245MOL0     H33030   9.212  10.062   2.081  1.0271  1.2774 -0.6551
  245MOL0     H33031   9.322   9.855   2.006 -0.7849 -1.5390  0.0517
  245MOL0     H33032   9.221   9.862   1.866  0.8890 -0.5369  0.9144
  245MOL0     H33033   9.024   9.850   2.024  2.6703  0.9812 -3.4371
  245MOL0     H33034   9.144   9.834   2.165  2.5303 -0.4182  0.1163
  245MOL0     H33035   8.887   9.708   2.152 -1.3060  0.4903  0.4496
  245MOL0     H33036   8.737   9.520   2.212  1.1557 -2.0462  2.2552
  245MOL0     H33037   8.456   9.243   1.994 -0.7196 -1.0694 -1.5684
  245MOL0     H33038   8.269   9.097   2.031 -0.0568 -0.2829 -0.1152
  245MOL0     H33039   8.312   8.770   2.300 -0.2811 -0.5307  1.4980
  245MOL0     H33040   8.195   8.847   2.407  0.7680  3.0697  0.7679
  245MOL0     H33041   8.188   8.644   2.192  2.3729 -2.2866  2.6088
  245MOL0     H33042   8.095   8.637   2.330  0.3292 -1.2886 -3.5975
  245MOL0     H33043   7.945   8.821   2.238  0.6417  0.3608  0.9908
  245MOL0     H33044   8.037   8.805   2.088 -4.2883 -0.7788 -1.3924
  245MOL0     H33045   7.902   8.588   2.237  1.2016 -1.7577 -1.3718
  245MOL0     H33046   7.958   8.581   2.068  0.7025 -0.8719  1.5659
  245MOL0     H33047   7.719   8.752   2.155 -4.5118 -0.0549 -3.0271
  245MOL0     H33048   7.699   8.597   2.089 -0.5335  0.7051  0.4969
  245MOL0     H33049   7.813   8.836   1.959 -0.4316  0.2657 -0.9538
  245MOL0     H33050   7.810   8.671   1.891 -0.9019 -1.7869  1.1221
  245MOL0     H33051   7.560   8.695   1.850  0.6567  0.1844  0.4700
  245MOL0     H33052   7.620   8.849   1.815 -0.2073  0.3410 -0.4822
  245MOL0     H33053   7.533   8.785   2.097  6.1649  1.0429  1.4182
  245MOL0     H33054   7.588   8.933   2.043  0.5080 -0.9428 -1.4628
  245MOL0     H33055   8.402   8.987   2.411 -0.4044  0.8218  0.1069
  245MOL0     H33056   8.617   9.112   2.364  2.2250  0.6657 -1.2069
  245MOL0     H33057   8.980   9.254   1.995 -3.2854 -0.4102 -2.4659
  245MOL0     H33058   9.158   9.422   1.964 -0.5523 -1.9830  0.4759
  245MOL0     H33059   9.270  11.270   1.503  1.5335  1.5478 -0.9865
  245MOL0     H33060   9.236  11.435   1.326 -1.1720 -0.7527  0.2730
  245MOL0     H33061   9.105  11.497   0.937  1.3243  0.6803  1.3698
  245MOL0     H33062   9.000  11.633   0.748  0.6100 -3.5319 -2.5817
  245MOL0     H33063   8.941  11.838   0.661 -0.4451  0.6328 -0.5239
  245MOL0     H33064   8.976  11.730   0.524  1.6465 -0.6413 -0.1560
  245MOL0     H33065   8.998  12.028   0.508  1.0261 -0.8808  2.9557
  245MOL0     H33066   8.860  11.924   0.441  0.2082 -1.6525 -0.8237
  245MOL0     H33067   9.008  11.798   0.311 -4.2639  0.6455  0.5618
  245MOL0     H33068   9.135  11.922   0.331 -0.1602  0.7355 -2.8396
  245MOL0     H33069   8.866  12.016   0.230 -0.2107  0.1822  0.0919
  245MOL0     H33070   9.012  12.099   0.276 -2.3156 -1.1621  1.5592
  245MOL0     H33071   9.126  11.993  -0.111  0.7713  2.5642  0.5353
  245MOL0     H33072   9.390  11.794   0.657 -1.1881  0.6717  1.2036
  245MOL0     H33073   9.576  11.730   0.790 -0.5066  1.0609  1.0701
  245MOL0     H33074   9.531  11.682   0.955  3.0350  0.4034 -0.7071
  245MOL0     H33075   9.590  11.559   0.837  1.1988  0.1758  2.8819
  246MOL0     O33076   8.813  10.593   0.152 -0.2380  0.0844  0.5398
  246MOL0     C33077   8.768  10.586   0.041 -0.3219  0.7330 -0.2033
  246MOL0     O33078   8.714  10.475  -0.022 -1.0053  0.3583 -0.1941
  246MOL0     C33079   8.732  10.342   0.025 -0.3708 -0.6988 -0.2494
  246MOL0     C33080   8.770  10.249  -0.068 -0.2485  0.5681 -0.3094
  246MOL0     C33081   8.800  10.120  -0.035 -0.3364  0.0785 -0.2880
  246MOL0     C33082   8.795  10.080   0.098  0.3125 -0.2845 -0.1131
  246MOL0     O33083   8.817   9.959   0.149  0.1879  0.5733 -0.2366
  246MOL0     C33084   8.811   9.846   0.059  0.2031 -0.8056 -0.4946
  246MOL0     C33085   8.677   9.826  -0.020 -0.8362 -0.2720 -0.7584
  246MOL0     C33086   8.682   9.686  -0.095  0.1242  0.2090 -0.6424
  246MOL0     C33087   8.768   9.689  -0.229 -0.0521 -0.2352  0.0116
  246MOL0     C33088   8.850   9.553  -0.246  0.8613  0.6633 -0.0488
  246MOL0     C33089   8.938   9.547  -0.373 -0.0717  0.1556  0.1000
  246MOL0     C33090   9.043   9.430  -0.377  0.1939  0.1235  0.6513
  246MOL0     C33091   9.183   9.445  -0.308  0.7409  0.2801 -0.0513
  246MOL0     N33092   9.165   9.467  -0.167 -0.1154  0.3104  0.2997
  246MOL0     C33093   9.198   9.582  -0.101 -0.3462  0.1328  0.0952
  246MOL0     C33094   9.202   9.541   0.029 -0.1036 -1.1180 -0.0581
  246MOL0     C33095   9.264   9.629   0.134 -0.7197  0.6452  0.1580
  246MOL0     C33096   9.160   9.732   0.182  0.2485  0.4592 -0.4562
  246MOL0     C33097   9.207   9.794   0.313 -0.7265  0.5302 -0.8911
  246MOL0     C33098   9.107   9.905   0.349 -0.6205 -0.6019 -0.5702
  246MOL0     O33099   9.174  10.002   0.440  0.2090 -0.3182  0.4652
  246MOL0     C33100   9.257   9.963   0.546 -0.2261  0.0403 -0.1662
  246MOL0     C33101   9.373  10.036   0.559 -0.7294 -0.4053 -0.6998
  246MOL0     C33102   9.468   9.998   0.667 -0.7920  0.0264 -0.2431
  246MOL0     C33103   9.435   9.906   0.762  0.4765 -0.5717  0.2541
  246MOL0     C33104   9.520   9.875   0.880 -0.8219  0.4780 -0.1752
  246MOL0     O33105   9.608   9.960   0.919 -0.2038  0.1892  0.5301
  246MOL0     C33106   9.658   9.944   1.045 -0.5379  0.0799 -0.2963
  246MOL0     C33107   9.602   9.998   1.159  0.0528 -0.3088  0.0291
  246MOL0     C33108   9.657   9.986   1.283  0.5156 -0.3753 -1.0419
  246MOL0     C33109   9.779   9.916   1.298 -1.2724 -1.0201  0.9800
  246MOL0     O33110   9.830   9.918   1.425  0.9274  0.0503 -0.5506
  246MOL0     C33111   9.964   9.881   1.449 -0.9191  0.1789 -0.1542
  246MOL0     C33112  10.005   9.900   1.594  0.4978  1.4063 -0.1456
  246MOL0     C33113   9.914   9.834   1.695  0.0719  0.5728  0.0850
  246MOL0     C33114   9.905   9.689   1.677 -0.7220  0.6098 -0.1099
  246MOL0     C33115   9.850   9.616   1.797  0.4812  0.0858  0.4881
  246MOL0     C33116   9.692   9.614   1.809 -0.3160  0.3697 -0.0142
  246MOL0     C33117   9.649   9.533   1.917 -0.2508  0.4197 -0.2068
  246MOL0     C33118   9.501   9.539   1.959  0.0408 -0.5179 -0.7827
  246MOL0    Cl33119   9.490   9.418   2.092 -0.5606 -0.2280 -0.2340
  246MOL0     C33120   9.836   9.851   1.189  0.7446  0.1500  0.6214
  246MOL0     C33121   9.776   9.871   1.063 -0.0531  0.1277  0.8424
  246MOL0     O33122   9.508   9.764   0.935  0.5434  1.1045  0.7123
  246MOL0     C33123   9.313   9.839   0.750  0.4470  0.5090  0.2584
  246MOL0     C33124   9.222   9.875   0.646 -0.2642 -1.0474  0.6837
  246MOL0     N33125   9.175   9.404   0.038 -0.3318 -0.2533  0.0654
  246MOL0     N33126   9.161   9.358  -0.081  0.6098  0.3801  0.1306
  246MOL0     C33127   8.760  10.178   0.198  0.9359 -0.0615  0.3263
  246MOL0     C33128   8.721  10.310   0.159 -0.2492  0.8648  0.2239
  246MOL0     C33129   8.771  10.722  -0.023  0.9990  1.0758  0.4291
  246MOL0     C33130   8.722  10.715  -0.163  1.1801  0.0569 -0.2658
  246MOL0     C33131   8.732  10.822  -0.241  0.1911  0.6790  0.1649
  246MOL0     C33132   8.791  10.938  -0.200 -0.8459 -0.3780 -0.6479
  246MOL0     O33133   8.806  11.055  -0.279 -0.9321 -0.3003 -0.4650
  246MOL0     C33134   8.770  11.066  -0.412  0.5891  0.4958 -0.0745
  246MOL0     C33135   8.805  11.191  -0.480 -0.3818  0.2963 -1.3414
  246MOL0     C33136   8.732  11.179  -0.622 -0.2960  1.2104 -0.0745
  246MOL0     C33137   8.761  11.301  -0.718 -0.4504  0.0212 -1.0364
  246MOL0     C33138   8.681  11.415  -0.667 -0.0313 -0.6266 -0.1678
  246MOL0     C33139   8.612  11.509  -0.642  0.9947  0.9313 -0.9905
  246MOL0     C33140   8.837  10.944  -0.069 -0.3403  0.0295  0.5208
  246MOL0     C33141   8.827  10.840   0.019 -0.3705 -0.7180 -0.1058
  246MOL0     C33142   8.886  10.862   0.154  0.1897 -0.1868  0.3259
  246MOL0     H33143   8.795  10.276  -0.170 -1.0611  0.3438 -0.5762
  246MOL0     H33144   8.831  10.046  -0.108  1.4726 -0.8017  1.2842
  246MOL0     H33145   8.893   9.849  -0.013  3.0046 -1.9091  2.4027
  246MOL0     H33146   8.837   9.758   0.118  1.4451  2.0632  3.7491
  246MOL0     H33147   8.666   9.908  -0.092 -0.7742  0.5841  0.1878
  246MOL0     H33148   8.604   9.829   0.062  0.1680 -1.1675  0.1912
  246MOL0     H33149   8.586   9.638  -0.116 -0.6796  0.3559  2.3047
  246MOL0     H33150   8.737   9.611  -0.038  0.2843 -2.9487 -4.5037
  246MOL0     H33151   8.690   9.699  -0.306 -1.0363 -0.4189  0.9519
  246MOL0     H33152   8.838   9.772  -0.235 -1.2137  1.0837  3.0522
  246MOL0     H33153   8.911   9.541  -0.156  0.1595 -1.5608  0.1890
  246MOL0     H33154   8.785   9.468  -0.268  2.5522  0.0918 -3.3007
  246MOL0     H33155   8.882   9.536  -0.467 -2.5330 -3.7131  1.7406
  246MOL0     H33156   8.997   9.637  -0.386  0.6743 -0.1423  1.2547
  246MOL0     H33157   9.053   9.422  -0.485 -1.9415  1.3512  0.3000
  246MOL0     H33158   9.002   9.331  -0.353 -1.4497  1.2210  2.7998
  246MOL0     H33159   9.239   9.351  -0.319 -1.9985 -1.3623 -0.8614
  246MOL0     H33160   9.231   9.535  -0.349 -0.6602  0.2548 -1.8887
  246MOL0     H33161   9.232   9.682  -0.126  3.0683 -1.1516 -0.9466
  246MOL0     H33162   9.306   9.574   0.219 -1.2564  1.1554  0.7568
  246MOL0     H33163   9.344   9.684   0.084 -1.2357  1.8456  0.6273
  246MOL0     H33164   9.138   9.803   0.102 -0.5438  0.1412 -0.5249
  246MOL0     H33165   9.060   9.689   0.189  0.2538  0.3079 -1.2641
  246MOL0     H33166   9.308   9.833   0.295 -0.3146 -1.0988 -2.3477
  246MOL0     H33167   9.213   9.707   0.379  3.3985  0.8331 -0.5856
  246MOL0     H33168   9.012   9.879   0.397 -0.2812  0.7260  0.9066
  246MOL0     H33169   9.077   9.969   0.266  3.9396  1.3194 -1.0163
  246MOL0     H33170   9.408  10.113   0.491 -0.0913  2.7193  2.8343
  246MOL0     H33171   9.566  10.044   0.666  0.0720 -1.7095 -0.3603
  246MOL0     H33172   9.508  10.050   1.143  0.5673  0.1957 -1.6054
  246MOL0     H33173   9.611  10.033   1.369 -1.8817 -4.0432 -0.0721
  246MOL0     H33174   9.980   9.774   1.434  1.8853  0.6483 -1.1206
  246MOL0     H33175  10.028   9.934   1.378 -0.8768 -0.6775 -0.7674
  246MOL0     H33176  10.109   9.867   1.599 -0.0183 -0.2104  0.9986
  246MOL0     H33177  10.009  10.005   1.623  2.8629  0.8864  1.7705
  246MOL0     H33178   9.958   9.862   1.792 -0.1143 -0.6303  0.5369
  246MOL0     H33179   9.815   9.880   1.696  0.4358  1.3933 -0.5145
  246MOL0     H33180   9.997   9.652   1.631  0.2158  1.6735  0.8270
  246MOL0     H33181   9.841   9.668   1.591  0.9848  0.8343 -1.5141
  246MOL0     H33182   9.887   9.658   1.890  3.2583  1.1559 -0.9947
  246MOL0     H33183   9.897   9.517   1.808 -0.3377 -0.1249  2.5093
  246MOL0     H33184   9.660   9.717   1.828 -0.8046  0.4758 -1.2913
  246MOL0     H33185   9.649   9.568   1.719  2.0213 -2.0589 -0.0110
  246MOL0     H33186   9.695   9.554   2.014 -1.0215 -1.5936  0.6614
  246MOL0     H33187   9.672   9.428   1.895 -1.9972 -0.4165  1.5860
  246MOL0     H33188   9.490   9.635   2.010  1.7212  0.6563 -2.4880
  246MOL0     H33189   9.437   9.515   1.874 -2.1658  0.4338  0.5157
  246MOL0     H33190   9.917   9.779   1.196 -1.8425 -3.4846 -2.7900
  246MOL0     H33191   9.824   9.822   0.979  1.1335  1.7976  0.5207
  246MOL0     H33192   9.281   9.750   0.803  2.8291 -2.6186 -3.0743
  246MOL0     H33193   9.127   9.823   0.645 -0.3067 -1.1674 -2.7366
  246MOL0     H33194   8.759  10.164   0.306  0.2754 -1.3110  0.1732
  246MOL0     H33195   8.676  10.392   0.213 -0.4367  2.2360 -1.8948
  246MOL0     H33196   8.684  10.623  -0.206  2.3950 -2.3921  3.3538
  246MOL0     H33197   8.696  10.811  -0.342 -0.6765 -1.1376  0.6260
  246MOL0     H33198   8.660  11.060  -0.410  0.2576  4.0474 -0.3364
  246MOL0     H33199   8.802  10.981  -0.472 -2.1298 -0.9022  0.2843
  246MOL0     H33200   8.913  11.193  -0.494 -0.5074  0.6329 -2.3203
  246MOL0     H33201   8.780  11.282  -0.424  1.5937 -0.6252  1.2760
  246MOL0     H33202   8.623  11.167  -0.614 -0.2679 -0.3177 -1.5861
  246MOL0     H33203   8.768  11.099  -0.687 -2.0766  2.6101 -3.0063
  246MOL0     H33204   8.865  11.321  -0.691 -0.5942 -2.2736  1.6674
  246MOL0     H33205   8.746  11.275  -0.823 -1.5277 -0.3810 -0.7875
  246MOL0     H33206   8.559  11.594  -0.604  1.8122 -0.0344  2.6402
  246MOL0     H33207   8.875  11.040  -0.036  0.4297 -0.2957  0.5905
  246MOL0     H33208   8.982  10.811   0.156  1.8455  2.5073 -2.1445
  246MOL0     H33209   8.902  10.969   0.171  3.0678 -1.2469  7.4792
  246MOL0     H33210   8.823  10.839   0.241  4.2690 -1.1729  3.3112
  247MOL0     O33211   9.424   0.152   7.791  0.3645  0.3797  0.4259
  247MOL0     C33212   9.522   0.229   7.760  0.6819 -0.0003 -1.0005
  247MOL0     O33213   9.527   0.365   7.803 -0.6975 -0.6523 -0.6222
  247MOL0     C33214   9.419   0.409   7.874 -0.4824 -0.8249 -0.3200
  247MOL0     C33215   9.457   0.463   7.992 -0.0343 -0.7244  0.4386
  247MOL0     C33216   9.362   0.519   8.086  0.0658  0.3820  1.4949
  247MOL0     C33217   9.225   0.509   8.048 -0.1831  0.9176 -1.1745
  247MOL0     O33218   9.140   0.576   8.139  0.6046  0.3219  0.2778
  247MOL0     C33219   9.002   0.529   8.147 -0.5796  0.9590  0.6639
  247MOL0     C33220   8.993   0.408   8.232  0.1491  0.6471  0.7409
  247MOL0     C33221   8.864   0.335   8.203  0.9707  0.1249 -0.0292
  247MOL0     C33222   8.869   0.176   8.249 -0.3311 -1.0245 -0.5676
  247MOL0     C33223   8.733   0.118   8.209  0.3477  1.2443  0.8304
  247MOL0     C33224   8.725  -0.031   8.269  0.0900 -0.8582 -0.6507
  247MOL0     C33225   8.644  -0.113   8.173 -0.6555  0.9193 -0.8947
  247MOL0     C33226   8.720  -0.179   8.052 -0.1743  0.3696  0.2604
  247MOL0     N33227   8.621  -0.242   7.959 -0.1997  0.5200  0.6981
  247MOL0     C33228   8.512  -0.182   7.890 -0.1997  0.0548  0.9999
  247MOL0     C33229   8.489  -0.278   7.800 -0.0009  0.3701 -0.4694
  247MOL0     C33230   8.368  -0.286   7.721  0.0023 -0.6679  0.5885
  247MOL0     C33231   8.243  -0.294   7.807 -0.8260  0.3452  0.7750
  247MOL0     C33232   8.125  -0.285   7.720 -0.5261 -1.0373 -0.0394
  247MOL0     C33233   8.009  -0.274   7.820  0.9753 -0.9196 -0.5038
  247MOL0     O33234   7.903  -0.282   7.722 -0.6704  0.0043  0.2430
  247MOL0     C33235   7.819  -0.172   7.728 -0.4998  0.4649 -0.7969
  247MOL0     C33236   7.713  -0.155   7.816  0.7380 -0.6549 -0.3062
  247MOL0     C33237   7.624  -0.046   7.811  0.5745  0.4074  0.0974
  247MOL0     C33238   7.639   0.042   7.710 -1.2006 -0.2156  0.0222
  247MOL0     C33239   7.545   0.159   7.696 -0.0079  0.3734  0.6681
  247MOL0     O33240   7.570   0.252   7.591 -0.2504  0.4704  0.2571
  247MOL0     C33241   7.469   0.347   7.575 -0.0691 -0.3185  0.3835
  247MOL0     C33242   7.351   0.319   7.510  0.1515  0.7072 -0.2705
  247MOL0     C33243   7.262   0.430   7.475 -0.2355  0.5814  0.2250
  247MOL0     C33244   7.276   0.558   7.530 -0.3377 -0.1048  0.0138
  247MOL0     O33245   7.191   0.658   7.489 -0.7859  0.0511  0.2443
  247MOL0     C33246   7.206   0.699   7.354 -1.1166 -0.4678 -0.5638
  247MOL0     C33247   7.187   0.854   7.356 -0.4473  1.3264  0.1910
  247MOL0     C33248   7.046   0.895   7.364 -0.7755 -0.7399 -0.8181
  247MOL0     C33249   7.039   1.043   7.335 -0.2795  0.1513 -0.3959
  247MOL0     C33250   6.895   1.099   7.322  0.1788  0.6129 -0.9426
  247MOL0     C33251   6.892   1.213   7.222  0.1050  0.5328  1.1417
  247MOL0     C33252   6.763   1.301   7.248 -1.0235 -0.1016  0.4944
  247MOL0     C33253   6.639   1.237   7.181 -0.3173  0.2700 -0.2952
  247MOL0    Cl33254   6.480   1.320   7.226 -0.2449  0.0081  0.2579
  247MOL0     C33255   7.392   0.582   7.591 -0.3017 -0.5268 -0.1567
  247MOL0     C33256   7.492   0.477   7.614 -0.5988 -0.2657 -0.6502
  247MOL0     O33257   7.447   0.152   7.767  1.0897 -0.8318  0.5337
  247MOL0     C33258   7.737   0.019   7.610 -0.2052  0.3694  0.7355
  247MOL0     C33259   7.828  -0.080   7.627 -0.5798  0.4664  0.1273
  247MOL0     N33260   8.585  -0.371   7.803  1.0741 -0.7537 -0.0478
  247MOL0     N33261   8.659  -0.361   7.897 -0.2115  0.5290  0.4582
  247MOL0     C33262   9.189   0.460   7.926 -0.4753 -0.1716  0.1679
  247MOL0     C33263   9.284   0.411   7.842 -0.0181  0.0325  0.0445
  247MOL0     C33264   9.643   0.174   7.702 -0.3618  0.1271 -0.7206
  247MOL0     C33265   9.766   0.254   7.714  0.2577  0.2789 -0.6426
  247MOL0     C33266   9.882   0.212   7.646  0.0660  0.6630 -0.3775
  247MOL0     C33267   9.887   0.093   7.578 -0.7446  0.2321  0.0791
  247MOL0     O33268  10.006   0.059   7.509  0.1036 -0.2434  0.0951
  247MOL0     C33269   9.999  -0.016   7.380  0.0351  0.1080  0.1970
  247MOL0     C33270  10.144   0.006   7.330 -0.1270  0.0056 -0.2827
  247MOL0     C33271  10.150  -0.043   7.190  0.4913 -0.0758  0.0636
  247MOL0     C33272  10.290  -0.033   7.135 -0.7438 -0.3233 -0.1944
  247MOL0     C33273  10.329  -0.133   7.044  1.1261 -0.1586 -0.6472
  247MOL0     C33274  10.370  -0.208   6.958  0.1016  0.2905  0.0766
  247MOL0     C33275   9.771   0.022   7.564 -0.0905  0.0569  0.1002
  247MOL0     C33276   9.653   0.060   7.626  0.6104  0.0103  0.2031
  247MOL0     C33277   9.541  -0.019   7.562 -0.8451  0.5133 -0.2916
  247MOL0     H33278   9.558   0.456   8.030  0.7644 -1.5993 -1.7302
  247MOL0     H33279   9.409   0.556   8.176  0.0886  2.6757  0.5974
  247MOL0     H33280   8.951   0.613   8.195 -1.2132  1.5526 -0.9798
  247MOL0     H33281   8.955   0.523   8.048 -2.2346  1.5902  1.3667
  247MOL0     H33282   8.989   0.439   8.337  0.4714 -0.6283  1.1567
  247MOL0     H33283   9.083   0.350   8.208  2.6252  2.8275  3.9377
  247MOL0     H33284   8.843   0.334   8.095  0.5212 -1.6730  0.0479
  247MOL0     H33285   8.797   0.396   8.264  0.9458  1.7033 -1.5408
  247MOL0     H33286   8.944   0.111   8.204  2.5199  1.3086  0.5404
  247MOL0     H33287   8.889   0.161   8.355  3.9579  2.7359 -0.5378
  247MOL0     H33288   8.644   0.174   8.240 -0.9837 -0.4847  0.2728
  247MOL0     H33289   8.734   0.112   8.100  1.2196 -2.7108  0.9029
  247MOL0     H33290   8.824  -0.075   8.276  0.1140 -0.9942 -1.6971
  247MOL0     H33291   8.674  -0.051   8.364  2.1185 -3.1514  0.0649
  247MOL0     H33292   8.552  -0.063   8.142 -1.9827 -1.0872 -0.4229
  247MOL0     H33293   8.619  -0.203   8.232  0.9687  1.3788  0.5877
  247MOL0     H33294   8.775  -0.102   7.998 -3.5564  2.4141 -0.6104
  247MOL0     H33295   8.786  -0.255   8.095  2.9231  2.9317  0.3732
  247MOL0     H33296   8.442  -0.104   7.921 -0.2450 -0.4599  2.2557
  247MOL0     H33297   8.375  -0.204   7.649  2.8919 -1.0198  0.3664
  247MOL0     H33298   8.375  -0.375   7.658 -0.9953  1.1702 -2.3242
  247MOL0     H33299   8.237  -0.393   7.852  2.5380  0.1568  1.0210
  247MOL0     H33300   8.252  -0.210   7.876  0.0902  1.2127 -0.3538
  247MOL0     H33301   8.113  -0.380   7.667 -3.1834 -0.8368  0.0685
  247MOL0     H33302   8.133  -0.201   7.650  2.3403  1.0141  2.4712
  247MOL0     H33303   8.007  -0.181   7.876 -1.2750 -0.3151 -1.4636
  247MOL0     H33304   8.003  -0.362   7.886 -0.2257  1.0332  2.1891
  247MOL0     H33305   7.694  -0.226   7.896 -2.2988  1.6916  1.2638
  247MOL0     H33306   7.545  -0.030   7.883  0.8391 -0.2425  0.5468
  247MOL0     H33307   7.342   0.215   7.480  1.5887 -0.6094  3.3049
  247MOL0     H33308   7.177   0.406   7.412 -0.3473  1.0096  0.2063
  247MOL0     H33309   7.309   0.681   7.321 -0.8181  1.8467 -1.0477
  247MOL0     H33310   7.140   0.641   7.289  1.1531 -3.1277 -0.7101
  247MOL0     H33311   7.252   0.910   7.424  1.6314  0.6579 -1.1586
  247MOL0     H33312   7.216   0.876   7.253 -1.4826 -1.2490 -0.7386
  247MOL0     H33313   6.978   0.854   7.289  0.2550 -3.0172 -0.5864
  247MOL0     H33314   6.995   0.869   7.457 -2.3126  2.4009 -0.6776
  247MOL0     H33315   7.096   1.055   7.242  3.4240  0.5574  1.7403
  247MOL0     H33316   7.095   1.101   7.409 -0.8372  1.4919 -0.9784
  247MOL0     H33317   6.846   1.119   7.417  0.2360 -1.0111 -0.5486
  247MOL0     H33318   6.847   1.012   7.276  2.4216 -0.3574 -1.5932
  247MOL0     H33319   6.987   1.268   7.226 -0.1922  0.9810  2.6198
  247MOL0     H33320   6.883   1.165   7.124 -1.3676  0.1475  1.4526
  247MOL0     H33321   6.797   1.396   7.206  1.5181  0.0610  2.6161
  247MOL0     H33322   6.751   1.322   7.355  3.4729  1.2255  0.9618
  247MOL0     H33323   6.652   1.219   7.074 -3.0373 -4.0018 -0.1501
  247MOL0     H33324   6.623   1.137   7.223  1.4709  0.0104 -0.1768
  247MOL0     H33325   7.421   0.680   7.629 -1.6028 -0.1862  0.0053
  247MOL0     H33326   7.591   0.480   7.658 -1.3129 -1.6149  1.1456
  247MOL0     H33327   7.750   0.092   7.531  1.0399 -1.0128 -0.4031
  247MOL0     H33328   7.900  -0.103   7.549 -0.3526  0.9910  0.1788
  247MOL0     H33329   9.083   0.458   7.903 -0.3907 -0.7369 -0.2053
  247MOL0     H33330   9.246   0.363   7.752 -0.5652  1.8228 -0.7421
  247MOL0     H33331   9.773   0.345   7.773  3.4975  1.1069 -2.0917
  247MOL0     H33332   9.974   0.266   7.667  1.1002  0.9532 -4.7501
  247MOL0     H33333   9.922   0.019   7.311  1.0510 -1.9898 -2.1465
  247MOL0     H33334   9.989  -0.120   7.415  0.6643 -0.3962 -1.0627
  247MOL0     H33335  10.218  -0.041   7.395  0.3001  3.4444  2.0409
  247MOL0     H33336  10.178   0.110   7.335  1.9081 -0.6632  3.1558
  247MOL0     H33337  10.081   0.019   7.131  2.2832  3.8110  1.6684
  247MOL0     H33338  10.115  -0.146   7.201  1.2622 -0.1331  2.5294
  247MOL0     H33339  10.307   0.068   7.096 -3.7009  1.2033  1.9990
  247MOL0     H33340  10.371  -0.044   7.208  1.0890  1.9956 -1.7098
  247MOL0     H33341  10.424  -0.270   6.889 -0.4608 -1.7837  1.3956
  247MOL0     H33342   9.781  -0.071   7.508 -0.1416  0.5802 -0.7886
  247MOL0     H33343   9.563  -0.124   7.537 -0.4553 -0.2336  2.8358
  247MOL0     H33344   9.447  -0.025   7.618 -1.7962 -1.4538 -1.9414
  247MOL0     H33345   9.505   0.042   7.478  1.4437  0.4411 -1.4082
  248MOL0     O33346   0.858   8.264   9.609 -0.1449 -0.3269 -0.1022
  248MOL0     C33347   0.772   8.173   9.613 -0.2527 -0.3854  0.1373
  248MOL0     O33348   0.651   8.189   9.671 -0.1087 -0.4138  1.0658
  248MOL0     C33349   0.621   8.311   9.709 -0.3527 -0.3519  0.7907
  248MOL0     C33350   0.597   8.344   9.844  0.5754  0.4836  0.3448
  248MOL0     C33351   0.552   8.474   9.871  0.9735 -0.1541 -0.2589
  248MOL0     C33352   0.547   8.571   9.776 -0.2993 -0.3137  0.1472
  248MOL0     O33353   0.512   8.687   9.822  0.7884  0.8066 -0.4339
  248MOL0     C33354   0.487   8.789   9.725  0.5745 -0.1479  0.0881
  248MOL0     C33355   0.385   8.890   9.794  0.4355  0.6934  0.1897
  248MOL0     C33356   0.461   8.974   9.903  0.1314  1.3302  0.0645
  248MOL0     C33357   0.513   9.106   9.847  0.8506 -0.5203 -0.5465
  248MOL0     C33358   0.613   9.164   9.948  0.2169 -0.6044  0.1084
  248MOL0     C33359   0.621   9.318   9.948 -0.1701  0.8891  0.5399
  248MOL0     C33360   0.701   9.372  10.065  0.1204 -0.0496  0.0545
  248MOL0     C33361   0.663   9.515  10.099 -1.3044  1.0625 -0.0102
  248MOL0     N33362   0.640   9.604   9.983 -0.2090  0.7167 -0.1987
  248MOL0     C33363   0.738   9.650   9.904  0.0237 -0.0020  0.5264
  248MOL0     C33364   0.683   9.718   9.807  0.0490 -0.0458 -0.4695
  248MOL0     C33365   0.765   9.791   9.707  0.1808  0.7002  0.0279
  248MOL0     C33366   0.829   9.698   9.602  0.3873 -0.2825 -0.1300
  248MOL0     C33367   0.724   9.646   9.501 -0.1981 -0.1656 -0.8451
  248MOL0     C33368   0.677   9.505   9.542 -0.1666  0.1706 -0.4860
  248MOL0     O33369   0.615   9.432   9.433 -0.7712 -0.3838  0.1202
  248MOL0     C33370   0.616   9.296   9.437 -0.3589  0.1233  0.1510
  248MOL0     C33371   0.500   9.219   9.475  0.2125  0.4384  0.0841
  248MOL0     C33372   0.511   9.080   9.449 -0.3432 -0.0587 -1.1728
  248MOL0     C33373   0.625   9.021   9.391 -0.4860 -0.2575 -0.0241
  248MOL0     C33374   0.620   8.877   9.363 -0.7800 -0.3538  0.6126
  248MOL0     O33375   0.742   8.839   9.292  0.0391 -0.0178  0.9502
  248MOL0     C33376   0.731   8.716   9.222 -0.6314  0.3656 -0.8144
  248MOL0     C33377   0.801   8.612   9.280 -0.0950 -1.0460 -0.0126
  248MOL0     C33378   0.824   8.490   9.214  0.2336 -0.7584 -0.4897
  248MOL0     C33379   0.777   8.470   9.085 -0.6302  0.1874 -0.3945
  248MOL0     O33380   0.810   8.346   9.030 -0.3931  0.2858  0.1159
  248MOL0     C33381   0.708   8.293   8.941 -0.1393  0.1984 -0.2647
  248MOL0     C33382   0.628   8.182   9.013 -0.8240 -0.4594  0.7937
  248MOL0     C33383   0.704   8.064   9.080 -1.5873 -0.5501 -0.7022
  248MOL0     C33384   0.617   7.937   9.100 -0.2697  0.5035 -0.1407
  248MOL0     C33385   0.682   7.850   9.212  0.1257  0.4319 -0.3061
  248MOL0     C33386   0.580   7.732   9.254  0.3286 -0.1275 -0.0645
  248MOL0     C33387   0.599   7.605   9.164  0.8003  0.4275 -0.1443
  248MOL0     C33388   0.481   7.500   9.187 -0.1833 -1.0550 -0.0779
  248MOL0    Cl33389   0.465   7.485   9.362 -0.2926 -0.1808  0.0101
  248MOL0     C33390   0.704   8.579   9.027 -0.5070  0.3350  0.3553
  248MOL0     C33391   0.680   8.698   9.090  0.1755  1.0650  0.5539
  248MOL0     O33392   0.526   8.810   9.393 -0.2918  0.2979  1.0081
  248MOL0     C33393   0.741   9.097   9.359  0.0541  0.1298 -0.0222
  248MOL0     C33394   0.720   9.231   9.384  0.0848 -0.4509 -0.1352
  248MOL0     N33395   0.545   9.711   9.819  0.0017  0.6891  0.2797
  248MOL0     N33396   0.521   9.651   9.929  0.5092 -0.3895 -0.0326
  248MOL0     C33397   0.583   8.546   9.646  0.4743  0.6488  0.6661
  248MOL0     C33398   0.614   8.409   9.619 -0.4514 -0.1126  0.6184
  248MOL0     C33399   0.810   8.036   9.579  0.2550 -0.6524  1.1075
  248MOL0     C33400   0.722   7.937   9.620  0.1372  0.5172 -0.5815
  248MOL0     C33401   0.741   7.795   9.584  0.1566 -0.0243  0.0436
  248MOL0     C33402   0.844   7.757   9.507 -0.0535 -0.0979 -0.3268
  248MOL0     O33403   0.853   7.629   9.460 -0.4890 -0.5489 -0.7266
  248MOL0     C33404   0.978   7.563   9.472  0.3298  0.8502  0.3900
  248MOL0     C33405   0.951   7.415   9.488  0.4546  0.1633 -0.2171
  248MOL0     C33406   0.855   7.372   9.373 -0.2778 -0.8163 -0.4434
  248MOL0     C33407   0.883   7.229   9.324  0.3474 -0.5783  0.1813
  248MOL0     C33408   0.843   7.134   9.421 -0.4321 -0.2222  0.1854
  248MOL0     C33409   0.802   7.051   9.497  0.4200 -0.0887 -0.4992
  248MOL0     C33410   0.932   7.858   9.457  0.7977  0.1853 -0.8854
  248MOL0     C33411   0.912   8.001   9.484 -0.0622  0.4791 -1.0283
  248MOL0     C33412   1.001   8.108   9.425 -0.4211  0.4333 -0.1122
  248MOL0     H33413   0.615   8.270   9.920 -0.8167  1.8420  2.0878
  248MOL0     H33414   0.543   8.492   9.978 -0.0854  2.4596 -0.7173
  248MOL0     H33415   0.571   8.851   9.693 -1.4347  2.5537 -0.3238
  248MOL0     H33416   0.437   8.747   9.637 -0.0129  0.2419  0.2328
  248MOL0     H33417   0.309   8.832   9.849 -0.2410  2.1849  0.8999
  248MOL0     H33418   0.337   8.941   9.711  1.3698  0.7455 -0.3275
  248MOL0     H33419   0.551   8.919   9.930  0.4623  1.0596 -1.5093
  248MOL0     H33420   0.389   8.994   9.983 -1.5457  0.8074 -1.2374
  248MOL0     H33421   0.580   9.089   9.762 -1.8527  3.4120 -3.8138
  248MOL0     H33422   0.437   9.179   9.820  0.9044 -0.7997 -1.4869
  248MOL0     H33423   0.579   9.128  10.045  2.4926 -2.7366  0.2495
  248MOL0     H33424   0.716   9.128   9.940  0.1211 -1.6362  2.6213
  248MOL0     H33425   0.658   9.347   9.850  1.9264 -1.0729  0.6558
  248MOL0     H33426   0.520   9.355   9.967 -0.0873  0.1496  2.7444
  248MOL0     H33427   0.808   9.352  10.051 -0.5317 -2.8100 -1.9218
  248MOL0     H33428   0.665   9.314  10.151  1.9726 -1.5467 -0.1066
  248MOL0     H33429   0.568   9.504  10.152 -1.4082 -0.9429 -0.5208
  248MOL0     H33430   0.743   9.563  10.156 -0.6480  1.9786 -1.6467
  248MOL0     H33431   0.844   9.639   9.922  0.5079 -0.4883 -2.1819
  248MOL0     H33432   0.687   9.843   9.651 -1.0490 -1.9244 -0.8277
  248MOL0     H33433   0.835   9.857   9.760 -1.7309  1.7580  1.3437
  248MOL0     H33434   0.901   9.761   9.548  0.2263  3.1086  3.2085
  248MOL0     H33435   0.885   9.619   9.654 -0.3982 -0.1711  0.9139
  248MOL0     H33436   0.776   9.632   9.405  1.4962 -1.7170  0.2201
  248MOL0     H33437   0.635   9.708   9.490 -2.6575 -3.0383  1.2414
  248MOL0     H33438   0.610   9.504   9.629  2.9193  0.6223  2.1286
  248MOL0     H33439   0.769   9.448   9.563  0.2228 -0.7915 -4.1394
  248MOL0     H33440   0.408   9.269   9.504 -0.8739  1.7318 -4.7626
  248MOL0     H33441   0.438   9.012   9.491  0.1401 -0.4578 -0.9806
  248MOL0     H33442   0.843   8.625   9.380  1.6259 -1.3120 -0.6627
  248MOL0     H33443   0.879   8.412   9.266 -0.0059 -0.6119 -0.0061
  248MOL0     H33444   0.624   8.361   8.923 -1.2580 -0.8903  0.6586
  248MOL0     H33445   0.753   8.270   8.844 -0.5285  3.0804 -1.2366
  248MOL0     H33446   0.565   8.220   9.094 -2.3017 -1.5489  0.1946
  248MOL0     H33447   0.565   8.150   8.930 -0.3135  2.0718 -0.6845
  248MOL0     H33448   0.782   8.029   9.013  0.9980  0.2644  1.7032
  248MOL0     H33449   0.754   8.090   9.174 -3.2732 -1.1538  0.4222
  248MOL0     H33450   0.610   7.889   9.002 -0.7278  0.5718 -0.1441
  248MOL0     H33451   0.520   7.966   9.141 -0.3696  0.4246 -0.3172
  248MOL0     H33452   0.708   7.918   9.294 -1.3390  0.6862 -0.0182
  248MOL0     H33453   0.768   7.801   9.167 -1.9990 -2.9530 -1.0473
  248MOL0     H33454   0.595   7.704   9.359  0.4878 -0.6972 -0.2314
  248MOL0     H33455   0.485   7.782   9.232 -0.9324 -2.8974 -1.4987
  248MOL0     H33456   0.693   7.557   9.192  1.1556  1.6971  1.0002
  248MOL0     H33457   0.612   7.623   9.057 -0.5866 -2.9484 -1.0111
  248MOL0     H33458   0.384   7.538   9.155 -0.0557 -2.2409 -2.0663
  248MOL0     H33459   0.497   7.395   9.159 -3.6732 -1.6632 -0.1321
  248MOL0     H33460   0.660   8.573   8.928 -1.4734  2.2618  0.6132
  248MOL0     H33461   0.631   8.775   9.031 -1.4196 -1.2739 -1.3231
  248MOL0     H33462   0.820   9.058   9.296  0.0964  2.1611 -1.3038
  248MOL0     H33463   0.807   9.292   9.363 -0.4337  0.0150 -0.9826
  248MOL0     H33464   0.576   8.614   9.562 -1.9217 -1.4238 -0.9481
  248MOL0     H33465   0.641   8.393   9.515 -1.5637 -0.6564  0.4033
  248MOL0     H33466   0.634   7.948   9.682  1.0785 -1.6590  1.2786
  248MOL0     H33467   0.680   7.714   9.622 -0.1811 -0.9575 -2.3471
  248MOL0     H33468   1.034   7.597   9.560  1.5062  1.1268 -0.4311
  248MOL0     H33469   1.038   7.592   9.385  3.1591  2.1236  2.5535
  248MOL0     H33470   0.895   7.389   9.578  1.5829 -5.4254 -0.7832
  248MOL0     H33471   1.038   7.349   9.493 -2.5669 -4.2859 -1.0063
  248MOL0     H33472   0.875   7.426   9.280  0.9588 -3.9749 -2.1509
  248MOL0     H33473   0.752   7.386   9.406  0.3314  0.2585  1.1192
  248MOL0     H33474   0.838   7.201   9.229 -2.8655  0.3679  1.2897
  248MOL0     H33475   0.988   7.232   9.294 -0.0795 -1.5334 -1.4883
  248MOL0     H33476   0.746   6.991   9.567 -0.0353  1.3915  0.4429
  248MOL0     H33477   0.996   7.834   9.372 -0.7166  0.2299 -2.0753
  248MOL0     H33478   1.064   8.166   9.493  1.9999  0.8939 -2.5619
  248MOL0     H33479   1.074   8.055   9.364 -0.7009 -1.0837  0.8046
  248MOL0     H33480   0.939   8.178   9.368 -1.2611 -0.5850 -0.4917
  249MOL0     O33481   0.901  10.786   8.215 -0.3227 -0.6584  0.1668
  249MOL0     C33482   0.896  10.910   8.196 -0.0106  0.7859 -0.2157
  249MOL0     O33483   0.842  10.976   8.085 -0.9025 -0.1283 -0.5435
  249MOL0     C33484   0.786  10.897   7.985  0.2003 -0.6375  0.1440
  249MOL0     C33485   0.850  10.892   7.859 -0.0136  0.1917 -0.1200
  249MOL0     C33486   0.794  10.809   7.761  0.3125 -0.4872 -0.0830
  249MOL0     C33487   0.670  10.754   7.780 -0.4960 -0.5087 -0.3682
  249MOL0     O33488   0.607  10.695   7.675 -0.5667  0.1446  0.3096
  249MOL0     C33489   0.573  10.560   7.697  0.3667  0.7416  1.0282
  249MOL0     C33490   0.609  10.479   7.574 -0.4718 -0.1076  0.5694
  249MOL0     C33491   0.571  10.335   7.582 -0.4685  0.7863 -0.9487
  249MOL0     C33492   0.676  10.251   7.671 -0.2831 -0.1458  0.2853
  249MOL0     C33493   0.650  10.098   7.682  0.0245  0.1016 -0.0938
  249MOL0     C33494   0.520  10.069   7.761 -0.7499 -0.3280 -0.5809
  249MOL0     C33495   0.526   9.962   7.871  0.9679  0.5714 -0.6117
  249MOL0     C33496   0.444   9.834   7.835 -1.1033  0.0315  0.1904
  249MOL0     N33497   0.521   9.755   7.739  0.6617 -0.6520 -0.3901
  249MOL0     C33498   0.487   9.732   7.607  0.1768  0.0311  0.0106
  249MOL0     C33499   0.600   9.688   7.549  0.7598 -0.4661  0.7613
  249MOL0     C33500   0.605   9.648   7.406 -0.3382  0.9191  0.0779
  249MOL0     C33501   0.566   9.498   7.398 -0.7050  0.9085 -0.5837
  249MOL0     C33502   0.563   9.466   7.252 -0.0125 -0.6363 -0.7507
  249MOL0     C33503   0.498   9.327   7.233 -0.5245 -0.4347 -0.6816
  249MOL0     O33504   0.446   9.278   7.107  0.1476 -0.3420  0.5358
  249MOL0     C33505   0.527   9.208   7.017 -0.6929  0.1742 -0.4143
  249MOL0     C33506   0.665   9.176   7.036 -0.3837 -0.9559  0.0830
  249MOL0     C33507   0.730   9.082   6.940  0.0571 -0.7122 -0.2811
  249MOL0     C33508   0.658   9.046   6.820 -0.5834 -0.5398 -0.7656
  249MOL0     C33509   0.715   8.967   6.711 -0.1646 -0.7138  0.1212
  249MOL0     O33510   0.617   8.913   6.625 -0.2480  0.1884 -0.4756
  249MOL0     C33511   0.659   8.804   6.544  0.2383  0.5509  0.1665
  249MOL0     C33512   0.706   8.679   6.594 -0.5939  0.0183  0.1841
  249MOL0     C33513   0.744   8.578   6.502 -0.6686  0.0612 -0.1875
  249MOL0     C33514   0.735   8.588   6.362  0.8615 -0.4092  0.0033
  249MOL0     O33515   0.756   8.493   6.262 -0.6805  0.3155 -0.4260
  249MOL0     C33516   0.812   8.375   6.309 -0.1175  0.7074 -0.7391
  249MOL0     C33517   0.812   8.286   6.182 -0.1988  1.0086  0.0412
  249MOL0     C33518   0.888   8.154   6.208  0.5011 -0.6610  0.0553
  249MOL0     C33519   0.914   8.080   6.082 -0.1208 -0.9545 -0.1933
  249MOL0     C33520   0.932   7.937   6.127 -0.0946 -0.0073 -0.4431
  249MOL0     C33521   0.803   7.872   6.146 -0.1570  1.5245  0.2697
  249MOL0     C33522   0.823   7.736   6.216 -0.6667  0.5335  0.0439
  249MOL0     C33523   0.702   7.640   6.198  1.1145 -0.6550 -0.7140
  249MOL0    Cl33524   0.723   7.499   6.303  0.2368  0.0296 -0.0419
  249MOL0     C33525   0.678   8.708   6.318 -0.2778  1.1242 -0.4036
  249MOL0     C33526   0.647   8.809   6.409  0.5819 -1.5815 -0.0517
  249MOL0     O33527   0.834   8.947   6.708 -0.7234  0.0829  0.4162
  249MOL0     C33528   0.524   9.086   6.810 -0.5591  0.3206 -0.0363
  249MOL0     C33529   0.470   9.169   6.907  0.3304  0.3594  0.4663
  249MOL0     N33530   0.701   9.671   7.654 -0.0767  0.8897 -0.1343
  249MOL0     N33531   0.646   9.695   7.769  0.2344  0.1298  0.0456
  249MOL0     C33532   0.608  10.773   7.900  0.5372 -0.5577  0.2333
  249MOL0     C33533   0.659  10.842   8.005 -0.6726 -0.7187 -0.7031
  249MOL0     C33534   0.963  10.992   8.297  0.5857  0.2891 -0.3314
  249MOL0     C33535   0.911  11.113   8.348  0.2260  0.4751  0.6116
  249MOL0     C33536   0.961  11.187   8.448 -0.0898  0.6261  0.5974
  249MOL0     C33537   1.085  11.135   8.498 -0.7521 -0.3471  0.2709
  249MOL0     O33538   1.142  11.179   8.616 -0.2635  0.5727  0.2065
  249MOL0     C33539   1.101  11.295   8.686  0.0455  0.0560 -0.0934
  249MOL0     C33540   1.177  11.415   8.654 -0.4387  0.0937  0.6062
  249MOL0     C33541   1.119  11.546   8.700  0.9284  0.4852 -0.4438
  249MOL0     C33542   0.974  11.582   8.650  0.1064  0.2049 -0.2315
  249MOL0     C33543   0.947  11.545   8.509 -0.6346  0.6360  0.5070
  249MOL0     C33544   0.912  11.530   8.391  0.1515 -0.8111 -0.4324
  249MOL0     C33545   1.164  11.037   8.428 -0.2633 -0.4836  0.6431
  249MOL0     C33546   1.103  10.962   8.327  0.6798 -0.3092 -0.4312
  249MOL0     C33547   1.189  10.843   8.277  0.2982 -1.1406 -0.0482
  249MOL0     H33548   0.953  10.929   7.857 -0.6600  2.1015 -1.0124
  249MOL0     H33549   0.829  10.796   7.660 -4.8186  2.1975 -2.5847
  249MOL0     H33550   0.628  10.511   7.777  0.5031  0.5315  0.8073
  249MOL0     H33551   0.466  10.545   7.715  0.0712 -0.3329 -1.2501
  249MOL0     H33552   0.714  10.493   7.548 -1.1262 -0.4354 -2.7638
  249MOL0     H33553   0.544  10.507   7.490  2.1550  0.8687 -1.2785
  249MOL0     H33554   0.567  10.292   7.482  1.1858 -1.3210 -0.2047
  249MOL0     H33555   0.466  10.327   7.612  0.1935  0.4154  1.5290
  249MOL0     H33556   0.779  10.262   7.635 -0.6593 -1.9812 -1.5838
  249MOL0     H33557   0.696  10.289   7.771  2.7375  0.0294 -0.2673
  249MOL0     H33558   0.641  10.052   7.583 -1.5246 -3.0901  1.3995
  249MOL0     H33559   0.731  10.060   7.745  1.1313  2.2282 -0.1591
  249MOL0     H33560   0.493  10.156   7.822 -0.8902 -0.3397 -0.6265
  249MOL0     H33561   0.447  10.055   7.681  0.5190  0.2485 -1.8801
  249MOL0     H33562   0.482   9.998   7.964  4.1809 -0.8236  1.5945
  249MOL0     H33563   0.628   9.932   7.896  0.8639  0.2769 -0.5425
  249MOL0     H33564   0.428   9.768   7.921  2.5413 -3.7552 -1.7474
  249MOL0     H33565   0.345   9.869   7.803 -0.6044  1.8330  0.5206
  249MOL0     H33566   0.396   9.767   7.560  1.1972  0.3467 -1.8082
  249MOL0     H33567   0.558   9.706   7.326  1.9313  2.2270 -0.4047
  249MOL0     H33568   0.709   9.655   7.371 -1.4344  0.9762 -3.5527
  249MOL0     H33569   0.623   9.427   7.458 -4.4795 -0.5624  1.5917
  249MOL0     H33570   0.467   9.474   7.439  0.6404  0.7325  2.8980
  249MOL0     H33571   0.667   9.461   7.220  0.0798 -1.6697 -0.3243
  249MOL0     H33572   0.509   9.545   7.198  2.5255  2.7122  1.2099
  249MOL0     H33573   0.421   9.309   7.309  2.0983 -2.5330  1.6877
  249MOL0     H33574   0.583   9.263   7.260 -1.6866 -1.9302 -0.4633
  249MOL0     H33575   0.730   9.210   7.116  1.7661 -2.7612 -0.7980
  249MOL0     H33576   0.836   9.064   6.954  0.4402  1.9403  0.9254
  249MOL0     H33577   0.722   8.668   6.701  0.9033 -0.4544 -0.0657
  249MOL0     H33578   0.782   8.490   6.554  0.0132  1.7496  2.3377
  249MOL0     H33579   0.911   8.396   6.350  1.0293 -2.4246 -1.6197
  249MOL0     H33580   0.761   8.333   6.396  4.1932 -1.2492  1.1177
  249MOL0     H33581   0.710   8.264   6.152  0.0678  0.4144 -0.4399
  249MOL0     H33582   0.858   8.346   6.103 -4.1535  2.3915 -1.4698
  249MOL0     H33583   0.984   8.169   6.258  0.0741 -1.5147  1.1872
  249MOL0     H33584   0.818   8.110   6.279  1.7975 -0.5586  1.4541
  249MOL0     H33585   1.005   8.123   6.039 -0.9746  1.6867  0.4678
  249MOL0     H33586   0.835   8.099   6.009  0.3156  2.2490  0.0168
  249MOL0     H33587   0.995   7.928   6.216  1.2532  0.1867 -1.3390
  249MOL0     H33588   0.982   7.882   6.046  0.9068  3.5529 -2.4900
  249MOL0     H33589   0.741   7.937   6.209 -0.6970  1.5751 -0.3008
  249MOL0     H33590   0.757   7.857   6.048 -0.7449  0.8188  0.6399
  249MOL0     H33591   0.849   7.751   6.322  0.7553  2.9277 -0.5682
  249MOL0     H33592   0.908   7.686   6.170 -0.3166  1.0883  0.0666
  249MOL0     H33593   0.605   7.688   6.213  1.3765 -0.8797  2.1771
  249MOL0     H33594   0.695   7.604   6.095  0.9988 -2.2109 -0.1812
  249MOL0     H33595   0.676   8.724   6.211  1.8874  0.9295 -0.5233
  249MOL0     H33596   0.610   8.902   6.368  0.5812 -1.5773 -0.0432
  249MOL0     H33597   0.465   9.046   6.728  1.9214  0.8764 -2.2292
  249MOL0     H33598   0.367   9.199   6.888 -1.0432 -2.7639  2.2728
  249MOL0     H33599   0.507  10.736   7.921 -0.0580  1.5765  1.4190
  249MOL0     H33600   0.606  10.863   8.097  0.4627 -0.6842 -0.0457
  249MOL0     H33601   0.815  11.133   8.301  0.7001  2.2744  0.3506
  249MOL0     H33602   0.911  11.273   8.490 -1.9769  0.2159 -0.7041
  249MOL0     H33603   1.114  11.262   8.790  1.8204 -1.3971 -0.7235
  249MOL0     H33604   0.994  11.314   8.678  0.2313  1.1121 -0.2950
  249MOL0     H33605   1.182  11.416   8.544  0.1762 -2.2723  0.5432
  249MOL0     H33606   1.277  11.399   8.695 -0.3917 -1.7574 -0.1170
  249MOL0     H33607   1.178  11.632   8.667  1.1591  0.3732 -0.3243
  249MOL0     H33608   1.119  11.538   8.809  2.2667 -1.6936 -0.5358
  249MOL0     H33609   0.905  11.534   8.720  1.7710 -0.0036  1.3411
  249MOL0     H33610   0.962  11.690   8.652  0.9121  0.3376  2.6073
  249MOL0     H33611   0.872  11.522   8.292 -2.8698 -1.0562  0.6953
  249MOL0     H33612   1.254  11.005   8.480  0.9922  2.6424  0.6543
  249MOL0     H33613   1.292  10.869   8.304 -1.1471  4.3352  1.5108
  249MOL0     H33614   1.152  10.751   8.322  1.7556 -1.1511  1.1900
  249MOL0     H33615   1.178  10.834   8.168  2.1750  0.7054 -0.4578
  250MOL0     O33616   6.496   7.227   2.435  0.7196  0.7820 -0.2889
  250MOL0     C33617   6.485   7.343   2.487 -0.5860  0.9958 -0.3860
  250MOL0     O33618   6.383   7.389   2.562 -0.8055 -0.8815 -0.2884
  250MOL0     C33619   6.345   7.525   2.546 -0.2508  0.1641  1.4109
  250MOL0     C33620   6.361   7.603   2.434 -0.4629  0.4262 -0.4890
  250MOL0     C33621   6.344   7.742   2.449  0.1262  0.2091 -0.3249
  250MOL0     C33622   6.279   7.797   2.556 -0.6090  0.1428 -0.4936
  250MOL0     O33623   6.238   7.923   2.544  0.0828 -0.0332  0.2090
  250MOL0     C33624   6.180   7.983   2.655 -0.3098  0.0559  0.1910
  250MOL0     C33625   6.117   8.116   2.637  0.1991  0.4527  0.4094
  250MOL0     C33626   5.971   8.084   2.592  0.2903 -0.4670 -1.0123
  250MOL0     C33627   5.912   8.221   2.546  0.0346  0.6235  0.3312
  250MOL0     C33628   5.794   8.195   2.446 -0.3242  0.2712  0.4557
  250MOL0     C33629   5.709   8.315   2.427 -0.2843 -0.2191  0.8104
  250MOL0     C33630   5.590   8.304   2.333  0.4174  0.0596  0.5754
  250MOL0     C33631   5.469   8.215   2.378  0.2078 -0.6951  0.6861
  250MOL0     N33632   5.409   8.253   2.506 -0.2596 -0.0210 -0.6697
  250MOL0     C33633   5.308   8.349   2.534 -0.1931  0.2257  0.7579
  250MOL0     C33634   5.265   8.324   2.653  0.3809  0.9973 -0.1951
  250MOL0     C33635   5.164   8.406   2.713  0.3177 -0.3274  0.0419
  250MOL0     C33636   5.026   8.340   2.709  0.1658  0.0848  0.5244
  250MOL0     C33637   4.904   8.426   2.758 -0.0625 -0.2624 -0.3080
  250MOL0     C33638   4.777   8.396   2.692  0.7058 -0.9817 -0.0338
  250MOL0     O33639   4.672   8.490   2.716 -0.2381 -0.2434 -0.5744
  250MOL0     C33640   4.565   8.479   2.638  0.4065 -0.0785 -0.3617
  250MOL0     C33641   4.522   8.371   2.557 -0.0846 -0.2298 -0.4498
  250MOL0     C33642   4.410   8.386   2.462  0.6926  0.9238 -0.2401
  250MOL0     C33643   4.338   8.501   2.455 -0.0764  0.0721  0.1160
  250MOL0     C33644   4.214   8.513   2.370 -0.3896  0.0856 -0.0814
  250MOL0     O33645   4.154   8.631   2.372  0.4550 -0.3624  0.1326
  250MOL0     C33646   4.046   8.663   2.290 -0.3319  0.2903 -1.0659
  250MOL0     C33647   3.965   8.771   2.335 -0.5670  1.3603 -1.0152
  250MOL0     C33648   3.844   8.806   2.268 -0.2574  0.5118 -0.2325
  250MOL0     C33649   3.807   8.739   2.149  1.2107  0.3412 -0.3023
  250MOL0     O33650   3.690   8.771   2.087  0.2447  0.6013 -0.3272
  250MOL0     C33651   3.638   8.694   1.980 -0.9226  0.8702  0.5753
  250MOL0     C33652   3.680   8.729   1.836 -0.2798  0.4389  0.1713
  250MOL0     C33653   3.579   8.823   1.769  0.0382 -0.0811  0.2495
  250MOL0     C33654   3.654   8.931   1.686 -0.0538 -0.0810 -0.8104
  250MOL0     C33655   3.564   9.008   1.591 -0.0698 -0.0326 -0.0609
  250MOL0     C33656   3.627   9.132   1.540 -0.8305  0.1021  0.4864
  250MOL0     C33657   3.532   9.235   1.475  1.3928 -1.1752  0.3315
  250MOL0     C33658   3.605   9.364   1.453  0.7607 -0.5592  0.3501
  250MOL0    Cl33659   3.759   9.335   1.362 -0.0872  0.3615 -0.0975
  250MOL0     C33660   3.891   8.650   2.099 -0.4970  1.2637 -0.4153
  250MOL0     C33661   4.005   8.605   2.169 -1.2455 -0.4420  0.4457
  250MOL0     O33662   4.179   8.409   2.304 -0.3545 -0.3267  0.8293
  250MOL0     C33663   4.382   8.606   2.531 -0.1467  0.2579  0.2241
  250MOL0     C33664   4.489   8.596   2.623 -0.2147 -0.1786  0.4220
  250MOL0     N33665   5.335   8.220   2.706 -0.5579  0.1893  0.4771
  250MOL0     N33666   5.432   8.186   2.621  0.3009 -0.3043  0.0009
  250MOL0     C33667   6.267   7.713   2.667 -0.2456 -0.9291 -0.2327
  250MOL0     C33668   6.309   7.581   2.666 -0.2297 -0.8770 -0.6273
  250MOL0     C33669   6.616   7.410   2.492 -0.1692 -0.0355 -0.9831
  250MOL0     C33670   6.647   7.484   2.615  0.4059  0.8827 -0.4081
  250MOL0     C33671   6.763   7.554   2.636 -0.7015 -0.0354  0.3000
  250MOL0     C33672   6.862   7.555   2.533  0.3564  0.0911 -0.3064
  250MOL0     O33673   6.969   7.632   2.529  0.1373 -0.3827 -0.6806
  250MOL0     C33674   6.968   7.756   2.602 -0.0940  0.2487  0.1722
  250MOL0     C33675   7.075   7.848   2.555  0.1248  0.9529  0.0948
  250MOL0     C33676   7.097   7.958   2.665 -0.8288 -1.2663 -0.3163
  250MOL0     C33677   7.127   7.895   2.802 -1.4193  0.2593  1.2667
  250MOL0     C33678   7.205   7.997   2.874 -0.7375 -0.9765 -0.4874
  250MOL0     C33679   7.270   8.064   2.956  0.8076 -0.0689  0.8546
  250MOL0     C33680   6.834   7.471   2.423  0.0672 -0.6980 -1.4934
  250MOL0     C33681   6.720   7.398   2.399 -0.4628  0.3619  0.0602
  250MOL0     C33682   6.720   7.312   2.277 -0.1036  0.3985 -0.2980
  250MOL0     H33683   6.397   7.571   2.337  0.5981 -1.4302  0.4483
  250MOL0     H33684   6.363   7.792   2.354 -0.0666 -1.6968 -1.4146
  250MOL0     H33685   6.107   7.916   2.703 -1.7288  1.4261  0.0168
  250MOL0     H33686   6.259   7.979   2.731 -1.7593 -2.8124  1.7367
  250MOL0     H33687   6.164   8.176   2.559 -4.0206  2.0219 -1.2455
  250MOL0     H33688   6.113   8.167   2.734  0.3232 -1.2510  1.3636
  250MOL0     H33689   5.923   8.035   2.676  0.7167  1.2814  0.2977
  250MOL0     H33690   5.966   8.007   2.513 -1.7625 -1.7197  0.2467
  250MOL0     H33691   5.872   8.273   2.634 -1.3982 -1.3329  0.9158
  250MOL0     H33692   5.984   8.288   2.498 -0.6872  0.5858 -0.8318
  250MOL0     H33693   5.824   8.170   2.344 -5.1996 -0.7796 -1.0075
  250MOL0     H33694   5.735   8.106   2.472  0.8654 -0.8295 -0.5208
  250MOL0     H33695   5.673   8.366   2.517 -1.8758  3.2356 -1.5819
  250MOL0     H33696   5.779   8.378   2.373 -0.6204  1.1832  1.9552
  250MOL0     H33697   5.611   8.265   2.233  0.3420  0.2447  0.4872
  250MOL0     H33698   5.551   8.404   2.317  1.5250  0.7002  1.6981
  250MOL0     H33699   5.390   8.207   2.303  0.5274  1.0123  0.1118
  250MOL0     H33700   5.493   8.109   2.385  0.0520 -0.6737  1.5866
  250MOL0     H33701   5.275   8.432   2.472 -0.1546  0.3042  0.8422
  250MOL0     H33702   5.197   8.407   2.817  0.7577 -1.0703 -0.0910
  250MOL0     H33703   5.165   8.505   2.666  1.2975  0.5627  1.8401
  250MOL0     H33704   5.001   8.339   2.603  4.0360 -0.5760 -0.5304
  250MOL0     H33705   5.030   8.247   2.766 -0.3175 -1.2731 -1.5586
  250MOL0     H33706   4.916   8.535   2.755 -0.6886 -0.1722  0.2001
  250MOL0     H33707   4.888   8.400   2.863  0.0560  2.1604  0.3685
  250MOL0     H33708   4.747   8.296   2.725 -2.9187  0.9486  3.4505
  250MOL0     H33709   4.789   8.393   2.583 -0.3164 -1.7457 -0.1452
  250MOL0     H33710   4.583   8.283   2.538 -1.9560 -1.4725 -0.9387
  250MOL0     H33711   4.384   8.303   2.397 -1.7656  0.8223  0.7770
  250MOL0     H33712   3.982   8.825   2.427  1.1703  0.6089 -0.8380
  250MOL0     H33713   3.779   8.887   2.300 -0.7781  1.1758 -2.7719
  250MOL0     H33714   3.647   8.586   1.990 -4.5592  0.4436  0.5696
  250MOL0     H33715   3.529   8.684   1.976 -0.9470  1.2215  0.2977
  250MOL0     H33716   3.777   8.779   1.843  0.0869  0.2719 -2.7624
  250MOL0     H33717   3.696   8.636   1.781  3.4547  0.4065  1.0052
  250MOL0     H33718   3.511   8.766   1.705  0.5861 -0.8040  0.3019
  250MOL0     H33719   3.521   8.879   1.844 -1.0493 -2.9713  1.7224
  250MOL0     H33720   3.722   8.874   1.621 -1.3697 -2.9250  0.1560
  250MOL0     H33721   3.710   8.999   1.752  1.5503 -0.9135 -1.2577
  250MOL0     H33722   3.467   9.018   1.639 -0.5963 -0.3595 -1.0232
  250MOL0     H33723   3.554   8.939   1.507 -0.9984 -0.6085  0.5136
  250MOL0     H33724   3.683   9.180   1.621 -2.4113 -0.0691  1.7385
  250MOL0     H33725   3.707   9.102   1.472 -2.3534 -0.7645 -1.0007
  250MOL0     H33726   3.451   9.255   1.546  2.0726  1.5649  0.4351
  250MOL0     H33727   3.495   9.201   1.378  1.8961  0.8953 -0.6494
  250MOL0     H33728   3.538   9.429   1.396 -2.9547 -2.6302  2.0248
  250MOL0     H33729   3.627   9.413   1.549  1.1431  0.6521 -0.3268
  250MOL0     H33730   3.855   8.598   2.011 -1.0360  4.0679 -1.9544
  250MOL0     H33731   4.073   8.534   2.122  0.1239  0.8027  0.4588
  250MOL0     H33732   4.329   8.700   2.531 -0.4323  0.1001  0.2091
  250MOL0     H33733   4.514   8.679   2.689  0.1746 -1.2699  1.6981
  250MOL0     H33734   6.229   7.749   2.762  2.4612  2.0448 -0.1045
  250MOL0     H33735   6.287   7.522   2.754 -1.2021 -0.7633 -0.7895
  250MOL0     H33736   6.587   7.484   2.705 -1.1243 -1.7011 -1.3135
  250MOL0     H33737   6.769   7.614   2.726 -1.8960 -1.0322  1.0744
  250MOL0     H33738   6.985   7.737   2.708  1.5723 -0.7237 -0.2495
  250MOL0     H33739   6.873   7.802   2.571 -1.7262 -3.4043 -0.8360
  250MOL0     H33740   7.062   7.881   2.451  1.2813 -0.3809 -0.5115
  250MOL0     H33741   7.171   7.798   2.541 -0.6644 -0.7004  0.4045
  250MOL0     H33742   7.020   8.032   2.687  1.8744  1.4212  0.9328
  250MOL0     H33743   7.174   8.017   2.616 -2.7896 -0.2994 -2.3874
  250MOL0     H33744   7.035   7.875   2.857 -0.5386 -0.5882  2.5119
  250MOL0     H33745   7.187   7.804   2.802  0.5720  1.4991  1.0409
  250MOL0     H33746   7.328   8.104   3.037  0.5207  1.9533  0.1218
  250MOL0     H33747   6.912   7.470   2.347  0.5708 -0.1063 -0.9983
  250MOL0     H33748   6.627   7.313   2.219 -0.0750 -1.2797 -0.4342
  250MOL0     H33749   6.799   7.341   2.207  1.9260 -1.2162  1.2005
  250MOL0     H33750   6.745   7.210   2.306 -0.8428  0.2219 -0.2484
  251MOL0     O33751   1.380   3.334   9.953  0.0022  0.2556 -0.8227
  251MOL0     C33752   1.448   3.409   9.887  0.2012  0.4927  0.6197
  251MOL0     O33753   1.545   3.373   9.795 -0.0388 -0.4377 -0.7522
  251MOL0     C33754   1.536   3.236   9.768 -0.2052 -0.4223  0.3005
  251MOL0     C33755   1.435   3.171   9.694  0.6666  0.2917 -0.7842
  251MOL0     C33756   1.436   3.027   9.697  0.3422 -0.8207  0.1314
  251MOL0     C33757   1.535   2.945   9.760 -0.2056 -0.4636  0.5476
  251MOL0     O33758   1.565   2.805   9.765 -0.4244 -0.5994  0.1681
  251MOL0     C33759   1.466   2.731   9.693 -0.0863 -0.3004 -0.4856
  251MOL0     C33760   1.499   2.585   9.677 -0.0270 -0.0873 -0.4138
  251MOL0     C33761   1.653   2.565   9.667  0.3754 -0.2414  0.1153
  251MOL0     C33762   1.681   2.416   9.676  0.4650  0.5439 -0.1697
  251MOL0     C33763   1.835   2.383   9.649  0.2616  0.1503  0.0584
  251MOL0     C33764   1.862   2.229   9.672 -0.5749  0.1340 -0.6544
  251MOL0     C33765   1.776   2.134   9.585 -0.4513 -0.1826 -0.3565
  251MOL0     C33766   1.815   1.988   9.593  0.0525 -0.1618  0.0906
  251MOL0     N33767   1.745   1.920   9.489 -0.7294 -0.4826  1.1156
  251MOL0     C33768   1.806   1.856   9.379  0.6150 -1.6507 -1.3468
  251MOL0     C33769   1.711   1.840   9.287  0.3480 -0.3846  0.3500
  251MOL0     C33770   1.754   1.773   9.156  0.3433  0.1236 -0.3955
  251MOL0     C33771   1.709   1.844   9.028 -0.1631  0.0866  0.7842
  251MOL0     C33772   1.755   1.996   8.996  0.7198  0.1912 -0.4185
  251MOL0     C33773   1.908   2.008   8.990  0.2419  0.4711 -0.8369
  251MOL0     O33774   1.938   2.138   8.961  0.0398 -0.3598 -0.1679
  251MOL0     C33775   1.956   2.240   9.049  0.5271  0.6095 -0.6757
  251MOL0     C33776   1.973   2.373   9.005  0.7076 -0.7947  1.0190
  251MOL0     C33777   2.013   2.474   9.097 -0.5917  0.6705 -0.3365
  251MOL0     C33778   2.016   2.453   9.235 -1.2749  0.7228 -0.2977
  251MOL0     C33779   2.066   2.563   9.331  1.1726  0.7346  0.3896
  251MOL0     O33780   2.068   2.535   9.467 -0.0460 -0.3070  0.1423
  251MOL0     C33781   2.066   2.624   9.566 -0.6333 -0.2674 -0.2395
  251MOL0     C33782   2.021   2.758   9.565 -0.2518  0.1859  0.1090
  251MOL0     C33783   2.032   2.842   9.679  0.7530 -0.3713  0.0045
  251MOL0     C33784   2.084   2.793   9.801 -0.7404 -0.0603  0.3790
  251MOL0     O33785   2.085   2.877   9.919 -0.0246  0.1091  0.6250
  251MOL0     C33786   2.190   2.859  10.022  0.4078  0.2262  0.8080
  251MOL0     C33787   2.158   2.898  10.177 -0.3429 -0.2715 -0.0415
  251MOL0     C33788   2.283   2.885  10.262  0.4596  0.1803  0.1056
  251MOL0     C33789   2.345   2.743  10.263  0.7470  0.0047 -0.4437
  251MOL0     C33790   2.465   2.732  10.363  0.4053 -0.7131 -0.5567
  251MOL0     C33791   2.576   2.830  10.327 -0.5877  0.2211 -0.5607
  251MOL0     C33792   2.712   2.788  10.400  0.3041  0.1118 -0.2190
  251MOL0     C33793   2.686   2.794  10.551 -0.7713 -0.0155  0.3243
  251MOL0    Cl33794   2.852   2.771  10.621 -0.3393  0.7705  0.3994
  251MOL0     C33795   2.115   2.663   9.811 -0.3038  0.6350 -0.7543
  251MOL0     C33796   2.107   2.579   9.698 -0.2735  0.2317  0.1733
  251MOL0     O33797   2.102   2.668   9.288 -0.7622 -0.4096 -0.0107
  251MOL0     C33798   2.008   2.326   9.280  0.1072 -0.3755 -0.1863
  251MOL0     C33799   1.974   2.219   9.189 -0.4731  0.1740 -0.0269
  251MOL0     N33800   1.590   1.891   9.330  1.0571  0.4029 -0.1256
  251MOL0     N33801   1.613   1.940   9.452  0.2007  0.4474 -0.2629
  251MOL0     C33802   1.630   3.021   9.832 -0.2355  0.1799 -0.6300
  251MOL0     C33803   1.627   3.162   9.845 -0.6929  0.3545  0.0271
  251MOL0     C33804   1.421   3.555   9.890  0.3436 -1.0893  1.1158
  251MOL0     C33805   1.443   3.630   9.772  0.1739  0.6167 -0.0475
  251MOL0     C33806   1.392   3.754   9.765 -0.2703  0.0773 -0.3794
  251MOL0     C33807   1.332   3.820   9.873  0.3476 -0.6018  0.6354
  251MOL0     O33808   1.275   3.945   9.850 -0.1657  0.2603  0.9536
  251MOL0     C33809   1.292   4.061   9.941 -0.2764 -0.3297 -0.8750
  251MOL0     C33810   1.434   4.105   9.979 -0.0630 -0.2476 -0.9594
  251MOL0     C33811   1.438   4.214  10.090  0.5238  1.3232 -0.0776
  251MOL0     C33812   1.385   4.361  10.074  0.7133  1.5240  0.9984
  251MOL0     C33813   1.241   4.369  10.050  0.3818  0.0515  0.1717
  251MOL0     C33814   1.125   4.397  10.037 -0.8445  0.0671 -0.5680
  251MOL0     C33815   1.328   3.754   9.985  0.5927  0.1296  0.1338
  251MOL0     C33816   1.371   3.623   9.999  0.4627 -0.9150  0.1182
  251MOL0     C33817   1.330   3.554  10.122 -0.0077  0.2010 -0.0443
  251MOL0     H33818   1.354   3.221   9.640 -0.6658 -1.2612 -0.3107
  251MOL0     H33819   1.350   2.991   9.641 -0.9961  1.8645  0.3147
  251MOL0     H33820   1.372   2.736   9.749  0.2341 -1.8188  0.2491
  251MOL0     H33821   1.448   2.772   9.594 -3.6262 -0.3461  0.0346
  251MOL0     H33822   1.463   2.547   9.581  0.3023 -1.4361 -0.0252
  251MOL0     H33823   1.461   2.529   9.763 -0.5959  0.7450 -0.1084
  251MOL0     H33824   1.700   2.612   9.754  1.3303 -1.7325  0.4524
  251MOL0     H33825   1.702   2.609   9.579  4.0153 -1.6674  1.2420
  251MOL0     H33826   1.658   2.366   9.771 -0.4823 -0.3460 -0.8431
  251MOL0     H33827   1.624   2.354   9.606  0.9499 -1.8693  1.4371
  251MOL0     H33828   1.868   2.420   9.551  1.0313  0.7387  0.5345
  251MOL0     H33829   1.895   2.439   9.721 -2.5590  0.1822  2.5415
  251MOL0     H33830   1.964   2.206   9.641 -0.7969 -0.2033 -1.1639
  251MOL0     H33831   1.832   2.214   9.775  2.2281  0.1444  0.2466
  251MOL0     H33832   1.790   2.153   9.478 -4.7413  2.2539 -0.7494
  251MOL0     H33833   1.670   2.145   9.613  0.6368 -1.2948  5.5598
  251MOL0     H33834   1.921   1.985   9.568 -0.5409 -2.5913 -2.7054
  251MOL0     H33835   1.791   1.937   9.687 -3.7822  0.6359 -0.2605
  251MOL0     H33836   1.910   1.826   9.388  0.0558 -4.1280 -2.4276
  251MOL0     H33837   1.861   1.754   9.165  0.2487 -0.6542 -0.8340
  251MOL0     H33838   1.696   1.680   9.152  0.9406 -0.2447 -0.6009
  251MOL0     H33839   1.732   1.786   8.939  0.0175  1.4847 -0.1182
  251MOL0     H33840   1.600   1.859   9.024 -0.2216 -0.5455 -0.3579
  251MOL0     H33841   1.710   2.066   9.068 -0.2446 -0.2889 -0.5309
  251MOL0     H33842   1.728   2.019   8.893  2.7883  0.1230 -1.0130
  251MOL0     H33843   1.946   1.939   8.914 -0.1892 -1.4419  0.6259
  251MOL0     H33844   1.950   1.984   9.088 -2.2591  0.9531  0.4364
  251MOL0     H33845   1.969   2.404   8.901  0.7020  2.6342  1.9482
  251MOL0     H33846   2.039   2.574   9.062  1.4541  0.9339  1.7062
  251MOL0     H33847   1.986   2.791   9.468 -3.0568 -0.0810  0.9530
  251MOL0     H33848   1.971   2.932   9.673 -1.2657 -1.5927  0.8322
  251MOL0     H33849   2.225   2.756  10.018 -1.0193 -0.3224  1.5642
  251MOL0     H33850   2.274   2.926  10.002  1.1624 -1.3168 -1.6999
  251MOL0     H33851   2.128   3.003  10.177 -0.8839 -0.4106 -1.3118
  251MOL0     H33852   2.067   2.843  10.202 -1.9305  1.7062 -1.1379
  251MOL0     H33853   2.354   2.956  10.219  0.4331  0.8482  1.1286
  251MOL0     H33854   2.266   2.936  10.357  1.5693  2.3111 -0.7885
  251MOL0     H33855   2.379   2.717  10.162 -1.2948  1.4548 -1.5776
  251MOL0     H33856   2.279   2.658  10.283 -1.7938  1.3140 -2.6475
  251MOL0     H33857   2.510   2.632  10.370  2.1921  0.0721 -0.4039
  251MOL0     H33858   2.426   2.743  10.464 -2.5005 -2.6418 -1.3268
  251MOL0     H33859   2.600   2.849  10.223 -1.9648 -0.4834 -1.0350
  251MOL0     H33860   2.540   2.927  10.362 -4.4771 -2.2225  3.3026
  251MOL0     H33861   2.790   2.857  10.369  1.9525 -1.6549 -0.1670
  251MOL0     H33862   2.742   2.685  10.383  1.0333  0.4012 -0.7284
  251MOL0     H33863   2.650   2.894  10.576  0.0092  0.6134 -0.9832
  251MOL0     H33864   2.628   2.706  10.580  0.3278 -1.7016 -2.2767
  251MOL0     H33865   2.144   2.605   9.898 -1.1194 -1.4783 -1.8193
  251MOL0     H33866   2.138   2.475   9.698  0.0655  0.3164  1.3198
  251MOL0     H33867   2.033   2.299   9.382  2.0256  1.2920 -0.1475
  251MOL0     H33868   1.966   2.119   9.231  0.3047  0.6122  1.1989
  251MOL0     H33869   1.703   2.963   9.888 -0.8675 -2.5480 -2.4301
  251MOL0     H33870   1.711   3.207   9.896 -0.2394 -0.9646  0.4837
  251MOL0     H33871   1.490   3.595   9.680 -0.2522  2.1814 -0.8973
  251MOL0     H33872   1.395   3.805   9.669  0.0157 -0.4992 -0.6823
  251MOL0     H33873   1.242   4.039  10.035  1.9680 -1.7292  0.0990
  251MOL0     H33874   1.241   4.145   9.894  2.0423  0.0185 -2.9922
  251MOL0     H33875   1.488   4.145   9.893  1.8972 -1.6640 -0.4612
  251MOL0     H33876   1.495   4.027  10.025  2.4036 -0.0554 -3.6253
  251MOL0     H33877   1.536   4.225  10.136 -0.0303 -0.1639  1.5736
  251MOL0     H33878   1.383   4.174  10.176 -0.8932  4.0222  0.3920
  251MOL0     H33879   1.410   4.404  10.172  1.6997  1.9436  0.5722
  251MOL0     H33880   1.444   4.421  10.004  0.0447  0.0295 -0.9413
  251MOL0     H33881   1.022   4.423  10.050 -1.4424 -2.1017 -0.5013
  251MOL0     H33882   1.264   3.797  10.061 -1.8921 -0.7593 -1.3548
  251MOL0     H33883   1.299   3.616  10.207 -4.4521 -1.1647 -0.4360
  251MOL0     H33884   1.242   3.497  10.093  1.0644 -0.5775 -1.8860
  251MOL0     H33885   1.411   3.488  10.157 -1.0850 -1.5141 -0.6844
  252MOL0     O33886   4.745   4.472  11.538  0.0087  0.3397 -0.7523
  252MOL0     C33887   4.857   4.532  11.522  0.2279 -0.4924 -0.6398
  252MOL0     O33888   4.874   4.664  11.473  0.0348 -0.3584 -0.5788
  252MOL0     C33889   4.774   4.759  11.482 -0.9324  0.5889 -0.6741
  252MOL0     C33890   4.798   4.873  11.408 -0.2313 -0.1388  0.2045
  252MOL0     C33891   4.718   4.983  11.411 -0.5601  0.2067 -0.3634
  252MOL0     C33892   4.611   4.990  11.497 -0.0374 -1.5019  0.3501
  252MOL0     O33893   4.528   5.103  11.507 -0.3196 -0.1582  0.1035
  252MOL0     C33894   4.545   5.217  11.435  1.4950 -0.3596  0.0224
  252MOL0     C33895   4.423   5.305  11.468 -0.6311 -0.5769  0.0951
  252MOL0     C33896   4.343   5.281  11.600  0.4069 -0.2631 -1.0417
  252MOL0     C33897   4.400   5.318  11.737  0.0808 -1.3802  0.3226
  252MOL0     C33898   4.308   5.388  11.823  0.4534  0.3464  0.1815
  252MOL0     C33899   4.171   5.330  11.862 -0.1303 -1.1901  0.2446
  252MOL0     C33900   4.100   5.413  11.957 -0.3908 -1.2006  0.1066
  252MOL0     C33901   4.040   5.536  11.876  0.2399 -0.3139 -0.4303
  252MOL0     N33902   4.009   5.656  11.959  0.1943 -0.4156  0.4671
  252MOL0     C33903   4.108   5.743  12.010 -1.6559  0.1092 -0.9125
  252MOL0     C33904   4.050   5.852  12.048 -0.4369 -0.6129  0.3548
  252MOL0     C33905   4.135   5.948  12.112  0.1941 -0.6861 -0.2671
  252MOL0     C33906   4.217   6.015  12.001 -0.1233 -0.0097  0.2582
  252MOL0     C33907   4.162   6.159  11.966  0.4888  0.3528 -0.1469
  252MOL0     C33908   4.219   6.243  11.859  0.1176  0.1788 -0.3609
  252MOL0     O33909   4.355   6.222  11.830  0.1614 -0.7584 -0.6501
  252MOL0     C33910   4.447   6.239  11.936  0.1315  0.8037 -0.4042
  252MOL0     C33911   4.584   6.193  11.917  0.0849 -0.4098  0.4392
  252MOL0     C33912   4.687   6.225  12.012 -0.2592  0.2901  0.3529
  252MOL0     C33913   4.654   6.281  12.138  0.5472 -0.1903  0.0949
  252MOL0     C33914   4.757   6.310  12.240 -0.6271  0.4491  0.4133
  252MOL0     O33915   4.870   6.221  12.244 -0.1622 -0.4424  0.0338
  252MOL0     C33916   4.980   6.276  12.298 -0.9495  0.0897 -1.3666
  252MOL0     C33917   5.032   6.222  12.416 -0.2514  0.0139 -0.3240
  252MOL0     C33918   5.152   6.270  12.466 -0.4858  0.2830  0.5003
  252MOL0     C33919   5.213   6.387  12.425 -0.4571  0.2025 -1.1140
  252MOL0     O33920   5.331   6.426  12.485 -0.2289 -0.2279 -0.4463
  252MOL0     C33921   5.445   6.409  12.410 -0.6647 -0.4119 -0.0922
  252MOL0     C33922   5.465   6.521  12.303 -0.1288 -0.6243 -0.7041
  252MOL0     C33923   5.619   6.528  12.261 -0.3590  0.8092  0.7009
  252MOL0     C33924   5.647   6.629  12.159  0.5910  0.8513  0.4665
  252MOL0     C33925   5.798   6.616  12.102  0.4596 -0.3359  0.2467
  252MOL0     C33926   5.803   6.674  11.958 -0.7865  0.2639 -0.5772
  252MOL0     C33927   5.957   6.682  11.936 -0.4880  0.1453  0.2729
  252MOL0     C33928   5.973   6.724  11.790 -0.1303 -0.5000  0.8003
  252MOL0    Cl33929   6.140   6.709  11.746 -0.4631 -0.5720 -0.0199
  252MOL0     C33930   5.158   6.452  12.322  0.7469 -0.4418  0.2539
  252MOL0     C33931   5.037   6.400  12.255 -0.8277 -0.0504 -0.1460
  252MOL0     O33932   4.740   6.398  12.330  0.0763 -0.4056  0.1443
  252MOL0     C33933   4.523   6.334  12.158  0.3798  0.0600  0.4535
  252MOL0     C33934   4.424   6.308  12.055 -0.2520  0.7289 -0.1106
  252MOL0     N33935   3.919   5.844  12.007 -0.1521 -1.1771 -1.0631
  252MOL0     N33936   3.896   5.728  11.967 -0.2844 -0.2371  0.4342
  252MOL0     C33937   4.600   4.889  11.589 -0.0453 -0.0104  0.3471
  252MOL0     C33938   4.677   4.771  11.572 -0.9944 -0.6042 -0.0839
  252MOL0     C33939   4.981   4.451  11.531 -0.9157 -0.0058 -0.4361
  252MOL0     C33940   5.084   4.485  11.617  1.2330  0.6050 -0.6020
  252MOL0     C33941   5.210   4.430  11.614 -0.8171  0.1073  0.3722
  252MOL0     C33942   5.241   4.340  11.515 -0.4675 -0.9000  0.4183
  252MOL0     O33943   5.363   4.294  11.483  1.3756 -0.7124 -0.7415
  252MOL0     C33944   5.478   4.345  11.561 -0.8505  0.9137 -0.1711
  252MOL0     C33945   5.602   4.258  11.543 -0.8917 -0.0383  0.6565
  252MOL0     C33946   5.570   4.110  11.520 -0.2681 -0.2813  0.2166
  252MOL0     C33947   5.698   4.020  11.525  0.2002 -0.2498  0.2616
  252MOL0     C33948   5.673   3.901  11.606 -0.1094  0.8083 -0.3303
  252MOL0     C33949   5.666   3.799  11.677  0.1928  0.2698 -0.9359
  252MOL0     C33950   5.143   4.294  11.432  0.1493  0.8013 -0.4719
  252MOL0     C33951   5.011   4.348  11.438 -0.5086  0.1528 -0.5643
  252MOL0     C33952   4.916   4.293  11.330  0.1085  0.1357  0.3708
  252MOL0     H33953   4.891   4.868  11.352 -1.6571 -1.7265 -2.1813
  252MOL0     H33954   4.734   5.061  11.337  3.2901 -0.1392 -0.0996
  252MOL0     H33955   4.639   5.262  11.470  1.4372  1.7771 -2.3274
  252MOL0     H33956   4.552   5.206  11.327  0.1899 -0.3834 -0.0768
  252MOL0     H33957   4.349   5.290  11.389 -0.4398 -1.2061  0.0287
  252MOL0     H33958   4.456   5.409  11.469 -1.0374 -0.4474  0.5450
  252MOL0     H33959   4.307   5.178  11.604  0.8867 -0.5034 -2.3745
  252MOL0     H33960   4.252   5.339  11.581 -0.8596 -0.5795  3.1616
  252MOL0     H33961   4.424   5.225  11.789 -0.2701 -0.3010  2.5433
  252MOL0     H33962   4.485   5.387  11.734  1.1667 -2.6438  1.0259
  252MOL0     H33963   4.364   5.418  11.911 -0.6116  0.5204  0.8139
  252MOL0     H33964   4.291   5.488  11.781 -0.2207 -0.7191 -2.2398
  252MOL0     H33965   4.111   5.321  11.771 -1.1288  0.3945  0.6901
  252MOL0     H33966   4.186   5.235  11.914 -4.6628 -1.8538  0.7302
  252MOL0     H33967   4.170   5.446  12.034 -1.3245  1.2269  0.0202
  252MOL0     H33968   4.025   5.352  12.007 -0.6935  0.8667  2.3672
  252MOL0     H33969   4.113   5.576  11.805  2.2343  0.3186  1.8416
  252MOL0     H33970   3.953   5.499  11.822 -0.1195 -3.4783  2.0036
  252MOL0     H33971   4.216   5.735  12.022 -1.7259  1.2462  0.7401
  252MOL0     H33972   4.069   6.021  12.161 -0.7333 -0.7241 -1.4193
  252MOL0     H33973   4.187   5.896  12.193 -0.6518 -1.6541 -0.3155
  252MOL0     H33974   4.322   6.023  12.029  0.1988  0.2923 -0.9894
  252MOL0     H33975   4.214   5.962  11.905 -1.6765  0.4266  0.0428
  252MOL0     H33976   4.147   6.207  12.063  1.0119  2.2054 -0.9328
  252MOL0     H33977   4.054   6.158  11.947 -0.0435  1.9480  2.3453
  252MOL0     H33978   4.194   6.349  11.868 -3.4507 -0.3692 -2.0250
  252MOL0     H33979   4.167   6.198  11.774  0.7161 -0.7279 -0.2615
  252MOL0     H33980   4.605   6.164  11.814 -0.1629 -1.6938  0.7408
  252MOL0     H33981   4.790   6.211  11.980 -0.1827  0.5643  0.4706
  252MOL0     H33982   4.992   6.133  12.466 -3.7158  1.1685 -0.8054
  252MOL0     H33983   5.189   6.211  12.549 -0.1628  2.3267  1.8885
  252MOL0     H33984   5.518   6.425  12.490  0.9067 -2.2424 -1.0677
  252MOL0     H33985   5.448   6.304  12.378 -1.8088 -0.4837 -0.0037
  252MOL0     H33986   5.400   6.501  12.217 -0.0784  1.5755 -1.3315
  252MOL0     H33987   5.427   6.614  12.348 -1.8093 -0.8486 -1.5687
  252MOL0     H33988   5.673   6.541  12.356  2.9817 -2.0762 -0.6072
  252MOL0     H33989   5.638   6.426  12.227 -1.2315  0.2164  1.9280
  252MOL0     H33990   5.622   6.731  12.191  0.6034  0.6743  1.0585
  252MOL0     H33991   5.570   6.615  12.082 -0.2369  1.0331  1.2413
  252MOL0     H33992   5.836   6.513  12.099  1.8899  0.1197  1.4072
  252MOL0     H33993   5.864   6.675  12.167 -0.2272 -0.3179  0.9434
  252MOL0     H33994   5.750   6.608  11.888 -0.8361  0.9263 -1.1755
  252MOL0     H33995   5.758   6.773  11.950  0.8454  1.0539 -0.5723
  252MOL0     H33996   6.003   6.583  11.943 -1.6542 -0.4252 -0.0328
  252MOL0     H33997   6.002   6.756  12.003 -0.9696  1.6280 -1.0060
  252MOL0     H33998   5.903   6.662  11.734 -2.1800  2.7527 -0.5740
  252MOL0     H33999   5.934   6.826  11.779  1.5014  0.1200  0.5898
  252MOL0     H34000   5.206   6.545  12.292 -2.4589  1.0531 -0.6785
  252MOL0     H34001   5.005   6.450  12.164  1.2715  1.3677 -0.1663
  252MOL0     H34002   4.490   6.391  12.244 -0.6721 -0.4257  0.3841
  252MOL0     H34003   4.321   6.329  12.081 -0.5507 -1.1145  0.3279
  252MOL0     H34004   4.537   4.890  11.676 -1.7611 -2.6942 -0.7564
  252MOL0     H34005   4.660   4.690  11.642 -0.8393 -1.0402 -0.5409
  252MOL0     H34006   5.064   4.563  11.689  1.6569  0.3682 -0.2224
  252MOL0     H34007   5.297   4.465  11.669 -0.2981  0.3349 -0.5738
  252MOL0     H34008   5.464   4.341  11.669 -1.6284  2.9309 -0.1602
  252MOL0     H34009   5.492   4.448  11.528 -2.9862  1.6085  0.8967
  252MOL0     H34010   5.654   4.266  11.638  0.9894  0.6812 -0.3875
  252MOL0     H34011   5.656   4.294  11.455 -1.6670  1.3534  0.7180
  252MOL0     H34012   5.517   4.104  11.425 -1.5511 -2.1651  1.0052
  252MOL0     H34013   5.499   4.078  11.597  1.0495 -0.1052  1.5741
  252MOL0     H34014   5.725   3.991  11.423  1.3831  3.3124 -0.5708
  252MOL0     H34015   5.783   4.071  11.571 -0.6385  0.7260  0.7576
  252MOL0     H34016   5.667   3.708  11.734 -2.1858  1.0002  0.4190
  252MOL0     H34017   5.173   4.234  11.347  1.7644 -0.0951  0.6868
  252MOL0     H34018   4.934   4.190  11.301  1.6060  0.8832 -1.5667
  252MOL0     H34019   4.815   4.306  11.371  1.2002  1.7470  2.8095
  252MOL0     H34020   4.924   4.356  11.241 -0.1380 -2.9831 -2.0181
  253MOL0     O34021   9.671   7.809   2.833  0.5050 -0.0050 -0.2879
  253MOL0     C34022   9.785   7.813   2.780  0.6095 -0.4545  0.8344
  253MOL0     O34023   9.814   7.906   2.680  0.4869  0.2017  0.3188
  253MOL0     C34024   9.722   8.007   2.665  0.2719 -0.0434  0.1140
  253MOL0     C34025   9.715   8.109   2.761  0.7415 -0.4296  0.4869
  253MOL0     C34026   9.640   8.229   2.745  0.4069 -0.8758 -0.2427
  253MOL0     C34027   9.566   8.243   2.626  0.2614 -0.5044 -0.0439
  253MOL0     O34028   9.504   8.363   2.605 -0.6278 -0.2537 -0.2941
  253MOL0     C34029   9.520   8.431   2.478 -0.7198  1.1797 -0.4207
  253MOL0     C34030   9.438   8.559   2.490  0.7080 -0.0891 -0.9969
  253MOL0     C34031   9.282   8.539   2.526 -0.2232  0.3962 -0.2123
  253MOL0     C34032   9.209   8.661   2.483  0.0067 -0.1778 -0.0286
  253MOL0     C34033   9.183   8.690   2.328 -0.1192  0.7069  0.7682
  253MOL0     C34034   9.102   8.819   2.319 -0.2655  0.4238  0.1516
  253MOL0     C34035   9.152   8.942   2.392  0.4659 -0.4601  0.1835
  253MOL0     C34036   9.296   8.978   2.343 -0.8629  0.4736 -0.2655
  253MOL0     N34037   9.331   9.111   2.404 -0.0332  0.5365 -0.4260
  253MOL0     C34038   9.281   9.227   2.353 -0.3794 -0.1073  0.0957
  253MOL0     C34039   9.312   9.322   2.440  0.1639  0.3577  0.1300
  253MOL0     C34040   9.260   9.466   2.421  0.0752  0.5507  0.1215
  253MOL0     C34041   9.268   9.540   2.552 -0.7453  0.4749  0.1371
  253MOL0     C34042   9.413   9.590   2.571  0.4403 -0.2561  0.5148
  253MOL0     C34043   9.432   9.590   2.722 -0.4580  0.8867  0.3386
  253MOL0     O34044   9.344   9.692   2.780 -0.1437 -0.8060 -0.3581
  253MOL0     C34045   9.349   9.698   2.920  0.2447 -0.0827  0.3961
  253MOL0     C34046   9.255   9.636   2.993  0.5922  0.7899 -0.9066
  253MOL0     C34047   9.261   9.653   3.138  0.1873 -0.5704 -0.3621
  253MOL0     C34048   9.363   9.734   3.191  0.3107  0.6312  0.2163
  253MOL0     C34049   9.382   9.741   3.334  0.7802  0.2155  0.4033
  253MOL0     O34050   9.470   9.823   3.377 -0.4686  0.0724 -0.9602
  253MOL0     C34051   9.490   9.822   3.505 -0.5084  0.3231 -0.7253
  253MOL0     C34052   9.618   9.840   3.556  0.0307  0.5883 -1.0241
  253MOL0     C34053   9.649   9.858   3.689  0.7010  0.0501  0.0524
  253MOL0     C34054   9.562   9.855   3.790  0.5583 -0.7162  0.0470
  253MOL0     O34055   9.614   9.864   3.916  1.0604 -0.1256  0.6495
  253MOL0     C34056   9.540   9.968   3.992 -0.0880  1.1839 -0.1119
  253MOL0     C34057   9.508   9.931   4.138  0.0734 -0.5857  0.5284
  253MOL0     C34058   9.453  10.063   4.220 -0.8266  0.7690 -0.7556
  253MOL0     C34059   9.303  10.082   4.212  0.6783  0.1220  0.3816
  253MOL0     C34060   9.268  10.186   4.106  0.1472  0.2231 -0.1435
  253MOL0     C34061   9.117  10.197   4.084 -0.8746  0.9945 -0.4006
  253MOL0     C34062   9.031  10.202   4.217  0.5142  0.0965  0.0229
  253MOL0     C34063   8.882  10.224   4.182 -1.2620 -0.9211 -0.0469
  253MOL0    Cl34064   8.861  10.378   4.110  0.1330  0.1823  0.0036
  253MOL0     C34065   9.428   9.830   3.747  0.3668  0.0908 -0.1960
  253MOL0     C34066   9.399   9.816   3.610  0.3817  0.6011  0.4548
  253MOL0     O34067   9.320   9.656   3.400 -0.3057 -0.4971  0.4964
  253MOL0     C34068   9.457   9.795   3.111  0.1857 -0.8679 -0.9225
  253MOL0     C34069   9.450   9.774   2.975 -0.6151 -0.2811  0.3705
  253MOL0     N34070   9.396   9.258   2.539 -0.2623 -0.0744  0.6253
  253MOL0     N34071   9.398   9.130   2.520  0.5419  0.1349  0.3710
  253MOL0     C34072   9.574   8.150   2.528 -0.5832  0.3544  0.1342
  253MOL0     C34073   9.648   8.032   2.551  0.1966  0.2810 -0.3114
  253MOL0     C34074   9.911   7.738   2.829  0.0320 -0.2188 -0.6501
  253MOL0     C34075  10.036   7.787   2.792 -0.7894 -0.0699  1.7664
  253MOL0     C34076  10.147   7.724   2.845  0.0151  0.2395  0.2324
  253MOL0     C34077  10.137   7.627   2.944 -0.0271  0.4426 -0.2643
  253MOL0     O34078  10.246   7.593   3.024 -0.5857  0.6062 -0.2263
  253MOL0     C34079  10.275   7.457   3.073 -0.2103 -0.0625 -1.0577
  253MOL0     C34080  10.317   7.386   2.948  0.8451 -0.6432  0.9102
  253MOL0     C34081  10.409   7.267   2.986 -0.2186 -0.4306  0.0727
  253MOL0     C34082  10.452   7.179   2.874  0.1998  0.3157 -0.5868
  253MOL0     C34083  10.483   7.042   2.918 -0.0474  0.4788  0.2834
  253MOL0     C34084  10.497   6.922   2.950  0.3970 -0.6296 -0.1864
  253MOL0     C34085  10.013   7.584   2.982 -1.0155  1.1087 -0.2659
  253MOL0     C34086   9.902   7.634   2.921 -0.3867  0.1068  0.3279
  253MOL0     C34087   9.776   7.563   2.958 -0.6491  0.0854 -0.1620
  253MOL0     H34088   9.771   8.108   2.854  0.9231  0.3427  0.3954
  253MOL0     H34089   9.646   8.316   2.809 -2.3101 -1.3735  0.8488
  253MOL0     H34090   9.623   8.453   2.448 -1.1116  1.1278 -1.9091
  253MOL0     H34091   9.482   8.368   2.396  1.2940 -0.1938 -0.3710
  253MOL0     H34092   9.436   8.618   2.398  0.8737  1.8961  0.2051
  253MOL0     H34093   9.480   8.619   2.572 -3.4903 -1.1141  2.2859
  253MOL0     H34094   9.264   8.517   2.631  1.7988 -2.7325 -0.3994
  253MOL0     H34095   9.240   8.450   2.478 -0.0532 -1.0530  2.1622
  253MOL0     H34096   9.110   8.663   2.529 -0.4105  1.9974 -0.8979
  253MOL0     H34097   9.254   8.754   2.519 -1.0858  0.0103  0.8979
  253MOL0     H34098   9.275   8.720   2.277 -0.5324 -0.0866 -0.4923
  253MOL0     H34099   9.145   8.610   2.264  2.7553  1.7204 -2.4752
  253MOL0     H34100   9.087   8.838   2.213  1.1022 -1.3092 -0.3903
  253MOL0     H34101   9.010   8.803   2.375 -1.1302  0.0508 -1.3510
  253MOL0     H34102   9.146   8.933   2.501 -2.2669  1.7946  0.3172
  253MOL0     H34103   9.079   9.021   2.376 -0.1159 -0.6278  1.8260
  253MOL0     H34104   9.364   8.902   2.381 -2.7328 -2.6546 -2.7222
  253MOL0     H34105   9.317   8.984   2.236 -4.4524  1.5833 -1.0604
  253MOL0     H34106   9.216   9.254   2.270  1.8597  0.4354 -1.5921
  253MOL0     H34107   9.315   9.529   2.350  1.9767 -1.0013  0.1406
  253MOL0     H34108   9.156   9.457   2.388  0.6866  0.0732 -1.8031
  253MOL0     H34109   9.210   9.630   2.531 -0.7299  1.2487  2.9751
  253MOL0     H34110   9.210   9.492   2.631 -3.8630  4.1830  0.3937
  253MOL0     H34111   9.437   9.690   2.532 -0.0206 -0.7149 -0.9718
  253MOL0     H34112   9.483   9.517   2.529  1.9776 -0.0301  2.5091
  253MOL0     H34113   9.538   9.605   2.744  0.1115  1.9529 -2.6835
  253MOL0     H34114   9.404   9.490   2.757  1.2255 -1.9140 -5.0768
  253MOL0     H34115   9.176   9.573   2.951 -0.2082  0.4016  1.0844
  253MOL0     H34116   9.198   9.607   3.213  0.8384 -1.6692 -0.4763
  253MOL0     H34117   9.713   9.860   3.506  0.3611  0.4574 -0.4605
  253MOL0     H34118   9.752   9.866   3.721  0.9817  0.1411 -0.8335
  253MOL0     H34119   9.615  10.047   4.003  0.7695  0.1901  1.8438
  253MOL0     H34120   9.449  10.001   3.942  0.3733 -0.0982 -1.8878
  253MOL0     H34121   9.426   9.858   4.137  0.8967 -1.5313  0.6296
  253MOL0     H34122   9.597   9.889   4.185  1.1992  0.6443 -0.4110
  253MOL0     H34123   9.477  10.058   4.326 -1.9420 -0.2899 -0.5316
  253MOL0     H34124   9.516  10.148   4.194  0.8814  0.3195  1.6706
  253MOL0     H34125   9.270  10.110   4.312 -0.3876  2.7817 -0.6191
  253MOL0     H34126   9.255   9.987   4.187 -0.3728 -0.1947  3.2169
  253MOL0     H34127   9.307  10.155   4.009 -1.1911 -1.5716 -0.1467
  253MOL0     H34128   9.310  10.285   4.129  0.5790 -0.2077  0.9450
  253MOL0     H34129   9.092  10.274   4.011 -4.2117  0.1691 -0.3103
  253MOL0     H34130   9.089  10.098   4.045  2.1830 -1.4848  2.9838
  253MOL0     H34131   9.069  10.273   4.292 -1.3559 -1.1086  2.2594
  253MOL0     H34132   9.037  10.108   4.273  3.4476  1.9568  3.2631
  253MOL0     H34133   8.849  10.149   4.109 -0.6982  0.0463 -1.3453
  253MOL0     H34134   8.827  10.242   4.275 -3.1693 -1.0961 -1.0831
  253MOL0     H34135   9.342   9.836   3.814 -0.7166 -0.5122 -1.4850
  253MOL0     H34136   9.291   9.813   3.598  0.2199 -1.6017  1.8295
  253MOL0     H34137   9.537   9.858   3.149 -0.4962 -0.9719  0.7877
  253MOL0     H34138   9.527   9.819   2.913 -0.1498  1.4265  2.0900
  253MOL0     H34139   9.509   8.143   2.441 -0.4847  0.2146  0.0713
  253MOL0     H34140   9.650   7.953   2.476 -0.1673  0.4769 -0.5269
  253MOL0     H34141  10.060   7.865   2.721  1.9122 -0.1979  2.4476
  253MOL0     H34142  10.250   7.759   2.831  0.7697  0.0902  4.3759
  253MOL0     H34143  10.191   7.399   3.111  1.0069 -0.8524  0.5712
  253MOL0     H34144  10.360   7.453   3.143 -0.8577  2.4695 -0.0322
  253MOL0     H34145  10.376   7.440   2.874 -1.1429 -2.0874 -1.9237
  253MOL0     H34146  10.233   7.348   2.889  1.9746 -0.2416 -1.0171
  253MOL0     H34147  10.352   7.207   3.057  0.2783  0.4989  1.2762
  253MOL0     H34148  10.499   7.301   3.037  1.2795 -4.1102  0.2206
  253MOL0     H34149  10.380   7.179   2.791  0.1319 -1.5340 -0.5569
  253MOL0     H34150  10.544   7.212   2.825 -0.0384  0.0120 -1.2455
  253MOL0     H34151  10.522   6.819   2.967  1.0328 -0.3314  0.8007
  253MOL0     H34152   9.995   7.528   3.073 -1.9887  2.7522  0.5859
  253MOL0     H34153   9.732   7.537   2.861 -0.2230  1.1838 -0.6630
  253MOL0     H34154   9.795   7.467   3.007  0.7059  0.9427  1.0524
  253MOL0     H34155   9.706   7.619   3.021 -1.4395 -1.3958  0.3366
  254MOL0     O34156   4.168   0.816   7.808  0.0523  0.5524  0.4429
  254MOL0     C34157   4.163   0.935   7.765 -0.5888  0.3408 -0.8058
  254MOL0     O34158   4.062   1.021   7.789  0.2535 -0.6843 -0.1510
  254MOL0     C34159   4.007   0.992   7.911  0.0451 -1.1478 -0.0122
  254MOL0     C34160   3.877   0.959   7.906 -0.4095  0.1899  0.6381
  254MOL0     C34161   3.799   0.949   8.018  0.0291 -0.7608 -0.5860
  254MOL0     C34162   3.852   0.971   8.143  0.0972  1.0652 -0.7462
  254MOL0     O34163   3.768   0.965   8.248  0.6851 -0.3101 -0.2812
  254MOL0     C34164   3.816   0.964   8.381 -0.7258  0.1483 -0.3452
  254MOL0     C34165   3.850   0.812   8.405 -0.8366 -0.1340  0.0579
  254MOL0     C34166   3.933   0.788   8.530  0.0081  0.0343 -0.1752
  254MOL0     C34167   3.981   0.642   8.555 -0.7251  0.9759 -0.8546
  254MOL0     C34168   3.875   0.534   8.529 -0.9290 -0.8083 -0.8313
  254MOL0     C34169   3.872   0.439   8.654  0.1309  0.3441 -0.6695
  254MOL0     C34170   3.746   0.372   8.655 -0.2086  1.3948 -0.4572
  254MOL0     C34171   3.750   0.244   8.565 -0.4423 -0.3352 -0.0537
  254MOL0     N34172   3.793   0.127   8.637 -0.8809 -1.2114  0.2766
  254MOL0     C34173   3.709   0.052   8.708  0.8799  0.3910 -0.0217
  254MOL0     C34174   3.788  -0.035   8.772  0.1831  1.0520  0.2898
  254MOL0     C34175   3.755  -0.128   8.879  0.0963 -0.4093  0.3422
  254MOL0     C34176   3.855  -0.254   8.877 -0.6130 -0.6696 -0.3960
  254MOL0     C34177   3.853  -0.335   9.007 -0.1017 -0.6084  0.4577
  254MOL0     C34178   3.940  -0.242   9.103 -0.2410  0.2779  0.5550
  254MOL0     O34179   3.968  -0.319   9.218 -0.9615  0.0527  0.3184
  254MOL0     C34180   3.891  -0.283   9.322  0.2383  0.1338  0.9518
  254MOL0     C34181   3.803  -0.385   9.380  0.3273 -0.9591 -0.0485
  254MOL0     C34182   3.739  -0.345   9.500 -0.3207  0.1921 -0.3288
  254MOL0     C34183   3.751  -0.218   9.559  1.1472  0.5998 -0.1341
  254MOL0     C34184   3.678  -0.179   9.683  0.3342 -0.0987  0.2107
  254MOL0     O34185   3.635  -0.277   9.761 -0.3359 -0.0839 -0.7470
  254MOL0     C34186   3.549  -0.257   9.872  0.1861  0.1715  0.0949
  254MOL0     C34187   3.481  -0.359   9.929  0.0625 -0.0913 -0.3979
  254MOL0     C34188   3.395  -0.347  10.048 -0.6447  0.1616  0.1580
  254MOL0     C34189   3.395  -0.224  10.114 -0.6461 -1.2861  0.2132
  254MOL0     O34190   3.313  -0.201  10.222  0.4753 -0.5337 -0.2404
  254MOL0     C34191   3.211  -0.286  10.251  0.3047  0.6105 -0.5985
  254MOL0     C34192   3.248  -0.374  10.362 -0.6641  0.1820 -0.4113
  254MOL0     C34193   3.131  -0.464  10.421 -0.6142 -0.1334  0.4795
  254MOL0     C34194   3.186  -0.562  10.521  0.4288  0.2271  0.0279
  254MOL0     C34195   3.247  -0.689  10.465 -0.0985 -0.5453 -0.7343
  254MOL0     C34196   3.255  -0.808  10.569 -0.0842  0.6544 -0.5213
  254MOL0     C34197   3.319  -0.935  10.495 -0.3033  0.2367 -0.8370
  254MOL0     C34198   3.346  -1.062  10.580 -1.0719 -0.4513 -0.1182
  254MOL0    Cl34199   3.226  -1.090  10.715 -0.1384 -1.1141 -0.4998
  254MOL0     C34200   3.473  -0.121  10.070 -0.6010  0.3432  0.7507
  254MOL0     C34201   3.541  -0.138   9.947  0.8083  0.3763  0.8777
  254MOL0     O34202   3.650  -0.061   9.694  0.1755 -0.4432 -0.0688
  254MOL0     C34203   3.822  -0.120   9.491  0.3688  1.0862  0.6054
  254MOL0     C34204   3.899  -0.157   9.383  0.4485 -0.2905  0.2796
  254MOL0     N34205   3.916   0.003   8.752 -0.3536  0.3338 -1.3091
  254MOL0     N34206   3.918   0.104   8.676  0.1395 -0.2781  0.7104
  254MOL0     C34207   3.994   0.992   8.146 -0.3838 -0.6137 -0.4152
  254MOL0     C34208   4.071   0.991   8.039 -0.0858 -0.3812 -0.2141
  254MOL0     C34209   4.280   0.967   7.680  0.2743  0.2040 -0.0202
  254MOL0     C34210   4.253   1.069   7.590 -0.5628 -0.7326  0.3611
  254MOL0     C34211   4.355   1.121   7.506  0.6586 -0.9746 -0.6270
  254MOL0     C34212   4.482   1.074   7.512 -0.4224  0.2211 -0.4620
  254MOL0     O34213   4.572   1.132   7.421  0.0171  0.5512 -0.5278
  254MOL0     C34214   4.716   1.094   7.420  0.9920  0.2511 -0.2561
  254MOL0     C34215   4.796   1.147   7.288 -0.1081 -0.0060  0.1994
  254MOL0     C34216   4.786   1.306   7.275 -0.4302  0.0890 -0.0637
  254MOL0     C34217   4.814   1.354   7.126 -0.3397 -0.0878 -0.1504
  254MOL0     C34218   4.805   1.501   7.124 -0.6012  0.0635 -0.5539
  254MOL0     C34219   4.802   1.626   7.123  0.1273 -0.5455 -0.4643
  254MOL0     C34220   4.512   0.972   7.602 -1.1854 -0.5559 -0.1489
  254MOL0     C34221   4.413   0.913   7.679  0.7125 -0.0676  0.0157
  254MOL0     C34222   4.457   0.828   7.788  0.4232 -0.2744  0.1661
  254MOL0     H34223   3.823   0.950   7.813 -2.1475  3.0023  1.2498
  254MOL0     H34224   3.694   0.922   8.012  0.3563 -1.7934 -2.7262
  254MOL0     H34225   3.910   1.019   8.394  1.1341 -2.9322  0.4431
  254MOL0     H34226   3.743   1.011   8.447 -0.9715 -0.9399  0.1839
  254MOL0     H34227   3.913   0.773   8.325  1.7755  1.2043  1.3340
  254MOL0     H34228   3.755   0.758   8.407 -2.6143  2.8100  0.5528
  254MOL0     H34229   3.870   0.814   8.616 -0.5181 -2.0684  0.1222
  254MOL0     H34230   4.009   0.867   8.539 -2.7628  2.9595 -0.3303
  254MOL0     H34231   4.070   0.620   8.496 -0.3642 -3.1285  0.8417
  254MOL0     H34232   4.013   0.633   8.660 -0.0798 -3.4517 -1.2341
  254MOL0     H34233   3.774   0.577   8.527 -2.4601 -3.8329  2.0770
  254MOL0     H34234   3.901   0.472   8.442  2.3811 -2.9098  1.4157
  254MOL0     H34235   3.962   0.377   8.651  2.9486  3.8831  1.8306
  254MOL0     H34236   3.871   0.494   8.749  0.4633 -1.4794  0.4352
  254MOL0     H34237   3.661   0.435   8.629  1.8039  5.4371  1.7830
  254MOL0     H34238   3.720   0.341   8.757 -0.1117  0.7746 -0.6181
  254MOL0     H34239   3.651   0.231   8.521  0.6513  1.4970 -3.4455
  254MOL0     H34240   3.806   0.265   8.473  0.3371  2.1762  0.8912
  254MOL0     H34241   3.601   0.053   8.716  0.9568 -1.6698  2.4482
  254MOL0     H34242   3.755  -0.071   8.973  4.2409  1.6059 -0.6450
  254MOL0     H34243   3.653  -0.161   8.859  0.5793 -2.2114  0.7081
  254MOL0     H34244   3.831  -0.313   8.788 -1.6202 -1.6473  0.4929
  254MOL0     H34245   3.958  -0.221   8.860 -0.8094  1.1542  1.4824
  254MOL0     H34246   3.888  -0.438   9.006 -0.2854 -0.7015  1.7134
  254MOL0     H34247   3.751  -0.329   9.047  0.4232  4.7835  1.8679
  254MOL0     H34248   3.896  -0.145   9.129 -0.8087 -0.6863  3.6336
  254MOL0     H34249   4.037  -0.214   9.061 -0.6807 -0.8682 -1.3411
  254MOL0     H34250   3.811  -0.491   9.358  0.3831 -0.6251 -1.7093
  254MOL0     H34251   3.686  -0.420   9.558 -0.2875  0.7725  0.4689
  254MOL0     H34252   3.480  -0.456   9.882 -3.1448 -0.0055 -0.7313
  254MOL0     H34253   3.351  -0.441  10.079  1.2354 -0.6795  0.4060
  254MOL0     H34254   3.121  -0.233  10.286  0.1019  0.6004 -1.0979
  254MOL0     H34255   3.175  -0.355  10.174 -3.6339 -2.6359  3.5678
  254MOL0     H34256   3.326  -0.442  10.327  1.0046  2.1680 -0.7147
  254MOL0     H34257   3.288  -0.315  10.445 -0.2661  0.1146 -0.5582
  254MOL0     H34258   3.067  -0.392  10.473  0.7685  3.2883 -2.1179
  254MOL0     H34259   3.075  -0.495  10.332  1.9645  0.4915 -1.4852
  254MOL0     H34260   3.097  -0.599  10.573  0.7221 -2.4306 -1.1973
  254MOL0     H34261   3.252  -0.520  10.598 -2.1821  0.3074  2.3974
  254MOL0     H34262   3.348  -0.662  10.431  0.3101 -0.4453  0.5186
  254MOL0     H34263   3.183  -0.730  10.386 -0.8682 -3.8531  1.4098
  254MOL0     H34264   3.322  -0.777  10.650  0.0691 -2.7463  0.8370
  254MOL0     H34265   3.155  -0.830  10.608  0.3747 -0.5569  0.0336
  254MOL0     H34266   3.405  -0.913  10.431  0.0875 -0.6344 -0.6216
  254MOL0     H34267   3.243  -0.980  10.430  1.9899 -1.2468 -2.6525
  254MOL0     H34268   3.341  -1.146  10.511  0.8542  0.6957 -1.7888
  254MOL0     H34269   3.448  -1.057  10.619  0.1442  1.8106 -3.1747
  254MOL0     H34270   3.478  -0.027  10.124 -0.9622  0.0065  1.3782
  254MOL0     H34271   3.608  -0.054   9.937  0.9335  0.6123  3.1817
  254MOL0     H34272   3.844  -0.018   9.521  1.9142  0.7430  0.7200
  254MOL0     H34273   3.959  -0.081   9.336 -1.9965  2.5156  1.3988
  254MOL0     H34274   4.052   0.988   8.238  0.5204 -3.2531 -1.0174
  254MOL0     H34275   4.177   1.001   8.055 -0.0788 -1.6875  0.6652
  254MOL0     H34276   4.156   1.117   7.589  0.7333  2.1208  1.3060
  254MOL0     H34277   4.325   1.204   7.443 -0.3309 -0.2510  0.7649
  254MOL0     H34278   4.709   0.985   7.419 -2.7276  0.3574 -2.8572
  254MOL0     H34279   4.769   1.129   7.510 -2.0282  0.3341  1.6129
  254MOL0     H34280   4.751   1.108   7.196  0.8843  0.8697 -0.6918
  254MOL0     H34281   4.895   1.102   7.292 -0.9739 -2.0950 -0.6910
  254MOL0     H34282   4.853   1.358   7.344 -0.8382 -1.2838  1.4328
  254MOL0     H34283   4.685   1.331   7.310 -0.8083  0.8777 -1.6292
  254MOL0     H34284   4.914   1.338   7.084 -1.7184 -0.2579 -3.7415
  254MOL0     H34285   4.750   1.304   7.053  0.5489 -1.8840  0.2514
  254MOL0     H34286   4.812   1.732   7.134 -2.1116 -0.4692  1.5882
  254MOL0     H34287   4.613   0.935   7.608 -1.0504 -0.3478 -1.0056
  254MOL0     H34288   4.412   0.728   7.789 -1.5457  0.4733 -2.3874
  254MOL0     H34289   4.565   0.810   7.787  0.0157 -3.0876 -0.3504
  254MOL0     H34290   4.431   0.887   7.877 -0.3768  2.4364 -1.7328
  255MOL0     O34291  10.823  11.131   0.944 -0.8352  0.7448 -0.7265
  255MOL0     C34292  10.734  11.101   1.021  0.3201 -0.5133 -0.2665
  255MOL0     O34293  10.752  11.015   1.121 -0.0819  0.0840 -0.2214
  255MOL0     C34294  10.880  10.990   1.171 -0.6450  0.7146  0.8494
  255MOL0     C34295  10.936  11.073   1.261  0.3098  0.0683 -0.6398
  255MOL0     C34296  11.063  11.051   1.303 -0.1622  0.0970  0.3265
  255MOL0     C34297  11.139  10.939   1.276 -0.8341 -0.4992  0.0976
  255MOL0     O34298  11.271  10.939   1.328  0.2476 -0.6869 -0.4529
  255MOL0     C34299  11.360  10.847   1.279  0.0482 -0.0954  0.8664
  255MOL0     C34300  11.510  10.896   1.304  0.0303  0.0769  0.4657
  255MOL0     C34301  11.577  10.916   1.165 -0.4564 -0.3942 -0.4480
  255MOL0     C34302  11.534  11.040   1.091 -0.2793 -0.2102  0.0972
  255MOL0     C34303  11.559  11.033   0.934 -0.4509  0.3468  0.4151
  255MOL0     C34304  11.488  11.156   0.872  0.2118  0.0316  0.6140
  255MOL0     C34305  11.497  11.160   0.720  0.1860  0.4311  0.4208
  255MOL0     C34306  11.368  11.115   0.653  0.5255 -0.2360  0.7987
  255MOL0     N34307  11.347  10.970   0.665  0.2026 -0.5073  0.1230
  255MOL0     C34308  11.244  10.911   0.736  0.0916 -0.0715  0.7840
  255MOL0     C34309  11.249  10.785   0.703 -1.2675  0.0853  0.1547
  255MOL0     C34310  11.166  10.672   0.753  0.2796  0.2800 -0.3736
  255MOL0     C34311  11.028  10.677   0.683  0.3470 -0.3463 -0.4855
  255MOL0     C34312  10.919  10.599   0.759 -1.2019 -0.6573 -0.1591
  255MOL0     C34313  10.773  10.624   0.717 -0.3503 -0.1908  0.5723
  255MOL0     O34314  10.736  10.758   0.753 -0.0768  0.4785 -0.2675
  255MOL0     C34315  10.614  10.795   0.720 -0.6809 -0.2965  0.1398
  255MOL0     C34316  10.520  10.717   0.668 -0.1902 -0.2606  0.1296
  255MOL0     C34317  10.399  10.765   0.633  0.8661  0.4332 -0.2673
  255MOL0     C34318  10.377  10.902   0.636 -0.2194 -0.5107  0.5282
  255MOL0     C34319  10.248  10.971   0.607  0.5355 -0.6065 -1.4692
  255MOL0     O34320  10.181  10.936   0.495 -0.1703 -0.5155  0.2877
  255MOL0     C34321  10.067  11.015   0.479  0.0107  0.4812  0.2190
  255MOL0     C34322   9.940  10.971   0.510  0.7565 -0.0084  0.6794
  255MOL0     C34323   9.823  11.051   0.479  0.7045  0.6882  0.1546
  255MOL0     C34324   9.836  11.184   0.421 -0.2510 -0.8904 -0.2661
  255MOL0     O34325   9.743  11.271   0.379 -0.1415  0.1045 -0.7533
  255MOL0     C34326   9.621  11.217   0.338  0.1052 -0.0715 -0.3233
  255MOL0     C34327   9.551  11.324   0.248 -0.5391  0.5087 -0.5297
  255MOL0     C34328   9.460  11.416   0.333  0.2376 -0.7252  0.5074
  255MOL0     C34329   9.536  11.529   0.391 -0.1628 -0.1746  0.2386
  255MOL0     C34330   9.565  11.641   0.288  0.7069 -0.7072 -0.0267
  255MOL0     C34331   9.465  11.756   0.322 -0.3429 -0.1968 -0.5033
  255MOL0     C34332   9.509  11.893   0.261 -0.6393  0.2284  0.6037
  255MOL0     C34333   9.394  11.981   0.223  0.5004 -0.2680 -0.7301
  255MOL0    Cl34334   9.423  12.119   0.096 -0.3434  0.1275 -0.3965
  255MOL0     C34335   9.967  11.223   0.396 -0.4037  0.7256  0.3535
  255MOL0     C34336  10.083  11.137   0.418  0.6393 -0.1590 -0.5947
  255MOL0     O34337  10.218  11.057   0.690  0.1764 -0.0564  0.5806
  255MOL0     C34338  10.483  10.991   0.683  0.4569  0.3565  0.6986
  255MOL0     C34339  10.599  10.927   0.722  0.4408  0.1284  0.4795
  255MOL0     N34340  11.358  10.757   0.630 -0.8302  0.3613 -0.4671
  255MOL0     N34341  11.419  10.873   0.604 -0.3644 -0.1984  0.3472
  255MOL0     C34342  11.073  10.847   1.204  0.8406  0.0051  0.2206
  255MOL0     C34343  10.948  10.866   1.141 -0.2173 -0.2528 -0.2012
  255MOL0     C34344  10.592  11.145   0.999 -0.1810  0.7894 -0.8863
  255MOL0     C34345  10.488  11.091   1.078 -0.1620  0.3690 -0.2909
  255MOL0     C34346  10.353  11.119   1.069  0.1409  0.2100 -0.2365
  255MOL0     C34347  10.314  11.218   0.984  0.2191 -0.0364 -0.7588
  255MOL0     O34348  10.181  11.264   0.995 -1.1021 -0.7400  0.2132
  255MOL0     C34349  10.128  11.305   0.856 -0.4500 -0.6162 -0.8451
  255MOL0     C34350  10.001  11.223   0.831  1.4252 -0.4502  0.0568
  255MOL0     C34351   9.901  11.231   0.944 -0.2883 -0.5170  0.8249
  255MOL0     C34352   9.758  11.183   0.903 -0.7822 -0.0962 -0.3351
  255MOL0     C34353   9.695  11.255   0.796  0.9516  0.5051  0.3605
  255MOL0     C34354   9.617  11.298   0.706  0.2988  0.0594 -1.0864
  255MOL0     C34355  10.417  11.281   0.908 -1.0305  0.3423  1.0148
  255MOL0     C34356  10.556  11.251   0.913 -0.2040 -0.7153 -0.7516
  255MOL0     C34357  10.652  11.329   0.815  0.8292  0.0408  1.0978
  255MOL0     H34358  10.879  11.158   1.296  1.0057  0.0271  0.6479
  255MOL0     H34359  11.112  11.127   1.363  0.6946 -0.8414  0.8411
  255MOL0     H34360  11.345  10.759   1.342  5.0034  0.7748  3.8145
  255MOL0     H34361  11.346  10.822   1.174  0.3579  0.5475  0.6670
  255MOL0     H34362  11.570  10.818   1.353  1.7460  0.1122 -1.4449
  255MOL0     H34363  11.513  10.987   1.365 -1.2007 -1.1670  2.5165
  255MOL0     H34364  11.551  10.828   1.106 -1.4515 -1.1109  1.0012
  255MOL0     H34365  11.685  10.920   1.179 -0.5401 -0.2285  0.1500
  255MOL0     H34366  11.426  11.043   1.111 -0.2138 -2.1683  1.0420
  255MOL0     H34367  11.581  11.126   1.138  0.5676 -0.3494 -0.4735
  255MOL0     H34368  11.665  11.048   0.911 -1.1987  2.3631 -2.2737
  255MOL0     H34369  11.525  10.939   0.889  1.1231  0.1799 -0.4984
  255MOL0     H34370  11.381  11.147   0.895  0.4373 -0.4660  1.5069
  255MOL0     H34371  11.524  11.244   0.926 -0.5396  0.7962 -0.1127
  255MOL0     H34372  11.577  11.097   0.680 -1.6482 -1.6129 -0.2244
  255MOL0     H34373  11.521  11.261   0.685  2.0451 -0.5317 -1.3214
  255MOL0     H34374  11.291  11.182   0.691  0.1697  0.2698 -0.7439
  255MOL0     H34375  11.373  11.138   0.546  1.3099 -0.6548  0.7356
  255MOL0     H34376  11.164  10.952   0.797 -1.0342 -0.0312 -0.6721
  255MOL0     H34377  11.224  10.585   0.720  1.1743  0.5126  0.5142
  255MOL0     H34378  11.162  10.679   0.862  0.2585  0.9591 -0.4179
  255MOL0     H34379  10.996  10.781   0.674  1.0288 -0.0055  0.7943
  255MOL0     H34380  11.043  10.627   0.587  0.9556 -1.8327  0.3565
  255MOL0     H34381  10.922  10.616   0.867  1.5787  1.4052 -0.4438
  255MOL0     H34382  10.945  10.495   0.739  0.3531 -0.1044 -1.2905
  255MOL0     H34383  10.722  10.539   0.763  4.6671 -5.0855 -1.6393
  255MOL0     H34384  10.770  10.606   0.610 -0.5659 -3.0364  0.9894
  255MOL0     H34385  10.515  10.609   0.673 -2.0161 -0.1542  2.7606
  255MOL0     H34386  10.314  10.702   0.611  0.2723  1.7483 -1.9697
  255MOL0     H34387   9.921  10.869   0.539  1.6673 -0.0486  1.1778
  255MOL0     H34388   9.722  11.022   0.509  0.6075  0.4558 -0.3779
  255MOL0     H34389   9.642  11.123   0.286 -0.5705  1.6653 -4.0452
  255MOL0     H34390   9.545  11.189   0.412  1.4432 -4.4587 -0.3700
  255MOL0     H34391   9.618  11.379   0.182 -0.0844 -4.3678 -4.7326
  255MOL0     H34392   9.485  11.268   0.181  2.1041 -2.7405 -0.6698
  255MOL0     H34393   9.375  11.452   0.273 -0.2463 -1.0865  0.9699
  255MOL0     H34394   9.408  11.353   0.406 -0.5687  0.0083  0.5909
  255MOL0     H34395   9.632  11.490   0.427 -0.0805 -0.3761 -0.1921
  255MOL0     H34396   9.487  11.563   0.483  0.7213 -0.9381  1.0132
  255MOL0     H34397   9.555  11.613   0.183 -1.0490  0.1973 -0.1431
  255MOL0     H34398   9.663  11.682   0.314  1.4712  0.3669 -3.9460
  255MOL0     H34399   9.367  11.717   0.293  0.2280 -3.4726  1.4385
  255MOL0     H34400   9.454  11.773   0.429 -0.6998  0.2035 -0.6011
  255MOL0     H34401   9.580  11.871   0.181  2.8772 -1.7488  3.9360
  255MOL0     H34402   9.567  11.953   0.332 -2.7775  0.5991  2.1335
  255MOL0     H34403   9.322  11.910   0.180  0.8879 -1.1682  0.0755
  255MOL0     H34404   9.344  12.018   0.313 -2.1686 -1.6877 -1.5070
  255MOL0     H34405  10.003  11.308   0.340  0.0691 -0.5131 -1.2834
  255MOL0     H34406  10.178  11.180   0.387  0.7436  0.7866  0.9757
  255MOL0     H34407  10.464  11.098   0.686 -2.0004  0.2395 -3.2863
  255MOL0     H34408  10.681  10.992   0.751 -0.9313  1.7994  0.8082
  255MOL0     H34409  11.126  10.755   1.184  0.5883  0.2497 -1.7868
  255MOL0     H34410  10.926  10.784   1.074 -0.5280  1.9708 -3.0537
  255MOL0     H34411  10.516  11.003   1.135  0.0067  0.3342 -0.4272
  255MOL0     H34412  10.283  11.068   1.135 -0.8029 -0.6787 -1.8694
  255MOL0     H34413  10.192  11.290   0.769  1.9860  3.4627 -0.0151
  255MOL0     H34414  10.105  11.412   0.852  1.3796 -0.1951 -0.9330
  255MOL0     H34415  10.024  11.116   0.823  0.8811 -0.4212 -3.8455
  255MOL0     H34416   9.952  11.226   0.734  0.5401 -1.4160  0.4451
  255MOL0     H34417   9.898  11.338   0.964  1.1438 -0.4327  0.6784
  255MOL0     H34418   9.930  11.187   1.040  0.5551 -1.1700  0.2854
  255MOL0     H34419   9.756  11.074   0.889  2.0085 -0.2706  0.0128
  255MOL0     H34420   9.702  11.200   0.995 -1.1423 -1.4061 -0.2871
  255MOL0     H34421   9.569  11.353   0.628 -0.3498  2.3696  0.8248
  255MOL0     H34422  10.381  11.365   0.849 -1.9414 -0.1060  0.9134
  255MOL0     H34423  10.602  11.397   0.745  1.9635 -1.8199 -1.7159
  255MOL0     H34424  10.723  11.386   0.874  0.8125 -2.3096  3.5635
  255MOL0     H34425  10.726  11.265   0.765  2.2100  1.1445  1.6691
  256MOL0     O34426   3.359   5.855  10.623  0.2976 -0.0614  0.6794
  256MOL0     C34427   3.328   5.832  10.742 -0.2444  1.0180  0.9364
  256MOL0     O34428   3.424   5.825  10.841 -0.0333  0.0013  0.0325
  256MOL0     C34429   3.554   5.828  10.812  0.4678  0.3846 -0.6347
  256MOL0     C34430   3.612   5.722  10.745  0.8984 -0.0107 -0.8007
  256MOL0     C34431   3.752   5.720  10.722  0.0850 -0.2799 -0.2163
  256MOL0     C34432   3.826   5.823  10.769 -1.2185 -0.1407 -0.6610
  256MOL0     O34433   3.959   5.833  10.742 -0.1043  0.5152  0.0028
  256MOL0     C34434   4.022   5.959  10.701 -0.4072  0.2154 -0.8053
  256MOL0     C34435   3.972   6.003  10.555  0.6623  1.0453 -0.4425
  256MOL0     C34436   4.057   5.921  10.457  0.3277 -0.8888  0.8725
  256MOL0     C34437   4.027   5.953  10.311 -0.2338 -0.6878 -0.5990
  256MOL0     C34438   4.115   5.877  10.209  0.1897 -0.0091 -0.6674
  256MOL0     C34439   4.098   5.917  10.062  1.3779  0.1003 -0.3151
  256MOL0     C34440   3.953   5.880  10.010  0.5265  0.0617  0.1706
  256MOL0     C34441   3.949   5.930   9.866 -0.5905  0.9977  0.0130
  256MOL0     N34442   3.839   5.875   9.779 -0.9934  1.0426 -0.2628
  256MOL0     C34443   3.704   5.860   9.823  0.2578  0.6916 -0.7358
  256MOL0     C34444   3.651   5.767   9.741  0.2410  0.0140  0.5010
  256MOL0     C34445   3.511   5.715   9.758 -0.8942 -0.0113 -0.6330
  256MOL0     C34446   3.453   5.653   9.634  0.8635 -0.4074  0.4237
  256MOL0     C34447   3.356   5.747   9.560  1.1612 -0.5105  0.5565
  256MOL0     C34448   3.429   5.850   9.475  0.7549 -0.0983 -0.0069
  256MOL0     O34449   3.325   5.914   9.385 -0.7530  0.3364  0.0872
  256MOL0     C34450   3.375   6.003   9.292 -0.1639  1.1299  1.0592
  256MOL0     C34451   3.281   6.046   9.192 -0.4225  0.6369 -0.1222
  256MOL0     C34452   3.318   6.136   9.087  0.4244  0.1703 -0.1833
  256MOL0     C34453   3.443   6.189   9.086 -0.5550 -0.2656 -0.1525
  256MOL0     C34454   3.480   6.288   8.982  0.3585  0.3272 -0.1594
  256MOL0     O34455   3.421   6.275   8.864 -0.8326  0.2636  0.0215
  256MOL0     C34456   3.448   6.364   8.764  0.0918 -0.1418 -0.1897
  256MOL0     C34457   3.408   6.497   8.781 -0.3694  0.0509 -1.8767
  256MOL0     C34458   3.419   6.580   8.665  0.6113 -0.0264  0.0259
  256MOL0     C34459   3.476   6.542   8.547  0.1779  0.0311 -0.4503
  256MOL0     O34460   3.491   6.641   8.451 -0.8620  0.8047 -0.2210
  256MOL0     C34461   3.508   6.591   8.320  0.8689  0.5135 -0.2018
  256MOL0     C34462   3.451   6.716   8.233 -0.3590  0.3919 -0.3408
  256MOL0     C34463   3.433   6.682   8.081  0.3698 -0.6319  0.2539
  256MOL0     C34464   3.383   6.812   8.025  0.4598 -0.3243 -0.7479
  256MOL0     C34465   3.319   6.791   7.880 -0.2318 -0.2385 -0.1218
  256MOL0     C34466   3.281   6.924   7.806 -0.6352 -0.4661  0.0648
  256MOL0     C34467   3.389   7.030   7.794 -0.7063  0.2800 -0.4666
  256MOL0     C34468   3.367   7.139   7.693 -0.1253  0.6374 -0.0332
  256MOL0    Cl34469   3.369   7.062   7.530 -0.4802  0.3422  0.2134
  256MOL0     C34470   3.531   6.412   8.542 -0.3124 -0.7874 -0.4952
  256MOL0     C34471   3.513   6.324   8.644  0.2885 -0.1939 -0.8361
  256MOL0     O34472   3.585   6.342   9.007  0.3339 -0.3136  0.4324
  256MOL0     C34473   3.530   6.151   9.186 -0.5572 -0.0276  0.5153
  256MOL0     C34474   3.500   6.064   9.289  0.8225 -0.3857 -0.1364
  256MOL0     N34475   3.751   5.723   9.659  0.3550 -0.0841 -0.3962
  256MOL0     N34476   3.854   5.791   9.673 -0.4538  0.1892 -0.0805
  256MOL0     C34477   3.762   5.922  10.846  0.2287 -0.1643  0.0708
  256MOL0     C34478   3.631   5.930  10.857 -0.8470  0.2827  0.1237
  256MOL0     C34479   3.181   5.824  10.773  0.2181  0.6578  0.3304
  256MOL0     C34480   3.152   5.860  10.906 -0.1255  0.6269 -0.4754
  256MOL0     C34481   3.024   5.852  10.951 -0.1714  0.7593  0.1327
  256MOL0     C34482   2.912   5.815  10.877  1.0251  0.0436 -0.2915
  256MOL0     O34483   2.776   5.829  10.911 -0.1682 -0.1720  0.0300
  256MOL0     C34484   2.677   5.817  10.815 -0.6017 -1.2378 -0.1355
  256MOL0     C34485   2.549   5.883  10.860  0.6019 -0.6621 -0.5281
  256MOL0     C34486   2.483   5.820  10.972  0.0960  0.2192 -0.4142
  256MOL0     C34487   2.368   5.897  11.038 -0.2258  0.0951 -0.5626
  256MOL0     C34488   2.312   5.816  11.147  0.4045 -0.3280  0.5413
  256MOL0     C34489   2.250   5.757  11.228  0.4300  1.0423  0.1222
  256MOL0     C34490   2.946   5.781  10.743 -0.6613 -0.1080  0.5752
  256MOL0     C34491   3.080   5.770  10.691 -0.3302  0.3792  0.3089
  256MOL0     C34492   3.106   5.708  10.554  0.3067 -0.3157  0.6992
  256MOL0     H34493   3.551   5.644  10.700  1.0873  0.9218 -2.7645
  256MOL0     H34494   3.777   5.642  10.651 -2.9166 -0.5697 -1.0861
  256MOL0     H34495   3.992   6.035  10.774 -1.1915  1.1255 -2.0350
  256MOL0     H34496   4.130   5.951  10.687 -0.0100 -0.7962  2.2168
  256MOL0     H34497   3.989   6.111  10.544  1.2258  0.7549 -3.2734
  256MOL0     H34498   3.866   5.989  10.532  0.8468  1.8720 -1.9536
  256MOL0     H34499   4.036   5.817  10.482  3.7804 -1.7963  0.5035
  256MOL0     H34500   4.165   5.939  10.467  0.6293 -1.1889 -1.3517
  256MOL0     H34501   3.923   5.925  10.294 -0.1085 -0.3454 -2.0284
  256MOL0     H34502   4.034   6.062  10.300  0.2987 -0.9149 -2.9715
  256MOL0     H34503   4.215   5.910  10.241 -0.4151  0.2633  1.0281
  256MOL0     H34504   4.103   5.770  10.226 -0.8741  0.3817  1.2970
  256MOL0     H34505   4.114   6.025  10.065  1.6219  0.0539  0.2499
  256MOL0     H34506   4.161   5.865   9.989  0.0338 -2.2405  0.1057
  256MOL0     H34507   3.882   5.947  10.060 -1.5672  0.1150 -2.6335
  256MOL0     H34508   3.926   5.779  10.040  2.0287 -0.0794  1.1674
  256MOL0     H34509   3.929   6.038   9.861  0.7531  1.2447 -0.6150
  256MOL0     H34510   4.045   5.902   9.820 -0.2946  1.2183  0.4886
  256MOL0     H34511   3.659   5.912   9.907  0.0756  0.4785 -0.7014
  256MOL0     H34512   3.525   5.643   9.839 -2.9828 -1.1628 -1.2246
  256MOL0     H34513   3.454   5.795   9.805  2.4676  2.2365  0.0108
  256MOL0     H34514   3.519   5.615   9.555 -0.3178 -1.9041  0.0930
  256MOL0     H34515   3.392   5.568   9.666  0.8317 -2.1938 -3.7531
  256MOL0     H34516   3.298   5.798   9.637  0.6604 -0.2441  0.0060
  256MOL0     H34517   3.286   5.684   9.505  1.4076 -1.8356  1.6962
  256MOL0     H34518   3.507   5.796   9.421  0.8396 -1.0388  1.0148
  256MOL0     H34519   3.476   5.927   9.537  0.5726  1.4334 -1.6780
  256MOL0     H34520   3.179   6.010   9.193  0.3334 -1.8674  2.9110
  256MOL0     H34521   3.240   6.155   9.013 -2.9037  1.0948  3.2221
  256MOL0     H34522   3.370   6.530   8.877  0.0359 -1.5401 -1.1437
  256MOL0     H34523   3.393   6.686   8.666  2.4856  0.4960 -0.8078
  256MOL0     H34524   3.601   6.542   8.288 -1.9573 -5.4222 -0.8399
  256MOL0     H34525   3.441   6.505   8.315 -0.1423  1.2751  0.0185
  256MOL0     H34526   3.354   6.752   8.267 -0.4242  0.3028 -0.4329
  256MOL0     H34527   3.534   6.785   8.251  1.0359 -1.3901  0.3735
  256MOL0     H34528   3.532   6.663   8.039  1.0964  1.5448  0.8539
  256MOL0     H34529   3.358   6.605   8.061  1.2267 -1.9370  1.8299
  256MOL0     H34530   3.473   6.874   8.017 -1.2943  2.4541 -0.3615
  256MOL0     H34531   3.312   6.856   8.096  1.4598 -0.0817  0.1377
  256MOL0     H34532   3.229   6.728   7.881  1.9469 -3.6101  0.2542
  256MOL0     H34533   3.387   6.733   7.817 -0.2338  1.2156 -1.5130
  256MOL0     H34534   3.235   6.908   7.708 -0.6175  0.7447 -0.1558
  256MOL0     H34535   3.197   6.962   7.866 -2.3228 -0.4176 -2.1800
  256MOL0     H34536   3.487   6.986   7.772  0.1694  1.8409  0.1913
  256MOL0     H34537   3.394   7.070   7.895 -0.8576 -0.1237 -0.2976
  256MOL0     H34538   3.278   7.198   7.720 -2.5443 -1.9225 -1.8736
  256MOL0     H34539   3.447   7.212   7.707 -0.7267  1.0377  1.4925
  256MOL0     H34540   3.594   6.374   8.462 -0.7705 -1.5761 -0.4974
  256MOL0     H34541   3.547   6.221   8.639  2.3236  0.4382 -0.8665
  256MOL0     H34542   3.633   6.180   9.176 -0.3845 -0.7102  0.2216
  256MOL0     H34543   3.573   6.026   9.359 -0.1240  0.5741  1.4350
  256MOL0     H34544   3.808   6.011  10.889 -0.4139  0.0448  0.3335
  256MOL0     H34545   3.579   6.013  10.904 -0.2962 -1.1332  3.5508
  256MOL0     H34546   3.228   5.908  10.967 -2.4944  6.4533 -1.4004
  256MOL0     H34547   3.008   5.893  11.050  1.7562  3.1546 -0.4382
  256MOL0     H34548   2.662   5.710  10.801  0.7666 -2.0019  3.2412
  256MOL0     H34549   2.706   5.874  10.726  1.4817  0.1290  1.3152
  256MOL0     H34550   2.477   5.886  10.777  0.2869  1.9957 -0.2439
  256MOL0     H34551   2.583   5.982  10.891  1.9594 -2.1478  3.2235
  256MOL0     H34552   2.556   5.781  11.044 -1.1709  0.2936  0.9785
  256MOL0     H34553   2.428   5.729  10.944  2.3209 -1.8079  1.3866
  256MOL0     H34554   2.388   5.995  11.083 -2.2370 -0.5155  1.8794
  256MOL0     H34555   2.293   5.925  10.963 -1.1805  2.6489  1.1879
  256MOL0     H34556   2.173   5.716  11.289 -0.5430  1.9866 -0.4433
  256MOL0     H34557   2.884   5.748  10.660  2.4167 -0.8826 -1.5966
  256MOL0     H34558   3.028   5.655  10.499  0.1103 -1.3205  1.9108
  256MOL0     H34559   3.136   5.794  10.492  1.7844 -0.0297  1.7426
  256MOL0     H34560   3.186   5.635  10.565 -0.1114 -0.9376 -0.2849
  257MOL0     O34561   2.151  10.251   3.054 -0.8862 -0.7372 -0.3058
  257MOL0     C34562   2.262  10.188   3.038  0.1379  0.0251 -0.2561
  257MOL0     O34563   2.274  10.056   3.043  0.3798  0.2230  0.5406
  257MOL0     C34564   2.167   9.983   3.092 -0.0998 -0.2540  0.6643
  257MOL0     C34565   2.189   9.921   3.203 -0.6166  0.2490  0.4732
  257MOL0     C34566   2.089   9.837   3.264  1.0564  0.6596  0.5772
  257MOL0     C34567   1.962   9.843   3.220 -0.7161  0.8525  0.6684
  257MOL0     O34568   1.870   9.765   3.294 -0.9710 -0.0268  1.1831
  257MOL0     C34569   1.741   9.819   3.294 -0.1311  0.2288 -0.6233
  257MOL0     C34570   1.663   9.761   3.415 -0.1560 -0.8783  0.5554
  257MOL0     C34571   1.592   9.632   3.371  0.4313  0.0095  0.9950
  257MOL0     C34572   1.570   9.530   3.499  0.2476  0.4096  0.5260
  257MOL0     C34573   1.515   9.391   3.462 -0.6834 -0.0117  0.0632
  257MOL0     C34574   1.623   9.296   3.415 -0.6650 -0.0836 -0.7250
  257MOL0     C34575   1.574   9.170   3.333  0.1423 -0.3951  0.1094
  257MOL0     C34576   1.486   9.073   3.412  0.5120  0.2608  0.1488
  257MOL0     N34577   1.376   9.012   3.325  0.0376 -0.0781  0.7094
  257MOL0     C34578   1.389   9.009   3.184 -0.2109 -0.2927 -0.6588
  257MOL0     C34579   1.289   8.922   3.141  0.5460 -1.2650 -0.7110
  257MOL0     C34580   1.255   8.895   2.998  0.8902 -0.3936  0.4651
  257MOL0     C34581   1.142   8.792   3.003 -0.1449  0.3294  0.4406
  257MOL0     C34582   1.119   8.734   2.864  0.5366 -0.8679 -0.0207
  257MOL0     C34583   1.032   8.603   2.868  0.1022  0.1691  0.2275
  257MOL0     O34584   1.010   8.550   2.735 -0.1837  0.0034 -0.4376
  257MOL0     C34585   0.883   8.573   2.688  0.4857  1.0256  0.2767
  257MOL0     C34586   0.865   8.664   2.595  0.4781  0.3437  0.1606
  257MOL0     C34587   0.736   8.693   2.541 -0.0036  0.2700  0.0846
  257MOL0     C34588   0.627   8.623   2.586  0.5296  0.7299 -0.9354
  257MOL0     C34589   0.486   8.617   2.524  0.4939 -0.1735 -0.0652
  257MOL0     O34590   0.474   8.628   2.386  0.0679  0.5478 -0.5830
  257MOL0     C34591   0.341   8.623   2.346  0.3286 -0.2609 -0.4319
  257MOL0     C34592   0.287   8.495   2.343  0.3138 -0.6633  0.0211
  257MOL0     C34593   0.144   8.478   2.328  0.6806 -0.2771  0.3866
  257MOL0     C34594   0.062   8.594   2.337 -1.1192  0.1144 -1.5068
  257MOL0     O34595  -0.076   8.581   2.343 -0.7187  0.5857 -0.0422
  257MOL0     C34596  -0.145   8.455   2.325 -0.1956 -1.1087  0.3569
  257MOL0     C34597  -0.301   8.467   2.328  0.0828  0.0231 -0.2260
  257MOL0     C34598  -0.340   8.460   2.476  0.2393 -0.1632 -0.0574
  257MOL0     C34599  -0.489   8.443   2.501 -0.8447  0.6624  0.3891
  257MOL0     C34600  -0.523   8.433   2.645  0.1165 -0.1423 -0.8989
  257MOL0     C34601  -0.669   8.410   2.667 -0.0693  0.4948  0.6267
  257MOL0     C34602  -0.717   8.417   2.811  0.3878 -0.1767 -0.2270
  257MOL0     C34603  -0.639   8.329   2.902  0.0012 -0.0460 -0.2176
  257MOL0    Cl34604  -0.717   8.340   3.062 -0.2065 -0.7095 -0.4849
  257MOL0     C34605   0.123   8.717   2.329  0.8229  0.4431  0.3532
  257MOL0     C34606   0.254   8.734   2.336 -0.8404 -0.3947 -0.4433
  257MOL0     O34607   0.390   8.606   2.603  0.7081  0.3901  0.2239
  257MOL0     C34608   0.647   8.528   2.692  0.0965 -0.2482 -0.3216
  257MOL0     C34609   0.774   8.501   2.735  0.8509  0.1664  0.2249
  257MOL0     N34610   1.215   8.900   3.251 -0.3742 -0.1726  0.4818
  257MOL0     N34611   1.265   8.952   3.359  0.9160 -0.2485  0.1213
  257MOL0     C34612   1.932   9.908   3.097 -0.6936  1.1158 -0.0345
  257MOL0     C34613   2.033   9.975   3.031 -0.2330 -0.0687 -0.4090
  257MOL0     C34614   2.386  10.271   3.028 -0.7594 -0.5835  0.2926
  257MOL0     C34615   2.373  10.415   3.048 -0.2172 -0.0845 -0.0777
  257MOL0     C34616   2.482  10.503   3.027  0.5492  0.2357 -1.0128
  257MOL0     C34617   2.599  10.450   2.974 -0.7892 -0.7596 -0.2723
  257MOL0     O34618   2.712  10.525   2.952  0.7122 -0.6939 -0.4096
  257MOL0     C34619   2.718  10.668   2.994 -0.0395  0.3673  0.0043
  257MOL0     C34620   2.848  10.728   2.954  0.5424 -1.0332 -0.0352
  257MOL0     C34621   2.835  10.882   2.937 -0.5572 -0.5219  0.2715
  257MOL0     C34622   2.731  10.956   3.037 -0.2901  0.8070  1.0131
  257MOL0     C34623   2.595  10.958   2.986 -0.0579 -0.7634  0.4695
  257MOL0     C34624   2.495  10.980   2.932 -1.0068  0.8693  0.4336
  257MOL0     C34625   2.619  10.318   2.954 -0.0300 -0.0652  0.1543
  257MOL0     C34626   2.513  10.225   2.982 -0.0808  0.3088  0.1340
  257MOL0     C34627   2.531  10.072   2.940 -0.8483  0.2274  0.0601
  257MOL0     H34628   2.283   9.934   3.257 -0.1133 -2.8154  0.5225
  257MOL0     H34629   2.124   9.781   3.351  2.9864  0.9456  0.0288
  257MOL0     H34630   1.748   9.929   3.299  3.5533  0.2232 -1.9350
  257MOL0     H34631   1.684   9.792   3.205  0.1315 -0.3450 -0.6166
  257MOL0     H34632   1.588   9.833   3.450  0.2970 -0.5670  0.8977
  257MOL0     H34633   1.729   9.744   3.500  3.0045  3.0854 -0.7875
  257MOL0     H34634   1.643   9.584   3.287 -0.4084  2.9379 -1.3724
  257MOL0     H34635   1.492   9.662   3.337 -0.2851 -1.2354  1.9149
  257MOL0     H34636   1.671   9.518   3.541  0.0969  2.9328  1.7995
  257MOL0     H34637   1.501   9.578   3.569  1.3042 -0.7351  2.4724
  257MOL0     H34638   1.473   9.333   3.544  3.8752 -0.9966  1.9806
  257MOL0     H34639   1.455   9.409   3.372  3.2625  0.9406 -2.6538
  257MOL0     H34640   1.701   9.347   3.358 -2.1438  0.4133 -2.3969
  257MOL0     H34641   1.671   9.256   3.505 -3.9355 -1.1734  0.6919
  257MOL0     H34642   1.656   9.117   3.284 -0.9862  0.4416 -2.8973
  257MOL0     H34643   1.519   9.214   3.249  0.5279  1.9289  1.0007
  257MOL0     H34644   1.550   8.995   3.452  1.4874  0.2322 -1.3833
  257MOL0     H34645   1.431   9.116   3.496  2.8232 -1.6531  2.8208
  257MOL0     H34646   1.470   9.053   3.126 -0.4481  1.1076  0.0527
  257MOL0     H34647   1.220   8.985   2.948 -0.5213 -0.3486  1.4548
  257MOL0     H34648   1.347   8.863   2.950  1.1386  0.8397  0.0808
  257MOL0     H34649   1.168   8.707   3.068 -0.4246  1.5466  2.2193
  257MOL0     H34650   1.054   8.830   3.056  1.4511  1.0745  2.7050
  257MOL0     H34651   1.214   8.729   2.809  1.2867  1.5859  0.8860
  257MOL0     H34652   1.056   8.810   2.817 -2.1237 -3.2332 -0.5115
  257MOL0     H34653   0.940   8.627   2.922  0.7690 -0.1882  1.5624
  257MOL0     H34654   1.083   8.529   2.929 -1.6409 -0.9563  0.3815
  257MOL0     H34655   0.943   8.716   2.540 -0.0270  0.1225 -0.7957
  257MOL0     H34656   0.733   8.776   2.472 -0.7615 -0.0933 -0.3208
  257MOL0     H34657   0.354   8.409   2.342 -0.6521 -1.4868 -2.4751
  257MOL0     H34658   0.097   8.381   2.334 -0.7143  0.3662  0.3441
  257MOL0     H34659  -0.111   8.406   2.233  1.6729  1.5179 -0.4451
  257MOL0     H34660  -0.117   8.394   2.412  0.1173 -1.8337 -0.2400
  257MOL0     H34661  -0.337   8.555   2.274 -1.1398 -0.4148 -0.1518
  257MOL0     H34662  -0.357   8.384   2.285  0.0971  1.0952 -2.4464
  257MOL0     H34663  -0.284   8.383   2.530  1.0204  0.7282  0.4527
  257MOL0     H34664  -0.303   8.554   2.519 -3.9156  1.2882  0.7336
  257MOL0     H34665  -0.541   8.371   2.437 -0.1886  0.5272 -0.0042
  257MOL0     H34666  -0.535   8.530   2.454 -0.4317 -0.2363 -1.8604
  257MOL0     H34667  -0.500   8.520   2.706 -0.5580  0.3490 -1.3439
  257MOL0     H34668  -0.453   8.353   2.674  0.4630  0.6703  0.6183
  257MOL0     H34669  -0.735   8.469   2.602 -1.1171 -1.1444  0.1481
  257MOL0     H34670  -0.681   8.306   2.635  1.1348  0.6738 -0.4932
  257MOL0     H34671  -0.824   8.393   2.803  1.0087 -2.9241 -1.3758
  257MOL0     H34672  -0.704   8.515   2.857 -5.1365 -0.2995  2.4568
  257MOL0     H34673  -0.623   8.224   2.876  0.5172 -0.0294  0.0098
  257MOL0     H34674  -0.539   8.374   2.911  0.0475 -0.2399  0.3038
  257MOL0     H34675   0.051   8.798   2.329  0.7434  0.4055 -1.3452
  257MOL0     H34676   0.294   8.833   2.354 -1.8397  0.5598 -2.9862
  257MOL0     H34677   0.561   8.483   2.740 -0.8732  2.7508  0.9835
  257MOL0     H34678   0.789   8.430   2.816  3.4902 -0.9338 -1.1127
  257MOL0     H34679   1.832   9.896   3.055 -0.5187  0.7248 -0.3428
  257MOL0     H34680   2.026  10.027   2.936  2.1372  0.1990 -0.4779
  257MOL0     H34681   2.278  10.456   3.080  0.3333  0.5419  0.7685
  257MOL0     H34682   2.465  10.608   3.048 -2.0577 -0.0333 -1.4128
  257MOL0     H34683   2.701  10.664   3.103  3.3059 -3.0097  0.6211
  257MOL0     H34684   2.638  10.716   2.937  2.6277  2.2949 -2.3740
  257MOL0     H34685   2.871  10.691   2.853  2.3731  1.7458 -0.7386
  257MOL0     H34686   2.932  10.717   3.023  0.9684 -0.5868 -0.4786
  257MOL0     H34687   2.812  10.917   2.836 -2.0954  3.3375  1.7633
  257MOL0     H34688   2.930  10.931   2.961 -1.9814  1.0183  3.1665
  257MOL0     H34689   2.730  10.910   3.136 -2.9955  1.4993  1.3779
  257MOL0     H34690   2.766  11.059   3.045  3.1554  0.0942 -2.0132
  257MOL0     H34691   2.404  10.981   2.876 -1.0151  0.7083  0.4433
  257MOL0     H34692   2.719  10.284   2.926  1.3061  2.2412  1.8060
  257MOL0     H34693   2.619  10.035   2.886 -2.4534 -2.2211 -1.0189
  257MOL0     H34694   2.532  10.011   3.031  1.9310 -1.0649 -0.7299
  257MOL0     H34695   2.457  10.048   2.863 -0.3713 -2.4300  0.3327
  258MOL0     O34696   5.044   1.044   9.109  0.2457  0.2383  0.2323
  258MOL0     C34697   5.168   1.004   9.113  0.1571 -0.8422  0.5058
  258MOL0     O34698   5.278   1.074   9.069  0.4949  0.7128  0.2130
  258MOL0     C34699   5.258   1.196   9.022 -0.1318 -0.3420  0.0603
  258MOL0     C34700   5.279   1.298   9.122 -0.5747 -0.2363 -0.0159
  258MOL0     C34701   5.249   1.431   9.082 -0.2395 -0.7295 -0.0226
  258MOL0     C34702   5.223   1.466   8.948  0.0324  0.9689  0.1732
  258MOL0     O34703   5.196   1.597   8.907  0.8953  1.1751 -0.5909
  258MOL0     C34704   5.299   1.693   8.955  0.1479 -0.3779  0.1589
  258MOL0     C34705   5.418   1.708   8.852 -0.8305  1.0124  0.4450
  258MOL0     C34706   5.381   1.710   8.700 -0.3279 -0.0291 -0.1388
  258MOL0     C34707   5.281   1.819   8.671  0.2242 -0.1190  0.2314
  258MOL0     C34708   5.265   1.844   8.521  0.9536  0.1262  0.2856
  258MOL0     C34709   5.369   1.937   8.467 -0.0049 -0.0320 -0.3373
  258MOL0     C34710   5.315   2.000   8.337 -0.1571 -0.6358  0.9704
  258MOL0     C34711   5.419   1.995   8.228  0.9472 -0.5202 -0.6031
  258MOL0     N34712   5.492   2.117   8.217  0.3479 -0.5661  0.2807
  258MOL0     C34713   5.439   2.227   8.158 -0.1224  0.2592  0.9786
  258MOL0     C34714   5.549   2.295   8.104 -1.0084 -0.2283  0.4426
  258MOL0     C34715   5.540   2.424   8.032  1.0418  0.1379  1.1660
  258MOL0     C34716   5.539   2.408   7.875  0.5492 -0.2493 -0.3480
  258MOL0     C34717   5.529   2.524   7.790 -1.3078 -0.6091  0.4139
  258MOL0     C34718   5.535   2.499   7.632 -0.0815  0.3734 -0.3666
  258MOL0     O34719   5.646   2.416   7.581  0.6110 -0.2865 -0.2055
  258MOL0     C34720   5.769   2.475   7.589 -0.3201  1.0586  0.6835
  258MOL0     C34721   5.884   2.396   7.559  0.0236 -0.0453 -0.2356
  258MOL0     C34722   6.016   2.439   7.574 -0.5948 -0.0770 -0.3507
  258MOL0     C34723   6.043   2.571   7.616 -0.4564  0.8235  0.1695
  258MOL0     C34724   6.182   2.614   7.616 -0.1576  0.3328 -0.3782
  258MOL0     O34725   6.286   2.526   7.570 -0.3106  0.4592 -0.3417
  258MOL0     C34726   6.419   2.567   7.545  0.5680 -0.6547 -0.1985
  258MOL0     C34727   6.518   2.468   7.541 -0.9310  0.9450 -0.0700
  258MOL0     C34728   6.657   2.511   7.521  0.8020 -0.0716  0.4072
  258MOL0     C34729   6.685   2.646   7.492 -0.7091  0.9517  0.9871
  258MOL0     O34730   6.821   2.677   7.464 -0.0984  0.8536  0.0322
  258MOL0     C34731   6.887   2.745   7.570 -0.1999 -0.7318  0.2470
  258MOL0     C34732   7.036   2.775   7.544 -0.4049  1.1948  0.4351
  258MOL0     C34733   7.125   2.645   7.546  0.4355  0.1724  0.1288
  258MOL0     C34734   7.159   2.591   7.685  0.6853 -0.0385 -0.3578
  258MOL0     C34735   7.315   2.600   7.712 -0.0967 -0.5556  0.6906
  258MOL0     C34736   7.350   2.599   7.857  0.1716 -0.0244  1.3120
  258MOL0     C34737   7.323   2.459   7.905  0.5208  0.2779  0.0084
  258MOL0     C34738   7.369   2.438   8.045 -0.4406  0.7018  1.0533
  258MOL0    Cl34739   7.549   2.460   8.080  0.1787  0.3410  0.1654
  258MOL0     C34740   6.588   2.739   7.483 -0.6809 -0.3439 -0.4237
  258MOL0     C34741   6.459   2.698   7.514 -0.7143 -0.1284  1.0269
  258MOL0     O34742   6.202   2.726   7.648  0.1602 -0.0075 -0.0043
  258MOL0     C34743   5.934   2.655   7.641  0.2663 -0.6037  0.7422
  258MOL0     C34744   5.807   2.604   7.622  0.8966  0.1522  0.1559
  258MOL0     N34745   5.661   2.224   8.164 -0.4157 -0.8602 -0.4782
  258MOL0     N34746   5.621   2.127   8.237 -0.4204  0.3409 -0.3377
  258MOL0     C34747   5.229   1.363   8.857  0.9577 -0.6251  0.5130
  258MOL0     C34748   5.241   1.228   8.892 -0.2567 -0.4625 -0.9686
  258MOL0     C34749   5.212   0.861   9.136 -0.5851 -1.0463 -0.9299
  258MOL0     C34750   5.299   0.806   9.041  1.2309  1.0409 -0.4224
  258MOL0     C34751   5.334   0.676   9.041 -0.3526  0.1808  0.1032
  258MOL0     C34752   5.291   0.593   9.145 -0.2546  0.4765 -0.4516
  258MOL0     O34753   5.326   0.458   9.166 -0.4201 -0.2786  0.3134
  258MOL0     C34754   5.435   0.402   9.078  0.6231  0.2892 -0.4776
  258MOL0     C34755   5.438   0.259   9.118 -0.5010 -0.5526  0.5012
  258MOL0     C34756   5.312   0.188   9.096  0.0409  0.5054 -0.4349
  258MOL0     C34757   5.313   0.038   9.115 -0.1589  0.2012 -0.6132
  258MOL0     C34758   5.303  -0.015   9.248  1.9475 -0.0986  0.5253
  258MOL0     C34759   5.298  -0.053   9.366 -1.0853 -0.1850 -0.5117
  258MOL0     C34760   5.205   0.643   9.238 -0.1242 -0.2925  0.3044
  258MOL0     C34761   5.160   0.782   9.235  0.5977  1.6486  0.0868
  258MOL0     C34762   5.035   0.803   9.316 -0.4929  0.0510 -0.2542
  258MOL0     H34763   5.314   1.284   9.224  1.1043  0.6071 -0.4381
  258MOL0     H34764   5.256   1.513   9.152  0.3883 -0.5145 -0.3374
  258MOL0     H34765   5.249   1.787   8.978  1.1063 -0.2369  1.8764
  258MOL0     H34766   5.337   1.688   9.058  2.4003 -0.8497 -0.6341
  258MOL0     H34767   5.490   1.629   8.873 -0.6375  0.2078 -2.7473
  258MOL0     H34768   5.462   1.804   8.880  0.6872 -0.1269  2.2985
  258MOL0     H34769   5.345   1.609   8.681  1.0514 -1.0113  2.0643
  258MOL0     H34770   5.467   1.732   8.636  0.7389  1.8779  1.8163
  258MOL0     H34771   5.185   1.798   8.719  0.7674 -1.2305  0.8836
  258MOL0     H34772   5.316   1.912   8.716 -0.9752  0.6069 -0.2863
  258MOL0     H34773   5.265   1.745   8.476  0.6421 -0.5878  1.7972
  258MOL0     H34774   5.179   1.911   8.520  1.3431  0.6431  0.8005
  258MOL0     H34775   5.400   2.026   8.522  2.9553 -2.1316  1.7409
  258MOL0     H34776   5.470   1.895   8.463  2.0547  4.2186  1.6066
  258MOL0     H34777   5.274   2.099   8.359  0.0275 -0.0522 -1.0962
  258MOL0     H34778   5.227   1.944   8.307 -0.5300 -1.0812  2.7811
  258MOL0     H34779   5.495   1.917   8.236  1.4690 -0.0651 -1.0634
  258MOL0     H34780   5.365   1.978   8.134 -1.3613  1.2196  0.3215
  258MOL0     H34781   5.334   2.254   8.152 -1.2342 -3.7476 -0.7376
  258MOL0     H34782   5.447   2.468   8.068  1.1053 -1.5243  3.5400
  258MOL0     H34783   5.619   2.494   8.058  0.0248  0.8621  2.3991
  258MOL0     H34784   5.638   2.373   7.846 -0.5026 -1.7092 -2.4194
  258MOL0     H34785   5.484   2.317   7.847 -0.6993  0.1596  0.6405
  258MOL0     H34786   5.610   2.589   7.825 -0.4090  0.2031 -2.8516
  258MOL0     H34787   5.441   2.589   7.803 -0.7991 -0.0920  1.4260
  258MOL0     H34788   5.549   2.602   7.597  0.3970 -0.1334 -1.7349
  258MOL0     H34789   5.437   2.455   7.614 -0.1106 -0.6635  1.9711
  258MOL0     H34790   5.859   2.292   7.540 -0.5203  0.1263 -0.4772
  258MOL0     H34791   6.094   2.368   7.550 -0.8049 -1.5258  2.8204
  258MOL0     H34792   6.478   2.367   7.537 -2.8015  1.6778 -1.2435
  258MOL0     H34793   6.731   2.433   7.505  0.1984 -0.2709 -1.7448
  258MOL0     H34794   6.843   2.842   7.597 -2.7019 -2.0201  1.1340
  258MOL0     H34795   6.887   2.681   7.659  0.5414  0.7528  1.3598
  258MOL0     H34796   7.036   2.811   7.441 -1.6781 -5.8605 -2.6089
  258MOL0     H34797   7.071   2.853   7.613 -1.7063  0.9953  1.3516
  258MOL0     H34798   7.070   2.568   7.491  2.1419 -3.0492  2.5910
  258MOL0     H34799   7.223   2.651   7.496  0.4745  0.0708  0.1945
  258MOL0     H34800   7.136   2.485   7.693 -3.0435  0.7875  3.8281
  258MOL0     H34801   7.109   2.654   7.759  0.8916 -0.6897  0.3530
  258MOL0     H34802   7.357   2.698   7.688 -2.6540  0.7078  1.0361
  258MOL0     H34803   7.364   2.520   7.656 -2.5037 -1.5369 -0.1450
  258MOL0     H34804   7.457   2.621   7.868  0.8193 -1.4582 -1.3759
  258MOL0     H34805   7.299   2.679   7.911  1.2084  0.2970  1.8623
  258MOL0     H34806   7.364   2.383   7.838 -0.8710 -0.7602  0.3124
  258MOL0     H34807   7.214   2.455   7.898  0.4591  2.8915 -2.7961
  258MOL0     H34808   7.311   2.492   8.121 -2.1528  0.3181  0.0718
  258MOL0     H34809   7.349   2.337   8.081 -2.8484  1.4121  1.8919
  258MOL0     H34810   6.621   2.837   7.448  0.8163 -0.9654 -0.8272
  258MOL0     H34811   6.388   2.779   7.518 -0.0609  0.4400  1.2940
  258MOL0     H34812   5.940   2.761   7.665  2.2819 -0.5963  0.4295
  258MOL0     H34813   5.728   2.679   7.630  3.2689  3.1249 -2.1035
  258MOL0     H34814   5.206   1.379   8.753 -1.4733 -2.7910  0.6218
  258MOL0     H34815   5.225   1.163   8.806 -0.4003  2.5394 -3.4082
  258MOL0     H34816   5.342   0.865   8.961  1.7367  4.6098  2.2316
  258MOL0     H34817   5.392   0.630   8.962 -0.9351  0.0307 -0.2331
  258MOL0     H34818   5.526   0.448   9.120 -0.4802 -1.2104  4.0576
  258MOL0     H34819   5.420   0.419   8.971 -3.1558  1.0853  0.0494
  258MOL0     H34820   5.479   0.260   9.220  4.7753  1.7332 -1.2589
  258MOL0     H34821   5.519   0.207   9.066 -0.5095 -3.1783  2.9041
  258MOL0     H34822   5.277   0.201   8.993 -1.2470 -2.5819 -0.4874
  258MOL0     H34823   5.236   0.235   9.159 -0.1910 -1.8542  1.1505
  258MOL0     H34824   5.225  -0.009   9.071 -0.0405 -3.1032  2.2640
  258MOL0     H34825   5.401  -0.009   9.070 -0.8035 -1.2196 -0.4429
  258MOL0     H34826   5.286  -0.059   9.472 -3.5042 -1.0387 -0.7779
  258MOL0     H34827   5.174   0.576   9.318  0.2053  1.6165  2.1429
  258MOL0     H34828   5.050   0.845   9.416 -1.5643 -0.6924  0.2338
  258MOL0     H34829   4.974   0.874   9.259  0.0240 -1.5641 -3.0070
  258MOL0     H34830   4.977   0.712   9.334 -2.5266  1.4569  0.6460
  259MOL0     O34831   0.216   0.111   9.960 -0.1482 -0.6234 -0.5566
  259MOL0     C34832   0.286   0.026  10.007  0.0860  0.5407 -0.1850
  259MOL0     O34833   0.310  -0.093   9.958  0.7567  0.0947 -0.5184
  259MOL0     C34834   0.241  -0.160   9.859  0.3606 -0.0432 -0.0776
  259MOL0     C34835   0.313  -0.263   9.788 -0.8836 -0.0380 -0.3920
  259MOL0     C34836   0.258  -0.326   9.676  0.6084  0.6065  0.7691
  259MOL0     C34837   0.135  -0.281   9.621  0.6295 -0.3059  0.8732
  259MOL0     O34838   0.092  -0.316   9.492  0.1266  0.1376  0.3444
  259MOL0     C34839  -0.035  -0.293   9.444  0.6352  0.7398  0.9066
  259MOL0     C34840  -0.066  -0.392   9.331  0.3371  0.9908  0.1402
  259MOL0     C34841  -0.220  -0.429   9.331 -0.2017  0.1234 -0.3432
  259MOL0     C34842  -0.306  -0.329   9.263 -0.9405  0.2928  0.4981
  259MOL0     C34843  -0.453  -0.354   9.257 -0.5442  0.3034 -0.7451
  259MOL0     C34844  -0.532  -0.260   9.168 -0.3877  0.4267  0.3312
  259MOL0     C34845  -0.683  -0.298   9.161 -0.3166 -0.9364 -0.7503
  259MOL0     C34846  -0.772  -0.215   9.257  0.1034 -0.1950  0.7222
  259MOL0     N34847  -0.783  -0.073   9.220 -0.5582  0.0111 -0.4556
  259MOL0     C34848  -0.773  -0.027   9.084 -0.4124 -0.6854  0.0710
  259MOL0     C34849  -0.821   0.095   9.096 -0.3316  1.2287  0.2982
  259MOL0     C34850  -0.815   0.198   8.995  0.4141 -0.0546  0.5946
  259MOL0     C34851  -0.939   0.228   8.926 -0.5156  0.0034  0.1629
  259MOL0     C34852  -1.053   0.271   9.030  1.0736  0.3386  0.5418
  259MOL0     C34853  -1.190   0.309   8.967 -0.1891 -0.8064 -0.6965
  259MOL0     O34854  -1.267   0.391   9.050  0.0559  0.2614  0.2602
  259MOL0     C34855  -1.243   0.525   9.067 -0.4986 -0.9342  0.0971
  259MOL0     C34856  -1.321   0.601   9.157  1.0897  1.4361  0.1781
  259MOL0     C34857  -1.311   0.739   9.175  0.0390  0.2471  0.2780
  259MOL0     C34858  -1.245   0.816   9.074  0.0373  0.1289 -0.0337
  259MOL0     C34859  -1.252   0.958   9.084 -0.0257 -0.0800  0.9100
  259MOL0     O34860  -1.313   1.010   9.193 -0.5720  0.2164  0.0468
  259MOL0     C34861  -1.316   1.148   9.209 -0.2776 -0.0672  0.2240
  259MOL0     C34862  -1.213   1.216   9.275 -0.3486 -0.8678 -0.0126
  259MOL0     C34863  -1.217   1.358   9.278 -0.5840  0.5791 -0.1605
  259MOL0     C34864  -1.327   1.428   9.227 -0.2235  0.2639  0.8357
  259MOL0     O34865  -1.316   1.558   9.223  0.1631 -0.5641  0.7042
  259MOL0     C34866  -1.310   1.616   9.093 -0.5864  0.0058  0.8836
  259MOL0     C34867  -1.290   1.765   9.086 -0.0863 -0.3333  0.1858
  259MOL0     C34868  -1.237   1.808   8.952  0.0401 -1.0443  1.4255
  259MOL0     C34869  -1.230   1.961   8.954 -0.6914  0.0731 -0.3574
  259MOL0     C34870  -1.190   2.019   8.809 -0.7777 -0.1319 -0.4707
  259MOL0     C34871  -1.308   1.991   8.702 -0.4760 -0.3028  0.1787
  259MOL0     C34872  -1.297   2.063   8.567 -0.1524 -0.1475 -0.4227
  259MOL0     C34873  -1.205   1.997   8.465  0.5118  0.7365  0.7190
  259MOL0    Cl34874  -1.043   1.956   8.524 -0.2520 -0.0383  0.2130
  259MOL0     C34875  -1.434   1.352   9.173  0.1152 -0.2517  0.3420
  259MOL0     C34876  -1.424   1.217   9.167  0.2094 -0.1713  0.7212
  259MOL0     O34877  -1.196   1.025   8.994 -0.5047 -0.6395 -0.4546
  259MOL0     C34878  -1.167   0.744   8.985 -0.5919  0.1737 -0.0024
  259MOL0     C34879  -1.165   0.606   8.991 -0.5370 -0.9632 -0.8288
  259MOL0     N34880  -0.837   0.128   9.230 -0.4666  0.0197  0.6245
  259MOL0     N34881  -0.833   0.023   9.295  0.0863  0.1455  0.2011
  259MOL0     C34882   0.063  -0.192   9.695  0.5257  0.3438  0.6800
  259MOL0     C34883   0.114  -0.130   9.806 -0.8633 -0.2163 -0.6706
  259MOL0     C34884   0.362   0.054  10.139  0.5105  0.0225 -0.4292
  259MOL0     C34885   0.470  -0.029  10.179 -0.6346  1.0597 -0.2844
  259MOL0     C34886   0.546  -0.004  10.299  0.1378 -0.6145 -0.4124
  259MOL0     C34887   0.522   0.111  10.379  0.2516  0.7511  1.3175
  259MOL0     O34888   0.599   0.133  10.485  0.8344 -0.3911 -1.1644
  259MOL0     C34889   0.564   0.217  10.600 -0.1751  0.2380 -0.0524
  259MOL0     C34890   0.673   0.211  10.707  0.0334 -0.9152 -0.3609
  259MOL0     C34891   0.792   0.306  10.658  1.0912 -0.0343 -1.3041
  259MOL0     C34892   0.900   0.316  10.765  0.2634  0.2770 -0.3538
  259MOL0     C34893   0.964   0.192  10.779 -0.3372 -0.4432 -0.1447
  259MOL0     C34894   1.007   0.090  10.805 -0.5854 -0.8452 -0.9808
  259MOL0     C34895   0.422   0.195  10.332  0.4168  0.2073 -0.0145
  259MOL0     C34896   0.330   0.167  10.224 -0.8903 -0.6625  0.9950
  259MOL0     C34897   0.233   0.275  10.193  0.5309  0.0156  0.2558
  259MOL0     H34898   0.412  -0.290   9.822 -0.3215  1.5394 -0.6844
  259MOL0     H34899   0.321  -0.399   9.625 -1.1875 -0.0784 -0.5708
  259MOL0     H34900  -0.100  -0.310   9.530 -0.1297  0.1230  0.2371
  259MOL0     H34901  -0.050  -0.191   9.408 -1.1643 -0.5618 -2.6024
  259MOL0     H34902  -0.006  -0.482   9.344  0.4292  1.0252 -0.0440
  259MOL0     H34903  -0.043  -0.343   9.236 -0.0266  1.6884  0.4074
  259MOL0     H34904  -0.242  -0.459   9.433  1.7587 -1.7432 -0.3877
  259MOL0     H34905  -0.232  -0.519   9.270 -2.1557  0.5468 -0.6266
  259MOL0     H34906  -0.279  -0.230   9.301  2.4647 -0.6693  0.8868
  259MOL0     H34907  -0.272  -0.327   9.158  0.6992 -2.8074  0.8564
  259MOL0     H34908  -0.472  -0.461   9.239 -0.6459  0.5466 -2.1511
  259MOL0     H34909  -0.487  -0.332   9.359  1.5552  0.6077 -0.0793
  259MOL0     H34910  -0.506  -0.157   9.194  4.9512 -0.4309 -0.3841
  259MOL0     H34911  -0.490  -0.290   9.071 -1.3952 -0.7893  0.2528
  259MOL0     H34912  -0.689  -0.402   9.195 -0.3909  0.2256  3.2523
  259MOL0     H34913  -0.694  -0.302   9.052  0.7549 -1.9427 -0.8483
  259MOL0     H34914  -0.871  -0.260   9.249  0.8110 -1.4334 -2.1698
  259MOL0     H34915  -0.731  -0.232   9.358  1.7507 -0.6463  0.0154
  259MOL0     H34916  -0.749  -0.075   8.990 -0.6744  0.9131 -0.8492
  259MOL0     H34917  -0.794   0.289   9.053 -1.2880 -1.2406  3.2879
  259MOL0     H34918  -0.732   0.169   8.930 -1.0333  0.1949 -1.4630
  259MOL0     H34919  -0.928   0.303   8.847  0.0394 -2.4732 -2.2675
  259MOL0     H34920  -0.970   0.138   8.871  0.7023 -1.5329  1.8795
  259MOL0     H34921  -1.018   0.356   9.089  2.4499  0.3168 -0.1897
  259MOL0     H34922  -1.065   0.193   9.106  1.4884  0.9504  1.2481
  259MOL0     H34923  -1.239   0.214   8.943  0.9982 -1.1123 -2.0476
  259MOL0     H34924  -1.173   0.361   8.872  0.8276 -1.2067 -0.7424
  259MOL0     H34925  -1.385   0.542   9.223  1.9851 -0.5926 -0.6747
  259MOL0     H34926  -1.369   0.781   9.257 -0.5122 -0.1277  0.0869
  259MOL0     H34927  -1.127   1.169   9.322 -0.2351  1.0791  1.9150
  259MOL0     H34928  -1.142   1.416   9.331  0.3465 -0.8888  0.1777
  259MOL0     H34929  -1.228   1.568   9.038 -0.7767 -2.2094  2.4298
  259MOL0     H34930  -1.400   1.591   9.036  1.0497  0.9396 -2.3845
  259MOL0     H34931  -1.384   1.818   9.107 -0.7793 -0.6793 -1.7961
  259MOL0     H34932  -1.217   1.789   9.163 -0.1319  0.3179  0.0313
  259MOL0     H34933  -1.136   1.771   8.934  0.1263  0.1110 -0.7346
  259MOL0     H34934  -1.295   1.763   8.871 -1.2582  1.4867  0.8597
  259MOL0     H34935  -1.154   1.995   9.024 -1.7497 -1.4249  1.6051
  259MOL0     H34936  -1.323   2.001   8.994 -1.4756 -1.8951 -0.0636
  259MOL0     H34937  -1.097   1.974   8.773  0.9338  3.4772 -0.9665
  259MOL0     H34938  -1.172   2.126   8.822 -2.9327 -0.0532  3.7763
  259MOL0     H34939  -1.314   1.884   8.679  1.9379 -0.2993 -0.7933
  259MOL0     H34940  -1.392   2.034   8.757  0.9255  0.7907  1.5667
  259MOL0     H34941  -1.254   2.163   8.584  0.5105 -0.3232 -0.9920
  259MOL0     H34942  -1.396   2.073   8.523 -1.1559  4.5135  2.2036
  259MOL0     H34943  -1.242   1.897   8.441  2.2774 -0.0005  0.9008
  259MOL0     H34944  -1.203   2.045   8.367 -0.7952 -0.6484 -0.0273
  259MOL0     H34945  -1.522   1.399   9.133  0.6475  1.6578  1.3131
  259MOL0     H34946  -1.494   1.160   9.106  2.4369 -0.6139 -1.5847
  259MOL0     H34947  -1.098   0.790   8.915 -0.6287 -0.6222 -0.5752
  259MOL0     H34948  -1.099   0.555   8.921  2.0967 -0.0516  0.8226
  259MOL0     H34949  -0.033  -0.154   9.661  0.1307 -0.1738  1.1873
  259MOL0     H34950   0.053  -0.053   9.852 -2.5292 -0.4685 -2.3444
  259MOL0     H34951   0.487  -0.124  10.130 -2.0547 -0.8774  2.6200
  259MOL0     H34952   0.611  -0.082  10.338  1.4850  0.1608 -1.0575
  259MOL0     H34953   0.468   0.181  10.638 -0.6151  1.5161  0.1224
  259MOL0     H34954   0.547   0.323  10.578  0.8649  1.0599  2.6506
  259MOL0     H34955   0.708   0.107  10.709  0.0105 -0.9966 -2.1175
  259MOL0     H34956   0.638   0.250  10.803 -2.0591 -0.5893 -1.2009
  259MOL0     H34957   0.755   0.408  10.644 -0.3077  0.2238  2.8188
  259MOL0     H34958   0.837   0.270  10.565 -0.4188 -0.0366 -2.0721
  259MOL0     H34959   0.974   0.393  10.746 -1.2751  1.8917 -0.1053
  259MOL0     H34960   0.847   0.342  10.857  1.3422  0.1711  0.3149
  259MOL0     H34961   1.050  -0.003  10.836 -4.5019 -2.5844 -0.2577
  259MOL0     H34962   0.405   0.291  10.380  0.6382 -0.3677  1.2545
  259MOL0     H34963   0.213   0.324  10.289 -0.7991  2.1406 -1.0348
  259MOL0     H34964   0.282   0.334  10.115  0.9652 -0.0724  0.4601
  259MOL0     H34965   0.137   0.235  10.158  0.3231  2.2334 -1.9236
  260MOL0     O34966   1.698   9.087   3.015  0.1760 -0.3267  0.2302
  260MOL0     C34967   1.710   9.186   2.948  0.0470 -0.4667 -0.9823
  260MOL0     O34968   1.779   9.291   2.988  0.2388 -0.2029 -0.4334
  260MOL0     C34969   1.808   9.386   2.891  0.1339  0.1834 -0.3365
  260MOL0     C34970   1.751   9.512   2.888  0.1067 -0.1963 -0.2643
  260MOL0     C34971   1.796   9.611   2.795  0.0192 -0.2130  0.1149
  260MOL0     C34972   1.899   9.583   2.705 -0.4462  0.0083  0.7743
  260MOL0     O34973   1.956   9.674   2.617 -0.0598  0.0821  0.4897
  260MOL0     C34974   1.932   9.810   2.660 -0.3387 -0.2094 -0.2417
  260MOL0     C34975   2.016   9.910   2.585 -0.1746  0.0486 -0.3646
  260MOL0     C34976   1.957   9.929   2.442 -0.3891 -0.3818 -0.1873
  260MOL0     C34977   2.049   9.998   2.338  1.4324 -0.2839 -0.0647
  260MOL0     C34978   1.992   9.976   2.199 -0.0954 -0.0619  0.0362
  260MOL0     C34979   2.028  10.076   2.105  0.3635  0.4071  1.1746
  260MOL0     C34980   2.005  10.231   2.135  0.1741 -0.2415  0.3108
  260MOL0     C34981   1.853  10.252   2.134 -0.7948 -0.1281 -0.4909
  260MOL0     N34982   1.782  10.223   2.258 -0.1530  0.6674 -0.5787
  260MOL0     C34983   1.806  10.270   2.382 -0.0211 -0.4519  0.9846
  260MOL0     C34984   1.706  10.235   2.464  0.7892 -0.3281  0.4241
  260MOL0     C34985   1.700  10.257   2.619  0.2081 -0.1293  0.9003
  260MOL0     C34986   1.570  10.325   2.658  0.6006 -0.5086  0.8704
  260MOL0     C34987   1.573  10.477   2.696 -0.2665  0.9819  0.2491
  260MOL0     C34988   1.612  10.562   2.577 -0.1719  0.9900 -0.0945
  260MOL0     O34989   1.507  10.570   2.489  0.1945 -0.5165  0.2348
  260MOL0     C34990   1.529  10.623   2.361 -0.5916  0.5719 -0.0529
  260MOL0     C34991   1.510  10.545   2.250 -0.4531  0.0184 -0.5432
  260MOL0     C34992   1.523  10.598   2.129  1.4212  0.6562  1.0388
  260MOL0     C34993   1.535  10.736   2.103 -0.1094  0.7270  0.1383
  260MOL0     C34994   1.535  10.798   1.968 -0.0440  0.2509 -0.0357
  260MOL0     O34995   1.542  10.930   1.963  0.6112 -0.5822  0.0388
  260MOL0     C34996   1.518  10.978   1.830 -0.2606  0.1988 -0.1499
  260MOL0     C34997   1.592  10.929   1.718  1.1132 -0.3867 -0.2631
  260MOL0     C34998   1.564  10.971   1.587  0.9113 -0.4099  0.0090
  260MOL0     C34999   1.458  11.073   1.574 -0.1234  0.5986 -0.5513
  260MOL0     O35000   1.410  11.125   1.456 -0.9300 -0.5778  0.2337
  260MOL0     C35001   1.414  11.045   1.342 -0.7196  0.6409  0.6181
  260MOL0     C35002   1.375  11.117   1.217 -0.6261 -0.3466  1.0762
  260MOL0     C35003   1.485  11.088   1.116 -0.2345  0.1611  0.9732
  260MOL0     C35004   1.453  11.144   0.975  0.3870  0.1078  0.7648
  260MOL0     C35005   1.562  11.127   0.871  0.1649  0.2007 -0.1677
  260MOL0     C35006   1.528  11.163   0.722 -0.4611 -0.3309 -0.2443
  260MOL0     C35007   1.644  11.104   0.637  0.3019 -0.6824  0.4577
  260MOL0     C35008   1.636  11.110   0.481 -0.5206  0.1459 -0.0866
  260MOL0    Cl35009   1.586  11.281   0.426 -0.5364 -0.2925 -0.1246
  260MOL0     C35010   1.410  11.135   1.690  0.0614  0.4016  0.3571
  260MOL0     C35011   1.435  11.080   1.815  0.5849 -0.5663 -0.6550
  260MOL0     O35012   1.506  10.723   1.875 -0.6028  0.4304 -0.9670
  260MOL0     C35013   1.546  10.823   2.212  0.9736  0.3526 -0.8441
  260MOL0     C35014   1.549  10.764   2.341  0.5255  0.4252  0.5538
  260MOL0     N35015   1.612  10.158   2.391 -0.6992 -0.3640  0.6719
  260MOL0     N35016   1.665  10.161   2.270 -0.2032  0.2941  0.0373
  260MOL0     C35017   1.950   9.447   2.691  0.6255 -0.0996  0.1765
  260MOL0     C35018   1.900   9.356   2.784  1.0773 -1.3737  0.1398
  260MOL0     C35019   1.619   9.180   2.835  0.1756 -0.0309 -0.4372
  260MOL0     C35020   1.515   9.272   2.840  0.4410 -0.3713  0.3128
  260MOL0     C35021   1.426   9.285   2.736 -0.0420  0.1982 -0.8492
  260MOL0     C35022   1.444   9.203   2.621  0.7247 -0.3181 -0.4179
  260MOL0     O35023   1.358   9.196   2.517  0.4373  0.4241 -0.7769
  260MOL0     C35024   1.251   9.293   2.497 -0.5814  0.1154  0.9111
  260MOL0     C35025   1.303   9.374   2.379  0.5072 -0.4708 -0.4262
  260MOL0     C35026   1.340   9.298   2.253  0.1787 -0.7619 -0.9937
  260MOL0     C35027   1.325   9.387   2.132 -0.0836 -0.7356 -0.1953
  260MOL0     C35028   1.393   9.344   2.011  0.2417 -0.5698  0.5483
  260MOL0     C35029   1.455   9.308   1.917  0.5824  0.2753 -0.2629
  260MOL0     C35030   1.537   9.107   2.622 -0.3906  0.0029  0.0918
  260MOL0     C35031   1.626   9.093   2.723  0.3051  1.0963 -0.2874
  260MOL0     C35032   1.726   8.970   2.717  0.7841  0.0475  0.0061
  260MOL0     H35033   1.683   9.534   2.970 -1.7085 -0.4947 -1.6077
  260MOL0     H35034   1.752   9.706   2.825 -3.0467 -2.0682  2.0357
  260MOL0     H35035   1.827   9.838   2.661 -0.3784 -0.2533 -1.6995
  260MOL0     H35036   1.961   9.813   2.766 -0.4048 -0.2835 -0.2213
  260MOL0     H35037   2.120   9.880   2.600 -0.8460 -0.9195  3.3305
  260MOL0     H35038   2.017  10.012   2.624 -0.6186  0.5370 -1.5730
  260MOL0     H35039   1.868   9.994   2.441  1.4236  2.3217 -2.7103
  260MOL0     H35040   1.926   9.828   2.417 -2.4418  0.3433 -0.7515
  260MOL0     H35041   2.048  10.105   2.359  0.7823 -0.6353  1.8788
  260MOL0     H35042   2.152   9.962   2.348  3.1901  2.9103 -3.9000
  260MOL0     H35043   2.038   9.880   2.171 -1.4919 -0.2749 -1.7639
  260MOL0     H35044   1.884   9.961   2.198 -0.0439 -0.7231  1.8569
  260MOL0     H35045   2.134  10.070   2.080  0.6698 -1.2799  2.7075
  260MOL0     H35046   1.978  10.050   2.011 -0.1344  2.8046  0.7120
  260MOL0     H35047   2.059  10.274   2.050  1.3982 -0.9480  0.7205
  260MOL0     H35048   2.045  10.279   2.225  1.7997 -0.3727 -0.3085
  260MOL0     H35049   1.841  10.358   2.112  0.7324  0.2563  0.3817
  260MOL0     H35050   1.804  10.195   2.054 -2.5310 -1.3336  1.3359
  260MOL0     H35051   1.905  10.306   2.406  0.7698  1.3271 -3.9188
  260MOL0     H35052   1.707  10.160   2.670 -1.5453 -0.4458  0.6060
  260MOL0     H35053   1.771  10.330   2.657  1.7557 -1.6489  1.0582
  260MOL0     H35054   1.496  10.315   2.578  0.5616 -2.4729  1.1119
  260MOL0     H35055   1.530  10.274   2.746 -2.4254 -0.3686 -0.2884
  260MOL0     H35056   1.649  10.473   2.775  2.8927  0.5336 -2.5598
  260MOL0     H35057   1.472  10.500   2.731 -1.7534 -5.0623  1.1596
  260MOL0     H35058   1.705  10.519   2.536  0.0371  0.1425  1.1816
  260MOL0     H35059   1.643  10.660   2.613  3.0503  0.7014 -1.7153
  260MOL0     H35060   1.488  10.440   2.265 -0.0612  0.1096  0.8009
  260MOL0     H35061   1.514  10.529   2.045  2.5134  2.3859 -0.5549
  260MOL0     H35062   1.677  10.864   1.736  1.8208  0.4887 -0.4189
  260MOL0     H35063   1.621  10.918   1.510  1.5057  2.4050 -1.6519
  260MOL0     H35064   1.512  10.999   1.323 -1.1922  0.8309 -3.1549
  260MOL0     H35065   1.341  10.964   1.341 -0.1305  0.0686 -1.1166
  260MOL0     H35066   1.285  11.074   1.174  0.8200 -1.6356 -0.7782
  260MOL0     H35067   1.383  11.226   1.231  3.8669 -0.2253 -0.7608
  260MOL0     H35068   1.580  11.130   1.151  0.0693 -1.0912  1.7124
  260MOL0     H35069   1.499  10.980   1.113 -2.4023 -0.1487  0.5824
  260MOL0     H35070   1.436  11.252   0.988 -2.0742  0.2339 -2.4594
  260MOL0     H35071   1.360  11.098   0.940  0.3495  0.2374  0.6925
  260MOL0     H35072   1.588  11.021   0.881  1.2676  0.6545  2.7809
  260MOL0     H35073   1.653  11.180   0.898  1.3907 -0.2505 -3.0339
  260MOL0     H35074   1.435  11.111   0.697  0.2910 -1.3944 -0.9109
  260MOL0     H35075   1.521  11.272   0.714  4.7877  0.3074  0.2849
  260MOL0     H35076   1.659  11.001   0.672 -1.4848 -1.2283 -0.2743
  260MOL0     H35077   1.737  11.155   0.664 -0.1209 -0.3215  1.2553
  260MOL0     H35078   1.734  11.098   0.434  1.0335  4.6220  1.4635
  260MOL0     H35079   1.567  11.030   0.452  2.3475 -3.3544  1.8948
  260MOL0     H35080   1.347  11.223   1.677  0.9583  0.8328 -1.3602
  260MOL0     H35081   1.385  11.128   1.898 -1.7338 -1.8944 -1.2146
  260MOL0     H35082   1.562  10.931   2.211  0.9471  0.3690 -0.0578
  260MOL0     H35083   1.577  10.830   2.423 -0.8881  0.4913  1.0230
  260MOL0     H35084   2.022   9.430   2.611  1.3944  2.4398  0.2403
  260MOL0     H35085   1.948   9.259   2.784 -1.3939 -2.6756  0.8173
  260MOL0     H35086   1.501   9.340   2.924  0.8920  0.9551 -0.6381
  260MOL0     H35087   1.346   9.358   2.744  3.0160  4.1141 -2.3343
  260MOL0     H35088   1.225   9.353   2.585  1.5619 -0.4735  2.0145
  260MOL0     H35089   1.160   9.247   2.458  0.4629 -0.4403 -0.9748
  260MOL0     H35090   1.383   9.441   2.412 -1.0881  0.1730  2.5419
  260MOL0     H35091   1.215   9.435   2.356 -1.3417 -1.4252  3.2803
  260MOL0     H35092   1.269   9.215   2.244 -1.7906  1.0886 -4.0571
  260MOL0     H35093   1.444   9.268   2.270 -0.4635 -3.2889 -1.1338
  260MOL0     H35094   1.219   9.401   2.107  0.6710  2.3416 -2.3262
  260MOL0     H35095   1.358   9.491   2.139  0.2095 -0.6500 -2.2419
  260MOL0     H35096   1.496   9.287   1.821 -1.0526 -1.6642 -0.5960
  260MOL0     H35097   1.548   9.039   2.539 -0.2991 -0.4464  0.4702
  260MOL0     H35098   1.826   9.009   2.741  0.8462 -0.3694  0.4397
  260MOL0     H35099   1.683   8.891   2.779 -3.9939  0.0758 -2.8193
  260MOL0     H35100   1.734   8.935   2.614  2.7578  2.0910 -0.6284
  261MOL0     O35101   9.627   8.221   8.894  0.1150 -0.7152  0.3622
  261MOL0     C35102   9.590   8.287   8.992 -0.3510  0.2706  0.6858
  261MOL0     O35103   9.499   8.384   8.987 -0.4777 -0.1844  0.4344
  261MOL0     C35104   9.445   8.409   8.865  0.0115 -0.2457 -0.4777
  261MOL0     C35105   9.325   8.352   8.830  0.1397  1.0884  0.2555
  261MOL0     C35106   9.263   8.385   8.707  0.1270 -0.1486  0.2500
  261MOL0     C35107   9.315   8.477   8.612 -0.0047 -1.1277 -1.5061
  261MOL0     O35108   9.251   8.519   8.501  0.1666 -0.4348  0.7718
  261MOL0     C35109   9.136   8.437   8.463 -1.2559  0.5340  1.1037
  261MOL0     C35110   9.115   8.468   8.312 -0.8626  0.2748  0.4995
  261MOL0     C35111   9.022   8.366   8.248  0.3289  0.1750  0.9177
  261MOL0     C35112   9.019   8.386   8.099  0.4387  1.1468 -0.0695
  261MOL0     C35113   8.943   8.263   8.035 -0.5829 -0.3826  0.2476
  261MOL0     C35114   8.869   8.295   7.904 -0.2281 -0.3762 -0.0230
  261MOL0     C35115   8.976   8.329   7.791 -0.0271  1.1220 -0.3799
  261MOL0     C35116   8.885   8.352   7.671  0.9007 -0.8032  0.2149
  261MOL0     N35117   8.952   8.313   7.544  0.3223 -0.7387  0.2700
  261MOL0     C35118   8.994   8.174   7.516  0.4004 -0.2875 -0.5982
  261MOL0     C35119   9.056   8.178   7.399 -0.3415 -0.2580 -0.1419
  261MOL0     C35120   9.112   8.080   7.300  1.1121 -0.2903 -0.4914
  261MOL0     C35121   9.000   8.033   7.206 -0.5093  0.0844  0.0130
  261MOL0     C35122   9.028   8.032   7.063  0.3876  0.9214  0.9419
  261MOL0     C35123   9.161   7.963   7.019  0.6234 -0.2357 -0.0853
  261MOL0     O35124   9.183   7.831   7.069 -0.7502 -0.0332 -0.1018
  261MOL0     C35125   9.091   7.732   7.043  0.0410 -0.4419 -0.0989
  261MOL0     C35126   9.105   7.619   7.118 -0.1075  1.1471 -0.9303
  261MOL0     C35127   9.032   7.500   7.083 -0.0522 -0.5895 -0.4307
  261MOL0     C35128   8.945   7.502   6.978 -0.4957  0.8616 -0.3620
  261MOL0     C35129   8.876   7.371   6.923  1.5042 -0.2053 -0.7237
  261MOL0     O35130   8.917   7.256   6.978 -0.6683  0.2357 -0.0411
  261MOL0     C35131   8.861   7.129   6.951  0.2275 -0.3823  0.8621
  261MOL0     C35132   8.947   7.022   6.947 -0.3441 -0.3588 -0.8124
  261MOL0     C35133   8.910   6.887   6.908  0.4065 -0.7356 -0.3996
  261MOL0     C35134   8.778   6.865   6.860  0.1069  0.1402 -0.1396
  261MOL0     O35135   8.733   6.744   6.803 -0.0256  0.9053 -0.2482
  261MOL0     C35136   8.596   6.735   6.794  0.2847  0.2441 -0.7315
  261MOL0     C35137   8.551   6.590   6.784  0.2238  0.0463  0.1881
  261MOL0     C35138   8.401   6.584   6.823 -1.8378 -1.4059  0.7210
  261MOL0     C35139   8.369   6.441   6.802 -0.2809  0.7608  0.1479
  261MOL0     C35140   8.233   6.390   6.859 -0.0542  0.4639 -0.1047
  261MOL0     C35141   8.189   6.272   6.774  0.2487 -0.4349 -0.3291
  261MOL0     C35142   8.058   6.207   6.818  0.5069 -0.2047  0.2696
  261MOL0     C35143   8.045   6.168   6.956 -0.6918  0.0900  0.7011
  261MOL0    Cl35144   8.023   6.302   7.079 -0.0575 -0.5525 -0.0065
  261MOL0     C35145   8.692   6.981   6.857 -0.5354  0.1475 -0.0680
  261MOL0     C35146   8.732   7.104   6.900 -0.7919  0.9660 -0.0634
  261MOL0     O35147   8.803   7.381   6.822 -0.8535  0.7338 -0.1768
  261MOL0     C35148   8.923   7.622   6.906 -0.2983 -0.4554  1.0556
  261MOL0     C35149   8.994   7.735   6.939  0.2391  0.6688 -0.3366
  261MOL0     N35150   9.063   8.310   7.362  0.0100 -0.4153 -0.0282
  261MOL0     N35151   9.008   8.394   7.453 -0.4265 -0.6219 -0.3596
  261MOL0     C35152   9.431   8.540   8.659 -0.5549  1.1255 -0.1454
  261MOL0     C35153   9.504   8.500   8.769 -0.3648 -0.6095 -1.4032
  261MOL0     C35154   9.635   8.248   9.125  0.8207  0.4104 -0.1100
  261MOL0     C35155   9.651   8.353   9.220 -0.4622  0.5896 -0.0077
  261MOL0     C35156   9.708   8.325   9.350 -0.5530  0.8595 -0.4330
  261MOL0     C35157   9.749   8.199   9.383  0.0470  1.7059 -0.6675
  261MOL0     O35158   9.814   8.156   9.494 -0.3222  0.3754 -0.4243
  261MOL0     C35159   9.797   8.243   9.607  0.6924  0.7664  0.1975
  261MOL0     C35160   9.843   8.179   9.739  0.8087  0.0460  0.1336
  261MOL0     C35161   9.991   8.141   9.740  0.6496 -0.6885  0.2220
  261MOL0     C35162  10.069   8.226   9.844  0.1766  0.6185  0.4743
  261MOL0     C35163  10.009   8.221   9.977 -0.4187  0.2245  0.2691
  261MOL0     C35164   9.981   8.206  10.093 -0.5398  1.3113 -0.6676
  261MOL0     C35165   9.740   8.102   9.284  0.0338 -0.0320  0.4205
  261MOL0     C35166   9.684   8.119   9.158 -0.7853 -0.8575 -1.7723
  261MOL0     C35167   9.698   7.987   9.070 -0.9528  0.3789 -0.2834
  261MOL0     H35168   9.274   8.287   8.899 -1.9975  2.5436  0.1375
  261MOL0     H35169   9.166   8.339   8.686 -0.1479  0.8962 -0.9063
  261MOL0     H35170   9.147   8.329   8.479  0.7955  0.8259  1.9881
  261MOL0     H35171   9.040   8.470   8.504 -1.5857 -1.2211  1.8617
  261MOL0     H35172   9.212   8.462   8.263 -0.7720  4.6472 -0.2190
  261MOL0     H35173   9.079   8.569   8.292  1.2858  0.9633 -0.2159
  261MOL0     H35174   8.920   8.385   8.281 -0.9225 -2.2212 -1.1505
  261MOL0     H35175   9.060   8.264   8.264  0.5741  0.0022 -0.6056
  261MOL0     H35176   8.982   8.484   8.070 -0.4667  1.2455  1.3541
  261MOL0     H35177   9.124   8.384   8.065  0.2773  4.0163 -1.0133
  261MOL0     H35178   9.029   8.196   8.022  0.4320  0.2828  2.8982
  261MOL0     H35179   8.874   8.218   8.107 -1.1988 -1.5383 -1.0205
  261MOL0     H35180   8.803   8.209   7.888 -0.3891 -0.2390 -0.1015
  261MOL0     H35181   8.800   8.379   7.915  1.8418  1.4042 -0.2490
  261MOL0     H35182   9.038   8.240   7.774 -1.5257 -0.1684  0.6527
  261MOL0     H35183   9.042   8.411   7.820  1.2800 -0.6303  1.9148
  261MOL0     H35184   8.795   8.290   7.677  0.2942  0.0228 -0.1435
  261MOL0     H35185   8.843   8.453   7.667  2.4665 -0.1600 -1.2346
  261MOL0     H35186   8.958   8.096   7.581 -1.6048 -0.0038 -1.2857
  261MOL0     H35187   9.186   8.133   7.239 -1.1486  4.7689  0.5967
  261MOL0     H35188   9.156   7.993   7.349 -2.0235 -2.1830 -0.7586
  261MOL0     H35189   8.962   7.937   7.239 -0.5109  0.2894  0.6155
  261MOL0     H35190   8.914   8.099   7.221 -0.1353  1.0298 -1.7210
  261MOL0     H35191   9.034   8.138   7.036  3.0101  0.3885 -1.0031
  261MOL0     H35192   8.944   7.994   7.004  1.2934 -2.4030  1.5954
  261MOL0     H35193   9.246   8.026   7.047  0.5630 -1.0137  2.0628
  261MOL0     H35194   9.161   7.952   6.911 -0.0282 -2.3290  0.0757
  261MOL0     H35195   9.187   7.623   7.189  0.6229  1.5075 -1.7687
  261MOL0     H35196   9.056   7.409   7.137 -1.4798 -0.5268  0.3492
  261MOL0     H35197   9.053   7.027   6.970 -0.8899  0.7322  1.8473
  261MOL0     H35198   8.978   6.803   6.913 -2.6258 -3.3152  3.5507
  261MOL0     H35199   8.547   6.770   6.886 -2.0588  0.3946 -1.9703
  261MOL0     H35200   8.551   6.800   6.718 -3.9179 -1.4499  0.0226
  261MOL0     H35201   8.577   6.566   6.680 -2.2983 -2.4472  0.0018
  261MOL0     H35202   8.610   6.521   6.844 -0.9377 -4.7239 -3.5594
  261MOL0     H35203   8.374   6.614   6.924 -3.5568 -1.0719  0.2064
  261MOL0     H35204   8.334   6.639   6.756 -1.0326 -2.9290 -1.4532
  261MOL0     H35205   8.441   6.379   6.856  0.5594  2.0351  0.5223
  261MOL0     H35206   8.372   6.415   6.696 -0.1798 -1.9961  0.7537
  261MOL0     H35207   8.158   6.468   6.846 -1.3860 -0.2531  2.6075
  261MOL0     H35208   8.234   6.351   6.961 -1.6756 -0.4867 -0.4246
  261MOL0     H35209   8.169   6.316   6.676  0.4773 -2.6376 -1.4305
  261MOL0     H35210   8.267   6.197   6.758  1.0914  0.0486  1.2846
  261MOL0     H35211   8.054   6.120   6.753  0.9610  1.5674 -2.2765
  261MOL0     H35212   7.971   6.267   6.789  0.1551  0.5036  2.5144
  261MOL0     H35213   7.955   6.106   6.946  0.4231 -1.1977 -4.9856
  261MOL0     H35214   8.139   6.114   6.969 -0.5445  0.1830  0.0527
  261MOL0     H35215   8.595   6.978   6.810 -1.5345 -4.6763  1.6805
  261MOL0     H35216   8.671   7.193   6.903  2.7157  3.5412  1.3488
  261MOL0     H35217   8.859   7.633   6.818 -3.3502 -1.3194  3.0068
  261MOL0     H35218   8.973   7.822   6.878 -0.1882 -1.0159 -2.7118
  261MOL0     H35219   9.471   8.615   8.592  2.2527  2.5536  2.8487
  261MOL0     H35220   9.598   8.549   8.792 -1.2008  0.9680 -1.2061
  261MOL0     H35221   9.634   8.458   9.197  0.7407  0.9689  0.7601
  261MOL0     H35222   9.729   8.410   9.414  1.8661  0.6292 -0.8492
  261MOL0     H35223   9.691   8.266   9.624  0.3105 -1.6101  1.4233
  261MOL0     H35224   9.860   8.331   9.590  3.0640 -1.0143 -0.8579
  261MOL0     H35225   9.797   8.080   9.737 -1.5476  1.0217 -3.5630
  261MOL0     H35226   9.808   8.243   9.821 -1.4546 -2.8124  1.5927
  261MOL0     H35227  10.040   8.146   9.642 -0.0674 -2.6768 -0.2762
  261MOL0     H35228   9.992   8.038   9.776 -3.4110 -1.4254 -1.2489
  261MOL0     H35229  10.170   8.186   9.846 -0.8417 -2.5099 -2.0886
  261MOL0     H35230  10.075   8.328   9.806  0.8803  0.8036  1.0649
  261MOL0     H35231   9.966   8.186  10.197  0.0546 -0.3507 -0.8666
  261MOL0     H35232   9.789   8.010   9.314  1.2312  0.7015  0.7885
  261MOL0     H35233   9.599   7.951   9.043  0.2177 -3.2082 -0.2188
  261MOL0     H35234   9.756   8.024   8.985 -2.0539  0.4509 -1.0218
  261MOL0     H35235   9.740   7.904   9.128  0.7709  0.1058 -1.8414
  262MOL0     O35236   6.788   6.671  10.700  0.6511  0.4070 -0.2509
  262MOL0     C35237   6.768   6.658  10.578  0.3264  0.3265 -0.1798
  262MOL0     O35238   6.652   6.706  10.507  0.6482 -0.3850  0.5508
  262MOL0     C35239   6.560   6.787  10.569 -0.7923  0.0149 -0.0547
  262MOL0     C35240   6.537   6.913  10.506 -0.6745 -0.2302 -0.5333
  262MOL0     C35241   6.446   7.005  10.558 -0.2696 -0.2097  0.4573
  262MOL0     C35242   6.386   6.981  10.679 -0.0608 -0.0428 -0.2745
  262MOL0     O35243   6.316   7.075  10.740 -0.3818 -0.3788 -0.4185
  262MOL0     C35244   6.181   7.075  10.683  0.4453 -0.9892 -0.3101
  262MOL0     C35245   6.135   7.213  10.722  0.2211  0.5466 -0.8952
  262MOL0     C35246   6.211   7.327  10.655  0.3353  0.0895  0.1228
  262MOL0     C35247   6.217   7.454  10.748  0.0618  0.4115  0.3876
  262MOL0     C35248   6.314   7.548  10.674  1.0114  0.0156 -0.2452
  262MOL0     C35249   6.366   7.666  10.746  0.0655 -0.2871  0.5395
  262MOL0     C35250   6.449   7.764  10.654 -0.6382 -1.0351 -0.1682
  262MOL0     C35251   6.484   7.900  10.743  0.0932  0.0906  0.6019
  262MOL0     N35252   6.364   7.944  10.804  0.0947  0.6249  0.0463
  262MOL0     C35253   6.250   7.985  10.744 -0.0784 -0.4496 -0.0099
  262MOL0     C35254   6.168   8.015  10.845 -1.1949 -0.9958  1.0485
  262MOL0     C35255   6.020   8.043  10.822  0.6257  0.3116  0.5262
  262MOL0     C35256   5.946   8.124  10.929 -0.2112 -0.4187 -0.2793
  262MOL0     C35257   5.793   8.115  10.908  0.5419  0.4277 -0.5605
  262MOL0     C35258   5.722   8.127  11.048 -0.7020  0.1978  0.7318
  262MOL0     O35259   5.745   8.253  11.109 -0.3924 -0.3708 -0.6090
  262MOL0     C35260   5.656   8.278  11.202  0.6230  0.9900 -0.1180
  262MOL0     C35261   5.529   8.331  11.169 -0.0275  0.0887  0.5155
  262MOL0     C35262   5.437   8.363  11.268 -0.9747  0.3610  0.3200
  262MOL0     C35263   5.466   8.339  11.404  0.0916 -0.4713  0.1876
  262MOL0     C35264   5.370   8.364  11.506 -0.4590  0.4178 -0.4162
  262MOL0     O35265   5.374   8.285  11.623  0.0085  0.0386 -0.0015
  262MOL0     C35266   5.270   8.296  11.713 -1.1604  0.3175  0.2139
  262MOL0     C35267   5.135   8.286  11.680  0.2826 -0.4679 -0.3900
  262MOL0     C35268   5.039   8.309  11.783 -0.1847  0.0260 -1.1549
  262MOL0     C35269   5.082   8.335  11.917 -0.2038  0.8128 -1.0725
  262MOL0     O35270   4.989   8.347  12.005  0.2529 -0.3638 -0.0463
  262MOL0     C35271   5.009   8.473  12.081  0.1455  0.1349  0.1535
  262MOL0     C35272   4.871   8.518  12.135  0.1327 -0.5855 -0.2158
  262MOL0     C35273   4.876   8.669  12.155  1.3284  0.1577 -0.3666
  262MOL0     C35274   4.963   8.742  12.253 -0.7393  0.3946  0.5677
  262MOL0     C35275   4.925   8.891  12.271  0.6598 -0.2062 -0.0258
  262MOL0     C35276   5.024   8.961  12.371  0.3853  0.3041  0.0104
  262MOL0     C35277   4.982   9.100  12.402  1.4744  0.3204  0.5533
  262MOL0     C35278   5.093   9.182  12.456 -1.3698  0.4499  0.0349
  262MOL0    Cl35279   5.222   9.197  12.336  0.4011 -0.0059  0.1791
  262MOL0     C35280   5.217   8.342  11.944 -0.0315 -0.1629 -0.5518
  262MOL0     C35281   5.307   8.327  11.838 -0.2037 -0.1312 -0.1302
  262MOL0     O35282   5.287   8.458  11.482  0.3657  0.0942 -0.9334
  262MOL0     C35283   5.590   8.268  11.437 -0.4006  0.0939  1.2406
  262MOL0     C35284   5.687   8.254  11.334  0.2222 -0.9253  0.1954
  262MOL0     N35285   6.230   8.002  10.966  0.0801 -0.9485 -0.8096
  262MOL0     N35286   6.339   7.932  10.939  1.0372 -0.1551  0.4115
  262MOL0     C35287   6.403   6.857  10.745 -0.8100  1.0551 -0.9163
  262MOL0     C35288   6.480   6.755  10.688  0.0459  0.0163 -0.6393
  262MOL0     C35289   6.862   6.588  10.489 -0.2895 -0.2907 -1.5430
  262MOL0     C35290   6.828   6.577  10.352  0.0658 -0.0663 -0.2313
  262MOL0     C35291   6.921   6.515  10.264 -0.3397  0.1062  0.5800
  262MOL0     C35292   7.050   6.488  10.305 -0.0213 -0.1450  0.1965
  262MOL0     O35293   7.155   6.429  10.235  0.1194 -0.1104 -0.0353
  262MOL0     C35294   7.134   6.376  10.109 -0.3566 -0.0499 -0.5116
  262MOL0     C35295   7.242   6.271  10.078 -0.7765 -0.0254 -0.3076
  262MOL0     C35296   7.249   6.124  10.144  0.8940 -0.0512  0.2645
  262MOL0     C35297   7.111   6.054  10.158 -0.0759  0.9334  0.0515
  262MOL0     C35298   7.059   5.991  10.038  0.2981  0.3006 -0.2158
  262MOL0     C35299   7.038   5.935   9.926  0.1430 -0.4810 -1.0754
  262MOL0     C35300   7.082   6.509  10.438 -0.5100 -0.6528  0.6898
  262MOL0     C35301   6.995   6.566  10.528  0.0439 -1.5230 -0.0675
  262MOL0     C35302   7.047   6.591  10.670  0.1673 -0.0054 -0.1631
  262MOL0     H35303   6.606   6.936  10.426  0.0327 -3.6853 -1.0901
  262MOL0     H35304   6.436   7.105  10.517 -4.2766 -0.4588  0.4235
  262MOL0     H35305   6.196   7.066  10.575  3.8296  0.1385 -0.0698
  262MOL0     H35306   6.116   6.998  10.725  0.4003  0.4825  2.6023
  262MOL0     H35307   6.119   7.233  10.828 -0.7341 -2.4321 -0.3911
  262MOL0     H35308   6.034   7.213  10.681  0.1254  2.5574 -0.7466
  262MOL0     H35309   6.155   7.349  10.564  0.2729 -1.4008 -0.2346
  262MOL0     H35310   6.310   7.284  10.633  0.3094  0.3864 -0.6046
  262MOL0     H35311   6.122   7.504  10.768  0.6703  0.5810  3.2913
  262MOL0     H35312   6.263   7.437  10.846  1.6660  0.2510 -0.3501
  262MOL0     H35313   6.400   7.486  10.645  0.9114 -1.6481  2.6514
  262MOL0     H35314   6.257   7.587  10.590 -1.1457 -1.5399  0.4186
  262MOL0     H35315   6.275   7.719  10.778 -1.2937 -0.3154 -2.7909
  262MOL0     H35316   6.433   7.634  10.825 -0.2723  2.7798  2.2099
  262MOL0     H35317   6.397   7.794  10.563  2.2077 -0.0275 -1.5762
  262MOL0     H35318   6.545   7.719  10.625 -0.5207 -0.9215  0.0394
  262MOL0     H35319   6.564   7.888  10.816  0.7554 -0.1596 -0.1526
  262MOL0     H35320   6.518   7.977  10.673  0.8463 -0.3571  0.4623
  262MOL0     H35321   6.220   7.981  10.639 -0.2238 -0.3272  0.0268
  262MOL0     H35322   6.014   8.110  10.735  1.4827 -1.3131 -0.8334
  262MOL0     H35323   5.968   7.948  10.806 -1.9345  1.4427  1.5066
  262MOL0     H35324   5.966   8.083  11.028  1.0640  1.9737  0.5206
  262MOL0     H35325   5.983   8.226  10.943 -0.3451 -0.4233  0.1282
  262MOL0     H35326   5.763   8.022  10.859  1.7477 -2.1998  3.2207
  262MOL0     H35327   5.758   8.201  10.851 -1.9996 -0.0665  0.1164
  262MOL0     H35328   5.755   8.055  11.124 -1.5626  1.9673  2.8781
  262MOL0     H35329   5.614   8.116  11.036 -0.5821  0.2043 -0.3951
  262MOL0     H35330   5.518   8.359  11.065  2.5472 -1.1300 -0.1488
  262MOL0     H35331   5.352   8.418  11.229  1.1721  2.5459 -1.5907
  262MOL0     H35332   5.096   8.268  11.580  1.0255  4.0810 -1.6878
  262MOL0     H35333   4.936   8.307  11.749 -0.6315  3.0830 -0.3129
  262MOL0     H35334   5.079   8.454  12.163  1.8135  0.4414 -1.1435
  262MOL0     H35335   5.060   8.551  12.023  1.0537 -0.9527 -0.5746
  262MOL0     H35336   4.801   8.486  12.057  2.9687 -4.2068 -1.5085
  262MOL0     H35337   4.836   8.462  12.222 -0.4640  3.2836  2.2977
  262MOL0     H35338   4.884   8.720  12.058  0.8056 -0.9365 -0.9940
  262MOL0     H35339   4.778   8.683  12.201  2.6283 -1.5703  3.2324
  262MOL0     H35340   5.064   8.746  12.210 -1.7608 -1.0975 -2.2923
  262MOL0     H35341   4.963   8.682  12.344  0.2495  0.6894  0.7745
  262MOL0     H35342   4.824   8.893  12.312  1.4458  0.6165  1.9829
  262MOL0     H35343   4.924   8.938  12.172 -0.2132 -3.8782 -1.9414
  262MOL0     H35344   5.029   8.904  12.463  3.7286 -2.5256 -1.7085
  262MOL0     H35345   5.121   8.961  12.321 -0.6424  0.6513 -2.1033
  262MOL0     H35346   4.903   9.114  12.477 -0.5782  1.9823 -1.7649
  262MOL0     H35347   4.945   9.154  12.314  1.7954  1.6763  1.2118
  262MOL0     H35348   5.052   9.278  12.491 -1.1592  1.0795 -1.3836
  262MOL0     H35349   5.141   9.140  12.545  1.1484 -2.8580 -2.6031
  262MOL0     H35350   5.255   8.362  12.044 -1.6477  2.8237 -0.3990
  262MOL0     H35351   5.409   8.324  11.874 -0.9011 -2.5149  1.8656
  262MOL0     H35352   5.601   8.240  11.541 -1.0856 -0.2332  1.2316
  262MOL0     H35353   5.787   8.216  11.354  0.8973  0.6209 -0.0241
  262MOL0     H35354   6.362   6.843  10.844 -0.0825  4.3038 -0.0128
  262MOL0     H35355   6.495   6.656  10.729  0.3427  0.4838  0.4020
  262MOL0     H35356   6.730   6.605  10.313 -0.1314 -0.4679 -0.0306
  262MOL0     H35357   6.886   6.511  10.161  0.8584  1.6689  0.0722
  262MOL0     H35358   7.142   6.454  10.032  2.2882 -0.2082 -0.4925
  262MOL0     H35359   7.033   6.334  10.098 -1.4889  2.5272 -0.7348
  262MOL0     H35360   7.344   6.309  10.088 -0.2535  0.6233 -5.5826
  262MOL0     H35361   7.228   6.258   9.971 -1.6087  2.4803 -0.5697
  262MOL0     H35362   7.296   6.146  10.241  0.9327  1.6925 -0.1169
  262MOL0     H35363   7.320   6.070  10.082 -0.1128 -0.3275 -0.6760
  262MOL0     H35364   7.115   5.968  10.226 -0.7153 -0.0840 -1.1508
  262MOL0     H35365   7.042   6.130  10.197 -1.6845 -1.4748  2.3251
  262MOL0     H35366   7.038   5.872   9.839 -2.0671 -1.5864 -0.3698
  262MOL0     H35367   7.180   6.468  10.459 -1.1881 -1.5987  2.1788
  262MOL0     H35368   7.025   6.691  10.709 -3.4863 -0.0096 -1.8135
  262MOL0     H35369   6.998   6.522  10.738 -0.1466 -0.8568 -1.2208
  262MOL0     H35370   7.155   6.576  10.680  0.1326 -0.7304 -0.8179
  263MOL0     O35371   2.880   6.408   2.118 -0.0301  0.2974 -0.3931
  263MOL0     C35372   2.964   6.313   2.111 -0.0742 -0.5141 -0.2158
  263MOL0     O35373   2.930   6.178   2.141 -0.7680  0.5249  0.4532
  263MOL0     C35374   2.809   6.161   2.199 -0.0141  0.3090 -1.2482
  263MOL0     C35375   2.696   6.133   2.115 -0.4999  0.7635 -0.3418
  263MOL0     C35376   2.571   6.126   2.172  0.2448  0.6170  0.3555
  263MOL0     C35377   2.551   6.134   2.311  0.4280 -0.5515  0.2047
  263MOL0     O35378   2.434   6.092   2.358  0.3207 -0.6447 -0.7312
  263MOL0     C35379   2.406   6.146   2.489 -0.5781  0.1885  0.8378
  263MOL0     C35380   2.283   6.080   2.537  0.3597  0.1725  0.0059
  263MOL0     C35381   2.288   6.074   2.690  0.5741  0.2798 -0.3677
  263MOL0     C35382   2.167   5.992   2.738  0.7086  0.0847 -0.2795
  263MOL0     C35383   2.039   6.081   2.761  0.3496  1.0025  0.3318
  263MOL0     C35384   1.919   5.999   2.807 -0.1110 -0.5208  0.6873
  263MOL0     C35385   1.901   6.015   2.955 -0.3831  0.8118 -1.1505
  263MOL0     C35386   2.027   5.963   3.038  0.2581 -0.5393 -0.5897
  263MOL0     N35387   1.994   5.979   3.181 -0.5037  0.7351 -0.2017
  263MOL0     C35388   1.977   6.094   3.241 -0.3558  0.3614 -0.1347
  263MOL0     C35389   1.978   6.059   3.376 -0.0172 -0.8548 -0.1475
  263MOL0     C35390   1.931   6.145   3.489 -0.4452  0.5467  0.3772
  263MOL0     C35391   1.782   6.167   3.467  0.6001  0.5500 -0.5134
  263MOL0     C35392   1.679   6.054   3.471  0.5517  0.3726 -0.6607
  263MOL0     C35393   1.691   5.989   3.605 -0.2050 -0.4860 -0.8060
  263MOL0     O35394   1.585   5.891   3.625  0.4756  0.5243  0.1486
  263MOL0     C35395   1.603   5.789   3.711 -0.4224 -0.6926 -0.8432
  263MOL0     C35396   1.521   5.678   3.701  0.2345  0.7790  1.5634
  263MOL0     C35397   1.538   5.559   3.775  1.3054  0.6178 -0.3621
  263MOL0     C35398   1.650   5.556   3.859  0.0770  0.1838 -0.6927
  263MOL0     C35399   1.670   5.436   3.938 -0.2747  0.0641 -0.2465
  263MOL0     O35400   1.805   5.391   3.966  0.2396 -0.0378 -0.1660
  263MOL0     C35401   1.837   5.295   4.059 -0.5722 -1.0739 -0.6433
  263MOL0     C35402   1.970   5.259   4.037 -0.0414 -0.0983  0.0384
  263MOL0     C35403   2.013   5.137   4.095  0.2166 -0.7682 -0.8502
  263MOL0     C35404   1.937   5.060   4.187 -0.2818  0.6490 -0.0281
  263MOL0     O35405   1.975   4.940   4.250  0.4753  0.3059 -0.3472
  263MOL0     C35406   2.094   4.875   4.205 -0.3338 -0.4162  0.4098
  263MOL0     C35407   2.102   4.736   4.265 -0.5828  0.3200 -0.5825
  263MOL0     C35408   2.246   4.673   4.238  0.2068  0.7461 -0.4051
  263MOL0     C35409   2.365   4.769   4.249  0.1926 -0.2202  0.1827
  263MOL0     C35410   2.496   4.698   4.233 -0.9616 -0.1131 -0.1825
  263MOL0     C35411   2.540   4.626   4.104  0.7008  0.2066  0.4472
  263MOL0     C35412   2.676   4.549   4.137  0.1585 -0.3652 -0.0216
  263MOL0     C35413   2.746   4.480   4.022  0.5915  0.2727 -0.2803
  263MOL0    Cl35414   2.770   4.613   3.898  0.0844  0.2960  0.0092
  263MOL0     C35415   1.808   5.115   4.214  0.1710  0.6092  0.9640
  263MOL0     C35416   1.754   5.228   4.144 -0.4656 -0.6059 -0.5484
  263MOL0     O35417   1.568   5.376   3.974 -0.7706 -0.8367 -0.0141
  263MOL0     C35418   1.720   5.674   3.884  1.0683  0.2120  0.3175
  263MOL0     C35419   1.694   5.799   3.816  0.8182  0.7780  0.1662
  263MOL0     N35420   2.013   5.927   3.383  0.5433  0.0662 -0.8299
  263MOL0     N35421   2.015   5.877   3.270 -0.6035  0.1544  1.1917
  263MOL0     C35422   2.669   6.162   2.385  0.4975 -0.2426 -0.5071
  263MOL0     C35423   2.796   6.188   2.330  0.0406  0.0978  0.0916
  263MOL0     C35424   3.104   6.338   2.080  0.3308 -0.1133 -0.2248
  263MOL0     C35425   3.188   6.407   2.165  0.1114  0.2183 -0.0831
  263MOL0     C35426   3.319   6.444   2.127  0.4031  0.9476 -0.3473
  263MOL0     C35427   3.384   6.381   2.018  0.7051  0.1606  0.8463
  263MOL0     O35428   3.510   6.426   1.993 -0.4313  0.2259 -0.6316
  263MOL0     C35429   3.590   6.315   1.949 -0.0775 -0.3730 -0.0046
  263MOL0     C35430   3.728   6.358   1.909 -0.5720 -0.3302  0.2125
  263MOL0     C35431   3.810   6.226   1.890 -0.0043 -0.3833 -0.0972
  263MOL0     C35432   3.952   6.273   1.858  0.5895 -0.1817  0.1891
  263MOL0     C35433   4.043   6.160   1.847 -0.2993 -0.1730  0.7795
  263MOL0     C35434   4.093   6.054   1.840 -0.4340  0.0684 -0.1455
  263MOL0     C35435   3.303   6.285   1.939 -0.0786 -0.2998  0.1123
  263MOL0     C35436   3.163   6.278   1.968  0.6250  0.1773  0.3519
  263MOL0     C35437   3.079   6.197   1.872 -0.2753 -0.1089  0.1524
  263MOL0     H35438   2.716   6.130   2.009  1.5941 -1.1539  0.0379
  263MOL0     H35439   2.484   6.098   2.113  1.2298 -0.3279 -0.7046
  263MOL0     H35440   2.490   6.129   2.557  1.8802  0.9232 -1.8145
  263MOL0     H35441   2.396   6.255   2.493 -0.1940  0.4365 -2.2822
  263MOL0     H35442   2.270   5.982   2.490  1.3233  0.8911 -1.8597
  263MOL0     H35443   2.205   6.141   2.492 -0.2306  0.1543  0.9645
  263MOL0     H35444   2.283   6.170   2.743 -2.0930 -1.3903  2.7506
  263MOL0     H35445   2.380   6.019   2.713 -0.6809 -1.2648  1.2369
  263MOL0     H35446   2.148   5.912   2.665  0.1888  1.7151 -2.0322
  263MOL0     H35447   2.183   5.941   2.833 -1.6705  0.0259  0.1583
  263MOL0     H35448   2.071   6.165   2.824  3.7539 -0.4901  0.8453
  263MOL0     H35449   2.010   6.122   2.664 -0.0699 -1.4804 -0.6654
  263MOL0     H35450   1.829   6.025   2.752 -0.4078 -0.5420  1.1539
  263MOL0     H35451   1.946   5.893   2.799 -0.9090 -0.8917  2.4349
  263MOL0     H35452   1.829   5.939   2.987  1.4818 -1.1079 -1.3332
  263MOL0     H35453   1.876   6.117   2.987  2.4007 -0.2963  7.1419
  263MOL0     H35454   2.036   5.856   3.016 -2.2942 -1.3788  1.9139
  263MOL0     H35455   2.118   6.021   3.018 -0.0452  0.5562  1.0411
  263MOL0     H35456   1.955   6.187   3.189 -0.1970 -0.3080 -1.4507
  263MOL0     H35457   1.959   6.090   3.579 -0.2785  1.5992  0.9823
  263MOL0     H35458   1.992   6.235   3.481  1.6707 -0.8653 -0.4313
  263MOL0     H35459   1.738   6.238   3.537 -0.4992  0.7459 -1.3597
  263MOL0     H35460   1.770   6.221   3.372  1.0764 -1.4213 -1.7523
  263MOL0     H35461   1.683   5.985   3.387 -2.5789 -2.0660  0.9286
  263MOL0     H35462   1.581   6.103   3.463  1.7205  3.1990  0.8040
  263MOL0     H35463   1.680   6.062   3.685  1.1556 -1.2617  0.1328
  263MOL0     H35464   1.792   5.948   3.614 -0.8878 -2.2121 -0.4631
  263MOL0     H35465   1.444   5.655   3.629  0.4724 -0.3709  1.6540
  263MOL0     H35466   1.470   5.477   3.757 -0.1136  1.2401  1.7638
  263MOL0     H35467   2.023   5.307   3.956 -1.9538 -1.0607 -1.8729
  263MOL0     H35468   2.110   5.107   4.058  0.2664 -1.5013 -0.1569
  263MOL0     H35469   2.096   4.866   4.096  0.8385  0.5798  0.3236
  263MOL0     H35470   2.170   4.947   4.237 -2.7399  0.4992  4.9010
  263MOL0     H35471   2.077   4.730   4.372  3.1122 -2.9808  0.3011
  263MOL0     H35472   2.021   4.678   4.219 -1.8298  1.4037  0.1678
  263MOL0     H35473   2.280   4.603   4.315  1.4650  0.1783 -1.4442
  263MOL0     H35474   2.234   4.628   4.139 -3.0196 -1.3450  0.7732
  263MOL0     H35475   2.352   4.835   4.335 -0.7666  2.5335 -1.9039
  263MOL0     H35476   2.353   4.827   4.157 -0.7453  0.2361  0.5716
  263MOL0     H35477   2.494   4.620   4.310  1.2304 -1.3153 -1.2608
  263MOL0     H35478   2.581   4.764   4.251 -1.9100  1.2698 -0.6016
  263MOL0     H35479   2.470   4.544   4.089  0.8234 -0.0712  1.3425
  263MOL0     H35480   2.551   4.706   4.029 -1.8298  1.4285  1.2893
  263MOL0     H35481   2.678   4.473   4.215 -2.5851 -1.2445 -0.7228
  263MOL0     H35482   2.744   4.629   4.168  1.6483 -1.3575 -0.6395
  263MOL0     H35483   2.832   4.424   4.059 -2.0472 -3.0922  1.4172
  263MOL0     H35484   2.684   4.394   3.993 -1.9986  1.6421  0.7777
  263MOL0     H35485   1.750   5.069   4.293 -0.5453 -0.8425 -0.3637
  263MOL0     H35486   1.659   5.278   4.154  0.1151  0.5706 -0.6849
  263MOL0     H35487   1.801   5.676   3.957  0.8378 -0.5928  0.5977
  263MOL0     H35488   1.766   5.878   3.833  0.6027  1.5639 -2.2555
  263MOL0     H35489   2.671   6.166   2.493 -1.6844  0.2552 -0.4312
  263MOL0     H35490   2.878   6.211   2.398  1.0452 -2.9309  0.0725
  263MOL0     H35491   3.142   6.451   2.253 -3.7993  1.6240 -2.5516
  263MOL0     H35492   3.383   6.513   2.181 -0.5311  0.7715  1.0249
  263MOL0     H35493   3.548   6.264   1.862 -3.2736  1.6484  0.1983
  263MOL0     H35494   3.580   6.253   2.039 -1.3191  2.3919  1.9444
  263MOL0     H35495   3.768   6.418   1.991  2.9104 -1.0382 -0.8213
  263MOL0     H35496   3.718   6.419   1.819 -4.0129 -2.6327 -1.1575
  263MOL0     H35497   3.773   6.178   1.799 -0.3467  2.9384 -1.8399
  263MOL0     H35498   3.814   6.153   1.972 -0.8417  1.9411  2.1166
  263MOL0     H35499   3.954   6.318   1.759  2.6657  1.3585  0.8554
  263MOL0     H35500   3.982   6.355   1.925 -1.8173  1.4228 -0.5804
  263MOL0     H35501   4.140   5.958   1.833  0.8986  0.5438  1.6945
  263MOL0     H35502   3.347   6.238   1.851 -0.0032  1.0632 -0.5954
  263MOL0     H35503   3.070   6.093   1.904 -1.1627  0.6526  2.5218
  263MOL0     H35504   2.979   6.235   1.851 -0.0650  1.5716  1.9404
  263MOL0     H35505   3.124   6.192   1.772 -0.4760 -3.2830  0.1330
  264MOL0     O35506   4.643   2.079   4.166  0.0146  0.0950  0.8348
  264MOL0     C35507   4.694   2.189   4.180 -0.8083  0.8296  0.2710
  264MOL0     O35508   4.694   2.264   4.291 -0.4403  0.5837  0.6940
  264MOL0     C35509   4.621   2.226   4.397  0.1855 -0.0685  0.2284
  264MOL0     C35510   4.667   2.122   4.475  0.3527  0.3083  0.6548
  264MOL0     C35511   4.594   2.079   4.581  1.0923  0.3078  0.0823
  264MOL0     C35512   4.487   2.157   4.629 -0.0082  0.1757  0.6690
  264MOL0     O35513   4.444   2.134   4.753  0.3504  0.1579  0.1011
  264MOL0     C35514   4.323   2.206   4.797 -0.0507  0.3543 -0.4717
  264MOL0     C35515   4.288   2.158   4.936  0.3072 -0.4954 -0.3566
  264MOL0     C35516   4.354   2.245   5.048 -0.8060 -0.0557  0.4645
  264MOL0     C35517   4.308   2.186   5.184 -1.0120 -0.0300  1.1236
  264MOL0     C35518   4.359   2.277   5.296 -0.3995  0.5978 -0.5014
  264MOL0     C35519   4.319   2.213   5.423  0.0315 -0.7563  0.6656
  264MOL0     C35520   4.361   2.303   5.542  0.6105  0.1359  0.4156
  264MOL0     C35521   4.513   2.303   5.591  0.9296  0.4878 -0.3381
  264MOL0     N35522   4.589   2.175   5.602 -0.0983  0.8434  0.7429
  264MOL0     C35523   4.564   2.081   5.702 -0.1586 -0.3385 -0.7914
  264MOL0     C35524   4.590   1.963   5.649 -0.3808 -1.7177  0.6026
  264MOL0     C35525   4.581   1.834   5.720  0.1436  0.0684 -0.3242
  264MOL0     C35526   4.717   1.778   5.779  0.3028 -0.2169  0.7234
  264MOL0     C35527   4.749   1.638   5.735  0.6037  0.3988  1.0510
  264MOL0     C35528   4.877   1.586   5.803  0.0509 -0.7252 -0.6658
  264MOL0     O35529   4.873   1.442   5.781  0.5296  0.1031  0.2433
  264MOL0     C35530   4.985   1.360   5.760  1.2586 -0.5209  0.0121
  264MOL0     C35531   5.112   1.410   5.800  0.5668  0.9130 -0.1350
  264MOL0     C35532   5.222   1.325   5.790 -0.1515  0.8555 -0.3603
  264MOL0     C35533   5.228   1.186   5.758 -0.1152  0.6452  0.4166
  264MOL0     C35534   5.352   1.100   5.757 -0.5871 -0.8498  0.1925
  264MOL0     O35535   5.342   0.972   5.802  1.2641  0.4985  0.0290
  264MOL0     C35536   5.454   0.906   5.834  0.1204 -1.0902  0.3280
  264MOL0     C35537   5.504   0.898   5.966  0.2254  0.0980 -0.4661
  264MOL0     C35538   5.620   0.836   5.987 -0.4979  0.4168 -0.7785
  264MOL0     C35539   5.696   0.775   5.876 -0.0365 -1.1386 -0.0565
  264MOL0     O35540   5.820   0.726   5.876  0.0683 -0.2522  0.0193
  264MOL0     C35541   5.873   0.689   6.001 -0.7235  0.7862  0.4339
  264MOL0     C35542   6.016   0.640   6.003  0.0506 -0.2739  1.1155
  264MOL0     C35543   6.048   0.547   5.879  0.0384  0.2643  0.7135
  264MOL0     C35544   6.190   0.479   5.858  0.6923 -0.4779 -0.3927
  264MOL0     C35545   6.231   0.453   5.706  0.1452  0.5001 -0.6685
  264MOL0     C35546   6.164   0.327   5.637 -0.8570 -0.0342  0.1311
  264MOL0     C35547   6.234   0.302   5.505  0.2010  0.0369 -0.4748
  264MOL0     C35548   6.163   0.193   5.427  0.2077  0.1184 -1.3058
  264MOL0    Cl35549   6.204   0.215   5.249 -0.0161  0.1999 -0.2906
  264MOL0     C35550   5.647   0.782   5.743 -0.1709 -0.6117  0.9798
  264MOL0     C35551   5.524   0.849   5.726  0.2265 -0.9589  0.8544
  264MOL0     O35552   5.449   1.141   5.696  0.3363 -0.7322 -0.2495
  264MOL0     C35553   5.102   1.138   5.732  0.6950 -0.3587  0.2950
  264MOL0     C35554   4.985   1.225   5.725  0.6020 -0.4570 -0.3854
  264MOL0     N35555   4.639   1.979   5.523 -0.1018 -0.2345 -0.0469
  264MOL0     N35556   4.631   2.104   5.495  0.5130 -0.5825  0.2715
  264MOL0     C35557   4.439   2.265   4.549 -0.3014 -0.9979 -0.1235
  264MOL0     C35558   4.507   2.295   4.430  0.3318 -0.7678 -0.6717
  264MOL0     C35559   4.756   2.239   4.054  0.3273 -0.0588 -1.2080
  264MOL0     C35560   4.780   2.376   4.051  0.5725  0.2771 -0.1793
  264MOL0     C35561   4.846   2.436   3.948  0.6135  0.1691  0.2854
  264MOL0     C35562   4.896   2.362   3.842 -0.1864 -0.3075 -0.3109
  264MOL0     O35563   4.964   2.427   3.744 -0.4026  0.2531 -0.3864
  264MOL0     C35564   5.047   2.345   3.654  0.8407 -0.2715  1.2629
  264MOL0     C35565   5.123   2.451   3.572 -0.6541  0.0241 -1.2645
  264MOL0     C35566   5.247   2.510   3.648 -0.0068 -0.2553  0.3398
  264MOL0     C35567   5.296   2.634   3.576 -0.3443  0.5039 -0.4370
  264MOL0     C35568   5.391   2.703   3.660 -0.1095 -0.3134  0.1699
  264MOL0     C35569   5.465   2.762   3.733  0.1176  0.9052  0.4949
  264MOL0     C35570   4.876   2.225   3.848  1.1580  0.7485  0.7916
  264MOL0     C35571   4.806   2.157   3.953 -0.8777  0.8372  0.3022
  264MOL0     C35572   4.775   2.012   3.933 -0.0900 -0.3764  0.3789
  264MOL0     H35573   4.741   2.055   4.433 -1.5435 -1.2836 -0.2950
  264MOL0     H35574   4.630   2.000   4.646 -0.9752 -1.7399 -1.1047
  264MOL0     H35575   4.341   2.314   4.795  2.4620  0.0567  1.5446
  264MOL0     H35576   4.232   2.186   4.739 -0.4661 -1.5081  0.7593
  264MOL0     H35577   4.303   2.050   4.933  0.2041 -0.5908  1.4803
  264MOL0     H35578   4.180   2.167   4.953 -0.0202 -2.6519 -1.0219
  264MOL0     H35579   4.325   2.349   5.033  0.7499  0.4879  0.9713
  264MOL0     H35580   4.461   2.223   5.050 -0.7790 -0.9878 -3.3492
  264MOL0     H35581   4.199   2.186   5.193 -1.2228 -0.6844 -0.7798
  264MOL0     H35582   4.354   2.087   5.184 -0.4475 -0.0866 -4.5875
  264MOL0     H35583   4.466   2.300   5.289 -0.1592 -0.7752 -1.9238
  264MOL0     H35584   4.310   2.372   5.273 -0.2745  0.7610 -0.1036
  264MOL0     H35585   4.212   2.193   5.426  0.0593 -1.0110  0.1511
  264MOL0     H35586   4.370   2.116   5.430 -0.6375 -1.1051  0.7953
  264MOL0     H35587   4.301   2.277   5.630 -1.1786  0.4585 -0.6439
  264MOL0     H35588   4.347   2.407   5.510  3.3116 -0.3676 -2.9971
  264MOL0     H35589   4.564   2.368   5.519  1.9417 -0.8689 -0.8961
  264MOL0     H35590   4.508   2.347   5.691 -0.8191  0.0864 -0.2105
  264MOL0     H35591   4.517   2.107   5.796  0.9837 -0.7505 -0.0943
  264MOL0     H35592   4.529   1.853   5.814 -0.1257  0.0541 -0.4677
  264MOL0     H35593   4.517   1.761   5.669  0.3093 -0.8817  0.8059
  264MOL0     H35594   4.798   1.840   5.739  0.0183  0.8899  1.8485
  264MOL0     H35595   4.729   1.787   5.887 -0.0732 -0.2802  0.7705
  264MOL0     H35596   4.762   1.618   5.628 -2.7606 -1.9695  0.9566
  264MOL0     H35597   4.664   1.573   5.757  1.1762 -2.9456 -4.5642
  264MOL0     H35598   4.867   1.602   5.911  0.5255 -4.5216  0.0745
  264MOL0     H35599   4.970   1.635   5.771  0.6049  0.9387  2.9503
  264MOL0     H35600   5.118   1.510   5.841 -1.0942  1.1792 -0.4645
  264MOL0     H35601   5.310   1.379   5.823  0.1393 -0.1995  0.6441
  264MOL0     H35602   5.447   0.946   6.045 -0.3525 -0.7307 -0.3677
  264MOL0     H35603   5.658   0.821   6.087 -1.0527 -1.2748 -0.7823
  264MOL0     H35604   5.878   0.777   6.066 -0.7592  1.8084 -0.9185
  264MOL0     H35605   5.820   0.600   6.035 -0.2123 -0.3510 -1.5658
  264MOL0     H35606   6.090   0.721   5.993  0.9720 -0.9319  2.2813
  264MOL0     H35607   6.036   0.600   6.103  0.0407  0.4855  1.4310
  264MOL0     H35608   5.971   0.473   5.860  1.0488 -0.9086  1.0684
  264MOL0     H35609   6.042   0.603   5.785  0.6319 -1.5011 -0.4242
  264MOL0     H35610   6.192   0.388   5.918  1.1491 -0.2067  0.0120
  264MOL0     H35611   6.264   0.552   5.892  0.6687 -0.7788  0.3137
  264MOL0     H35612   6.340   0.450   5.694  0.4329  1.9826  1.1467
  264MOL0     H35613   6.196   0.539   5.648 -0.2377  1.8544  1.4388
  264MOL0     H35614   6.166   0.242   5.707 -5.3148 -1.7694 -1.5027
  264MOL0     H35615   6.057   0.342   5.623 -1.3429 -1.6859  1.6036
  264MOL0     H35616   6.338   0.290   5.536  0.2710  1.6192  0.0203
  264MOL0     H35617   6.238   0.398   5.453  2.3069  1.2475  1.7446
  264MOL0     H35618   6.186   0.094   5.467 -2.7779  0.4685  1.7039
  264MOL0     H35619   6.054   0.192   5.441  0.5228 -1.3437  1.7170
  264MOL0     H35620   5.711   0.742   5.666  2.3163  3.7517  0.3983
  264MOL0     H35621   5.466   0.849   5.635 -0.2697 -3.1829  1.1111
  264MOL0     H35622   5.086   1.031   5.725 -0.2066 -0.3107  1.2641
  264MOL0     H35623   4.891   1.180   5.696  0.9197  0.1845 -2.6237
  264MOL0     H35624   4.353   2.328   4.572 -1.6276 -1.9398 -2.2198
  264MOL0     H35625   4.467   2.379   4.374 -0.9474 -0.4101  0.7454
  264MOL0     H35626   4.729   2.437   4.125 -0.3889  1.3028 -1.6256
  264MOL0     H35627   4.857   2.544   3.948 -0.3657  0.4450 -3.9742
  264MOL0     H35628   4.993   2.274   3.591  0.0185 -0.2216  1.8930
  264MOL0     H35629   5.130   2.294   3.705  0.4624 -2.3533 -0.1041
  264MOL0     H35630   5.057   2.532   3.541 -0.4374  0.2648 -1.0999
  264MOL0     H35631   5.158   2.403   3.480  1.7576 -3.9947  1.4127
  264MOL0     H35632   5.327   2.436   3.657  2.1673  1.8110 -0.8731
  264MOL0     H35633   5.227   2.530   3.754  0.0971 -2.4932  0.8276
  264MOL0     H35634   5.346   2.609   3.482  2.3725  0.7952  0.8336
  264MOL0     H35635   5.212   2.697   3.546  0.5904  2.3259  0.6049
  264MOL0     H35636   5.536   2.804   3.800  2.0101 -1.1431 -0.1068
  264MOL0     H35637   4.914   2.156   3.774  1.1242  0.0589  1.4135
  264MOL0     H35638   4.819   1.968   3.843 -1.1283  0.1545 -0.4124
  264MOL0     H35639   4.806   1.971   4.030 -2.9664  0.8544  1.9430
  264MOL0     H35640   4.670   1.990   3.913  0.3677 -2.9773  0.4790
  265MOL0     O35641   4.107   5.096   0.574 -0.3367  0.5396  0.5315
  265MOL0     C35642   4.045   5.159   0.657 -0.3827 -0.0154  1.4616
  265MOL0     O35643   3.911   5.136   0.680  0.3934  0.0567  0.2525
  265MOL0     C35644   3.853   5.010   0.671  1.1294  0.3147  0.5135
  265MOL0     C35645   3.720   4.999   0.640  0.2282 -0.1532  0.5836
  265MOL0     C35646   3.662   4.873   0.637 -0.2066  0.0749 -0.0719
  265MOL0     C35647   3.734   4.756   0.675  0.9690 -0.4303  1.1139
  265MOL0     O35648   3.652   4.635   0.687 -0.1372 -0.5142  0.3467
  265MOL0     C35649   3.711   4.516   0.730 -0.4426  0.4643 -1.1682
  265MOL0     C35650   3.603   4.410   0.762 -0.3609 -1.0219  0.7645
  265MOL0     C35651   3.485   4.459   0.850  0.5109 -0.6078  0.7621
  265MOL0     C35652   3.360   4.363   0.831  0.4494  0.0754  0.2767
  265MOL0     C35653   3.267   4.406   0.946  0.2530  0.3948  0.4319
  265MOL0     C35654   3.112   4.408   0.911 -0.7359 -0.0405  0.0151
  265MOL0     C35655   3.027   4.458   1.025  0.5942 -0.3657 -0.0765
  265MOL0     C35656   2.897   4.519   0.954 -0.0284 -0.2083 -0.6409
  265MOL0     N35657   2.831   4.620   1.042  0.2909  0.0541  0.0820
  265MOL0     C35658   2.882   4.728   1.110  0.7911  0.4357  0.9629
  265MOL0     C35659   2.782   4.774   1.179  0.1075 -0.1984 -0.3014
  265MOL0     C35660   2.801   4.891   1.265  0.2354  0.2658 -1.1491
  265MOL0     C35661   2.848   5.015   1.195  0.1067  0.9530 -0.8945
  265MOL0     C35662   2.737   5.092   1.126  0.6543 -0.4956 -0.1939
  265MOL0     C35663   2.792   5.208   1.054 -0.9076  0.2171  0.0949
  265MOL0     O35664   2.699   5.288   0.980 -0.6366  0.2773 -0.8262
  265MOL0     C35665   2.742   5.393   0.914 -0.7208  0.1068  0.6917
  265MOL0     C35666   2.881   5.434   0.901  0.9405  0.2029  0.5573
  265MOL0     C35667   2.917   5.531   0.807 -0.3706  0.2794  0.3766
  265MOL0     C35668   2.824   5.603   0.733  0.2607 -1.4310  0.6232
  265MOL0     C35669   2.861   5.725   0.656  0.0585 -0.0280 -0.2610
  265MOL0     O35670   2.757   5.790   0.588  0.5484 -0.2076 -0.4451
  265MOL0     C35671   2.773   5.896   0.497 -0.5585 -0.1606 -0.0331
  265MOL0     C35672   2.886   5.982   0.485 -0.6296  0.0807  0.4049
  265MOL0     C35673   2.901   6.073   0.386  0.5868 -0.5037  0.4882
  265MOL0     C35674   2.794   6.084   0.288  0.2278  0.6403  0.5585
  265MOL0     O35675   2.802   6.165   0.182  0.7535  0.0354  0.2984
  265MOL0     C35676   2.936   6.176   0.116 -0.0466  0.6613  0.1179
  265MOL0     C35677   2.952   6.280   0.000 -0.2021  0.0504 -0.4033
  265MOL0     C35678   2.898   6.418   0.046 -0.0790 -0.0518 -0.3073
  265MOL0     C35679   2.883   6.518  -0.075  0.0744  0.4924  0.7563
  265MOL0     C35680   2.901   6.655  -0.025  0.6359 -0.1895  0.3188
  265MOL0     C35681   3.041   6.687   0.026 -0.9140  0.9114 -0.2137
  265MOL0     C35682   3.064   6.825   0.072 -0.3403  0.7217 -1.0828
  265MOL0     C35683   3.161   6.904  -0.022 -0.2301 -0.5990 -0.3220
  265MOL0    Cl35684   3.062   6.971  -0.160  0.0607 -0.4925  0.1826
  265MOL0     C35685   2.692   5.988   0.292 -1.2454  0.7302 -0.3069
  265MOL0     C35686   2.683   5.900   0.403  0.7124 -0.0807  0.5040
  265MOL0     O35687   2.970   5.771   0.693 -0.2058  0.8394 -0.2417
  265MOL0     C35688   2.689   5.558   0.745  1.2573  0.2792 -0.1874
  265MOL0     C35689   2.653   5.461   0.839  0.0574 -0.4893 -0.2466
  265MOL0     N35690   2.672   4.691   1.169  0.0961 -0.0228  0.7095
  265MOL0     N35691   2.705   4.602   1.079 -0.3449 -0.0301 -0.7020
  265MOL0     C35692   3.872   4.773   0.702  0.0059  0.1814  0.3978
  265MOL0     C35693   3.931   4.898   0.690 -0.3564 -0.1981 -0.9307
  265MOL0     C35694   4.105   5.269   0.732  0.1738  0.6004 -0.2783
  265MOL0     C35695   4.021   5.375   0.761 -0.4290  0.1146  0.7448
  265MOL0     C35696   4.067   5.495   0.805 -0.4179  0.4360 -0.8548
  265MOL0     C35697   4.208   5.510   0.822 -0.0836  0.2386  0.1323
  265MOL0     O35698   4.275   5.627   0.856 -0.2691 -0.4093 -0.0727
  265MOL0     C35699   4.194   5.735   0.901 -1.0327 -0.3625  0.2978
  265MOL0     C35700   4.289   5.840   0.959  0.2861 -0.4882 -0.2103
  265MOL0     C35701   4.203   5.967   0.992  0.0108 -1.1668  0.1080
  265MOL0     C35702   4.278   6.093   1.046 -0.0317  0.1262  0.1365
  265MOL0     C35703   4.359   6.073   1.165  0.1489 -0.6080  1.3917
  265MOL0     C35704   4.421   6.070   1.267 -0.1529  0.5106 -0.1571
  265MOL0     C35705   4.298   5.400   0.796  1.1674  0.0544  0.1032
  265MOL0     C35706   4.243   5.281   0.755 -0.1340 -0.5556 -0.3128
  265MOL0     C35707   4.339   5.169   0.723 -0.9141  0.4953  0.2365
  265MOL0     H35708   3.662   5.089   0.623  0.8331  0.1789  0.2582
  265MOL0     H35709   3.557   4.860   0.616  0.1143 -1.3794 -0.9135
  265MOL0     H35710   3.775   4.475   0.651  0.3046 -1.1149  0.2026
  265MOL0     H35711   3.760   4.533   0.826 -2.2571 -2.5268  0.4568
  265MOL0     H35712   3.643   4.316   0.801 -0.2922 -0.7521  1.3510
  265MOL0     H35713   3.558   4.396   0.663 -0.3205 -1.5806  0.8198
  265MOL0     H35714   3.469   4.566   0.836  2.8055 -0.4351 -1.4056
  265MOL0     H35715   3.516   4.433   0.952 -1.3299 -1.6347  1.0935
  265MOL0     H35716   3.319   4.377   0.731  3.5508 -2.7373 -1.6020
  265MOL0     H35717   3.375   4.255   0.841 -0.8764  0.0729  3.7692
  265MOL0     H35718   3.292   4.349   1.035 -0.3011  2.1475  1.7860
  265MOL0     H35719   3.287   4.509   0.979  0.0896 -0.2891  2.8608
  265MOL0     H35720   3.095   4.476   0.827 -1.4085  1.4122  1.2815
  265MOL0     H35721   3.086   4.309   0.872 -0.0779 -0.6105  0.9585
  265MOL0     H35722   3.079   4.532   1.086 -0.8171 -1.7510  3.0159
  265MOL0     H35723   2.997   4.377   1.091 -0.6019 -0.3154 -0.5226
  265MOL0     H35724   2.932   4.573   0.865  2.1079  0.7507  0.6863
  265MOL0     H35725   2.831   4.435   0.930  0.5100 -0.5805 -0.8310
  265MOL0     H35726   2.981   4.772   1.099  0.6498  0.8564  1.3694
  265MOL0     H35727   2.702   4.918   1.302 -0.4511 -1.4586 -1.6220
  265MOL0     H35728   2.865   4.874   1.352  0.3906  0.9727 -1.1193
  265MOL0     H35729   2.897   5.081   1.267 -3.5907  1.3329  1.5613
  265MOL0     H35730   2.922   4.983   1.121  2.1154  0.6301  1.1410
  265MOL0     H35731   2.670   5.129   1.204  1.0029 -1.2569  0.4763
  265MOL0     H35732   2.674   5.033   1.058  1.3325  0.9267 -2.1471
  265MOL0     H35733   2.864   5.174   0.979 -0.9032  3.5369 -1.5918
  265MOL0     H35734   2.842   5.275   1.125  0.2670 -1.4325  0.8626
  265MOL0     H35735   2.952   5.378   0.961  0.6078  1.0178  1.7719
  265MOL0     H35736   3.023   5.550   0.793  0.2494 -1.4364  2.2487
  265MOL0     H35737   2.972   5.963   0.548 -0.4112 -1.0547 -0.2018
  265MOL0     H35738   2.990   6.135   0.392  2.3922 -2.9408  1.0187
  265MOL0     H35739   3.016   6.203   0.185  2.4436 -1.2944 -1.7893
  265MOL0     H35740   2.969   6.078   0.077 -0.0610  0.3438  0.8922
  265MOL0     H35741   3.056   6.287  -0.034  0.1437  2.8645  0.9855
  265MOL0     H35742   2.889   6.254  -0.085 -2.8153  0.4430  1.3042
  265MOL0     H35743   2.798   6.418   0.089  0.1968  4.4521  0.7906
  265MOL0     H35744   2.966   6.456   0.123  1.5332  3.0417 -2.9973
  265MOL0     H35745   2.781   6.505  -0.113  0.7914  1.7570 -1.7645
  265MOL0     H35746   2.953   6.501  -0.157  0.6901 -1.8101  1.6791
  265MOL0     H35747   2.822   6.678   0.047 -0.0066 -0.3546 -0.3113
  265MOL0     H35748   2.871   6.724  -0.104  3.3875  2.5529  1.4758
  265MOL0     H35749   3.079   6.609   0.092 -1.5266 -0.9784 -2.0029
  265MOL0     H35750   3.112   6.671  -0.056  1.4116  4.4383  0.8919
  265MOL0     H35751   3.098   6.826   0.177 -1.3824  1.5241 -0.7367
  265MOL0     H35752   2.981   6.893   0.090 -3.0685 -2.7414  0.6202
  265MOL0     H35753   3.217   6.986   0.023  1.1711 -2.1458  0.8655
  265MOL0     H35754   3.227   6.831  -0.069  0.7039  1.3066 -2.1037
  265MOL0     H35755   2.620   5.971   0.213 -0.6663 -1.7373 -0.3831
  265MOL0     H35756   2.603   5.827   0.403  2.0375 -1.6046  1.4932
  265MOL0     H35757   2.605   5.604   0.694 -0.4392 -0.7761  1.5131
  265MOL0     H35758   2.547   5.440   0.855 -0.8943  2.3897 -1.9634
  265MOL0     H35759   3.935   4.694   0.741  1.6111  2.2341  2.1734
  265MOL0     H35760   4.037   4.908   0.710 -0.3176  0.1996 -1.3128
  265MOL0     H35761   3.914   5.370   0.744 -0.4794 -0.1597  1.1466
  265MOL0     H35762   4.004   5.579   0.833 -0.8534 -0.0563 -0.3159
  265MOL0     H35763   4.116   5.708   0.973 -0.9772  0.9495  0.8735
  265MOL0     H35764   4.141   5.775   0.814  1.7314  1.7015 -0.5689
  265MOL0     H35765   4.366   5.865   0.886 -0.6794 -1.2358 -1.5212
  265MOL0     H35766   4.330   5.805   1.054  0.0867  2.1190  0.9363
  265MOL0     H35767   4.125   5.944   1.066 -1.1127  0.9848 -0.3072
  265MOL0     H35768   4.157   6.004   0.901  0.6280  0.2995  0.3730
  265MOL0     H35769   4.340   6.123   0.961 -2.1725 -3.4277 -2.9564
  265MOL0     H35770   4.211   6.177   1.067 -1.1509 -0.8584  0.5846
  265MOL0     H35771   4.482   6.057   1.355 -0.0346  1.2543 -0.1180
  265MOL0     H35772   4.398   5.431   0.823 -0.0491  4.9625 -0.0368
  265MOL0     H35773   4.424   5.177   0.792  0.0876 -1.3124 -0.7192
  265MOL0     H35774   4.297   5.069   0.729 -2.8089  1.1220 -1.5556
  265MOL0     H35775   4.383   5.167   0.623  3.1590  0.7107  1.7995
  266MOL0     O35776   2.038   2.964   5.363 -0.1964  0.3647  0.7719
  266MOL0     C35777   1.951   2.879   5.332  0.3834 -0.2513  0.6071
  266MOL0     O35778   1.865   2.892   5.228  0.7504  0.1801  0.0981
  266MOL0     C35779   1.866   3.000   5.141  0.6815  0.4128 -0.3152
  266MOL0     C35780   1.968   3.090   5.111 -0.4747 -0.6947  0.1280
  266MOL0     C35781   1.948   3.192   5.019 -0.4621  0.6669 -0.1951
  266MOL0     C35782   1.828   3.203   4.951  0.6878  0.0033 -0.1712
  266MOL0     O35783   1.797   3.305   4.870  0.1832 -0.3925  0.2946
  266MOL0     C35784   1.778   3.421   4.934  0.3939  0.9840 -0.5409
  266MOL0     C35785   1.686   3.512   4.864 -0.3054  0.7553 -0.2081
  266MOL0     C35786   1.712   3.659   4.926 -0.8538  0.5947 -0.9467
  266MOL0     C35787   1.630   3.764   4.851 -0.1532 -0.5702 -0.1790
  266MOL0     C35788   1.556   3.867   4.946  0.2664  0.1171 -0.2043
  266MOL0     C35789   1.659   3.948   5.028  0.0846 -0.4907  0.4451
  266MOL0     C35790   1.598   4.042   5.136  0.5236  0.0329 -0.4920
  266MOL0     C35791   1.509   4.154   5.076  0.1288  0.4358 -0.0759
  266MOL0     N35792   1.449   4.234   5.180 -1.2450 -0.4253  1.0196
  266MOL0     C35793   1.504   4.350   5.220  0.6858 -0.2445 -1.3468
  266MOL0     C35794   1.405   4.391   5.313 -0.0927 -0.0717 -0.3049
  266MOL0     C35795   1.399   4.531   5.391 -0.3476 -0.1414 -0.0652
  266MOL0     C35796   1.256   4.595   5.391 -0.5194  0.1279  0.2433
  266MOL0     C35797   1.228   4.693   5.509  0.0060 -0.3460  0.8429
  266MOL0     C35798   1.270   4.832   5.484  0.1719 -0.5143 -0.4641
  266MOL0     O35799   1.181   4.935   5.545 -0.3519 -0.0600 -0.7108
  266MOL0     C35800   1.218   5.077   5.541 -0.1407 -0.0811  0.6889
  266MOL0     C35801   1.349   5.132   5.532 -0.6442 -0.2234 -0.9739
  266MOL0     C35802   1.383   5.268   5.552 -0.4171 -0.1023  0.0685
  266MOL0     C35803   1.284   5.368   5.580  0.9370 -0.5247 -0.7010
  266MOL0     C35804   1.324   5.512   5.590  0.3768  0.2181 -0.9312
  266MOL0     O35805   1.445   5.534   5.623  0.5329  0.0990 -0.4235
  266MOL0     C35806   1.500   5.660   5.626 -0.6865  0.5356 -0.5879
  266MOL0     C35807   1.444   5.785   5.596 -0.6873 -0.4260 -0.7497
  266MOL0     C35808   1.528   5.900   5.585  0.5538  0.0284  0.3243
  266MOL0     C35809   1.656   5.893   5.633 -0.1010 -0.7432  0.0794
  266MOL0     O35810   1.750   5.993   5.620  0.4177  0.0885  0.8909
  266MOL0     C35811   1.734   6.083   5.509  0.5657  0.0852 -0.3498
  266MOL0     C35812   1.865   6.149   5.472  0.4174 -0.3053  0.4361
  266MOL0     C35813   1.881   6.280   5.542 -0.5680 -0.2873  0.8001
  266MOL0     C35814   1.981   6.372   5.469 -0.1360 -0.8236  0.8815
  266MOL0     C35815   1.958   6.521   5.500 -0.6442 -0.3466 -0.3917
  266MOL0     C35816   2.076   6.613   5.449  0.0299  0.3470  0.4059
  266MOL0     C35817   2.053   6.758   5.504 -0.4602  1.2498  0.4913
  266MOL0     C35818   2.184   6.834   5.488  0.1678  0.5292 -0.8160
  266MOL0    Cl35819   2.193   6.897   5.313 -0.2377  0.3000 -0.3399
  266MOL0     C35820   1.701   5.768   5.690 -0.2979  0.0208  0.0834
  266MOL0     C35821   1.629   5.652   5.689  0.1476  0.5435  0.1542
  266MOL0     O35822   1.235   5.600   5.573 -0.3089  0.8976  0.2938
  266MOL0     C35823   1.146   5.319   5.578  0.1670  0.8897  0.1508
  266MOL0     C35824   1.119   5.178   5.552  0.4790  0.8564 -0.0365
  266MOL0     N35825   1.318   4.287   5.333 -0.1701 -0.2144  0.3825
  266MOL0     N35826   1.344   4.192   5.249 -0.4149 -0.0286 -0.3391
  266MOL0     C35827   1.716   3.111   4.982 -0.0098  0.0900 -0.7114
  266MOL0     C35828   1.742   3.003   5.071 -1.3739 -1.0892 -0.6967
  266MOL0     C35829   1.925   2.767   5.430  0.0598  0.1612 -0.0511
  266MOL0     C35830   1.953   2.797   5.557  0.6869  0.0034  0.7434
  266MOL0     C35831   1.931   2.702   5.653  0.0138 -0.2817 -0.1101
  266MOL0     C35832   1.865   2.579   5.624  0.1884 -0.6190  0.6423
  266MOL0     O35833   1.824   2.503   5.731 -0.6174 -0.1160  0.3034
  266MOL0     C35834   1.684   2.479   5.761 -0.0771 -0.1617 -0.6457
  266MOL0     C35835   1.629   2.356   5.703 -0.2500 -0.4113 -0.7466
  266MOL0     C35836   1.500   2.376   5.642  0.3602  0.3970  0.3067
  266MOL0     C35837   1.428   2.245   5.622  0.7937  0.2963 -0.1222
  266MOL0     C35838   1.290   2.251   5.555 -0.0295 -0.3853 -0.0603
  266MOL0     C35839   1.176   2.259   5.507  0.2793 -0.5195  0.3252
  266MOL0     C35840   1.842   2.548   5.492  0.0852 -0.2247  0.0145
  266MOL0     C35841   1.866   2.644   5.392  0.1705  0.0701 -0.9102
  266MOL0     C35842   1.862   2.592   5.247  0.6862 -0.7386  0.9265
  266MOL0     H35843   2.060   3.078   5.167  1.0085  1.9244 -1.5268
  266MOL0     H35844   2.026   3.256   4.979 -1.1578  2.1070  0.6683
  266MOL0     H35845   1.743   3.412   5.037  3.9576  4.3553  1.2410
  266MOL0     H35846   1.876   3.470   4.944  2.8408 -3.3217 -1.1956
  266MOL0     H35847   1.588   3.476   4.896  0.6207 -1.2317  0.5494
  266MOL0     H35848   1.696   3.502   4.756 -1.9986 -3.2741 -0.1550
  266MOL0     H35849   1.818   3.684   4.916 -0.0068 -1.8439  0.9947
  266MOL0     H35850   1.695   3.656   5.034  0.9246 -0.3411 -0.6510
  266MOL0     H35851   1.698   3.813   4.780 -1.5421  0.0964 -1.0914
  266MOL0     H35852   1.553   3.711   4.795  0.2894  0.2281 -1.5830
  266MOL0     H35853   1.502   3.929   4.875  1.0700 -2.3121 -3.1531
  266MOL0     H35854   1.490   3.806   5.009  1.2027 -2.3457 -1.5012
  266MOL0     H35855   1.736   3.886   5.075  0.5498 -0.0220  0.3099
  266MOL0     H35856   1.721   4.006   4.959 -0.0635 -1.0199 -0.1372
  266MOL0     H35857   1.674   4.068   5.210  0.6328 -2.4869  0.3925
  266MOL0     H35858   1.529   3.979   5.194  0.7632  0.8983  0.7809
  266MOL0     H35859   1.562   4.225   5.013  1.9488 -0.7707 -0.0060
  266MOL0     H35860   1.431   4.098   5.024 -0.4652  2.9344 -2.0415
  266MOL0     H35861   1.601   4.387   5.189  1.3026 -3.7066 -4.3463
  266MOL0     H35862   1.423   4.505   5.495 -0.1201 -2.4348 -0.6302
  266MOL0     H35863   1.471   4.604   5.354  1.1575 -1.9471 -0.9015
  266MOL0     H35864   1.224   4.639   5.297 -1.7931  0.9368  1.0142
  266MOL0     H35865   1.193   4.508   5.414 -0.1127  0.1392  1.5245
  266MOL0     H35866   1.280   4.677   5.604  2.7365  2.6374  0.0146
  266MOL0     H35867   1.119   4.695   5.523 -0.1991 -0.7224 -0.5306
  266MOL0     H35868   1.272   4.852   5.377 -1.8015  0.9648 -0.2719
  266MOL0     H35869   1.373   4.838   5.521 -1.2192  2.4269  3.6443
  266MOL0     H35870   1.425   5.054   5.529  2.7464  2.7660  0.4779
  266MOL0     H35871   1.480   5.306   5.521 -1.1246  2.1320  0.4237
  266MOL0     H35872   1.340   5.802   5.573 -0.4672  0.2991 -1.2409
  266MOL0     H35873   1.500   6.003   5.565  1.4341  0.7179  2.3525
  266MOL0     H35874   1.684   6.033   5.425 -1.5582 -1.8468  1.8847
  266MOL0     H35875   1.668   6.165   5.539  0.1530 -0.6047  0.6713
  266MOL0     H35876   1.954   6.088   5.491 -0.0749 -1.1581  0.0777
  266MOL0     H35877   1.870   6.169   5.364  3.7322 -0.8438  0.3805
  266MOL0     H35878   1.792   6.342   5.554 -0.9560 -0.9912  1.7168
  266MOL0     H35879   1.917   6.272   5.646  0.4190 -0.8839  0.4300
  266MOL0     H35880   1.961   6.360   5.362 -2.5839  1.4611  0.9483
  266MOL0     H35881   2.087   6.363   5.492  0.1351  0.2950  0.1514
  266MOL0     H35882   1.950   6.532   5.608 -0.7976 -2.7754 -0.1067
  266MOL0     H35883   1.865   6.550   5.451 -0.5946  1.7058  0.6148
  266MOL0     H35884   2.165   6.575   5.500 -0.2655  1.1573  1.5841
  266MOL0     H35885   2.084   6.609   5.340  0.5983 -2.0406  0.4919
  266MOL0     H35886   2.022   6.745   5.608  0.5798 -4.0572  0.4415
  266MOL0     H35887   1.978   6.814   5.447 -0.3392 -0.5328 -1.5540
  266MOL0     H35888   2.183   6.919   5.557 -0.1104 -1.5232  1.8822
  266MOL0     H35889   2.277   6.779   5.508 -0.3656 -0.0456  0.1077
  266MOL0     H35890   1.796   5.745   5.738 -1.2593  0.1176  2.1534
  266MOL0     H35891   1.664   5.559   5.732  0.2383 -0.1047 -1.2910
  266MOL0     H35892   1.065   5.389   5.597  0.1958  0.9016  0.2282
  266MOL0     H35893   1.015   5.145   5.552 -0.3005  3.1387  1.1861
  266MOL0     H35894   1.616   3.146   4.958  1.3497  3.6755 -1.7575
  266MOL0     H35895   1.670   2.929   5.106 -0.8550 -1.5627 -0.6212
  266MOL0     H35896   2.001   2.885   5.598 -2.6517  2.0640  0.6085
  266MOL0     H35897   1.949   2.734   5.755 -3.7323 -0.1493  0.6760
  266MOL0     H35898   1.630   2.568   5.726  1.4114  0.9704 -0.1461
  266MOL0     H35899   1.676   2.473   5.870  0.9232 -0.6843 -0.5889
  266MOL0     H35900   1.615   2.284   5.784 -0.9304  0.2039 -0.3034
  266MOL0     H35901   1.690   2.316   5.621 -0.3365  0.2221 -1.1269
  266MOL0     H35902   1.515   2.441   5.555  1.2221 -1.5872 -1.1120
  266MOL0     H35903   1.436   2.440   5.703 -1.2681 -2.3873  1.7099
  266MOL0     H35904   1.499   2.183   5.567  1.4429 -0.5135  1.5700
  266MOL0     H35905   1.400   2.196   5.716  2.3939 -1.4947 -0.5227
  266MOL0     H35906   1.073   2.256   5.480  0.7944 -0.4348 -1.8136
  266MOL0     H35907   1.789   2.455   5.475 -0.0974 -0.3545  1.2095
  266MOL0     H35908   1.904   2.493   5.233  2.4828 -0.0075  0.8611
  266MOL0     H35909   1.765   2.604   5.198  2.1641  3.1153 -1.4879
  266MOL0     H35910   1.924   2.660   5.188  1.2214  1.2971  3.6381
  267MOL0     O35911   0.745   0.517   0.108 -0.2973  0.5727 -0.1702
  267MOL0     C35912   0.722   0.561  -0.003 -0.3387  0.1766  0.9920
  267MOL0     O35913   0.692   0.487  -0.118  0.8029 -0.1359 -0.8172
  267MOL0     C35914   0.686   0.348  -0.113 -0.7668  0.9980  0.5979
  267MOL0     C35915   0.597   0.275  -0.031 -0.6538  0.3165 -0.1212
  267MOL0     C35916   0.581   0.141  -0.048  0.4395  0.1976 -0.3946
  267MOL0     C35917   0.645   0.070  -0.149 -0.5507  0.2637  0.1203
  267MOL0     O35918   0.620  -0.062  -0.181  0.3316 -0.0660  0.2020
  267MOL0     C35919   0.483  -0.105  -0.145 -0.4279  1.0146 -0.9977
  267MOL0     C35920   0.458  -0.226  -0.223 -1.3500  0.3679  0.4661
  267MOL0     C35921   0.314  -0.251  -0.250  0.3084 -0.0376 -0.5015
  267MOL0     C35922   0.241  -0.304  -0.114  0.3548  0.4667  0.7271
  267MOL0     C35923   0.081  -0.314  -0.126  0.6903  0.3994  0.0704
  267MOL0     C35924   0.036  -0.381  -0.254  0.1462  0.9337 -0.8586
  267MOL0     C35925  -0.119  -0.400  -0.256 -0.1863 -0.6249 -0.1021
  267MOL0     C35926  -0.179  -0.259  -0.272 -0.6568  1.3995  0.6206
  267MOL0     N35927  -0.312  -0.257  -0.312  0.0889 -0.3158  0.5882
  267MOL0     C35928  -0.355  -0.290  -0.437 -0.8790 -0.8404 -0.3080
  267MOL0     C35929  -0.490  -0.279  -0.420  0.4168  0.5390  0.2318
  267MOL0     C35930  -0.588  -0.325  -0.524  0.0902 -0.8468 -0.3000
  267MOL0     C35931  -0.590  -0.476  -0.537  0.1787 -0.9497  0.2071
  267MOL0     C35932  -0.686  -0.530  -0.655  1.0303 -0.5669  0.4716
  267MOL0     C35933  -0.788  -0.636  -0.601 -1.1054 -0.6270 -0.8668
  267MOL0     O35934  -0.734  -0.738  -0.516 -1.0215  0.4567  0.5774
  267MOL0     C35935  -0.818  -0.841  -0.483 -0.5742  0.1318  0.6759
  267MOL0     C35936  -0.755  -0.954  -0.426  0.0436  0.2079  0.5440
  267MOL0     C35937  -0.826  -1.058  -0.377 -0.1658 -0.3981  0.2931
  267MOL0     C35938  -0.961  -1.057  -0.380  0.9294  0.5529 -1.5483
  267MOL0     C35939  -1.040  -1.171  -0.317  0.0449  0.9686 -0.7459
  267MOL0     O35940  -0.973  -1.255  -0.224 -0.0437 -0.7698 -0.3965
  267MOL0     C35941  -1.021  -1.368  -0.159  0.1411 -0.7967  0.5557
  267MOL0     C35942  -0.968  -1.408  -0.040  0.2391 -0.7013 -0.9433
  267MOL0     C35943  -1.001  -1.516   0.036  0.7195 -0.7926  0.1977
  267MOL0     C35944  -1.100  -1.598  -0.023  0.2947  0.1830  0.7575
  267MOL0     O35945  -1.151  -1.718   0.024 -0.6538 -0.1256  0.2065
  267MOL0     C35946  -1.047  -1.807   0.074  0.5870 -0.7337 -0.7729
  267MOL0     C35947  -1.132  -1.933   0.122 -0.3737 -1.1956  0.6843
  267MOL0     C35948  -1.264  -1.890   0.196  0.0709 -0.6270 -1.0714
  267MOL0     C35949  -1.240  -1.767   0.294  0.0024 -0.5605 -0.9969
  267MOL0     C35950  -1.370  -1.722   0.364  1.0484  0.0323 -0.6326
  267MOL0     C35951  -1.471  -1.671   0.265 -0.0610  0.5660  0.3049
  267MOL0     C35952  -1.421  -1.552   0.182 -0.8403 -0.2182 -0.4828
  267MOL0     C35953  -1.542  -1.527   0.090 -0.9169 -0.1864 -0.0538
  267MOL0    Cl35954  -1.523  -1.361   0.009  0.2113  0.2198 -0.3096
  267MOL0     C35955  -1.152  -1.560  -0.152  0.2267 -0.0176  0.2461
  267MOL0     C35956  -1.121  -1.445  -0.221 -0.6302  0.2656  0.0907
  267MOL0     O35957  -1.154  -1.190  -0.354 -0.2698  0.4526  0.0308
  267MOL0     C35958  -1.031  -0.943  -0.426  1.2232 -0.9264 -0.5885
  267MOL0     C35959  -0.959  -0.832  -0.484 -1.4339  0.4077  0.2105
  267MOL0     N35960  -0.521  -0.227  -0.291  0.0091 -0.9595  0.4307
  267MOL0     N35961  -0.410  -0.199  -0.233  1.3476 -0.2814 -0.2116
  267MOL0     C35962   0.733   0.143  -0.235 -0.2265  0.2662 -1.0400
  267MOL0     C35963   0.754   0.275  -0.209  1.0477 -0.6300  0.1383
  267MOL0     C35964   0.727   0.712  -0.032 -0.1853  0.5908  0.7858
  267MOL0     C35965   0.802   0.755  -0.144  0.4011  0.3077 -0.0111
  267MOL0     C35966   0.820   0.891  -0.183  0.3153 -0.1899 -0.3077
  267MOL0     C35967   0.755   0.989  -0.111 -0.2494  0.1564  0.6074
  267MOL0     O35968   0.797   1.111  -0.151 -0.5235 -0.5411  0.2983
  267MOL0     C35969   0.745   1.220  -0.091  0.5939 -1.0306 -0.3538
  267MOL0     C35970   0.816   1.334  -0.126  0.5249 -0.5715 -0.4340
  267MOL0     C35971   0.719   1.447  -0.123  0.0451  0.7779  0.7987
  267MOL0     C35972   0.805   1.581  -0.132 -0.0689 -0.7663 -0.3005
  267MOL0     C35973   0.715   1.697  -0.092  0.2629  0.0552 -0.9488
  267MOL0     C35974   0.635   1.784  -0.066  0.0495  0.0228 -1.2435
  267MOL0     C35975   0.676   0.945   0.006 -0.0842 -0.6118  1.1491
  267MOL0     C35976   0.671   0.810   0.057 -0.3383  0.2208 -0.5420
  267MOL0     C35977   0.590   0.776   0.182  0.0050  0.3196  0.7789
  267MOL0     H35978   0.544   0.322   0.052 -1.8551 -2.5972  0.8879
  267MOL0     H35979   0.509   0.095   0.020 -0.7248  2.2568 -0.1553
  267MOL0     H35980   0.481  -0.130  -0.039  2.1156 -2.5633 -1.5748
  267MOL0     H35981   0.396  -0.040  -0.156  0.3450  2.5928  1.4814
  267MOL0     H35982   0.518  -0.295  -0.164  1.6857  0.9246 -1.7184
  267MOL0     H35983   0.501  -0.235  -0.323 -1.2977  5.1586 -0.1780
  267MOL0     H35984   0.310  -0.315  -0.339 -1.3607  0.3766 -0.7590
  267MOL0     H35985   0.251  -0.164  -0.272 -1.3182 -1.6623 -2.7495
  267MOL0     H35986   0.287  -0.402  -0.096  0.0227  0.3127  0.7475
  267MOL0     H35987   0.265  -0.252  -0.021 -0.5979 -0.0271  1.2700
  267MOL0     H35988   0.040  -0.381  -0.050  0.5968  0.3619 -0.0143
  267MOL0     H35989   0.027  -0.219  -0.112  0.7086  0.7764 -2.1055
  267MOL0     H35990   0.075  -0.316  -0.333 -0.4932  1.5029 -0.7110
  267MOL0     H35991   0.080  -0.480  -0.271  1.2152  1.0290  1.0851
  267MOL0     H35992  -0.154  -0.448  -0.164 -0.5574  0.5483  0.3803
  267MOL0     H35993  -0.138  -0.470  -0.338 -2.0962 -1.2734  0.8294
  267MOL0     H35994  -0.165  -0.199  -0.181  0.2457 -0.5527  1.8443
  267MOL0     H35995  -0.126  -0.200  -0.348 -1.0856  3.7381  2.0161
  267MOL0     H35996  -0.308  -0.335  -0.523  0.2044  0.2594 -0.3144
  267MOL0     H35997  -0.685  -0.305  -0.478 -0.8037  0.5815 -2.6510
  267MOL0     H35998  -0.573  -0.266  -0.615  2.7669 -0.5935  0.2244
  267MOL0     H35999  -0.488  -0.508  -0.556  0.8546  1.0762  0.2090
  267MOL0     H36000  -0.613  -0.526  -0.443  1.9621 -0.3254  1.0069
  267MOL0     H36001  -0.622  -0.580  -0.728  4.9395  1.2982  2.3548
  267MOL0     H36002  -0.738  -0.443  -0.695 -0.8564 -2.0942 -0.6265
  267MOL0     H36003  -0.831  -0.687  -0.687 -0.3155 -0.0632 -1.6023
  267MOL0     H36004  -0.859  -0.585  -0.535  0.9202 -0.6591  1.4985
  267MOL0     H36005  -0.648  -0.968  -0.421  0.0320 -0.6377 -0.8420
  267MOL0     H36006  -0.767  -1.143  -0.344 -2.1093 -2.2785 -0.8493
  267MOL0     H36007  -0.897  -1.341   0.008 -1.5246 -0.7972  2.0753
  267MOL0     H36008  -0.948  -1.538   0.128 -1.9399 -0.4715  1.8926
  267MOL0     H36009  -0.977  -1.833  -0.006 -1.1696 -2.4272 -1.8434
  267MOL0     H36010  -0.991  -1.771   0.161 -0.9058  0.8844 -0.4154
  267MOL0     H36011  -1.156  -2.001   0.040 -1.3940 -0.6439  0.5081
  267MOL0     H36012  -1.071  -1.998   0.186 -1.6595 -0.9199  2.2600
  267MOL0     H36013  -1.330  -1.854   0.116 -2.1910  1.4783  1.5687
  267MOL0     H36014  -1.317  -1.975   0.239  0.5498 -0.9407 -1.0848
  267MOL0     H36015  -1.194  -1.677   0.252 -4.6571  1.8908 -1.5133
  267MOL0     H36016  -1.173  -1.804   0.371  1.1961 -2.9579 -3.0429
  267MOL0     H36017  -1.358  -1.635   0.430  2.3763 -0.9049  0.4191
  267MOL0     H36018  -1.419  -1.807   0.413  0.7202 -1.7044 -3.7366
  267MOL0     H36019  -1.501  -1.747   0.191  2.3981  1.1076 -1.3496
  267MOL0     H36020  -1.550  -1.645   0.336  0.3755 -2.5575  2.1158
  267MOL0     H36021  -1.328  -1.557   0.125  1.5712 -1.6193  3.2348
  267MOL0     H36022  -1.409  -1.468   0.251  2.3106 -2.2894  1.7635
  267MOL0     H36023  -1.552  -1.600   0.009  1.2302 -1.2304  0.5365
  267MOL0     H36024  -1.631  -1.522   0.153  0.7592 -1.0449  2.5492
  267MOL0     H36025  -1.226  -1.609  -0.214  0.2786  1.8327 -1.3921
  267MOL0     H36026  -1.160  -1.427  -0.321  1.9391 -0.8322 -1.1942
  267MOL0     H36027  -1.137  -0.935  -0.403  1.3675 -1.2799  0.2345
  267MOL0     H36028  -1.020  -0.750  -0.521 -2.7626 -0.1572  1.0608
  267MOL0     H36029   0.796   0.102  -0.313  2.3495  0.6249  0.7264
  267MOL0     H36030   0.822   0.337  -0.266 -1.3899  1.4702 -0.6576
  267MOL0     H36031   0.845   0.681  -0.211  3.0825  1.0343  0.7702
  267MOL0     H36032   0.881   0.927  -0.265 -0.8921  3.4813  0.2075
  267MOL0     H36033   0.737   1.213   0.018 -1.3781  1.4930 -0.2228
  267MOL0     H36034   0.641   1.227  -0.127 -0.3347  1.4037  2.3937
  267MOL0     H36035   0.858   1.322  -0.227 -1.0318  0.7954 -1.2930
  267MOL0     H36036   0.900   1.359  -0.060 -1.8796  1.3645  2.1023
  267MOL0     H36037   0.663   1.440  -0.029  0.5030  0.4911  1.0557
  267MOL0     H36038   0.649   1.440  -0.207  0.2281 -0.0260  0.7050
  267MOL0     H36039   0.896   1.579  -0.071 -0.8822 -0.8494  0.9619
  267MOL0     H36040   0.841   1.604  -0.232  1.4448 -0.9826  0.1776
  267MOL0     H36041   0.569   1.867  -0.052  1.1859  1.0197 -1.6401
  267MOL0     H36042   0.602   1.014   0.047  0.8652  3.5922 -3.2164
  267MOL0     H36043   0.646   0.723   0.259 -0.9382  0.8904  1.9088
  267MOL0     H36044   0.536   0.859   0.231 -0.0051 -0.7001  2.5744
  267MOL0     H36045   0.512   0.709   0.144  0.0532  2.6332 -4.2636
  268MOL0     O36046   2.258   1.965   5.810  0.0743  0.5916 -0.1737
  268MOL0     C36047   2.187   2.048   5.755 -0.3531 -0.2307  0.0277
  268MOL0     O36048   2.225   2.169   5.714 -0.4652  0.6510 -0.0366
  268MOL0     C36049   2.344   2.227   5.744 -0.5590  0.0057 -0.2106
  268MOL0     C36050   2.380   2.334   5.657  0.3166  0.6714  0.4491
  268MOL0     C36051   2.494   2.410   5.683  0.4324  0.2488 -0.4183
  268MOL0     C36052   2.570   2.382   5.795 -0.3199 -1.7933 -0.4633
  268MOL0     O36053   2.677   2.478   5.817  0.4131  0.5092  0.0350
  268MOL0     C36054   2.677   2.550   5.935 -0.1245 -0.5990 -0.6466
  268MOL0     C36055   2.821   2.601   5.965 -0.5496  0.2449 -0.1249
  268MOL0     C36056   2.817   2.728   6.057 -0.2408 -0.9078  0.1122
  268MOL0     C36057   2.954   2.781   6.127 -0.6508 -0.5005  0.5854
  268MOL0     C36058   2.923   2.911   6.206 -0.1931  0.0786 -0.3418
  268MOL0     C36059   3.044   2.957   6.288 -0.2284  1.0429 -0.5658
  268MOL0     C36060   3.032   3.097   6.353 -0.0452 -0.3179 -0.8605
  268MOL0     C36061   3.079   3.228   6.273  0.5120 -0.6546 -1.1338
  268MOL0     N36062   3.111   3.338   6.362 -0.1120 -0.8015  0.2023
  268MOL0     C36063   3.210   3.336   6.452  0.4998 -0.0586  0.4458
  268MOL0     C36064   3.189   3.442   6.531 -0.9698 -0.4887 -0.8695
  268MOL0     C36065   3.284   3.481   6.638 -0.4480 -1.1372 -1.3035
  268MOL0     C36066   3.247   3.614   6.716 -0.1823 -0.6753  0.0016
  268MOL0     C36067   3.301   3.606   6.869  0.2031 -0.5154  0.2192
  268MOL0     C36068   3.249   3.721   6.949  0.3267 -0.2295 -0.1318
  268MOL0     O36069   3.241   3.689   7.089 -1.0036 -0.4716 -0.6225
  268MOL0     C36070   3.367   3.714   7.154  1.1413 -0.0541  0.2569
  268MOL0     C36071   3.446   3.603   7.168 -0.1266 -0.3893  0.3701
  268MOL0     C36072   3.578   3.620   7.225 -0.7965 -0.0059 -0.3753
  268MOL0     C36073   3.611   3.746   7.282  0.5773 -0.0575  0.6352
  268MOL0     C36074   3.736   3.761   7.360 -0.0802  0.2868 -0.0297
  268MOL0     O36075   3.828   3.661   7.344 -0.3778 -0.3224  0.1615
  268MOL0     C36076   3.956   3.680   7.395 -0.4257  0.4103 -0.9569
  268MOL0     C36077   4.021   3.803   7.371 -1.1952 -0.0755 -0.6285
  268MOL0     C36078   4.148   3.828   7.426  0.9736 -0.1193  0.0549
  268MOL0     C36079   4.226   3.726   7.474  0.3879 -0.1783 -0.8747
  268MOL0     O36080   4.359   3.751   7.477 -0.1907 -0.2665  0.2139
  268MOL0     C36081   4.447   3.638   7.456 -0.2528  0.6679  0.2630
  268MOL0     C36082   4.478   3.598   7.319 -0.2007 -0.2715  0.4327
  268MOL0     C36083   4.503   3.709   7.221 -0.0544  0.2975  0.0523
  268MOL0     C36084   4.636   3.775   7.240 -0.3884 -0.1126  0.7086
  268MOL0     C36085   4.678   3.875   7.132  0.8544  0.1559 -0.8624
  268MOL0     C36086   4.825   3.905   7.140 -0.7040  0.1562  0.4797
  268MOL0     C36087   4.850   4.023   7.041  0.3666  0.4871 -0.1321
  268MOL0     C36088   4.989   4.008   6.977 -0.5811  0.7372  0.8456
  268MOL0    Cl36089   5.041   4.177   6.967 -0.0914 -0.0729 -0.2647
  268MOL0     C36090   4.165   3.605   7.497  0.0479 -0.6693  0.1164
  268MOL0     C36091   4.028   3.580   7.466  0.2513 -1.0385 -0.0022
  268MOL0     O36092   3.745   3.866   7.420 -0.1820  0.2692  0.5428
  268MOL0     C36093   3.534   3.863   7.276  0.8436  0.1026 -0.4908
  268MOL0     C36094   3.409   3.841   7.201 -0.1335  0.1835 -0.2686
  268MOL0     N36095   3.078   3.508   6.484  0.6599  0.5995 -1.0386
  268MOL0     N36096   3.029   3.442   6.385  0.6807  0.0362 -0.2708
  268MOL0     C36097   2.540   2.283   5.880  0.2091  0.1098 -0.3007
  268MOL0     C36098   2.427   2.214   5.860  0.5232 -1.0737 -0.0283
  268MOL0     C36099   2.055   2.005   5.716 -0.1153  0.4583  0.5310
  268MOL0     C36100   2.011   1.882   5.754 -0.2192 -0.0733  0.3365
  268MOL0     C36101   1.883   1.831   5.715  0.2703  0.1938 -0.0019
  268MOL0     C36102   1.782   1.907   5.650  0.0347  0.3777  0.2655
  268MOL0     O36103   1.657   1.867   5.612 -0.5226 -0.1476 -0.2700
  268MOL0     C36104   1.601   1.744   5.660  0.0514 -0.2976 -0.3449
  268MOL0     C36105   1.458   1.750   5.639 -0.7022 -0.2306  0.1295
  268MOL0     C36106   1.442   1.730   5.492  0.1407 -0.8601  0.7808
  268MOL0     C36107   1.305   1.693   5.442 -0.0129 -0.1586  1.4398
  268MOL0     C36108   1.210   1.806   5.412  0.4852 -0.5433  0.7455
  268MOL0     C36109   1.121   1.878   5.363 -0.8754  0.0918 -0.2520
  268MOL0     C36110   1.833   2.027   5.610 -0.1443 -0.7952 -0.0944
  268MOL0     C36111   1.967   2.086   5.633 -0.2537 -0.3023 -0.0829
  268MOL0     C36112   2.000   2.218   5.567 -0.3721  1.1345  0.8165
  268MOL0     H36113   2.325   2.358   5.566  3.1175  2.0948 -1.0049
  268MOL0     H36114   2.510   2.493   5.615 -0.2711  1.0013  0.3076
  268MOL0     H36115   2.617   2.640   5.917 -2.9731 -2.3164 -0.3857
  268MOL0     H36116   2.647   2.500   6.028 -2.3467  0.8408 -0.5308
  268MOL0     H36117   2.874   2.624   5.872 -0.6347 -0.6384 -0.4039
  268MOL0     H36118   2.893   2.523   5.991  2.0170  2.8215  0.9865
  268MOL0     H36119   2.750   2.705   6.140 -0.5808 -0.4898 -0.0413
  268MOL0     H36120   2.769   2.812   6.005 -0.5460 -1.0842  0.1118
  268MOL0     H36121   3.004   2.713   6.195 -0.7462  0.4728  1.6544
  268MOL0     H36122   3.023   2.812   6.047 -2.5917 -0.8658 -1.3392
  268MOL0     H36123   2.866   2.995   6.166  2.6963  2.7787  0.7426
  268MOL0     H36124   2.844   2.885   6.278  0.1176  3.2396  1.3070
  268MOL0     H36125   3.047   2.888   6.373 -2.0734 -0.1883 -1.4140
  268MOL0     H36126   3.138   2.947   6.234  1.0535  0.3157  1.6898
  268MOL0     H36127   3.097   3.095   6.441  1.2937 -0.5844 -1.8193
  268MOL0     H36128   2.929   3.108   6.387 -0.0537  0.1394 -1.0292
  268MOL0     H36129   3.165   3.210   6.208  0.0210  1.3338 -2.4417
  268MOL0     H36130   2.997   3.277   6.219 -0.1094 -0.2907  0.1151
  268MOL0     H36131   3.298   3.274   6.463 -0.7034 -1.9124 -0.0885
  268MOL0     H36132   3.278   3.406   6.718 -1.4949 -0.0485 -0.3138
  268MOL0     H36133   3.383   3.477   6.592  0.3295 -0.0042  0.1901
  268MOL0     H36134   3.290   3.699   6.664  1.9379 -0.0662  2.5484
  268MOL0     H36135   3.138   3.628   6.710 -0.0399  1.0971  1.0291
  268MOL0     H36136   3.409   3.595   6.869  0.6525  2.6133 -1.4379
  268MOL0     H36137   3.265   3.514   6.915 -1.4667  0.5831  1.1974
  268MOL0     H36138   3.146   3.736   6.916 -1.4133  0.4503  4.7395
  268MOL0     H36139   3.297   3.816   6.923 -0.8301 -0.1108 -1.9564
  268MOL0     H36140   3.415   3.511   7.119 -0.8827 -0.1587  0.3981
  268MOL0     H36141   3.642   3.537   7.250 -1.2567 -0.2642 -0.0361
  268MOL0     H36142   3.977   3.883   7.313 -3.3713  0.9797  2.2502
  268MOL0     H36143   4.185   3.930   7.414 -0.1649  0.4887  1.3692
  268MOL0     H36144   4.538   3.678   7.502 -1.0577  0.2917  2.2708
  268MOL0     H36145   4.433   3.547   7.515 -0.9122  1.1804  0.9248
  268MOL0     H36146   4.569   3.540   7.334 -0.9128 -0.9237  2.4910
  268MOL0     H36147   4.401   3.529   7.283 -0.2992 -0.6939  1.4331
  268MOL0     H36148   4.488   3.669   7.120  0.0096  2.9443 -1.0797
  268MOL0     H36149   4.423   3.778   7.247 -0.4062 -1.0049  2.7975
  268MOL0     H36150   4.708   3.693   7.238 -3.8347 -3.3942  1.4709
  268MOL0     H36151   4.640   3.810   7.344 -1.0318 -1.8091  1.3382
  268MOL0     H36152   4.617   3.965   7.145 -0.7458 -0.9281 -0.5675
  268MOL0     H36153   4.647   3.837   7.034 -0.5490  0.2629 -0.4808
  268MOL0     H36154   4.847   3.937   7.242  3.0494 -0.6860  0.0920
  268MOL0     H36155   4.883   3.814   7.123 -2.2776 -1.1370  1.7626
  268MOL0     H36156   4.847   4.118   7.095 -0.1393  0.6584 -0.4556
  268MOL0     H36157   4.778   4.018   6.960 -1.4484 -1.5885  1.4838
  268MOL0     H36158   5.059   3.954   7.041  0.6563 -1.0347 -1.8290
  268MOL0     H36159   4.979   3.955   6.881  0.7617 -0.5714  1.3924
  268MOL0     H36160   4.221   3.519   7.534  3.9132  0.4969 -2.4265
  268MOL0     H36161   3.978   3.485   7.485  2.2645 -1.6927  2.7606
  268MOL0     H36162   3.554   3.964   7.309 -2.0499  0.1014  1.6169
  268MOL0     H36163   3.342   3.924   7.181 -2.2593 -1.9959 -3.2183
  268MOL0     H36164   2.609   2.256   5.960  1.9198  1.4258 -1.2663
  268MOL0     H36165   2.385   2.152   5.939 -1.4313 -1.1492 -1.0641
  268MOL0     H36166   2.061   1.819   5.828 -0.3200  0.5179  0.9202
  268MOL0     H36167   1.869   1.730   5.754 -1.1330  0.7173  0.9207
  268MOL0     H36168   1.628   1.745   5.766  0.6729  0.4105 -0.5016
  268MOL0     H36169   1.651   1.658   5.615  2.1375  0.9173 -0.5010
  268MOL0     H36170   1.427   1.851   5.667  1.4044  0.1636  1.2307
  268MOL0     H36171   1.408   1.672   5.697  0.5119 -4.0356 -3.4522
  268MOL0     H36172   1.504   1.647   5.455 -0.5997 -0.8982 -0.4440
  268MOL0     H36173   1.462   1.825   5.441 -4.2905 -0.4929 -0.6715
  268MOL0     H36174   1.325   1.653   5.342  2.5645  3.0842  0.4556
  268MOL0     H36175   1.265   1.611   5.501  0.3481 -0.0822  1.7934
  268MOL0     H36176   1.035   1.926   5.321 -2.3587  0.1950  2.7013
  268MOL0     H36177   1.758   2.093   5.567 -0.8917 -0.7281  1.2568
  268MOL0     H36178   2.100   2.228   5.524 -0.6999  2.8904  0.3720
  268MOL0     H36179   1.926   2.245   5.491 -0.7955  0.4191  0.9641
  268MOL0     H36180   2.004   2.287   5.652 -4.8193  1.2369  1.1782
  269MOL0     O36181   4.863   7.194   6.063 -0.4247  0.3078  0.8017
  269MOL0     C36182   4.933   7.290   6.029  1.0875  0.2792 -0.6628
  269MOL0     O36183   4.889   7.422   6.028 -0.3613 -0.9204  0.3178
  269MOL0     C36184   4.788   7.442   6.124  0.2404 -0.1250  0.3397
  269MOL0     C36185   4.828   7.460   6.258  1.2818 -0.5972 -0.2375
  269MOL0     C36186   4.719   7.487   6.340  0.8761 -0.6294  0.2335
  269MOL0     C36187   4.591   7.507   6.298 -1.2852 -0.4717  0.0666
  269MOL0     O36188   4.511   7.573   6.389 -0.5096 -0.6513 -0.5542
  269MOL0     C36189   4.391   7.629   6.338  0.1308  0.1108  0.1664
  269MOL0     C36190   4.327   7.701   6.451  1.3077 -0.7684 -0.2569
  269MOL0     C36191   4.220   7.797   6.392  0.2324 -0.2484 -0.8832
  269MOL0     C36192   4.153   7.900   6.483  0.4586  0.1974  0.5125
  269MOL0     C36193   4.219   8.042   6.471  0.2451  0.2696 -0.8419
  269MOL0     C36194   4.233   8.096   6.324  0.1135  0.5445 -0.0963
  269MOL0     C36195   4.094   8.098   6.262  0.1439  0.5545  0.7120
  269MOL0     C36196   4.081   8.211   6.149 -0.7957  0.5494  0.1323
  269MOL0     N36197   4.052   8.353   6.197 -0.7227  0.0181 -0.9456
  269MOL0     C36198   4.143   8.435   6.264 -0.4264  0.0475  0.7841
  269MOL0     C36199   4.087   8.559   6.265  0.3181 -0.3299  0.2828
  269MOL0     C36200   4.163   8.667   6.338 -0.2620 -0.2730 -0.2759
  269MOL0     C36201   4.090   8.803   6.311 -0.5093 -0.6876 -0.6656
  269MOL0     C36202   4.186   8.928   6.306 -0.2454 -0.2514  0.3701
  269MOL0     C36203   4.229   8.975   6.446  0.4864 -0.1528 -0.5825
  269MOL0     O36204   4.318   9.094   6.449 -0.2649  0.1529 -0.5365
  269MOL0     C36205   4.251   9.204   6.506 -0.1722 -1.1883  0.8917
  269MOL0     C36206   4.170   9.299   6.438  0.1947  0.4612 -0.4460
  269MOL0     C36207   4.118   9.414   6.497  0.4463  0.2297 -1.0687
  269MOL0     C36208   4.152   9.427   6.639  1.0028 -0.5705  0.1156
  269MOL0     C36209   4.065   9.524   6.716 -0.1136 -0.8108 -0.1145
  269MOL0     O36210   3.966   9.588   6.637 -0.0828  0.5317  0.3164
  269MOL0     C36211   3.884   9.670   6.705  0.2851 -0.2668 -0.1176
  269MOL0     C36212   3.800   9.622   6.806  0.4986 -0.3237 -0.0524
  269MOL0     C36213   3.706   9.707   6.870 -0.2965  0.0986 -0.0761
  269MOL0     C36214   3.702   9.846   6.844 -0.4832 -0.1079  0.5947
  269MOL0     O36215   3.613   9.919   6.913 -0.2115  0.0320  0.8565
  269MOL0     C36216   3.684   9.999   7.001  0.5081  0.1697  0.3331
  269MOL0     C36217   3.587  10.079   7.088 -1.0706 -0.0366  0.1410
  269MOL0     C36218   3.512  10.003   7.194  0.8728  0.4095  0.5905
  269MOL0     C36219   3.410   9.905   7.137  1.1880  0.4981 -0.0686
  269MOL0     C36220   3.319   9.828   7.245 -0.1687 -0.2401  0.3965
  269MOL0     C36221   3.394   9.740   7.345 -0.3735  0.0642 -0.1001
  269MOL0     C36222   3.296   9.674   7.439 -0.2896 -0.0916  0.3255
  269MOL0     C36223   3.210   9.773   7.515  0.0871  0.4114  0.9163
  269MOL0    Cl36224   3.302   9.923   7.587 -0.6177 -0.0806  0.1216
  269MOL0     C36225   3.784   9.897   6.735  0.1868  0.3791 -0.8804
  269MOL0     C36226   3.870   9.807   6.667  0.5172 -1.2696  0.8971
  269MOL0     O36227   4.094   9.549   6.833  0.3702 -1.2422  0.4489
  269MOL0     C36228   4.226   9.329   6.702  1.0675 -0.5512 -0.8108
  269MOL0     C36229   4.277   9.222   6.642  0.1698 -0.1335 -0.1762
  269MOL0     N36230   3.963   8.550   6.202 -0.1385  0.2101  0.7457
  269MOL0     N36231   3.945   8.422   6.163 -0.6265 -0.0047  0.4680
  269MOL0     C36232   4.555   7.483   6.164 -0.6299 -1.5694 -0.3173
  269MOL0     C36233   4.656   7.453   6.074  0.3903  0.3214  0.0952
  269MOL0     C36234   5.070   7.263   5.976 -0.1430 -0.1378 -0.3845
  269MOL0     C36235   5.093   7.165   5.874 -0.4839  0.3729  0.8300
  269MOL0     C36236   5.215   7.151   5.808 -0.3088 -1.2392  0.3701
  269MOL0     C36237   5.311   7.247   5.818  0.6269  0.1035 -0.2448
  269MOL0     O36238   5.428   7.250   5.737  0.8363 -0.8061  0.3269
  269MOL0     C36239   5.416   7.206   5.598  0.0931  0.2345  0.8475
  269MOL0     C36240   5.507   7.288   5.511  0.9659  0.4177  0.8191
  269MOL0     C36241   5.649   7.227   5.508  0.9340  0.2080  0.0197
  269MOL0     C36242   5.748   7.296   5.416  0.7294  0.6884 -0.2079
  269MOL0     C36243   5.869   7.209   5.403  0.7548 -0.4108 -0.1366
  269MOL0     C36244   5.979   7.169   5.390 -0.1677 -0.5883  1.0465
  269MOL0     C36245   5.298   7.344   5.915 -0.5312 -0.2980  0.2669
  269MOL0     C36246   5.181   7.358   5.995  0.1355 -0.0344  0.1863
  269MOL0     C36247   5.180   7.452   6.115 -0.1433  0.1947  0.7108
  269MOL0     H36248   4.931   7.439   6.283  0.9619 -1.6309  0.2716
  269MOL0     H36249   4.748   7.497   6.443  0.4667  0.0475  0.2903
  269MOL0     H36250   4.393   7.688   6.247 -2.7126  0.2006  0.0547
  269MOL0     H36251   4.316   7.551   6.319 -0.3067  0.9047 -1.4544
  269MOL0     H36252   4.395   7.772   6.498  0.3851 -0.3644  0.5059
  269MOL0     H36253   4.292   7.637   6.532  1.1706 -0.4823 -0.0855
  269MOL0     H36254   4.146   7.731   6.347  0.6153 -2.4391  1.4516
  269MOL0     H36255   4.259   7.843   6.301  1.9440  0.4932  0.1689
  269MOL0     H36256   4.045   7.914   6.472  0.5027  0.4877  0.4422
  269MOL0     H36257   4.167   7.869   6.587  2.4924  3.8543  1.5383
  269MOL0     H36258   4.162   8.119   6.522  0.8188  0.8745 -1.0912
  269MOL0     H36259   4.317   8.041   6.520 -1.3031 -2.6548  2.7207
  269MOL0     H36260   4.273   8.198   6.332 -0.3074  0.7017  0.0255
  269MOL0     H36261   4.306   8.034   6.270  1.4936  2.4170 -0.4956
  269MOL0     H36262   4.003   8.102   6.322 -0.8458 -3.2537 -0.2387
  269MOL0     H36263   4.091   7.998   6.217 -0.5578 -0.1101  2.1767
  269MOL0     H36264   4.175   8.201   6.094 -1.0283 -1.9142  0.0397
  269MOL0     H36265   4.005   8.178   6.077 -1.2725 -2.0909  1.7331
  269MOL0     H36266   4.242   8.413   6.302  0.2367  1.1602 -0.2525
  269MOL0     H36267   4.152   8.635   6.442  0.2849 -0.7753 -0.3711
  269MOL0     H36268   4.270   8.667   6.317  0.1970 -1.4742  1.7769
  269MOL0     H36269   4.049   8.798   6.210 -2.3058 -0.0408 -0.0141
  269MOL0     H36270   4.013   8.818   6.387 -0.3971 -0.5598 -0.5769
  269MOL0     H36271   4.141   9.015   6.257  1.5291  0.0333 -0.8554
  269MOL0     H36272   4.275   8.897   6.251 -0.6803 -1.7846  0.4964
  269MOL0     H36273   4.279   8.887   6.488 -1.3261 -2.2489 -2.6087
  269MOL0     H36274   4.142   8.987   6.510 -0.6930 -0.5661 -2.0676
  269MOL0     H36275   4.164   9.288   6.330 -1.2862 -0.5492 -0.2989
  269MOL0     H36276   4.052   9.483   6.446  0.7530  0.3718 -1.2834
  269MOL0     H36277   3.806   9.521   6.845  0.5519 -0.0328  0.7159
  269MOL0     H36278   3.653   9.660   6.952 -0.6423  2.4413  1.1452
  269MOL0     H36279   3.750   9.952   7.073  1.9765  2.8035  0.8339
  269MOL0     H36280   3.728  10.081   6.944  0.3509  1.7750  2.4062
  269MOL0     H36281   3.643  10.153   7.145 -2.3903 -0.3959  1.9771
  269MOL0     H36282   3.514  10.123   7.018 -2.4753 -2.5592 -0.1163
  269MOL0     H36283   3.586   9.954   7.258 -0.1893 -1.2939  0.5546
  269MOL0     H36284   3.465  10.084   7.251  1.4853  1.1969 -0.0073
  269MOL0     H36285   3.458   9.832   7.070  1.5918  4.5036 -4.7260
  269MOL0     H36286   3.334   9.957   7.079 -0.0487  0.1125  1.1453
  269MOL0     H36287   3.235   9.773   7.202 -0.9647 -0.3764  2.0694
  269MOL0     H36288   3.264   9.904   7.301 -1.8697 -2.4088  1.7964
  269MOL0     H36289   3.444   9.656   7.296  0.6041  0.4556  0.1919
  269MOL0     H36290   3.461   9.801   7.407  0.1039 -0.7304  0.1926
  269MOL0     H36291   3.371   9.617   7.494 -0.3321  0.0438  0.5274
  269MOL0     H36292   3.232   9.610   7.378  2.0323  0.1084 -2.5358
  269MOL0     H36293   3.135   9.812   7.446 -1.0108 -0.8019  1.3901
  269MOL0     H36294   3.158   9.719   7.595 -4.3456  1.1643 -1.2057
  269MOL0     H36295   3.773   9.996   6.694 -3.6856 -0.3233 -1.8735
  269MOL0     H36296   3.923   9.845   6.580 -4.6903  3.6742 -0.6653
  269MOL0     H36297   4.222   9.330   6.810 -4.0829 -0.9739 -0.7712
  269MOL0     H36298   4.328   9.144   6.698  0.7084  1.8315  2.2650
  269MOL0     H36299   4.450   7.492   6.137 -0.3609  2.3525 -0.6279
  269MOL0     H36300   4.627   7.426   5.972  0.9614  1.1372 -0.2899
  269MOL0     H36301   5.015   7.090   5.866 -0.2500  0.2339 -0.3080
  269MOL0     H36302   5.217   7.073   5.732  1.7700  0.2819 -1.2606
  269MOL0     H36303   5.319   7.222   5.551  1.8875  2.1813 -2.5019
  269MOL0     H36304   5.432   7.097   5.600 -2.1737 -0.2080 -1.2400
  269MOL0     H36305   5.509   7.392   5.545 -0.5105  0.0766  2.0956
  269MOL0     H36306   5.462   7.288   5.412  0.8021  2.3989  0.8456
  269MOL0     H36307   5.637   7.126   5.469 -2.9449  0.7179 -0.5428
  269MOL0     H36308   5.700   7.226   5.605 -0.5451  0.4459  0.8254
  269MOL0     H36309   5.711   7.305   5.313 -0.0383  1.5876  0.1363
  269MOL0     H36310   5.770   7.395   5.458  0.8165  0.1487  1.0588
  269MOL0     H36311   6.082   7.141   5.381 -0.3366 -0.8489 -0.3249
  269MOL0     H36312   5.376   7.417   5.930 -1.4264  0.3873  1.7378
  269MOL0     H36313   5.125   7.412   6.201 -0.6512 -2.8638 -0.9264
  269MOL0     H36314   5.283   7.445   6.151  0.4504 -0.9698 -1.0616
  269MOL0     H36315   5.143   7.552   6.088 -1.8003 -0.6658 -0.4072
  270MOL0     O36316   9.629   7.097   5.762 -0.3585  0.6298  0.5157
  270MOL0     C36317   9.516   7.049   5.733  0.2905  0.9337  0.5166
  270MOL0     O36318   9.458   7.054   5.612  0.4960 -0.0954  0.2846
  270MOL0     C36319   9.525   7.113   5.507 -0.0352 -0.3326  0.0280
  270MOL0     C36320   9.567   7.032   5.400 -0.3632 -0.3012  0.3567
  270MOL0     C36321   9.646   7.082   5.299  0.6975 -1.2573  0.2284
  270MOL0     C36322   9.689   7.214   5.301 -0.0478  0.2469  0.5055
  270MOL0     O36323   9.760   7.269   5.208 -0.5590 -0.7069 -0.6349
  270MOL0     C36324   9.694   7.266   5.075  0.0352  0.3877 -0.3361
  270MOL0     C36325   9.784   7.352   4.980 -0.4475  0.2957 -0.3769
  270MOL0     C36326   9.721   7.384   4.845  0.2185  0.1276  0.4692
  270MOL0     C36327   9.822   7.468   4.776  0.1114 -0.1609  0.2122
  270MOL0     C36328   9.783   7.504   4.632 -0.1028 -0.3606  0.2672
  270MOL0     C36329   9.870   7.632   4.585 -0.0826 -0.1547 -0.0622
  270MOL0     C36330  10.025   7.614   4.566 -0.4689  1.0538 -0.1373
  270MOL0     C36331  10.054   7.698   4.439 -0.4107  0.5844 -0.9261
  270MOL0     N36332  10.045   7.846   4.452  0.2938 -0.3046 -0.1722
  270MOL0     C36333  10.130   7.915   4.528 -0.6248 -0.4807  0.9691
  270MOL0     C36334  10.115   8.048   4.503 -0.3035  0.6551  0.3007
  270MOL0     C36335  10.173   8.164   4.588 -0.7821  1.0551  0.4864
  270MOL0     C36336  10.271   8.253   4.523 -0.8035 -0.5436 -0.5500
  270MOL0     C36337  10.217   8.355   4.415  1.0833 -0.5978  0.4559
  270MOL0     C36338  10.318   8.443   4.333 -0.2074  0.6124  0.4571
  270MOL0     O36339  10.320   8.581   4.376  0.2186 -0.5721  0.2856
  270MOL0     C36340  10.220   8.669   4.349 -0.7096  0.6668  0.7489
  270MOL0     C36341  10.122   8.637   4.255  0.5092  0.7996  0.5321
  270MOL0     C36342  10.021   8.720   4.230  0.3386  0.4296 -0.1210
  270MOL0     C36343  10.014   8.844   4.290  0.1382 -0.0805 -0.3385
  270MOL0     C36344   9.909   8.943   4.250  0.4825 -0.2727 -0.5281
  270MOL0     O36345   9.844   8.916   4.131 -0.1647 -0.4854 -0.3934
  270MOL0     C36346   9.730   8.994   4.112  0.2573 -0.3505  0.2115
  270MOL0     C36347   9.627   8.977   4.197 -0.0517  0.4701 -1.5744
  270MOL0     C36348   9.504   9.044   4.175  0.3769  1.3555 -0.0431
  270MOL0     C36349   9.480   9.114   4.059 -0.5418 -0.5752 -0.8053
  270MOL0     O36350   9.354   9.147   4.016 -0.8109 -0.1008 -0.3870
  270MOL0     C36351   9.341   9.280   3.958 -0.0985  0.0896  0.1696
  270MOL0     C36352   9.195   9.330   3.946  0.5152  0.9409  0.8831
  270MOL0     C36353   9.188   9.470   3.899  1.1362 -0.9431 -0.1503
  270MOL0     C36354   9.041   9.504   3.872 -0.2293 -0.1357 -0.1207
  270MOL0     C36355   9.051   9.637   3.791  0.4152 -0.0410  0.0724
  270MOL0     C36356   8.914   9.701   3.795 -0.2796 -0.6420  0.2408
  270MOL0     C36357   8.873   9.761   3.663 -0.0264  0.8028 -1.3670
  270MOL0     C36358   8.734   9.791   3.649  0.4981  0.4720  0.0329
  270MOL0    Cl36359   8.669   9.929   3.751  0.2103 -0.1688 -0.1295
  270MOL0     C36360   9.585   9.120   3.967  0.2684  0.0610  0.2219
  270MOL0     C36361   9.715   9.074   4.003 -0.0043  0.8222 -0.1285
  270MOL0     O36362   9.889   9.038   4.330 -0.5368  0.6144  0.0002
  270MOL0     C36363  10.124   8.884   4.379  0.4963 -0.3980  0.6690
  270MOL0     C36364  10.218   8.790   4.422  0.2666  1.1020  0.2778
  270MOL0     N36365  10.003   8.055   4.418  0.1801  0.8286  0.9685
  270MOL0     N36366   9.963   7.933   4.377 -0.2392  1.1336  0.2213
  270MOL0     C36367   9.652   7.294   5.406 -0.4048  0.6437 -0.2021
  270MOL0     C36368   9.568   7.247   5.510 -0.3648 -0.9561  0.1901
  270MOL0     C36369   9.443   6.950   5.824 -0.4538  0.8609  0.2507
  270MOL0     C36370   9.332   6.877   5.778 -0.4967 -1.0957 -0.4526
  270MOL0     C36371   9.254   6.795   5.859 -0.0433  0.0363  0.3444
  270MOL0     C36372   9.294   6.767   5.992 -0.1428 -0.1277 -0.2892
  270MOL0     O36373   9.249   6.667   6.067  0.7452  0.2574 -0.0193
  270MOL0     C36374   9.115   6.616   6.051  0.9530 -0.4976  0.0545
  270MOL0     C36375   9.127   6.492   5.970  0.0155  0.1572  0.1422
  270MOL0     C36376   9.020   6.378   5.991  0.2858 -0.7994  0.7448
  270MOL0     C36377   8.876   6.428   5.960 -0.2447  0.6178  0.2656
  270MOL0     C36378   8.792   6.310   5.947  0.3619  0.4145 -0.0570
  270MOL0     C36379   8.702   6.220   5.945  0.1328 -0.1370  0.2894
  270MOL0     C36380   9.411   6.837   6.036 -0.6581  0.7775 -0.3864
  270MOL0     C36381   9.480   6.933   5.961 -0.5549  0.4908  0.6123
  270MOL0     C36382   9.591   7.016   6.020 -0.6527  0.4636  0.0751
  270MOL0     H36383   9.539   6.927   5.407 -0.6757 -0.5940 -3.3482
  270MOL0     H36384   9.655   7.013   5.216 -3.6712  0.7405 -2.2845
  270MOL0     H36385   9.687   7.161   5.045 -1.5206 -0.1144  1.5631
  270MOL0     H36386   9.591   7.301   5.065 -0.6179 -1.7109 -1.6956
  270MOL0     H36387   9.876   7.297   4.959  0.9846  1.0157  3.3295
  270MOL0     H36388   9.822   7.435   5.040  1.7107 -1.5767  0.9980
  270MOL0     H36389   9.625   7.433   4.862 -0.1048  0.0626 -1.0126
  270MOL0     H36390   9.704   7.299   4.778  0.1633  0.6738 -0.2314
  270MOL0     H36391   9.842   7.552   4.843 -0.1325 -1.1749  1.6051
  270MOL0     H36392   9.908   7.404   4.754 -0.1898 -0.5341  0.1036
  270MOL0     H36393   9.798   7.428   4.555  0.8871 -2.0886  2.0629
  270MOL0     H36394   9.675   7.518   4.645 -0.0166 -0.2160  0.8786
  270MOL0     H36395   9.818   7.659   4.492  0.4462 -3.0808 -1.3205
  270MOL0     H36396   9.863   7.718   4.653 -1.4856  0.9906 -1.5576
  270MOL0     H36397  10.050   7.510   4.542  2.3566  1.1606  1.8302
  270MOL0     H36398  10.081   7.650   4.652  0.5663  3.0673 -1.5887
  270MOL0     H36399  10.160   7.671   4.441 -0.2512  1.1760 -1.4030
  270MOL0     H36400   9.993   7.645   4.365  0.0985 -2.9161  0.9184
  270MOL0     H36401  10.220   7.879   4.577  0.5019 -0.4112 -0.9264
  270MOL0     H36402  10.093   8.224   4.633  0.5481  2.2904  1.2683
  270MOL0     H36403  10.228   8.128   4.675  1.3616 -0.4594 -1.3805
  270MOL0     H36404  10.320   8.303   4.607 -2.1456  0.9216 -0.5984
  270MOL0     H36405  10.346   8.185   4.481  2.4590  1.5508  1.4045
  270MOL0     H36406  10.144   8.413   4.472  1.0741 -1.3793  1.2695
  270MOL0     H36407  10.164   8.300   4.337  0.9188  0.3689 -0.1287
  270MOL0     H36408  10.301   8.438   4.224 -1.6327 -0.7518  0.6930
  270MOL0     H36409  10.408   8.381   4.344 -2.6535 -3.2849  0.6019
  270MOL0     H36410  10.129   8.542   4.205  2.3757  0.3828  1.4856
  270MOL0     H36411   9.962   8.681   4.148  0.3345 -3.9970  1.7332
  270MOL0     H36412   9.643   8.909   4.281  2.0655  1.1840 -1.3448
  270MOL0     H36413   9.420   9.016   4.238 -0.4888  1.2691 -1.2126
  270MOL0     H36414   9.398   9.339   4.030 -2.6170 -2.8803  5.2172
  270MOL0     H36415   9.394   9.289   3.863  0.5945  1.6175  0.6770
  270MOL0     H36416   9.140   9.261   3.880  0.6760 -0.6851  2.3775
  270MOL0     H36417   9.150   9.322   4.045  2.1927 -1.9714  1.5087
  270MOL0     H36418   9.222   9.533   3.981 -2.4585  1.1781 -0.1093
  270MOL0     H36419   9.248   9.491   3.809 -0.2635  1.1887 -0.6613
  270MOL0     H36420   8.986   9.511   3.966 -1.3241  0.7256 -0.8099
  270MOL0     H36421   8.984   9.429   3.817  0.2582 -1.5619  1.2454
  270MOL0     H36422   9.070   9.619   3.685 -2.9985  1.0038 -0.8186
  270MOL0     H36423   9.128   9.703   3.833  0.7673 -1.6195  2.0658
  270MOL0     H36424   8.838   9.644   3.850  1.6108 -0.2920  3.5099
  270MOL0     H36425   8.933   9.798   3.842  2.2085  0.2087 -2.2284
  270MOL0     H36426   8.890   9.687   3.585 -5.2486  0.0105 -2.1090
  270MOL0     H36427   8.932   9.846   3.628 -1.5299  2.9570  0.9350
  270MOL0     H36428   8.722   9.809   3.542 -0.0009 -1.7680 -0.3435
  270MOL0     H36429   8.672   9.708   3.684 -0.2067  0.9166 -0.1471
  270MOL0     H36430   9.571   9.161   3.868  0.2788  0.8036  0.5132
  270MOL0     H36431   9.793   9.082   3.929 -2.0454 -1.5621 -2.7508
  270MOL0     H36432  10.109   8.978   4.432  0.1324  0.5226 -1.0099
  270MOL0     H36433  10.293   8.806   4.499  1.1915 -0.2873 -0.3113
  270MOL0     H36434   9.686   7.397   5.407  0.6996  0.5216 -4.4348
  270MOL0     H36435   9.540   7.324   5.581 -2.1267  0.8490 -2.2411
  270MOL0     H36436   9.297   6.894   5.677 -0.3081  4.0343  0.0851
  270MOL0     H36437   9.163   6.748   5.821 -1.3515  3.2267 -0.8635
  270MOL0     H36438   9.051   6.683   5.993  0.1265 -0.1299  1.3444
  270MOL0     H36439   9.062   6.600   6.145 -2.3498  4.3778 -0.5847
  270MOL0     H36440   9.220   6.440   5.996 -1.1898 -0.5705  3.6053
  270MOL0     H36441   9.128   6.534   5.869 -0.3135  0.3446  0.2150
  270MOL0     H36442   9.022   6.342   6.094 -0.0054 -0.1930  0.9693
  270MOL0     H36443   9.045   6.298   5.922 -0.0707 -1.1037  0.9667
  270MOL0     H36444   8.837   6.490   6.041 -0.5603 -0.5478  1.0410
  270MOL0     H36445   8.882   6.486   5.867  0.8376 -0.0777 -0.1168
  270MOL0     H36446   8.627   6.146   5.928  0.4378 -0.2121 -0.7614
  270MOL0     H36447   9.453   6.814   6.133  0.5311  1.6771 -0.6674
  270MOL0     H36448   9.587   7.000   6.129 -0.4424 -0.7533 -0.0785
  270MOL0     H36449   9.690   6.981   5.989 -1.7922 -2.7349 -0.3363
  270MOL0     H36450   9.568   7.122   6.009  0.3171  0.7330  0.5072
  271MOL0     O36451   9.283  11.158  10.638 -0.1096  0.3013 -1.0290
  271MOL0     C36452   9.305  11.221  10.740  0.2777  0.2652  0.9464
  271MOL0     O36453   9.264  11.193  10.863 -0.3220 -0.8144  0.4766
  271MOL0     C36454   9.176  11.089  10.897  0.4129 -0.4616 -0.8616
  271MOL0     C36455   9.102  11.002  10.805 -0.4319  0.1279 -0.6743
  271MOL0     C36456   9.038  10.891  10.864 -0.1515  0.8501  0.0877
  271MOL0     C36457   9.029  10.873  11.007 -0.3983  0.2873 -0.4986
  271MOL0     O36458   8.971  10.758  11.052  0.4613  0.3591 -0.3148
  271MOL0     C36459   9.059  10.674  11.128 -0.6990 -0.1820  0.2420
  271MOL0     C36460   9.056  10.530  11.090  0.1085 -0.2018 -1.2664
  271MOL0     C36461   8.948  10.442  11.154 -0.0419  1.0457  0.2571
  271MOL0     C36462   8.951  10.296  11.104  0.9628 -0.0127  0.3049
  271MOL0     C36463   9.053  10.209  11.170  0.1822  0.2281  0.2337
  271MOL0     C36464   9.036  10.070  11.140 -0.5752  0.6094  0.1856
  271MOL0     C36465   9.130   9.981  11.231 -0.9373  0.4834 -0.1318
  271MOL0     C36466   9.277  10.014  11.218  0.9674  1.1139 -0.4672
  271MOL0     N36467   9.311  10.011  11.076  0.2771  0.4550 -0.3860
  271MOL0     C36468   9.345  10.115  10.989  0.4317 -0.3929 -0.2935
  271MOL0     C36469   9.330  10.059  10.864 -0.4403 -0.2086 -0.0466
  271MOL0     C36470   9.363  10.134  10.735  0.7335 -1.2731 -0.3177
  271MOL0     C36471   9.236  10.176  10.660 -0.3358 -0.2816 -0.3025
  271MOL0     C36472   9.131  10.233  10.749 -0.2111 -0.7488 -0.1549
  271MOL0     C36473   9.030  10.316  10.670  0.4674  0.8995 -0.0718
  271MOL0     O36474   9.074  10.450  10.668  0.0885 -0.6810 -0.9469
  271MOL0     C36475   9.030  10.543  10.578 -0.5922  1.1384  0.7670
  271MOL0     C36476   9.100  10.662  10.572  0.0025 -0.0959 -0.2749
  271MOL0     C36477   9.066  10.775  10.500 -1.5867 -0.1297  0.1464
  271MOL0     C36478   8.954  10.781  10.431  0.2228 -0.2441  0.3960
  271MOL0     C36479   8.906  10.913  10.375 -0.1891  0.4743  0.0039
  271MOL0     O36480   8.986  11.029  10.378  0.5631 -0.4408 -0.4167
  271MOL0     C36481   8.920  11.135  10.317  0.2498  0.8299 -0.9793
  271MOL0     C36482   8.863  11.236  10.395  0.9340  0.7369 -0.0361
  271MOL0     C36483   8.789  11.342  10.333  0.4072  1.7130 -0.0762
  271MOL0     C36484   8.776  11.339  10.191 -0.2995 -0.0619 -0.5726
  271MOL0     O36485   8.703  11.431  10.123  0.8595 -0.8715  0.4390
  271MOL0     C36486   8.764  11.566  10.129  0.4212  0.3540 -0.2701
  271MOL0     C36487   8.696  11.646  10.028  0.6366 -0.8962  1.0345
  271MOL0     C36488   8.742  11.792  10.042  1.1500 -0.1301  0.1564
  271MOL0     C36489   8.680  11.878   9.941  0.3655  0.3733  0.2974
  271MOL0     C36490   8.694  12.025   9.980  1.9663  0.3624 -0.2033
  271MOL0     C36491   8.615  12.117   9.877  0.5561 -0.4903 -1.1541
  271MOL0     C36492   8.610  12.267   9.910 -0.5616  0.2463  0.3432
  271MOL0     C36493   8.527  12.310  10.033  0.0038 -0.4402 -1.4547
  271MOL0    Cl36494   8.563  12.478  10.091  0.0476  0.3572  0.2645
  271MOL0     C36495   8.839  11.243  10.121 -0.6312 -0.6305 -0.6604
  271MOL0     C36496   8.910  11.141  10.176 -0.8284  0.1510 -0.3054
  271MOL0     O36497   8.793  10.904  10.325 -0.6108  0.1586 -0.0387
  271MOL0     C36498   8.877  10.664  10.437  0.7068  0.9947 -0.7363
  271MOL0     C36499   8.915  10.540  10.501  0.4161  0.4374 -0.2346
  271MOL0     N36500   9.299   9.927  10.871  0.1341  0.0725  0.6397
  271MOL0     N36501   9.291   9.896  10.995  0.0062  0.1090 -0.3548
  271MOL0     C36502   9.075  10.976  11.086 -0.5327  0.4205 -0.3650
  271MOL0     C36503   9.157  11.084  11.036 -0.6069  0.3001  0.3833
  271MOL0     C36504   9.350  11.367  10.736 -0.4815  0.5986 -0.1414
  271MOL0     C36505   9.265  11.463  10.792 -0.2365 -0.4829  1.3610
  271MOL0     C36506   9.280  11.604  10.770  0.4296  0.1923  0.1800
  271MOL0     C36507   9.384  11.644  10.687  0.5796  0.0476  0.1334
  271MOL0     O36508   9.392  11.773  10.654 -0.3256 -0.4248  0.1335
  271MOL0     C36509   9.509  11.826  10.605 -0.4248 -0.2388  0.1674
  271MOL0     C36510   9.486  11.976  10.590 -0.6921 -0.1363  0.0510
  271MOL0     C36511   9.461  12.062  10.719 -1.0662  0.3459 -0.1044
  271MOL0     C36512   9.525  12.199  10.707 -0.1535 -0.7260  0.0140
  271MOL0     C36513   9.474  12.271  10.597 -0.3063  0.8466  0.0730
  271MOL0     C36514   9.452  12.314  10.487 -0.4870  0.6910 -0.2820
  271MOL0     C36515   9.476  11.550  10.632 -0.0229 -0.5369  0.4337
  271MOL0     C36516   9.452  11.411  10.657  0.1157  0.8493  0.5594
  271MOL0     C36517   9.552  11.315  10.597 -0.1056 -0.0343  0.6883
  271MOL0     H36518   9.100  11.027  10.699 -0.3313 -1.7363 -1.1564
  271MOL0     H36519   8.994  10.814  10.801  1.2285 -0.0998  0.2328
  271MOL0     H36520   9.158  10.721  11.129  0.4756 -2.4489 -1.0454
  271MOL0     H36521   9.009  10.684  11.225 -1.6674  0.7540 -0.3221
  271MOL0     H36522   9.150  10.480  11.117 -0.5396 -0.5328  0.4623
  271MOL0     H36523   9.038  10.525  10.982  0.5983 -2.5780 -1.2918
  271MOL0     H36524   8.856  10.493  11.124 -0.8534 -1.4824 -1.8738
  271MOL0     H36525   8.952  10.433  11.263  2.5750  2.4654  0.3896
  271MOL0     H36526   8.854  10.254  11.134 -0.1244 -0.5212 -3.4280
  271MOL0     H36527   8.947  10.292  10.995 -1.8215  0.0002  0.3229
  271MOL0     H36528   9.158  10.231  11.149  0.0341  1.1547  0.3995
  271MOL0     H36529   9.031  10.238  11.273 -1.8506  4.7288 -1.1696
  271MOL0     H36530   8.936  10.033  11.166 -0.9521 -3.5010 -5.3093
  271MOL0     H36531   9.059  10.067  11.033 -0.6865  5.0227 -0.1650
  271MOL0     H36532   9.111   9.875  11.209  1.5559  0.1107 -0.7514
  271MOL0     H36533   9.105   9.997  11.336  2.9168  2.1867  0.6664
  271MOL0     H36534   9.303  10.106  11.271  1.5193  0.1270  1.0333
  271MOL0     H36535   9.322   9.928  11.269 -4.8209 -1.1455  1.5692
  271MOL0     H36536   9.367  10.219  11.010 -2.0583  0.6876 -2.4459
  271MOL0     H36537   9.404  10.228  10.772 -5.3224  0.6410  2.9662
  271MOL0     H36538   9.433  10.068  10.684  2.0964  0.6709 -1.0742
  271MOL0     H36539   9.263  10.248  10.582 -2.9908  0.6785 -0.4568
  271MOL0     H36540   9.192  10.094  10.602  1.8624  2.1812 -6.2751
  271MOL0     H36541   9.183  10.285  10.830 -2.4719  0.3732  0.6667
  271MOL0     H36542   9.077  10.146  10.785  2.6567 -3.4547 -1.8767
  271MOL0     H36543   8.940  10.328  10.731 -0.7428 -4.8898 -0.1482
  271MOL0     H36544   9.003  10.280  10.570 -0.7519 -0.4890  0.7346
  271MOL0     H36545   9.182  10.668  10.643  0.0162 -3.1882  0.1144
  271MOL0     H36546   9.141  10.853  10.490  0.9320 -1.8960  3.5774
  271MOL0     H36547   8.857  11.231  10.504 -0.3758 -3.3242 -0.1112
  271MOL0     H36548   8.741  11.420  10.392  1.5960  3.7374 -1.6322
  271MOL0     H36549   8.751  11.605  10.230  0.7799 -2.1821  0.8379
  271MOL0     H36550   8.873  11.569  10.116  0.3711 -2.8473 -2.3375
  271MOL0     H36551   8.737  11.613   9.932 -1.5638 -1.2861  0.1716
  271MOL0     H36552   8.588  11.632  10.027  0.2699  0.5456 -3.4283
  271MOL0     H36553   8.725  11.830  10.143 -2.3235 -0.1986 -0.2589
  271MOL0     H36554   8.850  11.787  10.025  0.9203  0.0755 -1.4999
  271MOL0     H36555   8.573  11.857   9.941  0.2793  0.7300  1.2637
  271MOL0     H36556   8.718  11.868   9.839 -2.3637 -3.0527 -0.5448
  271MOL0     H36557   8.800  12.051   9.980  2.8936 -2.7930  1.6736
  271MOL0     H36558   8.661  12.050  10.082  1.1978 -2.1674  0.2407
  271MOL0     H36559   8.671  12.116   9.784  1.9361  0.4079 -0.3592
  271MOL0     H36560   8.510  12.084   9.875  0.5281 -1.4102  3.2783
  271MOL0     H36561   8.552  12.298   9.824  0.2281 -1.7362 -0.9830
  271MOL0     H36562   8.709  12.312   9.898 -0.2102 -0.4198  0.6449
  271MOL0     H36563   8.422  12.319  10.001 -0.4728 -1.1438 -0.1740
  271MOL0     H36564   8.539  12.246  10.121  2.3498 -0.8233 -1.9901
  271MOL0     H36565   8.834  11.240  10.012 -0.0011 -2.2891 -0.6608
  271MOL0     H36566   8.962  11.071  10.110  1.7755  2.2680 -0.6915
  271MOL0     H36567   8.783  10.665  10.383 -0.8783  1.0803  1.8342
  271MOL0     H36568   8.838  10.464  10.502 -2.7781  3.3646 -2.4862
  271MOL0     H36569   9.057  10.977  11.193  0.0353  0.4819 -0.2629
  271MOL0     H36570   9.197  11.160  11.102  0.2388  1.8031 -1.7660
  271MOL0     H36571   9.176  11.432  10.845 -3.1260  1.0617 -2.1198
  271MOL0     H36572   9.215  11.680  10.811  0.5385  1.7851 -2.4112
  271MOL0     H36573   9.531  11.787  10.505 -1.9909 -0.0307 -0.3004
  271MOL0     H36574   9.588  11.803  10.677  1.8370  1.8809 -1.4949
  271MOL0     H36575   9.396  11.985  10.528  0.5749  0.6945 -1.7467
  271MOL0     H36576   9.576  12.019  10.546 -2.2621  1.1512 -2.1024
  271MOL0     H36577   9.504  12.010  10.806  1.0300  3.2378  0.7397
  271MOL0     H36578   9.353  12.070  10.730 -1.1925  2.7812 -2.3916
  271MOL0     H36579   9.503  12.256  10.798 -3.5898 -1.2725 -0.3290
  271MOL0     H36580   9.634  12.194  10.704  0.1174  2.6510 -3.7124
  271MOL0     H36581   9.431  12.364  10.395 -0.1801  0.9339 -0.2217
  271MOL0     H36582   9.559  11.574  10.566 -0.3783 -1.6494 -0.4579
  271MOL0     H36583   9.542  11.314  10.489 -0.4532 -1.1427  0.7176
  271MOL0     H36584   9.654  11.347  10.620  0.7499 -1.3488 -1.0414
  271MOL0     H36585   9.547  11.211  10.631  2.2092 -0.8391 -1.1706
  272MOL0     O36586  11.073   0.275   0.699 -0.7713 -0.1612 -0.4470
  272MOL0     C36587  10.971   0.280   0.770 -0.2405 -1.1915 -0.0160
  272MOL0     O36588  10.875   0.186   0.772  0.6518  0.3404 -0.8271
  272MOL0     C36589  10.923   0.066   0.727  0.2351  0.1173 -1.1894
  272MOL0     C36590  10.980  -0.026   0.811 -0.5318 -0.5676  0.0489
  272MOL0     C36591  11.004  -0.159   0.769 -0.2631 -0.3668  0.4517
  272MOL0     C36592  11.006  -0.188   0.637 -0.3371 -0.4983  0.1683
  272MOL0     O36593  11.034  -0.322   0.604  0.0631  0.5982  0.2124
  272MOL0     C36594  10.915  -0.402   0.609 -0.0356 -0.2106 -0.1782
  272MOL0     C36595  10.929  -0.537   0.528  0.0128 -0.2905 -0.4872
  272MOL0     C36596  10.955  -0.520   0.376  0.5277 -0.4113 -0.4214
  272MOL0     C36597  10.988  -0.652   0.307 -0.2088 -0.1906  0.1962
  272MOL0     C36598  11.010  -0.648   0.154  1.1601  0.6217 -0.1481
  272MOL0     C36599  10.883  -0.634   0.072  1.1463  0.9144 -0.3413
  272MOL0     C36600  10.925  -0.623  -0.081 -0.1291 -0.5401 -0.5406
  272MOL0     C36601  10.795  -0.606  -0.169  1.2146 -0.3928  0.8231
  272MOL0     N36602  10.757  -0.466  -0.201  0.4803 -0.2257  0.4167
  272MOL0     C36603  10.782  -0.363  -0.118 -0.1384 -0.5902 -0.1196
  272MOL0     C36604  10.717  -0.259  -0.175  0.4829 -0.2427 -1.5240
  272MOL0     C36605  10.691  -0.128  -0.119 -0.2280  0.9538  0.8927
  272MOL0     C36606  10.542  -0.103  -0.114  1.5684 -0.9611 -0.4535
  272MOL0     C36607  10.500   0.024  -0.045 -0.3258  0.3717 -0.9522
  272MOL0     C36608  10.574   0.148  -0.102 -0.5125 -0.3627  0.2372
  272MOL0     O36609  10.481   0.260  -0.122  0.0939 -0.5216 -1.4098
  272MOL0     C36610  10.426   0.321  -0.007 -0.5579 -0.7201  0.2643
  272MOL0     C36611  10.480   0.331   0.116 -0.6979  0.1942 -0.2986
  272MOL0     C36612  10.409   0.380   0.219 -0.5785 -0.5622 -0.8783
  272MOL0     C36613  10.289   0.450   0.206  0.1485  0.2590 -0.3143
  272MOL0     C36614  10.220   0.524   0.316 -0.5763 -0.1324 -0.5732
  272MOL0     O36615  10.238   0.464   0.438 -0.3527  0.0204  0.4171
  272MOL0     C36616  10.203   0.557   0.544 -0.4963 -0.6701  0.4608
  272MOL0     C36617  10.260   0.688   0.553 -0.2807  0.1091  0.0718
  272MOL0     C36618  10.211   0.768   0.646  0.1826  0.3158  0.2060
  272MOL0     C36619  10.128   0.732   0.745  0.4444  0.4468 -0.7059
  272MOL0     O36620  10.061   0.814   0.837 -0.2024  0.4224 -0.6164
  272MOL0     C36621  10.087   0.959   0.845 -0.0842  2.0560 -0.1459
  272MOL0     C36622  10.030   1.039   0.724 -0.7329 -0.1480 -0.4732
  272MOL0     C36623   9.887   1.067   0.737 -0.6616  0.0337 -0.4442
  272MOL0     C36624   9.837   1.114   0.598  0.1377 -1.5258 -0.5957
  272MOL0     C36625   9.686   1.153   0.608  0.3123  0.3160 -0.0515
  272MOL0     C36626   9.653   1.231   0.481  0.7463 -0.1358  0.3761
  272MOL0     C36627   9.513   1.300   0.485 -0.1693  0.3831 -0.7954
  272MOL0     C36628   9.471   1.355   0.345  0.8895  0.0582 -0.7463
  272MOL0    Cl36629   9.298   1.420   0.366  0.1707  0.3571 -0.4438
  272MOL0     C36630  10.080   0.600   0.738 -0.2467 -0.1044  1.2142
  272MOL0     C36631  10.113   0.513   0.630  1.4847  0.0890 -0.7507
  272MOL0     O36632  10.141   0.619   0.295 -0.2195  0.1118 -0.0720
  272MOL0     C36633  10.249   0.465   0.075  0.4782 -0.3752  0.6720
  272MOL0     C36634  10.312   0.398  -0.031 -1.1896  0.2004 -1.5410
  272MOL0     N36635  10.650  -0.300  -0.288 -0.3186  0.1235 -0.3793
  272MOL0     N36636  10.665  -0.427  -0.301 -0.0510  0.4647 -0.9354
  272MOL0     C36637  10.960  -0.093   0.545 -1.0267 -1.2610 -0.1428
  272MOL0     C36638  10.920   0.031   0.590  0.5169 -0.4326  0.1177
  272MOL0     C36639  10.930   0.397   0.856  0.6448 -0.0041  0.1298
  272MOL0     C36640  10.833   0.373   0.966 -0.1998 -0.4405  0.3517
  272MOL0     C36641  10.787   0.494   1.023 -0.1230 -0.5523  0.0621
  272MOL0     C36642  10.848   0.615   1.013  0.1361 -1.0858 -0.2957
  272MOL0     O36643  10.808   0.717   1.106  0.7596  0.0431  0.3554
  272MOL0     C36644  10.909   0.804   1.153  0.0883 -0.5761 -0.5301
  272MOL0     C36645  10.980   0.734   1.271 -0.7214 -0.8777  0.0188
  272MOL0     C36646  10.879   0.671   1.373 -0.5881 -0.5639  0.7037
  272MOL0     C36647  10.791   0.773   1.448 -0.2913  0.0539 -0.4683
  272MOL0     C36648  10.872   0.884   1.503  0.1636 -1.1638  0.7023
  272MOL0     C36649  10.933   0.971   1.554 -0.0690 -0.2236 -0.4132
  272MOL0     C36650  10.948   0.637   0.913  0.6377 -0.2242 -0.4815
  272MOL0     C36651  10.989   0.530   0.835 -0.1691  0.2583 -0.1003
  272MOL0     C36652  11.095   0.563   0.737  0.0677 -0.2999 -0.3951
  272MOL0     H36653  10.987   0.004   0.915 -0.4317 -0.2200 -0.0573
  272MOL0     H36654  11.029  -0.231   0.847 -4.4714 -2.8593 -0.1253
  272MOL0     H36655  10.905  -0.436   0.712  1.7699  1.1633  0.5105
  272MOL0     H36656  10.833  -0.341   0.571 -1.7522 -2.2646  0.0575
  272MOL0     H36657  10.836  -0.594   0.537  1.7138 -3.0054  4.7332
  272MOL0     H36658  11.019  -0.587   0.567 -0.8048  0.4590  2.6489
  272MOL0     H36659  11.036  -0.449   0.359 -0.3728  0.7184 -0.1664
  272MOL0     H36660  10.861  -0.487   0.330 -0.3202 -2.3294 -0.1372
  272MOL0     H36661  11.073  -0.711   0.344  0.6927 -1.5880 -3.5520
  272MOL0     H36662  10.904  -0.719   0.326  0.8302 -0.7694  3.1889
  272MOL0     H36663  11.068  -0.556   0.140  0.1389  2.0063  3.5923
  272MOL0     H36664  11.065  -0.737   0.123 -2.3854 -2.3002  1.1831
  272MOL0     H36665  10.826  -0.726   0.091  1.3876  1.1398  1.7955
  272MOL0     H36666  10.825  -0.552   0.115  1.0304  0.7885 -0.2567
  272MOL0     H36667  10.981  -0.715  -0.104 -3.1560 -2.7174  0.2082
  272MOL0     H36668  10.992  -0.541  -0.108 -1.4267  1.3705  1.7442
  272MOL0     H36669  10.799  -0.658  -0.265 -1.6332 -2.8989  1.9009
  272MOL0     H36670  10.713  -0.661  -0.122  0.7152 -1.3300 -1.0658
  272MOL0     H36671  10.814  -0.358  -0.014  0.4227  3.7788 -0.3055
  272MOL0     H36672  10.740  -0.121  -0.021  0.3465 -2.0678  0.9296
  272MOL0     H36673  10.732  -0.055  -0.189  1.6336  1.0866  2.0428
  272MOL0     H36674  10.501  -0.089  -0.214 -0.9276 -0.7409  0.5193
  272MOL0     H36675  10.491  -0.181  -0.057  0.0397  1.8409  2.3809
  272MOL0     H36676  10.536   0.022   0.058  0.1541  3.2878 -0.9621
  272MOL0     H36677  10.391   0.031  -0.037 -0.2443  0.1894  0.7075
  272MOL0     H36678  10.614   0.119  -0.200 -1.0864 -0.2522 -0.0396
  272MOL0     H36679  10.658   0.184  -0.043 -1.0636  0.0240  0.7937
  272MOL0     H36680  10.581   0.293   0.130 -1.4252 -1.4828  0.6469
  272MOL0     H36681  10.449   0.384   0.320 -1.4906  3.5009 -0.5028
  272MOL0     H36682  10.334   0.712   0.477  0.9418 -4.5965 -0.5696
  272MOL0     H36683  10.251   0.869   0.646  1.3044 -0.1095 -0.1769
  272MOL0     H36684  10.035   0.988   0.936 -1.3062 -2.6421  0.9025
  272MOL0     H36685  10.196   0.965   0.859  0.5304 -1.8152 -1.8264
  272MOL0     H36686  10.090   1.131   0.726 -0.3116 -0.4270  0.2250
  272MOL0     H36687  10.054   0.970   0.642 -0.9580  1.7735 -2.2323
  272MOL0     H36688   9.832   0.976   0.762  1.1342 -1.0722 -0.3780
  272MOL0     H36689   9.874   1.143   0.815 -2.0158  0.7532 -1.3240
  272MOL0     H36690   9.851   1.029   0.531  1.7913  0.3473 -2.7905
  272MOL0     H36691   9.899   1.196   0.559 -0.1792 -0.3134  1.3082
  272MOL0     H36692   9.665   1.223   0.689 -2.3289 -2.9262  2.3585
  272MOL0     H36693   9.616   1.069   0.619 -1.5758  1.9311  0.9555
  272MOL0     H36694   9.728   1.307   0.457  1.3585 -0.6612  0.6007
  272MOL0     H36695   9.662   1.159   0.399  2.0602 -0.2442  0.5907
  272MOL0     H36696   9.518   1.389   0.548  0.7567 -2.3073  3.3044
  272MOL0     H36697   9.442   1.233   0.535  1.8748 -1.1629  0.1620
  272MOL0     H36698   9.539   1.435   0.311  0.9931 -1.0958 -3.5109
  272MOL0     H36699   9.478   1.272   0.275 -1.1444 -2.3373  1.6932
  272MOL0     H36700   9.997   0.575   0.804 -0.1946  0.5807  1.5417
  272MOL0     H36701  10.058   0.421   0.616  2.2820 -0.7461  1.1942
  272MOL0     H36702  10.163   0.530   0.065  1.2166  0.8440  1.9470
  272MOL0     H36703  10.266   0.400  -0.130 -0.8014 -1.2150 -1.7720
  272MOL0     H36704  10.967  -0.115   0.439  1.6410 -0.4863 -0.1942
  272MOL0     H36705  10.888   0.111   0.524 -1.6977  0.6234  2.3068
  272MOL0     H36706  10.787   0.280   1.000 -1.1517 -0.8634 -1.9253
  272MOL0     H36707  10.707   0.496   1.096 -1.2884  0.2058 -1.1867
  272MOL0     H36708  10.870   0.902   1.182  0.1759 -0.4318 -0.9006
  272MOL0     H36709  10.992   0.818   1.083  1.7260  0.2873  1.4658
  272MOL0     H36710  11.055   0.802   1.311  1.1393 -2.1783 -1.1352
  272MOL0     H36711  11.042   0.659   1.220 -0.7492 -0.9516  0.0927
  272MOL0     H36712  10.927   0.622   1.458 -1.3042  1.5972  2.4702
  272MOL0     H36713  10.814   0.597   1.324 -0.4315 -0.4438  0.3119
  272MOL0     H36714  10.721   0.819   1.377  2.2716  4.6600 -0.4196
  272MOL0     H36715  10.738   0.717   1.526  3.8313 -1.2495  1.7039
  272MOL0     H36716  10.993   1.047   1.599 -1.3723  0.1847  0.7116
  272MOL0     H36717  10.982   0.738   0.894 -1.3714  0.6469  0.2370
  272MOL0     H36718  11.151   0.649   0.775 -1.8106  0.7665  0.1107
  272MOL0     H36719  11.175   0.489   0.733 -0.1978 -0.6496  0.5275
  272MOL0     H36720  11.058   0.595   0.638  0.8388  1.9349 -0.0143
  273MOL0     O36721   6.444   4.447   9.587 -0.3558  0.0376 -0.6202
  273MOL0     C36722   6.532   4.362   9.561  0.0247 -0.0405  0.7109
  273MOL0     O36723   6.552   4.308   9.439 -0.5154 -0.5237 -0.7371
  273MOL0     C36724   6.468   4.325   9.336 -0.7241 -0.3463 -0.6350
  273MOL0     C36725   6.504   4.399   9.231  0.5957  0.3234 -0.3226
  273MOL0     C36726   6.425   4.419   9.119 -0.1626  0.1717  0.2474
  273MOL0     C36727   6.302   4.349   9.116 -0.4600 -0.3028  0.2109
  273MOL0     O36728   6.233   4.349   8.999  0.1270  0.5767  0.5725
  273MOL0     C36729   6.169   4.230   8.940 -0.2611 -0.4999  0.6739
  273MOL0     C36730   6.093   4.263   8.816 -0.5126 -1.4691 -0.5743
  273MOL0     C36731   6.035   4.137   8.762 -0.3515  0.7175  0.1069
  273MOL0     C36732   5.905   4.089   8.833  0.0204 -0.2518  0.2894
  273MOL0     C36733   5.864   3.960   8.785 -0.1824  1.1243  0.5104
  273MOL0     C36734   5.965   3.852   8.817  1.0817  0.3391 -0.7598
  273MOL0     C36735   5.913   3.719   8.767 -0.3553 -0.3007  0.0369
  273MOL0     C36736   5.923   3.697   8.613 -0.6286 -0.2555  0.3369
  273MOL0     N36737   5.857   3.577   8.564 -0.5881  0.1910  0.0246
  273MOL0     C36738   5.723   3.562   8.589 -0.5072  0.8862 -0.3215
  273MOL0     C36739   5.687   3.467   8.496 -1.0673  0.2725 -0.4149
  273MOL0     C36740   5.549   3.442   8.460 -0.5027  0.4645  0.7066
  273MOL0     C36741   5.515   3.293   8.456 -0.1107  0.0507  0.4846
  273MOL0     C36742   5.390   3.290   8.371 -0.7968  0.2321 -0.3947
  273MOL0     C36743   5.327   3.156   8.357 -1.2668 -0.0074  0.0375
  273MOL0     O36744   5.244   3.136   8.472 -0.1136 -0.2751  0.4863
  273MOL0     C36745   5.268   3.035   8.563  0.3430  0.2505 -0.6709
  273MOL0     C36746   5.172   3.017   8.661  0.6849 -0.2888 -0.3865
  273MOL0     C36747   5.185   2.935   8.767 -0.2090 -0.7781 -0.2743
  273MOL0     C36748   5.308   2.863   8.788 -0.2541 -0.3797  0.8186
  273MOL0     C36749   5.314   2.758   8.891 -0.6074 -0.5278 -0.1050
  273MOL0     O36750   5.410   2.656   8.870  0.0040 -1.5149  0.9473
  273MOL0     C36751   5.418   2.546   8.937  0.5548  0.2597  0.5545
  273MOL0     C36752   5.309   2.491   8.999 -0.3011  0.0813  0.3813
  273MOL0     C36753   5.317   2.366   9.074 -1.0000 -0.9642 -1.0856
  273MOL0     C36754   5.436   2.296   9.082 -0.6095  0.2254 -0.7521
  273MOL0     O36755   5.438   2.168   9.132 -1.1552 -0.0413  0.9293
  273MOL0     C36756   5.516   2.155   9.247  0.3872 -0.0858  0.3464
  273MOL0     C36757   5.543   2.012   9.293 -0.0848 -0.2390  1.1463
  273MOL0     C36758   5.408   1.952   9.298  0.1337  0.5609 -0.7939
  273MOL0     C36759   5.404   1.810   9.364  0.8992 -0.3548  0.1529
  273MOL0     C36760   5.447   1.790   9.503  0.0149  1.0388 -0.2866
  273MOL0     C36761   5.348   1.848   9.608 -0.5592  0.0556  0.1106
  273MOL0     C36762   5.254   1.746   9.680  0.7344 -1.1281  0.3720
  273MOL0     C36763   5.120   1.824   9.707 -0.3282  0.1540  0.1177
  273MOL0    Cl36764   4.989   1.729   9.783  0.4048  0.2420  0.2654
  273MOL0     C36765   5.543   2.347   9.010  0.1611 -0.0898 -0.4445
  273MOL0     C36766   5.536   2.465   8.930  0.4248  0.6778 -0.0279
  273MOL0     O36767   5.238   2.769   8.990 -0.4769  0.2786 -1.0012
  273MOL0     C36768   5.420   2.894   8.699 -0.0530  0.1196 -0.2526
  273MOL0     C36769   5.389   2.973   8.584  0.4252 -0.1197 -0.9631
  273MOL0     N36770   5.797   3.433   8.417 -0.3015  0.2463  1.0019
  273MOL0     N36771   5.901   3.500   8.457  0.0913 -0.6010 -0.3152
  273MOL0     C36772   6.266   4.263   9.214  0.5737 -0.0895  0.3229
  273MOL0     C36773   6.353   4.249   9.326  0.6267  0.3368  1.1417
  273MOL0     C36774   6.622   4.312   9.671 -0.0512  0.2964 -0.0992
  273MOL0     C36775   6.692   4.184   9.657 -0.1199  0.5628  1.3267
  273MOL0     C36776   6.763   4.132   9.766 -0.9992  0.9838 -1.6188
  273MOL0     C36777   6.768   4.199   9.892  1.3192 -0.9151  1.0344
  273MOL0     O36778   6.830   4.164  10.012  0.2626  0.4758  0.3978
  273MOL0     C36779   6.880   4.027  10.035  0.2138 -0.2996  0.3555
  273MOL0     C36780   6.773   3.945  10.112 -0.3243  0.2434  0.5537
  273MOL0     C36781   6.836   3.832  10.190 -0.0046 -0.9213 -1.1617
  273MOL0     C36782   6.902   3.740  10.090  0.0139  0.1466  0.5567
  273MOL0     C36783   6.956   3.618  10.166  0.0471 -0.4488 -0.0135
  273MOL0     C36784   7.005   3.521  10.218 -0.6025  0.4793  0.3720
  273MOL0     C36785   6.710   4.326   9.898 -0.5286  0.6986 -0.6036
  273MOL0     C36786   6.640   4.383   9.793 -0.1080  0.1666 -0.0531
  273MOL0     C36787   6.602   4.530   9.813 -0.9126 -0.1890  0.6179
  273MOL0     H36788   6.606   4.436   9.237 -0.2181  2.5833  4.5142
  273MOL0     H36789   6.456   4.464   9.025 -3.7946  2.1282 -0.1743
  273MOL0     H36790   6.257   4.166   8.923  0.6009  0.7184  0.3468
  273MOL0     H36791   6.104   4.185   9.015 -3.3127 -1.8243 -2.4720
  273MOL0     H36792   6.151   4.311   8.736 -0.5797 -1.3397 -0.5444
  273MOL0     H36793   6.014   4.336   8.834  0.3941 -0.9369  1.4969
  273MOL0     H36794   6.113   4.060   8.775  0.4726  1.6588  0.9108
  273MOL0     H36795   6.019   4.150   8.655  0.7555  0.7360 -0.0688
  273MOL0     H36796   5.902   4.105   8.941 -3.8075  2.7119 -0.0299
  273MOL0     H36797   5.833   4.165   8.800 -0.0423 -0.5712 -0.3378
  273MOL0     H36798   5.763   3.949   8.824  0.3718  1.1246  2.0205
  273MOL0     H36799   5.856   3.962   8.676 -0.0424 -0.5206  0.4321
  273MOL0     H36800   6.058   3.877   8.766  0.5387  4.4025 -0.1378
  273MOL0     H36801   5.977   3.841   8.925 -1.7463  0.3944 -0.3450
  273MOL0     H36802   5.809   3.704   8.797 -0.7836  0.0859 -1.1808
  273MOL0     H36803   5.970   3.643   8.821 -3.9699 -1.5429  2.4840
  273MOL0     H36804   5.878   3.782   8.560 -1.0548 -0.4312  0.4209
  273MOL0     H36805   6.031   3.696   8.591 -1.0882  0.0068 -2.2277
  273MOL0     H36806   5.651   3.617   8.649 -0.2319  0.0942  0.7763
  273MOL0     H36807   5.481   3.500   8.523 -0.7915 -1.8507  2.6749
  273MOL0     H36808   5.536   3.477   8.357 -0.7044  1.3165  1.0209
  273MOL0     H36809   5.598   3.235   8.413 -0.2844  2.0364 -2.8612
  273MOL0     H36810   5.487   3.255   8.555 -0.3145  0.3184  0.5293
  273MOL0     H36811   5.423   3.315   8.270 -1.2761 -1.6496 -1.0725
  273MOL0     H36812   5.312   3.354   8.415  1.0236  1.9354  0.4730
  273MOL0     H36813   5.407   3.086   8.335 -0.6390  1.3435 -2.3364
  273MOL0     H36814   5.260   3.149   8.271 -1.3926 -0.0604  0.1391
  273MOL0     H36815   5.076   3.057   8.632  1.1855 -0.5298 -2.6240
  273MOL0     H36816   5.097   2.924   8.829 -1.2076  2.4056 -0.8981
  273MOL0     H36817   5.213   2.540   8.994 -1.8609 -2.4504  2.7760
  273MOL0     H36818   5.220   2.338   9.116  0.8225 -2.6072  2.5294
  273MOL0     H36819   5.609   2.212   9.236  0.2436  0.3556  1.3272
  273MOL0     H36820   5.469   2.207   9.332 -0.7088 -1.5282  0.6561
  273MOL0     H36821   5.588   1.955   9.211 -3.5731 -1.4718 -0.0719
  273MOL0     H36822   5.599   2.017   9.387  0.2992 -3.2736  1.1775
  273MOL0     H36823   5.343   2.019   9.354 -3.3844 -2.4436 -0.8906
  273MOL0     H36824   5.377   1.940   9.194  0.2995  1.6416 -0.9746
  273MOL0     H36825   5.457   1.746   9.293 -1.7596 -0.5008 -1.8789
  273MOL0     H36826   5.301   1.780   9.341  0.3268  3.4617 -3.4114
  273MOL0     H36827   5.548   1.832   9.516  0.1058  0.2588  1.7275
  273MOL0     H36828   5.455   1.682   9.517 -5.9500  0.3433  0.2867
  273MOL0     H36829   5.406   1.893   9.690  0.7276 -3.1792  1.1258
  273MOL0     H36830   5.292   1.928   9.559  0.1944  1.9236  2.1052
  273MOL0     H36831   5.291   1.701   9.772 -0.2786  0.1518  1.4533
  273MOL0     H36832   5.230   1.674   9.601 -0.8689 -0.6588  0.3880
  273MOL0     H36833   5.154   1.899   9.779  1.7916 -1.0890  0.5124
  273MOL0     H36834   5.082   1.869   9.615 -0.3567 -0.7945 -0.3398
  273MOL0     H36835   5.636   2.292   9.012  0.4123  0.1534 -2.5181
  273MOL0     H36836   5.620   2.512   8.879  1.6289  1.5614  2.6224
  273MOL0     H36837   5.518   2.851   8.716  1.8956  4.0198 -0.5600
  273MOL0     H36838   5.471   2.983   8.513  1.2937  3.4227  0.3503
  273MOL0     H36839   6.171   4.211   9.223  1.1491 -0.8420  3.0566
  273MOL0     H36840   6.324   4.192   9.414  2.7608  0.8152  2.2191
  273MOL0     H36841   6.688   4.131   9.563  1.9924 -1.7571  2.4406
  273MOL0     H36842   6.802   4.031   9.758 -1.2515  0.6643  0.5570
  273MOL0     H36843   6.973   4.044  10.091  0.7397  2.9548 -1.2641
  273MOL0     H36844   6.906   3.976   9.942  3.3727 -0.7141  1.3423
  273MOL0     H36845   6.710   3.888  10.043  0.6321 -1.1069  0.7468
  273MOL0     H36846   6.708   4.005  10.176 -0.5675 -1.8106  2.3568
  273MOL0     H36847   6.771   3.775  10.258  2.3834 -1.9085  0.4224
  273MOL0     H36848   6.908   3.875  10.260 -2.0462 -0.0167  0.4736
  273MOL0     H36849   6.828   3.694  10.024  2.2777  0.6005 -2.5548
  273MOL0     H36850   6.977   3.802  10.040 -1.3316  1.7018  0.3551
  273MOL0     H36851   7.054   3.452  10.283 -0.1527  1.3843  1.0147
  273MOL0     H36852   6.731   4.390   9.983 -0.1160  0.8207 -0.7944
  273MOL0     H36853   6.667   4.591   9.749  1.0495  0.5942  3.1764
  273MOL0     H36854   6.495   4.542   9.793 -0.9263 -0.7874  0.2921
  273MOL0     H36855   6.624   4.556   9.917 -2.5629 -2.0498  1.4950
  274MOL0     O36856   1.322   6.241   4.504 -0.2857  0.0847  0.5774
  274MOL0     C36857   1.288   6.294   4.399 -0.1384  0.3749  0.3675
  274MOL0     O36858   1.170   6.262   4.334 -0.6239  0.8376 -0.0503
  274MOL0     C36859   1.096   6.162   4.386  0.5916  0.4895  0.5844
  274MOL0     C36860   1.113   6.029   4.332  0.5841 -0.7960 -1.1849
  274MOL0     C36861   1.012   5.939   4.379 -0.8491  0.4514  0.0184
  274MOL0     C36862   0.926   5.964   4.488 -0.1466  0.4097  1.3618
  274MOL0     O36863   0.843   5.859   4.544  0.4829  0.1455  0.8239
  274MOL0     C36864   0.901   5.743   4.610  0.2229  0.3901 -0.7721
  274MOL0     C36865   0.788   5.678   4.707 -1.0637 -0.5733 -0.4186
  274MOL0     C36866   0.665   5.611   4.634 -0.8633  1.2682 -0.5828
  274MOL0     C36867   0.557   5.544   4.720  0.1494  0.5077 -0.5486
  274MOL0     C36868   0.606   5.429   4.803  0.6750  0.5004  0.3186
  274MOL0     C36869   0.679   5.320   4.725 -0.1345 -0.3838  0.2092
  274MOL0     C36870   0.591   5.248   4.627  0.3303  0.2278  0.1379
  274MOL0     C36871   0.471   5.173   4.684 -0.9684  0.4025 -0.3007
  274MOL0     N36872   0.388   5.089   4.597 -0.3142 -1.1310  0.6939
  274MOL0     C36873   0.423   4.966   4.561  0.2652  0.4862 -0.1767
  274MOL0     C36874   0.304   4.920   4.510 -0.7674 -0.4742 -0.2468
  274MOL0     C36875   0.279   4.782   4.462 -0.1347 -0.2915 -0.4463
  274MOL0     C36876   0.396   4.718   4.381  0.6601  0.4189 -0.4233
  274MOL0     C36877   0.435   4.806   4.254 -0.5916 -0.2293 -0.6743
  274MOL0     C36878   0.567   4.781   4.179 -0.0288 -1.0832  0.0559
  274MOL0     O36879   0.682   4.796   4.260 -0.7691  0.7577 -0.3800
  274MOL0     C36880   0.744   4.915   4.291 -0.6307  0.2628  0.4915
  274MOL0     C36881   0.756   5.024   4.205 -0.6471  0.1654  0.2796
  274MOL0     C36882   0.818   5.147   4.237  0.3445 -0.6066  0.0659
  274MOL0     C36883   0.874   5.164   4.361  0.3408  0.0544 -0.2066
  274MOL0     C36884   0.932   5.291   4.402 -0.0515 -0.0643  0.1274
  274MOL0     O36885   1.010   5.292   4.517 -0.0081 -0.1730 -0.6675
  274MOL0     C36886   1.088   5.404   4.547 -0.0924 -0.5751 -0.3756
  274MOL0     C36887   1.153   5.485   4.451  0.0619  0.6638 -0.8578
  274MOL0     C36888   1.214   5.604   4.493  0.2689  0.7014 -0.2099
  274MOL0     C36889   1.222   5.642   4.634 -0.2706  0.4048  0.1725
  274MOL0     O36890   1.277   5.756   4.680  0.2961 -0.2787 -0.0666
  274MOL0     C36891   1.334   5.853   4.582 -1.3160  0.6369 -0.5949
  274MOL0     C36892   1.436   5.934   4.660 -0.0072 -0.4778 -0.5727
  274MOL0     C36893   1.564   5.858   4.694  0.6500 -0.1886  0.3057
  274MOL0     C36894   1.681   5.937   4.740  0.4264  0.7412  0.0268
  274MOL0     C36895   1.788   5.986   4.632 -0.4189 -0.3587 -0.4549
  274MOL0     C36896   1.752   6.078   4.514  0.3347 -0.4823 -0.7550
  274MOL0     C36897   1.883   6.121   4.436  0.3510 -0.6593  0.5662
  274MOL0     C36898   1.930   6.262   4.470 -0.5495 -0.9716 -0.3602
  274MOL0    Cl36899   2.052   6.273   4.352 -0.0269 -0.0428  0.5238
  274MOL0     C36900   1.156   5.554   4.721  0.1524  0.1664  0.6816
  274MOL0     C36901   1.085   5.447   4.674 -0.8072 -0.3576 -0.1318
  274MOL0     O36902   0.915   5.390   4.330  0.9094 -0.0597  0.3821
  274MOL0     C36903   0.871   5.054   4.445 -0.6425  0.9516 -0.4863
  274MOL0     C36904   0.813   4.930   4.407 -0.3746  0.0885 -0.4697
  274MOL0     N36905   0.199   5.010   4.518 -0.5798  0.5800  0.0398
  274MOL0     N36906   0.256   5.111   4.570  0.1973  0.3146  0.2259
  274MOL0     C36907   0.928   6.089   4.549  0.0323  0.5135 -0.8396
  274MOL0     C36908   1.009   6.193   4.490 -0.2482  0.9915 -0.0819
  274MOL0     C36909   1.382   6.387   4.338 -0.4038 -0.3370 -0.6860
  274MOL0     C36910   1.470   6.460   4.419  0.9889 -0.8119  0.2389
  274MOL0     C36911   1.564   6.561   4.377 -0.1729  0.2161 -0.2807
  274MOL0     C36912   1.569   6.585   4.242 -0.7312 -0.1449  0.4362
  274MOL0     O36913   1.670   6.655   4.178 -0.3638 -0.4360 -0.3452
  274MOL0     C36914   1.678   6.796   4.204 -0.0885  1.1262  0.0826
  274MOL0     C36915   1.610   6.868   4.081 -0.4815 -0.1630  0.1358
  274MOL0     C36916   1.579   7.015   4.100 -0.2410 -0.6042 -0.3884
  274MOL0     C36917   1.492   7.077   3.986 -0.1517  0.3277  0.3305
  274MOL0     C36918   1.576   7.121   3.875 -0.5029  0.2314 -0.0671
  274MOL0     C36919   1.647   7.147   3.784 -1.2558 -0.1031 -0.3161
  274MOL0     C36920   1.479   6.520   4.156 -0.9952  0.6109  0.1443
  274MOL0     C36921   1.389   6.419   4.197 -0.5161 -0.2824 -0.7395
  274MOL0     C36922   1.303   6.350   4.090  0.2608  0.0241  0.3861
  274MOL0     H36923   1.190   6.003   4.260 -0.5415 -1.0493 -2.3321
  274MOL0     H36924   1.022   5.834   4.357  1.1382  0.2440  1.5704
  274MOL0     H36925   0.931   5.671   4.534 -2.2013 -0.1180 -1.3203
  274MOL0     H36926   0.984   5.776   4.672  0.0412 -0.0508 -0.2919
  274MOL0     H36927   0.760   5.762   4.772 -0.7716 -1.2587  0.6071
  274MOL0     H36928   0.841   5.605   4.768  0.1908  0.9709  0.4245
  274MOL0     H36929   0.709   5.541   4.562 -1.1477  0.4138  0.0560
  274MOL0     H36930   0.615   5.692   4.579 -2.1648 -1.5010 -3.8027
  274MOL0     H36931   0.525   5.614   4.798 -1.4979 -1.1803  0.3499
  274MOL0     H36932   0.464   5.515   4.670 -0.1027  1.4372 -0.6559
  274MOL0     H36933   0.683   5.457   4.876  0.4324  0.3854  0.6256
  274MOL0     H36934   0.522   5.384   4.857  0.6779 -0.5719 -0.5487
  274MOL0     H36935   0.754   5.362   4.657 -1.6009  2.5453  0.2324
  274MOL0     H36936   0.730   5.257   4.798 -0.9087  0.0760  1.1722
  274MOL0     H36937   0.656   5.175   4.578  2.2395  2.3643 -0.6852
  274MOL0     H36938   0.570   5.293   4.530 -1.4058 -0.7285  0.0144
  274MOL0     H36939   0.516   5.106   4.757  3.6915  4.5501  1.1951
  274MOL0     H36940   0.408   5.246   4.737 -0.2795  0.4862  0.4186
  274MOL0     H36941   0.507   4.911   4.602 -2.0785 -0.3140  4.2073
  274MOL0     H36942   0.258   4.721   4.550 -1.4226  0.1479 -0.4294
  274MOL0     H36943   0.185   4.784   4.406 -1.1581 -1.4600  1.1669
  274MOL0     H36944   0.486   4.713   4.442  0.1864 -1.8080  0.1882
  274MOL0     H36945   0.383   4.612   4.356  0.9538 -0.1474  1.6331
  274MOL0     H36946   0.453   4.909   4.286  0.2087 -0.0723 -1.6102
  274MOL0     H36947   0.352   4.814   4.183 -1.2099  2.7978  0.2250
  274MOL0     H36948   0.571   4.839   4.086  1.5676 -1.8407 -0.3937
  274MOL0     H36949   0.554   4.679   4.143  0.5642 -0.3547 -2.4298
  274MOL0     H36950   0.699   5.019   4.112 -1.7512 -1.6387  0.9841
  274MOL0     H36951   0.816   5.229   4.166  4.0954  1.0596  1.6496
  274MOL0     H36952   1.156   5.449   4.349 -0.2600 -3.5528  0.4319
  274MOL0     H36953   1.255   5.673   4.420  1.0009  2.5930  1.8531
  274MOL0     H36954   1.397   5.812   4.502 -1.0350  1.1868 -0.6621
  274MOL0     H36955   1.256   5.922   4.549 -3.3973 -0.6948  1.2328
  274MOL0     H36956   1.461   6.024   4.601  0.6754 -0.4514 -0.2596
  274MOL0     H36957   1.403   5.977   4.755  2.4420 -0.9777  0.5887
  274MOL0     H36958   1.548   5.775   4.763 -3.8209  0.7030  0.6110
  274MOL0     H36959   1.593   5.818   4.596 -1.7603 -2.6094  0.4925
  274MOL0     H36960   1.734   5.869   4.808 -1.6664 -1.2817 -0.2425
  274MOL0     H36961   1.648   6.027   4.793  2.3050  0.2966  2.1473
  274MOL0     H36962   1.837   5.902   4.583  0.8943 -0.4046  0.8635
  274MOL0     H36963   1.868   6.027   4.695 -2.4531 -0.1483  2.1821
  274MOL0     H36964   1.697   6.015   4.443 -1.4352  3.4479 -3.2233
  274MOL0     H36965   1.699   6.169   4.546  1.8925  0.7059 -1.4441
  274MOL0     H36966   1.856   6.104   4.331 -2.3680 -1.3479  1.2813
  274MOL0     H36967   1.964   6.049   4.446 -0.0576 -1.0449  1.2088
  274MOL0     H36968   1.859   6.338   4.434 -0.9100 -0.6663  0.9214
  274MOL0     H36969   1.967   6.273   4.573 -0.5371 -1.8822 -0.2629
  274MOL0     H36970   1.158   5.562   4.829  0.5390 -3.5649  1.0886
  274MOL0     H36971   1.022   5.393   4.743  0.7600 -1.6701  0.3336
  274MOL0     H36972   0.924   5.060   4.539  0.9293 -0.3623 -1.2484
  274MOL0     H36973   0.823   4.848   4.477 -0.3695  0.8758  0.4762
  274MOL0     H36974   0.872   6.112   4.639  1.6269 -1.0679  0.6198
  274MOL0     H36975   1.018   6.290   4.538  0.6392  0.5605  0.6554
  274MOL0     H36976   1.469   6.435   4.524 -3.2482  1.0460  0.8680
  274MOL0     H36977   1.635   6.607   4.447  3.4658 -2.4632 -1.8895
  274MOL0     H36978   1.784   6.813   4.224 -0.3075  2.5838  0.1389
  274MOL0     H36979   1.618   6.823   4.292 -1.6305 -1.7358  0.0198
  274MOL0     H36980   1.518   6.809   4.070 -1.0811  1.0498 -1.7884
  274MOL0     H36981   1.660   6.857   3.985 -2.7100 -3.2409 -0.8600
  274MOL0     H36982   1.671   7.071   4.120 -0.5119 -0.7770  1.5930
  274MOL0     H36983   1.519   7.027   4.191  0.4997 -2.5808  0.4322
  274MOL0     H36984   1.426   6.999   3.946 -1.2728  1.0879  0.6486
  274MOL0     H36985   1.420   7.153   4.017 -1.3460 -0.3728 -0.6359
  274MOL0     H36986   1.705   7.172   3.698 -1.7981  2.4037 -0.0211
  274MOL0     H36987   1.479   6.539   4.049  1.6519 -2.6337 -0.5911
  274MOL0     H36988   1.199   6.378   4.108  0.2926  1.1057 -0.9271
  274MOL0     H36989   1.327   6.381   3.988 -0.3298 -1.9197 -0.3758
  274MOL0     H36990   1.321   6.242   4.095  2.6698  0.0438 -3.7183
  275MOL0     O36991   0.015   3.300   6.007 -0.1268 -0.2056 -0.7854
  275MOL0     C36992  -0.089   3.364   5.968 -1.4324  1.4515  0.4162
  275MOL0     O36993  -0.115   3.497   5.998 -0.0043  0.4735  0.4302
  275MOL0     C36994  -0.037   3.564   6.087  0.4256  0.0080 -0.3379
  275MOL0     C36995   0.004   3.524   6.218  0.1110 -0.3443  0.6773
  275MOL0     C36996   0.088   3.606   6.293  0.4896  0.0962 -0.2773
  275MOL0     C36997   0.137   3.725   6.235  0.0595  0.5771 -0.4480
  275MOL0     O36998   0.241   3.792   6.294 -0.1182  0.7925 -0.0921
  275MOL0     C36999   0.224   3.930   6.311 -0.4231 -1.1007 -0.3479
  275MOL0     C37000   0.361   3.985   6.356  0.1012  0.1515 -0.5818
  275MOL0     C37001   0.378   4.139   6.334 -0.4360  0.7800 -0.1787
  275MOL0     C37002   0.483   4.185   6.439 -0.2148  0.6250  0.4244
  275MOL0     C37003   0.404   4.224   6.572  0.2366 -0.6730  0.0777
  275MOL0     C37004   0.501   4.271   6.687 -0.8880 -0.0389  0.7284
  275MOL0     C37005   0.621   4.363   6.643 -0.1525 -0.1447 -0.2151
  275MOL0     C37006   0.684   4.420   6.764  1.0825 -0.1789 -0.4816
  275MOL0     N37007   0.819   4.484   6.740 -0.0355  0.5542 -0.7807
  275MOL0     C37008   0.856   4.575   6.641 -0.4959  0.5510  0.4272
  275MOL0     C37009   0.990   4.582   6.641 -0.0712 -1.4592  0.5563
  275MOL0     C37010   1.065   4.667   6.540  0.5775 -0.8251 -0.4172
  275MOL0     C37011   1.031   4.814   6.551 -0.8579 -0.6574 -0.0682
  275MOL0     C37012   0.999   4.888   6.681 -0.2577  0.1229 -0.0187
  275MOL0     C37013   1.111   4.897   6.784  0.0492 -0.7772  0.6455
  275MOL0     O37014   1.057   5.005   6.875 -0.9249 -0.3196 -0.4511
  275MOL0     C37015   1.113   5.008   7.003 -0.4937  1.1704  0.3878
  275MOL0     C37016   1.046   5.065   7.103  0.0910 -0.4874 -0.3498
  275MOL0     C37017   1.084   5.058   7.234 -0.4395  0.5925 -0.2000
  275MOL0     C37018   1.204   4.994   7.265 -0.9888 -0.0192 -0.2152
  275MOL0     C37019   1.271   5.022   7.391 -0.0977  0.4083 -0.5135
  275MOL0     O37020   1.408   5.020   7.382  0.1092 -0.4893 -0.3577
  275MOL0     C37021   1.476   5.021   7.499 -0.0191  0.4529  0.0206
  275MOL0     C37022   1.589   4.942   7.491  0.1887  0.8908 -0.6317
  275MOL0     C37023   1.679   4.926   7.595 -0.2737 -2.6500  0.0163
  275MOL0     C37024   1.647   4.991   7.718  0.1637  0.4814 -0.8235
  275MOL0     O37025   1.713   4.971   7.836  0.2802 -0.6065  0.4817
  275MOL0     C37026   1.854   4.973   7.825  0.4652  0.1605  0.3439
  275MOL0     C37027   1.927   4.971   7.960 -1.0758  0.6796 -0.2544
  275MOL0     C37028   1.906   4.852   8.045 -0.5853 -0.7227  0.4607
  275MOL0     C37029   2.015   4.840   8.153  0.2875 -0.7564  0.5160
  275MOL0     C37030   2.002   4.716   8.230  1.1422  0.1109  0.0878
  275MOL0     C37031   1.890   4.716   8.333 -0.1153 -1.0084 -0.0748
  275MOL0     C37032   1.889   4.586   8.404  0.7751  0.6243 -1.4589
  275MOL0     C37033   1.825   4.463   8.332 -0.6560  0.6182 -0.7860
  275MOL0    Cl37034   1.654   4.455   8.320 -0.0477 -0.2215 -0.1019
  275MOL0     C37035   1.530   5.057   7.727  0.0310 -0.2076  0.5378
  275MOL0     C37036   1.443   5.080   7.627  0.2160  0.0934  0.5886
  275MOL0     O37037   1.198   5.045   7.486  0.4156  0.3424 -0.1128
  275MOL0     C37038   1.277   4.936   7.165 -1.1964 -0.0712 -0.2986
  275MOL0     C37039   1.226   4.931   7.036  0.0054 -0.3510  0.2785
  275MOL0     N37040   1.034   4.491   6.739 -0.3083  0.1795  0.2836
  275MOL0     N37041   0.933   4.441   6.801 -0.1911  0.3906 -0.0782
  275MOL0     C37042   0.096   3.763   6.109 -0.0077  0.6698 -0.1029
  275MOL0     C37043   0.007   3.683   6.038 -0.6303  0.1468  0.5355
  275MOL0     C37044  -0.184   3.301   5.864  0.2566 -0.1058  0.2301
  275MOL0     C37045  -0.316   3.347   5.864 -0.0158 -0.8690 -0.2746
  275MOL0     C37046  -0.408   3.314   5.766 -0.3176 -0.1760  0.4020
  275MOL0     C37047  -0.368   3.225   5.664 -0.5796 -0.3025  0.6313
  275MOL0     O37048  -0.428   3.197   5.551  1.0811  0.0304 -0.7319
  275MOL0     C37049  -0.542   3.268   5.528 -0.1410 -0.5195  0.1418
  275MOL0     C37050  -0.662   3.187   5.576 -0.2554  0.3043 -0.4722
  275MOL0     C37051  -0.791   3.255   5.513  0.5865 -0.3752 -0.3570
  275MOL0     C37052  -0.906   3.248   5.614  0.5080  0.1779 -0.6790
  275MOL0     C37053  -1.021   3.317   5.559  0.0647 -0.5026  0.2229
  275MOL0     C37054  -1.113   3.382   5.516 -0.1278 -0.6402 -1.1234
  275MOL0     C37055  -0.235   3.172   5.664  0.2012 -0.7736 -0.0200
  275MOL0     C37056  -0.145   3.209   5.760  0.2467  0.1943 -1.0203
  275MOL0     C37057  -0.011   3.144   5.770 -0.1828 -0.3884  0.2395
  275MOL0     H37058  -0.020   3.431   6.270  3.7690 -0.8586  1.6817
  275MOL0     H37059   0.123   3.567   6.388  1.5126  1.6225  0.0064
  275MOL0     H37060   0.196   3.984   6.220  1.1732  2.6553  1.1653
  275MOL0     H37061   0.150   3.976   6.378  1.0881 -0.6534  1.0946
  275MOL0     H37062   0.441   3.937   6.298 -1.5880 -0.9114 -2.1647
  275MOL0     H37063   0.387   3.957   6.458 -0.3542 -3.9152 -1.3936
  275MOL0     H37064   0.286   4.198   6.333 -1.4537 -0.6587  1.8131
  275MOL0     H37065   0.413   4.160   6.232 -0.4642 -1.2915 -0.6414
  275MOL0     H37066   0.552   4.105   6.470  2.6425  1.6453 -2.7285
  275MOL0     H37067   0.528   4.280   6.409 -3.3471  2.1650  0.1436
  275MOL0     H37068   0.342   4.312   6.548 -0.9036 -1.3590  0.4360
  275MOL0     H37069   0.327   4.151   6.600  0.1228 -0.4614  0.3186
  275MOL0     H37070   0.426   4.324   6.747 -0.5633  0.6002  0.5724
  275MOL0     H37071   0.534   4.183   6.743  1.0911  0.5498  0.5397
  275MOL0     H37072   0.586   4.442   6.576 -0.8966  0.8768  1.3059
  275MOL0     H37073   0.698   4.303   6.593  2.6762  2.5896  0.5314
  275MOL0     H37074   0.608   4.485   6.810 -0.2986 -1.5782 -0.7008
  275MOL0     H37075   0.697   4.332   6.828  0.0270  0.3826  0.5597
  275MOL0     H37076   0.794   4.644   6.585  1.1787  2.3454  0.6419
  275MOL0     H37077   1.172   4.663   6.559  0.5707 -1.7747 -0.5338
  275MOL0     H37078   1.043   4.626   6.441  1.1925  0.0134 -0.9126
  275MOL0     H37079   1.111   4.868   6.499 -0.4874 -0.8199  0.3304
  275MOL0     H37080   0.946   4.833   6.485  2.2820  0.9533 -4.0578
  275MOL0     H37081   0.907   4.852   6.730 -0.5030 -1.0776 -1.3108
  275MOL0     H37082   0.993   4.991   6.645 -3.4999  0.9414  2.3295
  275MOL0     H37083   1.206   4.917   6.734 -0.6245 -2.0963 -1.2770
  275MOL0     H37084   1.101   4.803   6.840  1.4722  1.5642  5.3765
  275MOL0     H37085   0.958   5.123   7.076 -0.2876 -0.5814  0.6345
  275MOL0     H37086   1.022   5.116   7.302  0.0365 -0.3786  1.0780
  275MOL0     H37087   1.612   4.908   7.390 -0.9600  1.4376 -1.0910
  275MOL0     H37088   1.778   4.884   7.583  2.0746  2.6464 -1.8055
  275MOL0     H37089   1.888   4.895   7.757 -0.8395 -0.7483  0.6822
  275MOL0     H37090   1.884   5.067   7.778  0.2591 -0.0299 -0.1777
  275MOL0     H37091   2.033   4.983   7.933 -0.6712  1.6214  1.5904
  275MOL0     H37092   1.892   5.058   8.016 -1.0813  0.4495  0.0975
  275MOL0     H37093   1.809   4.870   8.093 -0.7641 -2.3656  0.7970
  275MOL0     H37094   1.908   4.761   7.984  1.6201 -1.0377  0.9121
  275MOL0     H37095   2.016   4.928   8.218  0.1219 -1.7910  1.9715
  275MOL0     H37096   2.108   4.845   8.094  0.3399  1.8539  0.7083
  275MOL0     H37097   2.099   4.703   8.280 -0.0725 -2.1180  2.0745
  275MOL0     H37098   1.991   4.626   8.168 -3.1431  0.7959 -0.3975
  275MOL0     H37099   1.909   4.802   8.399 -3.3857 -0.6353  0.5520
  275MOL0     H37100   1.797   4.743   8.281  2.6392  2.2118 -3.9445
  275MOL0     H37101   1.841   4.601   8.501  4.0514  2.0091  0.1132
  275MOL0     H37102   1.992   4.559   8.429 -0.1283 -1.0253  0.8194
  275MOL0     H37103   1.869   4.473   8.233  2.1996  1.5160  0.4680
  275MOL0     H37104   1.867   4.367   8.366  0.3907  0.4445 -2.4301
  275MOL0     H37105   1.501   5.090   7.826  1.0503 -0.3990  0.9193
  275MOL0     H37106   1.354   5.134   7.657  1.0217 -0.7840  5.2309
  275MOL0     H37107   1.366   4.882   7.196 -2.1022 -0.2063  2.2854
  275MOL0     H37108   1.290   4.875   6.968 -1.8377 -1.7465 -0.4076
  275MOL0     H37109   0.126   3.855   6.060  1.4896 -0.7889 -2.1325
  275MOL0     H37110  -0.029   3.720   5.943 -3.5332 -0.8625  1.1370
  275MOL0     H37111  -0.334   3.418   5.945  1.7185 -1.6550  0.8720
  275MOL0     H37112  -0.503   3.368   5.765 -0.1757  0.0728  0.1848
  275MOL0     H37113  -0.551   3.279   5.419 -4.7450  3.2932  0.5706
  275MOL0     H37114  -0.543   3.371   5.563 -0.5429 -1.0749  1.8603
  275MOL0     H37115  -0.670   3.191   5.685 -1.6545  3.0958 -0.5677
  275MOL0     H37116  -0.657   3.083   5.542 -6.0984 -0.2449 -0.6541
  275MOL0     H37117  -0.820   3.209   5.418 -0.8514 -1.0853  0.3919
  275MOL0     H37118  -0.767   3.359   5.493  0.1236  0.1193  1.4945
  275MOL0     H37119  -0.940   3.152   5.653  3.0910 -0.3192  0.5246
  275MOL0     H37120  -0.878   3.304   5.704 -0.4487  0.2702 -0.4288
  275MOL0     H37121  -1.200   3.436   5.486 -0.4849  0.7910  2.0985
  275MOL0     H37122  -0.206   3.103   5.585  0.6630 -0.6615  0.0458
  275MOL0     H37123   0.069   3.215   5.748  0.6953 -1.6164 -0.6743
  275MOL0     H37124   0.010   3.108   5.871  4.7696 -0.1280 -0.4756
  275MOL0     H37125   0.002   3.053   5.711  1.0078 -1.8718  2.6078
  276MOL0     O37126   2.129   0.386   2.090 -0.1349  0.8433  0.0480
  276MOL0     C37127   2.034   0.368   2.160  0.1377 -0.1879 -1.3603
  276MOL0     O37128   1.973   0.245   2.178  0.1996 -0.3740  0.0177
  276MOL0     C37129   2.028   0.121   2.138 -0.0549 -1.2904  0.3826
  276MOL0     C37130   1.957   0.014   2.075  0.0130 -1.2838 -0.3259
  276MOL0     C37131   2.023  -0.106   2.047  0.5641 -0.0135  0.5802
  276MOL0     C37132   2.161  -0.119   2.069  0.6428 -0.3244 -0.2795
  276MOL0     O37133   2.227  -0.232   2.028 -0.4462 -0.4992  0.6761
  276MOL0     C37134   2.160  -0.357   2.002  0.4764 -0.5855  0.1128
  276MOL0     C37135   2.264  -0.469   2.000  0.4455  0.1772  0.2204
  276MOL0     C37136   2.379  -0.452   1.893  0.3776 -0.8036 -0.0004
  276MOL0     C37137   2.453  -0.583   1.861 -0.4248 -0.0787  0.0240
  276MOL0     C37138   2.376  -0.685   1.775 -0.0031  0.3553  0.4983
  276MOL0     C37139   2.459  -0.812   1.751 -0.0052  0.8059  0.8256
  276MOL0     C37140   2.508  -0.888   1.872  0.2419 -0.4943  0.2067
  276MOL0     C37141   2.375  -0.938   1.939  0.1666 -1.1373  0.1806
  276MOL0     N37142   2.399  -1.049   2.040 -0.7327 -0.2814  0.4282
  276MOL0     C37143   2.480  -1.043   2.141  0.0304  0.1890 -0.6423
  276MOL0     C37144   2.470  -1.170   2.190 -0.0987 -1.3562 -1.2670
  276MOL0     C37145   2.542  -1.209   2.319 -0.1373 -0.1311  0.4269
  276MOL0     C37146   2.483  -1.168   2.454  1.0330  0.2544 -0.6885
  276MOL0     C37147   2.326  -1.170   2.455  0.8919  0.1459 -0.8616
  276MOL0     C37148   2.270  -1.244   2.584 -0.0528 -0.1236  0.6923
  276MOL0     O37149   2.124  -1.277   2.569 -0.2471 -0.0058 -0.3712
  276MOL0     C37150   2.047  -1.206   2.655 -0.7139 -0.0518  0.1216
  276MOL0     C37151   1.993  -1.262   2.766 -0.3788 -0.0312 -0.5807
  276MOL0     C37152   1.931  -1.178   2.858  0.3353  0.8333 -0.1008
  276MOL0     C37153   1.921  -1.038   2.837  0.4180  0.4193  0.4499
  276MOL0     C37154   1.842  -0.951   2.924  0.7103  0.2422  0.1167
  276MOL0     O37155   1.818  -0.824   2.870 -0.1386 -0.3251  0.1173
  276MOL0     C37156   1.757  -0.733   2.950 -0.7220  1.1122 -0.3631
  276MOL0     C37157   1.825  -0.680   3.064  0.9118 -0.7622  0.7187
  276MOL0     C37158   1.756  -0.574   3.136 -0.5771  0.5644  0.6508
  276MOL0     C37159   1.627  -0.524   3.100 -0.4111  0.1967  0.5375
  276MOL0     O37160   1.576  -0.427   3.171 -0.1972 -0.0530 -0.0261
  276MOL0     C37161   1.494  -0.465   3.280  0.8914 -0.8456  0.0619
  276MOL0     C37162   1.458  -0.337   3.354  0.9755  0.0004 -0.6351
  276MOL0     C37163   1.430  -0.397   3.494 -0.0564  0.6435 -0.4860
  276MOL0     C37164   1.554  -0.390   3.582 -0.1180 -0.2605 -0.1346
  276MOL0     C37165   1.574  -0.242   3.634 -0.4438 -0.2298  0.0841
  276MOL0     C37166   1.716  -0.226   3.701 -0.0848  0.1177 -0.4588
  276MOL0     C37167   1.838  -0.252   3.609  0.8204  0.5898 -0.1275
  276MOL0     C37168   1.843  -0.220   3.463 -0.6651  1.4092 -0.1609
  276MOL0    Cl37169   1.824  -0.048   3.426 -0.3770  0.2562 -0.1661
  276MOL0     C37170   1.575  -0.570   2.986  0.1255 -0.0416  0.5765
  276MOL0     C37171   1.640  -0.681   2.915  0.4626  0.4082 -0.8365
  276MOL0     O37172   1.794  -0.992   3.029 -1.0406  0.1035 -0.5087
  276MOL0     C37173   1.981  -0.984   2.722 -0.4471  0.0807  0.0934
  276MOL0     C37174   2.048  -1.070   2.634 -0.1735  0.1708 -0.3265
  276MOL0     N37175   2.382  -1.242   2.120 -0.0812  0.0297  0.3106
  276MOL0     N37176   2.341  -1.169   2.028  0.0481 -0.1438  0.5868
  276MOL0     C37177   2.230  -0.006   2.126  0.2333  0.4444  0.4340
  276MOL0     C37178   2.158   0.111   2.167  0.4819  0.0308 -0.4081
  276MOL0     C37179   1.977   0.480   2.241 -0.6054  0.5413 -1.3141
  276MOL0     C37180   2.049   0.603   2.238 -0.2253  0.0389 -0.1399
  276MOL0     C37181   2.003   0.706   2.320 -0.7037  0.3630 -0.2441
  276MOL0     C37182   1.891   0.698   2.400 -0.3451  1.1456 -0.3666
  276MOL0     O37183   1.849   0.802   2.479  0.2738  0.0919  0.1447
  276MOL0     C37184   1.882   0.933   2.435 -0.2423 -0.2843 -0.5292
  276MOL0     C37185   1.793   1.039   2.498  0.6474 -0.3631  0.4833
  276MOL0     C37186   1.858   1.173   2.463  0.0591  0.1727  0.1477
  276MOL0     C37187   1.787   1.297   2.518  0.2933  0.7201 -0.0653
  276MOL0     C37188   1.861   1.344   2.641  1.0157  1.2038 -0.2510
  276MOL0     C37189   1.926   1.391   2.727 -0.6244 -0.4640  0.6481
  276MOL0     C37190   1.820   0.584   2.399  0.1075  0.2713  0.6969
  276MOL0     C37191   1.865   0.472   2.331  0.4176 -0.4815  0.1868
  276MOL0     C37192   1.780   0.354   2.335  0.7561  0.0520 -0.5678
  276MOL0     H37193   1.854   0.036   2.051  0.3403  1.2855  0.3576
  276MOL0     H37194   1.960  -0.185   2.008 -0.2186 -1.2097  3.9580
  276MOL0     H37195   2.075  -0.385   2.064 -0.9263  0.2559 -1.3653
  276MOL0     H37196   2.131  -0.344   1.897  0.3338  1.6618  0.3703
  276MOL0     H37197   2.206  -0.562   1.993 -3.2760  2.3048 -0.1285
  276MOL0     H37198   2.321  -0.483   2.092  1.1109 -0.3491 -0.2704
  276MOL0     H37199   2.444  -0.371   1.926 -0.6734 -0.5897  1.7034
  276MOL0     H37200   2.335  -0.426   1.796 -1.5269 -0.8669  0.7924
  276MOL0     H37201   2.547  -0.558   1.810 -1.0067  1.3658 -0.4052
  276MOL0     H37202   2.482  -0.627   1.956 -1.4034 -1.6263 -0.3623
  276MOL0     H37203   2.277  -0.700   1.819  0.1255 -1.3360  0.2889
  276MOL0     H37204   2.363  -0.643   1.675  1.6352 -1.2185 -0.4439
  276MOL0     H37205   2.425  -0.885   1.676 -1.2849  2.2555 -0.0802
  276MOL0     H37206   2.542  -0.767   1.696 -0.6025  0.0436 -0.7728
  276MOL0     H37207   2.569  -0.822   1.935 -0.9699  3.4087 -2.3701
  276MOL0     H37208   2.572  -0.967   1.833  1.8322  0.4006  0.9076
  276MOL0     H37209   2.323  -0.869   2.006 -0.1000 -0.7542 -0.4121
  276MOL0     H37210   2.298  -0.966   1.866  0.7755 -1.4981 -0.3343
  276MOL0     H37211   2.538  -0.963   2.185  1.6186 -0.5696 -1.2506
  276MOL0     H37212   2.544  -1.318   2.320 -3.1088 -0.2683  0.6156
  276MOL0     H37213   2.644  -1.170   2.313 -1.7074  4.2314 -2.1808
  276MOL0     H37214   2.523  -1.247   2.518  0.1035 -0.2083 -0.6477
  276MOL0     H37215   2.512  -1.067   2.483 -2.3230  0.8637  1.0646
  276MOL0     H37216   2.275  -1.212   2.368 -3.6200  2.6153  0.2717
  276MOL0     H37217   2.291  -1.067   2.460 -5.8214 -1.6702 -1.4957
  276MOL0     H37218   2.296  -1.186   2.673  0.3691 -0.9071  1.0923
  276MOL0     H37219   2.321  -1.341   2.589 -2.9944 -1.9721 -1.4469
  276MOL0     H37220   2.005  -1.367   2.791  0.8878  0.2237 -0.0508
  276MOL0     H37221   1.884  -1.224   2.944 -5.0087  0.2216 -2.9271
  276MOL0     H37222   1.916  -0.735   3.085  1.0081 -1.8895 -2.1942
  276MOL0     H37223   1.792  -0.513   3.218  0.6220 -0.7879  1.1738
  276MOL0     H37224   1.407  -0.521   3.245  0.8243  1.4441 -4.0297
  276MOL0     H37225   1.557  -0.533   3.339  1.3634 -1.0865 -0.7115
  276MOL0     H37226   1.545  -0.271   3.355 -1.1968  3.0849 -0.2864
  276MOL0     H37227   1.385  -0.265   3.319  1.1780  1.5965  1.9418
  276MOL0     H37228   1.338  -0.357   3.537 -0.9224 -0.6250 -1.0810
  276MOL0     H37229   1.393  -0.499   3.480 -4.8144  2.2317 -1.3949
  276MOL0     H37230   1.648  -0.422   3.537  0.1645 -1.7228  1.3762
  276MOL0     H37231   1.528  -0.458   3.663 -4.1954  1.4264  0.2018
  276MOL0     H37232   1.493  -0.224   3.704 -1.7516 -1.1557 -1.1346
  276MOL0     H37233   1.564  -0.175   3.548  1.3368 -0.5854 -0.4513
  276MOL0     H37234   1.731  -0.122   3.733  1.1012 -0.3682  0.6438
  276MOL0     H37235   1.726  -0.301   3.780  3.5820 -1.1400 -1.9090
  276MOL0     H37236   1.863  -0.358   3.603 -3.2957 -0.6576  1.3223
  276MOL0     H37237   1.912  -0.195   3.666 -1.1120  0.2505  2.9534
  276MOL0     H37238   1.925  -0.264   3.405 -1.5924  1.7471 -1.8066
  276MOL0     H37239   1.757  -0.263   3.410  0.0122  0.9802 -0.9365
  276MOL0     H37240   1.490  -0.513   2.950  0.1794  0.9189  1.8991
  276MOL0     H37241   1.595  -0.719   2.824  1.6701 -2.4103 -0.3451
  276MOL0     H37242   1.960  -0.883   2.690 -1.9909  0.5396  2.3251
  276MOL0     H37243   2.095  -1.024   2.547 -1.8544  0.5581 -1.0847
  276MOL0     H37244   2.334  -0.026   2.146  0.2377  0.7562  0.7219
  276MOL0     H37245   2.210   0.199   2.203 -1.0803  3.1604 -4.8562
  276MOL0     H37246   2.147   0.604   2.190  0.1710  1.6320  0.6234
  276MOL0     H37247   2.073   0.789   2.327  1.0980 -0.8099 -2.8665
  276MOL0     H37248   1.869   0.941   2.327  1.5540 -0.3698 -0.7876
  276MOL0     H37249   1.986   0.959   2.456 -1.3787  3.8851  0.8736
  276MOL0     H37250   1.791   1.015   2.605  0.4469 -0.0170  0.5617
  276MOL0     H37251   1.691   1.028   2.459  1.3805  2.6624 -2.7615
  276MOL0     H37252   1.856   1.172   2.353  5.4209 -4.7990 -0.3953
  276MOL0     H37253   1.957   1.166   2.507 -0.4753 -2.0316  1.1187
  276MOL0     H37254   1.777   1.384   2.453 -1.1490  1.4881  1.1411
  276MOL0     H37255   1.686   1.267   2.548  0.5615 -0.0586  0.0843
  276MOL0     H37256   2.002   1.414   2.798 -0.4489  1.3590 -0.0663
  276MOL0     H37257   1.728   0.556   2.450  0.3974 -6.3412 -1.4853
  276MOL0     H37258   1.757   0.320   2.233 -0.8605 -2.8060  0.6093
  276MOL0     H37259   1.824   0.264   2.380  0.9172  0.1945 -0.4361
  276MOL0     H37260   1.687   0.369   2.390  1.2313 -1.9324  0.8996
  277MOL0     O37261   3.876   4.572   8.814 -0.0672 -0.7655 -0.1689
  277MOL0     C37262   3.980   4.532   8.767 -0.1857 -0.0018  1.0140
  277MOL0     O37263   4.000   4.515   8.632 -0.3094 -0.7777 -0.2525
  277MOL0     C37264   3.898   4.489   8.539  0.8217 -0.0578 -0.9167
  277MOL0     C37265   3.787   4.398   8.549 -0.7439 -0.9832 -0.0181
  277MOL0     C37266   3.692   4.388   8.450  0.2681  0.5248 -0.7928
  277MOL0     C37267   3.714   4.446   8.320 -0.1886  0.4746 -0.2807
  277MOL0     O37268   3.633   4.434   8.212 -0.6109 -0.2866  1.6263
  277MOL0     C37269   3.580   4.296   8.190  0.1932 -0.5421  0.0238
  277MOL0     C37270   3.647   4.243   8.066 -0.9151 -0.1617 -1.0802
  277MOL0     C37271   3.560   4.145   7.985  0.7474  0.3014 -0.3752
  277MOL0     C37272   3.494   4.030   8.066 -0.9502  1.4204  0.0180
  277MOL0     C37273   3.405   3.940   7.977  0.3071 -1.4613  0.2524
  277MOL0     C37274   3.330   3.842   8.077 -0.1446  0.1219  0.3018
  277MOL0     C37275   3.410   3.756   8.181  0.1783  0.3470  0.6027
  277MOL0     C37276   3.474   3.637   8.106 -0.2966 -0.2904 -0.6763
  277MOL0     N37277   3.564   3.550   8.187 -0.2142  1.1623  0.7317
  277MOL0     C37278   3.668   3.599   8.265 -0.4940 -0.0433 -0.2017
  277MOL0     C37279   3.735   3.481   8.307 -0.5136  0.7812  0.9572
  277MOL0     C37280   3.862   3.472   8.391 -0.6091  0.1724 -0.3023
  277MOL0     C37281   3.992   3.446   8.302  0.6429  0.9052  0.2468
  277MOL0     C37282   4.066   3.569   8.262  0.1149  0.4871  0.9781
  277MOL0     C37283   4.213   3.545   8.265  0.7762 -0.1564  0.4248
  277MOL0     O37284   4.290   3.636   8.195 -0.6389 -0.1917  0.1690
  277MOL0     C37285   4.408   3.674   8.244 -1.1529 -0.1695 -0.1292
  277MOL0     C37286   4.483   3.755   8.151  0.1527  0.6957 -0.1388
  277MOL0     C37287   4.611   3.813   8.181  0.0062  0.5559  0.2200
  277MOL0     C37288   4.670   3.779   8.313  0.2032 -0.5565  0.2217
  277MOL0     C37289   4.801   3.819   8.349 -0.8780  0.4872  0.4136
  277MOL0     O37290   4.873   3.892   8.265  0.4450 -1.0175  0.2321
  277MOL0     C37291   4.994   3.922   8.316  0.2971  0.2290  1.1069
  277MOL0     C37292   5.097   3.822   8.298 -0.3601 -0.1812  1.3263
  277MOL0     C37293   5.234   3.847   8.318  0.3717  0.1431  0.7088
  277MOL0     C37294   5.267   3.967   8.381  1.2050 -0.4931 -0.3329
  277MOL0     O37295   5.402   3.962   8.413 -1.1557 -0.2894  0.3258
  277MOL0     C37296   5.457   4.087   8.470  0.0726  0.6591  0.8892
  277MOL0     C37297   5.592   4.098   8.433 -0.1517 -0.2220 -0.0970
  277MOL0     C37298   5.653   4.229   8.493  0.0178 -0.7522  0.2866
  277MOL0     C37299   5.800   4.243   8.464  0.4759  0.8302  0.5244
  277MOL0     C37300   5.810   4.302   8.319  0.1800 -0.4475  0.5319
  277MOL0     C37301   5.952   4.300   8.266  0.4895 -0.0776  0.3701
  277MOL0     C37302   5.967   4.333   8.112  0.7192 -0.4392  0.2094
  277MOL0     C37303   5.980   4.189   8.038 -0.4466  0.1200  0.5170
  277MOL0    Cl37304   5.857   4.072   8.086 -0.4227 -0.1787  0.3019
  277MOL0     C37305   5.164   4.069   8.397  0.0631  0.2420  0.3914
  277MOL0     C37306   5.043   4.040   8.359 -0.2317 -0.4640  0.3447
  277MOL0     O37307   4.841   3.773   8.461 -0.2481 -0.5166  0.9768
  277MOL0     C37308   4.587   3.702   8.397  0.2581 -0.4025  0.1499
  277MOL0     C37309   4.467   3.646   8.368 -0.3098 -0.5997 -0.2302
  277MOL0     N37310   3.661   3.372   8.258  0.1633  0.3081 -0.8231
  277MOL0     N37311   3.563   3.414   8.193 -0.1290 -0.0259  1.1673
  277MOL0     C37312   3.841   4.514   8.311 -0.5773  0.5441  0.3984
  277MOL0     C37313   3.921   4.544   8.414 -0.7624  0.2072 -0.4427
  277MOL0     C37314   4.106   4.508   8.847 -0.5744  0.1402  0.1919
  277MOL0     C37315   4.199   4.413   8.791  0.0249 -0.0190 -0.1616
  277MOL0     C37316   4.304   4.374   8.876  0.1951  0.1793  0.2199
  277MOL0     C37317   4.313   4.415   9.013 -0.4394 -0.5787  0.0517
  277MOL0     O37318   4.419   4.397   9.099  0.0260 -0.3703  0.4270
  277MOL0     C37319   4.542   4.328   9.048  0.5643 -0.5810 -0.1447
  277MOL0     C37320   4.660   4.348   9.153 -0.1545  1.1859  0.3621
  277MOL0     C37321   4.641   4.253   9.277 -0.5440  0.2349 -0.3987
  277MOL0     C37322   4.746   4.285   9.393  0.1827  0.4888  0.2585
  277MOL0     C37323   4.875   4.215   9.367 -1.0816  0.2378 -1.4324
  277MOL0     C37324   4.977   4.162   9.326 -0.6492 -0.1137 -0.5444
  277MOL0     C37325   4.234   4.518   9.051  0.5191  0.1174 -0.0697
  277MOL0     C37326   4.129   4.566   8.979 -0.9504  0.2936  0.3437
  277MOL0     C37327   4.041   4.671   9.041 -0.8402 -0.0722  1.0407
  277MOL0     H37328   3.770   4.344   8.642 -1.1734  0.2519  0.6552
  277MOL0     H37329   3.600   4.335   8.471 -0.7357  3.5833  3.8505
  277MOL0     H37330   3.590   4.234   8.279  0.8179  0.7966  0.9271
  277MOL0     H37331   3.472   4.284   8.173  0.4318  0.0958 -2.2639
  277MOL0     H37332   3.734   4.191   8.108 -1.8261 -0.4307  0.5907
  277MOL0     H37333   3.666   4.325   7.997 -4.1191  1.8948  0.2562
  277MOL0     H37334   3.625   4.107   7.905  3.2085  3.4661 -0.0647
  277MOL0     H37335   3.481   4.209   7.944  1.3575  1.2675 -0.0786
  277MOL0     H37336   3.571   3.968   8.115 -2.4759 -1.9363 -1.5127
  277MOL0     H37337   3.425   4.071   8.140 -3.6454  0.7855 -2.0093
  277MOL0     H37338   3.336   3.993   7.911  2.5103 -0.9970 -1.8004
  277MOL0     H37339   3.471   3.892   7.905  0.2012 -1.3129  0.0565
  277MOL0     H37340   3.245   3.885   8.130 -0.7692 -0.3696 -0.2696
  277MOL0     H37341   3.284   3.766   8.012 -0.1445  0.6876 -0.3666
  277MOL0     H37342   3.353   3.718   8.266 -2.6727  0.7793 -0.9887
  277MOL0     H37343   3.488   3.812   8.233  2.5369  0.4988 -2.7100
  277MOL0     H37344   3.401   3.564   8.069  0.4271 -1.6358  0.4747
  277MOL0     H37345   3.536   3.665   8.019  2.5556 -3.3410  0.1584
  277MOL0     H37346   3.696   3.702   8.279 -1.7167  0.0525  2.0507
  277MOL0     H37347   3.879   3.563   8.449  0.5771  1.0178 -1.9038
  277MOL0     H37348   3.852   3.388   8.461  0.9337 -0.9928 -1.3990
  277MOL0     H37349   4.060   3.375   8.350  0.0020  0.4661  0.5121
  277MOL0     H37350   3.963   3.394   8.210 -2.3481 -1.5044  2.3634
  277MOL0     H37351   4.031   3.661   8.310  1.1744  0.1198  2.5215
  277MOL0     H37352   4.037   3.580   8.157 -0.2681  0.9363  1.1275
  277MOL0     H37353   4.239   3.450   8.219 -0.8737  0.2603 -1.5180
  277MOL0     H37354   4.239   3.546   8.371 -0.2770  2.0328  0.7131
  277MOL0     H37355   4.441   3.787   8.057 -3.0957  1.6204  1.4730
  277MOL0     H37356   4.659   3.880   8.111  2.2858  2.4218  3.3132
  277MOL0     H37357   5.060   3.727   8.261 -4.2217  0.4137  3.1952
  277MOL0     H37358   5.310   3.771   8.298 -1.0374 -1.5548  1.5239
  277MOL0     H37359   5.400   4.174   8.436  0.3168  1.5221  2.5462
  277MOL0     H37360   5.452   4.073   8.579  0.7278 -0.3917  0.8041
  277MOL0     H37361   5.652   4.012   8.465  0.9359 -0.8258 -3.3642
  277MOL0     H37362   5.594   4.082   8.324 -1.5415  1.4328 -0.4045
  277MOL0     H37363   5.596   4.314   8.456 -0.0770  0.1071  2.2867
  277MOL0     H37364   5.631   4.235   8.600  0.3440  1.4836  0.2714
  277MOL0     H37365   5.855   4.149   8.477  0.8714  0.7668 -1.3418
  277MOL0     H37366   5.839   4.330   8.518 -0.6344  3.3096 -2.3621
  277MOL0     H37367   5.775   4.406   8.315 -3.4679 -1.5679 -1.9026
  277MOL0     H37368   5.743   4.239   8.259 -2.0503  3.2102 -1.1792
  277MOL0     H37369   6.005   4.374   8.326 -0.0963 -0.5829  1.5400
  277MOL0     H37370   6.000   4.204   8.288 -2.1142 -1.8236 -1.0384
  277MOL0     H37371   6.059   4.392   8.109 -0.2698  1.4823  3.1958
  277MOL0     H37372   5.890   4.394   8.063  1.1521  1.3201  1.6183
  277MOL0     H37373   5.967   4.206   7.931 -2.2508 -3.3041  0.0626
  277MOL0     H37374   6.081   4.148   8.049 -0.1543  1.2641  2.8045
  277MOL0     H37375   5.169   4.173   8.427 -4.9014 -0.0202  3.2530
  277MOL0     H37376   4.966   4.117   8.357  0.8216  0.7735  2.9979
  277MOL0     H37377   4.624   3.676   8.496  2.7007 -0.3433 -0.6968
  277MOL0     H37378   4.423   3.582   8.444 -0.5147  2.7984  2.8429
  277MOL0     H37379   3.860   4.554   8.212 -1.3038  0.4342  0.2061
  277MOL0     H37380   4.017   4.587   8.389 -0.0852  2.4049  4.6756
  277MOL0     H37381   4.190   4.369   8.692 -2.3371  0.0417 -0.0193
  277MOL0     H37382   4.372   4.299   8.837  0.1639  1.1765 -1.8804
  277MOL0     H37383   4.569   4.375   8.953  1.2367 -1.5859 -0.4710
  277MOL0     H37384   4.516   4.223   9.028 -0.1414 -1.3479  3.9366
  277MOL0     H37385   4.684   4.454   9.164  3.0479  1.0260 -3.1703
  277MOL0     H37386   4.752   4.324   9.099 -1.2748  0.0971 -1.1427
  277MOL0     H37387   4.651   4.147   9.253  0.2187 -0.2313  1.7026
  277MOL0     H37388   4.541   4.267   9.319 -1.4553 -0.9474 -2.0879
  277MOL0     H37389   4.763   4.393   9.403 -0.9579  0.8699 -1.4655
  277MOL0     H37390   4.703   4.243   9.484 -2.2412  2.2310  0.0090
  277MOL0     H37391   5.072   4.115   9.312  0.8639  2.0309  1.5919
  277MOL0     H37392   4.259   4.561   9.147 -0.2982  0.3976  0.0273
  277MOL0     H37393   4.073   4.692   9.143 -0.2182  0.6385  0.7032
  277MOL0     H37394   4.044   4.765   8.986  2.5278  0.9863  2.7799
  277MOL0     H37395   3.939   4.634   9.056 -1.1835  0.7381  0.7372
  278MOL0     O37396   1.564   5.966   2.255 -0.3034  0.2264  0.1143
  278MOL0     C37397   1.448   5.973   2.225  0.0346  0.3327  0.8520
  278MOL0     O37398   1.395   6.094   2.175  0.1847  0.7202 -0.9610
  278MOL0     C37399   1.467   6.207   2.188 -1.0405 -0.0749 -0.2162
  278MOL0     C37400   1.557   6.242   2.088  0.0446  0.3848 -0.5216
  278MOL0     C37401   1.632   6.359   2.085  1.9657 -0.1343  0.0575
  278MOL0     C37402   1.620   6.443   2.192  0.7909  0.1639 -0.3756
  278MOL0     O37403   1.669   6.575   2.191  0.0523 -0.4178  1.1368
  278MOL0     C37404   1.755   6.626   2.085 -0.0477 -0.1599  0.0864
  278MOL0     C37405   1.895   6.570   2.093  0.5490  0.1503 -0.7707
  278MOL0     C37406   1.959   6.580   2.236 -0.0311 -0.8510  0.1478
  278MOL0     C37407   2.098   6.526   2.237  0.0672 -0.3287  0.3841
  278MOL0     C37408   2.180   6.557   2.366 -0.7286 -1.2168  0.0596
  278MOL0     C37409   2.107   6.497   2.490  0.3833 -0.4137 -0.4636
  278MOL0     C37410   2.190   6.493   2.625 -0.7236 -0.9190  0.7600
  278MOL0     C37411   2.127   6.436   2.747 -0.2108  1.3023 -0.0371
  278MOL0     N37412   2.216   6.420   2.866  0.2913 -0.0057 -0.2457
  278MOL0     C37413   2.198   6.450   3.005  0.4941 -0.6225  0.5395
  278MOL0     C37414   2.297   6.394   3.073 -0.8316  0.6165  0.1916
  278MOL0     C37415   2.307   6.393   3.221  1.4455 -0.7785  0.5296
  278MOL0     C37416   2.453   6.427   3.262 -1.0266 -0.0621 -0.1044
  278MOL0     C37417   2.481   6.378   3.407 -0.0128  0.1951 -0.3941
  278MOL0     C37418   2.619   6.426   3.447 -0.0082 -0.1745  0.3911
  278MOL0     O37419   2.654   6.408   3.579 -0.1298  0.2351 -0.5270
  278MOL0     C37420   2.568   6.474   3.669  0.7888  0.9355  0.1399
  278MOL0     C37421   2.558   6.612   3.666 -0.6626  0.4530 -1.2658
  278MOL0     C37422   2.465   6.674   3.759 -0.5818  0.9020  1.2836
  278MOL0     C37423   2.387   6.604   3.850 -1.0181  0.8138 -0.8057
  278MOL0     C37424   2.297   6.671   3.947  0.7235 -0.1298  0.2679
  278MOL0     O37425   2.235   6.593   4.038  0.8186 -1.0036  0.4993
  278MOL0     C37426   2.163   6.636   4.146  0.5148  0.8296 -0.1083
  278MOL0     C37427   2.060   6.557   4.195  0.1457  0.0472  0.9080
  278MOL0     C37428   1.974   6.596   4.299  0.0597 -0.1242 -0.8478
  278MOL0     C37429   1.987   6.723   4.356 -0.7125  0.2126  0.3150
  278MOL0     O37430   1.897   6.762   4.447 -0.1497  0.5006 -0.1472
  278MOL0     C37431   1.936   6.724   4.586 -0.1377 -0.1656 -0.5731
  278MOL0     C37432   1.870   6.828   4.681  0.6161  0.1028  0.5404
  278MOL0     C37433   1.719   6.840   4.678  0.2183 -0.0927 -0.1851
  278MOL0     C37434   1.657   6.703   4.737 -0.7613 -0.3869 -0.6504
  278MOL0     C37435   1.496   6.706   4.739  0.2118  0.8343 -0.2226
  278MOL0     C37436   1.435   6.578   4.796 -0.6833  0.3235 -0.4921
  278MOL0     C37437   1.458   6.557   4.947 -0.0829 -0.1623 -1.0060
  278MOL0     C37438   1.421   6.671   5.047 -1.9462 -0.7011 -0.8434
  278MOL0    Cl37439   1.485   6.640   5.211 -0.0368 -0.1030 -0.0172
  278MOL0     C37440   2.084   6.814   4.306  0.4287  0.9149  0.3493
  278MOL0     C37441   2.170   6.767   4.205 -0.1031  0.4083  0.3450
  278MOL0     O37442   2.276   6.792   3.928 -0.3016  0.0365 -0.8198
  278MOL0     C37443   2.418   6.471   3.860  0.0357  0.7451  0.0172
  278MOL0     C37444   2.504   6.402   3.764  0.4369 -0.5189 -0.6643
  278MOL0     N37445   2.383   6.333   2.976  0.3765  0.2779  0.3924
  278MOL0     N37446   2.342   6.359   2.860 -0.2677 -0.5353  0.9413
  278MOL0     C37447   1.519   6.417   2.287 -0.3768  0.6224  0.4273
  278MOL0     C37448   1.435   6.307   2.283  0.0977 -0.6430  0.1444
  278MOL0     C37449   1.366   5.853   2.248 -0.1337 -0.1018  0.6081
  278MOL0     C37450   1.426   5.741   2.303  0.6572 -0.5346  0.2713
  278MOL0     C37451   1.355   5.626   2.331 -0.0149  0.4473  0.2252
  278MOL0     C37452   1.220   5.613   2.290 -0.4295 -0.8544 -0.7789
  278MOL0     O37453   1.133   5.513   2.313  0.0295  0.0376 -0.0550
  278MOL0     C37454   1.175   5.394   2.394  0.3823 -0.0405  0.0170
  278MOL0     C37455   1.111   5.403   2.539 -0.3778  0.1100  0.2329
  278MOL0     C37456   0.976   5.325   2.566 -0.4356 -0.2348  0.0395
  278MOL0     C37457   0.967   5.185   2.519  0.1237 -0.4078  1.0702
  278MOL0     C37458   0.861   5.103   2.580 -0.2057  0.4798  0.0634
  278MOL0     C37459   0.751   5.075   2.625 -0.5294 -0.1935 -0.3439
  278MOL0     C37460   1.156   5.730   2.251 -0.4070  0.4224  0.2785
  278MOL0     C37461   1.226   5.850   2.224  0.2496 -0.1229  0.8274
  278MOL0     C37462   1.135   5.962   2.178 -0.6946  0.8446  0.9882
  278MOL0     H37463   1.588   6.168   2.014  0.7994  1.6555 -1.5100
  278MOL0     H37464   1.709   6.375   2.010  3.3350 -0.9540  1.2556
  278MOL0     H37465   1.712   6.587   1.992  1.6277 -2.6413  0.2817
  278MOL0     H37466   1.748   6.735   2.082 -1.5543 -0.2467 -1.1410
  278MOL0     H37467   1.960   6.612   2.016  2.0255 -0.9192 -0.1448
  278MOL0     H37468   1.872   6.466   2.071 -0.9509 -0.4890  3.0475
  278MOL0     H37469   1.888   6.522   2.297 -2.7923  3.5903  1.6357
  278MOL0     H37470   1.945   6.686   2.259 -0.6548 -0.1976 -2.8892
  278MOL0     H37471   2.095   6.417   2.228  1.0954 -0.2732 -1.0958
  278MOL0     H37472   2.151   6.574   2.153  0.4707  2.1323  1.9432
  278MOL0     H37473   2.282   6.518   2.368 -0.3627 -0.2744  0.2174
  278MOL0     H37474   2.191   6.665   2.371  0.3696 -1.2974 -0.4140
  278MOL0     H37475   2.017   6.555   2.508  1.2886  1.2422 -1.0721
  278MOL0     H37476   2.092   6.391   2.466  1.8997 -1.2589  1.8972
  278MOL0     H37477   2.210   6.597   2.655 -0.3968 -0.6069 -0.4762
  278MOL0     H37478   2.287   6.447   2.603 -0.0518  0.7960 -0.1267
  278MOL0     H37479   2.029   6.476   2.774 -2.3576 -5.4279  5.1756
  278MOL0     H37480   2.096   6.338   2.708 -3.2451  2.2503 -0.3442
  278MOL0     H37481   2.117   6.507   3.051 -0.4441 -2.1487  0.8596
  278MOL0     H37482   2.237   6.465   3.266 -0.1430 -1.7786 -0.2730
  278MOL0     H37483   2.282   6.292   3.254  1.0552 -1.4145 -1.5885
  278MOL0     H37484   2.528   6.377   3.199 -1.5355 -1.2106  0.1627
  278MOL0     H37485   2.452   6.536   3.256 -2.8243  0.0407  1.2850
  278MOL0     H37486   2.463   6.271   3.413  0.2194  0.0784 -1.5340
  278MOL0     H37487   2.411   6.429   3.474 -0.9796  1.4630 -2.2789
  278MOL0     H37488   2.648   6.530   3.429  0.3375 -0.2295  0.6149
  278MOL0     H37489   2.692   6.375   3.384 -1.5756 -0.9767 -0.8592
  278MOL0     H37490   2.625   6.648   3.587 -0.5637 -3.8132 -3.4019
  278MOL0     H37491   2.463   6.782   3.743  2.3043  0.9731  0.8650
  278MOL0     H37492   2.078   6.457   4.157  0.5491 -0.6557  2.8022
  278MOL0     H37493   1.904   6.524   4.341  0.2172  0.2141  0.0115
  278MOL0     H37494   1.906   6.625   4.622  1.0729  0.2010  1.5978
  278MOL0     H37495   2.044   6.735   4.595 -0.4435  1.5399  2.6608
  278MOL0     H37496   1.891   6.805   4.786 -1.2603 -1.3519  0.6439
  278MOL0     H37497   1.915   6.926   4.664 -0.7450  0.6690  0.0377
  278MOL0     H37498   1.699   6.923   4.747  1.1491 -0.9457  1.1548
  278MOL0     H37499   1.686   6.853   4.574 -1.3243 -0.7577  0.1872
  278MOL0     H37500   1.700   6.685   4.836  2.7201 -0.8661 -2.1141
  278MOL0     H37501   1.682   6.616   4.675 -0.1267 -0.5986 -0.1123
  278MOL0     H37502   1.458   6.721   4.637  2.5427  0.0955 -1.2823
  278MOL0     H37503   1.468   6.795   4.796  1.5054  1.1810 -0.0872
  278MOL0     H37504   1.329   6.588   4.773 -0.7450  0.7620 -0.0125
  278MOL0     H37505   1.479   6.493   4.742  2.1849  2.1160 -1.2082
  278MOL0     H37506   1.559   6.520   4.971 -0.7524  0.3607  3.4951
  278MOL0     H37507   1.409   6.461   4.964 -0.0478  0.1408  1.1614
  278MOL0     H37508   1.483   6.758   5.022 -0.9637 -0.4067  2.2826
  278MOL0     H37509   1.321   6.714   5.034 -1.8019  0.0894  0.5282
  278MOL0     H37510   2.083   6.915   4.345 -2.4599  1.8557 -1.7996
  278MOL0     H37511   2.238   6.846   4.175  0.7791 -0.0053  1.1948
  278MOL0     H37512   2.363   6.418   3.937  1.9890 -0.0729  0.9211
  278MOL0     H37513   2.519   6.295   3.772  0.1045 -0.4106  2.7727
  278MOL0     H37514   1.484   6.482   2.367  0.8444 -0.1421  1.6480
  278MOL0     H37515   1.371   6.284   2.367 -0.2384 -0.0288  0.0636
  278MOL0     H37516   1.529   5.743   2.339  1.5062 -2.7615 -1.7831
  278MOL0     H37517   1.409   5.542   2.374 -1.7275 -0.7643  0.1001
  278MOL0     H37518   1.283   5.373   2.396  0.7615  1.6834 -0.3605
  278MOL0     H37519   1.138   5.300   2.354  1.2826  0.1348 -1.3157
  278MOL0     H37520   1.098   5.511   2.556 -3.9897 -0.2838  0.6876
  278MOL0     H37521   1.190   5.375   2.609 -0.5319 -2.1970 -0.4434
  278MOL0     H37522   0.898   5.378   2.511  0.9235 -0.7578 -2.5767
  278MOL0     H37523   0.969   5.332   2.675  0.8472 -3.0453  0.4142
  278MOL0     H37524   0.946   5.192   2.412 -0.5371 -0.8228  1.1711
  278MOL0     H37525   1.071   5.152   2.529  0.8163  1.6987  1.4151
  278MOL0     H37526   0.655   5.047   2.665 -3.1095  4.1829 -2.6322
  278MOL0     H37527   1.049   5.718   2.246 -0.1061 -2.4090 -0.9003
  278MOL0     H37528   1.154   6.050   2.240 -0.3959  1.2907  0.2767
  278MOL0     H37529   1.149   5.977   2.070 -1.9464 -1.6963  0.3769
  278MOL0     H37530   1.028   5.937   2.182  0.0618 -3.2490  0.2838
  279MOL0     O37531  10.358   9.572   5.214  0.2227  0.0592 -0.0245
  279MOL0     C37532  10.386   9.658   5.139  0.6828 -0.4907  0.2957
  279MOL0     O37533  10.475   9.647   5.046  0.1571 -0.6861  0.8074
  279MOL0     C37534  10.528   9.522   5.035 -1.0793  0.4812  0.1497
  279MOL0     C37535  10.476   9.429   4.945 -0.1160  0.3603 -0.0079
  279MOL0     C37536  10.542   9.301   4.941 -0.4488 -0.0974  0.5513
  279MOL0     C37537  10.663   9.283   5.008  0.5710 -0.1625 -0.2576
  279MOL0     O37538  10.736   9.173   5.004  1.0514  0.2413 -0.1936
  279MOL0     C37539  10.705   9.080   4.898  1.1513  1.1295  1.1997
  279MOL0     C37540  10.838   9.032   4.848  0.0678  0.2109  0.1536
  279MOL0     C37541  10.895   8.935   4.945 -0.2722  0.1957 -0.6126
  279MOL0     C37542  10.883   8.798   4.887 -0.1120  0.3736  0.7221
  279MOL0     C37543  10.923   8.700   5.000 -0.3802  0.3114 -0.5071
  279MOL0     C37544  10.956   8.558   4.961 -0.2130 -0.5132 -0.0407
  279MOL0     C37545  11.011   8.491   5.082 -0.0033  0.5803 -0.7212
  279MOL0     C37546  11.146   8.547   5.132 -0.4689  1.0179  0.2271
  279MOL0     N37547  11.203   8.441   5.214  0.1156 -0.5783 -0.1455
  279MOL0     C37548  11.149   8.381   5.329 -0.7005  0.2285 -0.1645
  279MOL0     C37549  11.226   8.278   5.361 -0.2442  0.0003  0.3214
  279MOL0     C37550  11.206   8.173   5.472  0.1689  0.6422  0.9672
  279MOL0     C37551  11.202   8.223   5.618 -0.3385 -0.9448  0.5169
  279MOL0     C37552  11.345   8.275   5.654 -0.8208  0.8398 -0.0027
  279MOL0     C37553  11.390   8.224   5.794  0.5050 -1.0614  0.8794
  279MOL0     O37554  11.516   8.292   5.819  0.0675 -0.0858 -0.2893
  279MOL0     C37555  11.557   8.309   5.950 -0.9310  0.1928 -0.3316
  279MOL0     C37556  11.601   8.205   6.032  0.0785  0.5049  0.8832
  279MOL0     C37557  11.631   8.226   6.174  0.8855  0.2001  0.5167
  279MOL0     C37558  11.620   8.353   6.226 -0.3414  0.3381  0.7601
  279MOL0     C37559  11.632   8.371   6.370 -0.7049 -0.0219 -0.9802
  279MOL0     O37560  11.632   8.263   6.447  0.2556  0.4579 -0.2678
  279MOL0     C37561  11.610   8.267   6.585  0.1003  0.3571  0.1471
  279MOL0     C37562  11.559   8.376   6.671 -0.2432  0.5096  0.4106
  279MOL0     C37563  11.527   8.356   6.806 -0.1769 -0.0703 -0.8099
  279MOL0     C37564  11.568   8.236   6.871  0.2598  1.1690 -0.3213
  279MOL0     O37565  11.539   8.205   7.001 -1.3046 -0.3799 -0.1708
  279MOL0     C37566  11.424   8.243   7.076  0.3794 -0.5081 -0.4920
  279MOL0     C37567  11.296   8.190   7.012  0.2750  0.1331  0.4938
  279MOL0     C37568  11.178   8.273   7.067 -0.0112 -0.6937  0.0512
  279MOL0     C37569  11.075   8.300   6.955  0.6904  0.0921  0.1660
  279MOL0     C37570  10.946   8.376   7.001  0.2111  0.0093 -0.9431
  279MOL0     C37571  10.863   8.413   6.878  0.8441  0.0561  0.8477
  279MOL0     C37572  10.765   8.517   6.924 -0.3294 -0.0033  0.0563
  279MOL0     C37573  10.697   8.593   6.811 -0.3231 -0.1148 -0.1562
  279MOL0    Cl37574  10.568   8.685   6.881 -0.0750  0.1748  0.0619
  279MOL0     C37575  11.620   8.132   6.786 -0.1735 -0.5982 -0.9586
  279MOL0     C37576  11.638   8.142   6.648  0.1896  0.7237  0.0198
  279MOL0     O37577  11.616   8.492   6.405 -0.7338 -0.0776 -1.0508
  279MOL0     C37578  11.607   8.462   6.135  0.1385  0.3768 -0.0914
  279MOL0     C37579  11.573   8.438   6.002  0.7244 -1.0709 -0.5457
  279MOL0     N37580  11.336   8.274   5.273  0.4203  0.3484  0.4023
  279MOL0     N37581  11.321   8.369   5.182  0.3267 -0.1452 -0.5852
  279MOL0     C37582  10.716   9.378   5.089  0.3219  0.3665 -0.2368
  279MOL0     C37583  10.648   9.499   5.100 -0.6318  0.9440 -0.1336
  279MOL0     C37584  10.310   9.781   5.121 -0.2368  0.3216  0.4174
  279MOL0     C37585  10.287   9.827   4.990  0.1928  0.1394  0.1480
  279MOL0     C37586  10.188   9.929   4.967 -0.2752  0.2495 -0.1271
  279MOL0     C37587  10.120   9.978   5.081 -0.5065 -0.0082  0.1120
  279MOL0     O37588  10.031  10.082   5.074  0.8915 -1.2014 -0.3169
  279MOL0     C37589   9.942  10.091   4.961 -0.1588 -0.0529  0.5080
  279MOL0     C37590   9.843  10.207   4.974  0.4354 -0.6776 -0.1108
  279MOL0     C37591   9.726  10.193   4.877  0.2359  0.4264  0.1077
  279MOL0     C37592   9.758  10.196   4.727  0.3573  0.2062 -0.1603
  279MOL0     C37593   9.857  10.298   4.690  0.2536 -0.5667  0.7956
  279MOL0     C37594   9.947  10.384   4.673  0.0050  0.1220 -0.0759
  279MOL0     C37595  10.166   9.942   5.207  0.1051 -0.3599 -0.3685
  279MOL0     C37596  10.258   9.850   5.226  0.3487 -1.2896  0.9625
  279MOL0     C37597  10.318   9.821   5.360 -0.4114  0.1766 -0.1579
  279MOL0     H37598  10.379   9.451   4.903 -0.0685 -3.5374 -2.7452
  279MOL0     H37599  10.496   9.222   4.882  0.6571 -2.7410  2.9884
  279MOL0     H37600  10.651   8.994   4.938  1.8359  0.3977  0.5922
  279MOL0     H37601  10.655   9.123   4.810  1.1887 -2.2849 -0.6811
  279MOL0     H37602  10.910   9.114   4.841  0.6843 -0.3601 -0.3491
  279MOL0     H37603  10.829   8.981   4.752 -3.0088 -2.0380  1.4868
  279MOL0     H37604  10.856   8.945   5.046  2.3281 -1.4067  0.6632
  279MOL0     H37605  11.001   8.950   4.966  0.1651  0.5731 -2.7950
  279MOL0     H37606  10.779   8.778   4.862 -0.5934  2.0517  1.2134
  279MOL0     H37607  10.938   8.789   4.792  0.4517 -0.3785  1.1092
  279MOL0     H37608  10.987   8.742   5.078 -1.5127 -1.5012  1.5454
  279MOL0     H37609  10.838   8.689   5.069 -0.4455  2.0000 -0.2721
  279MOL0     H37610  10.868   8.498   4.935  0.5996 -2.3272  1.1791
  279MOL0     H37611  11.006   8.553   4.863 -1.9788 -2.1195 -0.9161
  279MOL0     H37612  11.021   8.391   5.038 -3.5306  0.9283 -2.6899
  279MOL0     H37613  10.937   8.497   5.162  1.4182  0.4784  0.6599
  279MOL0     H37614  11.207   8.574   5.045  3.7369 -1.0627  2.2424
  279MOL0     H37615  11.132   8.634   5.197 -2.2457 -0.8938  2.5694
  279MOL0     H37616  11.055   8.393   5.382  0.6798  1.6107  2.1140
  279MOL0     H37617  11.110   8.120   5.460 -0.4028  1.0146  3.3721
  279MOL0     H37618  11.289   8.101   5.471 -0.7933 -0.6573 -2.7475
  279MOL0     H37619  11.123   8.300   5.622 -0.5177 -1.0425 -0.7905
  279MOL0     H37620  11.183   8.138   5.684 -1.9008 -0.4473  0.7710
  279MOL0     H37621  11.332   8.384   5.664 -0.4157  1.3213 -3.5415
  279MOL0     H37622  11.417   8.252   5.575 -1.0689 -1.8056  0.4757
  279MOL0     H37623  11.402   8.115   5.784 -0.5774 -0.9661 -2.8693
  279MOL0     H37624  11.308   8.241   5.864 -2.4814 -1.7521 -2.1530
  279MOL0     H37625  11.594   8.104   5.992 -0.5763  0.3767  1.2970
  279MOL0     H37626  11.660   8.139   6.233 -0.6808 -0.7774 -0.1106
  279MOL0     H37627  11.530   8.468   6.621 -1.2332  0.2911  0.5617
  279MOL0     H37628  11.462   8.425   6.860 -3.5821 -6.3852  4.8319
  279MOL0     H37629  11.430   8.209   7.180 -0.8151  2.8116  0.7749
  279MOL0     H37630  11.429   8.351   7.091 -2.7391 -0.1223 -1.4171
  279MOL0     H37631  11.293   8.199   6.903  2.8497  0.2699  0.3748
  279MOL0     H37632  11.284   8.085   7.041 -2.8713 -0.2927 -1.8187
  279MOL0     H37633  11.128   8.215   7.146 -0.7850 -1.4913 -0.9866
  279MOL0     H37634  11.209   8.370   7.107  1.1778  0.3378 -3.0843
  279MOL0     H37635  11.047   8.200   6.920 -2.3559 -0.2181  2.9571
  279MOL0     H37636  11.125   8.364   6.882 -0.5549 -0.9546 -1.6971
  279MOL0     H37637  10.977   8.472   7.043 -3.8772  0.1212  2.4704
  279MOL0     H37638  10.887   8.323   7.076 -0.5870  0.9150 -0.9311
  279MOL0     H37639  10.922   8.454   6.795  0.2534 -0.1953  0.2983
  279MOL0     H37640  10.800   8.327   6.854  0.0815 -0.1638  3.3455
  279MOL0     H37641  10.814   8.593   6.987 -1.2888 -0.8517  1.9133
  279MOL0     H37642  10.688   8.489   6.997 -1.9597  4.1607  0.2503
  279MOL0     H37643  10.767   8.660   6.760  0.9457 -0.2104  1.3803
  279MOL0     H37644  10.658   8.525   6.735  0.0971 -1.6010  0.9250
  279MOL0     H37645  11.641   8.036   6.833  0.1164 -0.1984 -0.2534
  279MOL0     H37646  11.682   8.065   6.586 -3.9571 -2.0078  0.1109
  279MOL0     H37647  11.615   8.562   6.175 -3.1488  0.4783  0.5401
  279MOL0     H37648  11.561   8.527   5.942  1.1500 -0.9678 -0.4882
  279MOL0     H37649  10.805   9.359   5.148 -1.5594 -5.1795  1.3903
  279MOL0     H37650  10.684   9.569   5.175  2.7371 -2.5939  1.9130
  279MOL0     H37651  10.347   9.792   4.908  0.0029 -0.1579  0.1357
  279MOL0     H37652  10.165   9.970   4.870 -3.0970 -1.8982 -0.5026
  279MOL0     H37653   9.896   9.992   4.958 -4.0188  1.5046  2.2230
  279MOL0     H37654   9.995  10.098   4.865 -0.5743 -1.8741  0.1158
  279MOL0     H37655   9.897  10.302   4.971 -3.0062  1.3994 -2.3711
  279MOL0     H37656   9.782  10.208   5.064 -1.3627 -2.2338 -1.2310
  279MOL0     H37657   9.657  10.272   4.909 -0.9958 -0.0213 -1.3277
  279MOL0     H37658   9.665  10.105   4.901  0.4845 -0.2235 -1.5819
  279MOL0     H37659   9.803  10.099   4.703  1.3055  0.1492  1.7028
  279MOL0     H37660   9.672  10.203   4.659  0.5993  0.7536 -0.4132
  279MOL0     H37661  10.036  10.441   4.653 -0.7786  2.2044  1.9247
  279MOL0     H37662  10.111   9.985   5.290  0.6848  1.2754 -0.7779
  279MOL0     H37663  10.307   9.904   5.430 -0.2335 -0.5315  0.7380
  279MOL0     H37664  10.282   9.727   5.405  2.2818  0.4321  2.8757
  279MOL0     H37665  10.424   9.799   5.350 -0.1761 -0.4033  2.6988
  280MOL0     O37666   5.258   6.498   4.749  0.1681 -0.3572  0.4855
  280MOL0     C37667   5.298   6.389   4.787 -0.3821 -0.8253 -0.5582
  280MOL0     O37668   5.279   6.266   4.732 -0.9648  1.0449  0.1190
  280MOL0     C37669   5.227   6.277   4.608  0.3869 -0.3477  0.2555
  280MOL0     C37670   5.301   6.316   4.499  0.6637  0.6483  1.0818
  280MOL0     C37671   5.241   6.334   4.375 -0.8195  1.3192  1.3426
  280MOL0     C37672   5.103   6.301   4.360  0.2063  0.3140 -0.2640
  280MOL0     O37673   5.029   6.314   4.246  0.0929 -0.3122 -0.7013
  280MOL0     C37674   5.095   6.362   4.132  0.0310  0.7493 -0.6398
  280MOL0     C37675   4.984   6.383   4.029 -0.6786  0.2222 -0.3186
  280MOL0     C37676   5.039   6.364   3.879  0.2740  0.5520 -0.1237
  280MOL0     C37677   4.926   6.380   3.773 -0.5468  0.2526 -0.3742
  280MOL0     C37678   4.972   6.383   3.627 -0.1733  0.0667 -0.5217
  280MOL0     C37679   4.858   6.414   3.525  0.8492 -0.2816  0.3103
  280MOL0     C37680   4.888   6.357   3.387  0.3348 -0.1614 -0.4197
  280MOL0     C37681   5.022   6.409   3.334  1.2634 -0.8365 -0.8183
  280MOL0     N37682   5.042   6.350   3.196  0.0966 -0.3592 -0.6839
  280MOL0     C37683   5.041   6.218   3.168 -0.1255  0.2923  0.5897
  280MOL0     C37684   5.045   6.221   3.030 -0.1965  0.7895  0.3782
  280MOL0     C37685   5.080   6.100   2.937  0.0379  0.0804 -0.2565
  280MOL0     C37686   4.988   6.098   2.811  0.2032 -1.5016  0.8582
  280MOL0     C37687   5.039   5.994   2.718  0.5458 -0.0166  0.5778
  280MOL0     C37688   4.950   5.996   2.594  0.0400 -0.4066 -0.7212
  280MOL0     O37689   4.980   6.108   2.511  0.5980  0.2583 -0.2079
  280MOL0     C37690   4.897   6.131   2.406  0.5463  0.1072 -0.0412
  280MOL0     C37691   4.799   6.050   2.356 -0.0496  0.6235  0.4170
  280MOL0     C37692   4.713   6.093   2.252 -0.2214  0.4035  0.3600
  280MOL0     C37693   4.731   6.221   2.182 -0.9029  0.9061 -0.4056
  280MOL0     C37694   4.635   6.264   2.087  0.4913 -0.9474 -0.7972
  280MOL0     O37695   4.629   6.398   2.052 -0.8306  0.0142  0.7491
  280MOL0     C37696   4.541   6.437   1.953  0.6993 -0.9771 -0.0789
  280MOL0     C37697   4.417   6.381   1.918 -0.0634  0.9664 -0.7602
  280MOL0     C37698   4.337   6.439   1.821  0.2266  0.8064 -0.0851
  280MOL0     C37699   4.378   6.543   1.748 -0.0164 -0.2065 -0.6719
  280MOL0     O37700   4.309   6.581   1.636 -0.7650  0.7969  0.4812
  280MOL0     C37701   4.174   6.618   1.645  0.1976 -0.5157 -0.6074
  280MOL0     C37702   4.148   6.696   1.522 -0.0368  0.1687  1.7024
  280MOL0     C37703   4.197   6.834   1.535  0.1328 -0.4395  0.8330
  280MOL0     C37704   4.216   6.901   1.394 -0.3477  0.0977 -0.5850
  280MOL0     C37705   4.355   6.955   1.373  0.2547 -0.1442  0.5963
  280MOL0     C37706   4.467   6.854   1.356  0.0223  0.3668 -0.1611
  280MOL0     C37707   4.605   6.922   1.372 -0.7300  0.4245 -0.1834
  280MOL0     C37708   4.715   6.821   1.336  0.7655 -0.6303  0.8233
  280MOL0    Cl37709   4.876   6.893   1.359 -0.0590  0.1232 -0.0836
  280MOL0     C37710   4.508   6.603   1.775  0.1959 -0.0079 -0.1438
  280MOL0     C37711   4.577   6.550   1.882  0.4347 -0.1893 -1.1453
  280MOL0     O37712   4.564   6.177   2.045  0.1282  0.1017 -0.2646
  280MOL0     C37713   4.834   6.300   2.240  0.1897 -0.2885  0.5662
  280MOL0     C37714   4.915   6.257   2.347  0.2087  0.7464 -0.1233
  280MOL0     N37715   5.055   6.347   2.992  0.1500  0.4776  0.0155
  280MOL0     N37716   5.052   6.427   3.086  0.4719 -1.6055 -0.8796
  280MOL0     C37717   5.030   6.254   4.469  0.6814  0.3269  0.5008
  280MOL0     C37718   5.091   6.235   4.593  0.8524 -1.2166 -0.1314
  280MOL0     C37719   5.406   6.403   4.887 -0.5770  0.5342 -0.5896
  280MOL0     C37720   5.517   6.316   4.882  0.0579  0.2869 -0.1681
  280MOL0     C37721   5.629   6.332   4.969  0.1501  0.5333 -0.3457
  280MOL0     C37722   5.619   6.423   5.066  0.4092  0.0428  0.2961
  280MOL0     O37723   5.728   6.429   5.156 -0.3213  0.3526 -0.7593
  280MOL0     C37724   5.698   6.433   5.305  0.4199 -1.6253 -0.6271
  280MOL0     C37725   5.605   6.320   5.361  0.2815  0.0645 -0.3203
  280MOL0     C37726   5.595   6.299   5.514 -0.1524 -0.8249 -0.1478
  280MOL0     C37727   5.601   6.420   5.612  0.5109 -0.9365 -1.7882
  280MOL0     C37728   5.679   6.384   5.735 -0.0545 -0.5235  0.6126
  280MOL0     C37729   5.739   6.352   5.837  0.1620 -0.3477 -0.0250
  280MOL0     C37730   5.512   6.510   5.085 -0.1693  0.3853  1.0275
  280MOL0     C37731   5.406   6.498   4.995  0.4340  0.1839 -0.7566
  280MOL0     C37732   5.296   6.605   5.015 -0.0365  0.5346 -0.3923
  280MOL0     H37733   5.406   6.322   4.524  0.3884 -1.4724  3.0478
  280MOL0     H37734   5.309   6.375   4.301  0.4903 -2.6958  0.0349
  280MOL0     H37735   5.138   6.458   4.163  0.8998  0.1964 -0.0627
  280MOL0     H37736   5.166   6.283   4.105 -0.0809 -0.7572  2.8550
  280MOL0     H37737   4.958   6.487   4.050  2.7102  1.8957 -3.2740
  280MOL0     H37738   4.901   6.317   4.055  0.6534 -2.0107 -1.4369
  280MOL0     H37739   5.091   6.267   3.871  1.9871  1.3747  0.4750
  280MOL0     H37740   5.113   6.443   3.866  0.4491  0.9237  2.5734
  280MOL0     H37741   4.880   6.282   3.786  0.8627 -0.2217  1.5857
  280MOL0     H37742   4.859   6.466   3.782  2.1446  2.3730  0.9410
  280MOL0     H37743   5.058   6.451   3.620  1.4776 -1.2387  3.7820
  280MOL0     H37744   5.021   6.289   3.600 -1.2607 -0.6966  0.0826
  280MOL0     H37745   4.760   6.369   3.544 -1.3906  2.3444 -3.5592
  280MOL0     H37746   4.816   6.515   3.515 -1.5456 -1.2995 -0.7133
  280MOL0     H37747   4.821   6.383   3.305 -0.0301 -0.0029 -0.0726
  280MOL0     H37748   4.888   6.249   3.404 -0.0405 -0.0773  0.1407
  280MOL0     H37749   5.035   6.517   3.334 -0.0412 -0.6440  0.7560
  280MOL0     H37750   5.103   6.370   3.398  1.1996 -1.3202 -1.0245
  280MOL0     H37751   5.046   6.122   3.218 -0.4906  0.6570  1.3570
  280MOL0     H37752   5.186   6.109   2.912  0.4657 -3.8535 -0.4965
  280MOL0     H37753   5.072   6.000   2.980  2.7468 -1.1262 -2.2748
  280MOL0     H37754   4.884   6.067   2.826  0.3255 -1.8589  0.9906
  280MOL0     H37755   4.989   6.197   2.765  0.4126 -1.0892  1.7213
  280MOL0     H37756   5.014   5.899   2.766  2.5422 -1.2047 -0.6242
  280MOL0     H37757   5.142   5.997   2.683  0.3122 -0.8460 -0.1994
  280MOL0     H37758   4.846   5.996   2.627 -0.7875  4.7282 -2.3523
  280MOL0     H37759   4.974   5.912   2.527 -0.9697 -1.8720  0.6918
  280MOL0     H37760   4.787   5.950   2.396 -1.0309  0.0938 -1.0983
  280MOL0     H37761   4.631   6.024   2.237 -0.5797  0.6478  1.1338
  280MOL0     H37762   4.376   6.287   1.953  1.0009  0.5802 -0.4989
  280MOL0     H37763   4.251   6.377   1.796  2.2193 -3.2019  1.9078
  280MOL0     H37764   4.119   6.524   1.657  0.0368 -0.3533 -0.0550
  280MOL0     H37765   4.164   6.684   1.732 -0.0012 -0.9184 -0.3192
  280MOL0     H37766   4.198   6.643   1.440 -1.5183 -0.0691  0.9076
  280MOL0     H37767   4.039   6.685   1.519  0.0967 -0.9698  0.1391
  280MOL0     H37768   4.129   6.901   1.590  1.4295  1.1984  0.5273
  280MOL0     H37769   4.294   6.835   1.585  0.3138  3.8932  0.8213
  280MOL0     H37770   4.141   6.978   1.378 -2.9287 -1.7136  1.7309
  280MOL0     H37771   4.206   6.825   1.316 -1.1563  0.4483 -0.8287
  280MOL0     H37772   4.379   7.033   1.446  2.0787  2.6004 -2.6915
  280MOL0     H37773   4.336   7.016   1.284 -2.0390  0.3898  1.3586
  280MOL0     H37774   4.461   6.780   1.436 -0.3647  0.8430  0.2512
  280MOL0     H37775   4.451   6.805   1.259  3.5193  1.6186 -1.5412
  280MOL0     H37776   4.616   6.953   1.477 -1.2254 -0.1873  0.0563
  280MOL0     H37777   4.623   7.007   1.306  4.8317 -0.8976 -0.9141
  280MOL0     H37778   4.704   6.740   1.408 -0.6843 -0.0799  1.2492
  280MOL0     H37779   4.707   6.780   1.235  0.7658  1.5658 -0.1180
  280MOL0     H37780   4.538   6.687   1.712  3.8837 -1.6247 -0.7616
  280MOL0     H37781   4.671   6.596   1.911  1.0357 -3.0848  2.2827
  280MOL0     H37782   4.865   6.397   2.202  0.7004 -0.4981  0.4350
  280MOL0     H37783   5.000   6.310   2.389  3.0160 -2.6857 -0.9330
  280MOL0     H37784   4.925   6.231   4.463 -0.1049  3.4652  0.6019
  280MOL0     H37785   5.048   6.206   4.688 -0.2451 -0.4994 -0.3958
  280MOL0     H37786   5.511   6.242   4.803 -2.1957  3.2592 -3.0537
  280MOL0     H37787   5.720   6.273   4.965 -0.3550 -0.2150 -2.3690
  280MOL0     H37788   5.659   6.531   5.335  1.3042 -1.4843  0.1098
  280MOL0     H37789   5.793   6.422   5.357  1.7319  2.0011 -1.9273
  280MOL0     H37790   5.655   6.227   5.333 -0.6316 -0.7977  0.8017
  280MOL0     H37791   5.500   6.313   5.329  0.2726 -1.9474 -0.0249
  280MOL0     H37792   5.670   6.225   5.541 -1.6454 -2.1808  0.4806
  280MOL0     H37793   5.498   6.254   5.539 -0.5022 -1.3254 -2.2101
  280MOL0     H37794   5.640   6.510   5.564  1.1957 -0.8607 -1.1106
  280MOL0     H37795   5.498   6.449   5.636  0.9594 -0.1790 -0.6862
  280MOL0     H37796   5.797   6.338   5.926 -1.1551  0.1005  0.9476
  280MOL0     H37797   5.514   6.578   5.170 -3.4865 -0.2899  1.7722
  280MOL0     H37798   5.305   6.656   5.112 -0.3136  2.6291 -1.4185
  280MOL0     H37799   5.305   6.681   4.937 -0.4620  0.6336 -0.3450
  280MOL0     H37800   5.197   6.560   5.013 -0.7271  2.0005 -0.1671
  281MOL0     O37801   3.874   0.922   8.998  0.1485 -0.4362 -0.4321
  281MOL0     C37802   3.951   0.884   9.087  0.4697  0.6087 -0.2110
  281MOL0     O37803   3.947   0.918   9.221  0.2899 -0.3078  1.4718
  281MOL0     C37804   3.880   1.029   9.255 -0.4090 -0.9292  1.1160
  281MOL0     C37805   3.955   1.128   9.315 -0.2678  0.3440  0.2466
  281MOL0     C37806   3.892   1.231   9.381  0.4823  0.9256 -0.2691
  281MOL0     C37807   3.750   1.238   9.376 -0.0463 -0.4527  0.4697
  281MOL0     O37808   3.700   1.346   9.439  0.1969 -0.1916 -0.3475
  281MOL0     C37809   3.558   1.371   9.455  0.0058  0.2232  1.6462
  281MOL0     C37810   3.498   1.276   9.559 -0.4709 -0.4698 -1.0693
  281MOL0     C37811   3.361   1.329   9.615  0.8610  0.4414  0.7185
  281MOL0     C37812   3.286   1.234   9.704 -0.2805  0.2458  0.1962
  281MOL0     C37813   3.154   1.299   9.741 -0.5826 -0.4034  1.3228
  281MOL0     C37814   3.054   1.198   9.803  0.1796  0.1418 -0.1424
  281MOL0     C37815   2.914   1.244   9.825 -0.2496 -0.1504 -0.2868
  281MOL0     C37816   2.835   1.136   9.909  0.1982  0.1708  0.0929
  281MOL0     N37817   2.825   1.003   9.858 -0.0793  1.1971  0.6212
  281MOL0     C37818   2.841   0.881   9.928  0.2408  0.2217  0.2068
  281MOL0     C37819   2.802   0.786   9.839  0.1002  0.1755  1.3193
  281MOL0     C37820   2.787   0.644   9.870 -0.3763 -0.3932  0.2467
  281MOL0     C37821   2.814   0.550   9.748 -0.4303  0.5646  0.3564
  281MOL0     C37822   2.752   0.416   9.765  0.2341  0.8801  0.6782
  281MOL0     C37823   2.782   0.329   9.635  0.6791 -0.2004 -0.8877
  281MOL0     O37824   2.738   0.406   9.519  0.3131  0.4519 -0.0552
  281MOL0     C37825   2.819   0.397   9.407  1.2852 -0.0701 -0.2726
  281MOL0     C37826   2.892   0.284   9.368  0.0703  0.1110  0.1886
  281MOL0     C37827   2.976   0.290   9.254  0.8524  1.3247 -0.3011
  281MOL0     C37828   2.993   0.405   9.176 -0.4134 -0.5183  0.8090
  281MOL0     C37829   3.078   0.409   9.053 -0.3835  0.0881 -0.2812
  281MOL0     O37830   3.106   0.284   9.000 -0.9334 -0.1433  0.7902
  281MOL0     C37831   3.180   0.276   8.882  0.9166 -0.0542 -0.2111
  281MOL0     C37832   3.115   0.291   8.758  0.5467 -0.9007 -0.2133
  281MOL0     C37833   3.195   0.296   8.639  0.5543  0.1845 -0.4911
  281MOL0     C37834   3.338   0.289   8.643 -0.8532  0.3263  0.6717
  281MOL0     O37835   3.418   0.306   8.529  0.8885  0.0734  0.0368
  281MOL0     C37836   3.404   0.435   8.470  0.7965  0.1102  0.1355
  281MOL0     C37837   3.324   0.420   8.335  0.2133  0.0601  0.5239
  281MOL0     C37838   3.305   0.551   8.261  0.5103  0.2471 -0.4952
  281MOL0     C37839   3.439   0.617   8.222 -0.6167  0.3506  0.0513
  281MOL0     C37840   3.399   0.740   8.155 -0.0491  0.9492 -1.2375
  281MOL0     C37841   3.378   0.855   8.244  0.3298  0.9485 -0.3728
  281MOL0     C37842   3.370   0.976   8.154  0.3090 -0.6014  0.2053
  281MOL0     C37843   3.343   1.107   8.227  0.6429  1.0694  0.7835
  281MOL0    Cl37844   3.202   1.083   8.336 -0.1895 -0.3665 -0.7845
  281MOL0     C37845   3.400   0.273   8.766 -0.4813  0.3298  0.2449
  281MOL0     C37846   3.319   0.255   8.878 -0.0698 -0.3106  0.9814
  281MOL0     O37847   3.119   0.518   9.006  0.3684  0.4174  0.7582
  281MOL0     C37848   2.919   0.520   9.216  1.0289  0.1241 -0.5001
  281MOL0     C37849   2.832   0.514   9.327 -1.1956 -0.8136 -0.0180
  281MOL0     N37850   2.764   0.851   9.721 -0.4380  0.0722 -0.0387
  281MOL0     N37851   2.778   0.975   9.732 -0.1076 -0.3687  0.4958
  281MOL0     C37852   3.677   1.139   9.332 -0.0287 -0.2866  0.1136
  281MOL0     C37853   3.746   1.037   9.267  0.4493  0.2354  0.2234
  281MOL0     C37854   4.051   0.778   9.040  0.4708 -0.1280 -0.1384
  281MOL0     C37855   4.051   0.659   9.114 -0.3862 -0.9444 -0.8180
  281MOL0     C37856   4.137   0.558   9.069  0.3001 -0.1168  0.1538
  281MOL0     C37857   4.227   0.575   8.960  0.0965 -0.2072  0.8318
  281MOL0     O37858   4.308   0.476   8.921 -0.1193  0.2623  0.6160
  281MOL0     C37859   4.380   0.381   8.999 -0.4893  0.1944  0.1525
  281MOL0     C37860   4.523   0.427   9.032  0.3073 -0.2184  0.8496
  281MOL0     C37861   4.603   0.313   9.097 -0.1917 -1.0014 -0.4004
  281MOL0     C37862   4.750   0.358   9.136 -0.4647 -0.2551  0.6084
  281MOL0     C37863   4.836   0.239   9.157  0.4381  0.3881  0.8691
  281MOL0     C37864   4.930   0.169   9.195  0.2697  0.3534 -0.3908
  281MOL0     C37865   4.223   0.691   8.883 -0.4745 -0.7180  0.5274
  281MOL0     C37866   4.137   0.802   8.928  0.3018 -0.3544  0.1742
  281MOL0     C37867   4.148   0.935   8.863  0.5403  0.2795  0.2121
  281MOL0     H37868   4.062   1.111   9.323 -0.4046 -1.8813 -1.4680
  281MOL0     H37869   3.946   1.306   9.436  2.1934  0.7076 -1.5590
  281MOL0     H37870   3.536   1.468   9.500 -1.0761  0.2774  1.0240
  281MOL0     H37871   3.510   1.362   9.357 -0.4413  0.8877  1.7932
  281MOL0     H37872   3.573   1.282   9.639  0.5690  1.7852 -2.1359
  281MOL0     H37873   3.486   1.172   9.527 -1.2979 -0.7262  0.0111
  281MOL0     H37874   3.297   1.343   9.527  0.8032 -1.4518  0.4253
  281MOL0     H37875   3.380   1.423   9.668  0.5733 -0.2770  2.1497
  281MOL0     H37876   3.255   1.148   9.644 -2.0246  0.9152  0.0785
  281MOL0     H37877   3.340   1.202   9.793 -3.7125  0.7004  2.6549
  281MOL0     H37878   3.175   1.391   9.797 -2.2752  0.9014 -0.0816
  281MOL0     H37879   3.107   1.333   9.649  2.4335  1.7560  0.4172
  281MOL0     H37880   3.044   1.115   9.732 -0.3009 -0.1383  0.2475
  281MOL0     H37881   3.092   1.169   9.901  2.8998  2.8973 -0.2280
  281MOL0     H37882   2.856   1.267   9.736 -1.2770 -3.7462 -0.7347
  281MOL0     H37883   2.932   1.336   9.881 -1.2871  1.8413 -3.0495
  281MOL0     H37884   2.876   1.121  10.009 -1.6324 -3.2596  0.4904
  281MOL0     H37885   2.734   1.173   9.932 -1.0251 -2.3019 -0.9153
  281MOL0     H37886   2.871   0.869  10.031  1.2255 -1.4904 -0.2318
  281MOL0     H37887   2.838   0.614   9.962  0.6535  0.7967  0.0839
  281MOL0     H37888   2.680   0.663   9.878 -0.5921  0.7157 -3.2299
  281MOL0     H37889   2.762   0.585   9.658  1.0003 -1.9831 -1.5915
  281MOL0     H37890   2.921   0.541   9.727 -0.4073  1.6222 -0.0814
  281MOL0     H37891   2.644   0.422   9.776  0.1620 -1.8648  2.3335
  281MOL0     H37892   2.794   0.365   9.852 -1.7826 -0.5214  0.8901
  281MOL0     H37893   2.727   0.235   9.642  2.1083 -0.9630  0.9037
  281MOL0     H37894   2.891   0.314   9.631  0.9792  1.7241 -0.8139
  281MOL0     H37895   2.881   0.190   9.420  2.4603 -1.5965 -2.1136
  281MOL0     H37896   3.032   0.198   9.240  1.1518  0.9305  2.7169
  281MOL0     H37897   3.011   0.319   8.747  0.0032 -3.3045 -1.9315
  281MOL0     H37898   3.144   0.346   8.557  0.6821 -0.4480 -0.9619
  281MOL0     H37899   3.357   0.504   8.541  0.3446 -1.1197  1.0659
  281MOL0     H37900   3.502   0.481   8.454  1.1460 -0.7409 -0.2125
  281MOL0     H37901   3.367   0.346   8.267  2.1742  1.9576 -0.4014
  281MOL0     H37902   3.225   0.390   8.372 -0.1357 -1.2269 -1.2909
  281MOL0     H37903   3.247   0.521   8.173 -0.9910  1.7257 -0.0612
  281MOL0     H37904   3.253   0.625   8.323  3.4608  2.8073 -0.8424
  281MOL0     H37905   3.504   0.554   8.160  0.6986  0.1644  1.5538
  281MOL0     H37906   3.501   0.640   8.309  0.1261 -1.5557  0.0591
  281MOL0     H37907   3.316   0.730   8.085 -1.3155 -2.9196  0.5465
  281MOL0     H37908   3.487   0.770   8.098  1.4935 -2.0492 -0.6418
  281MOL0     H37909   3.289   0.832   8.304  1.6286 -2.3956  0.4954
  281MOL0     H37910   3.469   0.870   8.303 -1.2867 -0.6027  2.7608
  281MOL0     H37911   3.291   0.970   8.079  1.6637  2.7648 -1.7271
  281MOL0     H37912   3.463   0.993   8.098  0.3207  4.9372  1.3642
  281MOL0     H37913   3.438   1.134   8.275  1.6286  1.0069 -1.0458
  281MOL0     H37914   3.321   1.178   8.146  0.6248  1.0143  0.7403
  281MOL0     H37915   3.509   0.277   8.772 -0.5326  3.7099  0.8110
  281MOL0     H37916   3.360   0.232   8.975  0.2484 -4.7542  0.0056
  281MOL0     H37917   2.917   0.609   9.153 -0.1278 -1.0697 -2.2496
  281MOL0     H37918   2.762   0.596   9.331  0.1954  0.7223 -3.2997
  281MOL0     H37919   3.570   1.138   9.351  0.1261  0.6641  1.1154
  281MOL0     H37920   3.686   0.954   9.232 -2.3773  1.9514  0.6531
  281MOL0     H37921   3.997   0.637   9.205  0.8633 -0.8434 -0.0339
  281MOL0     H37922   4.131   0.458   9.112 -2.8459 -0.7282 -1.3972
  281MOL0     H37923   4.387   0.285   8.947 -3.7494 -1.2559  2.0709
  281MOL0     H37924   4.335   0.366   9.097 -0.0938  3.0167  0.8712
  281MOL0     H37925   4.520   0.514   9.099  0.3712  1.0390 -0.7028
  281MOL0     H37926   4.568   0.459   8.938 -0.6154 -0.8192  0.1893
  281MOL0     H37927   4.613   0.231   9.025  1.4175 -2.0605  0.9483
  281MOL0     H37928   4.566   0.265   9.188  0.2830 -2.0651 -0.7469
  281MOL0     H37929   4.791   0.411   9.050 -0.3626 -2.6953 -0.9603
  281MOL0     H37930   4.748   0.433   9.215 -0.8018  0.4549 -0.0640
  281MOL0     H37931   5.017   0.115   9.229 -1.8091 -2.8513  0.3697
  281MOL0     H37932   4.288   0.706   8.797 -1.9095 -1.0190 -0.6549
  281MOL0     H37933   4.248   0.946   8.822 -0.4768  2.5939 -1.9810
  281MOL0     H37934   4.066   0.958   8.793  3.1789 -1.9866 -4.0287
  281MOL0     H37935   4.147   1.004   8.948 -1.2830  0.5483  0.0132
  282MOL0     O37936  10.869   2.027   6.960  1.3199  0.6245  0.1891
  282MOL0     C37937  10.771   1.964   6.986  0.5915 -0.6998 -0.3711
  282MOL0     O37938  10.681   1.987   7.086 -0.0458 -0.3055  0.1381
  282MOL0     C37939  10.730   2.023   7.211  0.7575 -0.3216  0.0798
  282MOL0     C37940  10.724   2.148   7.263 -1.0822 -0.3843 -0.2986
  282MOL0     C37941  10.784   2.172   7.388 -0.1956  0.0979  0.1514
  282MOL0     C37942  10.838   2.067   7.465  0.1630  0.3565  0.1038
  282MOL0     O37943  10.850   2.082   7.602  0.0869 -0.2729 -0.0651
  282MOL0     C37944  10.975   2.041   7.648  1.4080 -0.8158  0.1359
  282MOL0     C37945  11.007   2.107   7.781 -0.0895  0.2706  0.6196
  282MOL0     C37946  10.934   2.065   7.904  0.0546  1.0509 -0.4445
  282MOL0     C37947  10.983   1.925   7.957 -0.9691 -0.9474  0.3570
  282MOL0     C37948  10.917   1.873   8.075  0.4480  0.8236  0.8560
  282MOL0     C37949  10.908   1.965   8.201 -0.3422  0.5553  0.3737
  282MOL0     C37950  10.817   1.892   8.311  0.1603 -0.1025 -0.7022
  282MOL0     C37951  10.874   1.756   8.362 -0.9024 -0.5386  0.1008
  282MOL0     N37952  10.805   1.688   8.471 -0.9219 -0.3936 -1.0199
  282MOL0     C37953  10.673   1.652   8.465  0.9327 -0.1989 -0.2596
  282MOL0     C37954  10.634   1.633   8.585 -0.2623 -0.2304  0.0732
  282MOL0     C37955  10.486   1.610   8.614  0.8236 -0.1337  0.1942
  282MOL0     C37956  10.461   1.457   8.609  0.2784  0.7703  0.8766
  282MOL0     C37957  10.324   1.417   8.662 -0.8298 -0.3624 -0.4571
  282MOL0     C37958  10.302   1.268   8.647 -0.1252  0.1931  0.7672
  282MOL0     O37959  10.293   1.236   8.506  0.6833 -0.6295  0.1253
  282MOL0     C37960  10.299   1.104   8.469 -0.2657 -0.7350 -0.2017
  282MOL0     C37961  10.308   1.078   8.333 -0.7936 -0.4257 -0.5139
  282MOL0     C37962  10.293   0.943   8.283 -0.2226 -0.9141 -0.8409
  282MOL0     C37963  10.248   0.844   8.380  1.4484  0.1246 -0.4205
  282MOL0     C37964  10.237   0.710   8.323  0.7123  0.9115 -0.4655
  282MOL0     O37965  10.258   0.695   8.192  0.5468  0.0316 -0.2320
  282MOL0     C37966  10.293   0.568   8.146  0.1170 -0.5630  0.0629
  282MOL0     C37967  10.393   0.477   8.197 -0.3336  1.3582 -0.0212
  282MOL0     C37968  10.400   0.346   8.137  0.0298  0.1454 -0.0615
  282MOL0     C37969  10.344   0.318   8.013 -0.8642  0.1811  0.0644
  282MOL0     O37970  10.347   0.193   7.956  0.0549  0.6219  0.8867
  282MOL0     C37971  10.342   0.172   7.817  0.6865  0.0177 -0.5221
  282MOL0     C37972  10.413   0.040   7.787  0.6658 -0.8976 -0.9322
  282MOL0     C37973  10.458   0.021   7.647  0.8105  0.4649 -0.4335
  282MOL0     C37974  10.516  -0.116   7.624  0.3684  0.1064  0.1645
  282MOL0     C37975  10.586  -0.137   7.484  0.6965  0.6024  0.0305
  282MOL0     C37976  10.721  -0.061   7.473  0.3236 -0.6761  0.2621
  282MOL0     C37977  10.781  -0.089   7.335 -0.7244 -0.1915  0.5606
  282MOL0     C37978  10.706  -0.008   7.230 -0.3313  0.9697  0.1682
  282MOL0    Cl37979  10.742   0.155   7.224  0.1664 -0.1507 -0.6031
  282MOL0     C37980  10.271   0.420   7.948 -0.2837  0.0281  0.2135
  282MOL0     C37981  10.228   0.534   8.025 -0.3234  0.1328  0.5621
  282MOL0     O37982  10.229   0.620   8.406 -0.0031  0.2298 -0.0080
  282MOL0     C37983  10.256   0.867   8.514 -0.5154 -0.0724 -0.2809
  282MOL0     C37984  10.276   0.996   8.561  0.7191  0.2197  0.1914
  282MOL0     N37985  10.734   1.676   8.666  0.0295 -1.0170 -0.1594
  282MOL0     N37986  10.840   1.698   8.600 -1.2452  0.0474 -0.5172
  282MOL0     C37987  10.832   1.937   7.419 -0.5762  0.2856 -0.3737
  282MOL0     C37988  10.781   1.917   7.290 -0.0313 -0.1923 -0.5278
  282MOL0     C37989  10.743   1.862   6.878 -0.5778 -0.2914  0.0002
  282MOL0     C37990  10.846   1.828   6.782 -0.4039 -0.5632  0.4145
  282MOL0     C37991  10.822   1.761   6.663 -0.4535  0.4614  0.2774
  282MOL0     C37992  10.705   1.694   6.640 -0.4956 -0.5246 -0.8298
  282MOL0     O37993  10.692   1.624   6.524  0.7967  0.1780 -0.1821
  282MOL0     C37994  10.619   1.491   6.532 -0.1270 -0.8909 -0.0080
  282MOL0     C37995  10.686   1.394   6.432  0.8600 -0.4772 -0.9390
  282MOL0     C37996  10.829   1.354   6.487 -0.4682 -0.4717  0.1358
  282MOL0     C37997  10.908   1.283   6.375 -0.3194 -0.3998 -1.0577
  282MOL0     C37998  10.994   1.174   6.429 -0.5579 -0.6065  0.2425
  282MOL0     C37999  11.064   1.087   6.472 -0.6046 -0.5707  0.1904
  282MOL0     C38000  10.608   1.710   6.730  0.3463 -0.5750  0.1624
  282MOL0     C38001  10.625   1.788   6.852  1.0921  0.9194  0.8202
  282MOL0     C38002  10.509   1.787   6.952 -0.5599  0.4323 -0.8677
  282MOL0     H38003  10.695   2.228   7.196  2.4707  0.3730 -1.1628
  282MOL0     H38004  10.792   2.277   7.414  0.9179  0.3563 -1.1341
  282MOL0     H38005  10.990   1.932   7.652 -0.2783 -1.0602  1.1508
  282MOL0     H38006  11.057   2.083   7.590  1.2416 -1.0973 -0.3150
  282MOL0     H38007  10.992   2.214   7.766 -0.0308  0.0313 -1.4289
  282MOL0     H38008  11.114   2.103   7.801  0.5661  2.3631 -1.9382
  282MOL0     H38009  10.827   2.051   7.887 -0.0787  0.5788  0.7064
  282MOL0     H38010  10.936   2.137   7.987 -2.5640 -2.7288  3.3062
  282MOL0     H38011  10.974   1.858   7.871  1.5605 -0.4715 -0.3587
  282MOL0     H38012  11.090   1.929   7.977 -0.7213 -1.7765 -0.7329
  282MOL0     H38013  10.815   1.850   8.046  1.0686  1.4156 -2.0944
  282MOL0     H38014  10.976   1.783   8.096 -0.6408 -0.0347  0.3280
  282MOL0     H38015  11.008   1.986   8.242 -1.2220  2.2837  1.7467
  282MOL0     H38016  10.861   2.063   8.191  0.8510  1.4700  2.7635
  282MOL0     H38017  10.716   1.873   8.274  0.4679 -1.4281 -0.9208
  282MOL0     H38018  10.807   1.968   8.389  2.6694  0.2258 -0.6232
  282MOL0     H38019  10.868   1.685   8.279 -0.4863  2.2072 -2.4301
  282MOL0     H38020  10.980   1.772   8.380 -0.6388  0.6507 -2.1718
  282MOL0     H38021  10.608   1.644   8.379  0.7050 -2.9567  0.0899
  282MOL0     H38022  10.456   1.653   8.709 -0.6179 -2.7088  1.0132
  282MOL0     H38023  10.429   1.669   8.541 -0.9862 -0.2325  1.4522
  282MOL0     H38024  10.451   1.434   8.503 -1.8914 -0.3538  1.2762
  282MOL0     H38025  10.547   1.403   8.650  0.2029 -0.8131 -0.8972
  282MOL0     H38026  10.253   1.478   8.604  0.0594  1.3212  0.1874
  282MOL0     H38027  10.301   1.428   8.768  3.2441  0.1094  0.5327
  282MOL0     H38028  10.206   1.238   8.691  0.5004 -3.2388  0.0275
  282MOL0     H38029  10.377   1.202   8.692 -0.7552 -2.8529 -2.2385
  282MOL0     H38030  10.324   1.164   8.268 -0.0943 -0.4974 -0.4372
  282MOL0     H38031  10.306   0.922   8.177  2.2616  1.8825 -1.2120
  282MOL0     H38032  10.448   0.488   8.290  0.8457  0.5706 -0.5983
  282MOL0     H38033  10.462   0.274   8.189 -0.0382  1.2996  1.7110
  282MOL0     H38034  10.240   0.168   7.778  1.4624  0.0501 -2.7271
  282MOL0     H38035  10.399   0.249   7.764  3.4194 -1.1743  0.5140
  282MOL0     H38036  10.500   0.033   7.853 -0.5263 -1.2413  0.6919
  282MOL0     H38037  10.344  -0.041   7.815 -0.1676 -0.0063 -0.3265
  282MOL0     H38038  10.375   0.037   7.578 -0.2131  2.6796  1.2047
  282MOL0     H38039  10.527   0.098   7.610  2.4104 -0.9876 -0.6229
  282MOL0     H38040  10.446  -0.200   7.629  1.4826 -1.1415 -2.7540
  282MOL0     H38041  10.598  -0.127   7.695  0.9650 -3.4220 -0.8546
  282MOL0     H38042  10.510  -0.106   7.412  1.2517 -0.3055 -0.9792
  282MOL0     H38043  10.610  -0.244   7.478  0.0528  0.1650  3.4773
  282MOL0     H38044  10.712   0.046   7.495 -1.2353 -0.3863 -1.4873
  282MOL0     H38045  10.787  -0.100   7.551 -1.0134  0.8023  2.2412
  282MOL0     H38046  10.773  -0.197   7.317 -2.1713 -0.4903  2.5808
  282MOL0     H38047  10.886  -0.063   7.324 -1.3360  3.0561  1.3928
  282MOL0     H38048  10.736  -0.052   7.135  2.0461 -1.7942  2.0216
  282MOL0     H38049  10.600  -0.025   7.253 -0.6088  1.1328 -0.9330
  282MOL0     H38050  10.234   0.402   7.847 -0.4433  1.4504 -0.0036
  282MOL0     H38051  10.152   0.596   7.977 -0.6230  0.3770  1.3374
  282MOL0     H38052  10.256   0.801   8.601 -2.1671 -0.4953 -0.5534
  282MOL0     H38053  10.259   1.003   8.668  0.0659 -0.7239  0.1672
  282MOL0     H38054  10.866   1.855   7.481  2.0169  2.2275  0.9305
  282MOL0     H38055  10.777   1.822   7.237 -1.0159  0.2109 -1.2129
  282MOL0     H38056  10.941   1.881   6.789 -1.3372  1.4651 -1.1537
  282MOL0     H38057  10.908   1.768   6.598  1.2172  0.5925  2.3857
  282MOL0     H38058  10.519   1.527   6.507 -0.4374 -0.8314  1.2327
  282MOL0     H38059  10.612   1.438   6.628 -4.1856 -0.6957 -0.0201
  282MOL0     H38060  10.696   1.434   6.331 -0.4747  1.7359 -0.2523
  282MOL0     H38061  10.614   1.312   6.436  0.8057 -0.3864  1.4215
  282MOL0     H38062  10.830   1.287   6.574  1.4963  0.7729  1.1403
  282MOL0     H38063  10.879   1.450   6.503 -2.9742  1.3427 -2.0166
  282MOL0     H38064  10.844   1.252   6.292 -0.7936  0.2904 -0.9570
  282MOL0     H38065  10.978   1.358   6.337 -0.8276  1.4679  1.3689
  282MOL0     H38066  11.134   1.019   6.515 -0.6566  0.1899  1.5285
  282MOL0     H38067  10.509   1.667   6.719  0.1978 -0.1275 -0.3290
  282MOL0     H38068  10.545   1.739   7.044  2.6195  2.2578 -1.0238
  282MOL0     H38069  10.497   1.890   6.987 -1.5109 -0.1187  0.5327
  282MOL0     H38070  10.411   1.755   6.914 -1.2433  2.6314 -1.1133
  283MOL0     O38071   4.110   8.453   1.258 -0.0802 -0.0871  0.0854
  283MOL0     C38072   4.207   8.386   1.208  0.5624 -0.7321 -1.0474
  283MOL0     O38073   4.338   8.407   1.244 -0.0616 -0.1390 -0.7860
  283MOL0     C38074   4.383   8.518   1.312 -0.1773 -0.9881 -0.4271
  283MOL0     C38075   4.425   8.504   1.443 -0.3641  0.5148  0.4268
  283MOL0     C38076   4.472   8.619   1.512 -0.1393  0.6325  0.0402
  283MOL0     C38077   4.497   8.736   1.442  0.6658 -0.1807  0.0864
  283MOL0     O38078   4.550   8.852   1.488 -0.3679 -1.2369 -0.7593
  283MOL0     C38079   4.627   8.855   1.604 -1.5981  0.2893  0.2788
  283MOL0     C38080   4.716   8.970   1.622 -0.1491 -1.2746  0.6502
  283MOL0     C38081   4.638   9.100   1.633 -0.0837  0.1523 -0.2042
  283MOL0     C38082   4.724   9.216   1.691 -1.1531 -0.0589 -0.8398
  283MOL0     C38083   4.657   9.356   1.676  0.0935  0.2818 -0.1922
  283MOL0     C38084   4.745   9.482   1.716  0.0921  0.2638 -0.7010
  283MOL0     C38085   4.803   9.481   1.861 -1.0604  0.7426  0.4889
  283MOL0     C38086   4.727   9.586   1.946  0.3830  0.3809 -0.8622
  283MOL0     N38087   4.764   9.719   1.895  0.7753 -0.3304 -0.0076
  283MOL0     C38088   4.671   9.823   1.865 -0.4422  0.2801  0.5067
  283MOL0     C38089   4.746   9.928   1.876 -0.1393  0.1742  0.3051
  283MOL0     C38090   4.688  10.069   1.860  0.5794 -0.6635  0.8116
  283MOL0     C38091   4.673  10.111   1.716 -0.1563  0.6897 -1.0979
  283MOL0     C38092   4.641  10.263   1.706  0.9165  0.2931  0.8577
  283MOL0     C38093   4.609  10.316   1.566 -0.3741 -0.0711 -1.1082
  283MOL0     O38094   4.594  10.451   1.573 -0.1116 -0.2227 -0.2774
  283MOL0     C38095   4.597  10.523   1.452 -0.3699 -0.2791  0.1623
  283MOL0     C38096   4.578  10.664   1.461 -0.4523 -0.5489 -0.2134
  283MOL0     C38097   4.590  10.740   1.340 -0.1584 -0.2321 -0.3860
  283MOL0     C38098   4.612  10.681   1.210 -0.6645 -0.6522  0.0128
  283MOL0     C38099   4.638  10.759   1.091  0.6073 -0.3807 -0.2335
  283MOL0     O38100   4.625  10.890   1.107  0.6029 -0.1738  0.0787
  283MOL0     C38101   4.613  10.971   0.996  0.1940  0.4044  0.3030
  283MOL0     C38102   4.504  10.944   0.909  0.0196  1.2968 -0.4335
  283MOL0     C38103   4.477  11.026   0.801 -0.6918  1.0962  0.1230
  283MOL0     C38104   4.562  11.131   0.784 -0.7533 -0.5819  0.1130
  283MOL0     O38105   4.548  11.206   0.664 -0.4389 -0.0248  0.2636
  283MOL0     C38106   4.537  11.347   0.675 -0.3936 -0.6253  0.6910
  283MOL0     C38107   4.461  11.398   0.548  0.1725 -0.5422  0.9618
  283MOL0     C38108   4.560  11.421   0.424  0.1140  0.3730  0.4593
  283MOL0     C38109   4.637  11.299   0.370 -0.7235  0.2547 -0.3017
  283MOL0     C38110   4.543  11.199   0.302 -0.1935  0.2507 -0.5639
  283MOL0     C38111   4.605  11.098   0.204 -0.3629 -0.6292  0.5954
  283MOL0     C38112   4.669  10.974   0.259 -0.6584  0.4049  0.7491
  283MOL0     C38113   4.579  10.845   0.235 -0.2594 -0.9136 -0.0337
  283MOL0    Cl38114   4.407  10.884   0.291 -0.1758 -0.5602  0.2085
  283MOL0     C38115   4.665  11.174   0.876 -0.2713  0.1676 -0.8247
  283MOL0     C38116   4.687  11.088   0.982 -0.4882  0.0738  0.1421
  283MOL0     O38117   4.664  10.705   0.984  0.0511 -0.3924 -0.7266
  283MOL0     C38118   4.628  10.552   1.207  0.1649  0.2411 -0.2494
  283MOL0     C38119   4.620  10.474   1.327  0.5532 -0.9104  0.7875
  283MOL0     N38120   4.878   9.895   1.891  1.5498  0.1234  0.3291
  283MOL0     N38121   4.883   9.763   1.908 -0.7898  0.4899 -0.5685
  283MOL0     C38122   4.471   8.748   1.309  0.8648  0.5625  0.5427
  283MOL0     C38123   4.396   8.642   1.243 -1.2977  0.2848  1.0738
  283MOL0     C38124   4.183   8.305   1.090  0.1478 -0.0911  0.5840
  283MOL0     C38125   4.303   8.243   1.022  0.6973 -0.3299  0.3961
  283MOL0     C38126   4.291   8.169   0.903  0.5286  0.6896 -1.1304
  283MOL0     C38127   4.174   8.133   0.849  1.0861 -0.9111 -0.0652
  283MOL0     O38128   4.172   8.072   0.727  0.0837  0.0412 -0.2172
  283MOL0     C38129   4.174   8.149   0.611 -0.5043 -0.0309  0.4360
  283MOL0     C38130   4.172   8.051   0.483 -0.7201 -0.4659 -0.3799
  283MOL0     C38131   4.210   8.124   0.354  0.4925  0.5330  0.1896
  283MOL0     C38132   4.209   8.049   0.217  0.2352  0.0442  0.3346
  283MOL0     C38133   4.071   8.051   0.172  0.3886  0.0337 -0.8335
  283MOL0     C38134   3.955   8.080   0.145 -0.3680 -0.5084 -0.7216
  283MOL0     C38135   4.054   8.190   0.911  0.2420  0.7388 -1.0349
  283MOL0     C38136   4.059   8.274   1.028 -0.4373 -0.6454 -0.1345
  283MOL0     C38137   3.924   8.329   1.075 -0.5758  0.5574 -0.6587
  283MOL0     H38138   4.403   8.419   1.508 -1.3906  2.4463  2.7328
  283MOL0     H38139   4.493   8.609   1.618 -1.2998  3.6497  0.6570
  283MOL0     H38140   4.565   8.844   1.693 -2.7446 -0.3332 -0.5620
  283MOL0     H38141   4.684   8.762   1.602 -1.4251  0.3904  0.4851
  283MOL0     H38142   4.789   8.982   1.541  1.7690  0.8628  2.5898
  283MOL0     H38143   4.780   8.959   1.709  1.3029 -0.8158 -0.3304
  283MOL0     H38144   4.546   9.084   1.688  1.4641 -1.2604  2.1434
  283MOL0     H38145   4.602   9.125   1.532 -1.3164  0.1703  0.2314
  283MOL0     H38146   4.757   9.186   1.791  1.4700 -0.4263 -1.7559
  283MOL0     H38147   4.812   9.237   1.630 -1.1521  0.3590 -0.6929
  283MOL0     H38148   4.612   9.370   1.577  0.7155  0.5265 -0.4450
  283MOL0     H38149   4.569   9.358   1.741 -0.2231  1.1656 -0.6241
  283MOL0     H38150   4.824   9.514   1.648 -1.3484  1.8250 -1.7112
  283MOL0     H38151   4.681   9.570   1.711  0.1411  0.3853  0.5614
  283MOL0     H38152   4.905   9.519   1.856 -0.3749 -0.8805  1.3674
  283MOL0     H38153   4.808   9.385   1.913 -0.7526  1.2470  1.4117
  283MOL0     H38154   4.619   9.576   1.935 -0.0157  2.7421  0.0727
  283MOL0     H38155   4.754   9.573   2.051 -0.3789 -0.9865 -0.8175
  283MOL0     H38156   4.563   9.815   1.871 -0.6281 -0.0579 -2.2606
  283MOL0     H38157   4.591  10.081   1.909  0.3435 -0.0515  0.2106
  283MOL0     H38158   4.762  10.141   1.894 -1.4481  2.4727 -0.8950
  283MOL0     H38159   4.769  10.091   1.667  0.9585  0.2282  1.1529
  283MOL0     H38160   4.594  10.049   1.674 -0.7772  0.7708 -0.0992
  283MOL0     H38161   4.729  10.324   1.729  1.3051 -0.3121  1.0046
  283MOL0     H38162   4.551  10.282   1.765 -0.4072  0.7241 -1.1928
  283MOL0     H38163   4.518  10.277   1.520  0.4893 -1.5908 -1.6144
  283MOL0     H38164   4.687  10.281   1.498 -0.9588  0.4410 -2.0701
  283MOL0     H38165   4.570  10.723   1.552  2.5255 -1.2798  0.6235
  283MOL0     H38166   4.560  10.843   1.352 -1.1718 -0.8178  4.0638
  283MOL0     H38167   4.434  10.861   0.910  0.8499  0.4441 -3.1081
  283MOL0     H38168   4.413  10.998   0.717  0.8608  0.2858 -0.8549
  283MOL0     H38169   4.484  11.374   0.767 -0.0957  0.7079  0.4856
  283MOL0     H38170   4.635  11.395   0.683 -1.7600  2.3066  0.9239
  283MOL0     H38171   4.382  11.327   0.524 -2.0079  1.5580  1.5897
  283MOL0     H38172   4.418  11.495   0.574  3.1920  0.2183  3.8643
  283MOL0     H38173   4.508  11.466   0.339  0.9847 -2.1451 -1.5444
  283MOL0     H38174   4.642  11.483   0.461 -1.6575  0.0515  5.5768
  283MOL0     H38175   4.681  11.244   0.454 -1.2506  0.5547  0.1803
  283MOL0     H38176   4.713  11.327   0.297 -1.6805 -1.5056 -2.0833
  283MOL0     H38177   4.461  11.253   0.254 -2.2102  1.5396  3.8493
  283MOL0     H38178   4.504  11.140   0.386  4.8270 -2.3480  0.3329
  283MOL0     H38179   4.525  11.072   0.134 -2.1150  0.3398  2.1580
  283MOL0     H38180   4.688  11.145   0.150  1.0156 -1.3282  2.0227
  283MOL0     H38181   4.682  10.989   0.366 -0.5446  0.6855  0.6984
  283MOL0     H38182   4.768  10.959   0.215  0.6833  0.0852  3.6482
  283MOL0     H38183   4.572  10.808   0.132  0.2289 -2.0593  0.3255
  283MOL0     H38184   4.619  10.767   0.301  3.5049  1.0468  0.3119
  283MOL0     H38185   4.729  11.260   0.855  0.8184 -0.6787 -1.0889
  283MOL0     H38186   4.763  11.100   1.058  0.9882  1.7157 -1.5044
  283MOL0     H38187   4.639  10.500   1.112  0.3547  0.6496 -0.4541
  283MOL0     H38188   4.633  10.368   1.310 -1.1596 -1.1256  0.7024
  283MOL0     H38189   4.502   8.836   1.254 -0.5375  0.4701 -0.4674
  283MOL0     H38190   4.370   8.630   1.138  1.4026 -0.2974  0.3928
  283MOL0     H38191   4.403   8.250   1.064  0.9621 -0.8139 -0.1528
  283MOL0     H38192   4.381   8.147   0.847  0.3200  0.6235 -1.4423
  283MOL0     H38193   4.271   8.199   0.605 -0.9516  0.7993 -4.7564
  283MOL0     H38194   4.106   8.235   0.614  0.5482  0.7987  1.4081
  283MOL0     H38195   4.081   7.996   0.459 -0.0115 -2.0008  0.3416
  283MOL0     H38196   4.232   7.961   0.495 -1.5019 -0.9739 -0.1833
  283MOL0     H38197   4.313   8.153   0.376  0.6956  1.1891 -1.5029
  283MOL0     H38198   4.156   8.218   0.345 -0.0483  0.4145  1.7913
  283MOL0     H38199   4.261   8.102   0.137 -1.6691 -0.1395 -1.1123
  283MOL0     H38200   4.243   7.946   0.230  1.2307  0.6637  3.3854
  283MOL0     H38201   3.863   8.103   0.096 -0.0689 -0.1017 -1.0934
  283MOL0     H38202   3.956   8.183   0.865  1.0135 -2.0267 -2.4494
  283MOL0     H38203   3.904   8.311   1.181 -0.1506 -3.5190 -1.1146
  283MOL0     H38204   3.915   8.433   1.043 -0.5497 -0.1160 -3.0941
  283MOL0     H38205   3.842   8.275   1.026  1.5397 -2.9224 -0.7196
  284MOL0     O38206  10.477   3.811  11.257 -0.7064  0.3435  1.3387
  284MOL0     C38207  10.471   3.839  11.376 -0.7259  0.4945 -1.2097
  284MOL0     O38208  10.572   3.879  11.448  0.1491 -0.1511  0.0052
  284MOL0     C38209  10.691   3.909  11.393 -0.0552 -0.8000  0.1797
  284MOL0     C38210  10.731   4.040  11.395 -0.4159  0.5678 -0.0480
  284MOL0     C38211  10.862   4.075  11.381 -0.1804 -0.4430 -0.6027
  284MOL0     C38212  10.959   3.976  11.362  1.0949 -0.2651  0.6897
  284MOL0     O38213  11.096   4.004  11.347 -0.2956  0.3252 -0.3140
  284MOL0     C38214  11.117   4.119  11.268  0.6956 -0.2492 -0.3031
  284MOL0     C38215  11.266   4.128  11.226  0.6036  0.9048 -0.1384
  284MOL0     C38216  11.277   4.264  11.144 -0.3530 -0.4021  0.8655
  284MOL0     C38217  11.418   4.321  11.166  0.1834  1.5374  0.4028
  284MOL0     C38218  11.457   4.449  11.082  0.0333  0.0575  0.1173
  284MOL0     C38219  11.405   4.453  10.937  0.0822 -0.0728  0.1092
  284MOL0     C38220  11.424   4.599  10.881 -0.2547  0.7222 -0.1373
  284MOL0     C38221  11.398   4.603  10.725  0.8289 -0.3873 -0.3663
  284MOL0     N38222  11.374   4.745  10.689  0.3462  0.7794  0.0399
  284MOL0     C38223  11.273   4.830  10.736 -0.6376  0.3194 -0.4941
  284MOL0     C38224  11.306   4.955  10.700 -0.3885 -0.2377  0.0634
  284MOL0     C38225  11.231   5.086  10.737  0.2103 -0.0368  0.6345
  284MOL0     C38226  11.261   5.118  10.875  0.2958 -0.6875  0.2990
  284MOL0     C38227  11.413   5.132  10.913  0.0345 -0.0812 -0.3121
  284MOL0     C38228  11.440   5.213  11.026  0.0061 -0.1771 -0.2631
  284MOL0     O38229  11.409   5.350  11.002  0.2072 -0.3585 -0.5843
  284MOL0     C38230  11.408   5.416  11.123  0.7205 -0.0497 -0.4537
  284MOL0     C38231  11.333   5.375  11.240  0.4414 -0.4464  1.1734
  284MOL0     C38232  11.335   5.455  11.350 -0.6895 -0.1163  0.0568
  284MOL0     C38233  11.404   5.577  11.355  0.1063  0.1728  0.3607
  284MOL0     C38234  11.410   5.674  11.462 -1.0054  0.5289 -0.0226
  284MOL0     O38235  11.459   5.796  11.430  0.7855  0.6993 -1.3673
  284MOL0     C38236  11.473   5.889  11.532 -0.2995  0.4431 -0.6424
  284MOL0     C38237  11.419   6.015  11.515 -1.7144 -0.0945 -0.0427
  284MOL0     C38238  11.450   6.112  11.612  0.5049 -0.5817  0.4203
  284MOL0     C38239  11.500   6.083  11.739  0.1688 -0.9186 -0.8463
  284MOL0     O38240  11.517   6.193  11.818 -0.1007 -0.7025  0.0402
  284MOL0     C38241  11.392   6.259  11.866 -0.4284 -0.4497  0.7227
  284MOL0     C38242  11.444   6.344  11.984 -0.2939  0.5976 -0.3764
  284MOL0     C38243  11.404   6.495  11.977 -0.1835 -0.1180  0.6005
  284MOL0     C38244  11.513   6.569  12.047 -0.1694 -0.1826 -0.5863
  284MOL0     C38245  11.472   6.716  12.087  0.0617 -0.3372 -0.3968
  284MOL0     C38246  11.347   6.734  12.172  1.2705 -0.1811 -0.5748
  284MOL0     C38247  11.370   6.685  12.320 -0.6041 -0.9040  0.5599
  284MOL0     C38248  11.256   6.732  12.417  0.1972  0.7112  0.4087
  284MOL0    Cl38249  11.257   6.911  12.437  0.1954  0.1237 -0.4232
  284MOL0     C38250  11.549   5.956  11.760 -0.1032 -0.2713  1.1252
  284MOL0     C38251  11.551   5.861  11.656  0.7505  0.3543 -1.0170
  284MOL0     O38252  11.373   5.638  11.573 -0.1481  0.9943  0.2398
  284MOL0     C38253  11.475   5.613  11.242 -0.0328 -0.0901 -0.3112
  284MOL0     C38254  11.477   5.537  11.124 -0.3895  0.5774 -0.0540
  284MOL0     N38255  11.423   4.948  10.624 -0.0269 -0.3090  0.3370
  284MOL0     N38256  11.465   4.829  10.619 -0.2841  0.5604  0.2511
  284MOL0     C38257  10.912   3.844  11.341  0.2163  0.4276 -0.2576
  284MOL0     C38258  10.774   3.804  11.358 -1.2154  0.4174 -1.1779
  284MOL0     C38259  10.349   3.823  11.452 -0.6357  0.4407  0.3310
  284MOL0     C38260  10.335   3.710  11.540 -0.4940 -0.0043 -0.4295
  284MOL0     C38261  10.213   3.691  11.611 -0.5635 -0.3892  0.6602
  284MOL0     C38262  10.111   3.780  11.588  0.2825  0.4668  0.2364
  284MOL0     O38263   9.991   3.754  11.644  0.4116 -1.0937 -0.7113
  284MOL0     C38264   9.940   3.636  11.703  0.4942  0.1599 -0.0337
  284MOL0     C38265   9.970   3.646  11.854  0.1938 -0.0104 -0.5530
  284MOL0     C38266   9.903   3.760  11.920  0.3588  0.7518 -0.3243
  284MOL0     C38267   9.768   3.713  11.965  0.0658  0.3475 -0.3882
  284MOL0     C38268   9.695   3.819  12.034  0.3993  0.3714  0.8568
  284MOL0     C38269   9.616   3.905  12.076  0.1464  0.3326  0.1799
  284MOL0     C38270  10.129   3.890  11.502  0.4463  0.9288  0.1246
  284MOL0     C38271  10.246   3.913  11.431  0.5904  0.3116  0.1704
  284MOL0     C38272  10.268   4.039  11.354 -0.7651 -0.1498  0.1472
  284MOL0     H38273  10.664   4.119  11.428 -0.2538 -0.1828  2.2924
  284MOL0     H38274  10.881   4.182  11.381  0.5214 -0.5618 -0.6473
  284MOL0     H38275  11.052   4.125  11.180 -0.4431 -0.1274  0.5262
  284MOL0     H38276  11.095   4.204  11.334  2.9858 -0.9660  1.4793
  284MOL0     H38277  11.277   4.043  11.158 -1.9854  0.4768 -0.1107
  284MOL0     H38278  11.339   4.113  11.306  0.8803 -1.0015 -0.6769
  284MOL0     H38279  11.195   4.331  11.172 -0.6245  0.3840 -1.5854
  284MOL0     H38280  11.272   4.238  11.038 -0.4305 -1.1044  1.0359
  284MOL0     H38281  11.427   4.332  11.275 -2.4675 -1.1206  1.0375
  284MOL0     H38282  11.481   4.238  11.134 -1.9204  0.3689 -0.9656
  284MOL0     H38283  11.414   4.539  11.126  0.4413  1.2200 -1.7562
  284MOL0     H38284  11.565   4.463  11.082 -0.0391  0.8253 -1.6649
  284MOL0     H38285  11.453   4.375  10.878  2.1673  1.8531 -0.8755
  284MOL0     H38286  11.296   4.462  10.932  0.2011  3.4660 -5.2922
  284MOL0     H38287  11.525   4.634  10.905 -0.6519  0.5173  1.9915
  284MOL0     H38288  11.355   4.666  10.933 -2.3344 -0.9653 -0.5668
  284MOL0     H38289  11.489   4.572  10.672  0.5213  0.6566 -1.5426
  284MOL0     H38290  11.315   4.538  10.693  0.4105  0.6563 -1.4668
  284MOL0     H38291  11.188   4.805  10.798 -1.0523 -4.1316 -2.5175
  284MOL0     H38292  11.247   5.166  10.663 -2.1327 -2.8713 -3.3027
  284MOL0     H38293  11.123   5.070  10.728  0.3764 -0.4485 -0.9739
  284MOL0     H38294  11.212   5.212  10.899 -1.1440 -0.6000 -2.5717
  284MOL0     H38295  11.218   5.037  10.934 -0.5190  0.8333  1.8861
  284MOL0     H38296  11.452   5.193  10.832 -1.7736  0.6304 -0.7040
  284MOL0     H38297  11.462   5.035  10.927 -0.4568 -0.1069  1.4331
  284MOL0     H38298  11.543   5.209  11.063 -0.5645 -0.8663  1.3173
  284MOL0     H38299  11.371   5.174  11.101  1.3024 -1.3302  0.3717
  284MOL0     H38300  11.292   5.275  11.255  2.1071 -1.2071  0.7992
  284MOL0     H38301  11.289   5.409  11.437  0.3443 -0.5548  0.3910
  284MOL0     H38302  11.388   6.055  11.419 -0.4480  0.4474 -0.2462
  284MOL0     H38303  11.414   6.207  11.575 -3.7657 -1.8746  0.7525
  284MOL0     H38304  11.344   6.317  11.787  1.1427 -0.0327  0.0202
  284MOL0     H38305  11.331   6.183  11.915  0.5869 -1.5603  0.3259
  284MOL0     H38306  11.403   6.307  12.079 -0.0370  0.9728 -0.1130
  284MOL0     H38307  11.553   6.328  11.990 -0.5210 -0.7412  1.2790
  284MOL0     H38308  11.390   6.524  11.873  0.3413 -0.2119  0.5012
  284MOL0     H38309  11.306   6.501  12.025 -0.5119 -0.1691 -0.0539
  284MOL0     H38310  11.600   6.587  11.983 -0.0788  2.2497  0.1033
  284MOL0     H38311  11.544   6.523  12.142 -0.3620 -0.6479 -0.7471
  284MOL0     H38312  11.455   6.775  11.997 -3.1302 -1.7930 -0.8750
  284MOL0     H38313  11.558   6.750  12.146  0.5682 -1.7253 -0.2864
  284MOL0     H38314  11.320   6.840  12.174  1.3888 -0.1552 -0.2368
  284MOL0     H38315  11.260   6.685  12.128  1.2008 -1.2058  0.6536
  284MOL0     H38316  11.466   6.732  12.343  0.6305 -1.9160 -2.0863
  284MOL0     H38317  11.385   6.577  12.310  0.6840 -0.6481 -0.5585
  284MOL0     H38318  11.158   6.696  12.385  0.1950 -0.0592  1.2287
  284MOL0     H38319  11.273   6.686  12.515  1.5917 -2.7986 -1.3053
  284MOL0     H38320  11.611   5.943  11.848  0.9708  1.7993  0.7474
  284MOL0     H38321  11.584   5.759  11.675 -2.8829 -0.8342 -0.3182
  284MOL0     H38322  11.538   5.701  11.230 -1.4340  0.9781 -0.1211
  284MOL0     H38323  11.539   5.573  11.043 -0.8174  1.7545  0.1061
  284MOL0     H38324  10.988   3.767  11.332  1.0297  1.4821 -4.5156
  284MOL0     H38325  10.757   3.698  11.373  3.2290 -0.6034 -1.8763
  284MOL0     H38326  10.418   3.641  11.546  0.3083  0.9644 -0.1596
  284MOL0     H38327  10.199   3.597  11.665 -2.6943 -0.5937 -0.1241
  284MOL0     H38328   9.992   3.557  11.649 -1.2318 -1.5593  0.6885
  284MOL0     H38329   9.832   3.638  11.682  0.1698 -0.3188  1.4867
  284MOL0     H38330  10.078   3.653  11.873  0.0123  1.9275 -0.0521
  284MOL0     H38331   9.944   3.554  11.906  2.4022 -0.3674  0.0378
  284MOL0     H38332   9.891   3.836  11.842  2.4519  1.0291 -0.4563
  284MOL0     H38333   9.969   3.799  11.999  1.0758 -0.0385 -0.5181
  284MOL0     H38334   9.712   3.674  11.880  1.7862  0.1947 -1.4749
  284MOL0     H38335   9.780   3.638  12.044 -0.4706 -1.6759 -2.1392
  284MOL0     H38336   9.572   3.976  12.143  0.4701 -2.0042  3.0952
  284MOL0     H38337  10.043   3.954  11.486  0.1767  0.5265 -0.0370
  284MOL0     H38338  10.313   4.041  11.254 -0.4608 -3.4379  0.1321
  284MOL0     H38339  10.175   4.091  11.329  0.4682  1.0848 -2.2833
  284MOL0     H38340  10.328   4.107  11.415 -1.9013  1.5723 -0.5528
  285MOL0     O38341   7.562   8.528   2.504 -0.0683 -0.5781  0.5365
  285MOL0     C38342   7.516   8.598   2.419  0.4609  0.2842 -0.7336
  285MOL0     O38343   7.562   8.716   2.370 -0.0656 -0.1568 -0.0018
  285MOL0     C38344   7.667   8.768   2.442 -0.1607 -0.3143  1.0899
  285MOL0     C38345   7.788   8.697   2.475  0.2333 -0.4333 -0.3334
  285MOL0     C38346   7.884   8.765   2.560 -0.1125  0.3503  0.8837
  285MOL0     C38347   7.858   8.891   2.608 -0.7553 -0.2984  0.0183
  285MOL0     O38348   7.950   8.968   2.672  0.1109  0.5199  0.6479
  285MOL0     C38349   7.972   9.100   2.633 -0.1457 -0.0549 -0.5825
  285MOL0     C38350   8.080   9.172   2.711  0.4024 -0.3258 -1.5422
  285MOL0     C38351   8.210   9.098   2.755 -0.6578  1.0256 -0.7850
  285MOL0     C38352   8.199   9.016   2.889  0.0266 -1.1469  0.7700
  285MOL0     C38353   8.324   8.928   2.893 -0.1788 -0.3530  0.4395
  285MOL0     C38354   8.463   8.994   2.896 -0.1676 -0.2754 -0.2491
  285MOL0     C38355   8.451   9.093   3.024 -0.6753 -0.8976 -0.8518
  285MOL0     C38356   8.582   9.171   3.045  0.2936 -0.3424  0.7077
  285MOL0     N38357   8.563   9.265   3.159  0.3252  0.7159  0.7132
  285MOL0     C38358   8.457   9.355   3.169 -0.8069 -0.0441  0.5107
  285MOL0     C38359   8.477   9.426   3.275  0.1536 -0.6931 -0.4889
  285MOL0     C38360   8.391   9.540   3.318  0.5124 -0.3724 -0.4845
  285MOL0     C38361   8.455   9.636   3.415 -0.6366  0.6128  0.7384
  285MOL0     C38362   8.356   9.728   3.485  0.3214 -0.2819  0.0811
  285MOL0     C38363   8.358   9.706   3.637 -0.8009  0.1003  0.8894
  285MOL0     O38364   8.222   9.702   3.681  0.2253 -0.5303 -0.0073
  285MOL0     C38365   8.140   9.589   3.675  0.9811 -0.5306 -0.5480
  285MOL0     C38366   8.193   9.458   3.669  0.3575  0.0952 -0.2759
  285MOL0     C38367   8.105   9.354   3.656 -0.2089 -0.6414 -0.3425
  285MOL0     C38368   7.971   9.380   3.651 -0.5759 -0.0311  0.8154
  285MOL0     C38369   7.882   9.259   3.641 -0.4483  0.7591 -1.0272
  285MOL0     O38370   7.768   9.286   3.577 -0.1624 -0.0630  0.2684
  285MOL0     C38371   7.658   9.226   3.637  0.0129 -0.6407  0.6210
  285MOL0     C38372   7.614   9.245   3.764 -0.0096 -0.3772  0.8122
  285MOL0     C38373   7.500   9.179   3.815 -0.0216 -0.0713  0.0420
  285MOL0     C38374   7.420   9.089   3.734 -0.8373  1.1661  0.3188
  285MOL0     O38375   7.311   9.025   3.793  0.5841 -0.1708 -0.1401
  285MOL0     C38376   7.201   9.008   3.696 -0.4796  0.6174 -0.3928
  285MOL0     C38377   7.081   8.944   3.765 -0.0226 -0.3012 -0.7318
  285MOL0     C38378   6.972   8.907   3.659  0.2842  1.2189  0.0367
  285MOL0     C38379   7.013   8.781   3.579  0.4804  0.6225  0.8495
  285MOL0     C38380   6.908   8.716   3.502 -0.5899  0.4086 -1.4709
  285MOL0     C38381   6.886   8.796   3.376  0.2907 -0.3527 -0.1679
  285MOL0     C38382   6.833   8.708   3.263 -1.0444  0.7955 -0.5637
  285MOL0     C38383   6.719   8.777   3.208 -0.2412 -0.8044 -0.2675
  285MOL0    Cl38384   6.625   8.675   3.102  0.0908  0.2908  0.2528
  285MOL0     C38385   7.464   9.075   3.607 -0.4814  0.2284  0.4941
  285MOL0     C38386   7.574   9.146   3.557 -0.3934  1.3204  0.6079
  285MOL0     O38387   7.907   9.150   3.694 -0.0198 -0.3580  0.0225
  285MOL0     C38388   7.915   9.511   3.652 -0.2410 -0.2738  0.7468
  285MOL0     C38389   8.003   9.618   3.673  0.4750 -0.2588  0.1157
  285MOL0     N38390   8.592   9.385   3.334  0.1711  0.1046  0.1775
  285MOL0     N38391   8.647   9.285   3.266  0.6021  0.0387 -0.0206
  285MOL0     C38392   7.732   8.946   2.578 -0.7305 -0.3721 -0.3405
  285MOL0     C38393   7.637   8.891   2.500  0.3971 -0.6322 -0.7108
  285MOL0     C38394   7.375   8.555   2.375 -0.4269 -0.7035  0.1058
  285MOL0     C38395   7.334   8.605   2.259 -1.0414  0.3949 -0.2206
  285MOL0     C38396   7.206   8.584   2.201 -0.4413 -0.1999 -0.0601
  285MOL0     C38397   7.114   8.495   2.269  0.1758 -0.4501  0.2524
  285MOL0     O38398   6.995   8.469   2.216  0.5260 -0.4350  0.5529
  285MOL0     C38399   6.904   8.376   2.264  0.0032  0.4333 -0.1428
  285MOL0     C38400   6.784   8.355   2.158 -0.8348  0.1668 -0.1523
  285MOL0     C38401   6.726   8.498   2.145 -0.2313 -0.2915  0.9770
  285MOL0     C38402   6.584   8.506   2.081 -0.1056 -0.2721 -0.2486
  285MOL0     C38403   6.569   8.414   1.968 -0.0931  0.5023  0.6864
  285MOL0     C38404   6.557   8.340   1.883  0.5538  0.7487 -0.0920
  285MOL0     C38405   7.170   8.422   2.375  0.0469 -0.1165 -0.7173
  285MOL0     C38406   7.295   8.462   2.436  0.5507  1.1039 -0.0862
  285MOL0     C38407   7.318   8.405   2.575 -0.6707  0.1547 -0.3890
  285MOL0     H38408   7.814   8.596   2.442 -0.5722 -0.9175  0.4570
  285MOL0     H38409   7.988   8.736   2.570  0.2520  1.3676  0.1850
  285MOL0     H38410   8.006   9.099   2.529  1.2354 -3.2202 -0.2035
  285MOL0     H38411   7.880   9.159   2.641 -0.0927 -0.0212 -0.2151
  285MOL0     H38412   8.023   9.195   2.801  0.9127 -0.5638 -1.1521
  285MOL0     H38413   8.097   9.266   2.658 -1.0611  0.7326 -0.2160
  285MOL0     H38414   8.291   9.170   2.769  1.2083 -1.2394  1.3415
  285MOL0     H38415   8.246   9.025   2.682 -0.1151 -0.7568  1.1481
  285MOL0     H38416   8.195   9.084   2.975  3.4134 -1.9876  1.7494
  285MOL0     H38417   8.111   8.952   2.887  0.0228 -1.1567  1.1442
  285MOL0     H38418   8.318   8.859   2.977 -1.9384 -0.9817 -0.1429
  285MOL0     H38419   8.319   8.869   2.801 -1.3718 -1.6982  1.3220
  285MOL0     H38420   8.539   8.916   2.910 -0.4660 -1.4974 -4.1599
  285MOL0     H38421   8.485   9.043   2.801 -0.7260 -1.9859 -1.3187
  285MOL0     H38422   8.422   9.049   3.119  1.1902  0.1712  0.2711
  285MOL0     H38423   8.383   9.176   3.002  1.4650  0.5956 -2.2752
  285MOL0     H38424   8.663   9.097   3.052 -0.9646 -2.0953 -1.7196
  285MOL0     H38425   8.601   9.229   2.955 -0.0439  0.8336  1.3676
  285MOL0     H38426   8.371   9.370   3.103  0.6866 -2.3373 -2.2129
  285MOL0     H38427   8.357   9.604   3.236 -0.7360  1.2361  1.1793
  285MOL0     H38428   8.299   9.515   3.373  0.6839 -0.9896 -0.4781
  285MOL0     H38429   8.511   9.567   3.478  0.6554 -0.6153 -1.6123
  285MOL0     H38430   8.527   9.707   3.374 -1.0591  0.2958 -0.6205
  285MOL0     H38431   8.255   9.722   3.443  1.3374 -0.5560 -2.4649
  285MOL0     H38432   8.393   9.827   3.456  0.5146 -0.3153  0.2123
  285MOL0     H38433   8.403   9.800   3.671 -1.0543  1.2495 -1.6851
  285MOL0     H38434   8.429   9.637   3.682 -0.3160 -0.8278 -1.1851
  285MOL0     H38435   8.299   9.434   3.672 -0.0179 -1.6247 -0.1734
  285MOL0     H38436   8.142   9.252   3.654 -1.1872 -1.0366  0.7501
  285MOL0     H38437   7.667   9.306   3.836  0.1710  1.3939 -0.7301
  285MOL0     H38438   7.487   9.189   3.922 -0.3208 -1.6656  0.1753
  285MOL0     H38439   7.167   9.103   3.655 -0.6382  0.9373  0.4626
  285MOL0     H38440   7.231   8.944   3.613 -1.8277  2.5678 -2.4930
  285MOL0     H38441   7.118   8.859   3.823 -1.3032 -0.3372  0.0750
  285MOL0     H38442   7.040   9.014   3.839  3.0218 -2.5961  3.6136
  285MOL0     H38443   6.883   8.867   3.708 -1.1113 -1.9314 -4.3755
  285MOL0     H38444   6.956   8.987   3.586 -0.7866 -0.7625 -2.0509
  285MOL0     H38445   7.049   8.708   3.653 -2.3320  0.2656  2.0011
  285MOL0     H38446   7.103   8.795   3.519  0.0604 -3.3723 -1.0538
  285MOL0     H38447   6.816   8.704   3.560  0.0311 -3.1267 -1.0355
  285MOL0     H38448   6.950   8.616   3.494  1.9949  1.1479  1.0587
  285MOL0     H38449   6.819   8.878   3.400  0.6358 -0.5809  1.7078
  285MOL0     H38450   6.984   8.836   3.348 -0.7693  1.7040 -1.1009
  285MOL0     H38451   6.790   8.623   3.317 -0.1340  0.4808 -0.3247
  285MOL0     H38452   6.890   8.670   3.178  1.8186 -2.4799  2.4542
  285MOL0     H38453   6.659   8.826   3.285  2.3117  1.0980  0.6646
  285MOL0     H38454   6.740   8.864   3.145  2.0049 -0.4607  0.8385
  285MOL0     H38455   7.422   8.995   3.547 -3.0051 -0.5093  3.0012
  285MOL0     H38456   7.627   9.117   3.466  0.9427  0.2009  1.6915
  285MOL0     H38457   7.807   9.519   3.647 -0.4260 -2.5316 -1.9873
  285MOL0     H38458   7.966   9.720   3.674 -1.3727 -0.8255 -2.0784
  285MOL0     H38459   7.703   9.047   2.607  1.2103 -0.4811  2.3835
  285MOL0     H38460   7.542   8.942   2.488  0.4552 -0.7170 -1.5714
  285MOL0     H38461   7.400   8.663   2.196 -0.2526  0.7697  0.9200
  285MOL0     H38462   7.178   8.644   2.115  1.0802  0.9454  0.2007
  285MOL0     H38463   6.862   8.403   2.362 -1.9875  1.6913 -1.2692
  285MOL0     H38464   6.939   8.275   2.288 -2.6303 -0.9460 -1.6511
  285MOL0     H38465   6.710   8.288   2.202 -0.1954 -0.0107  0.6832
  285MOL0     H38466   6.827   8.304   2.071  2.2728  0.0983  1.2870
  285MOL0     H38467   6.786   8.553   2.073  1.3297 -1.7024  1.1317
  285MOL0     H38468   6.729   8.547   2.242  0.3201  2.9147 -0.5514
  285MOL0     H38469   6.518   8.473   2.162 -1.4066  0.6210 -0.9050
  285MOL0     H38470   6.554   8.609   2.060  1.1818  0.4274  1.1778
  285MOL0     H38471   6.534   8.286   1.793 -0.7769  3.4391 -1.4670
  285MOL0     H38472   7.093   8.358   2.416  0.8832  0.6816  2.3472
  285MOL0     H38473   7.410   8.346   2.580 -0.9094 -0.1029  1.4951
  285MOL0     H38474   7.328   8.476   2.658 -2.4246 -1.1442  1.0108
  285MOL0     H38475   7.243   8.336   2.613 -1.1618  0.2652 -1.1248
  286MOL0     O38476   6.289   3.770   2.520 -0.2489  0.2559  0.0252
  286MOL0     C38477   6.335   3.767   2.630  0.0987 -0.4624  0.4662
  286MOL0     O38478   6.323   3.665   2.715 -0.1026 -0.1458 -0.9124
  286MOL0     C38479   6.332   3.681   2.859  0.2957 -1.3338 -0.0383
  286MOL0     C38480   6.225   3.710   2.934 -0.1551  0.1283  0.1555
  286MOL0     C38481   6.232   3.734   3.066  0.1923  0.2082 -0.6578
  286MOL0     C38482   6.359   3.741   3.135  0.2143  0.4213 -0.0131
  286MOL0     O38483   6.380   3.762   3.273  0.0801  0.2266  0.5727
  286MOL0     C38484   6.281   3.716   3.366 -0.6655  0.7107  0.4638
  286MOL0     C38485   6.293   3.772   3.513 -0.2671  0.1174  0.3143
  286MOL0     C38486   6.420   3.729   3.563 -0.3950  0.2643  0.1254
  286MOL0     C38487   6.435   3.771   3.711 -0.8815 -0.4463 -0.1562
  286MOL0     C38488   6.364   3.685   3.806  0.2533  0.7361 -1.7031
  286MOL0     C38489   6.386   3.742   3.943  0.2760 -0.5100 -0.0256
  286MOL0     C38490   6.330   3.647   4.052  0.2036  0.1860 -0.4864
  286MOL0     C38491   6.350   3.707   4.203  0.5470 -0.1666 -0.3760
  286MOL0     N38492   6.277   3.620   4.305 -0.2901  0.4938 -0.7287
  286MOL0     C38493   6.144   3.602   4.331  0.2365  0.5551  0.2246
  286MOL0     C38494   6.142   3.508   4.428 -0.3192  0.5121  0.9348
  286MOL0     C38495   6.017   3.444   4.483 -0.1588  0.4402 -0.8279
  286MOL0     C38496   6.010   3.437   4.635  0.3927 -0.0267  0.8578
  286MOL0     C38497   5.886   3.348   4.677 -0.1910  0.0077 -0.8967
  286MOL0     C38498   5.845   3.383   4.823  0.4196 -0.0998  0.2117
  286MOL0     O38499   5.955   3.364   4.916  0.2160 -0.4424  0.5054
  286MOL0     C38500   5.932   3.350   5.052  0.4330 -0.0093 -0.6088
  286MOL0     C38501   5.812   3.370   5.118  0.5189  0.7968  0.3761
  286MOL0     C38502   5.806   3.355   5.255  0.9187 -0.2671  0.1315
  286MOL0     C38503   5.919   3.344   5.334 -0.4184 -0.0646  0.3478
  286MOL0     C38504   5.917   3.360   5.483  0.1030 -0.2193  0.2390
  286MOL0     O38505   6.025   3.317   5.562 -0.3293 -0.1609  0.0049
  286MOL0     C38506   6.047   3.355   5.697  0.2508  0.2511  0.1616
  286MOL0     C38507   6.103   3.254   5.777  0.2136 -1.0850 -0.1288
  286MOL0     C38508   6.148   3.280   5.902  0.6604 -0.2269 -0.4762
  286MOL0     C38509   6.111   3.402   5.965 -0.6664 -0.7954  0.5248
  286MOL0     O38510   6.147   3.408   6.100  0.0004  0.1004  0.2231
  286MOL0     C38511   6.114   3.523   6.174 -0.2047 -0.8630  0.4049
  286MOL0     C38512   6.142   3.522   6.326  0.4434 -0.1918  0.0539
  286MOL0     C38513   6.069   3.409   6.403 -0.2113 -0.0143  0.1182
  286MOL0     C38514   6.155   3.280   6.399  0.3617 -0.0698 -0.3239
  286MOL0     C38515   6.094   3.166   6.469 -0.8456 -0.0875 -0.3000
  286MOL0     C38516   5.989   3.097   6.374  0.3328  0.6229 -0.0345
  286MOL0     C38517   5.968   2.950   6.418 -0.3592 -0.6622  1.1043
  286MOL0     C38518   5.911   2.938   6.556  1.1020 -0.6631  0.2888
  286MOL0    Cl38519   5.865   2.759   6.577  0.1658  0.3911  0.0850
  286MOL0     C38520   6.056   3.507   5.895  0.7646 -0.7891 -0.8675
  286MOL0     C38521   6.019   3.476   5.760 -0.0529 -0.2628  0.2913
  286MOL0     O38522   5.814   3.418   5.529 -0.3939  0.0024 -0.6049
  286MOL0     C38523   6.036   3.301   5.264  0.1573  0.0526 -0.0470
  286MOL0     C38524   6.042   3.306   5.126  0.3962  0.5599  0.3083
  286MOL0     N38525   6.272   3.464   4.456  1.3782  0.0305 -0.0990
  286MOL0     N38526   6.349   3.521   4.378 -0.2933  0.0352 -0.1767
  286MOL0     C38527   6.463   3.717   3.056  1.1056 -0.7364 -0.7342
  286MOL0     C38528   6.456   3.690   2.919  0.2275 -0.1181  0.1092
  286MOL0     C38529   6.403   3.895   2.672 -0.0252  0.2927 -0.1806
  286MOL0     C38530   6.532   3.905   2.627 -0.3679  0.2529  0.3888
  286MOL0     C38531   6.604   4.025   2.633 -0.3098  1.0398  0.5736
  286MOL0     C38532   6.555   4.121   2.721 -0.5027 -0.1641  0.3179
  286MOL0     O38533   6.633   4.233   2.746 -0.1727  0.3237  0.2364
  286MOL0     C38534   6.611   4.301   2.867 -0.3449  0.7463 -0.2148
  286MOL0     C38535   6.747   4.374   2.898 -0.2949  0.5709 -1.0200
  286MOL0     C38536   6.733   4.437   3.041  0.0334 -0.1968 -0.3974
  286MOL0     C38537   6.854   4.473   3.124 -0.4205 -0.1671  0.1396
  286MOL0     C38538   6.936   4.353   3.150  0.5586 -0.1257  0.4313
  286MOL0     C38539   7.015   4.272   3.165  0.2684  0.1798 -0.4032
  286MOL0     C38540   6.424   4.107   2.773 -0.1661  0.3866 -1.0477
  286MOL0     C38541   6.347   4.002   2.738  1.6255  0.5405 -0.3911
  286MOL0     C38542   6.193   4.005   2.767  1.1980  0.7443 -0.7746
  286MOL0     H38543   6.129   3.701   2.884  0.8652 -4.4471 -1.4772
  286MOL0     H38544   6.142   3.745   3.126 -0.3662 -0.7451 -1.2865
  286MOL0     H38545   6.180   3.742   3.333 -0.0906  2.6772  0.0888
  286MOL0     H38546   6.274   3.608   3.376  0.2958  0.4527 -1.2479
  286MOL0     H38547   6.218   3.728   3.578  1.8656 -2.8658  0.9893
  286MOL0     H38548   6.293   3.880   3.498  0.5363 -0.0507 -1.1621
  286MOL0     H38549   6.489   3.791   3.505 -1.8643  2.2725  0.3951
  286MOL0     H38550   6.434   3.621   3.557  0.2076  0.2666  1.1892
  286MOL0     H38551   6.542   3.757   3.726 -0.3513  0.2876 -2.7829
  286MOL0     H38552   6.403   3.874   3.730  0.6086 -0.3108  1.8095
  286MOL0     H38553   6.259   3.660   3.788  0.1789  1.2705 -2.0402
  286MOL0     H38554   6.411   3.587   3.797  2.1343  1.5805 -1.4942
  286MOL0     H38555   6.495   3.752   3.940  0.0532  2.8294 -1.3156
  286MOL0     H38556   6.335   3.838   3.954  3.1033  0.7771  5.3238
  286MOL0     H38557   6.382   3.551   4.049  0.4962  0.3356 -0.1765
  286MOL0     H38558   6.223   3.630   4.037  0.0465  0.4217  0.3225
  286MOL0     H38559   6.455   3.708   4.236 -0.1345 -1.4262  2.1278
  286MOL0     H38560   6.315   3.810   4.207  1.5963  0.1781  0.6727
  286MOL0     H38561   6.065   3.660   4.285  3.8855  4.4228 -1.9727
  286MOL0     H38562   5.928   3.499   4.450 -0.3834  2.6786  2.8633
  286MOL0     H38563   6.018   3.351   4.426  2.9136  1.5345 -2.8002
  286MOL0     H38564   6.106   3.399   4.672  1.5692  1.3790 -0.6226
  286MOL0     H38565   5.993   3.538   4.674 -1.9693  0.7559 -1.8399
  286MOL0     H38566   5.905   3.241   4.670 -2.1838 -0.2726 -3.4500
  286MOL0     H38567   5.794   3.365   4.620 -1.1057 -3.0878 -0.4833
  286MOL0     H38568   5.759   3.319   4.846  0.1401 -0.6560 -2.1374
  286MOL0     H38569   5.819   3.489   4.834 -2.1285 -0.3576 -2.0983
  286MOL0     H38570   5.715   3.393   5.077  0.5847 -1.2899 -1.1198
  286MOL0     H38571   5.707   3.379   5.293  0.1023 -1.3264 -1.2616
  286MOL0     H38572   6.118   3.160   5.723 -2.5744  0.2146 -3.5967
  286MOL0     H38573   6.212   3.214   5.959  2.1881  0.4567 -1.3272
  286MOL0     H38574   6.163   3.610   6.129 -1.0419 -0.7172 -0.2470
  286MOL0     H38575   6.006   3.530   6.162 -0.1301 -1.9844 -1.2432
  286MOL0     H38576   6.248   3.497   6.340  0.4738  0.1677  0.4766
  286MOL0     H38577   6.112   3.620   6.364 -1.6146  0.1135 -2.1048
  286MOL0     H38578   6.057   3.436   6.509 -2.3887 -3.3134  0.8642
  286MOL0     H38579   5.966   3.391   6.371 -0.2118  2.0904 -1.2804
  286MOL0     H38580   6.255   3.304   6.435  1.0614 -1.6030 -1.1894
  286MOL0     H38581   6.184   3.251   6.298 -1.8168 -3.6812 -0.0644
  286MOL0     H38582   6.051   3.208   6.560  0.9752 -2.8242  2.0043
  286MOL0     H38583   6.168   3.092   6.502  0.6146  2.1594  1.8009
  286MOL0     H38584   5.893   3.149   6.375  0.2206  0.5383 -2.0067
  286MOL0     H38585   6.032   3.089   6.274  0.2540 -0.5969  0.0216
  286MOL0     H38586   6.060   2.892   6.409 -0.4395 -0.6442  0.0903
  286MOL0     H38587   5.889   2.910   6.354  1.4802 -5.3038  1.3373
  286MOL0     H38588   5.993   2.949   6.628 -0.5097 -1.7140  2.3516
  286MOL0     H38589   5.827   3.007   6.563  0.9029 -1.0553  2.1074
  286MOL0     H38590   6.021   3.601   5.936  0.0392 -0.8848 -1.2579
  286MOL0     H38591   5.979   3.564   5.710  0.2356  0.6875  1.6605
  286MOL0     H38592   6.118   3.265   5.325 -0.8965 -1.3144  0.6387
  286MOL0     H38593   6.140   3.296   5.080  0.9545  2.0638  1.1104
  286MOL0     H38594   6.565   3.718   3.093  1.6356 -0.8658 -2.1354
  286MOL0     H38595   6.545   3.672   2.860 -0.0443  0.0394 -0.3579
  286MOL0     H38596   6.574   3.823   2.571 -2.4504 -0.9459  0.4900
  286MOL0     H38597   6.695   4.027   2.573 -0.8548 -0.7778 -0.3900
  286MOL0     H38598   6.584   4.232   2.948 -0.1591  0.5179 -0.3493
  286MOL0     H38599   6.534   4.378   2.855 -2.7272 -1.3779  0.4145
  286MOL0     H38600   6.767   4.455   2.827  3.0372 -0.3510 -1.2750
  286MOL0     H38601   6.821   4.293   2.898 -0.8224 -0.0028  1.9604
  286MOL0     H38602   6.693   4.353   3.099  1.0826  0.6310  1.6361
  286MOL0     H38603   6.654   4.514   3.040  0.8594  0.6825 -1.6950
  286MOL0     H38604   6.905   4.551   3.066 -2.1485  1.4082  0.6337
  286MOL0     H38605   6.813   4.507   3.220 -0.3856 -2.6453  1.0978
  286MOL0     H38606   7.086   4.196   3.191 -0.2075  0.3010  1.3748
  286MOL0     H38607   6.372   4.185   2.828 -1.1580 -0.7965 -0.2424
  286MOL0     H38608   6.147   3.905   2.770 -1.0871  1.7407  0.6109
  286MOL0     H38609   6.164   4.055   2.860 -1.5116 -2.4571  0.3264
  286MOL0     H38610   6.141   4.048   2.682  0.0742  1.4502  0.2325
  287MOL0     O38611   0.369   8.318   8.899  0.0243 -0.4043 -0.0449
  287MOL0     C38612   0.339   8.436   8.920 -0.2889  0.6643  0.1484
  287MOL0     O38613   0.279   8.478   9.035 -0.5407 -1.4225  0.5982
  287MOL0     C38614   0.282   8.386   9.139 -0.1188  0.0397  0.0399
  287MOL0     C38615   0.384   8.379   9.234 -0.9034  0.0210  0.1287
  287MOL0     C38616   0.396   8.285   9.337 -0.6813 -0.2357 -0.7680
  287MOL0     C38617   0.305   8.185   9.346 -0.1092 -0.6808  0.4462
  287MOL0     O38618   0.328   8.084   9.441 -0.4044 -0.3035  1.0287
  287MOL0     C38619   0.244   7.968   9.452  0.7933  0.4199 -0.1027
  287MOL0     C38620   0.316   7.854   9.529  0.2450 -1.0500  0.7837
  287MOL0     C38621   0.320   7.891   9.670 -0.5153  0.5405  0.2577
  287MOL0     C38622   0.407   7.790   9.748  0.2593 -0.5864  0.8065
  287MOL0     C38623   0.447   7.850   9.883 -0.0121 -0.2830 -0.6826
  287MOL0     C38624   0.523   7.766   9.974  0.1653  0.1324  0.5207
  287MOL0     C38625   0.533   7.823  10.114 -0.3152  0.2822  0.4929
  287MOL0     C38626   0.611   7.952  10.134 -0.4767 -0.1872  0.3352
  287MOL0     N38627   0.751   7.933  10.101 -0.1768  0.4992  0.4293
  287MOL0     C38628   0.816   7.970   9.993  0.5350  0.2545 -1.2445
  287MOL0     C38629   0.941   7.905   9.999  0.7570 -0.4222 -0.3434
  287MOL0     C38630   1.041   7.953   9.897 -0.6871 -0.2159 -0.2361
  287MOL0     C38631   1.124   8.074   9.953 -0.6489  1.0241 -0.3240
  287MOL0     C38632   1.215   8.030  10.064  0.1521  0.2037 -0.2916
  287MOL0     C38633   1.337   7.958  10.024 -1.0803 -0.6949  0.8827
  287MOL0     O38634   1.437   8.063  10.000  0.1496  0.1837 -0.0087
  287MOL0     C38635   1.566   8.023   9.989 -0.5345  0.1476 -0.3001
  287MOL0     C38636   1.611   7.901   9.930 -0.1428 -0.1857  0.5989
  287MOL0     C38637   1.751   7.879   9.928  0.6185  0.1437 -0.0142
  287MOL0     C38638   1.838   7.977   9.967 -0.0087 -1.0742  0.6415
  287MOL0     C38639   1.988   7.960   9.972 -0.2793 -0.0822 -0.3724
  287MOL0     O38640   2.068   8.063  10.017  0.3429  0.0448 -0.0501
  287MOL0     C38641   2.189   8.030  10.069  0.4604 -0.0989  0.1454
  287MOL0     C38642   2.304   8.096  10.028  0.6518  0.3568 -0.6604
  287MOL0     C38643   2.430   8.069  10.103 -0.1385  0.4873 -0.0588
  287MOL0     C38644   2.436   7.978  10.209 -0.4362  1.0672 -0.6178
  287MOL0     O38645   2.553   7.916  10.260  0.7312 -0.2018 -0.3245
  287MOL0     C38646   2.679   7.949  10.204  0.6359 -0.5508 -0.1693
  287MOL0     C38647   2.799   7.879  10.269  0.0848  0.1413  0.2970
  287MOL0     C38648   2.779   7.726  10.291 -0.5266  0.2754  0.3215
  287MOL0     C38649   2.784   7.646  10.162  0.2370 -1.3410  0.3527
  287MOL0     C38650   2.696   7.519  10.151  0.4817 -0.6174 -0.1898
  287MOL0     C38651   2.537   7.532  10.158 -0.0997  0.0870  0.1596
  287MOL0     C38652   2.482   7.618  10.042 -0.2109  0.2142 -0.2597
  287MOL0     C38653   2.330   7.654  10.060 -0.5473  0.2783 -0.5218
  287MOL0    Cl38654   2.238   7.496  10.049 -0.0245 -0.4777 -0.6608
  287MOL0     C38655   2.319   7.920  10.259 -0.2244  1.0269  0.6818
  287MOL0     C38656   2.204   7.949  10.182 -0.2079 -1.0850 -1.1523
  287MOL0     O38657   2.026   7.843   9.954 -0.0893  0.2140  0.6965
  287MOL0     C38658   1.794   8.098  10.006 -0.1967 -1.0880 -0.5840
  287MOL0     C38659   1.659   8.119  10.030  0.0164 -0.4643 -0.1475
  287MOL0     N38660   0.948   7.819  10.111  0.6053 -0.2861  0.3331
  287MOL0     N38661   0.831   7.844  10.171  0.0991  0.8177 -1.1797
  287MOL0     C38662   0.204   8.184   9.250  0.2412 -0.4447 -0.2495
  287MOL0     C38663   0.196   8.285   9.148 -0.8060 -0.1874  0.9742
  287MOL0     C38664   0.374   8.548   8.823  1.1534  0.0078 -0.0569
  287MOL0     C38665   0.366   8.684   8.867 -0.1696 -0.6528  0.7085
  287MOL0     C38666   0.433   8.789   8.797 -0.2570  0.2302  0.3066
  287MOL0     C38667   0.484   8.765   8.665  0.4478 -0.0600 -0.6834
  287MOL0     O38668   0.517   8.867   8.579 -0.5774  0.2898  0.9179
  287MOL0     C38669   0.632   8.863   8.498  0.5138  0.8225  0.0250
  287MOL0     C38670   0.701   8.996   8.501  0.7961 -0.5792 -0.5106
  287MOL0     C38671   0.854   8.976   8.453  0.0953  0.0453 -0.8707
  287MOL0     C38672   0.881   8.990   8.299  0.0798 -0.0334  0.5369
  287MOL0     C38673   0.807   8.890   8.222 -0.3197 -1.0282  0.8093
  287MOL0     C38674   0.761   8.809   8.142  0.2077  0.1751 -0.2908
  287MOL0     C38675   0.485   8.638   8.616 -0.5309  0.0746 -0.5888
  287MOL0     C38676   0.435   8.528   8.697  0.6436  0.0116 -0.3084
  287MOL0     C38677   0.433   8.387   8.645 -0.2136 -0.1392 -0.8456
  287MOL0     H38678   0.467   8.448   9.226  1.1685 -2.3197  0.0376
  287MOL0     H38679   0.490   8.262   9.387  0.7237 -1.8173 -3.8258
  287MOL0     H38680   0.149   7.995   9.499  0.1839 -2.4172  0.5192
  287MOL0     H38681   0.223   7.915   9.359  0.7667 -4.1419  2.2237
  287MOL0     H38682   0.417   7.834   9.490  1.5670  1.1971  2.7629
  287MOL0     H38683   0.244   7.772   9.530 -0.2258 -0.6509  2.0735
  287MOL0     H38684   0.218   7.883   9.708 -0.7390 -2.0250 -0.6672
  287MOL0     H38685   0.355   7.994   9.677 -0.5104  0.6831 -1.4214
  287MOL0     H38686   0.350   7.698   9.761 -1.2008  0.1831  0.0556
  287MOL0     H38687   0.496   7.775   9.686  1.4084  1.4866  1.8354
  287MOL0     H38688   0.502   7.940   9.854  0.2246 -0.7584 -1.7606
  287MOL0     H38689   0.355   7.877   9.936  0.0021 -1.1404 -0.1901
  287MOL0     H38690   0.476   7.669   9.986 -1.5734  0.8704 -0.0291
  287MOL0     H38691   0.619   7.741   9.927  0.2179  1.3593 -0.0664
  287MOL0     H38692   0.583   7.748  10.176 -0.7618  0.5110  1.1374
  287MOL0     H38693   0.431   7.834  10.152 -1.2256  2.3411 -2.2108
  287MOL0     H38694   0.576   8.037  10.074 -0.7408  0.5272  1.4627
  287MOL0     H38695   0.622   7.983  10.238  6.8206  1.3943 -0.3699
  287MOL0     H38696   0.769   8.038   9.922  0.1514  0.9423 -0.3427
  287MOL0     H38697   1.100   7.863   9.876 -1.7576 -1.2934  1.2170
  287MOL0     H38698   0.998   7.984   9.801 -2.5079  1.1834  0.9749
  287MOL0     H38699   1.186   8.115   9.873  1.2809 -0.6265  0.2385
  287MOL0     H38700   1.062   8.157   9.988 -0.7186  1.3328 -1.1596
  287MOL0     H38701   1.158   7.970  10.136  1.4543 -1.1250 -0.3230
  287MOL0     H38702   1.254   8.119  10.116  1.1507 -0.9595  1.0482
  287MOL0     H38703   1.305   7.898   9.938  0.5689 -0.3411 -0.0253
  287MOL0     H38704   1.378   7.888  10.096  2.9780 -1.1967 -1.5738
  287MOL0     H38705   1.545   7.820   9.900 -2.5851  2.5824 -2.2637
  287MOL0     H38706   1.783   7.778   9.907  3.0169  0.6286  0.9601
  287MOL0     H38707   2.304   8.167   9.946  1.5292  0.2198 -0.7927
  287MOL0     H38708   2.512   8.120  10.053 -2.3310  2.1231 -2.2477
  287MOL0     H38709   2.662   7.912  10.103 -1.6736 -0.7880  0.2650
  287MOL0     H38710   2.691   8.058  10.199 -3.8711  0.3366  2.5515
  287MOL0     H38711   2.894   7.900  10.217  0.0414  1.1981  0.6177
  287MOL0     H38712   2.800   7.926  10.367  1.2496 -2.5220  1.6552
  287MOL0     H38713   2.852   7.684  10.361  0.3976 -1.7669 -1.7681
  287MOL0     H38714   2.677   7.713  10.328 -1.0292  0.5652 -0.9224
  287MOL0     H38715   2.891   7.622  10.159  0.4352 -0.4936  0.2307
  287MOL0     H38716   2.769   7.713  10.078 -2.2962 -3.7494 -1.2653
  287MOL0     H38717   2.712   7.468  10.246  0.8307  2.2743  1.4229
  287MOL0     H38718   2.727   7.460  10.064 -3.3297 -0.0024 -2.2097
  287MOL0     H38719   2.499   7.429  10.148  3.9071 -1.4441 -0.9690
  287MOL0     H38720   2.501   7.570  10.255  0.1783  1.6844 -0.3349
  287MOL0     H38721   2.499   7.565   9.947  1.1071 -0.0488  0.1016
  287MOL0     H38722   2.538   7.711  10.053  1.0834 -0.1238 -3.1178
  287MOL0     H38723   2.305   7.696  10.158 -0.1923  0.4641 -0.5088
  287MOL0     H38724   2.306   7.720   9.977  0.9837 -0.1345 -1.3406
  287MOL0     H38725   2.318   7.845  10.337  1.8315 -2.0790 -2.0130
  287MOL0     H38726   2.112   7.907  10.223 -2.4666  3.3065 -1.1694
  287MOL0     H38727   1.860   8.181  10.031 -2.5565  1.1981 -1.3839
  287MOL0     H38728   1.620   8.217  10.057  3.1453  1.2202 -1.1442
  287MOL0     H38729   0.131   8.104   9.244 -0.8197  0.4491  0.4925
  287MOL0     H38730   0.105   8.281   9.090 -0.8839 -2.9856  1.1476
  287MOL0     H38731   0.332   8.704   8.968 -0.1898  0.1160  0.5498
  287MOL0     H38732   0.426   8.888   8.842 -0.8957 -0.9200  2.9100
  287MOL0     H38733   0.598   8.842   8.397  3.3908 -2.3941 -0.4773
  287MOL0     H38734   0.699   8.784   8.535  0.3721  1.1547  1.0267
  287MOL0     H38735   0.702   9.033   8.604  0.8396  2.0923 -1.3801
  287MOL0     H38736   0.658   9.069   8.432 -0.5934 -0.0426  0.8676
  287MOL0     H38737   0.879   8.878   8.494 -1.2323  0.6382  1.5240
  287MOL0     H38738   0.907   9.054   8.508 -1.6217 -0.9819  2.4953
  287MOL0     H38739   0.861   9.094   8.271  2.3723  0.6174  1.0936
  287MOL0     H38740   0.988   8.973   8.287  0.1799  0.5397  0.5964
  287MOL0     H38741   0.725   8.742   8.067 -0.4633 -0.7573  0.8284
  287MOL0     H38742   0.539   8.623   8.523  1.6871  2.2424  0.2464
  287MOL0     H38743   0.499   8.323   8.705 -2.4819  2.2658  5.0401
  287MOL0     H38744   0.331   8.347   8.653  0.2407 -1.7981 -2.5886
  287MOL0     H38745   0.473   8.386   8.544  2.0772  1.8831 -0.0603
  288MOL0     O38746   2.351   1.889   4.172 -0.2379  0.5330 -1.3974
  288MOL0     C38747   2.436   1.902   4.258 -0.1731 -0.4742  0.3826
  288MOL0     O38748   2.523   2.007   4.256 -0.3037  0.0562 -0.2777
  288MOL0     C38749   2.506   2.112   4.169 -0.4730  0.8029 -0.4683
  288MOL0     C38750   2.404   2.201   4.200 -0.2041  0.5952 -0.5678
  288MOL0     C38751   2.398   2.323   4.137  0.5579 -0.0108  0.2416
  288MOL0     C38752   2.489   2.356   4.034  1.5086  0.9964 -0.5048
  288MOL0     O38753   2.492   2.479   3.982  0.6204  0.5790  0.5930
  288MOL0     C38754   2.513   2.592   4.064 -0.0613 -0.8423 -0.4846
  288MOL0     C38755   2.648   2.595   4.131 -0.6415 -0.1680 -0.2308
  288MOL0     C38756   2.677   2.730   4.200  0.5404 -0.2250 -0.3402
  288MOL0     C38757   2.831   2.771   4.227  0.4861  0.1694 -0.3561
  288MOL0     C38758   2.828   2.901   4.317  0.3137  0.6574 -1.0835
  288MOL0     C38759   2.956   2.987   4.325 -0.0406  0.2214 -0.2414
  288MOL0     C38760   3.038   2.990   4.199  0.9110 -0.4771 -0.9246
  288MOL0     C38761   3.135   3.110   4.193 -0.2243 -0.0314 -0.2726
  288MOL0     N38762   3.203   3.106   4.062 -0.2721  0.0725  0.2671
  288MOL0     C38763   3.187   3.179   3.948 -0.0712 -0.3690  0.8163
  288MOL0     C38764   3.259   3.117   3.845  0.4729 -0.2769  0.0228
  288MOL0     C38765   3.272   3.145   3.703 -0.4666 -0.0161  0.7108
  288MOL0     C38766   3.262   3.296   3.663  0.0645  0.2267 -0.1776
  288MOL0     C38767   3.236   3.311   3.511 -0.4461 -0.0547  0.4697
  288MOL0     C38768   3.206   3.456   3.478  0.9611  0.4756 -0.4453
  288MOL0     O38769   3.320   3.531   3.517 -0.6346  0.2173  0.9012
  288MOL0     C38770   3.407   3.564   3.416 -1.0874  0.1336 -0.2896
  288MOL0     C38771   3.420   3.494   3.295  0.2731  0.5206 -0.3383
  288MOL0     C38772   3.516   3.534   3.210  0.7314  0.1690 -0.4818
  288MOL0     C38773   3.613   3.640   3.236  0.3744  0.2439  0.5590
  288MOL0     C38774   3.724   3.659   3.139 -0.3438  0.0831 -0.0213
  288MOL0     O38775   3.808   3.765   3.176  0.3660  0.1114  0.1209
  288MOL0     C38776   3.918   3.803   3.099  0.3085  0.0090 -0.7879
  288MOL0     C38777   4.018   3.717   3.070 -0.2956  0.0870  0.6868
  288MOL0     C38778   4.122   3.745   2.977  1.0374  0.9372  0.1679
  288MOL0     C38779   4.114   3.866   2.905  0.3142 -0.2648 -0.3415
  288MOL0     O38780   4.193   3.906   2.808 -0.7651 -0.4532  0.8915
  288MOL0     C38781   4.296   3.817   2.760  0.3876 -0.0820  0.1823
  288MOL0     C38782   4.379   3.857   2.631  0.4061  0.3751 -1.2098
  288MOL0     C38783   4.307   3.905   2.504 -0.3315 -0.7523  0.8368
  288MOL0     C38784   4.221   3.789   2.453 -0.3969  0.0395  0.9501
  288MOL0     C38785   4.135   3.835   2.334  0.3441  0.5804  0.8897
  288MOL0     C38786   4.038   3.947   2.353 -0.2965 -0.0460 -0.4165
  288MOL0     C38787   3.964   3.954   2.494 -0.8005  0.2800  0.8206
  288MOL0     C38788   3.828   4.013   2.474 -0.0703 -0.3012 -0.4459
  288MOL0    Cl38789   3.762   4.052   2.645  0.2523  0.0414  0.1352
  288MOL0     C38790   4.021   3.958   2.945  0.0116  0.5642 -1.0917
  288MOL0     C38791   3.915   3.926   3.035  0.9342 -0.0058  0.4077
  288MOL0     O38792   3.730   3.580   3.040 -1.0477 -0.0128 -0.2197
  288MOL0     C38793   3.584   3.722   3.341  0.9930  0.4974 -1.0960
  288MOL0     C38794   3.486   3.682   3.435 -0.0472 -0.0589 -0.6327
  288MOL0     N38795   3.325   3.012   3.905 -0.3237 -0.2789  0.3836
  288MOL0     N38796   3.282   2.998   4.024 -0.0838 -0.4608  0.4272
  288MOL0     C38797   2.590   2.266   4.017 -0.6228  0.6148  0.7831
  288MOL0     C38798   2.609   2.145   4.083  0.1312 -0.4428 -0.3685
  288MOL0     C38799   2.455   1.789   4.359 -0.1407  0.9608  1.1954
  288MOL0     C38800   2.529   1.815   4.478  0.3719  0.6660  0.2837
  288MOL0     C38801   2.543   1.732   4.583  0.0487  1.0222 -1.3259
  288MOL0     C38802   2.498   1.594   4.561  0.8208  0.2771 -0.1268
  288MOL0     O38803   2.513   1.496   4.660  0.0737 -0.7435 -0.1865
  288MOL0     C38804   2.633   1.487   4.726 -0.1204 -0.4407 -0.3021
  288MOL0     C38805   2.658   1.348   4.782 -0.1062  0.8594  0.1251
  288MOL0     C38806   2.677   1.234   4.680  0.3731 -0.0081  0.6105
  288MOL0     C38807   2.671   1.094   4.729 -0.8628 -0.1948 -0.4352
  288MOL0     C38808   2.784   1.057   4.819  0.9268  0.0504  0.2758
  288MOL0     C38809   2.891   1.041   4.881 -1.0842  0.1589 -0.2570
  288MOL0     C38810   2.439   1.559   4.445  1.3820  0.0893 -0.4047
  288MOL0     C38811   2.409   1.656   4.339  0.0049 -0.8764  0.5507
  288MOL0     C38812   2.337   1.604   4.211 -0.4545  0.4018 -0.3806
  288MOL0     H38813   2.341   2.183   4.287  0.7068  0.0840  0.0005
  288MOL0     H38814   2.334   2.405   4.170  0.7629  1.2600 -2.2560
  288MOL0     H38815   2.500   2.680   4.001 -0.0395  0.7253  1.5909
  288MOL0     H38816   2.430   2.609   4.133  0.6576  2.3163 -0.2356
  288MOL0     H38817   2.726   2.579   4.056 -0.8786  1.5302 -0.8752
  288MOL0     H38818   2.658   2.511   4.201  0.9561  1.6329  1.8432
  288MOL0     H38819   2.630   2.723   4.298  2.4177  2.0573  0.8264
  288MOL0     H38820   2.633   2.811   4.142 -1.6943 -0.8587  0.3664
  288MOL0     H38821   2.883   2.693   4.284  0.7775  0.3445 -0.3814
  288MOL0     H38822   2.885   2.780   4.132  1.4878  0.8769  0.2620
  288MOL0     H38823   2.743   2.967   4.296  0.6595  0.9916 -1.4408
  288MOL0     H38824   2.818   2.874   4.423  0.6473 -1.1015 -1.4724
  288MOL0     H38825   2.924   3.086   4.358  0.1430  0.2312 -0.0873
  288MOL0     H38826   3.014   2.949   4.410 -0.2377 -0.2297 -0.3073
  288MOL0     H38827   2.969   2.999   4.115  2.7813 -2.2375 -2.7573
  288MOL0     H38828   3.088   2.893   4.190 -1.0747 -1.4626 -1.9548
  288MOL0     H38829   3.085   3.207   4.203 -0.8977 -0.6037  2.4940
  288MOL0     H38830   3.212   3.090   4.268  2.2806  0.5392 -2.5216
  288MOL0     H38831   3.120   3.265   3.943  1.0396  0.4393 -2.2925
  288MOL0     H38832   3.357   3.088   3.665 -0.8630  0.7129 -1.3953
  288MOL0     H38833   3.198   3.083   3.650  2.0232 -1.9558 -0.7059
  288MOL0     H38834   3.173   3.336   3.712 -0.7349 -0.6970 -0.8348
  288MOL0     H38835   3.357   3.336   3.698 -0.1594 -0.9279  1.8719
  288MOL0     H38836   3.148   3.252   3.485 -2.3443  1.8294  2.2499
  288MOL0     H38837   3.320   3.285   3.445 -1.4469  0.9847 -1.3151
  288MOL0     H38838   3.127   3.487   3.547  1.4635 -1.6276  1.1914
  288MOL0     H38839   3.176   3.469   3.373  1.5310  1.5923 -0.4829
  288MOL0     H38840   3.356   3.412   3.266  0.3278  0.1820  0.4635
  288MOL0     H38841   3.528   3.486   3.113  3.8100  1.4560 -0.8393
  288MOL0     H38842   4.021   3.621   3.120 -1.8915 -1.2544 -1.5728
  288MOL0     H38843   4.199   3.681   2.933  2.6711  2.2783  0.9467
  288MOL0     H38844   4.378   3.818   2.832 -0.4825  2.4480  1.2522
  288MOL0     H38845   4.263   3.718   2.730  6.1621 -2.4769  0.5153
  288MOL0     H38846   4.438   3.946   2.653  0.4798 -0.5712  3.6718
  288MOL0     H38847   4.437   3.767   2.608 -1.7819 -1.8246  1.1853
  288MOL0     H38848   4.251   3.992   2.539  0.6930 -0.3733  1.6088
  288MOL0     H38849   4.374   3.953   2.432 -0.9837 -0.3483  0.4932
  288MOL0     H38850   4.151   3.750   2.527 -0.4495  1.6475  1.7997
  288MOL0     H38851   4.285   3.712   2.408  0.7517  2.1735 -1.3179
  288MOL0     H38852   4.076   3.749   2.301  1.2326 -0.0511  0.8819
  288MOL0     H38853   4.211   3.856   2.258  1.0542  2.4789  2.0557
  288MOL0     H38854   4.100   4.036   2.337 -1.4331  0.9925  0.6828
  288MOL0     H38855   3.963   3.942   2.274 -2.7578 -0.6922  1.8074
  288MOL0     H38856   4.027   4.012   2.562  1.2226 -1.0706  0.1968
  288MOL0     H38857   3.951   3.854   2.537 -1.6202 -1.9397 -3.9513
  288MOL0     H38858   3.829   4.094   2.401  0.8147  1.6400  1.6225
  288MOL0     H38859   3.774   3.932   2.424  1.5615 -0.7101 -1.6265
  288MOL0     H38860   4.020   4.056   2.899  0.4794  0.3189 -1.6466
  288MOL0     H38861   3.836   3.996   3.057 -0.8111 -1.2430 -1.5480
  288MOL0     H38862   3.618   3.825   3.351 -2.0563  1.5071  0.2585
  288MOL0     H38863   3.455   3.747   3.517  0.3650  0.5506 -0.9556
  288MOL0     H38864   2.650   2.287   3.930 -2.1230 -0.0324 -0.4473
  288MOL0     H38865   2.703   2.092   4.073 -0.4755 -2.0440  1.7291
  288MOL0     H38866   2.580   1.910   4.489  1.6332 -0.0219  0.4782
  288MOL0     H38867   2.580   1.760   4.681 -4.3187 -0.1062  0.9063
  288MOL0     H38868   2.636   1.557   4.810 -1.2841 -0.4716 -0.2107
  288MOL0     H38869   2.726   1.502   4.672  0.3480 -2.7745 -0.2607
  288MOL0     H38870   2.575   1.341   4.854 -0.8579  2.6336 -0.5181
  288MOL0     H38871   2.750   1.346   4.840 -0.3288  3.2797  0.6806
  288MOL0     H38872   2.778   1.246   4.642  0.5143  0.5955  1.1619
  288MOL0     H38873   2.609   1.234   4.594 -0.0987 -0.1193  0.9749
  288MOL0     H38874   2.576   1.077   4.781 -0.5253 -0.2062  0.1965
  288MOL0     H38875   2.672   1.027   4.643  3.4323 -0.0118 -0.7367
  288MOL0     H38876   2.983   1.014   4.928  1.0505  1.5550 -3.3025
  288MOL0     H38877   2.404   1.456   4.452 -0.3245  0.7444  1.7291
  288MOL0     H38878   2.229   1.621   4.205 -0.5773  0.7511  1.8102
  288MOL0     H38879   2.372   1.647   4.117  1.1747  0.9762  0.4373
  288MOL0     H38880   2.342   1.495   4.210 -2.8900  0.2155  0.6258
  289MOL0     O38881   5.717   3.412   4.152 -0.5123 -0.3179 -0.3076
  289MOL0     C38882   5.828   3.370   4.124 -0.2953  0.2094  0.0768
  289MOL0     O38883   5.943   3.438   4.146  0.5668 -0.3917 -0.3678
  289MOL0     C38884   6.050   3.394   4.071  0.5708 -0.8304  1.4001
  289MOL0     C38885   6.146   3.328   4.136 -0.0585  0.2685 -0.4756
  289MOL0     C38886   6.253   3.274   4.063  0.5571 -0.5075  0.3817
  289MOL0     C38887   6.269   3.295   3.925 -0.3591  1.3717  0.1971
  289MOL0     O38888   6.389   3.244   3.866  0.9911 -0.3205 -0.2193
  289MOL0     C38889   6.372   3.207   3.729 -0.1727  0.6719 -0.8149
  289MOL0     C38890   6.495   3.129   3.685 -0.6758  0.4628 -0.7850
  289MOL0     C38891   6.453   3.063   3.546  0.2378  0.3820  0.6969
  289MOL0     C38892   6.573   3.052   3.444 -0.0891 -0.7932  0.1628
  289MOL0     C38893   6.529   3.046   3.285 -0.0445 -0.2391  0.1672
  289MOL0     C38894   6.408   2.953   3.262 -1.3887  0.1093  0.6496
  289MOL0     C38895   6.386   2.930   3.115  1.3808 -0.2594 -0.6032
  289MOL0     C38896   6.272   2.825   3.074  0.1361 -0.5966  0.5071
  289MOL0     N38897   6.251   2.693   3.134 -0.6593  0.7614  1.2475
  289MOL0     C38898   6.336   2.579   3.136  0.0047 -0.8038  0.0257
  289MOL0     C38899   6.259   2.484   3.195  0.1079  0.9164 -0.0770
  289MOL0     C38900   6.300   2.343   3.194 -1.1689  0.5228 -0.8827
  289MOL0     C38901   6.407   2.335   3.305  0.2739  0.0936 -0.0919
  289MOL0     C38902   6.450   2.196   3.329 -0.8123  0.3117 -0.3361
  289MOL0     C38903   6.566   2.197   3.431  0.2350  0.0348 -0.1730
  289MOL0     O38904   6.516   2.212   3.563  0.5323  0.5470 -0.1031
  289MOL0     C38905   6.601   2.233   3.672 -0.7945 -0.3401 -0.1665
  289MOL0     C38906   6.555   2.294   3.786  1.0703  0.0702 -0.0673
  289MOL0     C38907   6.628   2.319   3.907 -0.7468 -0.3607  0.9732
  289MOL0     C38908   6.761   2.273   3.905 -0.5814  0.1080 -1.0527
  289MOL0     C38909   6.851   2.294   4.028  0.6275 -1.0147 -0.3121
  289MOL0     O38910   6.791   2.339   4.148 -0.9160  0.0658  0.0441
  289MOL0     C38911   6.880   2.359   4.250  0.0729  0.3793 -0.4972
  289MOL0     C38912   6.985   2.447   4.228  0.5396  0.7263  0.6745
  289MOL0     C38913   7.074   2.457   4.328  0.1978 -1.1534 -0.8056
  289MOL0     C38914   7.056   2.392   4.451 -0.4205 -0.6721 -1.1701
  289MOL0     O38915   7.140   2.411   4.555 -0.0061 -0.1573  0.7856
  289MOL0     C38916   7.263   2.488   4.544 -0.0453  0.7679  0.0492
  289MOL0     C38917   7.348   2.487   4.674 -0.1953 -0.4241 -0.1308
  289MOL0     C38918   7.383   2.346   4.740  0.1847 -0.1083  0.8603
  289MOL0     C38919   7.536   2.332   4.761 -1.5128 -0.5475 -0.5471
  289MOL0     C38920   7.607   2.276   4.629  0.4450 -0.3333 -0.1002
  289MOL0     C38921   7.622   2.124   4.649  0.6817  0.0837  0.4053
  289MOL0     C38922   7.749   2.099   4.726  0.1650 -0.0594 -0.1626
  289MOL0     C38923   7.823   1.968   4.700 -1.0902 -0.1948  0.5892
  289MOL0    Cl38924   7.965   1.947   4.813 -0.2707  0.0707 -0.0933
  289MOL0     C38925   6.943   2.316   4.470  0.1635 -0.0343 -0.1377
  289MOL0     C38926   6.858   2.299   4.372 -0.4432 -0.1766 -0.4700
  289MOL0     O38927   6.965   2.257   4.016  0.3437 -0.8797 -0.1506
  289MOL0     C38928   6.810   2.205   3.787  0.3678  0.5148  0.5736
  289MOL0     C38929   6.732   2.198   3.670 -0.8044  0.3225  0.0916
  289MOL0     N38930   6.133   2.532   3.222 -0.3897 -0.0106  0.4434
  289MOL0     N38931   6.133   2.650   3.184 -0.2845  0.2842 -1.3089
  289MOL0     C38932   6.172   3.379   3.865 -0.6999  0.3986  0.6701
  289MOL0     C38933   6.052   3.422   3.930 -0.3683 -0.0551 -0.0630
  289MOL0     C38934   5.827   3.234   4.066  0.0933  0.5958 -0.1014
  289MOL0     C38935   5.893   3.139   4.138 -0.2094  0.7922 -0.1354
  289MOL0     C38936   5.888   3.003   4.094 -0.2723 -0.0652  0.6039
  289MOL0     C38937   5.815   2.972   3.981  0.3680  0.5831 -0.1186
  289MOL0     O38938   5.797   2.841   3.926  0.1963 -0.1954 -1.1719
  289MOL0     C38939   5.840   2.732   4.005 -0.2679 -0.4981  0.2342
  289MOL0     C38940   5.795   2.615   3.929  0.2933  0.3971  0.4715
  289MOL0     C38941   5.882   2.588   3.805  0.0249 -0.1667 -1.5392
  289MOL0     C38942   6.007   2.505   3.832  0.1663  0.4782 -0.0406
  289MOL0     C38943   6.059   2.452   3.706  0.9280 -0.1431  0.4483
  289MOL0     C38944   6.087   2.418   3.596  1.3599 -0.0162 -0.8593
  289MOL0     C38945   5.743   3.065   3.909 -0.6671  0.0912  1.2943
  289MOL0     C38946   5.750   3.197   3.948 -0.6879 -0.5869  0.4703
  289MOL0     C38947   5.666   3.294   3.878  0.2282 -0.0048 -0.2302
  289MOL0     H38948   6.145   3.330   4.245 -0.5769  0.9354 -0.4842
  289MOL0     H38949   6.342   3.244   4.117  2.4400  3.0884 -0.3688
  289MOL0     H38950   6.295   3.131   3.713  2.5234 -2.5566  0.3496
  289MOL0     H38951   6.361   3.301   3.673 -0.5834  1.8856  1.2103
  289MOL0     H38952   6.518   3.051   3.758  0.5783  1.4868 -0.0459
  289MOL0     H38953   6.581   3.194   3.668  0.5367 -1.7314 -4.2282
  289MOL0     H38954   6.379   3.110   3.481  1.2403 -0.8333 -1.4225
  289MOL0     H38955   6.435   2.956   3.560 -0.7545 -0.3454 -4.3997
  289MOL0     H38956   6.642   3.134   3.466 -0.4077 -0.7177  0.9391
  289MOL0     H38957   6.616   2.954   3.465 -1.1122 -0.9917  1.5128
  289MOL0     H38958   6.503   3.145   3.246  1.3388  1.1714  2.5453
  289MOL0     H38959   6.620   3.018   3.232  0.3252  3.5076 -1.4652
  289MOL0     H38960   6.427   2.857   3.310  0.9852  0.7909  1.2002
  289MOL0     H38961   6.320   3.003   3.302 -1.3020  1.8701 -1.2084
  289MOL0     H38962   6.477   2.887   3.074  2.9632  2.1102  0.1841
  289MOL0     H38963   6.359   3.028   3.072  1.9764 -0.0796 -0.5770
  289MOL0     H38964   6.178   2.873   3.101  0.4343 -0.9908  2.3514
  289MOL0     H38965   6.281   2.827   2.965  1.5665  3.3424  0.5307
  289MOL0     H38966   6.429   2.581   3.080 -1.5987 -1.0932 -2.7692
  289MOL0     H38967   6.226   2.267   3.221  2.6032 -3.7593 -1.3845
  289MOL0     H38968   6.331   2.316   3.093  0.4184 -2.6040  0.2984
  289MOL0     H38969   6.498   2.378   3.264  0.9692 -0.0976  1.1965
  289MOL0     H38970   6.393   2.401   3.391  1.0756  0.8877 -0.5571
  289MOL0     H38971   6.494   2.167   3.233 -2.2872 -1.9719 -0.3894
  289MOL0     H38972   6.365   2.131   3.351  0.6010 -1.1736  0.9622
  289MOL0     H38973   6.642   2.272   3.408  0.1216 -0.6841 -3.3936
  289MOL0     H38974   6.615   2.099   3.433 -0.5885 -0.3797  1.7619
  289MOL0     H38975   6.452   2.328   3.786  2.2697  4.6285  2.6954
  289MOL0     H38976   6.584   2.377   3.987  0.1891  0.0567  1.1989
  289MOL0     H38977   7.015   2.506   4.142 -0.0140  2.3406  1.5456
  289MOL0     H38978   7.157   2.527   4.319 -0.0458 -0.9040 -1.1628
  289MOL0     H38979   7.323   2.459   4.457  0.4479  0.0743  0.6084
  289MOL0     H38980   7.234   2.589   4.517 -4.6783  0.2405  2.1334
  289MOL0     H38981   7.440   2.543   4.652  0.0949 -0.8412  0.0152
  289MOL0     H38982   7.295   2.548   4.748 -0.8745 -1.6197  0.3888
  289MOL0     H38983   7.335   2.336   4.837  1.2575  1.2548  1.5642
  289MOL0     H38984   7.339   2.275   4.669  0.0575  0.8210 -0.0079
  289MOL0     H38985   7.559   2.273   4.850 -0.7452  1.4382  0.6513
  289MOL0     H38986   7.586   2.423   4.794  0.7698 -0.7138 -3.2374
  289MOL0     H38987   7.701   2.327   4.612 -0.2985  0.3486 -2.4798
  289MOL0     H38988   7.544   2.292   4.541  0.4120 -4.3803 -1.0354
  289MOL0     H38989   7.532   2.087   4.699  0.6997  0.0139  0.3865
  289MOL0     H38990   7.607   2.067   4.557  1.2234 -2.6509  1.9022
  289MOL0     H38991   7.717   2.077   4.828  3.6336 -1.0088  0.8810
  289MOL0     H38992   7.832   2.170   4.721  2.6247 -2.5675  1.4098
  289MOL0     H38993   7.754   1.886   4.724  0.5780 -1.2265  2.1639
  289MOL0     H38994   7.861   1.969   4.598 -1.4422 -0.0103  0.4586
  289MOL0     H38995   6.908   2.288   4.569  1.2855  1.1371  0.6175
  289MOL0     H38996   6.776   2.227   4.378  0.3443 -1.4247 -3.0768
  289MOL0     H38997   6.910   2.178   3.757  0.0696  2.5635 -2.7275
  289MOL0     H38998   6.765   2.152   3.578 -1.1972  0.0781  0.0705
  289MOL0     H38999   6.183   3.419   3.764 -0.1701 -2.2081 -0.3853
  289MOL0     H39000   5.972   3.471   3.877 -1.3983 -0.9870  0.5860
  289MOL0     H39001   5.934   3.168   4.235 -2.9445 -0.5140  1.5411
  289MOL0     H39002   5.955   2.934   4.143  1.6607  0.8535 -0.6421
  289MOL0     H39003   5.797   2.739   4.105 -0.4059 -0.5886  0.1818
  289MOL0     H39004   5.949   2.735   4.016 -0.0847  2.0775 -1.5277
  289MOL0     H39005   5.690   2.636   3.904  0.5527  2.2111  0.7575
  289MOL0     H39006   5.793   2.529   3.997 -3.2011 -0.1432 -0.0886
  289MOL0     H39007   5.905   2.684   3.758 -2.3523 -0.9070 -4.5172
  289MOL0     H39008   5.809   2.546   3.736 -1.7491 -0.4370  0.3907
  289MOL0     H39009   6.093   2.558   3.876  0.1011 -0.5932  1.4546
  289MOL0     H39010   5.972   2.429   3.903 -2.1165  1.1929 -0.3250
  289MOL0     H39011   6.111   2.390   3.496  2.6362 -0.3819 -0.4658
  289MOL0     H39012   5.662   3.050   3.838 -1.8774 -1.4493  2.9281
  289MOL0     H39013   5.602   3.250   3.800  0.0686 -1.2813  0.5948
  289MOL0     H39014   5.601   3.346   3.949  1.5536 -2.0304  2.6225
  289MOL0     H39015   5.739   3.364   3.836 -1.0733  0.8759 -1.1395
  290MOL0     O39016   0.406   7.028   1.888 -0.2477  0.4702 -1.1374
  290MOL0     C39017   0.423   7.008   2.014 -0.4455  0.6734  1.2946
  290MOL0     O39018   0.345   7.046   2.117  0.3191 -0.3121 -0.0720
  290MOL0     C39019   0.223   7.082   2.086 -0.1424  0.2549  0.2823
  290MOL0     C39020   0.130   7.015   2.010  0.5700 -0.5244 -0.8031
  290MOL0     C39021   0.005   7.067   1.982  0.6810  0.0461 -1.2933
  290MOL0     C39022  -0.023   7.195   2.040 -0.3757  0.8224 -0.6884
  290MOL0     O39023  -0.139   7.263   2.017  0.7264  0.3745 -0.0201
  290MOL0     C39024  -0.269   7.196   2.025 -0.2748 -0.1948 -0.6688
  290MOL0     C39025  -0.318   7.160   2.162 -0.9252  0.0430 -0.1332
  290MOL0     C39026  -0.234   7.071   2.251 -0.4886  0.8919 -0.9585
  290MOL0     C39027  -0.250   6.920   2.216  0.3437 -1.0094 -0.3245
  290MOL0     C39028  -0.163   6.835   2.289 -0.1895 -0.7275 -0.8101
  290MOL0     C39029  -0.193   6.688   2.266  0.2597 -0.4571 -0.4769
  290MOL0     C39030  -0.147   6.647   2.125 -0.0811  0.7903 -0.4969
  290MOL0     C39031  -0.086   6.501   2.129 -0.3878 -0.1486 -0.5706
  290MOL0     N39032   0.033   6.473   2.222 -0.1928  0.1394 -0.0320
  290MOL0     C39033   0.025   6.438   2.356 -0.2191 -0.7190  0.4579
  290MOL0     C39034   0.159   6.418   2.399 -0.5342  0.6610  0.3869
  290MOL0     C39035   0.194   6.361   2.534 -0.5102 -0.0390 -0.1182
  290MOL0     C39036   0.231   6.469   2.635  0.0062 -0.3579 -0.2152
  290MOL0     C39037   0.351   6.438   2.722  0.3330  1.1065  0.6585
  290MOL0     C39038   0.381   6.540   2.824  0.3103 -0.2097  0.7137
  290MOL0     O39039   0.445   6.475   2.934 -0.2773 -0.1645 -0.7298
  290MOL0     C39040   0.552   6.389   2.924  0.7877 -0.3447  0.3693
  290MOL0     C39041   0.646   6.383   2.829  0.1885  0.3007 -0.0336
  290MOL0     C39042   0.753   6.288   2.832  1.1843  0.0188 -0.5113
  290MOL0     C39043   0.769   6.198   2.943 -0.4251  0.0196 -1.0402
  290MOL0     C39044   0.860   6.089   2.945  0.0091 -0.2386  0.7694
  290MOL0     O39045   0.818   5.973   2.995  0.1230 -0.3604 -0.3215
  290MOL0     C39046   0.899   5.863   2.961  0.4670 -0.2747  0.5065
  290MOL0     C39047   0.866   5.778   2.853 -0.0257  0.5120  0.4648
  290MOL0     C39048   0.950   5.668   2.814  0.5497 -0.2448 -0.3790
  290MOL0     C39049   1.070   5.648   2.882  0.9591  0.8605  0.6142
  290MOL0     O39050   1.166   5.557   2.841  0.4894  1.2265 -0.2297
  290MOL0     C39051   1.232   5.472   2.937  0.4154  1.4149  0.0822
  290MOL0     C39052   1.222   5.326   2.894  0.1205  0.0362 -0.0984
  290MOL0     C39053   1.283   5.235   3.011 -0.0104 -0.2858 -0.8271
  290MOL0     C39054   1.304   5.093   2.955  0.5588 -0.5645 -0.1587
  290MOL0     C39055   1.158   5.040   2.902  0.1556 -1.1104 -0.1787
  290MOL0     C39056   1.164   4.897   2.868 -0.7590  0.3021 -0.1658
  290MOL0     C39057   1.026   4.861   2.811  0.0634 -0.3180  0.4792
  290MOL0     C39058   1.013   4.748   2.711  0.7146 -0.0626 -0.8918
  290MOL0    Cl39059   1.023   4.586   2.763 -0.1613  0.0502 -0.0593
  290MOL0     C39060   1.099   5.723   3.001 -0.7819 -0.1866 -0.0812
  290MOL0     C39061   1.010   5.830   3.036 -0.0079 -0.7553  0.2349
  290MOL0     O39062   0.966   6.110   2.890 -0.8639 -0.6616  0.3875
  290MOL0     C39063   0.667   6.211   3.044 -1.3399  0.1349 -0.2069
  290MOL0     C39064   0.563   6.307   3.030  0.4807  0.7446 -0.6644
  290MOL0     N39065   0.237   6.450   2.292 -0.2505 -0.7780 -0.4230
  290MOL0     N39066   0.162   6.485   2.187 -0.3481  0.3048  0.1788
  290MOL0     C39067   0.072   7.263   2.121  0.5788  0.0069 -0.2912
  290MOL0     C39068   0.193   7.200   2.149  1.1013 -0.0114 -0.0551
  290MOL0     C39069   0.533   6.915   2.030  0.3539  0.3166  0.0743
  290MOL0     C39070   0.656   6.951   1.986 -0.1709 -0.0156  0.2814
  290MOL0     C39071   0.765   6.867   1.987  0.4043 -0.3535 -0.8283
  290MOL0     C39072   0.756   6.744   2.060 -0.8593 -0.4711  0.2900
  290MOL0     O39073   0.868   6.672   2.071  0.1741  0.2670  0.3428
  290MOL0     C39074   0.871   6.544   2.008 -1.1673  0.0133  0.7475
  290MOL0     C39075   1.002   6.472   2.035  0.2299 -0.8979 -0.3850
  290MOL0     C39076   1.132   6.531   1.958  0.9934 -0.2281 -0.1774
  290MOL0     C39077   1.176   6.678   2.001 -0.2787  1.0216 -0.0716
  290MOL0     C39078   1.231   6.681   2.139 -0.2183 -0.4833 -0.6424
  290MOL0     C39079   1.274   6.680   2.257  0.2120  0.7631  0.8388
  290MOL0     C39080   0.627   6.704   2.095 -1.2261 -0.6948 -0.4903
  290MOL0     C39081   0.513   6.787   2.083 -0.3930  0.7761 -0.6732
  290MOL0     C39082   0.383   6.737   2.132 -0.4161  0.2140 -0.4114
  290MOL0     H39083   0.166   6.934   1.948 -1.3127 -0.0121 -2.6793
  290MOL0     H39084  -0.068   7.011   1.925 -1.3744  0.9951  0.2641
  290MOL0     H39085  -0.335   7.264   1.970  3.7535  3.6308 -1.2586
  290MOL0     H39086  -0.247   7.104   1.970  5.1542 -0.5298  1.4302
  290MOL0     H39087  -0.415   7.109   2.156 -1.1736  0.5041 -0.1535
  290MOL0     H39088  -0.332   7.260   2.206  1.3768  0.7207 -0.8115
  290MOL0     H39089  -0.266   7.096   2.352  1.2518 -0.5557  0.0133
  290MOL0     H39090  -0.128   7.095   2.236 -0.4597  1.2130 -0.2492
  290MOL0     H39091  -0.351   6.905   2.255  1.3397  1.8200  4.1680
  290MOL0     H39092  -0.237   6.892   2.111  1.1021 -2.0126  0.0304
  290MOL0     H39093  -0.064   6.844   2.244  0.0482  1.1089  0.0044
  290MOL0     H39094  -0.157   6.870   2.392  1.1032  2.4073 -1.8371
  290MOL0     H39095  -0.141   6.630   2.343 -2.9968 -1.1864  1.3467
  290MOL0     H39096  -0.301   6.674   2.277  0.3868 -0.6285  0.6615
  290MOL0     H39097  -0.075   6.714   2.076  0.9617 -0.2016 -0.3772
  290MOL0     H39098  -0.231   6.653   2.055 -1.3843  1.5460  1.0768
  290MOL0     H39099  -0.163   6.429   2.157 -0.4957  0.0444 -0.3694
  290MOL0     H39100  -0.039   6.482   2.032 -3.6965  1.5484 -2.7126
  290MOL0     H39101  -0.067   6.433   2.412  0.0625  2.6696  1.4415
  290MOL0     H39102   0.109   6.300   2.567  0.6153 -0.0621  2.9880
  290MOL0     H39103   0.275   6.288   2.527  0.6329  1.2463 -0.7512
  290MOL0     H39104   0.256   6.563   2.585  0.3801  0.2545  1.0575
  290MOL0     H39105   0.148   6.490   2.702 -0.8150 -0.1775 -1.2650
  290MOL0     H39106   0.437   6.429   2.655  1.3045  2.6190  1.6575
  290MOL0     H39107   0.332   6.343   2.772 -0.0820 -0.7296 -2.7077
  290MOL0     H39108   0.288   6.584   2.863  0.4188 -0.3621  1.1571
  290MOL0     H39109   0.436   6.626   2.784 -1.4879 -0.0139 -1.5249
  290MOL0     H39110   0.642   6.447   2.742  1.8382 -0.3177 -0.5953
  290MOL0     H39111   0.822   6.269   2.750 -0.7097 -3.8495 -1.4515
  290MOL0     H39112   0.773   5.779   2.798  0.4215 -2.1121 -0.4847
  290MOL0     H39113   0.917   5.604   2.733 -3.7549 -0.7924  1.5077
  290MOL0     H39114   1.336   5.494   2.959  1.1626  3.7817 -4.6635
  290MOL0     H39115   1.170   5.475   3.028 -0.9153 -2.3929 -0.4896
  290MOL0     H39116   1.121   5.304   2.859 -0.5620  1.4500  0.8873
  290MOL0     H39117   1.294   5.317   2.812  0.7619  1.4328  0.2812
  290MOL0     H39118   1.375   5.277   3.051  0.3107  0.0616 -1.9059
  290MOL0     H39119   1.211   5.233   3.094  1.6792 -0.5052  0.6860
  290MOL0     H39120   1.341   5.032   3.038  1.2133  0.8451  0.6238
  290MOL0     H39121   1.379   5.103   2.876  0.0017  2.6093 -0.4257
  290MOL0     H39122   1.125   5.096   2.813 -1.3853  0.8561  1.5194
  290MOL0     H39123   1.086   5.053   2.984 -0.1228  0.2367 -0.6074
  290MOL0     H39124   1.237   4.882   2.788 -0.5805  0.7281 -0.0872
  290MOL0     H39125   1.187   4.830   2.951 -1.1894  0.3943  0.0343
  290MOL0     H39126   0.993   4.939   2.741  4.2334 -0.3063 -1.7713
  290MOL0     H39127   0.948   4.849   2.887  1.1876 -0.5184  1.6284
  290MOL0     H39128   0.923   4.751   2.649  1.3614 -1.7159 -1.9766
  290MOL0     H39129   1.091   4.755   2.634 -1.6076  0.3574 -3.3771
  290MOL0     H39130   1.189   5.715   3.061 -0.1860 -0.5080 -0.9993
  290MOL0     H39131   1.034   5.882   3.128  1.5528  2.9889 -2.0327
  290MOL0     H39132   0.674   6.135   3.121 -0.1385  1.5350  1.1230
  290MOL0     H39133   0.478   6.300   3.097 -0.6298  1.1255 -1.9962
  290MOL0     H39134   0.048   7.363   2.156 -0.8003  0.4579 -2.3224
  290MOL0     H39135   0.264   7.242   2.220 -0.5245 -0.7572  2.1059
  290MOL0     H39136   0.670   7.048   1.939 -0.0853  2.1381  4.3318
  290MOL0     H39137   0.859   6.901   1.944  2.1547 -2.2198  1.2532
  290MOL0     H39138   0.866   6.557   1.899  3.1628  0.4749  0.4248
  290MOL0     H39139   0.792   6.479   2.046  1.7225 -2.6952  2.6538
  290MOL0     H39140   0.987   6.366   2.014 -0.8018 -1.2093  1.7259
  290MOL0     H39141   1.023   6.469   2.142 -2.2421 -0.9125  0.1490
  290MOL0     H39142   1.114   6.516   1.851  2.4035  0.6612 -0.5835
  290MOL0     H39143   1.206   6.456   1.987  0.7703 -1.5748 -2.7980
  290MOL0     H39144   1.261   6.709   1.941  1.4274 -0.8577  1.2446
  290MOL0     H39145   1.097   6.752   1.983 -1.5580 -0.8613 -3.0703
  290MOL0     H39146   1.318   6.682   2.355 -0.6320 -1.1787  1.3186
  290MOL0     H39147   0.616   6.609   2.144 -0.6061 -0.9698 -0.8670
  290MOL0     H39148   0.319   6.743   2.043 -0.3953  1.9784 -0.3292
  290MOL0     H39149   0.387   6.634   2.168 -1.0050 -0.0663 -1.1206
  290MOL0     H39150   0.345   6.798   2.215  3.3868  3.3482 -0.7277
  291MOL0     O39151   5.840   6.797   0.819 -1.0188 -0.1417 -0.5918
  291MOL0     C39152   5.869   6.856   0.926 -0.3029 -0.4537  1.0063
  291MOL0     O39153   5.811   6.818   1.040 -0.1021  0.0880 -0.5276
  291MOL0     C39154   5.793   6.680   1.069  1.2089  0.5365  0.0000
  291MOL0     C39155   5.887   6.581   1.039  0.2376 -0.0384  0.1581
  291MOL0     C39156   5.844   6.450   1.075 -0.0370  0.9352  0.9761
  291MOL0     C39157   5.717   6.415   1.129 -0.4491  0.6268 -0.6529
  291MOL0     O39158   5.692   6.291   1.178 -0.3963  0.1916  0.1315
  291MOL0     C39159   5.636   6.270   1.312  0.3469 -0.1735  0.8349
  291MOL0     C39160   5.735   6.311   1.420  1.1052 -0.5633 -0.7431
  291MOL0     C39161   5.860   6.213   1.449  0.2856  1.4133 -0.3992
  291MOL0     C39162   5.972   6.291   1.522 -0.0834  0.8299 -0.5761
  291MOL0     C39163   6.089   6.338   1.429 -0.1897 -0.2901  0.4897
  291MOL0     C39164   6.202   6.238   1.407  0.2330  0.0813 -1.1831
  291MOL0     C39165   6.338   6.300   1.375 -0.1925 -1.5367 -0.8794
  291MOL0     C39166   6.332   6.361   1.226  0.4279 -0.4961  0.2165
  291MOL0     N39167   6.457   6.358   1.164 -0.1196  0.3424  0.4509
  291MOL0     C39168   6.560   6.437   1.207 -0.2024 -0.5791  0.1516
  291MOL0     C39169   6.675   6.383   1.147 -0.9655 -0.6033  0.4306
  291MOL0     C39170   6.821   6.423   1.160 -0.0441 -0.2567 -0.7324
  291MOL0     C39171   6.895   6.412   1.018 -0.1807 -0.3118 -0.2187
  291MOL0     C39172   6.841   6.497   0.903 -0.6246 -0.1731  0.0342
  291MOL0     C39173   6.902   6.636   0.889 -0.4055  0.2271 -0.9824
  291MOL0     O39174   7.042   6.621   0.873 -0.5249 -0.2461 -0.5933
  291MOL0     C39175   7.116   6.736   0.841  0.3008 -0.5672 -0.2701
  291MOL0     C39176   7.227   6.709   0.756  0.2554 -0.0447 -0.7348
  291MOL0     C39177   7.308   6.820   0.718 -0.0043  0.3811  0.1219
  291MOL0     C39178   7.292   6.944   0.770 -0.7846  0.5188  1.3518
  291MOL0     C39179   7.383   7.044   0.729 -0.8068  0.1893 -0.1414
  291MOL0     O39180   7.389   7.164   0.795  0.7178  0.3521  0.4825
  291MOL0     C39181   7.508   7.228   0.766  0.2695  0.8732  0.7670
  291MOL0     C39182   7.513   7.342   0.703  0.5422 -0.5657 -0.3229
  291MOL0     C39183   7.638   7.396   0.668 -0.5466  0.0015  0.2513
  291MOL0     C39184   7.759   7.328   0.688  1.1010 -0.0904 -0.8014
  291MOL0     O39185   7.884   7.375   0.666 -0.4585 -0.1171  0.3964
  291MOL0     C39186   7.900   7.517   0.676  1.3282  1.0885  0.0529
  291MOL0     C39187   8.054   7.541   0.680  0.8162 -0.1316 -0.0012
  291MOL0     C39188   8.115   7.518   0.814 -0.2669 -0.3227 -0.0435
  291MOL0     C39189   8.258   7.558   0.833 -0.5252 -0.0887 -0.1973
  291MOL0     C39190   8.345   7.483   0.737  0.1753 -0.0571 -0.8204
  291MOL0     C39191   8.477   7.440   0.805  0.6182 -0.4799  0.1426
  291MOL0     C39192   8.582   7.380   0.699  0.5686 -0.2940 -1.5401
  291MOL0     C39193   8.533   7.243   0.643 -0.4484 -0.1042  0.1490
  291MOL0    Cl39194   8.682   7.171   0.568 -0.3192  0.2517 -0.2916
  291MOL0     C39195   7.745   7.213   0.760 -0.4941  0.0961  0.0730
  291MOL0     C39196   7.627   7.167   0.805 -0.1714 -0.6235  0.3172
  291MOL0     O39197   7.444   7.027   0.619  0.2945  0.6907 -0.7942
  291MOL0     C39198   7.193   6.961   0.872 -0.7919 -0.0541 -0.2815
  291MOL0     C39199   7.096   6.863   0.905  0.0659  0.2184  0.5723
  291MOL0     N39200   6.629   6.279   1.069 -0.2340 -0.4351 -0.6109
  291MOL0     N39201   6.498   6.264   1.077 -0.2184 -0.3284  0.1079
  291MOL0     C39202   5.626   6.526   1.154  0.1045 -0.0109  0.9933
  291MOL0     C39203   5.669   6.653   1.131  0.9785 -0.2953  0.2474
  291MOL0     C39204   5.956   6.979   0.930 -0.5209  0.2872  0.0734
  291MOL0     C39205   5.925   7.100   0.994 -0.0284 -0.0311 -0.0540
  291MOL0     C39206   5.997   7.219   0.980 -0.4646  0.2844  0.5937
  291MOL0     C39207   6.125   7.216   0.920  0.5983 -0.6868 -0.2806
  291MOL0     O39208   6.204   7.330   0.912  0.7136 -0.0455 -0.9691
  291MOL0     C39209   6.296   7.331   0.805  0.2924  0.5752  0.0881
  291MOL0     C39210   6.323   7.461   0.751  0.5698  0.1303  0.2355
  291MOL0     C39211   6.438   7.470   0.648 -0.5897  0.2290  0.8850
  291MOL0     C39212   6.390   7.447   0.508  0.3408  0.3914 -0.5396
  291MOL0     C39213   6.493   7.459   0.409 -0.4415 -0.1837 -0.5131
  291MOL0     C39214   6.593   7.450   0.335 -0.2395 -0.3709 -0.5884
  291MOL0     C39215   6.165   7.090   0.873  0.7055  0.2777  0.4142
  291MOL0     C39216   6.085   6.978   0.875 -0.7545  0.0737  0.0269
  291MOL0     C39217   6.136   6.863   0.800 -0.2897  0.1855  0.0771
  291MOL0     H39218   5.985   6.607   1.001  0.9030 -1.7441  0.6104
  291MOL0     H39219   5.913   6.366   1.071  0.3493  1.2691 -2.4044
  291MOL0     H39220   5.544   6.326   1.331  0.1123  0.7765 -2.5733
  291MOL0     H39221   5.622   6.162   1.325  2.7640 -0.6980 -0.2715
  291MOL0     H39222   5.686   6.324   1.516  1.5509 -0.4685 -0.5270
  291MOL0     H39223   5.776   6.409   1.395 -0.3167  0.3174  0.3167
  291MOL0     H39224   5.894   6.165   1.357 -1.6837 -2.0054  0.4585
  291MOL0     H39225   5.819   6.127   1.503 -1.6174  1.6476 -1.3826
  291MOL0     H39226   5.926   6.372   1.577  0.7117  0.3067  0.9130
  291MOL0     H39227   6.016   6.226   1.598  4.3049  0.1415 -3.2807
  291MOL0     H39228   6.044   6.358   1.331  0.3955  2.3391  0.6715
  291MOL0     H39229   6.122   6.434   1.470 -0.1110 -0.0232 -0.1721
  291MOL0     H39230   6.217   6.176   1.495 -0.1203  0.8379 -0.5804
  291MOL0     H39231   6.177   6.165   1.329 -1.1984  0.6057 -1.2539
  291MOL0     H39232   6.420   6.230   1.388  0.9455  0.0841  1.3123
  291MOL0     H39233   6.349   6.378   1.451 -0.8458 -2.2964  0.0192
  291MOL0     H39234   6.256   6.302   1.174 -0.3412  0.7929 -0.1513
  291MOL0     H39235   6.296   6.464   1.224 -1.0500 -0.9659  0.8418
  291MOL0     H39236   6.559   6.520   1.276  1.2390 -0.2333 -0.2199
  291MOL0     H39237   6.815   6.529   1.184  0.8302 -0.6048  1.2424
  291MOL0     H39238   6.871   6.363   1.237  0.9063  1.1251 -0.2381
  291MOL0     H39239   7.001   6.424   1.040 -0.5567 -0.6260  2.0263
  291MOL0     H39240   6.877   6.311   0.981  1.4711 -0.6475 -0.1643
  291MOL0     H39241   6.733   6.491   0.921 -0.1281 -3.9561  3.1273
  291MOL0     H39242   6.851   6.452   0.805 -2.7221  2.0479 -1.3335
  291MOL0     H39243   6.871   6.694   0.976 -1.3858  0.4205 -1.4564
  291MOL0     H39244   6.867   6.677   0.794  1.5276 -1.9038 -2.7459
  291MOL0     H39245   7.238   6.608   0.718 -1.2164 -0.6287  0.3071
  291MOL0     H39246   7.390   6.799   0.649  0.9334 -1.4083  1.7091
  291MOL0     H39247   7.416   7.387   0.682  0.2999 -0.2476  1.3330
  291MOL0     H39248   7.647   7.496   0.625 -0.7309 -0.4926 -0.9830
  291MOL0     H39249   7.858   7.562   0.586 -3.1028 -0.3248  1.1631
  291MOL0     H39250   7.844   7.559   0.760  0.5387 -0.5741  0.4079
  291MOL0     H39251   8.096   7.472   0.607 -1.1344 -2.2833  0.7835
  291MOL0     H39252   8.071   7.645   0.650 -0.2404 -0.4886 -2.0305
  291MOL0     H39253   8.065   7.571   0.895  1.3782 -1.2391  1.6468
  291MOL0     H39254   8.116   7.409   0.827 -0.4978 -0.4374 -0.9200
  291MOL0     H39255   8.285   7.521   0.933  0.5747 -2.0525 -1.1612
  291MOL0     H39256   8.267   7.667   0.834 -2.1968  0.2287 -3.6680
  291MOL0     H39257   8.374   7.554   0.659 -1.4393 -1.0410 -2.3783
  291MOL0     H39258   8.288   7.407   0.682  0.8504  0.3027 -2.0633
  291MOL0     H39259   8.528   7.532   0.834  3.4824 -1.5030 -1.2301
  291MOL0     H39260   8.464   7.364   0.883  2.4983 -2.6406 -1.4919
  291MOL0     H39261   8.680   7.383   0.748 -1.0310 -2.9102  2.3906
  291MOL0     H39262   8.590   7.456   0.621  1.8917 -3.0319 -4.2945
  291MOL0     H39263   8.486   7.183   0.722 -0.8684  1.2743  0.9923
  291MOL0     H39264   8.461   7.254   0.562  0.6000  0.2509 -0.7600
  291MOL0     H39265   7.838   7.159   0.773  0.7156  2.0182 -0.0384
  291MOL0     H39266   7.615   7.074   0.860  0.1242  1.3260  4.0355
  291MOL0     H39267   7.188   7.061   0.913  0.5967 -0.1559  0.1571
  291MOL0     H39268   7.016   6.885   0.974 -2.2632  2.3483 -2.4736
  291MOL0     H39269   5.525   6.515   1.192 -1.7420  1.5267 -2.9113
  291MOL0     H39270   5.609   6.738   1.162 -1.6480 -1.6340 -0.8678
  291MOL0     H39271   5.837   7.102   1.057  0.4984  0.0846  0.6927
  291MOL0     H39272   5.965   7.304   1.039  1.1812  0.2697  1.5884
  291MOL0     H39273   6.245   7.275   0.725 -1.5428 -1.4011  2.4715
  291MOL0     H39274   6.390   7.278   0.822 -0.1770 -0.7668 -1.2171
  291MOL0     H39275   6.348   7.524   0.837 -0.6374 -2.1147  2.3809
  291MOL0     H39276   6.235   7.501   0.699  0.6366 -0.4917 -0.3748
  291MOL0     H39277   6.526   7.409   0.674  0.2017  1.9079  2.3994
  291MOL0     H39278   6.470   7.573   0.664  2.5530 -0.5220  0.2599
  291MOL0     H39279   6.346   7.347   0.503 -0.9556  0.9373 -0.4555
  291MOL0     H39280   6.316   7.527   0.496 -1.3180 -0.6756  1.8409
  291MOL0     H39281   6.675   7.422   0.272  0.6428 -3.6595  1.7809
  291MOL0     H39282   6.250   7.085   0.806 -0.1929  2.5409 -1.0230
  291MOL0     H39283   6.143   6.780   0.870  0.1735  2.0938  2.4221
  291MOL0     H39284   6.079   6.825   0.714  1.6401 -1.9089 -0.3528
  291MOL0     H39285   6.240   6.862   0.768  0.6139  0.8066  2.7563
  292MOL0     O39286   1.385   0.445   0.299 -0.1812  0.0120  0.2868
  292MOL0     C39287   1.387   0.540   0.381  0.1462 -0.1519 -0.5117
  292MOL0     O39288   1.399   0.669   0.340 -0.0096  0.0166 -0.2720
  292MOL0     C39289   1.328   0.718   0.229  0.3342  0.3561  0.4447
  292MOL0     C39290   1.225   0.647   0.167  0.4060  0.1948 -0.6182
  292MOL0     C39291   1.179   0.701   0.042  0.2521  0.7663  0.0079
  292MOL0     C39292   1.232   0.805  -0.024 -0.1247  0.4780 -0.5475
  292MOL0     O39293   1.178   0.868  -0.129  0.0618  0.7286 -0.4725
  292MOL0     C39294   1.238   0.832  -0.245 -0.2525 -1.2108  0.0728
  292MOL0     C39295   1.143   0.873  -0.356  0.0262 -0.4974 -0.3443
  292MOL0     C39296   1.198   0.888  -0.499 -0.2615  0.2262 -0.0459
  292MOL0     C39297   1.097   0.933  -0.610  0.0353  0.5750 -1.2003
  292MOL0     C39298   1.177   0.953  -0.738  0.8436  0.4333  0.5130
  292MOL0     C39299   1.088   0.937  -0.857 -0.1186 -0.6761 -0.3470
  292MOL0     C39300   0.967   1.050  -0.872 -1.4109  1.0558  0.1832
  292MOL0     C39301   0.878   1.017  -0.997  0.9371 -0.2270  0.3288
  292MOL0     N39302   0.957   1.038  -1.113 -0.0381  0.6468  0.3418
  292MOL0     C39303   0.968   0.951  -1.212  1.0165  1.2734  0.4089
  292MOL0     C39304   1.052   0.997  -1.309 -0.0216 -0.6664  0.5969
  292MOL0     C39305   1.098   0.927  -1.438  0.8630  0.1019 -0.4206
  292MOL0     C39306   1.003   0.953  -1.553  0.7029  0.4527 -0.3536
  292MOL0     C39307   1.050   0.897  -1.684 -0.2322  0.8541  0.9238
  292MOL0     C39308   0.983   0.956  -1.808  1.0076 -0.6429  0.5570
  292MOL0     O39309   0.993   0.867  -1.925  0.1096 -0.3442 -0.3049
  292MOL0     C39310   0.889   0.787  -1.958  0.6684 -1.4805  0.4798
  292MOL0     C39311   0.778   0.756  -1.874  0.2616 -0.0576  0.1586
  292MOL0     C39312   0.675   0.670  -1.899 -0.2583 -0.0896 -1.0201
  292MOL0     C39313   0.660   0.625  -2.029  0.6030 -0.2008  1.4487
  292MOL0     C39314   0.546   0.537  -2.063 -1.1245 -0.9469 -0.7444
  292MOL0     O39315   0.552   0.483  -2.195  0.1746  0.1063  0.2824
  292MOL0     C39316   0.441   0.407  -2.239 -0.2912  0.6824 -0.5215
  292MOL0     C39317   0.312   0.459  -2.234 -0.9422  0.3952  0.1988
  292MOL0     C39318   0.210   0.385  -2.297  0.1889  0.5471 -0.4747
  292MOL0     C39319   0.236   0.259  -2.365 -0.3753 -0.2587 -0.5820
  292MOL0     O39320   0.135   0.164  -2.410  0.0048 -0.1161 -0.7544
  292MOL0     C39321  -0.000   0.195  -2.433  0.1462 -0.5358 -0.0029
  292MOL0     C39322  -0.084   0.072  -2.406  0.2446 -0.6491  0.0157
  292MOL0     C39323  -0.134   0.019  -2.535 -1.2917  0.0205 -0.1543
  292MOL0     C39324  -0.261  -0.061  -2.532  0.0137  0.8631 -0.9353
  292MOL0     C39325  -0.270  -0.155  -2.657 -0.1963  0.1485 -0.8112
  292MOL0     C39326  -0.315  -0.077  -2.781  0.0066 -0.6687 -0.2452
  292MOL0     C39327  -0.324  -0.168  -2.896  0.2020  1.0180 -0.0455
  292MOL0     C39328  -0.319  -0.092  -3.029  0.6358  0.7085  0.3483
  292MOL0    Cl39329  -0.270  -0.205  -3.165 -0.2378  0.6709  0.5096
  292MOL0     C39330   0.367   0.223  -2.382 -0.0008  0.5593 -0.2455
  292MOL0     C39331   0.465   0.287  -2.313  0.0899 -0.5068 -0.2260
  292MOL0     O39332   0.467   0.495  -1.975  0.3167 -0.3106  0.2485
  292MOL0     C39333   0.764   0.662  -2.126 -0.3252 -1.3789  1.3515
  292MOL0     C39334   0.875   0.737  -2.083 -0.1214  0.2759  0.5065
  292MOL0     N39335   1.083   1.117  -1.253  0.1291  0.2651  0.7352
  292MOL0     N39336   1.027   1.144  -1.143 -0.3556  1.0449 -0.4064
  292MOL0     C39337   1.315   0.892   0.050 -0.0948 -0.4450 -0.1625
  292MOL0     C39338   1.366   0.840   0.171 -0.2986 -0.7615  0.0627
  292MOL0     C39339   1.371   0.509   0.527 -1.0836 -0.0870  0.3624
  292MOL0     C39340   1.365   0.616   0.615 -0.3774 -0.5280  0.1107
  292MOL0     C39341   1.371   0.593   0.753 -0.1403  0.3644 -0.2627
  292MOL0     C39342   1.360   0.467   0.810 -0.0126  0.5272 -0.5177
  292MOL0     O39343   1.360   0.435   0.954 -0.5620 -0.0658  0.2641
  292MOL0     C39344   1.351   0.533   1.048 -0.4972 -0.0121 -0.0850
  292MOL0     C39345   1.340   0.473   1.185  0.0342  0.0318  1.4999
  292MOL0     C39346   1.473   0.419   1.229 -0.5203 -0.2366  0.1953
  292MOL0     C39347   1.465   0.358   1.376  0.8490 -0.0293 -0.2012
  292MOL0     C39348   1.586   0.280   1.409  0.6530 -0.1139 -0.0266
  292MOL0     C39349   1.676   0.218   1.461  0.0488  0.5847 -0.9412
  292MOL0     C39350   1.357   0.358   0.725 -0.2418  0.2463  0.2211
  292MOL0     C39351   1.355   0.377   0.588 -0.6143  0.0432  0.9406
  292MOL0     C39352   1.319   0.251   0.502 -0.4044 -1.3424 -0.5291
  292MOL0     H39353   1.190   0.555   0.213  1.5091  0.0283 -0.0823
  292MOL0     H39354   1.089   0.654   0.005  0.2397 -0.0337  0.9854
  292MOL0     H39355   1.332   0.887  -0.248 -0.0809 -1.5211 -2.4471
  292MOL0     H39356   1.251   0.724  -0.253 -2.5593 -1.5179 -0.2575
  292MOL0     H39357   1.093   0.967  -0.330  0.8672  0.0202 -0.5710
  292MOL0     H39358   1.070   0.792  -0.354 -0.1295 -0.3474  0.2407
  292MOL0     H39359   1.242   0.793  -0.529  1.0233  0.0241  2.2782
  292MOL0     H39360   1.285   0.954  -0.493  0.6569 -1.0353  0.8036
  292MOL0     H39361   1.021   0.855  -0.616  1.1804 -0.8739  1.2601
  292MOL0     H39362   1.041   1.024  -0.586  1.6457  1.4294 -0.4572
  292MOL0     H39363   1.235   1.045  -0.730 -1.4536  1.9050  1.1262
  292MOL0     H39364   1.252   0.873  -0.746  0.0023 -0.2146 -1.4400
  292MOL0     H39365   1.152   0.957  -0.943 -1.4887  1.7578 -0.8917
  292MOL0     H39366   1.050   0.835  -0.864 -1.4302 -0.1722 -0.7651
  292MOL0     H39367   1.008   1.149  -0.851  3.3553 -0.6378  0.0505
  292MOL0     H39368   0.906   1.037  -0.781 -0.2960  1.6268  1.0354
  292MOL0     H39369   0.836   0.916  -0.995  0.7552 -0.1633 -0.1722
  292MOL0     H39370   0.789   1.080  -0.988 -0.6365 -2.4505  1.4357
  292MOL0     H39371   0.903   0.865  -1.226  2.0385  0.3342  1.2165
  292MOL0     H39372   1.201   0.958  -1.459  0.7036  0.6053 -0.4814
  292MOL0     H39373   1.101   0.819  -1.420 -2.3765  0.3095  2.3192
  292MOL0     H39374   0.903   0.913  -1.536 -0.4806  2.1786 -2.6134
  292MOL0     H39375   0.993   1.062  -1.562  1.5962  0.5611 -0.1526
  292MOL0     H39376   1.019   0.792  -1.691 -1.1092  1.0151  2.1041
  292MOL0     H39377   1.158   0.909  -1.697 -0.3448 -0.2813 -1.6718
  292MOL0     H39378   1.029   1.052  -1.834  0.6756 -0.8411 -0.8507
  292MOL0     H39379   0.879   0.960  -1.776  1.3141 -3.7096  2.2463
  292MOL0     H39380   0.774   0.795  -1.772 -1.2590  2.0743 -0.6341
  292MOL0     H39381   0.597   0.653  -1.825  1.5039 -0.9758  0.7319
  292MOL0     H39382   0.289   0.559  -2.198 -0.5093 -0.1455  2.0395
  292MOL0     H39383   0.109   0.424  -2.290  0.2380  0.4875  0.7771
  292MOL0     H39384  -0.024   0.277  -2.365  3.0929  0.6986 -0.3223
  292MOL0     H39385  -0.006   0.228  -2.537 -0.4886  0.9045  0.4745
  292MOL0     H39386  -0.036   0.007  -2.332 -1.0172  2.2221  3.7015
  292MOL0     H39387  -0.169   0.098  -2.342  1.1166 -1.1247  1.4068
  292MOL0     H39388  -0.151   0.102  -2.603 -1.1296  0.7728  0.7041
  292MOL0     H39389  -0.053  -0.047  -2.565  0.9022  0.9854  3.0733
  292MOL0     H39390  -0.344   0.010  -2.535  0.4694  2.0021  4.2660
  292MOL0     H39391  -0.278  -0.116  -2.439  0.3269  2.9038  0.3918
  292MOL0     H39392  -0.327  -0.248  -2.645  1.4702 -0.7814  0.4887
  292MOL0     H39393  -0.173  -0.202  -2.675 -1.2929 -1.9780 -1.5203
  292MOL0     H39394  -0.408  -0.018  -2.779  1.5661  1.9606  2.5424
  292MOL0     H39395  -0.243   0.002  -2.804 -2.6515  1.8548 -0.5309
  292MOL0     H39396  -0.424  -0.210  -2.907  0.6918 -0.3793  0.5171
  292MOL0     H39397  -0.256  -0.254  -2.895 -2.6259 -1.3783  0.0047
  292MOL0     H39398  -0.412  -0.040  -3.052 -0.6388  0.2765  3.9074
  292MOL0     H39399  -0.238  -0.018  -3.026  1.3769  0.1072 -1.9996
  292MOL0     H39400   0.394   0.131  -2.432 -1.2150 -0.2566  0.5522
  292MOL0     H39401   0.569   0.258  -2.328  0.7105  1.7245 -0.5251
  292MOL0     H39402   0.769   0.625  -2.228 -0.7162  1.0625  0.3860
  292MOL0     H39403   0.952   0.770  -2.152  0.0017  0.6871  0.8400
  292MOL0     H39404   1.339   0.994   0.021  0.2703  0.6442  3.4712
  292MOL0     H39405   1.454   0.891   0.210 -0.7580 -1.3056  1.9055
  292MOL0     H39406   1.371   0.715   0.570 -1.6946 -0.2757  0.4498
  292MOL0     H39407   1.392   0.681   0.814  0.0569  0.4731 -0.4860
  292MOL0     H39408   1.265   0.597   1.027 -1.2772 -1.1014 -0.3015
  292MOL0     H39409   1.441   0.596   1.043  0.5647 -1.5013 -4.8071
  292MOL0     H39410   1.266   0.393   1.175 -0.9511  1.2309 -3.0138
  292MOL0     H39411   1.298   0.543   1.257 -2.1422 -1.4184  1.7482
  292MOL0     H39412   1.541   0.504   1.233 -1.1329  0.3836 -1.5907
  292MOL0     H39413   1.517   0.339   1.169  0.8708  1.1495 -0.6882
  292MOL0     H39414   1.467   0.437   1.452  0.7114  2.0188 -2.2100
  292MOL0     H39415   1.373   0.299   1.381  1.5085 -1.1616 -0.8286
  292MOL0     H39416   1.758   0.171   1.510  2.0611  2.8933 -1.8977
  292MOL0     H39417   1.354   0.262   0.775 -1.3845  0.5102  0.6882
  292MOL0     H39418   1.405   0.208   0.451  1.8881  0.7375  1.3027
  292MOL0     H39419   1.265   0.182   0.568  2.3522 -0.0844  3.4043
  292MOL0     H39420   1.238   0.295   0.443 -1.0568  1.1969  2.0030
  293MOL0     O39421   3.865   4.110   4.049 -0.0546 -0.6886 -0.7088
  293MOL0     C39422   3.834   4.048   4.150 -0.1105  0.1896  0.4076
  293MOL0     O39423   3.875   4.076   4.273  0.2953 -0.0362  0.1147
  293MOL0     C39424   4.001   4.122   4.307 -0.9158  0.0134 -0.1901
  293MOL0     C39425   4.020   4.200   4.424 -0.8235  0.7640  0.6936
  293MOL0     C39426   4.141   4.251   4.464  0.4065 -1.0258 -0.6971
  293MOL0     C39427   4.242   4.249   4.380  0.5107 -0.5065  0.3760
  293MOL0     O39428   4.351   4.325   4.405  0.3444  0.6195  0.3765
  293MOL0     C39429   4.481   4.251   4.428  0.7027 -0.1943  0.2896
  293MOL0     C39430   4.501   4.226   4.575 -0.3112  0.0777 -0.8502
  293MOL0     C39431   4.503   4.353   4.664  0.2183  0.4491  0.6113
  293MOL0     C39432   4.553   4.320   4.817  0.2120  0.1060 -0.0628
  293MOL0     C39433   4.499   4.420   4.908 -0.2902  0.4223  0.1203
  293MOL0     C39434   4.571   4.412   5.046 -0.5809 -0.4352  0.3211
  293MOL0     C39435   4.705   4.496   5.051  2.0719  0.5784  0.0730
  293MOL0     C39436   4.755   4.508   5.191 -0.2911 -0.0226  0.4344
  293MOL0     N39437   4.794   4.375   5.239 -1.2584 -0.3921  0.1716
  293MOL0     C39438   4.727   4.302   5.334  0.4309  0.3150 -0.1177
  293MOL0     C39439   4.797   4.186   5.339 -0.6099 -0.8663  0.5421
  293MOL0     C39440   4.791   4.077   5.439  0.2925 -0.4370 -0.1539
  293MOL0     C39441   4.667   4.101   5.527  0.1456  0.7271 -0.0186
  293MOL0     C39442   4.666   3.984   5.630 -0.2413  0.4398 -0.7043
  293MOL0     C39443   4.741   4.005   5.756 -0.0981  0.0121  0.1968
  293MOL0     O39444   4.700   4.120   5.839  0.0524  0.0390  0.7360
  293MOL0     C39445   4.581   4.118   5.896  1.0294 -0.5388 -0.1484
  293MOL0     C39446   4.529   4.242   5.938 -0.1908 -0.1406 -0.4402
  293MOL0     C39447   4.410   4.248   5.997 -0.7105  0.7163 -0.7337
  293MOL0     C39448   4.328   4.134   6.010  0.3930  0.3731 -0.1557
  293MOL0     C39449   4.191   4.146   6.065 -0.3916  0.6543 -0.7823
  293MOL0     O39450   4.134   4.023   6.086  0.1640 -0.4648 -0.0450
  293MOL0     C39451   4.000   3.995   6.076  0.5757  0.2949 -0.7938
  293MOL0     C39452   3.941   3.939   5.961 -0.4730  0.4892 -0.2270
  293MOL0     C39453   3.805   3.924   5.939 -0.1860 -0.2193  0.3085
  293MOL0     C39454   3.718   3.959   6.049  0.0866  0.5994 -0.6153
  293MOL0     O39455   3.579   3.966   6.035  0.2012  0.6470 -0.7677
  293MOL0     C39456   3.522   3.897   5.924 -0.6044 -0.4725  0.0093
  293MOL0     C39457   3.366   3.921   5.917 -1.0759  0.5256 -0.3686
  293MOL0     C39458   3.316   3.828   5.805  0.3156 -0.3758 -0.3282
  293MOL0     C39459   3.174   3.848   5.739 -0.0770 -0.4827  0.0850
  293MOL0     C39460   3.148   3.749   5.626  0.0871  0.0269  1.0690
  293MOL0     C39461   3.133   3.601   5.683  0.0244 -0.5979  0.3824
  293MOL0     C39462   3.155   3.497   5.575 -1.1185  0.2066  0.2734
  293MOL0     C39463   3.139   3.349   5.621 -0.7492 -0.0767 -0.0980
  293MOL0    Cl39464   3.176   3.223   5.502 -0.2718  0.4932  0.6319
  293MOL0     C39465   3.773   4.004   6.171 -0.0132  0.0305 -0.3093
  293MOL0     C39466   3.910   4.026   6.188 -0.4154  0.6342  0.4896
  293MOL0     O39467   4.134   4.253   6.070 -0.5111 -0.4531 -0.1814
  293MOL0     C39468   4.381   4.011   5.978 -0.2489  0.1222 -0.2901
  293MOL0     C39469   4.509   4.002   5.920 -0.1359  1.4284 -0.8142
  293MOL0     N39470   4.891   4.183   5.235  0.1411  0.3291  0.2851
  293MOL0     N39471   4.898   4.305   5.191 -0.3157 -0.8463  0.2335
  293MOL0     C39472   4.242   4.166   4.265 -0.6059  0.1716 -0.6782
  293MOL0     C39473   4.117   4.111   4.226 -0.4258  0.2352 -0.1635
  293MOL0     C39474   3.742   3.934   4.130  0.9593  1.2631 -0.0572
  293MOL0     C39475   3.695   3.863   4.241  0.2569  1.0564  0.1039
  293MOL0     C39476   3.608   3.751   4.229  0.3065 -0.9743 -0.5580
  293MOL0     C39477   3.562   3.711   4.100  0.4301 -0.3694 -0.0915
  293MOL0     O39478   3.461   3.627   4.076 -0.0957 -0.5731 -0.5549
  293MOL0     C39479   3.445   3.521   4.166  1.0599 -0.0011 -0.0104
  293MOL0     C39480   3.293   3.490   4.167 -0.8169 -0.3093 -0.4901
  293MOL0     C39481   3.217   3.604   4.244 -0.2125  0.9010 -0.2132
  293MOL0     C39482   3.075   3.553   4.225 -0.7711  0.3988  0.4234
  293MOL0     C39483   2.990   3.643   4.304  0.2165 -0.3069 -0.2163
  293MOL0     C39484   2.917   3.730   4.353  0.4268  0.8676  0.0811
  293MOL0     C39485   3.614   3.772   3.991  0.9298 -0.4898 -0.2085
  293MOL0     C39486   3.695   3.880   4.003  0.3092 -1.0407 -1.5870
  293MOL0     C39487   3.735   3.941   3.877 -0.3331 -1.1353 -0.2498
  293MOL0     H39488   3.945   4.206   4.502 -0.8346 -0.6794  0.8236
  293MOL0     H39489   4.154   4.305   4.557  0.4987  0.8440 -1.7310
  293MOL0     H39490   4.486   4.152   4.383  3.7506 -1.1017  2.3243
  293MOL0     H39491   4.555   4.315   4.381 -0.6821  0.7762 -0.6446
  293MOL0     H39492   4.589   4.165   4.599 -2.4014 -2.8397 -0.0117
  293MOL0     H39493   4.419   4.159   4.600  0.7726 -1.6798 -1.7640
  293MOL0     H39494   4.399   4.388   4.660  0.4787  1.1177 -2.0146
  293MOL0     H39495   4.562   4.437   4.627 -0.1578  0.4697  0.0373
  293MOL0     H39496   4.517   4.225   4.857 -2.2954  0.3097 -1.6074
  293MOL0     H39497   4.661   4.331   4.825 -0.0212  2.4397  0.7030
  293MOL0     H39498   4.522   4.520   4.869  2.2036 -0.3345 -0.5679
  293MOL0     H39499   4.393   4.409   4.930 -0.6976 -0.2189 -1.9464
  293MOL0     H39500   4.496   4.463   5.108 -1.7892 -0.4301 -1.1026
  293MOL0     H39501   4.581   4.308   5.079 -0.9578  0.0911  2.2393
  293MOL0     H39502   4.666   4.593   5.020  2.2387  0.9365  0.9770
  293MOL0     H39503   4.778   4.451   4.982  1.3962 -1.4257  0.5917
  293MOL0     H39504   4.843   4.574   5.187  0.1047 -0.5851 -1.3243
  293MOL0     H39505   4.687   4.555   5.262  1.6065  4.3826 -0.3211
  293MOL0     H39506   4.643   4.326   5.399 -0.9364  2.4191 -2.4936
  293MOL0     H39507   4.782   3.979   5.392 -2.0030 -0.3097 -0.0841
  293MOL0     H39508   4.880   4.068   5.501  0.5028 -3.1672 -0.7153
  293MOL0     H39509   4.665   4.202   5.569 -1.3731  1.2725 -1.2974
  293MOL0     H39510   4.580   4.087   5.462 -0.6058 -2.0165  1.4126
  293MOL0     H39511   4.711   3.905   5.570  2.6793  1.4808 -0.0970
  293MOL0     H39512   4.565   3.954   5.658  0.4520 -1.5764 -0.2375
  293MOL0     H39513   4.839   4.039   5.720 -0.3191 -2.4772 -3.3312
  293MOL0     H39514   4.743   3.915   5.816  0.7443 -1.9361 -2.5525
  293MOL0     H39515   4.583   4.336   5.931 -2.5845  1.4620  1.1830
  293MOL0     H39516   4.385   4.347   6.032  0.3951  0.8178 -0.2023
  293MOL0     H39517   4.016   3.904   5.892 -0.7968 -0.1071 -0.2881
  293MOL0     H39518   3.779   3.868   5.849  0.5583 -0.0227 -0.0354
  293MOL0     H39519   3.556   3.941   5.829  0.1926  0.6917  0.8135
  293MOL0     H39520   3.550   3.792   5.925  1.6955  0.0903 -0.0664
  293MOL0     H39521   3.315   3.888   6.008 -1.2095  2.1382  0.1887
  293MOL0     H39522   3.347   4.028   5.901  0.6762  0.4834 -3.3298
  293MOL0     H39523   3.383   3.858   5.724  0.3924 -1.6568 -0.7728
  293MOL0     H39524   3.351   3.725   5.823  3.3133  0.0932 -2.5218
  293MOL0     H39525   3.177   3.949   5.697  1.3994  0.3515  2.0273
  293MOL0     H39526   3.090   3.833   5.809 -0.1064  0.8334  0.3644
  293MOL0     H39527   3.236   3.743   5.561  0.8206  5.7988  1.0020
  293MOL0     H39528   3.067   3.784   5.561 -0.5219  1.6831  2.6033
  293MOL0     H39529   3.203   3.591   5.766  1.2003  1.0062 -0.3573
  293MOL0     H39530   3.031   3.597   5.721 -0.6768  1.4958 -1.0653
  293MOL0     H39531   3.260   3.505   5.544  0.8272 -1.7798  5.1879
  293MOL0     H39532   3.083   3.512   5.495 -2.0593 -2.3781  0.5233
  293MOL0     H39533   3.226   3.335   5.686 -1.4600 -1.6179  0.5633
  293MOL0     H39534   3.042   3.326   5.664 -0.2842 -1.7770  0.1276
  293MOL0     H39535   3.707   4.011   6.257 -0.2350  1.7569 -0.5788
  293MOL0     H39536   3.952   4.040   6.287  1.4654  1.2626 -0.3607
  293MOL0     H39537   4.328   3.918   5.998  1.4429 -0.9964 -0.7785
  293MOL0     H39538   4.553   3.903   5.906  4.3737  2.8832  1.1779
  293MOL0     H39539   4.332   4.177   4.206 -0.3049  0.8518 -0.1077
  293MOL0     H39540   4.103   4.044   4.142  0.7727 -2.4799  1.6834
  293MOL0     H39541   3.720   3.886   4.344 -1.4472  2.9327  0.1590
  293MOL0     H39542   3.569   3.721   4.326  3.8654 -0.0349  1.3440
  293MOL0     H39543   3.489   3.527   4.266  2.1180  1.4098 -0.5299
  293MOL0     H39544   3.511   3.447   4.120  3.5541  0.9685  1.8119
  293MOL0     H39545   3.294   3.394   4.219  0.2531 -0.0242  0.0394
  293MOL0     H39546   3.259   3.491   4.063 -2.0104 -0.5614 -0.1250
  293MOL0     H39547   3.227   3.705   4.205 -0.0896  0.6077 -0.9539
  293MOL0     H39548   3.252   3.591   4.347  0.1854  2.4260 -0.1437
  293MOL0     H39549   3.055   3.568   4.119 -0.4240 -3.2612 -0.2820
  293MOL0     H39550   3.059   3.446   4.241  0.2500 -0.0667 -1.3616
  293MOL0     H39551   2.844   3.798   4.394  0.1361  0.0918  0.8981
  293MOL0     H39552   3.583   3.731   3.896 -3.8809  3.6159 -0.9008
  293MOL0     H39553   3.677   4.029   3.850 -3.3039 -2.9268 -0.2292
  293MOL0     H39554   3.841   3.968   3.874  0.2363 -2.3043  3.6147
  293MOL0     H39555   3.721   3.875   3.790 -2.2096  2.6043 -3.0482
  294MOL0     O39556   2.379   4.314   5.668 -0.2611 -0.4421  0.8950
  294MOL0     C39557   2.493   4.352   5.649 -1.1021 -0.5448 -0.3989
  294MOL0     O39558   2.589   4.288   5.575 -0.0676 -0.3475 -0.3135
  294MOL0     C39559   2.551   4.186   5.478  0.4799  0.1176 -0.1068
  294MOL0     C39560   2.421   4.162   5.421 -0.0589  0.2740  0.3904
  294MOL0     C39561   2.412   4.066   5.320  0.0558 -0.3003  0.6684
  294MOL0     C39562   2.529   3.997   5.275  0.1505  0.8363 -0.5071
  294MOL0     O39563   2.522   3.906   5.174 -0.6883  1.0648 -0.0817
  294MOL0     C39564   2.558   3.772   5.192 -0.4525  0.7093  0.6191
  294MOL0     C39565   2.587   3.735   5.042 -0.3251 -0.1993  0.4740
  294MOL0     C39566   2.627   3.591   5.027 -0.3785 -0.5665 -0.4923
  294MOL0     C39567   2.765   3.564   5.092 -0.9256  0.7004  0.1567
  294MOL0     C39568   2.891   3.620   5.021 -0.1114  0.0100 -0.5691
  294MOL0     C39569   2.918   3.562   4.884  0.3901 -0.6572 -0.2748
  294MOL0     C39570   3.034   3.632   4.806 -0.4393 -0.8360  0.3171
  294MOL0     C39571   3.039   3.594   4.654  0.4780 -0.5298 -0.0789
  294MOL0     N39572   3.080   3.459   4.630  0.4351  0.3629 -0.1038
  294MOL0     C39573   3.194   3.400   4.677 -1.0098  0.5424  0.7678
  294MOL0     C39574   3.218   3.293   4.593 -0.9120  0.4645 -1.1560
  294MOL0     C39575   3.351   3.218   4.606 -0.0981  0.5325  0.3590
  294MOL0     C39576   3.440   3.252   4.491  0.5316 -0.2956 -0.1837
  294MOL0     C39577   3.564   3.159   4.481  0.2608  0.2730  0.2910
  294MOL0     C39578   3.650   3.204   4.368 -0.3681 -0.4810 -0.9849
  294MOL0     O39579   3.737   3.316   4.406 -0.6652  0.0522 -0.1890
  294MOL0     C39580   3.793   3.400   4.312 -0.0307  0.1974 -1.2998
  294MOL0     C39581   3.827   3.526   4.351  0.0657 -0.7707 -0.1270
  294MOL0     C39582   3.897   3.602   4.256  0.3348 -0.5334  0.7444
  294MOL0     C39583   3.941   3.553   4.133 -0.5672 -0.6663 -0.2472
  294MOL0     C39584   4.027   3.638   4.042 -0.3007  0.0102 -0.3890
  294MOL0     O39585   4.105   3.731   4.100 -0.0537 -0.2074 -0.7402
  294MOL0     C39586   4.198   3.793   4.029 -0.1327 -0.3886 -0.0285
  294MOL0     C39587   4.327   3.743   4.028  1.1434 -0.5954 -0.0329
  294MOL0     C39588   4.427   3.814   3.953 -0.0888  0.9788  0.0243
  294MOL0     C39589   4.398   3.911   3.865 -1.2177 -1.5595 -0.0445
  294MOL0     O39590   4.478   3.944   3.757  0.2969 -0.1821 -0.0428
  294MOL0     C39591   4.475   4.078   3.704 -0.6128  0.1335 -1.5411
  294MOL0     C39592   4.505   4.174   3.828 -0.9682  1.3228 -0.2474
  294MOL0     C39593   4.449   4.313   3.806 -0.2048  0.6354  0.1715
  294MOL0     C39594   4.526   4.424   3.875  1.2920 -0.2866  0.4597
  294MOL0     C39595   4.650   4.496   3.813  0.0492 -0.5918 -1.2564
  294MOL0     C39596   4.630   4.604   3.702 -0.5376  0.0128 -0.9699
  294MOL0     C39597   4.777   4.669   3.666 -0.0413  0.2802  1.3669
  294MOL0     C39598   4.816   4.769   3.778  0.6011 -0.1213 -0.4371
  294MOL0    Cl39599   4.921   4.883   3.691 -0.0499  0.2238  0.3412
  294MOL0     C39600   4.264   3.960   3.860  0.0116 -0.6439  0.2293
  294MOL0     C39601   4.172   3.906   3.947 -0.0152 -0.7546 -0.2099
  294MOL0     O39602   4.038   3.606   3.925  0.6160  0.8912 -0.2799
  294MOL0     C39603   3.903   3.421   4.103  0.1872 -0.6230 -1.0444
  294MOL0     C39604   3.830   3.346   4.187  0.9480 -0.8845  0.0092
  294MOL0     N39605   3.119   3.286   4.495  0.1039  1.1237  0.2051
  294MOL0     N39606   3.034   3.389   4.522 -0.3351  0.9541  0.0094
  294MOL0     C39607   2.651   4.012   5.341  0.1229  0.0046  0.1892
  294MOL0     C39608   2.661   4.116   5.437 -0.6231  1.1116 -1.1030
  294MOL0     C39609   2.530   4.489   5.706 -0.3784 -0.1228  0.0505
  294MOL0     C39610   2.488   4.530   5.833  0.8919  0.3677  0.3195
  294MOL0     C39611   2.514   4.661   5.889 -0.1787 -0.0346  0.7126
  294MOL0     C39612   2.600   4.749   5.826 -0.4420  0.3480  0.2286
  294MOL0     O39613   2.646   4.862   5.882 -0.0473  0.2407  0.9255
  294MOL0     C39614   2.595   4.904   6.006 -0.5008 -0.9404  0.3457
  294MOL0     C39615   2.699   5.010   6.055 -0.3085 -0.3166 -0.5301
  294MOL0     C39616   2.849   4.941   6.071  0.8219 -0.1883  0.4956
  294MOL0     C39617   2.892   4.916   6.213 -0.1439  0.2384  0.8559
  294MOL0     C39618   2.997   4.811   6.224 -0.0711  0.2647  0.0597
  294MOL0     C39619   3.090   4.737   6.229 -0.2013  0.2737 -0.1674
  294MOL0     C39620   2.651   4.708   5.699  0.0064 -0.1275  0.2275
  294MOL0     C39621   2.624   4.579   5.641  0.2523  0.0495  0.5446
  294MOL0     C39622   2.682   4.562   5.507 -0.1561  1.2620  0.2311
  294MOL0     H39623   2.333   4.209   5.464 -2.2068 -2.0753 -1.1139
  294MOL0     H39624   2.321   4.073   5.262 -1.3167 -1.7841  2.5146
  294MOL0     H39625   2.649   3.746   5.248 -0.6288 -2.2919 -0.2895
  294MOL0     H39626   2.474   3.713   5.229 -0.3342  1.6464  2.4985
  294MOL0     H39627   2.672   3.795   5.005  0.2709 -0.5602  1.2295
  294MOL0     H39628   2.495   3.759   4.987 -0.0554  1.6004  0.7331
  294MOL0     H39629   2.626   3.560   4.922  1.7021 -0.6736 -0.5292
  294MOL0     H39630   2.556   3.529   5.084  1.8525 -2.5148  0.3625
  294MOL0     H39631   2.773   3.603   5.194  0.0531 -1.9157  1.1642
  294MOL0     H39632   2.787   3.457   5.101 -0.0923  0.3001 -4.4887
  294MOL0     H39633   2.861   3.725   5.018 -3.3696 -0.6907  2.0514
  294MOL0     H39634   2.981   3.611   5.083  1.0119 -3.0574 -2.4405
  294MOL0     H39635   2.944   3.455   4.885  1.4474 -0.4104  0.2620
  294MOL0     H39636   2.836   3.581   4.814  0.0266 -0.1175  0.2940
  294MOL0     H39637   3.129   3.619   4.858 -0.6047 -3.9716  0.0352
  294MOL0     H39638   3.008   3.738   4.800 -0.7070 -0.9610 -1.2385
  294MOL0     H39639   2.940   3.605   4.608 -0.8424 -1.4967  2.3694
  294MOL0     H39640   3.107   3.659   4.598  0.8697 -1.5386 -0.8018
  294MOL0     H39641   3.266   3.433   4.752 -0.3593 -4.3872  2.7177
  294MOL0     H39642   3.397   3.247   4.701  2.3230  0.6668 -0.7834
  294MOL0     H39643   3.342   3.110   4.615 -1.4504  0.7769  3.0338
  294MOL0     H39644   3.387   3.238   4.396 -0.1328  0.1354  0.1124
  294MOL0     H39645   3.463   3.359   4.489  0.2295 -0.2335 -1.3022
  294MOL0     H39646   3.543   3.052   4.476 -1.4745  0.5572  0.6798
  294MOL0     H39647   3.618   3.178   4.574 -3.2201  0.0167  2.5839
  294MOL0     H39648   3.588   3.229   4.281 -2.3904 -3.1065 -0.4083
  294MOL0     H39649   3.722   3.125   4.344 -0.1654 -0.4101 -0.6104
  294MOL0     H39650   3.803   3.560   4.452 -0.9760  2.5932 -1.3605
  294MOL0     H39651   3.913   3.704   4.290 -2.9334 -0.6268  3.0235
  294MOL0     H39652   4.360   3.656   4.083  2.8887 -0.4078 -0.7053
  294MOL0     H39653   4.527   3.772   3.944  0.6543  2.4774  0.9110
  294MOL0     H39654   4.542   4.100   3.621 -1.5479  0.5282 -2.2060
  294MOL0     H39655   4.383   4.107   3.654 -0.3916 -3.6726 -4.6590
  294MOL0     H39656   4.476   4.135   3.926  2.2470 -0.3854  0.1969
  294MOL0     H39657   4.614   4.178   3.843 -0.7298 -0.3147 -1.2919
  294MOL0     H39658   4.437   4.345   3.702  1.6865  2.8089  0.5243
  294MOL0     H39659   4.350   4.324   3.851 -0.6418  1.4882 -0.9600
  294MOL0     H39660   4.547   4.392   3.977 -3.6113 -0.3719  1.6870
  294MOL0     H39661   4.446   4.497   3.890  0.6968 -1.1572  1.6983
  294MOL0     H39662   4.705   4.420   3.757 -0.0403 -2.3763  0.9360
  294MOL0     H39663   4.710   4.547   3.889 -1.5297 -0.1865 -0.2359
  294MOL0     H39664   4.581   4.556   3.618 -0.7515 -0.2818 -0.6813
  294MOL0     H39665   4.560   4.682   3.734  1.2949  0.7458  1.6282
  294MOL0     H39666   4.763   4.729   3.576 -0.7751 -0.1395  1.1905
  294MOL0     H39667   4.849   4.588   3.650 -0.3555  0.0588  1.0746
  294MOL0     H39668   4.727   4.806   3.829 -1.1539 -3.0168 -1.1760
  294MOL0     H39669   4.880   4.715   3.848 -0.6545  0.6627  1.3851
  294MOL0     H39670   4.223   4.027   3.786  2.2448  0.3968 -0.1335
  294MOL0     H39671   4.068   3.937   3.938 -0.2650 -0.5504  2.4720
  294MOL0     H39672   3.939   3.392   4.005  0.0449  1.6393 -1.8285
  294MOL0     H39673   3.805   3.245   4.155 -1.6544  0.2478 -1.9157
  294MOL0     H39674   2.742   3.958   5.314  0.3207  0.8811 -0.9720
  294MOL0     H39675   2.759   4.147   5.472 -0.6478 -2.2916  2.7557
  294MOL0     H39676   2.409   4.474   5.882 -0.3475  1.4620 -0.3531
  294MOL0     H39677   2.459   4.669   5.982  2.1147 -0.7209  2.1954
  294MOL0     H39678   2.597   4.826   6.084  4.0086 -0.5664  0.8799
  294MOL0     H39679   2.496   4.950   6.004 -3.3127 -6.1335  1.7426
  294MOL0     H39680   2.669   5.031   6.158  6.1164  0.5200  1.6141
  294MOL0     H39681   2.706   5.106   6.004  1.5721 -1.3752 -2.4875
  294MOL0     H39682   2.923   5.001   6.017 -0.5005 -1.5259 -3.0871
  294MOL0     H39683   2.866   4.851   6.010 -1.2834 -0.9173  0.9021
  294MOL0     H39684   2.918   5.015   6.251 -3.1000 -0.1283  4.4054
  294MOL0     H39685   2.809   4.884   6.277 -1.1835  1.2864  0.0645
  294MOL0     H39686   3.181   4.686   6.254  2.2085  4.6212  1.1128
  294MOL0     H39687   2.708   4.787   5.650 -2.0552  1.9569  1.0099
  294MOL0     H39688   2.754   4.479   5.502  0.7059  1.9406  0.9786
  294MOL0     H39689   2.605   4.546   5.431 -0.0829  0.2734  0.3469
  294MOL0     H39690   2.747   4.639   5.463 -0.6936  0.6261 -1.8086
  295MOL0     O39691  11.371   5.416   9.502 -0.0259  0.0009  0.1795
  295MOL0     C39692  11.273   5.349   9.465  0.7957 -0.6177 -0.1472
  295MOL0     O39693  11.261   5.284   9.343  0.2194  0.2145  0.2149
  295MOL0     C39694  11.365   5.295   9.245 -0.2775 -0.2691 -0.7658
  295MOL0     C39695  11.507   5.315   9.262 -0.5415  0.7423  0.9268
  295MOL0     C39696  11.597   5.308   9.149  0.5358 -0.4179 -0.8276
  295MOL0     C39697  11.549   5.294   9.017 -0.6440  0.3498  0.9583
  295MOL0     O39698  11.627   5.289   8.900  0.1680 -0.3043 -0.4003
  295MOL0     C39699  11.770   5.260   8.911  0.8225 -0.3478  0.3601
  295MOL0     C39700  11.853   5.391   8.934 -0.1553  0.7828  0.4049
  295MOL0     C39701  12.002   5.356   8.918  0.2977 -0.1426 -0.1473
  295MOL0     C39702  12.099   5.480   8.951  0.0124  1.7243 -0.4459
  295MOL0     C39703  12.250   5.439   8.952  0.1474 -0.3814 -0.8718
  295MOL0     C39704  12.306   5.395   8.821 -1.1094  0.2865 -1.0788
  295MOL0     C39705  12.460   5.351   8.827  0.9234  0.2784 -1.1390
  295MOL0     C39706  12.559   5.470   8.828 -0.4784  0.2255  0.7488
  295MOL0     N39707  12.688   5.429   8.873  0.6646 -0.9267 -0.4618
  295MOL0     C39708  12.772   5.377   8.785 -1.7087  0.4094  0.1824
  295MOL0     C39709  12.894   5.370   8.853  0.0512  0.5561 -0.1265
  295MOL0     C39710  13.038   5.342   8.807  1.2661  0.9367 -0.0462
  295MOL0     C39711  13.082   5.462   8.738  0.3689 -0.4742 -0.1238
  295MOL0     C39712  13.199   5.435   8.634  0.3557 -1.5845  0.3332
  295MOL0     C39713  13.321   5.414   8.710 -0.3004  0.3836 -1.2309
  295MOL0     O39714  13.358   5.512   8.796  0.4824  0.6379 -0.3368
  295MOL0     C39715  13.440   5.616   8.760  0.9158  0.8274 -0.3274
  295MOL0     C39716  13.491   5.697   8.856  0.1003 -0.5124 -1.1889
  295MOL0     C39717  13.565   5.804   8.824 -1.4929 -0.7351 -0.3059
  295MOL0     C39718  13.584   5.832   8.687  0.4310  0.0728 -0.5580
  295MOL0     C39719  13.658   5.965   8.657  0.5850 -0.0308  0.7405
  295MOL0     O39720  13.618   6.036   8.546  0.3282  0.5672  0.1877
  295MOL0     C39721  13.711   6.130   8.503 -0.2880  0.0825 -0.7130
  295MOL0     C39722  13.853   6.113   8.487  0.5838 -0.5550  0.1323
  295MOL0     C39723  13.924   6.210   8.419  0.6429 -1.3055  0.3410
  295MOL0     C39724  13.864   6.335   8.394  0.4443  0.2814  0.4067
  295MOL0     O39725  13.942   6.427   8.335 -0.3329 -0.1972  0.5903
  295MOL0     C39726  13.975   6.549   8.400  0.3499 -0.0976 -0.7985
  295MOL0     C39727  14.015   6.665   8.306 -0.2792  0.4980  0.6156
  295MOL0     C39728  14.039   6.791   8.387  0.0832 -0.5451  0.1731
  295MOL0     C39729  14.183   6.847   8.352 -0.5594 -0.3978 -0.6572
  295MOL0     C39730  14.233   6.941   8.469 -0.2266  0.1320 -0.3140
  295MOL0     C39731  14.258   6.867   8.603  0.0954  0.5755  0.8782
  295MOL0     C39732  14.337   6.733   8.589 -0.6255  0.0616  0.3041
  295MOL0     C39733  14.390   6.677   8.720  0.1352 -0.4366 -0.7073
  295MOL0    Cl39734  14.265   6.572   8.777 -0.0205  0.3206  0.0409
  295MOL0     C39735  13.727   6.352   8.405 -0.5032 -0.1538 -0.0757
  295MOL0     C39736  13.644   6.244   8.445 -0.5304 -0.2950  1.2846
  295MOL0     O39737  13.740   6.002   8.744 -0.3813  0.4631 -1.1299
  295MOL0     C39738  13.532   5.761   8.587  0.3628 -0.4642  0.0860
  295MOL0     C39739  13.458   5.645   8.620 -0.0829  0.0692 -0.0681
  295MOL0     N39740  12.868   5.395   8.982  0.2844  0.3413 -0.1018
  295MOL0     N39741  12.746   5.439   8.998 -0.1852 -0.4099 -0.5339
  295MOL0     C39742  11.409   5.286   9.002  0.6144 -0.4968  0.7042
  295MOL0     C39743  11.318   5.286   9.109 -0.4203 -0.1512  0.3175
  295MOL0     C39744  11.163   5.333   9.560  0.4524  0.6521  0.2351
  295MOL0     C39745  11.058   5.248   9.519  0.2030  0.5986  0.2831
  295MOL0     C39746  10.941   5.236   9.596 -0.3120 -0.2949  0.4721
  295MOL0     C39747  10.917   5.308   9.712 -0.2909 -0.6306 -0.1037
  295MOL0     O39748  10.808   5.275   9.785  0.2714 -0.2317 -0.2323
  295MOL0     C39749  10.821   5.279   9.932  0.0359 -0.0807 -0.0095
  295MOL0     C39750  10.694   5.206   9.983 -0.0762  0.5554 -0.9662
  295MOL0     C39751  10.658   5.241  10.128  0.1849 -0.8180  0.1507
  295MOL0     C39752  10.773   5.201  10.231  0.1359 -0.1803  0.0149
  295MOL0     C39753  10.781   5.052  10.245  0.3643  0.4224  0.3335
  295MOL0     C39754  10.798   4.939  10.255  0.6603 -0.2588  0.2016
  295MOL0     C39755  11.022   5.390   9.755  0.0187 -0.3804 -0.4594
  295MOL0     C39756  11.144   5.412   9.682  1.5602 -0.0919 -0.2232
  295MOL0     C39757  11.243   5.509   9.744  0.4724 -0.2088  0.3379
  295MOL0     H39758  11.548   5.313   9.362  2.0934 -3.2294  0.0074
  295MOL0     H39759  11.701   5.320   9.179  0.2826 -1.6981  0.7262
  295MOL0     H39760  11.774   5.193   8.998  1.2211 -1.3285 -0.4022
  295MOL0     H39761  11.816   5.202   8.831  1.0500 -0.0240  0.2535
  295MOL0     H39762  11.841   5.432   9.035  1.4487 -1.1495  1.4567
  295MOL0     H39763  11.810   5.468   8.870 -0.3121 -0.1768 -0.6739
  295MOL0     H39764  12.013   5.331   8.813 -1.0802 -1.8331  0.0596
  295MOL0     H39765  12.023   5.279   8.993 -3.2459 -0.0549  1.1335
  295MOL0     H39766  12.074   5.543   8.865  0.5244 -0.9330 -2.6959
  295MOL0     H39767  12.085   5.513   9.054 -0.1950 -3.0648  1.3350
  295MOL0     H39768  12.317   5.520   8.981  2.3890 -2.5474  0.4252
  295MOL0     H39769  12.272   5.369   9.034  1.1186  0.6461 -0.2337
  295MOL0     H39770  12.243   5.314   8.784  0.5542 -1.0735 -1.0210
  295MOL0     H39771  12.309   5.479   8.750  0.8432 -0.2998 -1.7683
  295MOL0     H39772  12.491   5.285   8.746 -3.6437  0.4268 -3.2912
  295MOL0     H39773  12.469   5.294   8.920 -4.8960 -0.5671 -0.7386
  295MOL0     H39774  12.562   5.490   8.721 -0.3102 -3.4564 -0.0949
  295MOL0     H39775  12.528   5.554   8.890  1.6951 -0.2389  2.6056
  295MOL0     H39776  12.754   5.345   8.682 -1.3628 -0.8954  0.5013
  295MOL0     H39777  13.105   5.336   8.892 -0.5606 -1.3666  1.3533
  295MOL0     H39778  13.042   5.245   8.757 -1.0718  0.0924  1.2129
  295MOL0     H39779  13.000   5.517   8.692  0.6726  0.8190  0.8285
  295MOL0     H39780  13.109   5.528   8.821 -1.2226 -1.8499  1.5834
  295MOL0     H39781  13.217   5.519   8.566  0.0301 -0.4376  1.6114
  295MOL0     H39782  13.171   5.345   8.579  0.0291 -1.6680  0.6318
  295MOL0     H39783  13.407   5.381   8.651  0.5791 -0.2157  0.3315
  295MOL0     H39784  13.302   5.336   8.785  2.3449  1.0237  0.2198
  295MOL0     H39785  13.466   5.667   8.957 -0.3512 -0.2559 -1.2276
  295MOL0     H39786  13.603   5.878   8.893  0.0803 -0.5044 -1.3533
  295MOL0     H39787  13.888   6.024   8.538 -1.7465 -2.9176 -2.1570
  295MOL0     H39788  14.031   6.206   8.402  0.7888  2.8625 -1.0363
  295MOL0     H39789  13.883   6.569   8.455  1.1058 -0.9292  0.8360
  295MOL0     H39790  14.053   6.526   8.473 -0.3762 -1.2195 -0.3568
  295MOL0     H39791  14.109   6.639   8.258  0.4943  2.7259  0.7854
  295MOL0     H39792  13.933   6.680   8.235  1.1832  0.2339 -1.1896
  295MOL0     H39793  13.961   6.866   8.369  1.3511  1.0609  1.0830
  295MOL0     H39794  14.025   6.769   8.493 -0.7296 -3.6986 -0.4799
  295MOL0     H39795  14.181   6.905   8.259  3.8710  0.8164 -0.2246
  295MOL0     H39796  14.258   6.771   8.327  0.7659  0.6505 -0.0062
  295MOL0     H39797  14.156   7.018   8.482  0.4862  1.5228 -3.3531
  295MOL0     H39798  14.325   6.984   8.429  2.3888 -2.0062  2.9110
  295MOL0     H39799  14.323   6.933   8.660  0.2097  0.5578  0.7682
  295MOL0     H39800  14.159   6.857   8.647 -0.7970 -0.0603 -1.1291
  295MOL0     H39801  14.428   6.768   8.539 -0.5678  0.1811  0.4923
  295MOL0     H39802  14.294   6.658   8.522  2.4731 -1.1884 -0.4623
  295MOL0     H39803  14.483   6.620   8.708  0.6590  0.0135  0.9367
  295MOL0     H39804  14.414   6.762   8.784 -1.2783 -0.2275 -0.4273
  295MOL0     H39805  13.696   6.455   8.389  1.6374  0.6681  0.7692
  295MOL0     H39806  13.537   6.257   8.437 -0.1508  2.0475 -1.8530
  295MOL0     H39807  13.557   5.776   8.482  0.0820 -0.2075  0.0566
  295MOL0     H39808  13.425   5.589   8.533  0.0155  1.0597 -0.7577
  295MOL0     H39809  11.383   5.285   8.897  2.4951  1.6743  0.1251
  295MOL0     H39810  11.211   5.274   9.096 -0.6758  3.0289 -1.2771
  295MOL0     H39811  11.065   5.193   9.425 -1.0457 -0.1336  0.6074
  295MOL0     H39812  10.864   5.170   9.557  1.3054 -0.4386 -2.8693
  295MOL0     H39813  10.828   5.382   9.968  2.9686  0.4704 -1.8526
  295MOL0     H39814  10.916   5.231   9.957 -0.8702 -0.6053  2.7286
  295MOL0     H39815  10.720   5.103   9.960  5.1295  1.4990 -0.4749
  295MOL0     H39816  10.611   5.234   9.917  1.6437  0.5671 -3.2439
  295MOL0     H39817  10.580   5.175  10.168  1.1873 -2.0934  0.0450
  295MOL0     H39818  10.632   5.346  10.143 -0.1373 -1.1924  2.8137
  295MOL0     H39819  10.873   5.241  10.211 -0.0212 -1.0100 -2.9388
  295MOL0     H39820  10.741   5.248  10.324 -1.1190 -1.5368  0.2986
  295MOL0     H39821  10.809   4.832  10.260 -0.0506 -0.3041  1.1934
  295MOL0     H39822  10.998   5.446   9.845 -3.9256 -4.5296  1.4477
  295MOL0     H39823  11.266   5.483   9.847  1.1272  1.2799  0.5929
  295MOL0     H39824  11.334   5.534   9.689  1.8143  2.6121  3.4996
  295MOL0     H39825  11.201   5.610   9.752  2.6142  0.9494 -1.5625
  296MOL0     O39826  10.432   8.745   2.334  0.8261  0.1342 -0.4360
  296MOL0     C39827  10.489   8.835   2.278  0.6983  0.3493  0.1305
  296MOL0     O39828  10.454   8.889   2.154  0.4635 -0.1843 -0.1024
  296MOL0     C39829  10.354   8.824   2.072 -0.9170  0.0668 -0.1620
  296MOL0     C39830  10.366   8.878   1.947 -0.4704  0.0153 -0.0114
  296MOL0     C39831  10.274   8.845   1.852 -1.1364 -0.4122 -0.1398
  296MOL0     C39832  10.170   8.765   1.877 -1.2527 -0.5353  0.5831
  296MOL0     O39833  10.083   8.728   1.779  0.2992  0.4025 -0.3608
  296MOL0     C39834   9.996   8.829   1.724 -0.7079  0.2851  0.7441
  296MOL0     C39835  10.027   8.847   1.579 -0.4032 -0.0291 -0.5951
  296MOL0     C39836   9.962   8.975   1.529 -0.8475 -0.2957  0.2461
  296MOL0     C39837  10.041   9.099   1.583 -0.2491 -0.2072 -0.8063
  296MOL0     C39838  10.084   9.204   1.482 -0.0043  0.3809 -0.0010
  296MOL0     C39839  10.065   9.346   1.520  0.1050 -0.3942 -0.2882
  296MOL0     C39840  10.094   9.447   1.412 -0.7792  0.0981  0.5180
  296MOL0     C39841  10.241   9.466   1.400 -0.6381 -0.1914 -0.6256
  296MOL0     N39842  10.277   9.589   1.322  0.3558 -0.3389  0.4542
  296MOL0     C39843  10.227   9.634   1.200 -0.5304  1.3393 -0.0579
  296MOL0     C39844  10.253   9.762   1.185 -1.0195  0.0885  0.3678
  296MOL0     C39845  10.237   9.848   1.050  0.1066  0.3439  0.0900
  296MOL0     C39846  10.174   9.989   1.053  0.6090 -0.2037  0.8459
  296MOL0     C39847  10.212  10.077   0.929 -0.2059 -0.0058  0.2737
  296MOL0     C39848  10.154  10.014   0.803 -0.3403 -0.0231 -0.0635
  296MOL0     O39849  10.017  10.033   0.813  0.0561 -0.4992  0.1286
  296MOL0     C39850   9.947  10.097   0.715  0.0421  0.0628 -0.3396
  296MOL0     C39851   9.862  10.202   0.740  0.9456  0.2084 -0.2166
  296MOL0     C39852   9.790  10.265   0.633 -0.1005 -0.3402  0.1671
  296MOL0     C39853   9.803  10.230   0.492  0.0227 -0.5418 -0.5152
  296MOL0     C39854   9.735  10.318   0.393 -0.3650 -0.1509 -0.2230
  296MOL0     O39855   9.777  10.317   0.260 -0.8273 -0.1304 -0.5603
  296MOL0     C39856   9.704  10.375   0.162 -0.1555 -0.3832 -0.3657
  296MOL0     C39857   9.634  10.499   0.167 -0.3633 -1.5338  0.1189
  296MOL0     C39858   9.577  10.554   0.056 -0.0145 -0.1707 -0.0090
  296MOL0     C39859   9.559  10.475  -0.056 -0.4769 -0.1548  1.2271
  296MOL0     O39860   9.485  10.533  -0.162  0.3410 -0.8021 -0.1073
  296MOL0     C39861   9.428  10.454  -0.263 -0.3024  0.6859 -0.7313
  296MOL0     C39862   9.520  10.479  -0.384  0.0122  1.2103 -0.1321
  296MOL0     C39863   9.474  10.590  -0.477 -0.6831  0.3290  0.1929
  296MOL0     C39864   9.558  10.595  -0.604 -0.0953  0.1258 -0.1023
  296MOL0     C39865   9.489  10.686  -0.709 -1.3122  0.7458 -0.4426
  296MOL0     C39866   9.480  10.827  -0.662 -0.0899 -0.6627 -0.1593
  296MOL0     C39867   9.596  10.896  -0.620 -0.2583 -0.1781 -0.8601
  296MOL0     C39868   9.693  10.925  -0.731  0.1622 -0.3553  0.6639
  296MOL0    Cl39869   9.833  11.026  -0.676  0.0534 -0.1785 -0.0088
  296MOL0     C39870   9.644  10.366  -0.069  0.3007  0.6448 -0.1044
  296MOL0     C39871   9.714  10.313   0.037  0.9185 -0.4672  0.2483
  296MOL0     O39872   9.635  10.383   0.428 -0.7332 -0.4231  0.2343
  296MOL0     C39873   9.902  10.141   0.465 -0.2992 -0.0729  0.1018
  296MOL0     C39874   9.964  10.068   0.573  0.4862  0.4372 -0.0535
  296MOL0     N39875  10.314   9.812   1.301 -0.1244  0.7382 -0.4306
  296MOL0     N39876  10.310   9.711   1.385  0.1145 -0.1321 -0.3628
  296MOL0     C39877  10.163   8.710   2.009  0.9289  0.9884  0.3318
  296MOL0     C39878  10.250   8.741   2.105 -0.9183  0.2281 -0.9995
  296MOL0     C39879  10.596   8.904   2.350  0.3300 -0.4776 -1.0143
  296MOL0     C39880  10.664   9.013   2.283 -0.1429 -0.6481  0.0456
  296MOL0     C39881  10.756   9.093   2.350 -0.6805 -0.4752 -0.8766
  296MOL0     C39882  10.769   9.074   2.485 -0.6590  0.3610 -0.2061
  296MOL0     O39883  10.844   9.158   2.561 -0.1958  0.6155  0.1354
  296MOL0     C39884  10.784   9.289   2.588 -0.4571  0.7724  0.0696
  296MOL0     C39885  10.775   9.308   2.734 -0.9787 -0.1564 -0.3332
  296MOL0     C39886  10.711   9.434   2.784  0.5097  0.5472 -0.3840
  296MOL0     C39887  10.773   9.560   2.722  0.2439  0.4077  1.2609
  296MOL0     C39888  10.695   9.682   2.774  0.3098  0.7385  0.1885
  296MOL0     C39889  10.625   9.764   2.821 -0.4827 -0.5779 -0.8302
  296MOL0     C39890  10.715   8.966   2.557 -0.0992  0.2929 -0.0095
  296MOL0     C39891  10.625   8.882   2.490  0.7359 -0.2427 -0.2461
  296MOL0     C39892  10.552   8.783   2.587  0.6582 -0.5329 -0.1720
  296MOL0     H39893  10.447   8.949   1.931 -2.6540  3.2961  2.1750
  296MOL0     H39894  10.287   8.886   1.752 -1.1165  1.3973  0.5554
  296MOL0     H39895   9.893   8.793   1.733 -0.1349 -1.6798 -0.0886
  296MOL0     H39896  10.006   8.918   1.787  2.6838  1.5785 -1.3705
  296MOL0     H39897   9.999   8.765   1.513 -0.0483  1.3207 -2.4929
  296MOL0     H39898  10.135   8.850   1.561 -0.3500 -2.1466 -0.8271
  296MOL0     H39899   9.857   8.982   1.558 -0.5124 -0.6119  1.5692
  296MOL0     H39900   9.969   8.975   1.420 -1.0632  1.6215  0.1853
  296MOL0     H39901   9.988   9.129   1.674  0.5087  1.0491 -0.7540
  296MOL0     H39902  10.132   9.067   1.636 -0.2750 -0.7422 -1.0812
  296MOL0     H39903  10.188   9.183   1.456 -0.9701 -0.4088 -3.8749
  296MOL0     H39904  10.022   9.181   1.394  1.6532  0.5968 -1.2855
  296MOL0     H39905   9.968   9.359   1.568 -1.4521  2.5349 -3.8039
  296MOL0     H39906  10.131   9.371   1.604 -0.5987 -0.4154  0.2791
  296MOL0     H39907  10.046   9.542   1.436  1.5283  1.5839 -0.3051
  296MOL0     H39908  10.057   9.418   1.313 -2.4166 -1.5274  1.5587
  296MOL0     H39909  10.289   9.460   1.498 -3.4112 -1.4365  0.7472
  296MOL0     H39910  10.272   9.378   1.342  2.7113  1.8365 -2.2333
  296MOL0     H39911  10.177   9.565   1.133  3.8801 -1.3248 -1.0457
  296MOL0     H39912  10.339   9.849   1.010 -1.2414 -0.3997 -3.8777
  296MOL0     H39913  10.169   9.787   0.990 -0.7463 -1.7202  2.9333
  296MOL0     H39914  10.065   9.983   1.051  0.6312 -1.2900  1.9380
  296MOL0     H39915  10.205  10.024   1.151 -0.1935 -3.2954  2.3438
  296MOL0     H39916  10.321  10.083   0.922 -0.3678  1.4241 -1.8998
  296MOL0     H39917  10.187  10.180   0.953 -0.6959 -0.3595  1.3432
  296MOL0     H39918  10.181   9.910   0.783  1.9143  0.6707 -0.9345
  296MOL0     H39919  10.196  10.079   0.726 -1.1453  1.3035  0.5698
  296MOL0     H39920   9.835  10.237   0.840  3.0905  1.5135 -0.0433
  296MOL0     H39921   9.712  10.336   0.661  0.0825  0.1680 -0.5771
  296MOL0     H39922   9.632  10.560   0.256 -1.7096 -0.1439 -0.8190
  296MOL0     H39923   9.542  10.657   0.052 -1.7853 -0.7398 -0.0706
  296MOL0     H39924   9.431  10.349  -0.231  0.8561  1.3391  1.5511
  296MOL0     H39925   9.327  10.488  -0.284 -0.5157  0.6670  0.2125
  296MOL0     H39926   9.620  10.500  -0.347  0.8096 -1.2920 -0.6838
  296MOL0     H39927   9.514  10.390  -0.447  2.6525 -1.0059  2.5212
  296MOL0     H39928   9.366  10.579  -0.490 -0.9192  2.0456  0.4863
  296MOL0     H39929   9.491  10.678  -0.415  3.0097  0.5777 -0.9283
  296MOL0     H39930   9.578  10.492  -0.638 -2.0471 -0.1752 -0.4648
  296MOL0     H39931   9.657  10.633  -0.575  0.5823 -0.6697 -1.2767
  296MOL0     H39932   9.386  10.650  -0.719 -0.9311 -1.1441  1.6274
  296MOL0     H39933   9.538  10.685  -0.807 -3.3847 -0.5768 -1.5348
  296MOL0     H39934   9.441  10.902  -0.731 -2.8735  0.4259  2.3445
  296MOL0     H39935   9.419  10.831  -0.571  0.2913 -2.4240  0.2122
  296MOL0     H39936   9.647  10.842  -0.540  1.0092 -1.2414 -2.3116
  296MOL0     H39937   9.568  10.994  -0.581 -1.4307  0.0030 -2.0530
  296MOL0     H39938   9.727  10.828  -0.771  1.9330  0.6770 -0.4619
  296MOL0     H39939   9.638  10.975  -0.811  1.9803 -0.0333 -0.4223
  296MOL0     H39940   9.660  10.311  -0.162 -0.3818 -4.4194  2.4382
  296MOL0     H39941   9.763  10.218   0.022 -0.0445 -1.1048  1.0413
  296MOL0     H39942   9.921  10.120   0.361  1.3720  1.1534  0.1157
  296MOL0     H39943  10.022   9.979   0.553 -1.8047 -1.0024 -0.7197
  296MOL0     H39944  10.080   8.646   2.040  1.9268 -0.7449 -0.3997
  296MOL0     H39945  10.226   8.703   2.204  2.2295  0.1872 -0.1628
  296MOL0     H39946  10.650   9.059   2.186  1.9184  2.6960  1.1477
  296MOL0     H39947  10.814   9.168   2.295 -1.0319  0.5859  0.1471
  296MOL0     H39948  10.681   9.285   2.553 -1.0616  1.5712  1.6406
  296MOL0     H39949  10.859   9.363   2.556 -3.1390  4.5737  1.7576
  296MOL0     H39950  10.875   9.298   2.777 -0.7944  0.6682 -0.5486
  296MOL0     H39951  10.718   9.218   2.757 -0.4774 -1.1247 -2.6249
  296MOL0     H39952  10.712   9.426   2.893  0.1083 -2.7405 -0.5432
  296MOL0     H39953  10.607   9.419   2.756 -1.0022  5.2262  1.7195
  296MOL0     H39954  10.880   9.560   2.744  1.1826  0.9584 -2.5197
  296MOL0     H39955  10.765   9.559   2.613  0.0013  0.6985  1.2761
  296MOL0     H39956  10.568   9.850   2.849 -0.2597  0.2755 -2.8673
  296MOL0     H39957  10.739   8.947   2.662  0.1158  1.6472  0.2036
  296MOL0     H39958  10.621   8.760   2.668  1.2181 -3.4771 -1.3505
  296MOL0     H39959  10.467   8.832   2.634  2.2118  0.5842  1.6134
  296MOL0     H39960  10.526   8.690   2.535  0.8987 -1.2762  1.0041
  297MOL0     O39961   4.347  10.031   7.112 -0.8141 -0.0835  0.3654
  297MOL0     C39962   4.339  10.100   7.008  0.3117 -0.4523 -0.9432
  297MOL0     O39963   4.381  10.065   6.887 -0.9732  0.4564  0.4170
  297MOL0     C39964   4.453   9.949   6.860 -0.4281  1.3254 -0.0282
  297MOL0     C39965   4.398   9.824   6.883  0.7970  0.0996 -1.0672
  297MOL0     C39966   4.467   9.702   6.857 -0.7067 -0.2802 -0.6673
  297MOL0     C39967   4.600   9.702   6.809 -0.9661 -0.2084 -0.0101
  297MOL0     O39968   4.681   9.595   6.797 -0.2679  0.7830 -0.8548
  297MOL0     C39969   4.659   9.521   6.677 -0.7992 -0.4548  0.3617
  297MOL0     C39970   4.601   9.381   6.710 -0.6385 -0.1708  1.1930
  297MOL0     C39971   4.615   9.277   6.597 -0.0495  0.2920 -0.5827
  297MOL0     C39972   4.574   9.336   6.459 -0.1724 -0.2385 -0.2522
  297MOL0     C39973   4.610   9.245   6.349 -0.6738 -1.0440 -0.3271
  297MOL0     C39974   4.530   9.271   6.219 -0.6636 -0.4248  0.1202
  297MOL0     C39975   4.521   9.145   6.119  0.3956  0.4841 -0.0655
  297MOL0     C39976   4.659   9.137   6.044  0.4468  0.2211  0.2087
  297MOL0     N39977   4.664   9.029   5.953 -0.5540  0.2128 -0.3084
  297MOL0     C39978   4.679   9.030   5.822  0.5418 -0.0383 -0.0214
  297MOL0     C39979   4.673   8.905   5.777  0.3122 -0.8264  0.3311
  297MOL0     C39980   4.668   8.863   5.630 -0.1121  0.4473 -0.8194
  297MOL0     C39981   4.528   8.863   5.582 -0.3632 -1.6798  0.4043
  297MOL0     C39982   4.533   8.837   5.437  0.8548 -0.0592  0.6172
  297MOL0     C39983   4.558   8.967   5.352 -0.2949  0.4664  1.3295
  297MOL0     O39984   4.698   8.989   5.360 -0.4386  0.1501 -0.0243
  297MOL0     C39985   4.751   9.089   5.282 -0.6664 -0.1889  0.2976
  297MOL0     C39986   4.737   9.091   5.144  0.0859  0.7948  0.2617
  297MOL0     C39987   4.788   9.196   5.072  0.0802  0.6731  0.4220
  297MOL0     C39988   4.853   9.309   5.134 -0.2717  0.0452 -1.5825
  297MOL0     C39989   4.900   9.432   5.057 -0.6353 -1.0617 -0.2712
  297MOL0     O39990   4.897   9.426   4.919 -0.7125  0.0817 -0.2061
  297MOL0     C39991   4.904   9.540   4.846  0.1603 -0.1610  0.3540
  297MOL0     C39992   4.960   9.542   4.721 -0.4391  0.0118  0.3069
  297MOL0     C39993   4.956   9.654   4.638 -0.0206 -0.4414  0.6284
  297MOL0     C39994   4.892   9.773   4.671  1.2536 -0.5518 -0.7331
  297MOL0     O39995   4.910   9.877   4.582 -0.0206  0.4740  0.5529
  297MOL0     C39996   4.811   9.977   4.553 -0.2740  0.8926  0.2280
  297MOL0     C39997   4.683   9.894   4.521  0.4491 -0.2793  0.4057
  297MOL0     C39998   4.574   9.999   4.486 -0.0092  0.4545  0.7631
  297MOL0     C39999   4.443   9.947   4.426 -0.5596 -0.9566 -1.5365
  297MOL0     C40000   4.356  10.073   4.389  0.1578 -0.5547  0.0550
  297MOL0     C40001   4.275  10.053   4.259  0.3404 -0.5990 -1.3053
  297MOL0     C40002   4.343  10.096   4.124 -0.0658  0.3747  0.5537
  297MOL0     C40003   4.236  10.056   4.016 -0.2865 -0.0254 -0.3870
  297MOL0    Cl40004   4.236  10.162   3.867 -0.0317 -0.1949 -0.1168
  297MOL0     C40005   4.819   9.776   4.796  0.8902 -0.0194 -0.0721
  297MOL0     C40006   4.827   9.660   4.884 -0.1046 -1.1156  1.1132
  297MOL0     O40007   4.930   9.537   5.119 -0.2379 -0.3751  0.3448
  297MOL0     C40008   4.873   9.297   5.271  0.8860 -0.0733 -0.0194
  297MOL0     C40009   4.828   9.191   5.347  0.4348 -0.2983 -0.1840
  297MOL0     N40010   4.662   8.820   5.884 -1.2944 -0.8436 -0.0931
  297MOL0     N40011   4.655   8.892   5.993  0.0145  0.2272 -1.1264
  297MOL0     C40012   4.664   9.828   6.810 -0.0420 -0.1136 -0.1214
  297MOL0     C40013   4.590   9.953   6.822 -0.5524 -0.9412  0.7761
  297MOL0     C40014   4.281  10.234   7.038  0.0936 -0.0768  0.5462
  297MOL0     C40015   4.218  10.255   7.162  0.6431 -0.6047 -0.5510
  297MOL0     C40016   4.185  10.389   7.206  0.1153 -0.3924 -0.1370
  297MOL0     C40017   4.183  10.490   7.113 -0.4092  1.3670  0.0437
  297MOL0     O40018   4.151  10.618   7.145 -0.0292  0.7040  0.1229
  297MOL0     C40019   4.197  10.671   7.267 -0.0093 -0.1903 -0.7194
  297MOL0     C40020   4.250  10.815   7.257 -0.1360 -0.6877 -0.2621
  297MOL0     C40021   4.269  10.858   7.397  0.0974 -0.8984 -0.6232
  297MOL0     C40022   4.292  11.006   7.420 -1.2311  0.1897  0.5017
  297MOL0     C40023   4.428  11.048   7.374 -0.8885  0.1638 -0.4609
  297MOL0     C40024   4.545  11.085   7.348 -0.2530 -0.6914 -0.0027
  297MOL0     C40025   4.231  10.457   6.982  0.0530 -0.6013  0.6466
  297MOL0     C40026   4.281  10.337   6.944 -0.3023  1.3608  0.3588
  297MOL0     C40027   4.312  10.321   6.796  0.2759  0.2854 -0.1641
  297MOL0     H40028   4.294   9.811   6.912  1.4558 -0.9105  1.0193
  297MOL0     H40029   4.418   9.607   6.876 -0.5641 -0.6354 -1.9770
  297MOL0     H40030   4.596   9.569   6.602 -0.4449  1.3047  1.1448
  297MOL0     H40031   4.756   9.506   6.629 -1.4061 -1.6713 -0.5346
  297MOL0     H40032   4.496   9.398   6.735 -0.8373  3.2620 -1.2441
  297MOL0     H40033   4.657   9.336   6.792  3.7295 -2.9375 -2.7939
  297MOL0     H40034   4.550   9.191   6.618  2.5967 -1.6452  0.3054
  297MOL0     H40035   4.714   9.232   6.596 -1.6354 -3.6037 -1.3640
  297MOL0     H40036   4.466   9.351   6.470  0.0838  0.3682  2.2160
  297MOL0     H40037   4.611   9.434   6.428 -0.9707  0.0934 -0.1879
  297MOL0     H40038   4.716   9.262   6.330 -1.4556  3.4390 -1.7687
  297MOL0     H40039   4.582   9.149   6.393  2.6898 -0.3055  4.0265
  297MOL0     H40040   4.431   9.291   6.262 -0.1386 -0.5141  1.4408
  297MOL0     H40041   4.567   9.354   6.158 -1.1346  0.1234  0.5758
  297MOL0     H40042   4.441   9.158   6.046  1.3850 -1.2234 -1.5469
  297MOL0     H40043   4.502   9.053   6.175 -2.0897  1.1389  0.2922
  297MOL0     H40044   4.672   9.229   5.987  2.0610  0.3121  0.6943
  297MOL0     H40045   4.736   9.132   6.121 -1.9697 -2.0796  2.6926
  297MOL0     H40046   4.698   9.123   5.771 -0.8827  0.4403  0.2718
  297MOL0     H40047   4.731   8.938   5.580 -2.6054  3.3516  0.0938
  297MOL0     H40048   4.705   8.763   5.608 -1.7605 -0.0673 -1.3531
  297MOL0     H40049   4.469   8.793   5.642  1.1905 -0.3681  3.7792
  297MOL0     H40050   4.479   8.957   5.609  1.4088 -0.4137 -0.5872
  297MOL0     H40051   4.430   8.806   5.415 -0.3184  0.3258  4.6444
  297MOL0     H40052   4.613   8.772   5.403  1.7151  0.9226  0.7188
  297MOL0     H40053   4.496   9.048   5.392  1.1092  1.6491  1.1984
  297MOL0     H40054   4.531   8.946   5.248  0.5501 -0.1476  1.2272
  297MOL0     H40055   4.689   9.003   5.103  2.7963 -1.0398  0.7685
  297MOL0     H40056   4.773   9.192   4.965 -3.0118  3.2840  0.6098
  297MOL0     H40057   5.016   9.454   4.692  0.4632  0.6082  0.2171
  297MOL0     H40058   5.017   9.643   4.549  0.9483  1.6994  0.9850
  297MOL0     H40059   4.794  10.057   4.626  0.0914  2.7693 -1.6204
  297MOL0     H40060   4.832  10.029   4.459 -1.1036 -2.4531 -1.9564
  297MOL0     H40061   4.702   9.814   4.448  1.6160  0.9155 -0.6698
  297MOL0     H40062   4.659   9.840   4.612  2.5656 -1.0536  0.5601
  297MOL0     H40063   4.557  10.066   4.571 -0.6146 -1.1890  1.9806
  297MOL0     H40064   4.625  10.057   4.408 -1.4842  0.6238 -0.1158
  297MOL0     H40065   4.399   9.879   4.500  1.4326 -0.8454 -0.1642
  297MOL0     H40066   4.466   9.878   4.344  2.7181 -0.3222 -1.3008
  297MOL0     H40067   4.423  10.156   4.364  1.9845 -1.7631  0.7012
  297MOL0     H40068   4.299  10.094   4.480  5.6713 -1.4396  4.2370
  297MOL0     H40069   4.227   9.955   4.261 -0.9575 -0.0456  2.2076
  297MOL0     H40070   4.191  10.123   4.268  1.0987  0.0690  2.0105
  297MOL0     H40071   4.443  10.055   4.109 -0.2010  0.7739 -1.9186
  297MOL0     H40072   4.355  10.204   4.114 -0.1734  0.1901 -2.7005
  297MOL0     H40073   4.259   9.953   3.988  1.8512  0.3408 -0.1178
  297MOL0     H40074   4.141  10.064   4.070  0.8145  1.3108  1.4856
  297MOL0     H40075   4.754   9.859   4.823 -1.7932 -1.4892 -1.5884
  297MOL0     H40076   4.761   9.638   4.967 -1.1883  1.2871  0.9807
  297MOL0     H40077   4.926   9.385   5.305 -3.9976  2.3308  2.3282
  297MOL0     H40078   4.838   9.193   5.455  0.7899 -1.7795 -0.1716
  297MOL0     H40079   4.771   9.832   6.788  0.5409 -0.2478  2.3918
  297MOL0     H40080   4.637  10.050   6.808 -2.4770  0.1904  1.8169
  297MOL0     H40081   4.219  10.182   7.243  1.7541 -1.4232 -1.2710
  297MOL0     H40082   4.172  10.414   7.311 -0.4395  0.9269 -0.5047
  297MOL0     H40083   4.279  10.611   7.308 -0.1080  0.2908  0.2172
  297MOL0     H40084   4.108  10.666   7.330 -0.7509 -1.0081 -1.8017
  297MOL0     H40085   4.174  10.876   7.207 -0.7649 -1.1537  0.0999
  297MOL0     H40086   4.344  10.818   7.202 -0.6127 -0.8511 -1.1103
  297MOL0     H40087   4.360  10.807   7.430  1.9589  2.5420  0.1172
  297MOL0     H40088   4.183  10.838   7.461 -0.3997 -0.8626 -1.2813
  297MOL0     H40089   4.227  11.063   7.353 -1.4346 -2.4150 -1.6951
  297MOL0     H40090   4.274  11.027   7.526 -2.4425 -0.1759  0.3829
  297MOL0     H40091   4.644  11.125   7.345 -0.6430  0.2641 -1.0482
  297MOL0     H40092   4.223  10.532   6.904  4.0572 -0.1824  0.4234
  297MOL0     H40093   4.419  10.312   6.773  0.3313  0.6389 -0.0539
  297MOL0     H40094   4.265  10.232   6.752  1.0942 -0.1027 -0.2698
  297MOL0     H40095   4.254  10.400   6.748  0.4091  0.8842  0.6531
  298MOL0     O40096   2.150  11.406   6.691 -0.6661  0.3295  0.7560
  298MOL0     C40097   2.205  11.293   6.675  0.5841  0.2922 -0.0987
  298MOL0     O40098   2.128  11.176   6.681 -0.6578  0.7011 -0.8114
  298MOL0     C40099   1.992  11.181   6.695  0.1835 -0.8724 -0.7467
  298MOL0     C40100   1.935  11.128   6.806  0.8273  0.1358 -0.1210
  298MOL0     C40101   1.797  11.117   6.813  0.0783 -0.1830 -0.3784
  298MOL0     C40102   1.704  11.165   6.718 -0.5704 -0.3518 -0.7492
  298MOL0     O40103   1.570  11.133   6.725  0.4559  0.1861  0.2470
  298MOL0     C40104   1.484  11.248   6.706  0.6354 -0.5340  0.2979
  298MOL0     C40105   1.338  11.201   6.702  0.3953 -0.0930  0.8453
  298MOL0     C40106   1.300  11.135   6.569  0.6815 -0.6742  1.1007
  298MOL0     C40107   1.168  11.054   6.585 -0.4422  0.9006 -0.5984
  298MOL0     C40108   1.152  10.978   6.452 -0.0779 -0.1451 -0.4100
  298MOL0     C40109   1.017  10.910   6.446  0.5115 -0.1029 -0.6152
  298MOL0     C40110   1.015  10.804   6.333  0.0480  0.0994  0.2806
  298MOL0     C40111   1.088  10.670   6.385  0.5140 -0.2960 -0.0749
  298MOL0     N40112   1.028  10.610   6.510 -0.0887  0.1639 -0.0552
  298MOL0     C40113   1.103  10.559   6.607 -0.4673 -0.0062 -0.1345
  298MOL0     C40114   1.011  10.532   6.707 -0.5582  0.1571  0.8171
  298MOL0     C40115   1.030  10.473   6.851 -0.9827  0.3905 -0.9117
  298MOL0     C40116   1.009  10.572   6.972  0.2853 -0.1329  1.1074
  298MOL0     C40117   1.094  10.694   6.948 -0.2081  0.2508 -0.3482
  298MOL0     C40118   1.245  10.690   6.978 -0.8077  0.9909  1.1959
  298MOL0     O40119   1.310  10.613   6.876 -0.0755  0.5453 -0.3352
  298MOL0     C40120   1.426  10.543   6.917  0.7730 -0.6763  0.7396
  298MOL0     C40121   1.474  10.439   6.831 -0.2797 -1.1072 -0.7792
  298MOL0     C40122   1.576  10.355   6.879 -0.2035  0.4709 -0.4130
  298MOL0     C40123   1.647  10.383   6.997  0.0555  0.4973  0.7155
  298MOL0     C40124   1.771  10.313   7.032 -0.1069 -0.3099  0.2094
  298MOL0     O40125   1.806  10.197   6.965 -0.3348  0.3802  0.9408
  298MOL0     C40126   1.931  10.147   6.957 -0.2547 -0.7141 -1.0416
  298MOL0     C40127   2.046  10.230   6.982  0.0159 -0.9614 -1.0132
  298MOL0     C40128   2.168  10.170   7.008 -0.9073 -0.7614  0.3521
  298MOL0     C40129   2.185  10.035   6.996  0.7719 -0.1291 -0.5530
  298MOL0     O40130   2.308   9.979   7.027  0.2208  0.5674  0.3328
  298MOL0     C40131   2.306   9.843   7.065  0.6163  0.3477  0.7762
  298MOL0     C40132   2.428   9.809   7.148  0.0023 -0.2944 -0.4327
  298MOL0     C40133   2.430   9.670   7.208  0.9016 -0.2764  0.1377
  298MOL0     C40134   2.507   9.566   7.125 -0.4970 -0.0227  0.2419
  298MOL0     C40135   2.658   9.563   7.141 -0.5563  0.9227 -0.4168
  298MOL0     C40136   2.708   9.495   7.260  0.3270 -0.9493 -0.0164
  298MOL0     C40137   2.857   9.511   7.274 -0.0638  0.7105  0.4111
  298MOL0     C40138   2.903   9.475   7.414 -0.0123 -0.5718 -0.7987
  298MOL0    Cl40139   2.900   9.299   7.448  0.2936 -0.1242  0.0845
  298MOL0     C40140   2.069   9.958   6.951 -0.5806  1.3205  0.4017
  298MOL0     C40141   1.939  10.006   6.940  0.1126  0.0670  0.1164
  298MOL0     O40142   1.833  10.377   7.113 -0.4314 -0.0617  0.4904
  298MOL0     C40143   1.605  10.491   7.080  0.6668 -1.1296  0.6142
  298MOL0     C40144   1.495  10.557   7.041 -0.3381 -1.2681  0.2362
  298MOL0     N40145   0.885  10.560   6.658  0.7468  0.3082  0.2798
  298MOL0     N40146   0.899  10.618   6.544  0.2049 -0.2546 -0.2612
  298MOL0     C40147   1.763  11.232   6.618 -1.3938 -0.7612  0.0273
  298MOL0     C40148   1.905  11.242   6.601  0.3218  0.0992  0.7711
  298MOL0     C40149   2.353  11.265   6.650 -0.2265  0.2959  0.9874
  298MOL0     C40150   2.418  11.159   6.705 -0.6171  0.2644 -0.4382
  298MOL0     C40151   2.551  11.127   6.688 -1.0651  0.6947  1.1820
  298MOL0     C40152   2.624  11.201   6.600  0.1746  0.7595  0.8565
  298MOL0     O40153   2.754  11.154   6.583 -0.5339  0.7294 -0.4675
  298MOL0     C40154   2.851  11.251   6.572  0.3308  0.0097 -0.1837
  298MOL0     C40155   2.975  11.170   6.590 -0.2846 -0.1441 -1.1311
  298MOL0     C40156   3.015  11.049   6.496  0.1622  0.1252  1.3407
  298MOL0     C40157   3.007  10.911   6.571  0.2210 -0.4991 -0.3161
  298MOL0     C40158   2.867  10.870   6.585  0.4999 -0.4571  1.1626
  298MOL0     C40159   2.743  10.858   6.584 -1.0654  0.8334 -0.1232
  298MOL0     C40160   2.575  11.325   6.551 -0.4357 -0.6205  0.6350
  298MOL0     C40161   2.439  11.354   6.573  0.0939 -1.1135  0.6035
  298MOL0     C40162   2.387  11.488   6.518  0.1748 -1.5837 -0.0277
  298MOL0     H40163   1.993  11.086   6.887  0.3004 -1.3640 -0.5036
  298MOL0     H40164   1.745  11.066   6.894 -2.0477  0.3455 -1.3366
  298MOL0     H40165   1.487  11.297   6.803  1.8624  1.7315 -0.8028
  298MOL0     H40166   1.502  11.307   6.616  0.2856  0.5881  0.9495
  298MOL0     H40167   1.262  11.279   6.707  0.3041 -0.1478  0.3201
  298MOL0     H40168   1.312  11.139   6.789 -1.1606 -1.4194 -0.4972
  298MOL0     H40169   1.376  11.068   6.529  1.0934  1.3651 -1.7584
  298MOL0     H40170   1.278  11.212   6.495  0.3133 -1.8923 -0.0945
  298MOL0     H40171   1.170  10.979   6.665 -0.7634 -1.5416 -2.7629
  298MOL0     H40172   1.085  11.123   6.601 -0.9105  0.4223 -0.9341
  298MOL0     H40173   1.163  11.041   6.363 -1.6366 -1.3315 -1.5031
  298MOL0     H40174   1.237  10.909   6.459  2.1342  2.4133 -0.6071
  298MOL0     H40175   0.999  10.863   6.543  3.7510 -1.1000 -0.3527
  298MOL0     H40176   0.946  10.993   6.436 -0.1927 -0.2395  2.4896
  298MOL0     H40177   1.073  10.832   6.244  5.0124 -1.9790  2.5025
  298MOL0     H40178   0.915  10.784   6.296 -0.1183  1.7526 -0.2686
  298MOL0     H40179   1.080  10.595   6.305  0.5292 -0.0915 -0.2702
  298MOL0     H40180   1.195  10.684   6.402  0.4441  1.7934 -1.0446
  298MOL0     H40181   1.209  10.537   6.612 -0.1983  1.3301  0.4485
  298MOL0     H40182   0.955  10.394   6.846 -1.8354  1.1553 -0.3358
  298MOL0     H40183   1.132  10.431   6.852 -1.2513 -0.6853 -4.5777
  298MOL0     H40184   0.905  10.606   6.980  0.7777  1.3758  1.3721
  298MOL0     H40185   1.040  10.516   7.061  1.2725 -1.7915 -0.2099
  298MOL0     H40186   1.048  10.761   7.022 -2.9140 -0.0994 -1.5723
  298MOL0     H40187   1.076  10.734   6.848  0.1283 -4.4818 -2.6006
  298MOL0     H40188   1.248  10.640   7.075 -1.6260 -0.2069  0.6393
  298MOL0     H40189   1.280  10.793   6.987  0.4559  0.5896  1.0189
  298MOL0     H40190   1.425  10.426   6.735 -0.4094  4.4757 -1.7573
  298MOL0     H40191   1.590  10.261   6.827  3.4918  0.6185  0.0265
  298MOL0     H40192   2.050  10.339   6.986  0.6930 -1.0126  2.6071
  298MOL0     H40193   2.254  10.228   7.038 -1.1309 -1.3605  2.3339
  298MOL0     H40194   2.223   9.826   7.134 -2.1941 -1.0545 -2.6784
  298MOL0     H40195   2.297   9.784   6.973  1.6847 -0.4476  1.1616
  298MOL0     H40196   2.513   9.811   7.079 -1.4354 -0.7922 -2.3229
  298MOL0     H40197   2.445   9.886   7.224 -0.1690 -0.5364 -0.1453
  298MOL0     H40198   2.480   9.661   7.304  1.2623 -6.9137 -0.1545
  298MOL0     H40199   2.328   9.643   7.239  1.4232 -1.2542  1.0619
  298MOL0     H40200   2.495   9.578   7.017  1.6534 -1.1276 -0.1728
  298MOL0     H40201   2.465   9.467   7.146 -1.4544  0.9895  3.7395
  298MOL0     H40202   2.688   9.668   7.134 -1.5035  1.1860 -0.6127
  298MOL0     H40203   2.701   9.513   7.053 -0.3543  1.0728 -0.4044
  298MOL0     H40204   2.668   9.545   7.348  1.4935  0.1728 -0.0956
  298MOL0     H40205   2.672   9.391   7.261 -5.6126  0.7368  1.8860
  298MOL0     H40206   2.881   9.615   7.250 -0.9185  0.5321 -1.4202
  298MOL0     H40207   2.903   9.439   7.205 -2.2902 -0.0533 -0.3437
  298MOL0     H40208   3.004   9.514   7.427  0.0843 -1.6218  3.1670
  298MOL0     H40209   2.837   9.517   7.490  3.4323  0.7571  1.7487
  298MOL0     H40210   2.089   9.855   6.923 -0.1876  2.0032 -2.0729
  298MOL0     H40211   1.856   9.938   6.923  1.0874 -2.0326  2.9369
  298MOL0     H40212   1.637  10.527   7.177 -3.3743  1.0242  1.3733
  298MOL0     H40213   1.458  10.633   7.110  1.0756 -0.2352 -0.0918
  298MOL0     H40214   1.692  11.256   6.539 -0.7776  0.0549 -0.2919
  298MOL0     H40215   1.946  11.290   6.513 -0.9462  0.0423  0.1304
  298MOL0     H40216   2.361  11.111   6.784 -0.2936 -0.5785 -0.6976
  298MOL0     H40217   2.597  11.037   6.728  0.8943  2.2280  2.5647
  298MOL0     H40218   2.846  11.335   6.641  1.0460 -0.3507  0.3238
  298MOL0     H40219   2.849  11.288   6.469  0.0679 -1.8697 -0.8863
  298MOL0     H40220   2.994  11.137   6.693 -1.0162 -2.6482 -1.7513
  298MOL0     H40221   3.041  11.255   6.568 -1.9099  1.0187 -1.7383
  298MOL0     H40222   3.116  11.061   6.455  0.5788 -5.2172  0.0282
  298MOL0     H40223   2.954  11.036   6.406  0.9009 -2.9433  1.1686
  298MOL0     H40224   3.067  10.838   6.515  2.5511  0.2236  1.1011
  298MOL0     H40225   3.046  10.920   6.673 -0.9564 -0.2804  0.1314
  298MOL0     H40226   2.637  10.853   6.569 -0.7626 -1.8535 -2.0107
  298MOL0     H40227   2.632  11.394   6.490 -1.3456  0.3609  0.8421
  298MOL0     H40228   2.472  11.549   6.484 -0.2531  1.2239  3.4092
  298MOL0     H40229   2.301  11.470   6.453 -0.3710  0.2276  0.1554
  298MOL0     H40230   2.342  11.550   6.595  1.4277 -0.6128 -0.0406
  299MOL0     O40231   6.342   9.160   0.423  0.2293 -0.2383  0.5204
  299MOL0     C40232   6.336   9.042   0.399  0.3834 -0.2954  0.0966
  299MOL0     O40233   6.234   8.968   0.428  0.6123 -0.0063 -0.0687
  299MOL0     C40234   6.137   9.012   0.515 -0.4075  0.9470 -0.2709
  299MOL0     C40235   6.156   9.081   0.643 -0.2739 -0.0020  0.7508
  299MOL0     C40236   6.045   9.114   0.728 -0.8534 -0.0297 -0.8379
  299MOL0     C40237   5.913   9.091   0.690 -0.9155 -0.6287  0.5676
  299MOL0     O40238   5.814   9.128   0.783  0.3422  0.6777  0.7441
  299MOL0     C40239   5.766   9.263   0.786  0.1315 -0.9498  0.0489
  299MOL0     C40240   5.629   9.259   0.718 -1.0689 -0.8537  0.4651
  299MOL0     C40241   5.564   9.400   0.739 -0.3164 -0.2912  0.2475
  299MOL0     C40242   5.548   9.466   0.882 -0.1455  0.5251  0.6596
  299MOL0     C40243   5.467   9.381   0.976  0.2682 -0.5763  0.5778
  299MOL0     C40244   5.436   9.471   1.102 -0.1059 -0.1391  1.0102
  299MOL0     C40245   5.349   9.409   1.215  0.1061  0.3801 -0.2760
  299MOL0     C40246   5.395   9.281   1.271 -0.5634 -0.1135  0.0020
  299MOL0     N40247   5.303   9.232   1.370 -0.0806 -0.3792  0.4196
  299MOL0     C40248   5.292   9.279   1.495  0.3320 -1.0181 -0.1945
  299MOL0     C40249   5.216   9.186   1.561 -0.8503 -1.0383  0.6284
  299MOL0     C40250   5.206   9.203   1.713  0.7361  0.6623 -0.0571
  299MOL0     C40251   5.221   9.065   1.779  0.1422 -0.0117  0.5571
  299MOL0     C40252   5.099   8.979   1.762  2.1922  1.3078  0.3675
  299MOL0     C40253   5.100   8.854   1.846 -0.8062  0.4047  0.4406
  299MOL0     O40254   4.981   8.775   1.860  0.1768 -0.0513 -0.1146
  299MOL0     C40255   4.934   8.679   1.784 -0.2853 -0.6211  0.1956
  299MOL0     C40256   4.813   8.626   1.826 -0.4596  0.6027  0.0301
  299MOL0     C40257   4.757   8.520   1.755  0.0169  0.2466  0.5590
  299MOL0     C40258   4.811   8.471   1.633  0.4578 -0.4479  0.5872
  299MOL0     C40259   4.749   8.359   1.564 -0.4077 -0.4298 -0.7338
  299MOL0     O40260   4.803   8.308   1.448  0.3613  0.1241 -0.9017
  299MOL0     C40261   4.747   8.218   1.361  0.5240  0.6474 -1.1313
  299MOL0     C40262   4.804   8.217   1.233  0.2533 -0.6933  0.2580
  299MOL0     C40263   4.773   8.136   1.132  0.3072  0.5298  0.1413
  299MOL0     C40264   4.659   8.051   1.147  0.8501 -1.2672  0.1494
  299MOL0     O40265   4.604   7.963   1.059  0.2070  0.3173  0.4187
  299MOL0     C40266   4.700   7.896   0.982  0.3996 -0.0165 -0.0965
  299MOL0     C40267   4.614   7.798   0.906 -0.2551  0.8052  0.8212
  299MOL0     C40268   4.599   7.848   0.762  0.0460  0.3427  0.5096
  299MOL0     C40269   4.531   7.744   0.671 -0.4129  0.0811 -0.4352
  299MOL0     C40270   4.374   7.727   0.687 -0.1640 -0.3477 -0.8108
  299MOL0     C40271   4.314   7.601   0.634 -0.3931 -0.1370  0.5315
  299MOL0     C40272   4.312   7.573   0.480 -0.1369 -0.5509  0.9548
  299MOL0     C40273   4.252   7.682   0.390  0.8553  0.0951 -0.1958
  299MOL0    Cl40274   4.218   7.610   0.236 -0.0416  0.2935  0.0393
  299MOL0     C40275   4.588   8.058   1.278 -0.6212  0.5288  0.1152
  299MOL0     C40276   4.635   8.135   1.386 -0.5731  0.4602 -0.1004
  299MOL0     O40277   4.639   8.323   1.618  0.7089  0.3563 -0.3505
  299MOL0     C40278   4.929   8.531   1.592  0.5087 -0.0613  0.0852
  299MOL0     C40279   4.988   8.634   1.665 -1.0451 -0.4553 -0.1208
  299MOL0     N40280   5.178   9.089   1.470 -0.5500  0.6428  0.6096
  299MOL0     N40281   5.230   9.120   1.358  0.5869 -0.4179 -0.9537
  299MOL0     C40282   5.893   9.025   0.568 -0.5402 -0.5449  0.0734
  299MOL0     C40283   6.004   8.983   0.488  0.7224  0.0477  0.4837
  299MOL0     C40284   6.444   8.964   0.334  0.5545 -0.4032 -1.2984
  299MOL0     C40285   6.468   8.997   0.201 -0.1250 -0.3467 -0.3549
  299MOL0     C40286   6.577   8.934   0.141  0.2572  1.1987  0.5133
  299MOL0     C40287   6.642   8.815   0.188 -0.4493  0.4690 -0.3565
  299MOL0     O40288   6.727   8.751   0.105 -0.3681 -0.5537  0.0381
  299MOL0     C40289   6.813   8.650   0.165  0.7003  0.9239  0.3247
  299MOL0     C40290   6.942   8.639   0.085 -0.2243  0.5750  1.0618
  299MOL0     C40291   7.042   8.541   0.154  0.2648 -0.7596 -0.0270
  299MOL0     C40292   7.041   8.412   0.071  0.3083 -0.4164  0.3186
  299MOL0     C40293   7.122   8.301   0.127  1.3332 -0.4159  0.0199
  299MOL0     C40294   7.176   8.204   0.170 -0.1199  0.8683 -0.2457
  299MOL0     C40295   6.599   8.777   0.317  0.0105  0.9890  0.1710
  299MOL0     C40296   6.508   8.854   0.400  0.1662 -0.0032 -0.9242
  299MOL0     C40297   6.479   8.811   0.538  0.0225 -1.1027  0.2721
  299MOL0     H40298   6.254   9.108   0.681  0.1304  0.0842 -0.3324
  299MOL0     H40299   6.067   9.165   0.822 -3.4219 -0.2655 -0.0207
  299MOL0     H40300   5.768   9.296   0.891  4.0232 -0.3661 -0.0704
  299MOL0     H40301   5.835   9.330   0.733 -0.2284 -2.3480 -2.3013
  299MOL0     H40302   5.563   9.185   0.766 -1.8307  0.2517  1.1646
  299MOL0     H40303   5.646   9.229   0.614  0.5305 -0.2627  0.5272
  299MOL0     H40304   5.466   9.397   0.690  0.5087 -4.5484 -1.6489
  299MOL0     H40305   5.627   9.471   0.684 -0.7970  0.4388  0.6222
  299MOL0     H40306   5.646   9.471   0.931  0.0943  2.3634  0.0434
  299MOL0     H40307   5.493   9.559   0.867 -3.1732 -1.0916  0.9130
  299MOL0     H40308   5.367   9.357   0.937  0.1931  0.7032 -0.0525
  299MOL0     H40309   5.519   9.288   1.003 -1.6855 -1.3226  2.0257
  299MOL0     H40310   5.534   9.510   1.133  0.1956 -0.9421  1.0978
  299MOL0     H40311   5.383   9.562   1.073  1.4347  0.0546 -1.4239
  299MOL0     H40312   5.245   9.413   1.180  0.0048  2.5833  0.1153
  299MOL0     H40313   5.353   9.488   1.291  1.3885  2.0057 -1.9115
  299MOL0     H40314   5.399   9.194   1.205  0.8849 -0.8944  1.0404
  299MOL0     H40315   5.500   9.295   1.299 -0.3004 -0.4960 -0.7583
  299MOL0     H40316   5.346   9.362   1.541 -2.7257  1.1100 -0.1443
  299MOL0     H40317   5.276   9.269   1.765 -1.3613  2.0523  1.1741
  299MOL0     H40318   5.107   9.243   1.740 -0.9570 -2.5681 -0.8919
  299MOL0     H40319   5.310   9.012   1.743 -1.7770  0.0971 -5.5199
  299MOL0     H40320   5.229   9.089   1.885 -2.5351  0.4761  0.7060
  299MOL0     H40321   5.082   8.941   1.661  2.7306 -3.1568  1.7402
  299MOL0     H40322   5.011   9.032   1.799  1.6795 -0.0174  1.1138
  299MOL0     H40323   5.126   8.880   1.949  1.3150 -1.0258  0.3429
  299MOL0     H40324   5.177   8.787   1.807  0.3460  0.4021  2.5755
  299MOL0     H40325   4.773   8.652   1.923 -0.6414  1.8983 -0.3704
  299MOL0     H40326   4.665   8.474   1.790 -0.1806 -0.7513 -1.1851
  299MOL0     H40327   4.894   8.276   1.219  0.9726 -2.3875 -3.5622
  299MOL0     H40328   4.841   8.126   1.048 -1.4483  1.3120 -1.4428
  299MOL0     H40329   4.762   7.955   0.914  2.2436 -2.2895 -0.5256
  299MOL0     H40330   4.776   7.845   1.042  1.0477 -1.6911 -2.2191
  299MOL0     H40331   4.666   7.704   0.890 -0.7702  0.9934 -2.7289
  299MOL0     H40332   4.519   7.773   0.955  0.0613 -2.8672 -0.1993
  299MOL0     H40333   4.542   7.940   0.763 -2.9596 -1.3566 -1.0646
  299MOL0     H40334   4.698   7.875   0.723  0.1116  0.4409  0.7482
  299MOL0     H40335   4.584   7.651   0.692 -0.1973  0.1110 -0.8204
  299MOL0     H40336   4.545   7.769   0.565  0.3727 -0.3581 -0.4454
  299MOL0     H40337   4.316   7.804   0.635  0.2001  1.8468  1.8200
  299MOL0     H40338   4.353   7.738   0.793 -1.3785  1.8453 -1.2055
  299MOL0     H40339   4.363   7.518   0.685 -0.1077  1.0017  2.2122
  299MOL0     H40340   4.207   7.598   0.655 -0.8641  2.1034 -1.1618
  299MOL0     H40341   4.261   7.480   0.454 -3.8245  1.5997 -0.3612
  299MOL0     H40342   4.414   7.550   0.450 -0.8192 -0.9873 -1.1972
  299MOL0     H40343   4.159   7.718   0.437  2.2029  3.0477  0.4713
  299MOL0     H40344   4.311   7.773   0.373 -0.4274  0.6983 -1.6739
  299MOL0     H40345   4.511   7.981   1.272 -0.1584  0.1574 -1.6551
  299MOL0     H40346   4.593   8.119   1.485 -0.0659 -2.5055 -0.2780
  299MOL0     H40347   4.968   8.514   1.492  3.0825 -0.1211  1.0051
  299MOL0     H40348   5.088   8.667   1.639 -1.5336  1.1911  0.0250
  299MOL0     H40349   5.797   8.999   0.525 -0.0970  0.5634 -1.6693
  299MOL0     H40350   5.983   8.947   0.388 -0.3274 -1.0466  1.0849
  299MOL0     H40351   6.419   9.079   0.151 -2.4942 -0.1852  1.9776
  299MOL0     H40352   6.603   8.961   0.040  1.1090  2.4692  1.0476
  299MOL0     H40353   6.762   8.554   0.155  0.0495  1.3762 -0.8332
  299MOL0     H40354   6.835   8.661   0.272 -3.8146 -3.2070  2.0522
  299MOL0     H40355   6.984   8.739   0.075  2.6247 -0.5360  1.1834
  299MOL0     H40356   6.911   8.608  -0.015 -1.8568 -2.5354  2.3955
  299MOL0     H40357   7.024   8.516   0.259  1.3921 -1.4217  0.0170
  299MOL0     H40358   7.145   8.576   0.149  0.4776 -1.4207 -0.4485
  299MOL0     H40359   6.940   8.371   0.064 -0.7432  1.9549  0.8095
  299MOL0     H40360   7.088   8.431  -0.026  0.9220 -1.6034  0.3637
  299MOL0     H40361   7.235   8.126   0.214 -1.1337 -0.5714 -1.3215
  299MOL0     H40362   6.639   8.679   0.344  0.8341  1.8295  2.1664
  299MOL0     H40363   6.550   8.731   0.559  4.2813  2.7943  2.7382
  299MOL0     H40364   6.478   8.893   0.611  2.4968  1.2520 -2.0604
  299MOL0     H40365   6.374   8.781   0.544 -0.4070  0.3823  0.6975
  300MOL0     O40366   1.517   8.843   8.373 -0.0917  0.2221  0.7498
  300MOL0     C40367   1.439   8.853   8.274 -0.4105  0.8521  0.0527
  300MOL0     O40368   1.339   8.935   8.264 -0.0077 -0.1154 -0.5937
  300MOL0     C40369   1.295   8.989   8.381  0.1321  0.5767  0.1626
  300MOL0     C40370   1.321   9.122   8.402 -0.6963 -0.1138 -0.9744
  300MOL0     C40371   1.307   9.179   8.530 -0.4579 -0.7297 -0.5264
  300MOL0     C40372   1.247   9.109   8.641  0.0740  0.2666 -0.1128
  300MOL0     O40373   1.238   9.158   8.765 -1.0197  0.0542  0.2043
  300MOL0     C40374   1.174   9.088   8.867 -0.8498  0.4592 -0.3002
  300MOL0     C40375   1.025   9.064   8.852  0.2575  0.4474  0.0758
  300MOL0     C40376   0.943   9.061   8.983  0.0628 -0.2602 -0.2766
  300MOL0     C40377   0.793   9.036   8.951 -0.4968 -0.3642 -0.3051
  300MOL0     C40378   0.713   9.173   8.941 -0.0260  0.1056  0.6834
  300MOL0     C40379   0.570   9.135   8.925  0.9564 -0.5077  0.4033
  300MOL0     C40380   0.479   9.258   8.940  0.4229  0.0830  0.1504
  300MOL0     C40381   0.350   9.224   8.859 -0.9857 -0.6664 -0.2363
  300MOL0     N40382   0.276   9.106   8.908  0.1653  0.7759  0.0012
  300MOL0     C40383   0.259   9.072   9.045  0.5400  0.7231  0.3703
  300MOL0     C40384   0.160   8.981   9.042 -0.1531 -0.8340 -0.0777
  300MOL0     C40385   0.077   8.954   9.156  0.7788 -0.5518 -0.1448
  300MOL0     C40386   0.104   8.807   9.201  0.0920  0.5964 -0.4953
  300MOL0     C40387   0.247   8.781   9.253  0.3133 -0.7326  0.0378
  300MOL0     C40388   0.245   8.661   9.347  0.8801  0.0545 -0.7196
  300MOL0     O40389   0.165   8.695   9.466 -0.9071 -0.1068  0.0423
  300MOL0     C40390   0.173   8.593   9.560  0.4967 -0.7032  0.8269
  300MOL0     C40391   0.173   8.631   9.694 -0.7385 -0.8542 -0.5416
  300MOL0     C40392   0.194   8.533   9.793 -0.4549 -0.2605  0.2130
  300MOL0     C40393   0.202   8.393   9.765  0.1988  0.2271 -0.0715
  300MOL0     C40394   0.258   8.294   9.866 -1.0393 -0.2398  0.3997
  300MOL0     O40395   0.221   8.336   9.988 -0.2822  0.6853 -0.0893
  300MOL0     C40396   0.254   8.246  10.088 -0.6532 -0.8496  0.0541
  300MOL0     C40397   0.362   8.280  10.178 -0.7096  0.0868 -0.1483
  300MOL0     C40398   0.370   8.210  10.305 -0.1215  0.6795  0.2778
  300MOL0     C40399   0.272   8.117  10.340  0.5326  1.3968 -0.1907
  300MOL0     O40400   0.254   8.070  10.469 -1.1782  0.6815  0.3913
  300MOL0     C40401   0.310   8.139  10.581 -0.8056 -0.6374  0.1362
  300MOL0     C40402   0.269   8.073  10.710 -0.2926  0.9249 -0.5301
  300MOL0     C40403   0.338   7.937  10.709 -0.5833  0.6995 -0.0231
  300MOL0     C40404   0.481   7.935  10.752 -0.2744 -1.1372 -0.2125
  300MOL0     C40405   0.560   7.804  10.720  0.9077  0.0822  0.5665
  300MOL0     C40406   0.587   7.806  10.578 -0.1493  0.0910  0.0026
  300MOL0     C40407   0.649   7.671  10.519 -0.5680  0.2332 -1.0864
  300MOL0     C40408   0.800   7.690  10.539 -0.0720  0.3207 -0.3998
  300MOL0    Cl40409   0.864   7.523  10.557  0.3112  0.0991  0.1465
  300MOL0     C40410   0.184   8.068  10.242 -0.1175  0.3135 -0.3482
  300MOL0     C40411   0.161   8.144  10.120  0.5034 -0.0873 -0.0318
  300MOL0     O40412   0.308   8.188   9.835 -0.3385  0.6768 -0.2804
  300MOL0     C40413   0.177   8.355   9.629  0.6891  0.5549 -0.4325
  300MOL0     C40414   0.171   8.459   9.535 -0.4092 -0.6188 -0.0128
  300MOL0     N40415   0.118   8.970   8.910  1.0158  0.6625 -0.4511
  300MOL0     N40416   0.191   9.034   8.830 -0.3057 -0.5140 -0.5602
  300MOL0     C40417   1.217   8.974   8.608  0.1032  0.6048 -0.2201
  300MOL0     C40418   1.242   8.912   8.486  0.5076  0.0108  0.0588
  300MOL0     C40419   1.451   8.760   8.163  0.5941  0.4215 -0.1691
  300MOL0     C40420   1.581   8.697   8.150 -0.2691  0.4458  0.6889
  300MOL0     C40421   1.597   8.605   8.052 -0.6648 -0.3909  0.4811
  300MOL0     C40422   1.496   8.573   7.958  0.1073  0.3901 -0.2278
  300MOL0     O40423   1.525   8.502   7.848  0.1584  0.3234  0.7736
  300MOL0     C40424   1.417   8.427   7.801 -0.1882 -0.3510 -0.3770
  300MOL0     C40425   1.470   8.324   7.698  0.5246 -0.0437 -1.3142
  300MOL0     C40426   1.348   8.271   7.609 -1.2126  0.3689 -0.4045
  300MOL0     C40427   1.393   8.158   7.513  0.6568 -0.6727 -0.7173
  300MOL0     C40428   1.453   8.041   7.588 -0.7003 -0.4105 -0.2177
  300MOL0     C40429   1.500   7.945   7.647  1.3250  0.2497 -0.2555
  300MOL0     C40430   1.373   8.639   7.968 -0.7054  0.7785 -0.1069
  300MOL0     C40431   1.349   8.731   8.070 -0.1828  0.2163 -1.2068
  300MOL0     C40432   1.209   8.791   8.068  0.1693 -0.2987 -0.3557
  300MOL0     H40433   1.362   9.187   8.325 -0.7955  2.6740  1.1629
  300MOL0     H40434   1.346   9.278   8.550 -3.6365  0.4972  0.2847
  300MOL0     H40435   1.215   8.988   8.881  1.8059  1.1495 -2.3639
  300MOL0     H40436   1.177   9.136   8.966  0.0467  0.6510 -0.4129
  300MOL0     H40437   1.025   8.962   8.814  0.9103  0.3010  0.4486
  300MOL0     H40438   0.979   9.133   8.781 -1.2269  1.7976  2.2344
  300MOL0     H40439   0.956   9.154   9.038  3.1170  1.0101 -2.7939
  300MOL0     H40440   0.984   8.973   9.034  1.2518 -1.5125 -3.1523
  300MOL0     H40441   0.782   8.985   8.856 -1.2706 -0.7497 -0.0147
  300MOL0     H40442   0.754   8.973   9.031  2.8248 -0.8420  1.1064
  300MOL0     H40443   0.728   9.233   9.032  3.5339  0.1016  0.2446
  300MOL0     H40444   0.736   9.228   8.849 -1.9428  0.2188  0.2279
  300MOL0     H40445   0.557   9.086   8.828  0.0071 -0.8492  0.6945
  300MOL0     H40446   0.540   9.069   9.007  0.3513  0.6411  1.1313
  300MOL0     H40447   0.539   9.343   8.905  1.5838 -1.3863 -1.6238
  300MOL0     H40448   0.445   9.263   9.044 -0.7875  1.5976 -0.2959
  300MOL0     H40449   0.304   9.323   8.854  5.2687  2.7544 -2.2947
  300MOL0     H40450   0.388   9.201   8.758  0.8538 -2.0085  0.6981
  300MOL0     H40451   0.299   9.121   9.133 -2.3180  1.8270  1.1857
  300MOL0     H40452   0.107   9.023   9.236 -0.6904 -0.2421  0.1753
  300MOL0     H40453  -0.029   8.966   9.132  0.9300  5.1807  0.5976
  300MOL0     H40454   0.039   8.782   9.286  1.8010 -1.1528  0.3542
  300MOL0     H40455   0.068   8.728   9.135 -1.8992  0.0290  1.1487
  300MOL0     H40456   0.276   8.871   9.307 -3.6718  0.2922  0.7884
  300MOL0     H40457   0.320   8.760   9.173 -0.9493  0.2058 -1.4075
  300MOL0     H40458   0.345   8.632   9.381  0.1937 -1.0210  0.4935
  300MOL0     H40459   0.198   8.579   9.293 -2.1726  0.5794  0.9270
  300MOL0     H40460   0.171   8.737   9.718  4.1944 -0.1469 -2.0688
  300MOL0     H40461   0.221   8.580   9.887  2.2191 -1.2917  0.0470
  300MOL0     H40462   0.439   8.354  10.159  3.0048 -3.1010  1.2879
  300MOL0     H40463   0.449   8.216  10.379 -0.9881 -2.3951  1.6267
  300MOL0     H40464   0.416   8.163  10.580 -0.8122 -0.5889 -1.0435
  300MOL0     H40465   0.266   8.239  10.572 -0.7543 -0.7419 -1.8105
  300MOL0     H40466   0.321   8.133  10.786  4.3310 -3.1794  0.0164
  300MOL0     H40467   0.160   8.060  10.711 -0.1886 -0.0442 -0.8824
  300MOL0     H40468   0.294   7.882  10.792  1.1627 -2.1807 -0.8438
  300MOL0     H40469   0.327   7.879  10.616  2.7819 -0.9615  0.4396
  300MOL0     H40470   0.477   7.967  10.856  0.3604  2.2780 -1.1112
  300MOL0     H40471   0.531   8.024  10.713  2.2154 -0.3493  4.1241
  300MOL0     H40472   0.517   7.707  10.746 -1.1795  0.4303 -1.2181
  300MOL0     H40473   0.654   7.814  10.775  0.9731  2.8936  0.1043
  300MOL0     H40474   0.492   7.824  10.526 -0.2394  1.1665  0.5172
  300MOL0     H40475   0.652   7.892  10.561  1.3795 -0.7003  1.5352
  300MOL0     H40476   0.619   7.657  10.415 -0.7347  1.3871 -1.2109
  300MOL0     H40477   0.606   7.586  10.572 -1.8338  3.0125  2.7943
  300MOL0     H40478   0.850   7.743  10.457 -4.7889 -0.1974 -4.0925
  300MOL0     H40479   0.818   7.747  10.630  1.9560  0.5578 -0.8993
  300MOL0     H40480   0.127   7.982  10.276  1.2546 -0.4690  0.0891
  300MOL0     H40481   0.080   8.128  10.050 -2.5116  4.6929  1.8489
  300MOL0     H40482   0.168   8.247   9.616 -0.6475  0.3520  1.6137
  300MOL0     H40483   0.167   8.431   9.431  1.5298  0.2177 -0.3724
  300MOL0     H40484   1.170   8.910   8.682  1.7439 -0.9348 -0.4391
  300MOL0     H40485   1.222   8.806   8.478  0.5473  0.1311 -2.4772
  300MOL0     H40486   1.663   8.721   8.218 -1.4481 -0.5338  2.5589
  300MOL0     H40487   1.700   8.571   8.040 -0.2346  1.7699 -3.7452
  300MOL0     H40488   1.350   8.492   7.743  1.6464  0.1991 -1.9830
  300MOL0     H40489   1.369   8.380   7.888  1.3766 -0.1374  0.6286
  300MOL0     H40490   1.530   8.247   7.745 -0.7359 -0.6278 -0.5980
  300MOL0     H40491   1.524   8.372   7.615 -1.6387  0.3698 -2.5838
  300MOL0     H40492   1.294   8.353   7.562 -0.6229  1.0181  0.0299
  300MOL0     H40493   1.293   8.221   7.689  2.2127 -0.7433  1.4678
  300MOL0     H40494   1.305   8.125   7.457  0.5301 -0.1979 -0.8022
  300MOL0     H40495   1.473   8.196   7.449  1.1373 -2.0063 -0.9374
  300MOL0     H40496   1.534   7.859   7.701 -2.3788 -1.2547 -0.0172
  300MOL0     H40497   1.283   8.610   7.915 -2.8230  1.0065  3.0573
  300MOL0     H40498   1.161   8.769   8.164  1.6866 -1.9659  0.0728
  300MOL0     H40499   1.210   8.898   8.049 -1.0257 -0.2400 -0.2104
  300MOL0     H40500   1.150   8.760   7.981  3.0292 -0.0780 -2.4960
  301MOL0     O40501   2.851   9.251   0.965  0.0844 -0.5076 -1.2373
  301MOL0     C40502   2.758   9.171   0.954  0.6982 -0.7072 -0.0327
  301MOL0     O40503   2.766   9.048   0.906 -0.3147 -0.3731  1.0969
  301MOL0     C40504   2.885   8.991   0.868  0.5530  0.4088  0.4745
  301MOL0     C40505   2.988   9.053   0.789 -0.4045  0.6495  1.2890
  301MOL0     C40506   3.113   8.983   0.783 -0.2780  0.4349  0.4392
  301MOL0     C40507   3.131   8.850   0.833  0.5031 -0.3955  0.2647
  301MOL0     O40508   3.248   8.776   0.830  0.1236  0.2113  0.0612
  301MOL0     C40509   3.350   8.793   0.726 -0.3644  0.3776 -0.2209
  301MOL0     C40510   3.486   8.720   0.761 -0.2501  0.8307 -0.3861
  301MOL0     C40511   3.481   8.567   0.790  0.3678 -0.0878 -0.9923
  301MOL0     C40512   3.424   8.497   0.661  0.0081 -0.1155 -1.5963
  301MOL0     C40513   3.481   8.362   0.667 -0.0851  0.4585 -0.3908
  301MOL0     C40514   3.435   8.266   0.553  0.7703  0.3740  0.7176
  301MOL0     C40515   3.301   8.210   0.600 -0.0416  0.1022 -0.0943
  301MOL0     C40516   3.210   8.145   0.498  0.0698  0.2216 -0.2827
  301MOL0     N40517   3.248   8.003   0.463 -0.6440 -0.4694  0.2362
  301MOL0     C40518   3.373   7.971   0.428 -0.4254  0.3035 -0.2112
  301MOL0     C40519   3.382   7.835   0.433 -0.3584  0.8795  0.0222
  301MOL0     C40520   3.507   7.776   0.389  0.3254  0.1542 -0.4182
  301MOL0     C40521   3.567   7.686   0.487 -0.3260  0.6143  0.6028
  301MOL0     C40522   3.684   7.601   0.434 -0.3535  0.0197 -0.0394
  301MOL0     C40523   3.646   7.459   0.375 -0.7368 -0.8049  0.3479
  301MOL0     O40524   3.548   7.473   0.271  0.5857  0.2201  0.9896
  301MOL0     C40525   3.584   7.392   0.156  0.6250 -0.9803  0.1652
  301MOL0     C40526   3.714   7.389   0.095  0.3529 -0.3298  0.7580
  301MOL0     C40527   3.733   7.291  -0.013 -0.2169  0.4233  0.2788
  301MOL0     C40528   3.633   7.199  -0.049  0.6987  0.8428 -0.9007
  301MOL0     C40529   3.652   7.085  -0.141 -0.1010 -0.8660  0.8551
  301MOL0     O40530   3.563   6.983  -0.158 -0.0414 -0.6009 -0.0673
  301MOL0     C40531   3.482   6.982  -0.273  0.0415 -0.4057  0.2039
  301MOL0     C40532   3.481   6.859  -0.350  0.7681  0.0274  0.4757
  301MOL0     C40533   3.393   6.853  -0.457 -0.6822 -0.6004  0.0617
  301MOL0     C40534   3.315   6.968  -0.497  0.9874 -0.1466 -0.4997
  301MOL0     O40535   3.242   6.962  -0.613 -0.5659  0.7670 -0.4169
  301MOL0     C40536   3.301   7.036  -0.731 -0.5074 -0.6859 -0.0848
  301MOL0     C40537   3.422   6.962  -0.790  0.6280  0.8389  0.3089
  301MOL0     C40538   3.501   7.046  -0.894  0.7279  0.6716  0.8803
  301MOL0     C40539   3.609   6.964  -0.967 -0.4480 -0.3116  0.0648
  301MOL0     C40540   3.696   7.058  -1.045 -0.7237 -0.1520 -0.3039
  301MOL0     C40541   3.801   6.982  -1.124  0.6418 -0.4971 -0.2387
  301MOL0     C40542   3.882   7.088  -1.205 -0.1010 -0.5344 -0.3278
  301MOL0     C40543   3.999   7.023  -1.283 -0.7368 -0.2936  0.1855
  301MOL0    Cl40544   3.972   6.869  -1.373 -0.3404 -0.2231 -0.3603
  301MOL0     C40545   3.325   7.086  -0.417  0.7223  0.5650  1.0652
  301MOL0     C40546   3.407   7.093  -0.305  0.0139  0.4616  1.0399
  301MOL0     O40547   3.765   7.073  -0.186 -0.5974 -0.9795 -0.7227
  301MOL0     C40548   3.506   7.213   0.009  0.7096  0.4804  0.1232
  301MOL0     C40549   3.480   7.305   0.107  0.2831  0.3396  0.9113
  301MOL0     N40550   3.259   7.784   0.465  0.4310 -0.0234  0.1064
  301MOL0     N40551   3.183   7.888   0.480  0.2269 -0.8217 -0.5061
  301MOL0     C40552   3.014   8.795   0.904 -0.5209 -0.6913 -0.5666
  301MOL0     C40553   2.896   8.863   0.921 -0.2916  0.3990  0.0546
  301MOL0     C40554   2.620   9.218   0.972  0.8651  0.0627  0.2243
  301MOL0     C40555   2.510   9.159   0.905 -0.4711 -0.2840  0.8534
  301MOL0     C40556   2.392   9.227   0.891 -0.0141  0.0269  0.4671
  301MOL0     C40557   2.365   9.358   0.952 -0.9276  0.0334  0.6469
  301MOL0     O40558   2.259   9.445   0.933 -0.0710 -0.3226  0.8686
  301MOL0     C40559   2.144   9.407   1.005  0.1744  0.0044  0.4617
  301MOL0     C40560   2.051   9.528   0.969 -0.4172  0.5002  0.3685
  301MOL0     C40561   1.945   9.525   1.079  0.2960 -0.9024 -0.7030
  301MOL0     C40562   1.840   9.633   1.043  0.3958  0.1475  0.3504
  301MOL0     C40563   1.761   9.678   1.156  0.6717  0.2325  0.9640
  301MOL0     C40564   1.709   9.714   1.261 -0.2208 -0.3079 -0.0972
  301MOL0     C40565   2.461   9.389   1.051  0.9422 -1.3324 -0.1156
  301MOL0     C40566   2.582   9.324   1.057  0.7052 -0.0720 -0.0236
  301MOL0     C40567   2.688   9.366   1.155 -0.4881  0.4519  0.4530
  301MOL0     H40568   2.975   9.151   0.744  1.5726  0.4441  0.1115
  301MOL0     H40569   3.191   9.016   0.715 -0.7275 -3.2374 -2.1915
  301MOL0     H40570   3.316   8.735   0.640 -0.9200  0.7335 -0.2465
  301MOL0     H40571   3.374   8.899   0.709 -0.3399  0.9110  2.6339
  301MOL0     H40572   3.541   8.767   0.843  1.8548 -2.9870  0.6254
  301MOL0     H40573   3.554   8.732   0.676  0.4102  0.7406  0.1188
  301MOL0     H40574   3.417   8.549   0.877 -2.2296  2.8424 -2.0690
  301MOL0     H40575   3.580   8.529   0.816 -0.4223 -1.0804  0.7508
  301MOL0     H40576   3.315   8.500   0.662 -0.0016 -0.5011 -1.2186
  301MOL0     H40577   3.461   8.555   0.576 -0.6746 -1.2527 -2.7099
  301MOL0     H40578   3.590   8.364   0.658 -0.0534  0.8249  0.0132
  301MOL0     H40579   3.445   8.320   0.762 -0.0168  2.4584  0.5774
  301MOL0     H40580   3.425   8.310   0.454 -2.7368  3.1192  2.0743
  301MOL0     H40581   3.506   8.183   0.550  0.1277 -0.1920 -3.0438
  301MOL0     H40582   3.244   8.293   0.642 -2.0061  0.2529 -2.7974
  301MOL0     H40583   3.337   8.130   0.666  1.9581 -0.3728 -1.6373
  301MOL0     H40584   3.108   8.145   0.535  0.3755  0.5158  0.5782
  301MOL0     H40585   3.223   8.211   0.411 -0.5442  0.9545  0.1707
  301MOL0     H40586   3.459   8.030   0.399  0.5055 -1.5354 -1.3267
  301MOL0     H40587   3.472   7.705   0.314 -2.1236 -1.9202  2.4451
  301MOL0     H40588   3.571   7.852   0.343 -0.3004 -0.2256 -1.9854
  301MOL0     H40589   3.624   7.742   0.563  2.7424  0.3964 -1.3395
  301MOL0     H40590   3.496   7.624   0.541  3.0369 -1.8558  2.6350
  301MOL0     H40591   3.765   7.594   0.507 -0.1909 -0.4811 -0.2656
  301MOL0     H40592   3.732   7.662   0.357  2.8207 -0.0724  1.7097
  301MOL0     H40593   3.606   7.395   0.453 -2.1294 -1.8948 -1.1992
  301MOL0     H40594   3.738   7.407   0.347  0.0355  0.8608 -0.3931
  301MOL0     H40595   3.798   7.453   0.122 -2.3612  3.4903  1.0241
  301MOL0     H40596   3.828   7.286  -0.065 -1.0565  0.6631 -1.3742
  301MOL0     H40597   3.559   6.785  -0.338  1.2932  0.0328 -2.2748
  301MOL0     H40598   3.388   6.762  -0.516 -2.8356 -2.6781  3.1400
  301MOL0     H40599   3.236   7.064  -0.814  0.8495  2.7523 -0.1375
  301MOL0     H40600   3.331   7.130  -0.685  2.4644 -2.4234  1.8983
  301MOL0     H40601   3.485   6.932  -0.706  0.3859 -2.1495 -0.4715
  301MOL0     H40602   3.374   6.876  -0.839  0.2411  1.0994  0.2248
  301MOL0     H40603   3.439   7.095  -0.970 -1.0072  2.0690  3.0776
  301MOL0     H40604   3.550   7.126  -0.839  3.1341  0.2482 -0.5391
  301MOL0     H40605   3.567   6.892  -1.038 -2.1309  1.6273 -1.0017
  301MOL0     H40606   3.668   6.918  -0.886 -0.9569  2.7425  2.3214
  301MOL0     H40607   3.756   7.115  -0.973 -0.9795 -1.4313  0.9724
  301MOL0     H40608   3.637   7.116  -1.116 -1.0728 -0.9756 -0.7088
  301MOL0     H40609   3.859   6.926  -1.050  5.5626  0.4810 -2.9669
  301MOL0     H40610   3.754   6.908  -1.189 -0.5490  0.6449 -0.7284
  301MOL0     H40611   3.920   7.168  -1.140  2.6926 -1.3119 -0.8738
  301MOL0     H40612   3.803   7.122  -1.272 -2.4306  1.9283  3.3099
  301MOL0     H40613   4.019   7.101  -1.358 -0.6610  0.3039  0.8162
  301MOL0     H40614   4.077   7.018  -1.207 -2.3190 -0.3416  1.9046
  301MOL0     H40615   3.267   7.173  -0.446  0.5503  0.2621  0.4782
  301MOL0     H40616   3.391   7.189  -0.255 -2.3494  2.1004 -2.4320
  301MOL0     H40617   3.432   7.147  -0.036  3.9426 -3.1458 -0.4087
  301MOL0     H40618   3.383   7.315   0.156 -1.1288 -1.9375 -1.1872
  301MOL0     H40619   3.000   8.690   0.926 -1.0228 -1.0896 -2.5749
  301MOL0     H40620   2.813   8.814   0.970 -0.0548 -1.0517 -0.9258
  301MOL0     H40621   2.536   9.065   0.858 -2.5474  0.5127 -2.2161
  301MOL0     H40622   2.329   9.190   0.811  2.6274  1.4301 -2.5015
  301MOL0     H40623   2.173   9.391   1.110 -0.5944 -1.1079  0.5269
  301MOL0     H40624   2.115   9.310   0.964  0.8833  0.2733 -0.7113
  301MOL0     H40625   2.005   9.509   0.872 -3.2866 -4.1939  2.2866
  301MOL0     H40626   2.108   9.620   0.980  3.6743 -1.6082 -1.0635
  301MOL0     H40627   1.999   9.551   1.171 -1.1483 -2.8878  0.7856
  301MOL0     H40628   1.909   9.423   1.089 -0.5785 -0.5772 -0.4082
  301MOL0     H40629   1.896   9.717   1.002 -0.0342 -0.5463 -1.7960
  301MOL0     H40630   1.774   9.604   0.960  3.4399 -0.0099 -2.1959
  301MOL0     H40631   1.655   9.730   1.352  0.8254 -4.3150  1.4234
  301MOL0     H40632   2.454   9.482   1.106  0.8494 -0.5657 -1.3607
  301MOL0     H40633   2.764   9.421   1.099 -1.1904 -0.3800 -1.4053
  301MOL0     H40634   2.651   9.433   1.233  1.3000  0.9162  0.9453
  301MOL0     H40635   2.734   9.283   1.209  1.1377 -0.7649 -2.5489
  302MOL0     O40636   0.585   8.893  11.288  0.3851 -0.9440 -0.7231
  302MOL0     C40637   0.474   8.836  11.293 -0.7069  0.7736  0.4694
  302MOL0     O40638   0.433   8.735  11.210  0.7491  0.1916 -0.2000
  302MOL0     C40639   0.505   8.722  11.095 -0.0304  0.4634 -0.1493
  302MOL0     C40640   0.424   8.715  10.971 -0.3171 -0.1963 -1.1031
  302MOL0     C40641   0.493   8.701  10.849 -0.7848 -0.0163  0.1719
  302MOL0     C40642   0.632   8.707  10.836 -0.1772  0.0883  0.5712
  302MOL0     O40643   0.684   8.702  10.709  0.1773  0.3329 -0.0552
  302MOL0     C40644   0.824   8.691  10.693 -0.0274 -0.4192 -0.8456
  302MOL0     C40645   0.868   8.700  10.553 -0.2552 -0.8708  0.4273
  302MOL0     C40646   1.018   8.681  10.548 -0.4497 -0.6600  1.1321
  302MOL0     C40647   1.076   8.672  10.401  0.8003  0.3701 -0.3762
  302MOL0     C40648   1.226   8.674  10.416 -0.6403 -0.9854  0.5954
  302MOL0     C40649   1.301   8.695  10.286 -0.8797  0.4172  0.4293
  302MOL0     C40650   1.288   8.590  10.169 -0.7484  0.2349  0.2235
  302MOL0     C40651   1.420   8.509  10.161 -0.0424 -0.1631 -0.5106
  302MOL0     N40652   1.467   8.453  10.031 -0.3264  0.2937 -0.3434
  302MOL0     C40653   1.380   8.388   9.946  0.2608  0.2199  0.7265
  302MOL0     C40654   1.449   8.345   9.839 -0.5850  0.7725 -0.7098
  302MOL0     C40655   1.385   8.251   9.741  0.5734  0.1653 -0.7283
  302MOL0     C40656   1.424   8.298   9.597 -0.6932 -0.0097 -0.4949
  302MOL0     C40657   1.345   8.413   9.553  0.0096 -0.2280  0.6651
  302MOL0     C40658   1.373   8.440   9.406 -0.2537  1.1371 -1.3199
  302MOL0     O40659   1.288   8.542   9.359 -0.0556 -1.0980  0.4748
  302MOL0     C40660   1.242   8.552   9.230 -0.0620  0.6121 -1.0274
  302MOL0     C40661   1.206   8.680   9.186  0.6433 -0.0521 -0.4940
  302MOL0     C40662   1.132   8.695   9.068  0.0383  0.3857  0.3061
  302MOL0     C40663   1.095   8.586   8.993  1.0461 -0.0054 -0.2851
  302MOL0     C40664   1.001   8.594   8.878 -0.1510  0.1078  0.4679
  302MOL0     O40665   0.961   8.490   8.800  0.0733 -0.1641 -0.6292
  302MOL0     C40666   0.969   8.499   8.656 -0.3202 -0.7658 -0.8143
  302MOL0     C40667   0.879   8.416   8.594  0.2997  0.7141 -0.0874
  302MOL0     C40668   0.902   8.403   8.452 -0.8821 -0.2120 -0.2760
  302MOL0     C40669   0.987   8.492   8.377 -1.3352  0.5765 -0.4601
  302MOL0     O40670   1.001   8.502   8.234 -0.3682 -0.9587 -0.1721
  302MOL0     C40671   0.901   8.440   8.154 -0.0469 -1.1004  0.3130
  302MOL0     C40672   0.925   8.502   8.011  0.0985 -0.0954  0.2039
  302MOL0     C40673   0.836   8.437   7.907 -0.0618  0.1561  0.2546
  302MOL0     C40674   0.877   8.294   7.880  0.2800  0.0087 -0.3185
  302MOL0     C40675   0.804   8.246   7.759 -0.0487  1.1471  0.6221
  302MOL0     C40676   0.808   8.098   7.753  0.3151 -0.5005  0.8020
  302MOL0     C40677   0.753   8.048   7.614 -0.3982  0.6088 -0.1962
  302MOL0     C40678   0.850   8.050   7.504 -0.2532  0.1053  0.3753
  302MOL0    Cl40679   0.958   7.906   7.516  0.1865  0.1743 -0.2699
  302MOL0     C40680   1.075   8.570   8.450 -0.6597  0.4797 -0.0022
  302MOL0     C40681   1.057   8.579   8.582 -0.0709  0.1474  0.1282
  302MOL0     O40682   0.974   8.709   8.850 -0.5560 -0.6341  0.2277
  302MOL0     C40683   1.152   8.460   9.024  0.7514 -0.0583 -0.1704
  302MOL0     C40684   1.222   8.443   9.145 -0.4902 -0.3067 -0.9227
  302MOL0     N40685   1.578   8.388   9.851 -0.5743  0.1016 -1.4720
  302MOL0     N40686   1.588   8.450   9.971 -0.2508  0.5284  0.4425
  302MOL0     C40687   0.708   8.712  10.954 -0.4756  0.1023 -0.6315
  302MOL0     C40688   0.645   8.706  11.086 -1.2441  0.0145  1.5689
  302MOL0     C40689   0.382   8.881  11.399  1.0473  0.1767  0.1515
  302MOL0     C40690   0.241   8.866  11.389 -0.1339 -0.8037  0.1179
  302MOL0     C40691   0.154   8.902  11.495 -0.2902 -0.0179 -0.3679
  302MOL0     C40692   0.200   8.943  11.624 -0.2890  0.1604 -0.4604
  302MOL0     O40693   0.107   9.001  11.707 -0.3159 -0.3238  0.8664
  302MOL0     C40694   0.108   8.971  11.849 -0.4302 -0.0412  0.2171
  302MOL0     C40695   0.095   9.096  11.935 -0.9283 -0.3059  0.6416
  302MOL0     C40696   0.099   9.081  12.092 -0.2627  0.1393 -0.0571
  302MOL0     C40697   0.063   9.212  12.158  0.3477 -0.0980  0.2479
  302MOL0     C40698   0.066   9.199  12.306 -0.5709 -0.6585  0.1909
  302MOL0     C40699   0.051   9.185  12.426 -1.1040  0.1396  0.0438
  302MOL0     C40700   0.335   8.963  11.636  0.5286 -0.2267 -0.1853
  302MOL0     C40701   0.427   8.922  11.533  0.2960  0.3270  0.6135
  302MOL0     C40702   0.578   8.920  11.579 -0.1173  0.2583  0.5346
  302MOL0     H40703   0.316   8.715  10.970 -0.5501  1.8047  3.1091
  302MOL0     H40704   0.441   8.672  10.758  0.9074  1.2679 -1.3087
  302MOL0     H40705   0.863   8.774  10.752 -0.6797 -2.4176  2.6490
  302MOL0     H40706   0.860   8.598  10.739  1.3576  0.6619  0.3661
  302MOL0     H40707   0.845   8.798  10.511  1.5105 -0.3048  0.7034
  302MOL0     H40708   0.827   8.626  10.484  0.0567 -0.0508 -0.6665
  302MOL0     H40709   1.048   8.591  10.603  1.7995  0.2610  1.5389
  302MOL0     H40710   1.066   8.763  10.603 -0.3373  0.4531 -0.5493
  302MOL0     H40711   1.049   8.582  10.345 -0.6568  0.2039  0.5504
  302MOL0     H40712   1.045   8.755  10.337  0.5468  1.4932  1.1492
  302MOL0     H40713   1.254   8.760  10.477  1.9098 -0.4204 -1.2133
  302MOL0     H40714   1.272   8.586  10.464  3.3765  0.1508 -0.7760
  302MOL0     H40715   1.265   8.787  10.239 -0.8080 -0.2878 -1.0677
  302MOL0     H40716   1.402   8.724  10.318 -1.0863  0.6895  0.8415
  302MOL0     H40717   1.293   8.644  10.074 -1.0175  0.2305  0.2055
  302MOL0     H40718   1.201   8.524  10.175  0.3030 -1.1776  5.4192
  302MOL0     H40719   1.509   8.555  10.205 -0.8293 -1.4891  2.7511
  302MOL0     H40720   1.399   8.426  10.229 -5.9720  0.3460 -1.1543
  302MOL0     H40721   1.272   8.385   9.952  0.2678 -3.3813  1.2617
  302MOL0     H40722   1.431   8.152   9.749  3.9176  1.6193 -0.2008
  302MOL0     H40723   1.277   8.254   9.754  0.1032  1.4925 -4.0072
  302MOL0     H40724   1.532   8.314   9.588 -1.0872  1.6283 -3.0154
  302MOL0     H40725   1.396   8.211   9.537 -0.8043 -0.8520  0.7209
  302MOL0     H40726   1.353   8.502   9.616 -2.3015  0.4071  0.1774
  302MOL0     H40727   1.237   8.394   9.556  0.1734 -1.0986  2.6677
  302MOL0     H40728   1.362   8.347   9.349  0.8077  0.9154 -1.1805
  302MOL0     H40729   1.478   8.468   9.395 -0.1877  0.9892 -1.0790
  302MOL0     H40730   1.223   8.772   9.240 -3.0392 -0.4658  1.6396
  302MOL0     H40731   1.083   8.789   9.046  0.0867  0.3223 -0.0797
  302MOL0     H40732   0.811   8.365   8.662 -1.9776  2.2324 -1.0789
  302MOL0     H40733   0.834   8.339   8.397 -0.3383 -3.1247  2.1708
  302MOL0     H40734   0.928   8.334   8.147  0.2435 -0.9393 -1.7667
  302MOL0     H40735   0.801   8.454   8.195 -0.3137 -3.4258  0.5666
  302MOL0     H40736   0.911   8.610   8.011 -0.3640 -0.1379 -0.5767
  302MOL0     H40737   1.028   8.498   7.974 -0.4653  1.2110 -1.6607
  302MOL0     H40738   0.731   8.437   7.937 -0.9680 -2.5289 -2.3289
  302MOL0     H40739   0.828   8.493   7.814  1.3359 -1.4744 -0.9113
  302MOL0     H40740   0.846   8.220   7.955 -1.0353 -3.1443 -3.6699
  302MOL0     H40741   0.983   8.294   7.854  0.5823 -0.4923  0.8746
  302MOL0     H40742   0.847   8.285   7.667  0.0011  0.0268  0.1658
  302MOL0     H40743   0.701   8.283   7.765 -1.0016 -1.3760  1.1460
  302MOL0     H40744   0.911   8.064   7.765 -0.1822 -2.1779  0.4540
  302MOL0     H40745   0.759   8.053   7.839  3.0667 -0.9588  2.2506
  302MOL0     H40746   0.666   8.107   7.583  0.6396  2.2047 -0.1628
  302MOL0     H40747   0.723   7.944   7.634  0.8426  0.4591  1.0352
  302MOL0     H40748   0.795   8.051   7.409  0.0556 -1.6917  0.1519
  302MOL0     H40749   0.906   8.144   7.506  0.4822 -0.3246  0.5217
  302MOL0     H40750   1.148   8.634   8.401 -1.6067  2.5289  1.1197
  302MOL0     H40751   1.130   8.630   8.644  0.4818 -0.0882 -0.3220
  302MOL0     H40752   1.129   8.370   8.968 -1.6640  0.5305 -0.2145
  302MOL0     H40753   1.265   8.346   9.165 -0.3644 -0.0052  0.3545
  302MOL0     H40754   0.815   8.693  10.953 -0.8083 -2.2521  0.7466
  302MOL0     H40755   0.690   8.704  11.185 -2.9382  3.3224  2.5773
  302MOL0     H40756   0.210   8.822  11.295  1.5552 -1.8807  0.0309
  302MOL0     H40757   0.047   8.889  11.485 -0.4670 -2.2290  2.8131
  302MOL0     H40758   0.208   8.933  11.872 -0.9222 -2.2558 -0.9690
  302MOL0     H40759   0.028   8.904  11.883  1.0392 -0.8028  2.4027
  302MOL0     H40760   0.005   9.154  11.910 -0.6314 -0.7571 -1.6898
  302MOL0     H40761   0.178   9.162  11.907 -0.6286 -1.5629 -1.6573
  302MOL0     H40762   0.199   9.053  12.128  1.0896  0.8587 -2.9315
  302MOL0     H40763   0.026   9.002  12.111 -2.2951  2.0047  0.2140
  302MOL0     H40764   0.116   9.298  12.115  0.5278  0.3983  1.4243
  302MOL0     H40765  -0.043   9.229  12.138  0.2860 -0.5419  0.1987
  302MOL0     H40766   0.039   9.169  12.531 -0.0858 -0.1315  0.1270
  302MOL0     H40767   0.383   9.008  11.722  2.0727  0.1253 -1.1879
  302MOL0     H40768   0.579   8.928  11.689 -3.3307 -0.1101  0.6670
  302MOL0     H40769   0.633   8.839  11.531  0.0911  1.4189 -1.2813
  302MOL0     H40770   0.622   9.017  11.555 -0.4937  0.2290 -0.2776
  303MOL0     O40771   4.066  10.744   2.933 -0.1624  0.6625  0.0406
  303MOL0     C40772   3.976  10.800   2.864 -0.1920 -0.7006 -0.0559
  303MOL0     O40773   3.844  10.777   2.882 -0.1464  0.8508  0.1567
  303MOL0     C40774   3.807  10.716   3.006  0.2782  0.1737  0.7504
  303MOL0     C40775   3.746  10.585   3.007 -0.1241 -0.4854  0.4943
  303MOL0     C40776   3.695  10.537   3.120  0.7416  0.2588  0.9694
  303MOL0     C40777   3.711  10.614   3.236 -0.4199 -1.2373  0.0295
  303MOL0     O40778   3.669  10.554   3.354 -0.3593 -0.0292 -0.9387
  303MOL0     C40779   3.710  10.596   3.490 -0.2471 -0.3343 -0.0054
  303MOL0     C40780   3.614  10.706   3.545 -0.4912  0.3400 -0.5217
  303MOL0     C40781   3.463  10.663   3.529  0.0325 -0.0199 -0.2003
  303MOL0     C40782   3.430  10.556   3.628 -0.3132  0.2451 -0.2658
  303MOL0     C40783   3.301  10.484   3.600 -1.0841  0.2796  0.1831
  303MOL0     C40784   3.326  10.362   3.505  0.5483  0.3571 -0.4562
  303MOL0     C40785   3.437  10.273   3.555  0.3085 -0.0614 -0.4114
  303MOL0     C40786   3.424  10.138   3.478  0.0847  0.7279 -0.2977
  303MOL0     N40787   3.310  10.056   3.541 -0.2415 -0.5636  0.1368
  303MOL0     C40788   3.299  10.017   3.673 -0.9595 -0.3671  0.1913
  303MOL0     C40789   3.203   9.922   3.672  0.4898  0.6092 -0.8478
  303MOL0     C40790   3.157   9.864   3.797  0.3506  0.0055  0.5156
  303MOL0     C40791   3.253   9.763   3.856  0.0471 -0.5175  0.1763
  303MOL0     C40792   3.309   9.665   3.752  0.3199 -0.7216 -0.3539
  303MOL0     C40793   3.186   9.578   3.695 -0.6268 -0.1264 -0.9934
  303MOL0     O40794   3.224   9.442   3.661  0.0707  0.4074  0.1723
  303MOL0     C40795   3.252   9.402   3.533 -0.7487 -0.0840 -1.3398
  303MOL0     C40796   3.250   9.494   3.422 -0.5751  0.9205  0.0713
  303MOL0     C40797   3.265   9.441   3.290  0.5544 -1.0335 -0.3159
  303MOL0     C40798   3.276   9.301   3.267 -0.1388  0.0371  0.0340
  303MOL0     C40799   3.283   9.247   3.129  0.2727 -0.5984  0.3541
  303MOL0     O40800   3.255   9.333   3.037 -0.3029 -0.9561  0.0664
  303MOL0     C40801   3.282   9.306   2.909 -0.5109  1.3816 -0.6620
  303MOL0     C40802   3.200   9.373   2.820  0.0836 -0.5105  0.1204
  303MOL0     C40803   3.215   9.342   2.679  0.3502  0.3502 -0.4711
  303MOL0     C40804   3.311   9.250   2.634  0.4009 -0.1884 -0.9298
  303MOL0     O40805   3.311   9.195   2.510 -0.8287 -0.5780 -0.9538
  303MOL0     C40806   3.303   9.292   2.404 -0.1876  0.7024  0.1517
  303MOL0     C40807   3.349   9.227   2.270 -0.4104  0.5212 -0.8019
  303MOL0     C40808   3.235   9.138   2.217  0.0565  0.5137 -0.6856
  303MOL0     C40809   3.279   9.073   2.084  0.1968  0.4287  0.0497
  303MOL0     C40810   3.176   8.949   2.071 -0.3794 -0.1599  0.0957
  303MOL0     C40811   3.210   8.860   1.947  0.2787  0.2711  0.0436
  303MOL0     C40812   3.084   8.821   1.855 -0.7159 -0.2613 -0.1524
  303MOL0     C40813   3.016   8.947   1.776 -0.5214  0.7124  1.1905
  303MOL0    Cl40814   2.939   9.069   1.871 -0.3299 -0.1287 -0.2463
  303MOL0     C40815   3.401   9.190   2.726  0.2341  0.8420 -0.4225
  303MOL0     C40816   3.390   9.222   2.866 -0.5690 -0.0360 -0.4032
  303MOL0     O40817   3.287   9.128   3.108  0.0310  0.2613 -0.6644
  303MOL0     C40818   3.279   9.216   3.382 -0.6122  0.0213  0.5514
  303MOL0     C40819   3.266   9.271   3.505  0.1862 -0.9441 -0.3883
  303MOL0     N40820   3.168   9.903   3.546 -0.7395  0.4087 -0.5135
  303MOL0     N40821   3.227   9.988   3.465  0.0714  0.3077  0.7759
  303MOL0     C40822   3.788  10.730   3.245  0.3212  0.7084  0.0561
  303MOL0     C40823   3.833  10.783   3.118  0.1489 -0.2186 -0.4915
  303MOL0     C40824   4.025  10.909   2.772 -0.3267  1.3722 -0.5535
  303MOL0     C40825   3.928  10.979   2.701 -0.1485 -0.5558 -0.1993
  303MOL0     C40826   3.962  11.081   2.618  0.1285 -0.6813  0.4898
  303MOL0     C40827   4.095  11.129   2.611 -0.1326  0.3647 -0.1972
  303MOL0     O40828   4.120  11.219   2.516 -1.6188 -0.1618  0.4723
  303MOL0     C40829   4.260  11.262   2.500  0.0190  0.0872 -0.2876
  303MOL0     C40830   4.268  11.371   2.400  0.0188 -0.0256  0.2432
  303MOL0     C40831   4.419  11.420   2.403  0.4883 -0.5999  0.2380
  303MOL0     C40832   4.427  11.559   2.475 -0.8952 -0.1034 -0.3432
  303MOL0     C40833   4.565  11.581   2.521 -0.4947 -0.6965  1.2296
  303MOL0     C40834   4.681  11.593   2.545  0.9202 -1.2374  0.0970
  303MOL0     C40835   4.198  11.063   2.695  0.8015  0.6533  1.1857
  303MOL0     C40836   4.165  10.949   2.767 -0.4706 -0.5139 -1.4153
  303MOL0     C40837   4.271  10.875   2.842  0.1904  1.1624 -0.1727
  303MOL0     H40838   3.742  10.531   2.913  2.1837  1.2606 -0.7392
  303MOL0     H40839   3.633  10.450   3.105 -0.1448  0.7947  1.4239
  303MOL0     H40840   3.721  10.506   3.551 -0.1533 -2.3441 -2.7782
  303MOL0     H40841   3.807  10.647   3.491  0.6977 -2.0682  0.2916
  303MOL0     H40842   3.625  10.801   3.491 -2.4794  0.4032 -0.8705
  303MOL0     H40843   3.639  10.722   3.651  1.1689  4.1405 -1.3199
  303MOL0     H40844   3.442  10.655   3.422  3.6948  0.1679 -1.0711
  303MOL0     H40845   3.410  10.755   3.555 -1.1156 -0.5921 -0.4755
  303MOL0     H40846   3.523  10.499   3.636  1.2079  2.6663  0.1718
  303MOL0     H40847   3.415  10.603   3.725  1.3534  0.3328 -0.0127
  303MOL0     H40848   3.255  10.450   3.693 -3.0519  1.7379 -0.1839
  303MOL0     H40849   3.234  10.548   3.542 -0.1234 -0.8890 -2.3538
  303MOL0     H40850   3.231  10.310   3.489  0.9099 -0.4715 -0.0033
  303MOL0     H40851   3.350  10.403   3.406  0.9565 -1.8932 -1.3501
  303MOL0     H40852   3.434  10.254   3.663  4.8526  3.0335  0.5381
  303MOL0     H40853   3.533  10.324   3.542  1.0717 -1.6022 -1.2077
  303MOL0     H40854   3.407  10.155   3.371  2.4116 -0.5121 -0.9255
  303MOL0     H40855   3.517  10.081   3.484 -0.5192 -0.1175  3.0771
  303MOL0     H40856   3.356  10.052   3.759  5.1252  0.0118 -3.3980
  303MOL0     H40857   3.160   9.945   3.870  0.4383 -0.1005  0.6284
  303MOL0     H40858   3.057   9.821   3.782 -0.0171  1.1754 -0.5735
  303MOL0     H40859   3.341   9.819   3.888 -0.0416  1.6980 -2.9934
  303MOL0     H40860   3.193   9.709   3.930 -1.0013 -0.9738 -0.9557
  303MOL0     H40861   3.371   9.593   3.807 -2.1464 -1.8864  1.0578
  303MOL0     H40862   3.358   9.721   3.672  2.2764  0.2412  1.4128
  303MOL0     H40863   3.139   9.634   3.614  2.5654  3.5445 -0.6218
  303MOL0     H40864   3.102   9.572   3.765 -0.5532  0.2205 -0.8695
  303MOL0     H40865   3.240   9.600   3.439  0.8132  0.8114  1.7301
  303MOL0     H40866   3.280   9.506   3.204  0.0893  1.8276  1.6275
  303MOL0     H40867   3.117   9.437   2.846  0.2983  0.0596 -0.5560
  303MOL0     H40868   3.132   9.381   2.622 -0.4290 -1.7087 -0.8203
  303MOL0     H40869   3.199   9.325   2.401 -1.3297 -2.6006 -0.1353
  303MOL0     H40870   3.370   9.376   2.424  0.4974  0.3949 -0.7980
  303MOL0     H40871   3.384   9.309   2.207  0.6270  0.6159 -0.1190
  303MOL0     H40872   3.426   9.151   2.284 -0.5952  0.0222 -2.2332
  303MOL0     H40873   3.213   9.065   2.295 -0.3284  1.5094  0.1577
  303MOL0     H40874   3.152   9.206   2.194 -2.0264 -1.4671  0.5222
  303MOL0     H40875   3.382   9.041   2.067  0.3350  1.6850 -1.8926
  303MOL0     H40876   3.268   9.140   1.998 -2.8007  1.3983  1.0472
  303MOL0     H40877   3.071   8.973   2.054 -1.0888 -2.6761  0.5108
  303MOL0     H40878   3.164   8.890   2.161 -1.4424  2.7552  2.0114
  303MOL0     H40879   3.286   8.896   1.876 -2.2885 -0.8955 -3.6267
  303MOL0     H40880   3.255   8.765   1.977  0.7280  1.6339  4.2405
  303MOL0     H40881   3.010   8.770   1.917  1.5355 -0.1091  2.8976
  303MOL0     H40882   3.123   8.763   1.771 -1.9333 -1.6681  0.2229
  303MOL0     H40883   3.095   8.995   1.718 -1.7802  0.1561 -1.1008
  303MOL0     H40884   2.938   8.908   1.711 -1.8643  1.9346  2.0147
  303MOL0     H40885   3.483   9.124   2.703  0.4137  1.7771 -2.7502
  303MOL0     H40886   3.445   9.165   2.940 -1.7778  2.2045  2.4211
  303MOL0     H40887   3.258   9.110   3.371  1.6118 -0.5902  1.5214
  303MOL0     H40888   3.242   9.201   3.585  1.0528 -0.0474  0.6853
  303MOL0     H40889   3.813  10.785   3.335  1.9823  0.3773 -0.1694
  303MOL0     H40890   3.883  10.879   3.107  0.8173 -0.4205  0.6341
  303MOL0     H40891   3.827  10.942   2.710 -0.1312 -0.5074  0.1900
  303MOL0     H40892   3.877  11.120   2.564 -0.6178  0.3340  2.3039
  303MOL0     H40893   4.327  11.176   2.486 -0.8833 -0.8175  0.7083
  303MOL0     H40894   4.284  11.307   2.597 -3.1437 -1.2115  1.2520
  303MOL0     H40895   4.193  11.450   2.413  2.0537  1.5845  4.0355
  303MOL0     H40896   4.251  11.326   2.302 -1.3007  1.4852 -0.2585
  303MOL0     H40897   4.450  11.438   2.300  2.6633 -1.9158  0.6013
  303MOL0     H40898   4.483  11.338   2.438 -1.4090 -1.2314  2.5404
  303MOL0     H40899   4.395  11.646   2.417  1.1151  0.9124 -0.0298
  303MOL0     H40900   4.359  11.553   2.561  1.8444 -4.0395  1.8899
  303MOL0     H40901   4.778  11.622   2.579  1.1842 -0.2423 -1.4423
  303MOL0     H40902   4.304  11.083   2.703  1.1288  0.8980 -2.3178
  303MOL0     H40903   4.265  10.891   2.950  1.8289  1.1483 -0.0440
  303MOL0     H40904   4.257  10.771   2.812  1.5690  1.1138 -0.7214
  303MOL0     H40905   4.372  10.912   2.818  0.9125 -0.0904  0.8294
  304MOL0     O40906   6.529   1.732   6.808 -0.1363  0.3821  0.1367
  304MOL0     C40907   6.597   1.631   6.821 -0.4989  0.1901  0.8995
  304MOL0     O40908   6.592   1.529   6.732  0.6413 -0.2362  0.1841
  304MOL0     C40909   6.540   1.556   6.605 -0.4118 -0.8493  0.0297
  304MOL0     C40910   6.404   1.567   6.581  0.0416 -1.1393  1.0159
  304MOL0     C40911   6.351   1.572   6.455  0.1581 -0.5410 -0.4777
  304MOL0     C40912   6.431   1.579   6.345 -1.0210 -0.0662  0.1359
  304MOL0     O40913   6.388   1.586   6.211 -0.4202  0.6798 -0.6543
  304MOL0     C40914   6.246   1.603   6.194  0.8419 -0.3778 -0.0895
  304MOL0     C40915   6.221   1.647   6.046  0.0774 -0.0951  0.0027
  304MOL0     C40916   6.077   1.592   6.006 -0.4699  1.0023 -0.2257
  304MOL0     C40917   6.042   1.654   5.877  0.4812  0.0836  0.0263
  304MOL0     C40918   5.917   1.595   5.819  0.9175 -0.2946  0.3088
  304MOL0     C40919   5.834   1.701   5.744  0.0658  0.8058 -0.0633
  304MOL0     C40920   5.721   1.649   5.648  0.8195 -0.3572 -0.7786
  304MOL0     C40921   5.585   1.626   5.717 -0.1343  0.1136 -0.1058
  304MOL0     N40922   5.596   1.540   5.834 -0.0395 -0.2033  0.1969
  304MOL0     C40923   5.613   1.400   5.847  0.3266 -0.5972  0.7233
  304MOL0     C40924   5.631   1.373   5.969 -0.2685 -0.2108  0.5453
  304MOL0     C40925   5.643   1.239   6.027  1.2537 -0.7136 -0.4324
  304MOL0     C40926   5.775   1.172   5.999  0.2243 -0.0337 -0.3856
  304MOL0     C40927   5.813   1.147   5.850  0.1007 -0.9209 -0.2059
  304MOL0     C40928   5.946   1.067   5.834  0.7690 -0.1724  0.2077
  304MOL0     O40929   6.033   1.158   5.885 -0.4634  0.2161 -0.1527
  304MOL0     C40930   6.159   1.149   5.821  0.4038 -0.6203 -0.6581
  304MOL0     C40931   6.224   1.264   5.791 -1.3198  0.0760 -0.1265
  304MOL0     C40932   6.343   1.266   5.728  0.0125 -0.3529 -0.2587
  304MOL0     C40933   6.408   1.145   5.693 -0.0904  0.7349  0.4519
  304MOL0     C40934   6.537   1.130   5.635  0.5331  0.1114 -0.4058
  304MOL0     O40935   6.570   1.003   5.577  0.5380 -0.5302 -0.6495
  304MOL0     C40936   6.705   0.982   5.547  1.0685 -0.7238  0.7377
  304MOL0     C40937   6.804   0.954   5.642 -0.3959  0.7318  0.0059
  304MOL0     C40938   6.936   0.958   5.595 -0.3011 -0.1122 -0.0188
  304MOL0     C40939   6.974   0.992   5.466  0.0608 -0.6015 -0.9170
  304MOL0     O40940   7.095   1.014   5.423  0.2035  0.4959  0.2788
  304MOL0     C40941   7.212   0.944   5.469 -0.3125 -0.2159 -0.4430
  304MOL0     C40942   7.334   0.987   5.393 -0.1364 -0.1891 -0.3493
  304MOL0     C40943   7.323   0.934   5.251 -0.2422 -0.6195 -0.3137
  304MOL0     C40944   7.469   0.923   5.187  0.3688  0.1221 -0.5971
  304MOL0     C40945   7.451   0.857   5.048  0.3592 -0.7000  0.1250
  304MOL0     C40946   7.572   0.876   4.970 -0.6314  0.3261 -0.2374
  304MOL0     C40947   7.700   0.823   5.045 -0.5891  0.3396  0.0372
  304MOL0     C40948   7.817   0.794   4.950  0.1506  0.5581 -0.8728
  304MOL0    Cl40949   7.959   0.723   5.047 -0.0445 -0.1347 -0.1224
  304MOL0     C40950   6.875   1.025   5.380 -1.0651 -0.7478  0.4794
  304MOL0     C40951   6.734   1.011   5.409  0.0354 -0.7314 -0.2075
  304MOL0     O40952   6.608   1.225   5.637  0.1043  0.7574 -0.1306
  304MOL0     C40953   6.341   1.025   5.722  0.5966 -0.3224 -0.6683
  304MOL0     C40954   6.214   1.028   5.782  0.5009  0.1272  0.8622
  304MOL0     N40955   5.633   1.494   6.034 -0.5140  0.0157 -0.4301
  304MOL0     N40956   5.620   1.591   5.955 -0.3195 -0.0502  0.3792
  304MOL0     C40957   6.567   1.576   6.376  0.4744  0.3870  1.2181
  304MOL0     C40958   6.620   1.563   6.501  0.6241  0.3368 -0.9722
  304MOL0     C40959   6.698   1.617   6.918  0.1783  0.8892 -0.0017
  304MOL0     C40960   6.828   1.557   6.886  0.9124  0.5917 -0.2970
  304MOL0     C40961   6.937   1.564   6.970 -1.6401 -0.4339  0.7395
  304MOL0     C40962   6.924   1.627   7.095  0.1537 -0.8810 -0.4039
  304MOL0     O40963   7.030   1.657   7.180 -0.0496 -0.3137 -0.0594
  304MOL0     C40964   7.015   1.771   7.268  0.0149  0.2424 -0.4672
  304MOL0     C40965   7.163   1.809   7.308 -0.0994  0.2136 -0.6888
  304MOL0     C40966   7.173   1.943   7.363  0.2478 -0.5591 -0.1019
  304MOL0     C40967   7.312   1.970   7.440  0.3820 -0.0825  0.1947
  304MOL0     C40968   7.313   2.102   7.511 -0.9212 -0.0022 -0.6246
  304MOL0     C40969   7.319   2.201   7.580  0.3598 -0.5222  0.7312
  304MOL0     C40970   6.793   1.663   7.127  0.1336 -0.5843 -0.9942
  304MOL0     C40971   6.680   1.670   7.042 -0.0150  0.2918  1.1150
  304MOL0     C40972   6.542   1.702   7.102  0.0102 -0.3568 -0.2288
  304MOL0     H40973   6.335   1.575   6.664  0.8294 -0.2155  1.6065
  304MOL0     H40974   6.242   1.578   6.448  0.2703 -0.1664 -3.5099
  304MOL0     H40975   6.193   1.514   6.228  0.4860 -0.7385 -1.5541
  304MOL0     H40976   6.209   1.686   6.256  0.8172 -0.7089  0.3457
  304MOL0     H40977   6.295   1.604   5.979 -0.7520  1.2691 -1.8624
  304MOL0     H40978   6.223   1.756   6.046 -2.1358  0.1341  3.5478
  304MOL0     H40979   5.995   1.603   6.077 -1.9684  1.4294 -1.9611
  304MOL0     H40980   6.090   1.484   5.996 -0.5493  1.0958 -1.4620
  304MOL0     H40981   6.029   1.759   5.902 -0.8575 -0.7167  3.1393
  304MOL0     H40982   6.121   1.658   5.801 -0.7964 -0.2691 -1.3622
  304MOL0     H40983   5.943   1.510   5.755  2.4654  0.6194 -0.3235
  304MOL0     H40984   5.862   1.546   5.901  2.6304 -1.5176  0.8064
  304MOL0     H40985   5.789   1.761   5.823  1.1869 -0.1298  1.3345
  304MOL0     H40986   5.901   1.776   5.701 -0.9218  2.1452  0.6823
  304MOL0     H40987   5.752   1.555   5.603  0.2665 -0.4184 -1.0407
  304MOL0     H40988   5.710   1.723   5.569 -0.0908 -1.5754 -1.8419
  304MOL0     H40989   5.552   1.723   5.754  1.6355  0.2469  1.2587
  304MOL0     H40990   5.508   1.580   5.654  0.6710 -1.7746  0.2223
  304MOL0     H40991   5.624   1.321   5.773  1.4946  3.2191 -3.6480
  304MOL0     H40992   5.638   1.255   6.135 -0.1258 -1.4641 -0.3625
  304MOL0     H40993   5.559   1.174   6.003  0.7205 -0.5234  0.8442
  304MOL0     H40994   5.852   1.231   6.049  0.1734  0.6632 -1.1227
  304MOL0     H40995   5.759   1.077   6.050  2.0906 -0.8196 -1.1617
  304MOL0     H40996   5.822   1.236   5.787  1.6138 -0.8214  0.1122
  304MOL0     H40997   5.734   1.086   5.805  1.5996 -0.9933 -2.9653
  304MOL0     H40998   5.962   1.050   5.727  1.0333  0.3005  0.1672
  304MOL0     H40999   5.952   0.966   5.875  0.8217 -0.9790 -1.6678
  304MOL0     H41000   6.185   1.362   5.818  0.0017  1.3615 -2.5206
  304MOL0     H41001   6.393   1.359   5.705  0.8785 -1.0163 -1.1827
  304MOL0     H41002   6.783   0.944   5.748  1.4985  1.6712  0.5239
  304MOL0     H41003   7.019   0.937   5.662 -0.8192 -0.6055  0.4742
  304MOL0     H41004   7.232   0.960   5.575 -0.9094 -2.9616  0.1617
  304MOL0     H41005   7.204   0.836   5.462  1.5155 -0.5650  1.6785
  304MOL0     H41006   7.328   1.097   5.396 -1.2789 -0.2590  1.6043
  304MOL0     H41007   7.424   0.959   5.449 -1.7698 -4.4078  0.5518
  304MOL0     H41008   7.266   0.843   5.232 -1.8334  0.7701 -2.5987
  304MOL0     H41009   7.266   1.012   5.201 -2.0818 -1.8843 -0.2788
  304MOL0     H41010   7.537   0.856   5.241  1.1064 -1.0277 -2.8202
  304MOL0     H41011   7.506   1.025   5.180 -0.7274  0.5259 -0.6465
  304MOL0     H41012   7.375   0.910   4.990  0.0789 -1.6482 -0.3863
  304MOL0     H41013   7.428   0.751   5.050 -1.3714 -0.3587 -0.5800
  304MOL0     H41014   7.557   0.826   4.874  1.9383  0.3283 -0.6926
  304MOL0     H41015   7.585   0.983   4.955  0.4296  0.7130  2.7769
  304MOL0     H41016   7.682   0.732   5.104  1.1257  0.9484  1.5705
  304MOL0     H41017   7.739   0.892   5.120 -1.8395  2.5440 -1.2381
  304MOL0     H41018   7.777   0.719   4.880 -1.4098 -3.7870  4.0185
  304MOL0     H41019   7.842   0.881   4.889 -2.9852  0.3621 -2.6667
  304MOL0     H41020   6.910   1.072   5.288  2.6181  0.9690  2.5419
  304MOL0     H41021   6.659   1.045   5.339  0.2015 -2.3445 -1.2197
  304MOL0     H41022   6.381   0.930   5.688  1.3047 -0.1423 -0.3417
  304MOL0     H41023   6.160   0.935   5.801 -2.7380  1.5070 -0.7783
  304MOL0     H41024   6.627   1.597   6.288 -0.5879  1.3869  0.7047
  304MOL0     H41025   6.727   1.566   6.518  0.4660 -0.6070  0.3509
  304MOL0     H41026   6.835   1.514   6.786  1.6637 -1.4791  0.5808
  304MOL0     H41027   7.029   1.514   6.943  0.1436  2.6274  0.7032
  304MOL0     H41028   6.963   1.756   7.364  0.1209 -0.0276 -0.4527
  304MOL0     H41029   6.974   1.862   7.223  1.5132  0.5323 -1.3090
  304MOL0     H41030   7.220   1.804   7.214 -0.8420 -1.4285 -1.0952
  304MOL0     H41031   7.204   1.743   7.384 -0.4429 -0.1938 -0.8530
  304MOL0     H41032   7.091   1.964   7.432  1.1211 -2.2354  1.5127
  304MOL0     H41033   7.162   2.009   7.276 -1.2708 -1.0262 -0.3031
  304MOL0     H41034   7.319   1.899   7.522 -1.6975 -0.9963 -0.3722
  304MOL0     H41035   7.398   1.951   7.375 -2.2407 -4.3141 -2.5160
  304MOL0     H41036   7.298   2.293   7.632  1.6915 -0.7498  1.7613
  304MOL0     H41037   6.787   1.705   7.226  1.7915 -0.5645 -0.8876
  304MOL0     H41038   6.460   1.637   7.072 -1.6611  1.6609 -0.3036
  304MOL0     H41039   6.536   1.704   7.211  5.0602  1.3638  0.2752
  304MOL0     H41040   6.520   1.801   7.061  1.6127 -0.1636 -0.6892
  305MOL0     O41041   4.364   7.709   9.415  0.3870  0.3370 -0.2021
  305MOL0     C41042   4.481   7.687   9.454  0.8729 -0.0187 -0.1752
  305MOL0     O41043   4.567   7.597   9.408 -0.4804  0.3513  0.3255
  305MOL0     C41044   4.532   7.492   9.319 -0.3176 -0.0758 -0.6456
  305MOL0     C41045   4.636   7.432   9.238 -0.2642  0.1804 -0.1770
  305MOL0     C41046   4.608   7.339   9.142 -0.3949 -0.3404  0.6819
  305MOL0     C41047   4.482   7.294   9.128 -0.0933 -0.1474  0.2079
  305MOL0     O41048   4.451   7.202   9.028 -0.2373  0.2512 -0.2682
  305MOL0     C41049   4.513   7.215   8.892 -0.7555  0.0366  0.3630
  305MOL0     C41050   4.414   7.168   8.794  0.0486  0.3552 -0.2297
  305MOL0     C41051   4.471   7.164   8.653 -0.0523 -0.8486  1.4048
  305MOL0     C41052   4.385   7.069   8.565 -0.2375 -0.1409 -1.4362
  305MOL0     C41053   4.399   6.922   8.607 -1.0927  0.0818 -0.0150
  305MOL0     C41054   4.358   6.827   8.484 -0.2476  0.4450 -0.3612
  305MOL0     C41055   4.390   6.683   8.537  0.2466  0.0163 -0.6520
  305MOL0     C41056   4.273   6.606   8.617  0.1967  0.1274 -0.1450
  305MOL0     N41057   4.277   6.652   8.753  0.7196  0.7205 -0.3541
  305MOL0     C41058   4.387   6.627   8.835  0.2021  1.3324 -0.7545
  305MOL0     C41059   4.351   6.661   8.962 -0.1863  0.1339  0.1433
  305MOL0     C41060   4.447   6.649   9.077  0.2096  0.3871 -0.7943
  305MOL0     C41061   4.556   6.754   9.076 -0.8459  1.0182 -0.3482
  305MOL0     C41062   4.598   6.800   9.214 -0.4955 -0.5903  0.0881
  305MOL0     C41063   4.490   6.872   9.284 -0.3754 -0.1102 -0.2972
  305MOL0     O41064   4.537   6.914   9.413 -0.1576 -0.3305  0.6529
  305MOL0     C41065   4.456   7.012   9.466 -0.1711  0.2067 -0.0987
  305MOL0     C41066   4.536   7.124   9.497 -0.8382  0.2990 -0.2208
  305MOL0     C41067   4.476   7.229   9.562 -0.7868 -0.2315 -0.1410
  305MOL0     C41068   4.340   7.229   9.586 -0.3287 -0.5926  0.0584
  305MOL0     C41069   4.262   7.347   9.626 -0.8425  1.2835 -0.3771
  305MOL0     O41070   4.129   7.358   9.589  0.3623  0.0661 -0.8610
  305MOL0     C41071   4.071   7.477   9.589 -0.3599  0.9009  0.0640
  305MOL0     C41072   3.938   7.476   9.559  1.8636 -0.3560  0.3253
  305MOL0     C41073   3.867   7.600   9.543 -0.1817  0.3944  0.5312
  305MOL0     C41074   3.934   7.724   9.552  0.4428  0.9010 -0.2711
  305MOL0     O41075   3.867   7.848   9.536 -0.1107 -0.4654  1.6631
  305MOL0     C41076   3.879   7.943   9.640 -0.1717 -0.5245 -0.5992
  305MOL0     C41077   3.749   8.025   9.659 -0.2299  0.5621  0.0728
  305MOL0     C41078   3.619   7.946   9.674 -0.3672  0.3599 -0.1754
  305MOL0     C41079   3.610   7.905   9.814 -0.3912  0.6451  0.0565
  305MOL0     C41080   3.515   7.793   9.844 -0.5379  0.2834  0.5323
  305MOL0     C41081   3.493   7.768   9.993 -0.0631  0.3029  0.2036
  305MOL0     C41082   3.417   7.640  10.016 -0.2102 -0.7032  0.7196
  305MOL0     C41083   3.278   7.639   9.964 -0.3574 -0.3450 -0.4259
  305MOL0    Cl41084   3.158   7.594  10.096  0.1364  0.2248  0.0148
  305MOL0     C41085   4.067   7.717   9.575 -0.1240  0.5870  0.4379
  305MOL0     C41086   4.138   7.602   9.597  0.0924  0.4285 -0.6555
  305MOL0     O41087   4.325   7.413   9.708 -0.0505  0.1172  0.5853
  305MOL0     C41088   4.272   7.116   9.562  0.0308  0.0549 -0.0604
  305MOL0     C41089   4.323   7.003   9.499  0.3221  0.2550 -0.3941
  305MOL0     N41090   4.221   6.687   8.957  0.6772  0.2091 -0.1154
  305MOL0     N41091   4.176   6.675   8.836  0.5291  0.2700  0.0975
  305MOL0     C41092   4.380   7.332   9.209  0.5596 -0.1806 -0.3668
  305MOL0     C41093   4.397   7.434   9.303  0.3927 -0.4727 -0.6793
  305MOL0     C41094   4.543   7.782   9.550 -1.0448 -0.0104 -0.1001
  305MOL0     C41095   4.515   7.919   9.541 -0.2406  1.0676 -0.2828
  305MOL0     C41096   4.576   8.017   9.616  0.6868 -0.9463  0.1607
  305MOL0     C41097   4.672   7.976   9.716  0.0572 -0.5725  0.7723
  305MOL0     O41098   4.742   8.061   9.798 -1.0991  0.2052  0.0866
  305MOL0     C41099   4.784   8.175   9.738 -0.0708  0.0797 -0.3267
  305MOL0     C41100   4.922   8.229   9.793  0.5150  0.6785 -0.0040
  305MOL0     C41101   4.908   8.290   9.933  0.4513 -0.1536  0.2010
  305MOL0     C41102   4.822   8.422   9.927  0.1743 -0.2260 -0.0975
  305MOL0     C41103   4.678   8.384   9.957  0.4450  0.5666  0.0265
  305MOL0     C41104   4.563   8.352   9.968 -0.6511 -0.0872 -0.4149
  305MOL0     C41105   4.681   7.842   9.738 -2.1078  0.3337 -0.1373
  305MOL0     C41106   4.626   7.738   9.652  0.2122  0.2704 -1.1199
  305MOL0     C41107   4.660   7.593   9.683 -0.1682 -0.7437  0.4442
  305MOL0     H41108   4.728   7.490   9.235 -0.5418  0.6039 -0.6972
  305MOL0     H41109   4.678   7.305   9.066  1.5850  0.5081  2.0341
  305MOL0     H41110   4.539   7.321   8.878  3.4497 -0.6870  1.4337
  305MOL0     H41111   4.608   7.164   8.876 -1.1698 -0.3644 -0.9208
  305MOL0     H41112   4.328   7.236   8.795  0.4197  0.8303  0.7626
  305MOL0     H41113   4.380   7.073   8.836 -2.4964  1.2969  0.0629
  305MOL0     H41114   4.576   7.143   8.631 -0.2824  1.2324 -2.5063
  305MOL0     H41115   4.443   7.264   8.619 -0.1136 -0.5884  2.1906
  305MOL0     H41116   4.279   7.093   8.580  0.1743 -0.4023  4.9546
  305MOL0     H41117   4.404   7.079   8.458 -1.3317 -2.6963 -1.9576
  305MOL0     H41118   4.504   6.906   8.632 -0.1700  1.4387 -2.6130
  305MOL0     H41119   4.329   6.895   8.686 -0.4517 -3.5677 -0.4940
  305MOL0     H41120   4.250   6.829   8.465 -0.0587 -1.9245 -2.1534
  305MOL0     H41121   4.417   6.854   8.395 -0.1848 -0.3881 -0.5816
  305MOL0     H41122   4.485   6.660   8.587 -0.0775 -0.6625 -0.3205
  305MOL0     H41123   4.410   6.623   8.448  0.3347  2.7697 -2.5942
  305MOL0     H41124   4.176   6.642   8.580 -1.7454 -0.2900  3.9391
  305MOL0     H41125   4.272   6.497   8.624 -4.8044 -0.0028  1.6221
  305MOL0     H41126   4.485   6.595   8.803  0.3668  0.1306  0.8203
  305MOL0     H41127   4.386   6.673   9.165 -0.0702 -1.1061 -0.5534
  305MOL0     H41128   4.492   6.550   9.083  3.1519  1.6424 -0.4156
  305MOL0     H41129   4.634   6.726   9.004 -1.2656 -0.9913 -0.0657
  305MOL0     H41130   4.514   6.843   9.028  1.1783  2.0458 -0.3368
  305MOL0     H41131   4.669   6.881   9.201  1.3294 -2.2720 -1.0092
  305MOL0     H41132   4.633   6.723   9.283  0.7362 -1.5471 -1.5264
  305MOL0     H41133   4.394   6.821   9.298  0.6275 -1.7563  0.9129
  305MOL0     H41134   4.475   6.960   9.220  2.8382  0.4716 -0.3989
  305MOL0     H41135   4.640   7.137   9.468 -0.1080 -1.7812  1.1988
  305MOL0     H41136   4.539   7.311   9.594  1.2039 -0.3256 -3.3556
  305MOL0     H41137   3.882   7.385   9.540  2.2900  0.0062 -3.2621
  305MOL0     H41138   3.760   7.604   9.525 -0.6158  0.3487  2.7269
  305MOL0     H41139   3.916   7.885   9.725 -0.5350 -1.8128 -1.2900
  305MOL0     H41140   3.954   8.016   9.606 -0.4164  0.6978  1.3468
  305MOL0     H41141   3.779   8.082   9.748  1.3386  2.0943 -1.3640
  305MOL0     H41142   3.746   8.092   9.573 -0.5426 -0.1696 -0.4965
  305MOL0     H41143   3.543   8.012   9.633  0.1410  1.5109  0.6901
  305MOL0     H41144   3.618   7.855   9.613  1.8399  0.3614 -0.3239
  305MOL0     H41145   3.587   7.992   9.876  2.3334  0.8136  0.9839
  305MOL0     H41146   3.707   7.862   9.842  0.7840  2.0007 -1.7704
  305MOL0     H41147   3.558   7.705   9.794  0.1147  1.3215 -0.7813
  305MOL0     H41148   3.417   7.810   9.797 -1.1028 -2.3569  0.5908
  305MOL0     H41149   3.585   7.753  10.050 -1.8363 -3.5066  2.4255
  305MOL0     H41150   3.437   7.849  10.041  2.9349 -0.1659  5.1973
  305MOL0     H41151   3.418   7.616  10.123 -1.0476 -0.9526  0.6736
  305MOL0     H41152   3.475   7.563   9.964  0.3284  0.6659 -0.8050
  305MOL0     H41153   3.252   7.743   9.942 -0.5340 -0.0350  1.1259
  305MOL0     H41154   3.267   7.573   9.878 -0.6932 -0.9335  0.0663
  305MOL0     H41155   4.114   7.814   9.584 -1.5867  1.4485 -0.7359
  305MOL0     H41156   4.244   7.616   9.617  0.2298 -1.9585  0.5338
  305MOL0     H41157   4.165   7.100   9.578  0.5475 -2.1994  1.6794
  305MOL0     H41158   4.274   6.911   9.469 -1.4875  1.3532 -0.9726
  305MOL0     H41159   4.281   7.288   9.208 -0.5292  2.0769 -2.6707
  305MOL0     H41160   4.306   7.461   9.356  0.9588  1.9437 -0.8591
  305MOL0     H41161   4.448   7.949   9.462 -0.8296  0.8596  0.1295
  305MOL0     H41162   4.551   8.121   9.595 -0.7470 -1.5142 -1.0406
  305MOL0     H41163   4.699   8.241   9.756  0.6760  0.3231  2.7863
  305MOL0     H41164   4.801   8.165   9.630  6.6232 -0.6765  0.3722
  305MOL0     H41165   4.973   8.295   9.721 -1.5970  1.1801 -1.1374
  305MOL0     H41166   4.982   8.139   9.808  1.9378  1.4897 -0.5343
  305MOL0     H41167   5.007   8.322   9.967  0.1954 -1.5300  2.4343
  305MOL0     H41168   4.873   8.209   9.998  0.1100  0.7318  1.1473
  305MOL0     H41169   4.865   8.477  10.011 -0.0171 -4.1531  2.8433
  305MOL0     H41170   4.833   8.483   9.837  0.3978  1.2412  0.8712
  305MOL0     H41171   4.465   8.326  10.003 -1.6375  4.4317  0.9087
  305MOL0     H41172   4.749   7.815   9.818  0.9148  3.3417 -1.4328
  305MOL0     H41173   4.695   7.589   9.787 -1.3534 -1.0288  0.8507
  305MOL0     H41174   4.574   7.527   9.669  0.4779 -1.2987 -1.0753
  305MOL0     H41175   4.735   7.554   9.614  0.2121  3.3621 -1.7914
  306MOL0     O41176   8.461   4.076   0.565 -0.6830 -0.0978  0.9827
  306MOL0     C41177   8.497   4.033   0.673  0.2860 -0.0134  0.1105
  306MOL0     O41178   8.438   3.935   0.746 -0.5251  0.9448 -0.3115
  306MOL0     C41179   8.332   3.871   0.693  0.2731 -0.0092 -0.8305
  306MOL0     C41180   8.206   3.884   0.755  1.0257  0.1143  0.1301
  306MOL0     C41181   8.099   3.809   0.717  0.1922  0.5582 -0.7461
  306MOL0     C41182   8.103   3.723   0.609  0.9852 -0.5413  1.0783
  306MOL0     O41183   7.974   3.678   0.583 -0.1378 -0.8527  0.6416
  306MOL0     C41184   7.945   3.575   0.484 -0.2380  0.5214  0.3045
  306MOL0     C41185   7.812   3.522   0.506 -0.0687  0.8359 -0.3038
  306MOL0     C41186   7.790   3.429   0.634 -1.0574  0.1554 -0.1338
  306MOL0     C41187   7.897   3.323   0.655  0.3827 -0.7232  0.0321
  306MOL0     C41188   7.868   3.216   0.748 -0.3442 -0.1632 -0.8187
  306MOL0     C41189   7.982   3.127   0.799  0.2694 -0.3594  0.1296
  306MOL0     C41190   8.085   3.206   0.886  0.3835  0.1932  1.1468
  306MOL0     C41191   8.207   3.121   0.931  0.1950  0.9316 -0.7104
  306MOL0     N41192   8.272   3.032   0.834  0.0403 -0.5710 -0.4179
  306MOL0     C41193   8.307   3.076   0.704 -0.6665  0.3171 -0.1142
  306MOL0     C41194   8.390   2.979   0.660  0.0801  0.2774 -0.0241
  306MOL0     C41195   8.441   2.962   0.521 -0.5665 -0.2986 -0.9296
  306MOL0     C41196   8.401   3.062   0.412 -0.0303  0.2525 -0.5145
  306MOL0     C41197   8.496   3.040   0.295  0.4874 -0.9293  0.4094
  306MOL0     C41198   8.451   3.100   0.155  0.1616  0.1631 -0.0090
  306MOL0     O41199   8.317   3.056   0.125  0.6079 -1.4499 -0.1510
  306MOL0     C41200   8.257   3.104   0.008 -0.3299  0.4525 -0.5696
  306MOL0     C41201   8.318   3.203  -0.072 -0.9029 -0.1080 -0.4433
  306MOL0     C41202   8.259   3.229  -0.195  0.7732  0.1752  0.0154
  306MOL0     C41203   8.139   3.168  -0.236 -0.6906  0.3010 -0.2765
  306MOL0     C41204   8.082   3.204  -0.365  0.2259 -0.1835  0.8473
  306MOL0     O41205   7.963   3.138  -0.409 -0.2123  0.0958  0.8392
  306MOL0     C41206   7.920   3.182  -0.533 -0.0472  1.0962 -0.2401
  306MOL0     C41207   7.968   3.128  -0.651 -0.5948  0.2222 -0.4237
  306MOL0     C41208   7.921   3.176  -0.774 -0.5361 -0.2729 -0.3318
  306MOL0     C41209   7.818   3.270  -0.782 -0.1382  0.1695 -0.1152
  306MOL0     O41210   7.770   3.291  -0.910 -0.5069  0.9749 -0.2591
  306MOL0     C41211   7.749   3.427  -0.948 -0.2802  0.3940  1.1532
  306MOL0     C41212   7.881   3.495  -0.980  0.3340 -0.2142  0.2120
  306MOL0     C41213   7.843   3.634  -1.037  0.3290 -0.3339 -0.8696
  306MOL0     C41214   7.797   3.727  -0.928  0.4258 -0.4656 -0.4900
  306MOL0     C41215   7.787   3.867  -0.981 -0.4567  0.4922 -0.5093
  306MOL0     C41216   7.703   3.961  -0.900  0.4410  0.1723 -0.1600
  306MOL0     C41217   7.661   4.085  -0.977 -0.0171  0.0227 -0.1758
  306MOL0     C41218   7.562   4.157  -0.897 -0.1943  0.6802  0.3908
  306MOL0    Cl41219   7.647   4.243  -0.775  0.0020 -0.2252  0.4044
  306MOL0     C41220   7.758   3.308  -0.664 -0.4123  0.0008 -0.6320
  306MOL0     C41221   7.813   3.270  -0.542  1.0607  0.0829 -0.2318
  306MOL0     O41222   8.153   3.275  -0.435 -0.7025 -0.8203 -0.1399
  306MOL0     C41223   8.082   3.071  -0.152  0.1255  0.6353  0.7547
  306MOL0     C41224   8.137   3.040  -0.032  0.2221 -0.5470  0.7868
  306MOL0     N41225   8.413   2.900   0.772 -0.4609  0.1616 -0.7331
  306MOL0     N41226   8.348   2.930   0.872  0.4501  0.6064  0.4998
  306MOL0     C41227   8.230   3.718   0.533  0.0763 -0.0220  0.6106
  306MOL0     C41228   8.346   3.792   0.577  0.5491  0.2886  0.5155
  306MOL0     C41229   8.612   4.100   0.725  1.2310  0.0489  0.2392
  306MOL0     C41230   8.604   4.237   0.753 -0.3937 -0.2895 -0.1174
  306MOL0     C41231   8.704   4.314   0.817  1.0651  0.4159 -0.2019
  306MOL0     C41232   8.823   4.244   0.841  0.1274 -1.2504  0.5150
  306MOL0     O41233   8.925   4.326   0.873 -0.5454 -0.1868  0.1532
  306MOL0     C41234   9.016   4.290   0.978  0.2388  0.0560  0.9126
  306MOL0     C41235   8.937   4.265   1.107 -0.7887  0.1184 -0.0317
  306MOL0     C41236   9.050   4.238   1.215  0.1639 -0.4808 -0.0751
  306MOL0     C41237   8.997   4.179   1.354 -0.0755  0.8418  0.3797
  306MOL0     C41238   8.939   4.277   1.432 -0.2209  0.2859  0.0739
  306MOL0     C41239   8.884   4.369   1.495 -1.1562 -0.9514 -1.2414
  306MOL0     C41240   8.840   4.113   0.813 -0.3381 -0.1622  0.0396
  306MOL0     C41241   8.727   4.039   0.767  0.2322  0.6788  0.8593
  306MOL0     C41242   8.753   3.887   0.739  0.4837 -0.9208  0.1746
  306MOL0     H41243   8.200   3.943   0.846 -0.8845 -0.5937  0.5149
  306MOL0     H41244   8.006   3.803   0.773 -2.2853  1.1890 -4.4380
  306MOL0     H41245   7.955   3.616   0.384 -1.3463  1.7589  0.6746
  306MOL0     H41246   8.014   3.490   0.483 -4.1645 -3.0276 -1.1031
  306MOL0     H41247   7.790   3.456   0.422  1.9470  1.3663 -1.2880
  306MOL0     H41248   7.737   3.602   0.513  0.9436  1.7970 -0.2202
  306MOL0     H41249   7.695   3.383   0.607  0.4744 -1.6970 -2.8535
  306MOL0     H41250   7.783   3.484   0.728 -2.6436 -1.9815  1.0684
  306MOL0     H41251   7.916   3.282   0.555 -3.6736  0.2190 -1.2973
  306MOL0     H41252   7.993   3.366   0.683 -0.5069  0.2935  1.6271
  306MOL0     H41253   7.830   3.262   0.840 -1.0226 -0.0494 -1.1455
  306MOL0     H41254   7.790   3.148   0.712 -0.6947 -1.1029  1.4911
  306MOL0     H41255   7.928   3.055   0.861  1.2830  1.6768  3.6499
  306MOL0     H41256   8.031   3.082   0.711 -0.6115 -0.3685 -0.3685
  306MOL0     H41257   8.042   3.260   0.971  3.5678  2.3659  1.5309
  306MOL0     H41258   8.131   3.277   0.818 -0.9944  0.3622  0.3573
  306MOL0     H41259   8.284   3.185   0.976  1.5843 -0.3963 -1.1195
  306MOL0     H41260   8.181   3.059   1.017  0.0016  0.3905 -1.1556
  306MOL0     H41261   8.271   3.155   0.639 -1.8650 -0.2930 -0.2338
  306MOL0     H41262   8.549   2.949   0.527 -0.4556  1.0343  3.6889
  306MOL0     H41263   8.402   2.865   0.489 -2.7010 -0.0338  0.6357
  306MOL0     H41264   8.299   3.032   0.384 -1.5145  2.5740  1.8513
  306MOL0     H41265   8.407   3.163   0.454  0.3919  0.7952 -1.8254
  306MOL0     H41266   8.510   2.933   0.275  3.8750 -0.0300 -3.1922
  306MOL0     H41267   8.598   3.074   0.316  0.8413 -1.3954 -0.4922
  306MOL0     H41268   8.523   3.065   0.081 -2.9814 -0.5712 -2.9935
  306MOL0     H41269   8.464   3.209   0.158  1.1381  0.0363  1.5293
  306MOL0     H41270   8.411   3.249  -0.041 -2.4548  1.5000  2.2421
  306MOL0     H41271   8.308   3.307  -0.253  2.3993 -1.2971 -0.6671
  306MOL0     H41272   8.047   3.054  -0.643 -0.4322  0.4916  0.6682
  306MOL0     H41273   7.974   3.140  -0.862 -1.9828 -4.1465  0.1966
  306MOL0     H41274   7.686   3.423  -1.038 -0.4375  1.9345  1.1621
  306MOL0     H41275   7.690   3.480  -0.873 -3.3204  0.5721 -1.1512
  306MOL0     H41276   7.943   3.495  -0.890  1.8296  1.4594 -0.7693
  306MOL0     H41277   7.936   3.438  -1.055  2.0137 -1.3282  2.1976
  306MOL0     H41278   7.930   3.669  -1.093  0.2100  3.6927  1.0788
  306MOL0     H41279   7.768   3.621  -1.116  1.2375 -3.2815 -1.3709
  306MOL0     H41280   7.852   3.725  -0.833  1.2060  0.9094 -0.8708
  306MOL0     H41281   7.695   3.704  -0.899  0.7050  1.3704  2.4300
  306MOL0     H41282   7.735   3.846  -1.076 -0.1270 -3.9550  0.0638
  306MOL0     H41283   7.888   3.904  -0.998 -0.0233 -1.1833 -1.9673
  306MOL0     H41284   7.608   3.918  -0.866  1.0755  1.0077  3.0502
  306MOL0     H41285   7.744   3.991  -0.803 -2.9520  0.7858  1.2181
  306MOL0     H41286   7.620   4.043  -1.069  0.5624  4.0706 -2.4972
  306MOL0     H41287   7.739   4.157  -1.001 -0.3508  0.2721 -0.5227
  306MOL0     H41288   7.497   4.216  -0.964 -2.3684  0.3922  2.1297
  306MOL0     H41289   7.487   4.093  -0.849 -0.6098  0.4422 -0.5327
  306MOL0     H41290   7.673   3.375  -0.656  0.8341  1.5199  0.6844
  306MOL0     H41291   7.758   3.313  -0.460  1.7705  0.0388  0.2797
  306MOL0     H41292   7.988   3.028  -0.184 -0.9201  1.9056  2.0101
  306MOL0     H41293   8.100   2.958   0.028 -3.0711  2.2174  2.8253
  306MOL0     H41294   8.239   3.652   0.447 -0.3645 -0.1384  0.6508
  306MOL0     H41295   8.438   3.799   0.520 -0.4831  2.7586 -1.0416
  306MOL0     H41296   8.513   4.294   0.739  0.2714  0.8666  0.1599
  306MOL0     H41297   8.686   4.415   0.854  0.6118 -1.1212  4.2789
  306MOL0     H41298   9.088   4.371   0.996 -0.9312  1.1819  0.7231
  306MOL0     H41299   9.077   4.205   0.945 -0.2077  0.1203 -0.1337
  306MOL0     H41300   8.882   4.171   1.097  1.1763 -1.2737  1.3020
  306MOL0     H41301   8.879   4.351   1.143  1.9351  3.0012 -1.9845
  306MOL0     H41302   9.110   4.328   1.231  1.9279 -1.1753 -2.1956
  306MOL0     H41303   9.119   4.160   1.182  0.4847 -1.5249  2.7582
  306MOL0     H41304   8.916   4.109   1.330 -2.4275  3.2822  0.6449
  306MOL0     H41305   9.082   4.135   1.406  0.2670  0.0462 -0.8161
  306MOL0     H41306   8.850   4.452   1.555  1.2414 -0.7851  0.0419
  306MOL0     H41307   8.935   4.062   0.829  1.8715  3.2831 -1.1081
  306MOL0     H41308   8.805   3.846   0.826 -0.5437 -0.5585  0.9734
  306MOL0     H41309   8.659   3.833   0.722  0.3787 -0.4816 -0.6909
  306MOL0     H41310   8.818   3.878   0.651 -0.7004 -4.7769 -0.4921
  307MOL0     O41311   2.227  11.466   1.410 -0.1744 -0.5583 -0.2900
  307MOL0     C41312   2.184  11.567   1.357  0.4597  0.1664  0.3559
  307MOL0     O41313   2.210  11.600   1.224 -0.7136 -0.4913 -0.5837
  307MOL0     C41314   2.250  11.502   1.138 -0.3718 -0.4936  0.3602
  307MOL0     C41315   2.149  11.452   1.055 -0.7767 -1.3587  0.8383
  307MOL0     C41316   2.181  11.365   0.952  0.2619  0.6365  1.0550
  307MOL0     C41317   2.316  11.331   0.923 -0.1641  0.8092 -0.0802
  307MOL0     O41318   2.342  11.254   0.810  0.2692  0.2674  1.1020
  307MOL0     C41319   2.474  11.225   0.755  0.3905  0.0056  0.3791
  307MOL0     C41320   2.439  11.137   0.629  0.1239 -0.2151  0.3219
  307MOL0     C41321   2.360  11.220   0.527  0.3195 -0.4949  0.7954
  307MOL0     C41322   2.363  11.164   0.379 -0.4251  0.3622 -0.1497
  307MOL0     C41323   2.307  11.012   0.377 -0.1329 -1.0067 -0.2578
  307MOL0     C41324   2.168  10.986   0.431  0.3489  0.2144 -0.5388
  307MOL0     C41325   2.136  10.843   0.394  0.3252  0.0688 -0.7047
  307MOL0     C41326   1.985  10.827   0.442 -0.3664  0.6179  0.0613
  307MOL0     N41327   1.876  10.826   0.337 -0.0407  0.7782 -0.3624
  307MOL0     C41328   1.883  10.828   0.201 -0.3145  0.1719 -0.4041
  307MOL0     C41329   1.758  10.840   0.161  0.5140 -1.2150  0.8155
  307MOL0     C41330   1.706  10.848   0.016  0.2785 -0.1275  0.1492
  307MOL0     C41331   1.569  10.924  -0.004  1.2544 -0.3222  1.2285
  307MOL0     C41332   1.559  11.070   0.053  0.8112 -0.8267 -0.4995
  307MOL0     C41333   1.452  11.155  -0.023 -0.9396 -0.2461 -0.5006
  307MOL0     O41334   1.416  11.276   0.042  0.4383  0.1104  0.4495
  307MOL0     C41335   1.362  11.289   0.165 -0.2729  0.2515  0.3621
  307MOL0     C41336   1.289  11.182   0.224 -0.3569 -0.0502 -1.2896
  307MOL0     C41337   1.219  11.207   0.341 -0.3262 -0.0607  0.4359
  307MOL0     C41338   1.227  11.339   0.394 -0.3491  0.3073  0.3989
  307MOL0     C41339   1.177  11.359   0.537  0.0080 -0.5921  0.5027
  307MOL0     O41340   1.086  11.262   0.582 -0.0597 -0.6436 -0.2740
  307MOL0     C41341   1.033  11.274   0.712 -0.0318 -0.1744  0.8639
  307MOL0     C41342   0.900  11.232   0.722 -0.2266  0.4553  0.3455
  307MOL0     C41343   0.843  11.213   0.848  0.1221 -0.6049  1.3576
  307MOL0     C41344   0.921  11.230   0.964 -1.0835 -0.6361  0.4111
  307MOL0     O41345   0.846  11.211   1.075 -0.3691 -0.0142 -0.7555
  307MOL0     C41346   0.917  11.210   1.203 -0.8301  0.2860  0.2688
  307MOL0     C41347   0.845  11.123   1.320  0.6760 -0.7126  0.6599
  307MOL0     C41348   0.942  11.114   1.441 -0.1181  0.5062 -0.5987
  307MOL0     C41349   0.890  11.172   1.574 -0.4988  0.9155  0.4104
  307MOL0     C41350   0.969  11.128   1.706 -0.5837  0.1854 -0.7435
  307MOL0     C41351   0.938  11.211   1.838 -0.2731 -0.2720 -0.7583
  307MOL0     C41352   1.042  11.325   1.849  0.3180  0.3783 -0.4298
  307MOL0     C41353   1.002  11.418   1.963 -0.7914  0.0596 -0.0010
  307MOL0    Cl41354   1.154  11.518   2.004  0.0831  0.1071 -0.1436
  307MOL0     C41355   1.059  11.264   0.948  0.3617 -0.6199 -0.1592
  307MOL0     C41356   1.113  11.286   0.822 -0.7083 -0.3712  0.8345
  307MOL0     O41357   1.193  11.471   0.590 -0.3017 -0.4114 -0.0524
  307MOL0     C41358   1.303  11.440   0.334 -0.0901  0.6365  0.4261
  307MOL0     C41359   1.369  11.417   0.215 -0.4176 -0.5293 -0.6703
  307MOL0     N41360   1.675  10.834   0.266 -0.0948  0.3561  0.1732
  307MOL0     N41361   1.741  10.832   0.373  0.8714  0.4830  1.1024
  307MOL0     C41362   2.415  11.376   1.013 -0.1745  0.8459  1.2745
  307MOL0     C41363   2.383  11.461   1.110 -0.2805 -0.3496 -0.8549
  307MOL0     C41364   2.124  11.666   1.446  0.1429 -0.1490 -0.7348
  307MOL0     C41365   2.073  11.778   1.385  0.1516 -0.5358  0.3184
  307MOL0     C41366   2.016  11.875   1.458 -0.2765  0.7295 -0.1356
  307MOL0     C41367   2.013  11.878   1.599  0.3684  0.9127 -0.6425
  307MOL0     O41368   1.951  11.985   1.663 -0.2646 -0.1680 -0.4880
  307MOL0     C41369   1.974  11.984   1.812 -0.7892 -0.7155 -0.4634
  307MOL0     C41370   1.925  12.120   1.867  0.0929  0.1459 -0.4984
  307MOL0     C41371   2.049  12.212   1.888  0.1198  0.0524 -0.1897
  307MOL0     C41372   2.003  12.339   1.949 -0.1245 -1.0721  0.1599
  307MOL0     C41373   2.110  12.419   2.011  0.1173 -0.1101  0.9009
  307MOL0     C41374   2.192  12.487   2.062  0.6666  0.2318 -0.1346
  307MOL0     C41375   2.059  11.757   1.659 -0.1511 -0.4492 -0.8067
  307MOL0     C41376   2.120  11.660   1.584 -0.2544  0.2371 -0.1776
  307MOL0     C41377   2.180  11.547   1.670 -0.4717  0.4543  0.1749
  307MOL0     H41378   2.048  11.487   1.072 -0.3169 -0.8120  2.7796
  307MOL0     H41379   2.097  11.332   0.891  0.3250  1.6688  0.3768
  307MOL0     H41380   2.533  11.314   0.733 -0.9332  1.0858  1.0970
  307MOL0     H41381   2.534  11.167   0.826  2.7762 -0.4267 -1.8085
  307MOL0     H41382   2.383  11.049   0.660 -1.9778  1.6101  2.0410
  307MOL0     H41383   2.523  11.094   0.575 -0.1342 -3.2855  2.1565
  307MOL0     H41384   2.392  11.325   0.524 -2.1555  0.3468  1.2732
  307MOL0     H41385   2.259  11.222   0.569 -0.3646  2.4221 -0.7024
  307MOL0     H41386   2.301  11.221   0.309 -1.2737  1.4260  1.4094
  307MOL0     H41387   2.467  11.160   0.345  0.8735  0.7115  3.4152
  307MOL0     H41388   2.297  10.996   0.269 -1.1184  0.0521 -0.3455
  307MOL0     H41389   2.378  10.946   0.427  2.3241  2.7139  1.6527
  307MOL0     H41390   2.166  11.004   0.538  4.2681  1.7760 -0.5713
  307MOL0     H41391   2.107  11.059   0.376  0.5850 -0.0454 -1.1538
  307MOL0     H41392   2.196  10.771   0.450 -2.1431 -0.2996  1.6701
  307MOL0     H41393   2.136  10.821   0.286  0.1507 -4.4804  0.0374
  307MOL0     H41394   1.991  10.731   0.493  1.7476  0.0111 -1.2118
  307MOL0     H41395   1.957  10.893   0.525 -1.4332  1.5302 -0.9757
  307MOL0     H41396   1.969  10.830   0.135  0.2703  1.4546  0.3656
  307MOL0     H41397   1.782  10.906  -0.037 -0.0393  1.3105  1.1787
  307MOL0     H41398   1.711  10.748  -0.026 -1.1715 -0.2962  0.3237
  307MOL0     H41399   1.557  10.938  -0.112  0.8329  0.9081  1.4187
  307MOL0     H41400   1.487  10.866   0.040  2.0054 -1.2415  1.4425
  307MOL0     H41401   1.653  11.114   0.018  0.0603 -0.1312 -1.6845
  307MOL0     H41402   1.539  11.059   0.160 -2.2612 -0.1727 -0.9268
  307MOL0     H41403   1.368  11.088  -0.042  0.9574 -2.8281 -0.4520
  307MOL0     H41404   1.498  11.175  -0.120  1.0538  0.1803  0.4841
  307MOL0     H41405   1.289  11.081   0.185  4.6281 -1.6032  1.7165
  307MOL0     H41406   1.166  11.126   0.390  0.1058 -1.6496 -1.6164
  307MOL0     H41407   0.854  11.203   0.628  0.0449  1.2700 -0.0502
  307MOL0     H41408   0.735  11.203   0.856  0.2479 -1.1077  2.6815
  307MOL0     H41409   1.013  11.161   1.187 -0.0510  1.2338  1.7884
  307MOL0     H41410   0.933  11.315   1.231  1.6209  0.5039 -1.5167
  307MOL0     H41411   0.749  11.161   1.354 -0.2099 -1.3669 -0.9938
  307MOL0     H41412   0.826  11.018   1.294  1.0626 -0.6444  0.0994
  307MOL0     H41413   0.957  11.009   1.467 -0.0871  0.7877  0.6247
  307MOL0     H41414   1.043  11.146   1.413  0.3939 -1.7616 -1.5171
  307MOL0     H41415   0.786  11.150   1.600  0.0952 -1.6539  0.9539
  307MOL0     H41416   0.900  11.280   1.568  1.6220  0.6944 -2.0330
  307MOL0     H41417   1.077  11.137   1.689 -0.7317  1.1033 -1.2264
  307MOL0     H41418   0.956  11.021   1.726  0.5483  0.0137 -0.8307
  307MOL0     H41419   0.844  11.265   1.822 -1.0510 -1.3751  0.0124
  307MOL0     H41420   0.942  11.150   1.929  3.8247 -1.5606 -1.5953
  307MOL0     H41421   1.028  11.385   1.758 -4.2721  0.4593  0.1326
  307MOL0     H41422   1.144  11.286   1.864 -0.1321 -1.7392 -2.2916
  307MOL0     H41423   0.921  11.484   1.929 -1.1353  0.6674  1.8780
  307MOL0     H41424   0.967  11.368   2.054  0.5703 -2.3964 -0.7472
  307MOL0     H41425   1.127  11.283   1.030  3.3694 -0.8051 -2.4363
  307MOL0     H41426   1.221  11.293   0.814 -0.4498 -2.6208  1.5444
  307MOL0     H41427   1.319  11.536   0.381 -0.9332  0.1600  1.7397
  307MOL0     H41428   1.423  11.495   0.162 -0.8744  0.4464  0.2556
  307MOL0     H41429   2.518  11.352   0.988 -0.6402  1.2239 -1.3080
  307MOL0     H41430   2.464  11.495   1.174 -1.9753  0.0369  1.1658
  307MOL0     H41431   2.058  11.794   1.279  1.1808 -0.5926  0.1540
  307MOL0     H41432   1.967  11.957   1.406  0.5633  1.4222  0.1427
  307MOL0     H41433   2.077  11.960   1.837 -1.1202 -0.9828  0.6923
  307MOL0     H41434   1.908  11.911   1.861 -5.1418  2.0144 -1.6711
  307MOL0     H41435   1.871  12.107   1.961 -0.9811  0.7294 -1.0156
  307MOL0     H41436   1.863  12.171   1.792  2.9532  0.7187 -2.6262
  307MOL0     H41437   2.086  12.252   1.793  0.7910  3.1590  1.2269
  307MOL0     H41438   2.123  12.154   1.944 -0.1120  0.1073  0.1790
  307MOL0     H41439   1.945  12.399   1.877  1.0911 -0.8438 -0.6518
  307MOL0     H41440   1.930  12.316   2.027 -2.6030  1.5367 -1.1883
  307MOL0     H41441   2.265  12.555   2.102  2.9774 -2.1224 -0.1466
  307MOL0     H41442   2.060  11.736   1.766  1.0779 -2.8441 -1.2242
  307MOL0     H41443   2.179  11.572   1.776 -3.6408  0.1739  0.3058
  307MOL0     H41444   2.119  11.457   1.662  2.7057 -2.0499  1.8852
  307MOL0     H41445   2.282  11.515   1.649 -0.4242  1.9441 -2.4638
  308MOL0     O41446   8.891   0.426   4.219 -0.0197  0.7240  0.0683
  308MOL0     C41447   8.982   0.494   4.278  0.3485  0.5565 -0.1690
  308MOL0     O41448   8.990   0.520   4.413 -0.4838  0.5655  0.4694
  308MOL0     C41449   8.894   0.468   4.499 -0.0002  0.1941 -0.0912
  308MOL0     C41450   8.792   0.556   4.530 -0.9572 -0.6845 -0.6772
  308MOL0     C41451   8.695   0.522   4.619  0.5823  0.2574  0.7205
  308MOL0     C41452   8.700   0.404   4.688 -0.0478  0.2110  0.2747
  308MOL0     O41453   8.618   0.372   4.795  0.0883  0.0381  0.1532
  308MOL0     C41454   8.502   0.460   4.822 -0.5499 -0.0902 -0.3638
  308MOL0     C41455   8.421   0.409   4.942 -0.1205 -0.2718 -0.0193
  308MOL0     C41456   8.277   0.463   4.945 -0.5642 -0.3380  0.4903
  308MOL0     C41457   8.203   0.425   5.074  0.9837  0.4989 -1.6606
  308MOL0     C41458   8.265   0.489   5.194 -0.0539 -0.7323  0.4458
  308MOL0     C41459   8.152   0.561   5.273  0.1185 -0.6239  0.5774
  308MOL0     C41460   8.189   0.582   5.420 -0.0925  0.5355 -0.0487
  308MOL0     C41461   8.064   0.580   5.508 -0.5235 -0.2544 -0.9215
  308MOL0     N41462   7.957   0.663   5.458 -1.4179 -0.2285  0.2135
  308MOL0     C41463   7.961   0.800   5.458 -0.0321  0.0561  0.5154
  308MOL0     C41464   7.841   0.831   5.395 -1.0469  0.3226 -1.2350
  308MOL0     C41465   7.791   0.974   5.378 -0.1585  0.1161  0.2906
  308MOL0     C41466   7.714   1.003   5.505  0.0880 -0.2374  0.6837
  308MOL0     C41467   7.798   1.033   5.631 -0.0020 -0.1560  0.4666
  308MOL0     C41468   7.882   1.155   5.612  0.2712 -0.1647 -0.0619
  308MOL0     O41469   8.009   1.134   5.551 -0.5621  0.6007  0.0216
  308MOL0     C41470   8.051   1.255   5.492 -0.2529  0.0388 -0.4054
  308MOL0     C41471   8.123   1.348   5.567  0.0083  0.9348 -0.5267
  308MOL0     C41472   8.153   1.472   5.510 -0.7197  0.0778 -0.4717
  308MOL0     C41473   8.132   1.502   5.383  0.5912 -0.2932  0.4353
  308MOL0     C41474   8.165   1.636   5.326 -0.1833  0.5930  0.2103
  308MOL0     O41475   8.232   1.722   5.404 -0.3227  0.6658 -0.4737
  308MOL0     C41476   8.232   1.850   5.371  0.1624  0.8278  0.9294
  308MOL0     C41477   8.300   1.896   5.252 -0.5297  0.1834  0.4468
  308MOL0     C41478   8.308   2.033   5.224  0.3719 -0.1141 -0.4982
  308MOL0     C41479   8.255   2.121   5.306  1.3319  0.7462  0.3204
  308MOL0     O41480   8.295   2.253   5.292 -0.1991 -0.3816 -0.1733
  308MOL0     C41481   8.204   2.331   5.209  0.1974  1.5862 -0.1887
  308MOL0     C41482   8.192   2.282   5.061 -0.6675  0.4867  0.4535
  308MOL0     C41483   8.117   2.381   4.967  0.7021  0.0649 -0.1542
  308MOL0     C41484   7.970   2.415   5.008  0.3161  0.4845 -0.0689
  308MOL0     C41485   7.902   2.509   4.909  0.4461 -1.0253  1.5620
  308MOL0     C41486   7.957   2.653   4.891 -0.1356  0.5533  0.2839
  308MOL0     C41487   7.993   2.717   5.024 -0.1611  0.8557  0.9014
  308MOL0     C41488   7.881   2.746   5.116 -0.4910 -0.3669 -0.1463
  308MOL0    Cl41489   7.773   2.856   5.047 -0.5123  0.1720  0.4898
  308MOL0     C41490   8.193   2.073   5.422  0.1923 -0.3719 -0.2323
  308MOL0     C41491   8.176   1.948   5.460  0.3738  0.0685  1.1878
  308MOL0     O41492   8.133   1.661   5.208 -0.1217  0.3384  1.0802
  308MOL0     C41493   8.068   1.402   5.310 -0.6017 -0.9881  1.0677
  308MOL0     C41494   8.038   1.279   5.358  0.4055 -0.4687  0.6324
  308MOL0     N41495   7.773   0.719   5.358  0.7301 -0.3631  0.2451
  308MOL0     N41496   7.841   0.612   5.403 -0.6763  0.6364  0.8301
  308MOL0     C41497   8.802   0.315   4.654  0.1675 -0.0904 -0.7862
  308MOL0     C41498   8.898   0.338   4.559 -0.2037 -0.3789 -1.0996
  308MOL0     C41499   9.077   0.560   4.182  0.6411 -0.6618 -0.5385
  308MOL0     C41500   9.139   0.482   4.093 -0.7276  0.5351  0.0719
  308MOL0     C41501   9.243   0.531   4.005  0.2227 -0.8752 -1.1217
  308MOL0     C41502   9.267   0.669   4.004 -0.6570  0.5900  0.0111
  308MOL0     O41503   9.369   0.730   3.942 -0.4105 -0.4644  1.0379
  308MOL0     C41504   9.404   0.702   3.808 -0.0528  0.9218  1.0113
  308MOL0     C41505   9.556   0.701   3.810 -1.3435  0.3335 -0.2712
  308MOL0     C41506   9.628   0.644   3.679 -0.3857  0.9072 -0.1830
  308MOL0     C41507   9.650   0.491   3.675 -0.2415  0.2588  0.6428
  308MOL0     C41508   9.534   0.406   3.649 -0.8113  0.0974 -0.2414
  308MOL0     C41509   9.453   0.319   3.645 -0.4643  0.3794  1.3145
  308MOL0     C41510   9.199   0.751   4.100 -0.4790  0.3326 -0.8782
  308MOL0     C41511   9.101   0.703   4.187  0.4334  0.3521 -1.3619
  308MOL0     C41512   9.028   0.788   4.291  0.0594 -0.1645  0.6688
  308MOL0     H41513   8.805   0.652   4.481  2.2829  0.1498  1.5358
  308MOL0     H41514   8.603   0.577   4.639 -2.7522 -4.0019 -1.3478
  308MOL0     H41515   8.534   0.561   4.847 -2.2958  0.6148 -0.8853
  308MOL0     H41516   8.439   0.459   4.732  0.6263  1.8628 -1.2533
  308MOL0     H41517   8.476   0.436   5.033 -0.6085  0.7076 -0.0071
  308MOL0     H41518   8.415   0.299   4.938 -5.0870 -0.2929  1.3787
  308MOL0     H41519   8.216   0.414   4.870 -0.2005 -1.2307  0.7618
  308MOL0     H41520   8.267   0.568   4.915  5.0790 -0.1966 -2.3270
  308MOL0     H41521   8.098   0.455   5.066  0.0547 -2.4139 -1.4082
  308MOL0     H41522   8.214   0.319   5.096  1.2203  0.7530 -0.4520
  308MOL0     H41523   8.319   0.419   5.258 -2.4460 -1.4735  1.7641
  308MOL0     H41524   8.336   0.570   5.172  1.5113 -2.1359  0.1751
  308MOL0     H41525   8.144   0.665   5.241  1.7038  0.0223  2.0720
  308MOL0     H41526   8.052   0.516   5.267 -1.1853  2.1547 -0.5210
  308MOL0     H41527   8.240   0.677   5.439  1.1799  0.1642 -1.4753
  308MOL0     H41528   8.256   0.504   5.457 -1.5644  0.4656  2.7142
  308MOL0     H41529   8.028   0.477   5.516 -2.9492  0.6094  0.2207
  308MOL0     H41530   8.106   0.616   5.602  0.9202 -1.4565 -1.0699
  308MOL0     H41531   8.031   0.873   5.498  1.5674  0.8643 -3.3780
  308MOL0     H41532   7.870   1.047   5.355  0.6583 -1.3266 -1.7630
  308MOL0     H41533   7.720   0.982   5.295 -0.4278  3.4186  0.6849
  308MOL0     H41534   7.655   1.092   5.481  1.0688  0.2785  0.0900
  308MOL0     H41535   7.637   0.930   5.528 -0.3663 -0.2106 -0.6730
  308MOL0     H41536   7.866   0.951   5.657 -1.2439 -0.8747  1.5868
  308MOL0     H41537   7.727   1.054   5.712  1.4489  4.0173  0.8846
  308MOL0     H41538   7.895   1.178   5.718  1.4218  0.2371 -0.2757
  308MOL0     H41539   7.835   1.243   5.565 -0.7040  0.0360  1.2303
  308MOL0     H41540   8.145   1.319   5.669  1.2720  1.7674 -0.5428
  308MOL0     H41541   8.193   1.544   5.581 -1.2289  1.1895 -1.2705
  308MOL0     H41542   8.363   1.827   5.197 -0.7474 -0.8187  1.4072
  308MOL0     H41543   8.369   2.065   5.140 -1.2948 -0.7524 -2.0222
  308MOL0     H41544   8.097   2.331   5.235  0.1412  1.5117 -0.4254
  308MOL0     H41545   8.239   2.435   5.218  0.9330  1.2457  1.2719
  308MOL0     H41546   8.296   2.255   5.037 -0.9521 -0.9508  0.7793
  308MOL0     H41547   8.127   2.194   5.056  1.9991 -1.5654 -1.1972
  308MOL0     H41548   8.183   2.468   4.968  1.5572 -0.2849 -4.4678
  308MOL0     H41549   8.125   2.345   4.864 -0.4337 -0.1640 -0.1760
  308MOL0     H41550   7.974   2.451   5.111  1.2086 -1.3377  0.5616
  308MOL0     H41551   7.916   2.320   5.004  1.9249 -0.4304 -0.8064
  308MOL0     H41552   7.804   2.512   4.959  1.2575 -0.3826  3.1932
  308MOL0     H41553   7.887   2.474   4.807 -0.8589  2.8099  0.2976
  308MOL0     H41554   8.044   2.651   4.824 -0.8078 -2.1075 -0.6427
  308MOL0     H41555   7.884   2.722   4.850 -0.0430  0.6104  0.2154
  308MOL0     H41556   8.049   2.808   4.999 -3.8213  2.7642 -1.1463
  308MOL0     H41557   8.059   2.650   5.081 -0.7931  0.0754  0.7354
  308MOL0     H41558   7.835   2.659   5.164  0.2475 -1.5906 -1.5747
  308MOL0     H41559   7.917   2.794   5.208  0.3682 -2.3387  0.6057
  308MOL0     H41560   8.135   2.139   5.486 -3.0561 -1.5913 -1.7216
  308MOL0     H41561   8.119   1.919   5.548 -0.9935  1.9666  0.9787
  308MOL0     H41562   8.023   1.434   5.216 -1.6492 -2.7591  0.9374
  308MOL0     H41563   7.984   1.206   5.298 -0.3047  0.8400 -0.3655
  308MOL0     H41564   8.817   0.220   4.705 -0.4634  0.5620  0.6622
  308MOL0     H41565   8.986   0.276   4.544  1.0998  0.3563  2.5337
  308MOL0     H41566   9.126   0.375   4.088  0.9198  0.1717  1.9893
  308MOL0     H41567   9.285   0.463   3.932 -0.5013 -1.8773 -0.6276
  308MOL0     H41568   9.358   0.785   3.754 -1.7104 -1.2376 -1.1187
  308MOL0     H41569   9.363   0.606   3.775  2.4312 -0.0044  0.3531
  308MOL0     H41570   9.583   0.646   3.901 -3.5952  1.3594  1.1097
  308MOL0     H41571   9.597   0.802   3.819  1.5979 -0.8760  1.2644
  308MOL0     H41572   9.727   0.690   3.688 -0.6883  1.2343  2.0304
  308MOL0     H41573   9.572   0.678   3.592  1.4410 -0.2236 -1.8837
  308MOL0     H41574   9.725   0.489   3.595  0.1362 -0.9588  1.0150
  308MOL0     H41575   9.698   0.473   3.772 -1.8636 -1.1882  1.2297
  308MOL0     H41576   9.383   0.240   3.662  0.5221 -1.0305 -0.7188
  308MOL0     H41577   9.224   0.856   4.110  0.4853 -0.0188  1.0389
  308MOL0     H41578   9.033   0.894   4.265  1.7015 -1.0321 -3.4117
  308MOL0     H41579   8.921   0.767   4.297 -0.3263  0.8909 -1.5724
  308MOL0     H41580   9.086   0.776   4.382  1.0576 -0.5812  0.0000
  309MOL0     O41581   4.454  11.511  10.841 -0.6159 -0.7465  0.0359
  309MOL0     C41582   4.423  11.549  10.724 -0.9997  0.3539  0.1886
  309MOL0     O41583   4.356  11.671  10.689  0.0323 -0.2802  1.4395
  309MOL0     C41584   4.290  11.756  10.784 -0.1316  0.2232  0.4981
  309MOL0     C41585   4.270  11.726  10.921 -0.7188  0.1391  0.3827
  309MOL0     C41586   4.214  11.816  11.010  0.0299 -0.5691  0.1089
  309MOL0     C41587   4.152  11.928  10.956 -0.1393 -0.3492  0.4740
  309MOL0     O41588   4.091  12.015  11.047 -0.0763  0.5505 -0.4437
  309MOL0     C41589   4.061  12.159  11.011 -0.4310  0.3062 -0.3681
  309MOL0     C41590   3.988  12.218  11.135  0.0370  0.8704  1.1209
  309MOL0     C41591   3.996  12.370  11.132  0.2479  0.9641 -0.2922
  309MOL0     C41592   3.901  12.434  11.236  0.0269 -0.7888  0.0765
  309MOL0     C41593   3.923  12.597  11.229  0.4658 -0.0780 -0.1284
  309MOL0     C41594   3.857  12.661  11.102  0.4123 -0.0725 -0.0614
  309MOL0     C41595   3.858  12.816  11.101 -0.6626  0.3735 -0.2757
  309MOL0     C41596   3.861  12.870  10.960  0.1211  0.8605  0.4025
  309MOL0     N41597   3.897  13.017  10.947 -0.8490  0.0491 -0.5946
  309MOL0     C41598   3.825  13.105  11.026 -0.6225 -0.3490  1.2190
  309MOL0     C41599   3.838  13.229  10.969 -0.2444  0.6517  0.7103
  309MOL0     C41600   3.767  13.350  11.010  0.1896  0.1589 -1.4358
  309MOL0     C41601   3.857  13.459  11.078 -0.8515 -0.7937  0.2810
  309MOL0     C41602   3.976  13.518  11.003  0.1971 -0.3656  0.1960
  309MOL0     C41603   3.933  13.550  10.859  0.3888 -0.4040  0.2016
  309MOL0     O41604   4.017  13.649  10.791  0.2688  1.3670  1.2635
  309MOL0     C41605   4.147  13.632  10.761  0.7705 -1.2292 -0.6017
  309MOL0     C41606   4.219  13.521  10.747  0.4523 -0.4889  0.2501
  309MOL0     C41607   4.346  13.522  10.688  0.1819  0.6426  0.4638
  309MOL0     C41608   4.398  13.636  10.633  0.0789 -0.5422  1.2727
  309MOL0     C41609   4.503  13.616  10.530 -0.1968  0.1656  0.4862
  309MOL0     O41610   4.512  13.710  10.423 -0.0724  0.5255  0.5260
  309MOL0     C41611   4.641  13.728  10.365  0.4759  1.7398 -0.1631
  309MOL0     C41612   4.714  13.841  10.396 -0.9677 -0.6247 -0.6011
  309MOL0     C41613   4.839  13.877  10.327 -0.1949 -0.0406 -0.3639
  309MOL0     C41614   4.881  13.795  10.224 -0.1548  1.1828  0.6241
  309MOL0     O41615   4.996  13.818  10.163  0.2422  0.2690  0.1810
  309MOL0     C41616   5.068  13.703  10.119  0.2111 -0.8771 -0.1044
  309MOL0     C41617   5.192  13.748  10.051  0.0623 -0.2130 -0.7429
  309MOL0     C41618   5.309  13.752  10.160  0.1845  0.0920  0.3468
  309MOL0     C41619   5.359  13.895  10.190  0.5031 -0.6639  0.0351
  309MOL0     C41620   5.472  13.895  10.285  0.6165  0.4431 -0.8380
  309MOL0     C41621   5.537  14.034  10.308 -0.0934  0.4514 -0.1143
  309MOL0     C41622   5.598  14.068  10.437 -0.9349  0.2195  0.1776
  309MOL0     C41623   5.633  14.218  10.455  0.3186  0.5968  0.3875
  309MOL0    Cl41624   5.678  14.245  10.623 -0.2586  0.6786  0.3799
  309MOL0     C41625   4.805  13.676  10.194 -0.4266  0.9155 -0.3626
  309MOL0     C41626   4.688  13.643  10.260  0.3593  0.2143 -0.0807
  309MOL0     O41627   4.588  13.527  10.547  0.1566 -0.2264 -0.4757
  309MOL0     C41628   4.319  13.754  10.641  0.0741  1.0664 -0.6905
  309MOL0     C41629   4.195  13.749  10.702 -0.1502 -0.8211  0.4466
  309MOL0     N41630   3.912  13.217  10.851 -0.2709 -0.2535 -0.7810
  309MOL0     N41631   3.947  13.089  10.839 -0.0728 -0.6045  0.0286
  309MOL0     C41632   4.164  11.963  10.819  0.4851 -0.7823 -0.7148
  309MOL0     C41633   4.233  11.878  10.730  0.3379  0.5358 -0.3329
  309MOL0     C41634   4.455  11.457  10.613 -1.2453  0.4357  0.5002
  309MOL0     C41635   4.575  11.382  10.625  1.1156  0.0644 -0.3556
  309MOL0     C41636   4.614  11.293  10.527  0.1338  0.0968 -0.3234
  309MOL0     C41637   4.547  11.292  10.409 -1.3888 -0.9835  0.8074
  309MOL0     O41638   4.587  11.221  10.296 -0.4902 -0.3225  0.2882
  309MOL0     C41639   4.723  11.164  10.295 -0.1873  0.4733 -0.2420
  309MOL0     C41640   4.824  11.285  10.271 -0.8118 -0.0029  0.8294
  309MOL0     C41641   4.964  11.217  10.282 -0.3783 -0.5097  0.4998
  309MOL0     C41642   5.062  11.342  10.274  0.6289 -0.2549 -0.1137
  309MOL0     C41643   5.201  11.280  10.266  0.2539 -0.3628  0.5497
  309MOL0     C41644   5.314  11.244  10.262  0.2519  0.6523 -0.4019
  309MOL0     C41645   4.430  11.361  10.392  0.4654 -0.0733 -0.3344
  309MOL0     C41646   4.379  11.433  10.501  0.4705 -0.5554 -0.0802
  309MOL0     C41647   4.247  11.504  10.471  0.3025 -0.0453 -0.1718
  309MOL0     H41648   4.314  11.641  10.973  0.4291  1.2743  1.3493
  309MOL0     H41649   4.217  11.800  11.117  1.6924  3.4143  0.8303
  309MOL0     H41650   4.156  12.212  10.998 -1.7534  3.0954  0.4439
  309MOL0     H41651   3.992  12.171  10.928  0.6794  1.8599 -1.1020
  309MOL0     H41652   4.038  12.170  11.219 -0.8457  1.0128  1.7385
  309MOL0     H41653   3.886  12.179  11.121  1.0574 -1.1248 -1.6283
  309MOL0     H41654   3.971  12.416  11.036  0.4152  1.4970 -0.0822
  309MOL0     H41655   4.098  12.403  11.151  2.6035 -3.4519 -3.5873
  309MOL0     H41656   3.797  12.406  11.215  0.0689 -0.6425 -0.3377
  309MOL0     H41657   3.933  12.390  11.331  1.6322 -2.1820 -1.0467
  309MOL0     H41658   3.898  12.656  11.318 -0.7317  0.8042 -1.0146
  309MOL0     H41659   4.031  12.609  11.216  0.3133  3.3581  0.7484
  309MOL0     H41660   3.905  12.624  11.011 -1.3589 -3.1105  0.0904
  309MOL0     H41661   3.753  12.627  11.096  0.0988  0.3369  2.3300
  309MOL0     H41662   3.954  12.843  11.146 -0.0997  2.4490 -2.4999
  309MOL0     H41663   3.775  12.857  11.160  1.7202 -1.4118  4.9190
  309MOL0     H41664   3.933  12.808  10.907 -2.5988 -2.0326 -0.2214
  309MOL0     H41665   3.759  12.861  10.921  0.8265 -1.1306 -1.1619
  309MOL0     H41666   3.761  13.085  11.111 -1.1593 -0.1356  0.8704
  309MOL0     H41667   3.717  13.395  10.923 -0.6626  1.7480 -0.1957
  309MOL0     H41668   3.696  13.318  11.087  2.2418 -1.5331 -0.1701
  309MOL0     H41669   3.794  13.538  11.120  2.0737  1.7647  0.1765
  309MOL0     H41670   3.896  13.416  11.171  0.7876  0.0201  0.0125
  309MOL0     H41671   4.054  13.441  10.995 -0.3143 -0.9931  1.0687
  309MOL0     H41672   4.021  13.603  11.055 -0.7725  1.2004 -1.4280
  309MOL0     H41673   3.834  13.597  10.857  0.4059 -0.3231 -2.5721
  309MOL0     H41674   3.929  13.469  10.786  0.7196  1.0024 -1.4494
  309MOL0     H41675   4.184  13.420  10.765  0.9381 -0.9575 -1.2885
  309MOL0     H41676   4.407  13.432  10.685  1.1095  1.0541  3.3163
  309MOL0     H41677   4.669  13.901  10.475 -0.6240 -3.3986  1.8658
  309MOL0     H41678   4.890  13.971  10.342  0.6499 -0.1283 -2.4239
  309MOL0     H41679   5.085  13.642  10.208 -0.7507  0.5299  1.1000
  309MOL0     H41680   5.013  13.649  10.041  2.2079 -1.1090 -1.4308
  309MOL0     H41681   5.224  13.681   9.971  1.3671 -1.5012  0.7818
  309MOL0     H41682   5.178  13.844  10.000  1.3678  1.1441  1.3053
  309MOL0     H41683   5.286  13.712  10.259  5.6532 -1.8763  1.1700
  309MOL0     H41684   5.402  13.702  10.133  1.7871  2.0930  1.8100
  309MOL0     H41685   5.273  13.941  10.238  0.6789  1.9838 -1.9591
  309MOL0     H41686   5.370  13.948  10.095 -3.9556  1.1695  0.2804
  309MOL0     H41687   5.551  13.829  10.248 -0.3583 -0.5092 -1.2508
  309MOL0     H41688   5.419  13.873  10.378  2.2831  2.4858  0.6910
  309MOL0     H41689   5.613  14.057  10.233  0.2031  1.8198  0.5675
  309MOL0     H41690   5.458  14.106  10.288  1.3223  1.6538 -1.7509
  309MOL0     H41691   5.690  14.009  10.435 -1.3925 -0.4991 -1.3915
  309MOL0     H41692   5.533  14.053  10.524 -3.5590  1.7121 -1.3995
  309MOL0     H41693   5.700  14.254  10.377  1.2118  2.5161  1.9423
  309MOL0     H41694   5.540  14.271  10.431  0.5066  1.5669  1.6656
  309MOL0     H41695   4.833  13.604  10.117  0.2729 -2.7139  2.9505
  309MOL0     H41696   4.633  13.551  10.243 -0.0988  0.0332  2.0758
  309MOL0     H41697   4.351  13.840  10.582  0.8172  0.2359 -1.5306
  309MOL0     H41698   4.141  13.843  10.712 -0.7925 -1.0413 -0.7718
  309MOL0     H41699   4.111  12.050  10.781  0.2657 -0.5421  0.1313
  309MOL0     H41700   4.245  11.910  10.626 -0.7959 -0.1100 -0.6765
  309MOL0     H41701   4.642  11.400  10.708  4.9707 -2.9383 -2.4805
  309MOL0     H41702   4.698  11.230  10.555 -0.1196 -0.4452 -0.7547
  309MOL0     H41703   4.724  11.075  10.232 -3.0819 -2.2105  3.0999
  309MOL0     H41704   4.752  11.113  10.387 -1.6881 -1.7040 -0.9026
  309MOL0     H41705   4.804  11.367  10.341 -2.8093  1.0711 -0.8973
  309MOL0     H41706   4.816  11.334  10.174 -1.7056  2.9464  2.2588
  309MOL0     H41707   4.974  11.155  10.193 -1.9961  0.9652 -0.7821
  309MOL0     H41708   4.990  11.161  10.373  0.1748  1.0360  1.3378
  309MOL0     H41709   5.047  11.397  10.180  1.5832 -1.8730 -1.2840
  309MOL0     H41710   5.037  11.396  10.365  0.2893 -1.0127  0.2485
  309MOL0     H41711   5.410  11.196  10.272  0.6610  1.5552  0.0670
  309MOL0     H41712   4.382  11.372  10.295  0.4440 -0.0352 -0.3194
  309MOL0     H41713   4.190  11.525  10.562 -0.7122 -0.2271 -0.7610
  309MOL0     H41714   4.260  11.596  10.413 -0.5564  1.3510  1.7274
  309MOL0     H41715   4.178  11.442  10.414 -1.7021  1.3628  0.6215
  310MOL0     O41716   4.945   9.180   2.612  0.1041 -0.0446  0.4107
  310MOL0     C41717   4.922   9.178   2.728 -0.9490  0.0294  0.4464
  310MOL0     O41718   4.803   9.190   2.778 -0.1753 -0.9786 -0.1472
  310MOL0     C41719   4.688   9.222   2.715  1.9679 -0.4852  0.2253
  310MOL0     C41720   4.602   9.336   2.757 -1.5046 -0.0616  0.7642
  310MOL0     C41721   4.479   9.355   2.706 -1.0827 -0.5183 -0.7548
  310MOL0     C41722   4.437   9.262   2.613  0.0569  0.0695 -0.5439
  310MOL0     O41723   4.318   9.285   2.540  0.3428  0.4198 -0.1740
  310MOL0     C41724   4.293   9.418   2.484  0.6276  0.3189 -0.9547
  310MOL0     C41725   4.165   9.415   2.414 -0.0327 -0.2337  0.9054
  310MOL0     C41726   4.174   9.361   2.269 -1.0091 -0.3451  0.8894
  310MOL0     C41727   4.201   9.213   2.255 -0.8066 -0.7661 -0.0318
  310MOL0     C41728   4.206   9.158   2.111  0.0462 -0.2058 -0.1168
  310MOL0     C41729   4.250   9.020   2.110 -0.0902 -0.6872  0.8141
  310MOL0     C41730   4.238   8.967   1.962  0.0328  0.4891  0.5213
  310MOL0     C41731   4.146   8.836   1.961 -0.4851  0.8559  0.7635
  310MOL0     N41732   4.114   8.787   1.829  0.1863 -0.2249 -0.2888
  310MOL0     C41733   4.181   8.814   1.712 -1.3532  1.0679 -0.5693
  310MOL0     C41734   4.110   8.760   1.611  0.0258  0.7021  0.8155
  310MOL0     C41735   4.118   8.765   1.463  0.2458  0.5989 -0.8868
  310MOL0     C41736   4.178   8.894   1.406 -0.5768 -0.2218  0.2777
  310MOL0     C41737   4.083   9.014   1.386  0.1763  0.5587 -0.4946
  310MOL0     C41738   4.019   9.046   1.521  0.2769  0.8384  0.3040
  310MOL0     O41739   4.125   9.071   1.622 -0.1071  0.2932  0.0857
  310MOL0     C41740   4.147   9.202   1.627 -0.0016  0.7185 -0.4382
  310MOL0     C41741   4.248   9.267   1.562  0.7135 -0.6841  0.5680
  310MOL0     C41742   4.286   9.395   1.608 -0.9970  0.7511 -0.3625
  310MOL0     C41743   4.229   9.453   1.721 -0.2362  0.2059 -0.0389
  310MOL0     C41744   4.281   9.584   1.787 -0.4339  0.9793  0.3565
  310MOL0     O41745   4.189   9.659   1.854 -0.2140 -0.7178 -0.4264
  310MOL0     C41746   4.199   9.797   1.855 -0.4115 -0.3866  0.6940
  310MOL0     C41747   4.265   9.873   1.749 -0.0611 -0.2468 -0.6860
  310MOL0     C41748   4.255  10.011   1.741  0.8769 -0.1260 -1.1925
  310MOL0     C41749   4.168  10.086   1.835  0.3522 -0.1461  0.7865
  310MOL0     O41750   4.143  10.216   1.841 -0.4925 -0.6692 -0.4260
  310MOL0     C41751   4.203  10.296   1.744 -0.9535 -0.0147  0.2308
  310MOL0     C41752   4.175  10.447   1.767  0.1209  0.3304 -0.0428
  310MOL0     C41753   4.239  10.506   1.893 -0.0785  0.8377 -0.0574
  310MOL0     C41754   4.369  10.573   1.864  0.2786  0.5923  0.5966
  310MOL0     C41755   4.413  10.655   1.987  0.2928  0.0115 -0.5223
  310MOL0     C41756   4.536  10.742   1.937 -0.7758 -0.0226  0.4175
  310MOL0     C41757   4.587  10.844   2.037  0.6784  0.3660  0.6575
  310MOL0     C41758   4.720  10.919   2.021 -1.0930 -0.5936  0.1144
  310MOL0    Cl41759   4.858  10.814   2.052 -0.5131 -0.4165 -0.4087
  310MOL0     C41760   4.102  10.017   1.928  0.6859  0.5651  0.8003
  310MOL0     C41761   4.111   9.873   1.939  0.4931  0.0394  0.0906
  310MOL0     O41762   4.395   9.615   1.766 -0.6800  0.2170  0.4455
  310MOL0     C41763   4.135   9.381   1.790 -0.0162  0.0146 -0.0833
  310MOL0     C41764   4.095   9.257   1.744 -0.5731 -0.2699  0.2057
  310MOL0     N41765   4.001   8.696   1.670 -0.2782 -0.9872 -0.6428
  310MOL0     N41766   3.998   8.713   1.796 -1.0343  0.1541  0.4326
  310MOL0     C41767   4.505   9.137   2.585 -0.6054  0.0583  0.0712
  310MOL0     C41768   4.642   9.129   2.617 -0.7819 -0.5378  0.2781
  310MOL0     C41769   5.036   9.157   2.826  0.1105  0.2965 -0.5425
  310MOL0     C41770   5.165   9.200   2.792  0.8244 -0.3247 -0.5307
  310MOL0     C41771   5.267   9.189   2.884  0.1998  0.3794  0.6236
  310MOL0     C41772   5.266   9.124   3.000 -0.0070  0.8272 -0.3747
  310MOL0     O41773   5.375   9.125   3.073 -0.4256 -0.3154 -0.1464
  310MOL0     C41774   5.368   9.089   3.212  0.1723  0.1115 -0.0809
  310MOL0     C41775   5.510   9.101   3.263  0.0310  0.4660  0.7915
  310MOL0     C41776   5.599   8.987   3.223  1.2660 -0.5152 -0.3245
  310MOL0     C41777   5.647   8.998   3.076 -0.3600  0.0947 -0.5605
  310MOL0     C41778   5.757   8.916   3.032  0.5268  0.0381 -0.4537
  310MOL0     C41779   5.838   8.843   2.979 -0.9408 -0.7499 -0.6746
  310MOL0     C41780   5.151   9.049   3.016  0.1171  0.1533  0.0592
  310MOL0     C41781   5.034   9.068   2.938  0.1082 -0.2364 -1.0424
  310MOL0     C41782   4.902   8.995   2.963  0.6367  0.0278  0.1155
  310MOL0     H41783   4.646   9.406   2.828 -0.1898 -2.5131  2.5302
  310MOL0     H41784   4.418   9.439   2.737  0.7965  1.4929 -2.1540
  310MOL0     H41785   4.270   9.483   2.569  1.7490  0.8073 -0.9997
  310MOL0     H41786   4.380   9.447   2.424  0.4182  1.3256 -0.7865
  310MOL0     H41787   4.126   9.516   2.407  1.6705  0.3770 -0.9367
  310MOL0     H41788   4.095   9.361   2.478 -2.0288  0.4587 -0.5857
  310MOL0     H41789   4.258   9.407   2.215 -1.5968 -0.6122 -0.2963
  310MOL0     H41790   4.085   9.379   2.207 -0.0323  1.9274  0.0218
  310MOL0     H41791   4.299   9.207   2.302  1.0333  6.9782 -1.4072
  310MOL0     H41792   4.124   9.157   2.309  1.8339 -2.3793  2.3095
  310MOL0     H41793   4.102   9.166   2.078 -1.0267  1.4677  3.1897
  310MOL0     H41794   4.268   9.221   2.047 -0.0209 -0.2305 -0.2084
  310MOL0     H41795   4.354   9.009   2.142  0.1402  1.3472  0.8550
  310MOL0     H41796   4.182   8.963   2.174 -3.1426  0.6371 -1.0544
  310MOL0     H41797   4.335   8.941   1.919 -0.4167  0.3575 -0.4309
  310MOL0     H41798   4.180   9.034   1.898  1.0971  1.8763  0.9489
  310MOL0     H41799   4.196   8.762   2.023 -0.2444  0.0053 -0.4011
  310MOL0     H41800   4.051   8.850   2.014 -1.0669 -2.2418  0.7172
  310MOL0     H41801   4.273   8.869   1.698 -0.7036  0.5630  1.4958
  310MOL0     H41802   4.170   8.677   1.423 -0.1894 -0.3525  0.5517
  310MOL0     H41803   4.021   8.761   1.414  1.2941 -2.6493 -3.0432
  310MOL0     H41804   4.266   8.920   1.465 -0.6835  0.7208  0.0342
  310MOL0     H41805   4.224   8.876   1.308 -5.8538 -1.3452 -2.3594
  310MOL0     H41806   4.002   8.994   1.315 -3.0459 -0.4526  3.1295
  310MOL0     H41807   4.134   9.108   1.363  2.2921 -0.6500 -1.0009
  310MOL0     H41808   3.955   8.965   1.558  2.1249 -0.0886  1.6042
  310MOL0     H41809   3.951   9.130   1.502 -1.2101 -0.4831 -0.5809
  310MOL0     H41810   4.296   9.225   1.474  0.7107 -0.0306  0.2447
  310MOL0     H41811   4.366   9.444   1.553 -2.6847  1.1178 -2.6690
  310MOL0     H41812   4.319   9.821   1.671 -0.8029  0.4551 -1.6970
  310MOL0     H41813   4.302  10.065   1.659  2.0723 -0.1562 -0.5404
  310MOL0     H41814   4.311  10.290   1.756 -1.0435 -1.0909  0.6159
  310MOL0     H41815   4.178  10.255   1.646  3.0388 -0.0294 -0.9492
  310MOL0     H41816   4.221  10.492   1.679 -1.1509  2.3164  0.2531
  310MOL0     H41817   4.067  10.466   1.764  0.2563  1.0679 -0.3559
  310MOL0     H41818   4.164  10.576   1.929  0.6879  1.7888 -0.2706
  310MOL0     H41819   4.255  10.429   1.970 -0.9727 -2.5971 -3.0043
  310MOL0     H41820   4.356  10.644   1.781 -1.1028  0.9247  1.0746
  310MOL0     H41821   4.447  10.502   1.835 -0.7013 -1.2390  2.2238
  310MOL0     H41822   4.456  10.599   2.071 -0.8552  3.6376  2.7956
  310MOL0     H41823   4.328  10.710   2.028 -0.4373 -2.0776  0.9397
  310MOL0     H41824   4.612  10.668   1.908 -0.4779 -0.3379  1.9303
  310MOL0     H41825   4.507  10.788   1.842 -2.6766 -1.2036  0.3846
  310MOL0     H41826   4.592  10.793   2.134  1.5555  1.9658  1.4972
  310MOL0     H41827   4.514  10.925   2.039 -0.0528 -0.2716  0.1479
  310MOL0     H41828   4.728  10.985   1.934  1.8667  1.3298  1.6722
  310MOL0     H41829   4.728  10.996   2.098  0.6759  0.5366 -1.1208
  310MOL0     H41830   4.041  10.067   2.003  1.1542  0.5965  1.1616
  310MOL0     H41831   4.045   9.818   2.005 -1.5868  0.2029 -1.7398
  310MOL0     H41832   4.101   9.419   1.885  2.3532  0.9525  0.4580
  310MOL0     H41833   4.034   9.199   1.813 -0.1595 -1.7445 -0.6177
  310MOL0     H41834   4.451   9.063   2.526 -3.4112 -1.0430  3.6556
  310MOL0     H41835   4.702   9.044   2.585  1.1993  0.9857 -0.2952
  310MOL0     H41836   5.191   9.251   2.700  1.4860 -1.8668 -1.2284
  310MOL0     H41837   5.360   9.240   2.860  2.1158 -1.6718  3.1112
  310MOL0     H41838   5.329   8.988   3.231  0.7104  0.1097  1.1191
  310MOL0     H41839   5.296   9.146   3.272  1.3574  1.9488 -0.3254
  310MOL0     H41840   5.497   9.108   3.372 -4.4987  1.7147  0.3697
  310MOL0     H41841   5.563   9.192   3.232  1.0314  0.4310  2.2569
  310MOL0     H41842   5.560   8.888   3.251  2.7439 -0.8522  0.6983
  310MOL0     H41843   5.687   9.006   3.285  0.2648  1.6364  0.5425
  310MOL0     H41844   5.565   8.971   3.009 -1.7470 -1.1793  1.5209
  310MOL0     H41845   5.684   9.100   3.059  2.4469 -0.6216  0.6320
  310MOL0     H41846   5.913   8.779   2.938  2.1365  2.2996 -0.2609
  310MOL0     H41847   5.153   8.977   3.098  0.0921  1.1131  0.9302
  310MOL0     H41848   4.861   8.935   2.881 -2.2397 -3.9640  4.0108
  310MOL0     H41849   4.910   8.937   3.055 -2.7259  0.8172  1.0235
  310MOL0     H41850   4.821   9.056   3.004 -2.2275 -1.9339 -2.2244
  311MOL0     O41851   8.489   3.086   6.979  0.7748  0.4473 -0.6210
  311MOL0     C41852   8.436   3.178   6.921  0.3388 -0.7580 -1.2955
  311MOL0     O41853   8.351   3.275   6.984  0.0661 -0.3440 -0.1753
  311MOL0     C41854   8.334   3.272   7.121  0.2095 -0.9012  0.4091
  311MOL0     C41855   8.295   3.386   7.185 -0.1915 -0.5754  0.4115
  311MOL0     C41856   8.256   3.389   7.322 -0.0414  0.7818  1.8420
  311MOL0     C41857   8.235   3.268   7.386  0.4515  1.0782 -1.2169
  311MOL0     O41858   8.178   3.262   7.512 -0.3044  0.4169  0.1732
  311MOL0     C41859   8.273   3.217   7.612  0.0352  0.3573  0.0463
  311MOL0     C41860   8.279   3.326   7.720 -0.7418 -0.8538  0.4744
  311MOL0     C41861   8.377   3.435   7.666 -0.0513  0.2595 -0.6399
  311MOL0     C41862   8.397   3.523   7.793  0.1539  0.0407  0.1592
  311MOL0     C41863   8.535   3.589   7.799  0.5548  0.1090 -0.1375
  311MOL0     C41864   8.591   3.644   7.928  0.6379  0.2546  0.1597
  311MOL0     C41865   8.681   3.768   7.892 -0.4747 -0.2020 -0.0149
  311MOL0     C41866   8.733   3.824   8.026 -0.2624 -1.2353  0.2635
  311MOL0     N41867   8.852   3.913   7.999  0.3451  1.1418 -0.1700
  311MOL0     C41868   8.984   3.887   8.027  1.0296  0.1324  0.1541
  311MOL0     C41869   9.040   3.999   7.986 -0.5328 -0.2412  0.1177
  311MOL0     C41870   9.188   4.031   7.998  0.4363 -0.1393 -0.4995
  311MOL0     C41871   9.223   4.150   8.093 -0.5281 -0.3778 -0.0542
  311MOL0     C41872   9.368   4.196   8.046  1.1303  0.1883 -0.5268
  311MOL0     C41873   9.492   4.110   8.068 -0.2921 -0.4526  0.2022
  311MOL0     O41874   9.498   4.050   8.203 -0.4319  0.3026 -0.6881
  311MOL0     C41875   9.625   4.051   8.258  0.1348 -0.2365  0.6280
  311MOL0     C41876   9.650   4.128   8.370  0.2995  0.2474  0.2751
  311MOL0     C41877   9.775   4.121   8.428  0.4450  0.0242  0.1664
  311MOL0     C41878   9.893   4.058   8.373  0.1836  0.5310 -0.5748
  311MOL0     C41879  10.033   4.061   8.425 -0.2163 -0.5034 -0.3788
  311MOL0     O41880  10.129   3.997   8.356 -0.1243  0.0932 -0.5969
  311MOL0     C41881  10.239   3.938   8.425 -0.1333 -0.0362 -0.8300
  311MOL0     C41882  10.227   3.864   8.538 -1.6273 -1.2369  0.6670
  311MOL0     C41883  10.340   3.804   8.592  0.1474  0.7830 -0.1517
  311MOL0     C41884  10.462   3.811   8.533  0.4286  1.3264 -0.8971
  311MOL0     O41885  10.569   3.744   8.599  0.1745  0.2829 -0.1513
  311MOL0     C41886  10.707   3.760   8.564 -0.2569 -0.5435 -0.3047
  311MOL0     C41887  10.797   3.705   8.670 -0.4679  0.0057 -0.4254
  311MOL0     C41888  10.868   3.810   8.757  0.3756 -0.5116  0.6194
  311MOL0     C41889  10.776   3.894   8.834  1.0228  0.3368 -0.7350
  311MOL0     C41890  10.850   3.979   8.944  0.3657 -0.3997  0.2150
  311MOL0     C41891  10.919   4.099   8.885  0.0010  0.0557  0.1649
  311MOL0     C41892  10.971   4.199   8.982 -0.9557 -0.6138  0.9465
  311MOL0     C41893  11.062   4.309   8.936 -0.5097  0.3165  0.7097
  311MOL0    Cl41894  11.234   4.266   8.896 -0.3951 -0.0935 -0.5806
  311MOL0     C41895  10.480   3.884   8.416 -0.0140 -0.6179 -0.2448
  311MOL0     C41896  10.369   3.942   8.363 -0.4149 -0.3630  0.7815
  311MOL0     O41897  10.043   4.102   8.544  0.1705  0.0971  0.4314
  311MOL0     C41898   9.870   3.989   8.256  0.3420 -0.6293  0.2865
  311MOL0     C41899   9.739   3.985   8.200 -1.0998 -0.1144 -1.2348
  311MOL0     N41900   8.959   4.066   7.898  0.3411 -0.1558  1.0478
  311MOL0     N41901   8.843   4.010   7.910 -0.1613 -0.4643  1.0406
  311MOL0     C41902   8.262   3.153   7.321  0.6521 -0.7698  0.1371
  311MOL0     C41903   8.309   3.152   7.189  0.2444  0.1038  0.2517
  311MOL0     C41904   8.449   3.186   6.781 -0.2349  0.6115 -0.0084
  311MOL0     C41905   8.352   3.270   6.717 -0.0606  0.1560  0.2817
  311MOL0     C41906   8.353   3.271   6.578  0.6518 -0.2085 -0.8784
  311MOL0     C41907   8.454   3.215   6.494  0.1886 -0.2349  0.5161
  311MOL0     O41908   8.483   3.262   6.372  0.8335  0.3664  0.3211
  311MOL0     C41909   8.383   3.226   6.271 -0.3996 -0.1006 -0.4932
  311MOL0     C41910   8.453   3.199   6.140  0.3758  0.0307 -0.4712
  311MOL0     C41911   8.460   3.045   6.105 -0.0479  0.7223  0.5421
  311MOL0     C41912   8.523   2.953   6.212 -0.2915  0.2879 -0.4443
  311MOL0     C41913   8.659   2.925   6.180 -0.0100  0.0335  0.6369
  311MOL0     C41914   8.777   2.902   6.176  0.2039 -1.0352 -1.4349
  311MOL0     C41915   8.554   3.142   6.561  0.3737  0.6424 -0.1133
  311MOL0     C41916   8.550   3.122   6.702  0.3760  0.2718  0.1311
  311MOL0     C41917   8.661   3.029   6.747  0.8637 -0.1166 -0.0915
  311MOL0     H41918   8.279   3.468   7.117 -1.7199  0.9309  2.4647
  311MOL0     H41919   8.231   3.479   7.379 -2.1074  1.8664 -0.5612
  311MOL0     H41920   8.239   3.123   7.658  1.3981 -0.1566  0.0478
  311MOL0     H41921   8.371   3.204   7.565  0.3647  2.2188  0.1494
  311MOL0     H41922   8.319   3.296   7.817  3.4444  0.5301 -0.6322
  311MOL0     H41923   8.181   3.368   7.744 -1.8349 -3.6256  1.2704
  311MOL0     H41924   8.347   3.494   7.579  0.8003  0.4565 -0.8093
  311MOL0     H41925   8.472   3.383   7.650 -0.3201 -2.0447  3.6967
  311MOL0     H41926   8.327   3.607   7.784  1.5847  1.3996  1.1798
  311MOL0     H41927   8.375   3.477   7.890 -2.6388 -1.8654 -1.2533
  311MOL0     H41928   8.616   3.519   7.776  1.3950  0.7164  0.8789
  311MOL0     H41929   8.537   3.670   7.725  0.8361  0.6483  0.4513
  311MOL0     H41930   8.511   3.684   7.991  3.7888  3.5524  2.4362
  311MOL0     H41931   8.642   3.568   7.988  0.5159  0.6482  0.7778
  311MOL0     H41932   8.633   3.847   7.833 -0.5211 -0.6189 -0.5503
  311MOL0     H41933   8.767   3.737   7.832 -0.0408  1.9579 -0.5900
  311MOL0     H41934   8.658   3.886   8.076  1.4632  3.5201 -2.3710
  311MOL0     H41935   8.761   3.758   8.108  2.0409  2.1923  2.5402
  311MOL0     H41936   9.024   3.818   8.100 -0.8852  0.4622  1.5922
  311MOL0     H41937   9.242   3.944   8.036  0.4363  0.2563  0.4589
  311MOL0     H41938   9.231   4.051   7.899  0.7380 -0.7167 -0.4866
  311MOL0     H41939   9.158   4.235   8.072  0.4203  0.1695 -0.8630
  311MOL0     H41940   9.213   4.104   8.192 -0.7480 -0.8223 -0.2786
  311MOL0     H41941   9.392   4.289   8.099  1.8176 -0.5618  0.5376
  311MOL0     H41942   9.360   4.226   7.941  1.4743  1.4889 -0.1903
  311MOL0     H41943   9.580   4.174   8.054  0.0847 -0.5357  1.9688
  311MOL0     H41944   9.493   4.032   7.991  0.4670  0.8611 -1.2023
  311MOL0     H41945   9.573   4.189   8.416 -1.2141  0.4577 -2.3740
  311MOL0     H41946   9.789   4.194   8.507  2.4348 -0.1003 -0.0234
  311MOL0     H41947  10.128   3.866   8.582 -1.4002 -0.0797  1.1466
  311MOL0     H41948  10.324   3.743   8.680 -0.4973  1.0096 -0.1012
  311MOL0     H41949  10.708   3.722   8.462 -4.2239 -1.5968 -0.1203
  311MOL0     H41950  10.733   3.865   8.550  0.0098 -0.7104 -1.0819
  311MOL0     H41951  10.746   3.631   8.733  2.0569 -0.5621  1.1220
  311MOL0     H41952  10.885   3.664   8.620 -0.3015  4.0908 -4.0780
  311MOL0     H41953  10.939   3.756   8.821 -0.1680 -2.0041  0.0148
  311MOL0     H41954  10.919   3.873   8.684 -1.7434  0.6928  0.1165
  311MOL0     H41955  10.709   3.826   8.888  2.3001 -0.1168  0.3263
  311MOL0     H41956  10.719   3.964   8.772  0.6966  1.4472  0.7772
  311MOL0     H41957  10.923   3.923   9.003 -0.2950 -0.4968  0.9525
  311MOL0     H41958  10.779   4.004   9.024 -1.1394 -0.1660 -1.1295
  311MOL0     H41959  10.998   4.060   8.821 -1.0273 -3.2098  0.6899
  311MOL0     H41960  10.843   4.155   8.830 -2.1400  0.3946  3.1978
  311MOL0     H41961  11.029   4.146   9.058  1.9286 -0.1536 -0.7938
  311MOL0     H41962  10.886   4.241   9.038 -0.7129  0.2631  0.6734
  311MOL0     H41963  11.036   4.351   8.838  1.0293  0.0865  0.1840
  311MOL0     H41964  11.059   4.388   9.012 -0.1021 -0.1994  1.2684
  311MOL0     H41965  10.581   3.894   8.375  0.8965  1.8614  2.2536
  311MOL0     H41966  10.368   3.981   8.262  2.2461  0.4188  0.9836
  311MOL0     H41967   9.950   3.940   8.201  0.5216  0.6189 -0.6161
  311MOL0     H41968   9.723   3.931   8.107 -0.7764 -1.0548 -0.7623
  311MOL0     H41969   8.238   3.053   7.358  3.6422 -0.7838  2.3580
  311MOL0     H41970   8.321   3.053   7.146 -2.5610  0.6803 -2.1888
  311MOL0     H41971   8.267   3.326   6.755  0.6420  1.5125 -0.0972
  311MOL0     H41972   8.274   3.324   6.526 -2.1245 -3.1071  0.0157
  311MOL0     H41973   8.315   3.311   6.267  0.3929  0.5854  0.1814
  311MOL0     H41974   8.338   3.128   6.292 -0.1225 -0.3131 -0.8832
  311MOL0     H41975   8.554   3.242   6.147 -0.4313  1.8698  0.9575
  311MOL0     H41976   8.394   3.251   6.064  0.6592  0.3060 -0.5077
  311MOL0     H41977   8.515   3.041   6.010 -2.6972 -0.0284 -1.0582
  311MOL0     H41978   8.355   3.027   6.083 -0.1193  1.1105  0.5673
  311MOL0     H41979   8.513   2.996   6.312  1.7140 -2.1061  0.9178
  311MOL0     H41980   8.476   2.855   6.198  1.3613 -0.4687 -0.9408
  311MOL0     H41981   8.884   2.895   6.181  0.0748 -3.0851  1.5536
  311MOL0     H41982   8.635   3.117   6.493  0.3526 -2.9763  0.9859
  311MOL0     H41983   8.715   2.989   6.661 -0.6965  1.1323 -1.7137
  311MOL0     H41984   8.736   3.077   6.811  1.7081  2.4120 -2.7807
  311MOL0     H41985   8.619   2.941   6.798  2.4066 -0.4953  0.6040
  312MOL0     O41986   7.597   8.047   1.749 -0.2084 -0.7682 -0.0983
  312MOL0     C41987   7.592   7.955   1.673 -0.3421  0.3917 -0.3585
  312MOL0     O41988   7.607   7.826   1.715  0.7920  0.6598 -0.7301
  312MOL0     C41989   7.554   7.767   1.831  1.2166 -0.0042 -0.7522
  312MOL0     C41990   7.422   7.810   1.858  0.1942 -0.3365  0.4566
  312MOL0     C41991   7.347   7.752   1.959  0.3012  0.3058  0.8497
  312MOL0     C41992   7.405   7.654   2.037  0.4400  0.1538  0.1329
  312MOL0     O41993   7.333   7.604   2.147  0.7589 -0.7678 -0.1680
  312MOL0     C41994   7.395   7.511   2.247 -0.6456 -0.1130 -0.5273
  312MOL0     C41995   7.302   7.501   2.380 -1.0762 -0.1462  0.6481
  312MOL0     C41996   7.363   7.390   2.474 -0.3057 -0.5535  0.0189
  312MOL0     C41997   7.301   7.390   2.622  0.3974 -0.5165  0.1254
  312MOL0     C41998   7.354   7.267   2.699  0.6276  0.6139 -0.7042
  312MOL0     C41999   7.508   7.271   2.703  0.6874 -0.4287  0.3774
  312MOL0     C42000   7.563   7.190   2.828 -0.1971 -0.8243  0.4247
  312MOL0     C42001   7.711   7.194   2.818  0.0606  0.0757  0.4447
  312MOL0     N42002   7.760   7.158   2.948 -0.1016 -0.0010 -0.2841
  312MOL0     C42003   7.840   7.246   3.014 -0.0052  0.6452 -0.0823
  312MOL0     C42004   7.843   7.192   3.141 -0.5882  0.1290 -0.5835
  312MOL0     C42005   7.940   7.232   3.249 -0.6603  0.6710 -0.7776
  312MOL0     C42006   7.871   7.312   3.361  1.1503 -0.6305  0.4599
  312MOL0     C42007   7.791   7.225   3.453  0.6487 -0.4194  0.0271
  312MOL0     C42008   7.872   7.121   3.543  0.0374 -1.3424  0.6796
  312MOL0     O42009   7.801   7.078   3.663 -0.3065  0.1568  0.2244
  312MOL0     C42010   7.841   6.966   3.730 -0.3223  0.7907  0.3406
  312MOL0     C42011   7.957   6.891   3.696 -0.2416  0.0637  0.3308
  312MOL0     C42012   7.969   6.757   3.744  0.5304 -0.1688 -0.3556
  312MOL0     C42013   7.862   6.715   3.832  0.1238 -0.2959 -0.3860
  312MOL0     C42014   7.869   6.576   3.880  0.4113 -0.5649 -0.6422
  312MOL0     O42015   7.786   6.544   3.981 -0.5235  0.0155  0.7067
  312MOL0     C42016   7.767   6.413   4.020 -0.1063 -0.6538  0.8961
  312MOL0     C42017   7.707   6.400   4.143  0.1939 -1.1378  1.2275
  312MOL0     C42018   7.692   6.280   4.194 -0.2645  0.9234  0.5181
  312MOL0     C42019   7.732   6.164   4.128 -0.1970  0.1177 -0.4289
  312MOL0     O42020   7.712   6.034   4.171  0.3708  0.1224  0.1174
  312MOL0     C42021   7.677   5.998   4.309 -0.3502 -0.8390 -0.0169
  312MOL0     C42022   7.747   5.862   4.330  0.6844 -0.6436 -0.4081
  312MOL0     C42023   7.674   5.744   4.279 -0.0361 -0.2792  0.0657
  312MOL0     C42024   7.766   5.624   4.287  0.7525  0.7034  0.7308
  312MOL0     C42025   7.697   5.488   4.307  0.1207  0.5831 -0.3341
  312MOL0     C42026   7.613   5.458   4.180  0.5659  2.1363 -0.8400
  312MOL0     C42027   7.530   5.328   4.188 -0.1520  0.0084  0.1394
  312MOL0     C42028   7.400   5.344   4.258  0.0525  0.4377 -0.7031
  312MOL0    Cl42029   7.275   5.456   4.191  0.4694 -0.1342  0.1785
  312MOL0     C42030   7.778   6.176   4.000  0.3027 -0.4055  1.3433
  312MOL0     C42031   7.795   6.301   3.943  0.6975 -0.4837  0.6302
  312MOL0     O42032   7.954   6.505   3.832 -0.2406  0.1978  1.0498
  312MOL0     C42033   7.764   6.797   3.883 -0.1118 -0.1231  0.0771
  312MOL0     C42034   7.757   6.925   3.831  0.7738 -0.4446 -0.0182
  312MOL0     N42035   7.749   7.096   3.158  0.0882  0.2391  0.2818
  312MOL0     N42036   7.703   7.066   3.035 -0.2867 -0.8043 -0.3001
  312MOL0     C42037   7.536   7.613   2.015  0.0507 -1.2883 -0.0712
  312MOL0     C42038   7.604   7.666   1.908  0.4183  1.2389 -0.0601
  312MOL0     C42039   7.587   7.975   1.535  0.9259  0.7410  0.6535
  312MOL0     C42040   7.675   7.903   1.456 -0.4253 -1.3905 -0.0449
  312MOL0     C42041   7.695   7.915   1.318 -0.4250 -0.2039  0.6103
  312MOL0     C42042   7.620   8.022   1.254  0.1449 -0.1524 -0.5547
  312MOL0     O42043   7.655   8.051   1.123  0.3260  0.7869 -0.4095
  312MOL0     C42044   7.563   8.006   1.029 -0.2960  0.2504  0.0711
  312MOL0     C42045   7.630   7.933   0.913 -0.1320 -0.0679 -0.3743
  312MOL0     C42046   7.714   7.808   0.963  0.0909  0.8316 -1.4284
  312MOL0     C42047   7.634   7.701   1.037 -0.4226 -0.2005  0.0494
  312MOL0     C42048   7.722   7.588   1.092 -0.8505 -0.6934  0.8426
  312MOL0     C42049   7.791   7.506   1.147 -0.1296 -0.4828  0.2255
  312MOL0     C42050   7.528   8.094   1.323 -0.1455 -0.5696 -0.6396
  312MOL0     C42051   7.510   8.070   1.463  0.8341 -0.5751 -1.2215
  312MOL0     C42052   7.409   8.155   1.542  0.5053 -0.2272 -0.5084
  312MOL0     H42053   7.383   7.868   1.774 -1.5712 -2.4227 -0.2587
  312MOL0     H42054   7.245   7.784   1.979 -1.0902  0.5196 -4.8124
  312MOL0     H42055   7.408   7.412   2.202 -1.2055  0.0130 -0.9952
  312MOL0     H42056   7.496   7.541   2.272 -0.8265  0.1882 -0.1637
  312MOL0     H42057   7.196   7.484   2.359 -0.8692 -1.2563  0.4711
  312MOL0     H42058   7.311   7.597   2.432  0.2909  0.6079 -0.8866
  312MOL0     H42059   7.470   7.411   2.471 -0.8064  2.5094 -4.4619
  312MOL0     H42060   7.342   7.288   2.439 -1.9499 -0.7380  1.3885
  312MOL0     H42061   7.323   7.480   2.681 -1.6471  1.0225 -1.3257
  312MOL0     H42062   7.191   7.393   2.619  0.3922  0.8699  0.6673
  312MOL0     H42063   7.303   7.246   2.794  0.3441 -1.1876 -1.2221
  312MOL0     H42064   7.325   7.173   2.652 -2.5292  0.0782  1.9196
  312MOL0     H42065   7.535   7.230   2.606  0.1413  0.1987 -0.0429
  312MOL0     H42066   7.550   7.371   2.697  0.1355 -0.2969 -2.0154
  312MOL0     H42067   7.519   7.091   2.843  1.6553 -1.7837 -0.1563
  312MOL0     H42068   7.525   7.245   2.914  1.4470 -0.9534  1.2828
  312MOL0     H42069   7.741   7.126   2.738  2.3291 -0.3696  1.6201
  312MOL0     H42070   7.738   7.299   2.798 -3.5827  1.4109  1.6429
  312MOL0     H42071   7.916   7.313   2.973  1.9773  0.3089  2.7561
  312MOL0     H42072   7.992   7.147   3.295 -1.0727 -1.4180 -3.8780
  312MOL0     H42073   8.019   7.292   3.203  1.4808  0.4065  2.2046
  312MOL0     H42074   7.958   7.360   3.408  2.4171  1.9427 -3.9712
  312MOL0     H42075   7.813   7.398   3.326  1.3625 -1.2816 -1.6026
  312MOL0     H42076   7.719   7.161   3.400 -3.6734  3.2923  0.8582
  312MOL0     H42077   7.735   7.293   3.518  2.4741  0.4935  0.7351
  312MOL0     H42078   7.956   7.183   3.577  0.0282 -2.4340  2.9020
  312MOL0     H42079   7.908   7.039   3.481  2.3080 -1.0470  1.5103
  312MOL0     H42080   8.037   6.943   3.645 -0.7221  0.1620 -0.3357
  312MOL0     H42081   8.046   6.687   3.711  0.7224 -0.7351  1.1892
  312MOL0     H42082   7.684   6.492   4.197  2.4044  0.4119 -0.2762
  312MOL0     H42083   7.644   6.273   4.291  3.4566  3.0164  2.7353
  312MOL0     H42084   7.725   6.065   4.381 -4.3313 -0.0832  2.2182
  312MOL0     H42085   7.569   5.987   4.320 -0.0388 -3.2802  1.2448
  312MOL0     H42086   7.849   5.853   4.291  0.8193 -1.7117  0.1577
  312MOL0     H42087   7.745   5.850   4.438 -0.0836  0.1408 -0.3245
  312MOL0     H42088   7.591   5.730   4.349  0.5007 -1.6276  0.4793
  312MOL0     H42089   7.624   5.754   4.182  2.8933 -1.7326 -1.7461
  312MOL0     H42090   7.829   5.633   4.376  1.9643 -0.2088 -0.0071
  312MOL0     H42091   7.840   5.612   4.208 -0.8988 -0.0263 -0.7925
  312MOL0     H42092   7.638   5.486   4.399 -3.0294 -2.1472 -2.2035
  312MOL0     H42093   7.766   5.403   4.315 -4.6840 -3.6643  1.7662
  312MOL0     H42094   7.539   5.538   4.174 -2.8966 -0.7755 -0.3758
  312MOL0     H42095   7.690   5.445   4.103 -1.1106 -0.1260 -2.2704
  312MOL0     H42096   7.596   5.258   4.242  1.7535  0.8558 -0.9878
  312MOL0     H42097   7.523   5.286   4.087  0.7265 -0.3630  0.2234
  312MOL0     H42098   7.354   5.246   4.258  0.3858  0.1644  2.4620
  312MOL0     H42099   7.412   5.366   4.365 -2.3467 -2.4582  0.2869
  312MOL0     H42100   7.818   6.088   3.950 -3.5148 -0.2130 -2.6660
  312MOL0     H42101   7.823   6.309   3.839 -0.2961 -0.0852  0.3860
  312MOL0     H42102   7.687   6.765   3.951 -0.8738  0.5644 -0.4417
  312MOL0     H42103   7.664   6.972   3.859 -1.3059 -3.4204 -1.4519
  312MOL0     H42104   7.590   7.540   2.074 -0.5341 -1.8359 -0.1856
  312MOL0     H42105   7.699   7.623   1.880  0.0968  0.9793 -0.7683
  312MOL0     H42106   7.738   7.827   1.503  0.2766 -0.4611  0.5532
  312MOL0     H42107   7.759   7.850   1.258 -1.0446 -0.6979  0.4747
  312MOL0     H42108   7.515   8.090   0.978  1.8932 -0.0539 -2.8045
  312MOL0     H42109   7.483   7.950   1.078 -0.7756 -0.1627 -1.1251
  312MOL0     H42110   7.694   8.004   0.860 -4.5848  1.4716 -4.3999
  312MOL0     H42111   7.548   7.906   0.845 -1.6960  0.7108  1.1315
  312MOL0     H42112   7.796   7.843   1.027 -2.2108  0.2793  2.0820
  312MOL0     H42113   7.745   7.757   0.871 -0.6694  0.3936 -1.4508
  312MOL0     H42114   7.587   7.744   1.125 -0.9022 -1.1886  0.2962
  312MOL0     H42115   7.556   7.662   0.970 -0.7692 -0.8035  0.7926
  312MOL0     H42116   7.847   7.429   1.196 -1.8208 -0.0795  2.9938
  312MOL0     H42117   7.479   8.170   1.263  1.1843  1.5995  0.8719
  312MOL0     H42118   7.339   8.104   1.609 -2.4206  4.3973  0.3658
  312MOL0     H42119   7.465   8.226   1.603  3.4818 -1.2591 -1.8655
  312MOL0     H42120   7.342   8.207   1.474 -0.3040 -0.6989 -0.0967
  313MOL0     O42121   0.903   5.052   3.942 -0.5329  0.5599 -0.3504
  313MOL0     C42122   0.996   5.023   3.868 -0.0382  0.4463  0.9800
  313MOL0     O42123   0.982   4.972   3.741 -0.8043  0.1595  0.0353
  313MOL0     C42124   0.863   4.938   3.687 -0.5512  0.8766 -0.1224
  313MOL0     C42125   0.844   4.958   3.553  0.4293 -0.1951 -0.3550
  313MOL0     C42126   0.716   4.938   3.490 -0.4272  0.2426 -0.1284
  313MOL0     C42127   0.614   4.874   3.563  0.2404 -0.2946  0.8313
  313MOL0     O42128   0.488   4.844   3.507 -0.1666 -0.5739 -0.1764
  313MOL0     C42129   0.393   4.751   3.571  0.3345  0.1074  0.1168
  313MOL0     C42130   0.261   4.753   3.506  1.1536 -0.2614 -0.1392
  313MOL0     C42131   0.153   4.861   3.549 -0.2600  0.6470  0.9430
  313MOL0     C42132   0.171   4.927   3.687  0.0349 -0.1838 -0.5787
  313MOL0     C42133   0.079   5.059   3.699 -0.2284  0.2832 -0.3095
  313MOL0     C42134  -0.074   5.049   3.699 -0.2523  0.2383  0.4661
  313MOL0     C42135  -0.132   4.930   3.785  0.8816  0.0894  0.0611
  313MOL0     C42136  -0.284   4.962   3.806  0.0738 -0.4676  0.8582
  313MOL0     N42137  -0.317   5.088   3.886 -0.8441  0.2937  0.2638
  313MOL0     C42138  -0.363   5.201   3.836 -0.5351  0.3446  0.9985
  313MOL0     C42139  -0.369   5.286   3.936 -0.6627  0.0630 -0.1808
  313MOL0     C42140  -0.418   5.431   3.948  0.4411 -0.2164 -0.4687
  313MOL0     C42141  -0.313   5.528   3.872 -0.2509  0.2167  0.1110
  313MOL0     C42142  -0.353   5.675   3.873  0.0640  1.5514  0.3435
  313MOL0     C42143  -0.457   5.712   3.775 -0.4898  0.0813 -0.6265
  313MOL0     O42144  -0.591   5.668   3.807 -0.7011  0.1876 -0.0780
  313MOL0     C42145  -0.689   5.739   3.745 -0.0145  0.2711 -1.4128
  313MOL0     C42146  -0.813   5.741   3.815 -1.1343  0.2276 -0.9466
  313MOL0     C42147  -0.915   5.826   3.775 -0.0299  0.4678  0.5594
  313MOL0     C42148  -0.910   5.918   3.660 -0.0324 -0.0818  0.2964
  313MOL0     C42149  -1.025   5.995   3.614  0.2375  0.1070  0.2346
  313MOL0     O42150  -1.032   6.011   3.476 -0.1225  0.3774 -0.3044
  313MOL0     C42151  -1.111   6.108   3.426  0.3824 -0.3678  0.2720
  313MOL0     C42152  -1.058   6.224   3.362  0.2326 -0.3978 -0.6564
  313MOL0     C42153  -1.141   6.326   3.316  0.6968  0.0086  0.0336
  313MOL0     C42154  -1.279   6.310   3.314  0.8546 -0.1244 -0.0239
  313MOL0     O42155  -1.371   6.395   3.252 -0.1702 -0.2520  0.1064
  313MOL0     C42156  -1.329   6.424   3.113 -1.2122 -0.0019 -0.9435
  313MOL0     C42157  -1.454   6.474   3.039 -0.6532 -0.0427  0.7213
  313MOL0     C42158  -1.436   6.494   2.887 -0.4197 -0.1444 -0.0967
  313MOL0     C42159  -1.345   6.610   2.847  0.8602  0.3915 -1.2459
  313MOL0     C42160  -1.326   6.641   2.701 -0.2434 -0.4261  0.6171
  313MOL0     C42161  -1.242   6.763   2.686  0.3821  0.4521  0.8496
  313MOL0     C42162  -1.236   6.813   2.543  0.6338  0.4751  0.6218
  313MOL0     C42163  -1.147   6.927   2.551 -0.4357 -0.1695 -0.7699
  313MOL0    Cl42164  -1.098   6.975   2.378  0.0593  0.6354  0.0531
  313MOL0     C42165  -1.332   6.194   3.383  0.1702  0.2769 -0.1064
  313MOL0     C42166  -1.248   6.094   3.433 -0.3217 -0.1293 -0.4126
  313MOL0     O42167  -1.101   6.041   3.695 -0.7168  0.1981 -0.8325
  313MOL0     C42168  -0.790   5.900   3.583  0.0795  0.0793 -1.4325
  313MOL0     C42169  -0.685   5.820   3.627  0.5747 -0.3834 -0.4382
  313MOL0     N42170  -0.330   5.216   4.046 -0.2016  0.5410  0.1942
  313MOL0     N42171  -0.301   5.093   4.022  0.5545 -0.2870 -0.2855
  313MOL0     C42172   0.642   4.844   3.700 -0.2959  0.4525  0.0106
  313MOL0     C42173   0.761   4.886   3.758  0.1088  0.4713  0.1377
  313MOL0     C42174   1.132   5.023   3.911 -0.1299  0.4923 -0.2788
  313MOL0     C42175   1.211   4.915   3.861 -0.5059  0.0112 -0.0311
  313MOL0     C42176   1.345   4.914   3.883 -0.4986 -0.9189  0.4979
  313MOL0     C42177   1.412   5.031   3.936  0.7293  0.0556  0.2854
  313MOL0     O42178   1.545   5.037   3.962 -0.3179 -0.2390  0.5975
  313MOL0     C42179   1.641   4.942   3.921  0.9044  0.3494 -0.2809
  313MOL0     C42180   1.664   4.812   3.999  0.2817  0.0690 -0.4765
  313MOL0     C42181   1.807   4.756   3.974  0.5013 -0.6656 -0.4050
  313MOL0     C42182   1.818   4.675   3.841 -0.4686 -0.7089  0.4783
  313MOL0     C42183   1.931   4.583   3.828 -0.0658 -0.4502 -1.0649
  313MOL0     C42184   2.033   4.527   3.832 -0.7466  1.3556  0.7613
  313MOL0     C42185   1.331   5.132   3.992 -0.1725 -0.4541  0.5283
  313MOL0     C42186   1.195   5.129   3.987 -0.2411 -0.3579  0.0556
  313MOL0     C42187   1.120   5.241   4.053 -0.4938 -0.1312 -0.2249
  313MOL0     H42188   0.929   4.992   3.495  1.2305  0.5199  1.1733
  313MOL0     H42189   0.702   4.960   3.385 -1.0543  4.8940  0.7341
  313MOL0     H42190   0.435   4.651   3.555  0.1031 -0.3736  2.2737
  313MOL0     H42191   0.398   4.779   3.676  1.7410  0.5851 -0.0519
  313MOL0     H42192   0.213   4.656   3.521  2.5097 -1.4638 -2.8149
  313MOL0     H42193   0.271   4.756   3.397 -3.0127 -0.2584 -0.6875
  313MOL0     H42194   0.049   4.826   3.547  0.4807 -1.7000  0.9337
  313MOL0     H42195   0.144   4.939   3.472  1.7082  0.9003  0.9140
  313MOL0     H42196   0.153   4.855   3.768  2.8537  2.0044  2.2466
  313MOL0     H42197   0.274   4.964   3.686  0.2731 -0.6716  1.2484
  313MOL0     H42198   0.117   5.117   3.784 -4.8321  1.9640  0.8622
  313MOL0     H42199   0.097   5.114   3.607  3.5330 -0.0689  0.0422
  313MOL0     H42200  -0.112   5.147   3.732  0.9196  1.1190 -0.6949
  313MOL0     H42201  -0.114   5.030   3.599 -0.2556 -2.1416  0.8747
  313MOL0     H42202  -0.087   4.932   3.884 -2.9583 -0.0472  1.9798
  313MOL0     H42203  -0.128   4.836   3.728 -0.9524  1.0540 -1.7992
  313MOL0     H42204  -0.315   4.983   3.703  3.7671 -3.0790 -0.9903
  313MOL0     H42205  -0.344   4.879   3.845  0.0595 -0.9283 -0.1264
  313MOL0     H42206  -0.392   5.214   3.733  2.1021 -1.0173 -0.0017
  313MOL0     H42207  -0.520   5.446   3.912  0.3930  1.5056  0.2917
  313MOL0     H42208  -0.435   5.455   4.053 -0.5745 -0.3033 -0.6046
  313MOL0     H42209  -0.223   5.513   3.932 -1.2807 -0.6320  1.4982
  313MOL0     H42210  -0.295   5.487   3.772  2.5248 -0.9525  1.0249
  313MOL0     H42211  -0.267   5.737   3.846 -0.4428  2.1492  0.0957
  313MOL0     H42212  -0.394   5.702   3.971  1.0109 -0.0995  1.2481
  313MOL0     H42213  -0.433   5.666   3.678  1.2949 -1.1722  0.3595
  313MOL0     H42214  -0.452   5.820   3.760 -1.8360  0.6201  2.0939
  313MOL0     H42215  -0.818   5.680   3.904  0.3058  0.8768 -0.4001
  313MOL0     H42216  -1.010   5.820   3.826 -0.3586 -1.2846 -0.1640
  313MOL0     H42217  -0.952   6.240   3.351  0.3986 -1.2412 -0.3581
  313MOL0     H42218  -1.097   6.416   3.273 -3.6426  2.1640 -0.4708
  313MOL0     H42219  -1.253   6.503   3.114  0.8051 -1.8099  1.2240
  313MOL0     H42220  -1.270   6.342   3.071  0.6003 -1.1768  3.3185
  313MOL0     H42221  -1.530   6.400   3.063  1.5036 -2.4608  0.5071
  313MOL0     H42222  -1.499   6.568   3.074  1.3507  1.4058 -0.3539
  313MOL0     H42223  -1.401   6.400   2.844  0.3932  1.3074 -2.7962
  313MOL0     H42224  -1.522   6.519   2.825  0.9491  1.4982 -1.4189
  313MOL0     H42225  -1.242   6.594   2.881  1.0358  1.5600 -1.1614
  313MOL0     H42226  -1.384   6.697   2.901  1.4031  0.6177 -1.2112
  313MOL0     H42227  -1.419   6.653   2.645 -0.5379 -1.2375  0.9228
  313MOL0     H42228  -1.274   6.557   2.655 -2.3300 -1.2568 -0.3257
  313MOL0     H42229  -1.289   6.841   2.747 -1.8133  0.4281 -0.7166
  313MOL0     H42230  -1.141   6.747   2.723  0.1579 -1.4060  0.7681
  313MOL0     H42231  -1.335   6.848   2.513  0.8353 -1.2725 -2.5042
  313MOL0     H42232  -1.207   6.733   2.474  1.4948  1.0856  0.2628
  313MOL0     H42233  -1.206   7.009   2.595 -0.1219 -0.0953 -0.4830
  313MOL0     H42234  -1.057   6.899   2.607 -0.7743 -1.8852 -1.0190
  313MOL0     H42235  -1.438   6.178   3.399  0.4602 -0.0680  1.6148
  313MOL0     H42236  -1.296   6.007   3.477 -0.9393  1.1601  1.6151
  313MOL0     H42237  -0.768   5.959   3.494  0.7775 -0.3360 -1.5467
  313MOL0     H42238  -0.598   5.821   3.562  0.3086 -1.3078 -0.8328
  313MOL0     H42239   0.572   4.789   3.762  1.5178 -1.9866  0.0143
  313MOL0     H42240   0.775   4.876   3.865  0.8649  0.1962  0.0178
  313MOL0     H42241   1.176   4.825   3.813 -1.5325  0.4768 -0.1830
  313MOL0     H42242   1.418   4.838   3.859  1.8649 -0.0890  4.2005
  313MOL0     H42243   1.736   4.996   3.929 -0.2958  2.5834 -0.2520
  313MOL0     H42244   1.623   4.926   3.814  4.8130 -2.0721 -0.7809
  313MOL0     H42245   1.591   4.734   3.977  2.2009 -1.7457 -0.7847
  313MOL0     H42246   1.660   4.823   4.108 -2.2517 -1.8899 -0.2796
  313MOL0     H42247   1.837   4.691   4.056  3.5892  0.7671 -0.2378
  313MOL0     H42248   1.884   4.835   3.971 -0.6240  0.4523 -0.9530
  313MOL0     H42249   1.718   4.632   3.828 -2.3523  4.0792 -4.0767
  313MOL0     H42250   1.822   4.745   3.757 -2.2033 -1.9940 -0.7497
  313MOL0     H42251   2.115   4.457   3.825 -1.7498 -0.1568  2.8844
  313MOL0     H42252   1.370   5.222   4.040 -3.4393  0.8742  0.9384
  313MOL0     H42253   1.184   5.321   4.090  3.7634 -0.3258 -5.8019
  313MOL0     H42254   1.042   5.275   3.984 -3.1903  0.2667  2.7550
  313MOL0     H42255   1.059   5.195   4.131 -3.6403 -0.0380 -2.4358
  314MOL0     O42256   1.390   9.897   6.701 -0.0053 -0.3223  0.4340
  314MOL0     C42257   1.382   9.785   6.756 -0.6516 -0.2222 -0.4152
  314MOL0     O42258   1.392   9.764   6.883 -0.2180  0.1736 -0.4978
  314MOL0     C42259   1.389   9.873   6.963 -0.3327  0.6164 -1.6878
  314MOL0     C42260   1.504   9.943   7.007  0.0075 -0.1561  0.2378
  314MOL0     C42261   1.497  10.050   7.099  0.6049  0.2115  1.0875
  314MOL0     C42262   1.375  10.082   7.157 -0.1147  0.5263  0.0780
  314MOL0     O42263   1.368  10.176   7.258  0.8930  0.0157 -0.2138
  314MOL0     C42264   1.258  10.271   7.256 -0.9291 -0.8119  0.8111
  314MOL0     C42265   1.267  10.393   7.364  0.0708 -0.3112  0.1601
  314MOL0     C42266   1.134  10.461   7.352 -0.2740 -1.0758 -0.1775
  314MOL0     C42267   1.114  10.553   7.475  0.0676  0.9339 -0.7726
  314MOL0     C42268   1.089  10.478   7.602 -0.3311  0.3135  0.0252
  314MOL0     C42269   1.079  10.572   7.721  0.3214 -1.0775  0.9904
  314MOL0     C42270   1.096  10.494   7.851 -0.6361  0.9490  0.3206
  314MOL0     C42271   1.139  10.580   7.979  0.2471  1.1068 -0.1040
  314MOL0     N42272   1.129  10.496   8.096 -0.8580  0.9998  0.8217
  314MOL0     C42273   1.027  10.484   8.183  1.0535 -0.4146 -0.6845
  314MOL0     C42274   1.065  10.406   8.279 -0.6505  0.6748 -0.2276
  314MOL0     C42275   0.977  10.343   8.381  0.4931 -0.6702  0.1491
  314MOL0     C42276   0.831  10.314   8.332  0.0038 -1.1595  0.4885
  314MOL0     C42277   0.815  10.214   8.210  0.0261  0.2643 -0.8546
  314MOL0     C42278   0.913  10.102   8.205 -0.0689 -0.1700 -0.5636
  314MOL0     O42279   0.875   9.993   8.125 -0.9989  0.1462  0.0686
  314MOL0     C42280   0.937   9.972   8.000 -0.1064 -1.3110 -0.2432
  314MOL0     C42281   0.912   9.849   7.938 -0.6295  0.2646  0.6657
  314MOL0     C42282   0.969   9.815   7.816 -0.5424  1.0914 -0.6594
  314MOL0     C42283   1.047   9.898   7.744  0.2040 -0.0330 -0.0313
  314MOL0     C42284   1.083   9.870   7.605 -0.5520 -0.6220 -0.4679
  314MOL0     O42285   1.083   9.738   7.572 -0.4874  0.1803 -0.5773
  314MOL0     C42286   1.077   9.682   7.453 -0.3007 -0.1181 -0.0684
  314MOL0     C42287   0.978   9.583   7.444 -0.2400  0.2803 -0.9032
  314MOL0     C42288   0.969   9.503   7.331  0.6687 -0.2125 -0.2583
  314MOL0     C42289   1.050   9.532   7.223 -1.7544 -0.1180  0.4071
  314MOL0     O42290   1.060   9.444   7.110  0.2894  0.0408 -0.2912
  314MOL0     C42291   0.931   9.407   7.044  0.2438 -0.8695 -0.4234
  314MOL0     C42292   0.919   9.481   6.911  0.3524 -0.4273  0.2326
  314MOL0     C42293   0.920   9.632   6.919 -0.3275 -0.7692  0.2830
  314MOL0     C42294   0.915   9.693   6.777 -0.4739  0.5926  0.4978
  314MOL0     C42295   0.903   9.849   6.784 -0.5274  0.5357  0.3550
  314MOL0     C42296   0.976   9.919   6.671  0.0657  0.8458 -1.3575
  314MOL0     C42297   0.926  10.065   6.655 -0.2051 -0.9523  0.3464
  314MOL0     C42298   1.016  10.169   6.582 -0.3143  0.0708 -0.2194
  314MOL0    Cl42299   1.171  10.183   6.679 -0.1640  0.3778  0.0669
  314MOL0     C42300   1.140   9.642   7.233 -0.5065 -0.1452 -0.9452
  314MOL0     C42301   1.158   9.716   7.352 -0.4938  0.4243 -1.0209
  314MOL0     O42302   1.079   9.961   7.520 -0.1987 -0.4916 -0.0261
  314MOL0     C42303   1.090  10.017   7.811 -0.1920  0.1488  0.4455
  314MOL0     C42304   1.035  10.056   7.937 -0.5369  1.0521  0.1107
  314MOL0     N42305   1.193  10.373   8.258  0.8485 -0.6815 -0.2153
  314MOL0     N42306   1.230  10.426   8.146 -0.6608  0.4396  0.1482
  314MOL0     C42307   1.259  10.021   7.117 -0.0939  0.2450  0.6478
  314MOL0     C42308   1.261   9.912   7.018  0.5611 -0.0126  0.0689
  314MOL0     C42309   1.331   9.669   6.679  0.8086 -0.7349 -0.8067
  314MOL0     C42310   1.276   9.699   6.556 -0.6711  0.2619  1.1093
  314MOL0     C42311   1.247   9.597   6.459 -0.3664 -0.0413  0.1439
  314MOL0     C42312   1.272   9.464   6.494 -0.5724 -0.2544  0.6706
  314MOL0     O42313   1.241   9.372   6.406 -0.4354 -0.0344 -0.4818
  314MOL0     C42314   1.241   9.229   6.429 -0.1446 -0.2531  0.5560
  314MOL0     C42315   1.373   9.177   6.368 -0.3865  0.2993 -0.2186
  314MOL0     C42316   1.332   9.070   6.273  0.8269 -0.8931 -0.2020
  314MOL0     C42317   1.434   9.031   6.171 -0.2594  0.0139 -0.1662
  314MOL0     C42318   1.556   8.995   6.232  0.6383  0.2053  0.5774
  314MOL0     C42319   1.666   8.943   6.261  0.3009  0.5331 -0.0195
  314MOL0     C42320   1.334   9.434   6.613  0.3040 -0.0063  0.0638
  314MOL0     C42321   1.364   9.533   6.706 -0.2298 -0.0342  0.0175
  314MOL0     C42322   1.437   9.483   6.828 -0.1021  0.0345 -0.2193
  314MOL0     H42323   1.603   9.916   6.971 -0.5874 -2.0550 -0.0456
  314MOL0     H42324   1.588  10.101   7.130  0.6137  0.1253  1.2054
  314MOL0     H42325   1.235  10.301   7.153  3.1825  0.0576 -0.0160
  314MOL0     H42326   1.168  10.220   7.291  0.0844 -2.9237  0.4791
  314MOL0     H42327   1.354  10.457   7.348  2.5799 -3.0385  1.9657
  314MOL0     H42328   1.275  10.350   7.464 -0.2271 -2.2489 -0.5974
  314MOL0     H42329   1.044  10.402   7.334  1.2314 -2.8595 -2.3715
  314MOL0     H42330   1.137  10.519   7.259 -1.4277 -1.9392 -0.7821
  314MOL0     H42331   1.199  10.616   7.503 -1.5256  2.1644  1.5679
  314MOL0     H42332   1.031  10.621   7.455  0.0794  0.4566 -2.7142
  314MOL0     H42333   1.003  10.411   7.595 -0.5083  0.5231  0.1916
  314MOL0     H42334   1.179  10.418   7.620  0.1894  0.1402 -2.7728
  314MOL0     H42335   1.163  10.643   7.717 -0.2592 -0.4114 -2.1083
  314MOL0     H42336   0.990  10.636   7.725  1.3439  0.3553  2.4039
  314MOL0     H42337   1.175  10.419   7.843 -1.5624 -0.3408  2.3361
  314MOL0     H42338   1.012  10.427   7.870  1.8155 -2.4413  0.0490
  314MOL0     H42339   1.245  10.604   7.970  0.5387 -0.6901 -2.4032
  314MOL0     H42340   1.081  10.671   7.994 -0.0166  0.6363  2.1204
  314MOL0     H42341   0.929  10.531   8.184  1.0887 -0.2628  2.2815
  314MOL0     H42342   1.031  10.254   8.413  1.3245  0.1684  1.1584
  314MOL0     H42343   0.976  10.411   8.467 -2.2782 -2.2657  1.5049
  314MOL0     H42344   0.774  10.273   8.417  4.3272 -1.5632  3.5017
  314MOL0     H42345   0.781  10.408   8.307  0.6571 -0.5926  1.2446
  314MOL0     H42346   0.809  10.270   8.117 -1.5647 -0.3625 -1.1707
  314MOL0     H42347   0.719  10.162   8.210 -0.3940  1.0109 -1.8621
  314MOL0     H42348   0.929  10.047   8.299 -1.4574  0.9522  0.3680
  314MOL0     H42349   1.017  10.131   8.186  0.4143 -1.9911 -0.8828
  314MOL0     H42350   0.833   9.790   7.983 -1.4115  1.7738  1.3618
  314MOL0     H42351   0.938   9.720   7.774 -0.4372  1.1797 -0.9452
  314MOL0     H42352   0.906   9.562   7.523 -1.1478  0.4034 -1.6736
  314MOL0     H42353   0.904   9.416   7.329  0.3772 -0.0443  0.9336
  314MOL0     H42354   0.936   9.303   7.010  0.9845 -0.7272 -0.7857
  314MOL0     H42355   0.842   9.423   7.105  1.3789 -0.9903  1.3161
  314MOL0     H42356   0.990   9.443   6.837 -0.5920  0.4050 -1.1437
  314MOL0     H42357   0.815   9.455   6.887 -0.6130  2.0250  1.4452
  314MOL0     H42358   0.843   9.674   6.984  1.6531  0.2619  2.0999
  314MOL0     H42359   1.020   9.654   6.957  0.6146 -2.9529 -0.8019
  314MOL0     H42360   0.834   9.642   6.722 -1.8792  2.5814  0.6118
  314MOL0     H42361   1.005   9.672   6.718 -1.2736  0.5277 -0.7384
  314MOL0     H42362   0.944   9.879   6.881 -0.1153  0.3344  0.2478
  314MOL0     H42363   0.796   9.869   6.783 -0.2328  2.3787  1.4870
  314MOL0     H42364   1.085   9.928   6.681  0.0070  1.3044 -1.0956
  314MOL0     H42365   0.948   9.860   6.583 -3.3685 -0.3194  0.3084
  314MOL0     H42366   0.902  10.102   6.755  0.4630 -1.4020  0.6848
  314MOL0     H42367   0.831  10.073   6.600 -0.3114  6.9257  0.4848
  314MOL0     H42368   1.030  10.137   6.478  2.8949  0.1700  0.1038
  314MOL0     H42369   0.957  10.261   6.586 -1.4137 -0.6548  1.2598
  314MOL0     H42370   1.206   9.649   7.147  0.5479  0.1244 -0.1343
  314MOL0     H42371   1.235   9.791   7.370 -0.4118  0.1305 -0.0783
  314MOL0     H42372   1.150  10.088   7.755 -0.9792  0.8161  0.4422
  314MOL0     H42373   1.072  10.147   7.982  0.0128  0.4307  0.9603
  314MOL0     H42374   1.168  10.062   7.161  0.3658  0.8283  1.0735
  314MOL0     H42375   1.173   9.861   6.980 -0.1388  1.3494 -0.1849
  314MOL0     H42376   1.278   9.802   6.523 -0.5082  0.0155  0.3210
  314MOL0     H42377   1.203   9.643   6.371  1.5231  1.9374  0.1502
  314MOL0     H42378   1.156   9.177   6.385  0.0371 -0.7513  0.7868
  314MOL0     H42379   1.224   9.207   6.535  1.2050  1.4505  1.1693
  314MOL0     H42380   1.435   9.138   6.449 -1.9865 -2.4207 -0.1487
  314MOL0     H42381   1.423   9.261   6.320 -1.0742  1.6287  1.3181
  314MOL0     H42382   1.255   9.105   6.203 -0.3680 -0.5589  1.2248
  314MOL0     H42383   1.299   8.977   6.318  0.0956  0.1519  1.5274
  314MOL0     H42384   1.400   8.956   6.100 -0.1222 -1.3966  1.1991
  314MOL0     H42385   1.458   9.120   6.111  3.2033 -1.3512 -1.0486
  314MOL0     H42386   1.739   8.878   6.303 -0.0376  1.9215  3.0107
  314MOL0     H42387   1.372   9.337   6.644 -2.8241 -0.3640  3.3304
  314MOL0     H42388   1.507   9.552   6.875 -0.7521  2.4877 -2.5974
  314MOL0     H42389   1.359   9.465   6.903 -1.8390  0.5212 -1.8387
  314MOL0     H42390   1.498   9.393   6.817  1.5368  1.1843 -0.8346
  315MOL0     O42391  11.217   1.930   0.439  0.0147 -0.1611 -0.4441
  315MOL0     C42392  11.245   2.008   0.532 -0.6859 -0.0652 -1.3513
  315MOL0     O42393  11.217   2.143   0.539  0.9175 -0.3087 -0.3910
  315MOL0     C42394  11.119   2.183   0.444  0.1252  0.0166 -0.8025
  315MOL0     C42395  10.997   2.245   0.478 -0.4951  0.2090  0.1051
  315MOL0     C42396  10.917   2.292   0.372 -0.4979 -0.0263  0.0830
  315MOL0     C42397  10.938   2.271   0.243 -0.0520  0.2567  1.4540
  315MOL0     O42398  10.838   2.289   0.152  0.1609 -0.4630 -0.6787
  315MOL0     C42399  10.857   2.263   0.013  0.4396 -0.3754  0.0276
  315MOL0     C42400  10.738   2.316  -0.061 -0.0095 -0.0788 -0.0760
  315MOL0     C42401  10.735   2.468  -0.071 -0.6198 -1.1977  0.6947
  315MOL0     C42402  10.608   2.528  -0.143  0.5544  1.1486 -0.1774
  315MOL0     C42403  10.605   2.686  -0.128  0.9326 -0.6521 -0.7273
  315MOL0     C42404  10.507   2.759  -0.219  0.2669 -0.4553  0.0728
  315MOL0     C42405  10.477   2.908  -0.188 -0.6637  0.5005 -0.9174
  315MOL0     C42406  10.454   2.989  -0.314  0.1943 -0.4764 -0.1771
  315MOL0     N42407  10.577   3.003  -0.392 -0.1270 -0.1334 -0.7096
  315MOL0     C42408  10.628   2.910  -0.481 -0.0402  0.3487  0.1259
  315MOL0     C42409  10.757   2.953  -0.512  0.7882 -0.3018 -0.4967
  315MOL0     C42410  10.856   2.873  -0.584  0.1881 -0.3153 -0.5394
  315MOL0     C42411  10.978   2.803  -0.500  0.1989 -0.0211 -0.4304
  315MOL0     C42412  11.075   2.730  -0.592  0.2157  0.3348  0.4514
  315MOL0     C42413  11.123   2.815  -0.705  0.2350 -1.0716 -0.7824
  315MOL0     O42414  11.042   2.800  -0.825  0.0757  0.1427 -0.4920
  315MOL0     C42415  11.112   2.829  -0.947  0.2257 -0.1191 -1.0237
  315MOL0     C42416  11.042   2.783  -1.063  0.3861 -0.8828  0.8688
  315MOL0     C42417  11.096   2.797  -1.187 -0.3391 -1.1126  0.4634
  315MOL0     C42418  11.225   2.854  -1.210  0.3608 -0.7783 -0.8652
  315MOL0     C42419  11.277   2.869  -1.349 -0.0041  0.1921 -0.2643
  315MOL0     O42420  11.418   2.902  -1.365  0.0219  0.0228  0.5097
  315MOL0     C42421  11.473   2.909  -1.490  0.1615  0.4191  0.6705
  315MOL0     C42422  11.598   2.972  -1.499 -0.1958  0.3747 -1.0188
  315MOL0     C42423  11.671   2.976  -1.619  0.2339  0.3867 -1.0459
  315MOL0     C42424  11.634   2.897  -1.726  0.4192  0.7678  0.4881
  315MOL0     O42425  11.712   2.916  -1.833 -0.5791  0.1545  0.0467
  315MOL0     C42426  11.844   2.835  -1.849 -0.2025 -0.4353 -0.1974
  315MOL0     C42427  11.957   2.930  -1.844 -0.2042 -0.3451  0.1957
  315MOL0     C42428  12.099   2.862  -1.856 -0.5599 -0.6628  0.5216
  315MOL0     C42429  12.119   2.767  -1.977 -0.1698 -0.4802  0.4805
  315MOL0     C42430  12.117   2.834  -2.113  0.3888  0.1979 -0.1200
  315MOL0     C42431  12.099   2.714  -2.211 -1.3443 -0.2140  0.3193
  315MOL0     C42432  12.102   2.764  -2.360  0.4064 -0.2300 -1.1687
  315MOL0     C42433  12.097   2.643  -2.453 -0.5207  0.1906 -0.0360
  315MOL0    Cl42434  12.256   2.549  -2.439  0.2240 -0.3064  0.0065
  315MOL0     C42435  11.508   2.848  -1.730 -0.4984  0.1565  0.4443
  315MOL0     C42436  11.437   2.835  -1.605 -1.1569  0.1465  1.6056
  315MOL0     O42437  11.194   2.828  -1.434  0.1890  0.4774  0.2403
  315MOL0     C42438  11.295   2.899  -1.094 -0.0679 -0.2606  0.4221
  315MOL0     C42439  11.236   2.886  -0.971  0.3589  0.0227 -1.0760
  315MOL0     N42440  10.774   3.073  -0.441  0.3402 -0.5519  0.1632
  315MOL0     N42441  10.669   3.097  -0.364  0.0352 -0.2005  1.1013
  315MOL0     C42442  11.061   2.206   0.205  0.6247 -0.1129  0.4664
  315MOL0     C42443  11.147   2.163   0.303 -0.5928 -0.8412  0.4768
  315MOL0     C42444  11.301   1.945   0.654 -0.1279 -0.5602  0.6405
  315MOL0     C42445  11.262   1.994   0.777 -0.1843 -0.5639  0.6472
  315MOL0     C42446  11.292   1.932   0.900 -0.4911 -0.8770  0.6750
  315MOL0     C42447  11.362   1.806   0.904  0.5449 -0.1088  0.0171
  315MOL0     O42448  11.390   1.727   1.015  0.1999 -0.2945 -0.0927
  315MOL0     C42449  11.399   1.776   1.152 -0.0502  0.5910  0.2208
  315MOL0     C42450  11.330   1.688   1.248 -0.0710  0.2622  0.8105
  315MOL0     C42451  11.406   1.554   1.271  0.9052 -0.1383  1.0827
  315MOL0     C42452  11.322   1.434   1.228  0.1491 -0.1578  0.8016
  315MOL0     C42453  11.222   1.386   1.322  0.8603 -0.8138  0.8750
  315MOL0     C42454  11.130   1.339   1.383  0.0511 -1.2298 -0.4088
  315MOL0     C42455  11.404   1.752   0.780 -1.2764 -0.3026 -0.2586
  315MOL0     C42456  11.368   1.820   0.663  0.0880 -0.1138 -0.5184
  315MOL0     C42457  11.449   1.765   0.559  0.5438  0.2788 -0.5427
  315MOL0     H42458  10.965   2.266   0.580 -3.4709  2.6358 -1.1710
  315MOL0     H42459  10.816   2.321   0.397 -0.0017 -0.5502  3.0453
  315MOL0     H42460  10.947   2.299  -0.038 -0.5164 -0.0612 -1.5137
  315MOL0     H42461  10.861   2.154   0.017  0.5888 -0.3247  2.3634
  315MOL0     H42462  10.646   2.264  -0.033 -2.7932  2.7790 -3.0094
  315MOL0     H42463  10.750   2.286  -0.165  1.2871  1.8012 -0.5174
  315MOL0     H42464  10.828   2.495  -0.122 -1.9038 -1.3122 -1.8558
  315MOL0     H42465  10.741   2.514   0.029 -0.6317 -0.7502  0.4902
  315MOL0     H42466  10.604   2.495  -0.247 -2.2024 -3.3106  1.0848
  315MOL0     H42467  10.520   2.484  -0.095  0.4135 -1.3622 -2.5554
  315MOL0     H42468  10.578   2.705  -0.023 -1.1049  2.0373 -1.6453
  315MOL0     H42469  10.702   2.738  -0.134  2.0938 -2.8367 -2.3171
  315MOL0     H42470  10.544   2.745  -0.321  1.6546  1.5098  0.2374
  315MOL0     H42471  10.415   2.700  -0.223  0.8228 -1.2899 -2.9284
  315MOL0     H42472  10.561   2.953  -0.134 -0.7033 -0.7043  0.1962
  315MOL0     H42473  10.386   2.910  -0.127 -0.2453  1.8162 -0.2949
  315MOL0     H42474  10.369   2.963  -0.376 -0.3186  1.1669 -0.2261
  315MOL0     H42475  10.425   3.090  -0.284  1.2519 -0.3037  0.3270
  315MOL0     H42476  10.584   2.815  -0.511 -0.5196  0.7310 -0.4004
  315MOL0     H42477  10.794   2.804  -0.642  0.2394 -0.1219 -0.8260
  315MOL0     H42478  10.909   2.936  -0.656  3.4500 -1.5986  0.5115
  315MOL0     H42479  11.036   2.879  -0.445 -1.5101  1.4768 -0.6044
  315MOL0     H42480  10.934   2.738  -0.425  1.7191  1.0315  1.4698
  315MOL0     H42481  11.032   2.636  -0.627 -2.4441  1.1231  1.3776
  315MOL0     H42482  11.161   2.706  -0.529 -0.9401  0.3565  2.0904
  315MOL0     H42483  11.225   2.790  -0.739 -0.1561 -0.0275 -2.9080
  315MOL0     H42484  11.134   2.920  -0.679  1.6426 -0.6820 -2.7077
  315MOL0     H42485  10.939   2.748  -1.065  1.1542 -3.5264  2.5636
  315MOL0     H42486  11.030   2.758  -1.264 -0.9948 -0.4184  0.6638
  315MOL0     H42487  11.628   3.034  -1.415  2.9147 -1.6129 -0.4597
  315MOL0     H42488  11.754   3.046  -1.620  0.4884  0.3170  2.8544
  315MOL0     H42489  11.850   2.760  -1.770  0.3740 -0.6409 -0.4285
  315MOL0     H42490  11.836   2.786  -1.947 -0.6237  1.0529 -0.9488
  315MOL0     H42491  11.934   3.001  -1.924 -3.4583 -1.3059  0.1198
  315MOL0     H42492  11.940   2.988  -1.753  0.3888 -1.1337  0.8243
  315MOL0     H42493  12.165   2.948  -1.868 -1.9643  0.6128  1.5255
  315MOL0     H42494  12.131   2.817  -1.762  2.2822 -0.9162 -0.4577
  315MOL0     H42495  12.034   2.698  -1.975 -1.0468  0.5127 -0.9835
  315MOL0     H42496  12.213   2.715  -1.957  1.9699  3.0829  0.5502
  315MOL0     H42497  12.208   2.892  -2.131  0.8357 -0.6962 -0.7683
  315MOL0     H42498  12.027   2.896  -2.110  0.6564  0.6424  3.1060
  315MOL0     H42499  12.173   2.636  -2.192  2.8122  3.1362 -0.5577
  315MOL0     H42500  12.001   2.666  -2.197 -1.2833 -0.7818 -1.0357
  315MOL0     H42501  12.192   2.819  -2.392 -1.1925  1.6649 -2.7086
  315MOL0     H42502  12.019   2.835  -2.364  0.4560  0.0020  1.0655
  315MOL0     H42503  12.022   2.577  -2.409  1.9289 -1.2785  2.2452
  315MOL0     H42504  12.085   2.666  -2.559  2.9351  1.1439 -0.3415
  315MOL0     H42505  11.468   2.806  -1.822 -2.5555  3.4902 -0.3637
  315MOL0     H42506  11.355   2.764  -1.605 -0.2617 -0.9100  1.5007
  315MOL0     H42507  11.391   2.948  -1.105 -0.4918  0.3012 -1.0446
  315MOL0     H42508  11.302   2.906  -0.887  0.3979 -2.7221 -0.3443
  315MOL0     H42509  11.077   2.160   0.109 -1.2474 -2.8402  1.3455
  315MOL0     H42510  11.244   2.118   0.282  1.9413  3.1757  2.4133
  315MOL0     H42511  11.217   2.092   0.783  0.5536 -0.1150 -0.7750
  315MOL0     H42512  11.267   1.994   0.986 -0.9391  1.7515 -1.2184
  315MOL0     H42513  11.350   1.873   1.158  0.0324  0.5411  2.4561
  315MOL0     H42514  11.504   1.790   1.177 -0.7694  1.7130  2.9513
  315MOL0     H42515  11.225   1.665   1.227  0.6324 -0.8224 -1.8972
  315MOL0     H42516  11.327   1.743   1.342 -3.4353  0.3901  0.7417
  315MOL0     H42517  11.442   1.541   1.374  0.6846 -1.4917  1.0045
  315MOL0     H42518  11.483   1.568   1.195 -0.6789 -1.1726 -0.7851
  315MOL0     H42519  11.267   1.460   1.137  1.1394  1.6164  0.6689
  315MOL0     H42520  11.396   1.361   1.195 -0.4501 -0.8783  1.0211
  315MOL0     H42521  11.053   1.295   1.442 -0.8632  1.4890  0.5747
  315MOL0     H42522  11.465   1.663   0.776 -0.2587  0.3846 -0.4366
  315MOL0     H42523  11.430   1.825   0.469  2.6399  0.7536 -0.7285
  315MOL0     H42524  11.555   1.784   0.580  0.5182 -0.2141  0.0770
  315MOL0     H42525  11.431   1.659   0.538  3.2544  0.0653 -2.3668
  316MOL0     O42526   4.480   7.229   4.389 -0.3586  0.5320  0.4568
  316MOL0     C42527   4.464   7.266   4.504  0.5812  0.3041 -2.2979
  316MOL0     O42528   4.566   7.268   4.593  0.5006  0.1722 -0.3141
  316MOL0     C42529   4.690   7.239   4.549 -0.3506  0.0796 -0.2512
  316MOL0     C42530   4.761   7.343   4.497 -0.3473 -1.6268  0.1357
  316MOL0     C42531   4.898   7.328   4.444 -0.3688 -1.0067 -0.7438
  316MOL0     C42532   4.965   7.206   4.475 -0.4507  0.1957 -0.8898
  316MOL0     O42533   5.091   7.172   4.443 -0.4686  0.0630  0.4375
  316MOL0     C42534   5.167   7.274   4.385 -0.1315  0.4168 -0.4344
  316MOL0     C42535   5.310   7.207   4.358 -0.6608 -0.6016 -0.8088
  316MOL0     C42536   5.402   7.213   4.485  1.4624  0.0663  0.4610
  316MOL0     C42537   5.419   7.348   4.556 -0.2594  0.1377 -0.1374
  316MOL0     C42538   5.536   7.351   4.646  0.7622  0.6414  0.0908
  316MOL0     C42539   5.526   7.445   4.771  0.4779  0.2026  0.3769
  316MOL0     C42540   5.579   7.600   4.755 -0.0687 -0.2422 -0.0844
  316MOL0     C42541   5.546   7.669   4.888  0.0015 -1.0254  0.7991
  316MOL0     N42542   5.622   7.608   4.992  0.6436 -0.0527 -0.5495
  316MOL0     C42543   5.755   7.624   4.997  0.3796  1.0707  1.0054
  316MOL0     C42544   5.789   7.552   5.105 -1.0725 -0.2197 -0.3277
  316MOL0     C42545   5.923   7.477   5.142  0.3023  0.9064  0.1620
  316MOL0     C42546   6.028   7.486   5.040 -0.6023 -0.7177 -0.6465
  316MOL0     C42547   6.134   7.386   5.067 -0.3563  0.5759 -0.5032
  316MOL0     C42548   6.258   7.401   4.976 -0.3438  0.2507 -0.3671
  316MOL0     O42549   6.345   7.518   5.005  0.4610  0.2015  0.2058
  316MOL0     C42550   6.408   7.536   5.126 -0.1906  0.0776  0.9177
  316MOL0     C42551   6.480   7.437   5.197 -0.0690  0.0849  0.5734
  316MOL0     C42552   6.541   7.464   5.318 -0.6593 -0.6920 -0.4110
  316MOL0     C42553   6.525   7.596   5.372  0.1159  0.6691  0.6407
  316MOL0     C42554   6.582   7.635   5.501  0.4800  0.8631  0.4297
  316MOL0     O42555   6.535   7.749   5.566  0.3369  0.4380 -0.8316
  316MOL0     C42556   6.587   7.782   5.690 -0.0270 -0.2615  1.2705
  316MOL0     C42557   6.495   7.789   5.785 -0.2489  0.4354 -0.5123
  316MOL0     C42558   6.526   7.828   5.919  1.0790 -0.4480 -0.2422
  316MOL0     C42559   6.663   7.841   5.956  0.6254  0.5245  0.4353
  316MOL0     O42560   6.706   7.857   6.084  0.7854  0.2015 -0.5706
  316MOL0     C42561   6.616   7.813   6.188  0.2415  0.5764 -0.3543
  316MOL0     C42562   6.708   7.767   6.301 -0.1053 -1.0215  0.4633
  316MOL0     C42563   6.615   7.724   6.411  0.1713 -0.4553  0.0427
  316MOL0     C42564   6.682   7.656   6.524 -0.3729 -0.8761 -1.1791
  316MOL0     C42565   6.613   7.670   6.660 -0.1207 -0.7007 -0.4687
  316MOL0     C42566   6.705   7.675   6.764 -0.1222  0.0436 -0.9528
  316MOL0     C42567   6.634   7.632   6.894  0.0293 -0.2859 -0.3772
  316MOL0     C42568   6.730   7.621   7.022  0.5290  0.1817 -0.9824
  316MOL0    Cl42569   6.834   7.483   7.011 -0.2080 -0.2773  0.2441
  316MOL0     C42570   6.760   7.838   5.847  0.0150  0.5067 -0.4404
  316MOL0     C42571   6.724   7.817   5.713  0.0037  0.1658 -0.8574
  316MOL0     O42572   6.671   7.559   5.543 -0.9236 -0.4977 -0.0945
  316MOL0     C42573   6.474   7.694   5.289  0.0795 -0.2903 -0.3611
  316MOL0     C42574   6.405   7.661   5.173  0.1492 -0.3179 -0.1146
  316MOL0     N42575   5.667   7.503   5.163 -0.1691  0.1740  0.3309
  316MOL0     N42576   5.564   7.540   5.095 -0.9867 -0.0178 -0.6211
  316MOL0     C42577   4.884   7.093   4.516 -0.2585 -1.8957  0.4413
  316MOL0     C42578   4.749   7.112   4.563  0.1829  0.3709  0.9340
  316MOL0     C42579   4.339   7.329   4.540 -0.1310 -0.4012  0.2235
  316MOL0     C42580   4.333   7.421   4.651 -0.6021  0.3936  0.3846
  316MOL0     C42581   4.216   7.491   4.682 -0.0430  0.7045  0.0064
  316MOL0     C42582   4.103   7.476   4.607 -0.0169  1.0206  0.7258
  316MOL0     O42583   3.998   7.551   4.644  0.0095 -0.2451 -0.0083
  316MOL0     C42584   3.955   7.648   4.544 -0.4771 -0.1855 -0.1885
  316MOL0     C42585   4.039   7.771   4.535 -0.5695  0.3352 -0.6107
  316MOL0     C42586   3.989   7.878   4.439 -0.1054  0.3393 -0.1607
  316MOL0     C42587   3.861   7.951   4.492  0.3169 -0.4093  0.1256
  316MOL0     C42588   3.835   8.071   4.408 -0.4720  0.6011  0.4479
  316MOL0     C42589   3.793   8.152   4.329  0.2692  0.6633 -0.5509
  316MOL0     C42590   4.097   7.370   4.514  0.4388 -0.3636  0.2118
  316MOL0     C42591   4.214   7.299   4.484 -0.4193 -0.0588  0.4023
  316MOL0     C42592   4.196   7.202   4.365 -0.4065 -0.2508 -0.5782
  316MOL0     H42593   4.704   7.433   4.478  0.7139 -0.5701  1.6875
  316MOL0     H42594   4.945   7.403   4.382  0.1566 -1.4508 -0.8836
  316MOL0     H42595   5.119   7.298   4.290 -0.8346 -3.2082 -1.1323
  316MOL0     H42596   5.164   7.355   4.458  2.6377 -0.3431  0.6461
  316MOL0     H42597   5.355   7.277   4.287  1.5699  0.6636  1.6574
  316MOL0     H42598   5.308   7.107   4.313  2.3345 -0.9596 -0.3696
  316MOL0     H42599   5.498   7.175   4.451  0.1680 -2.2559 -0.8351
  316MOL0     H42600   5.360   7.142   4.557  1.1790  0.1918  0.4218
  316MOL0     H42601   5.439   7.418   4.475  1.9795  1.1957  1.2421
  316MOL0     H42602   5.321   7.371   4.601 -0.9574 -0.9329 -1.0581
  316MOL0     H42603   5.546   7.249   4.685 -1.8234 -0.6324 -2.2285
  316MOL0     H42604   5.626   7.378   4.589 -0.3184 -1.5772 -2.9810
  316MOL0     H42605   5.419   7.455   4.788  0.4910  0.7196  0.1786
  316MOL0     H42606   5.580   7.401   4.856  0.2130  4.5062  3.0551
  316MOL0     H42607   5.529   7.662   4.680 -0.0674  2.2899  1.8770
  316MOL0     H42608   5.687   7.602   4.740  0.1040  2.4169  1.0152
  316MOL0     H42609   5.562   7.776   4.871 -0.8657 -1.4837 -4.8523
  316MOL0     H42610   5.441   7.658   4.916 -0.8766 -0.6123 -1.9635
  316MOL0     H42611   5.817   7.661   4.916  0.8401 -1.0904  0.3186
  316MOL0     H42612   5.953   7.506   5.244  0.1238  0.2296  0.4147
  316MOL0     H42613   5.900   7.370   5.146  1.3380  0.5573 -1.9911
  316MOL0     H42614   5.999   7.473   4.936  1.5199  0.0867 -1.3874
  316MOL0     H42615   6.076   7.585   5.045 -0.9969 -0.5591  0.1741
  316MOL0     H42616   6.094   7.288   5.039 -0.8512  0.7909 -0.5721
  316MOL0     H42617   6.162   7.388   5.172 -3.0606  1.7011  0.2985
  316MOL0     H42618   6.220   7.413   4.874 -4.5650 -3.7913  0.3792
  316MOL0     H42619   6.325   7.315   4.986  1.3781  1.5932  0.0940
  316MOL0     H42620   6.510   7.341   5.157  4.1797  1.3019  0.3728
  316MOL0     H42621   6.594   7.385   5.370  0.1303 -2.7391 -3.9775
  316MOL0     H42622   6.391   7.765   5.763 -0.0010 -1.3744  0.0879
  316MOL0     H42623   6.455   7.839   6.001 -0.5491  0.9147 -1.7477
  316MOL0     H42624   6.553   7.892   6.230  1.7181  0.7003  1.8090
  316MOL0     H42625   6.555   7.725   6.165  0.7114  0.2411 -0.3322
  316MOL0     H42626   6.781   7.700   6.256  0.0221 -2.8733  3.1946
  316MOL0     H42627   6.768   7.850   6.341  0.9201 -2.8123  2.9278
  316MOL0     H42628   6.563   7.811   6.453 -1.7695 -2.8757  3.1077
  316MOL0     H42629   6.534   7.662   6.371 -0.7722  1.5504 -1.3578
  316MOL0     H42630   6.788   7.683   6.532 -0.9552  0.9143  3.3532
  316MOL0     H42631   6.686   7.551   6.494 -2.3365 -2.0164  2.0598
  316MOL0     H42632   6.552   7.579   6.664 -2.7013  0.9072 -0.5700
  316MOL0     H42633   6.546   7.757   6.664 -1.0267 -1.4448  1.1549
  316MOL0     H42634   6.782   7.599   6.748 -0.1744 -0.7776  2.2003
  316MOL0     H42635   6.758   7.769   6.779 -2.4492  1.7338 -2.5150
  316MOL0     H42636   6.584   7.537   6.876  0.9289 -1.7336  3.6995
  316MOL0     H42637   6.563   7.713   6.911  2.8423  2.1308  0.8722
  316MOL0     H42638   6.795   7.709   7.022 -0.0529  0.6640  1.4310
  316MOL0     H42639   6.677   7.605   7.116  3.6022 -1.2690  0.6555
  316MOL0     H42640   6.866   7.859   5.861  0.2872 -0.8918 -0.1958
  316MOL0     H42641   6.804   7.813   5.640  0.2283  1.7687 -0.7375
  316MOL0     H42642   6.470   7.793   5.333  0.1885 -1.7438  3.2443
  316MOL0     H42643   6.345   7.735   5.122 -0.6165 -0.8280  0.0279
  316MOL0     H42644   4.948   7.006   4.521  0.8908 -1.0961  0.0382
  316MOL0     H42645   4.702   7.022   4.601 -0.1078  0.9482  2.0043
  316MOL0     H42646   4.413   7.452   4.717 -0.4485  1.9741 -0.4872
  316MOL0     H42647   4.220   7.566   4.759  2.8342  0.8820 -0.1846
  316MOL0     H42648   3.857   7.683   4.576  0.2001  1.2196  0.4703
  316MOL0     H42649   3.938   7.600   4.447 -2.3931  0.0399  0.0035
  316MOL0     H42650   4.144   7.762   4.505  0.5266  3.7685  1.5474
  316MOL0     H42651   4.063   7.813   4.633 -2.0823 -0.6548  0.2249
  316MOL0     H42652   3.961   7.835   4.342 -4.2122  1.4710  0.2939
  316MOL0     H42653   4.064   7.956   4.428  0.1932  0.0503 -0.1866
  316MOL0     H42654   3.769   7.892   4.502 -3.0078  4.2266  0.0978
  316MOL0     H42655   3.868   7.996   4.591 -1.5272 -0.7839  0.4604
  316MOL0     H42656   3.773   8.209   4.240 -1.5062  0.4281 -0.3339
  316MOL0     H42657   3.999   7.366   4.468  0.3848  3.7482 -0.4099
  316MOL0     H42658   4.091   7.173   4.358 -0.1473 -1.5713  0.6275
  316MOL0     H42659   4.227   7.251   4.272  0.5358 -1.8864 -1.1784
  316MOL0     H42660   4.260   7.116   4.386  1.0401  1.2661  1.6759
  317MOL0     O42661  10.020   4.743   8.906  0.4867 -0.5585  0.5979
  317MOL0     C42662   9.949   4.643   8.910 -0.3075  0.6038  0.2661
  317MOL0     O42663   9.993   4.523   8.880 -0.4380  0.5953 -0.0852
  317MOL0     C42664  10.118   4.487   8.846 -0.8908 -0.2879 -0.2870
  317MOL0     C42665  10.240   4.531   8.908 -0.0883 -0.3895  0.0113
  317MOL0     C42666  10.369   4.489   8.858  1.3103 -0.0811 -0.4002
  317MOL0     C42667  10.378   4.396   8.753  0.7754  0.8867 -1.3122
  317MOL0     O42668  10.502   4.342   8.722  0.5949 -0.2572 -0.2347
  317MOL0     C42669  10.491   4.230   8.632 -0.8605 -0.8551  0.8262
  317MOL0     C42670  10.630   4.177   8.595 -0.6357  1.2012 -0.6036
  317MOL0     C42671  10.726   4.269   8.520 -0.0431 -0.2328  0.2765
  317MOL0     C42672  10.677   4.328   8.385  0.3498  0.4417 -0.1669
  317MOL0     C42673  10.787   4.411   8.305  0.8012  0.0279 -0.3851
  317MOL0     C42674  10.727   4.464   8.182  1.3829  0.1660  0.5879
  317MOL0     C42675  10.687   4.355   8.082  0.5434 -0.7195  0.3909
  317MOL0     C42676  10.782   4.239   8.063  0.0954 -0.9403  0.6305
  317MOL0     N42677  10.728   4.156   7.954  0.3731 -0.5860 -0.7229
  317MOL0     C42678  10.730   4.194   7.821 -1.1601 -0.2001 -0.0114
  317MOL0     C42679  10.698   4.081   7.749  0.4870  0.3511  0.5412
  317MOL0     C42680  10.640   4.079   7.605 -0.2766 -0.3032 -0.1001
  317MOL0     C42681  10.749   4.124   7.514 -0.0324 -0.8763  0.7125
  317MOL0     C42682  10.708   4.161   7.370  0.7307  0.4843  0.0829
  317MOL0     C42683  10.830   4.226   7.294  0.0021  0.5732 -0.3823
  317MOL0     O42684  10.828   4.261   7.150  0.7542  0.9998 -0.1728
  317MOL0     C42685  10.831   4.170   7.050 -1.7571  0.0418 -0.5283
  317MOL0     C42686  10.889   4.040   7.061 -0.0718 -0.4868  0.4060
  317MOL0     C42687  10.911   3.964   6.946 -0.0475  0.4116 -0.0428
  317MOL0     C42688  10.879   4.012   6.814  0.5642 -0.3420 -0.1140
  317MOL0     C42689  10.913   3.935   6.696  0.7601 -0.8531 -0.3771
  317MOL0     O42690  10.873   3.996   6.576  0.4109 -0.3730  0.3320
  317MOL0     C42691  10.908   3.932   6.456  0.5468 -0.4538 -0.7799
  317MOL0     C42692  10.820   3.862   6.380  1.2281 -0.5919  0.1801
  317MOL0     C42693  10.860   3.806   6.256  0.0648 -0.1199 -0.6833
  317MOL0     C42694  10.991   3.809   6.216 -0.0879 -0.5977  0.5086
  317MOL0     O42695  11.017   3.755   6.086  0.0016  0.5680  0.0917
  317MOL0     C42696  11.056   3.624   6.080 -0.8724  0.1683  0.7965
  317MOL0     C42697  10.933   3.548   6.065 -0.6531 -0.1578 -0.0203
  317MOL0     C42698  10.838   3.585   5.945 -0.1321 -0.5892  0.3116
  317MOL0     C42699  10.688   3.539   5.977  0.0878 -0.5857  0.2007
  317MOL0     C42700  10.603   3.602   5.863  0.2147 -0.2384  0.5362
  317MOL0     C42701  10.454   3.575   5.892 -0.5035  0.5085 -0.4276
  317MOL0     C42702  10.359   3.634   5.792 -0.1245 -0.0521 -0.5280
  317MOL0     C42703  10.276   3.736   5.874 -0.1676 -0.7783 -0.1343
  317MOL0    Cl42704  10.167   3.803   5.751 -0.5438  0.3451 -0.0530
  317MOL0     C42705  11.079   3.880   6.288 -0.0290 -0.2849 -0.0793
  317MOL0     C42706  11.039   3.938   6.408 -1.5204  0.0735  0.8978
  317MOL0     O42707  10.963   3.823   6.703  0.0194 -0.3043  0.3363
  317MOL0     C42708  10.826   4.140   6.807  0.1567  0.1469  0.1778
  317MOL0     C42709  10.798   4.215   6.924  0.2296  0.1634  1.6373
  317MOL0     N42710  10.658   3.986   7.849  0.0877 -0.8919  0.3704
  317MOL0     N42711  10.681   4.024   7.971 -1.2565 -0.4434 -0.1362
  317MOL0     C42712  10.252   4.349   8.697 -0.5852 -0.1568 -0.4442
  317MOL0     C42713  10.133   4.398   8.745 -0.1205 -0.1861  1.3214
  317MOL0     C42714   9.802   4.651   8.955  0.7488 -0.7282 -0.5066
  317MOL0     C42715   9.774   4.761   9.046  0.7904 -0.0954  0.2081
  317MOL0     C42716   9.643   4.782   9.102  0.5133  0.4267  0.3201
  317MOL0     C42717   9.544   4.686   9.063  0.2814 -0.9475  0.2394
  317MOL0     O42718   9.406   4.692   9.097  0.3179  0.2516 -0.5957
  317MOL0     C42719   9.342   4.810   9.157  0.2800  0.1388  0.0234
  317MOL0     C42720   9.316   4.912   9.040  0.5092  0.4328 -0.2968
  317MOL0     C42721   9.222   5.026   9.070  0.5465 -0.8656 -0.9748
  317MOL0     C42722   9.236   5.126   8.958  0.5878  0.1282 -0.1380
  317MOL0     C42723   9.199   5.073   8.827 -1.1186  0.2311 -0.2020
  317MOL0     C42724   9.162   5.036   8.722  0.0428 -0.7079 -0.7310
  317MOL0     C42725   9.581   4.586   8.976 -0.6332 -0.4105  0.1594
  317MOL0     C42726   9.703   4.567   8.915 -0.1106  0.4580  0.2083
  317MOL0     C42727   9.733   4.453   8.825 -0.4277 -0.4430  0.1934
  317MOL0     H42728  10.223   4.584   9.001 -3.8108 -2.4274  0.6560
  317MOL0     H42729  10.463   4.512   8.906  1.3659  1.2091 -1.0817
  317MOL0     H42730  10.443   4.142   8.677 -2.6816  0.7495  2.1616
  317MOL0     H42731  10.441   4.259   8.538  0.9326 -1.5770 -0.4091
  317MOL0     H42732  10.625   4.080   8.545 -1.1734  0.4440  0.8642
  317MOL0     H42733  10.688   4.163   8.687  0.8602  2.4666 -1.3014
  317MOL0     H42734  10.823   4.220   8.508  0.7652  1.4036 -0.1633
  317MOL0     H42735  10.747   4.357   8.582 -2.6549  1.5066 -1.1089
  317MOL0     H42736  10.641   4.246   8.321 -0.5349  0.3429  0.4333
  317MOL0     H42737  10.595   4.398   8.408 -0.4344  0.2817 -2.2059
  317MOL0     H42738  10.819   4.493   8.370 -0.6966  1.9859 -1.9642
  317MOL0     H42739  10.867   4.340   8.285 -0.4083 -1.6577  0.5061
  317MOL0     H42740  10.637   4.524   8.197  1.7411  1.6423 -2.4092
  317MOL0     H42741  10.802   4.522   8.128 -0.3603  1.4398 -0.5524
  317MOL0     H42742  10.685   4.398   7.982  1.7223 -1.1226  0.1704
  317MOL0     H42743  10.592   4.310   8.109  0.6907  0.1223  2.5398
  317MOL0     H42744  10.879   4.280   8.034  0.4739  0.0045  3.0287
  317MOL0     H42745  10.792   4.168   8.145  1.3789 -2.3091 -0.6385
  317MOL0     H42746  10.758   4.292   7.784  0.1528  0.3117  2.1895
  317MOL0     H42747  10.610   3.977   7.579 -1.2042  0.3616 -1.8397
  317MOL0     H42748  10.552   4.143   7.595 -0.2793 -0.0993  1.1309
  317MOL0     H42749  10.801   4.209   7.558  2.3198 -1.9753  0.2034
  317MOL0     H42750  10.817   4.039   7.505  1.8185  0.7989 -3.5928
  317MOL0     H42751  10.622   4.227   7.356  1.8097  2.0135  0.4370
  317MOL0     H42752  10.682   4.064   7.326  1.8176  0.7971 -1.3243
  317MOL0     H42753  10.911   4.153   7.300 -1.0041 -0.6903 -1.4499
  317MOL0     H42754  10.858   4.318   7.346  0.9017 -0.3514  0.8211
  317MOL0     H42755  10.931   4.013   7.158 -0.3978  0.6102  0.8689
  317MOL0     H42756  10.954   3.865   6.959 -2.5273 -0.3442  5.4738
  317MOL0     H42757  10.717   3.863   6.414  0.2309  3.6655 -2.2647
  317MOL0     H42758  10.798   3.756   6.183  0.8351 -1.3650 -0.5114
  317MOL0     H42759  11.125   3.607   5.996 -2.3087  0.5387 -0.4883
  317MOL0     H42760  11.105   3.586   6.170 -0.7272 -2.5806 -0.3355
  317MOL0     H42761  10.961   3.444   6.049  1.6867  0.3062  0.6996
  317MOL0     H42762  10.887   3.546   6.165 -2.4064 -2.2719 -0.7929
  317MOL0     H42763  10.831   3.692   5.928 -0.6748 -0.4284  1.4447
  317MOL0     H42764  10.867   3.531   5.854 -0.5369 -2.0435  1.0158
  317MOL0     H42765  10.664   3.590   6.071  1.4599  0.9060 -0.1931
  317MOL0     H42766  10.686   3.431   5.992  2.2935 -0.5507  1.2358
  317MOL0     H42767  10.625   3.568   5.761 -1.5994  0.6652 -0.2134
  317MOL0     H42768  10.625   3.709   5.861 -1.6731  0.3450 -4.2832
  317MOL0     H42769  10.453   3.466   5.884  2.8814  0.3469 -0.3955
  317MOL0     H42770  10.435   3.605   5.996 -2.6884 -1.3328 -0.2341
  317MOL0     H42771  10.289   3.554   5.768 -0.1675  0.1501 -1.0835
  317MOL0     H42772  10.416   3.660   5.701 -1.7950  0.0328 -1.5867
  317MOL0     H42773  10.228   3.694   5.962  1.9815  0.8546  1.9362
  317MOL0     H42774  10.338   3.821   5.906 -1.1048 -0.9087  2.2162
  317MOL0     H42775  11.178   3.904   6.253 -0.3760  0.5708 -0.5146
  317MOL0     H42776  11.108   3.998   6.468 -0.6763 -0.5498  0.5757
  317MOL0     H42777  10.807   4.184   6.709  0.9244 -2.2923 -1.1656
  317MOL0     H42778  10.771   4.320   6.920  2.0424  0.7539  3.2171
  317MOL0     H42779  10.247   4.285   8.610 -1.8660 -0.9955  0.2246
  317MOL0     H42780  10.042   4.357   8.702 -2.1337 -0.7246  5.5629
  317MOL0     H42781   9.846   4.837   9.076  0.2787 -0.0689  1.4036
  317MOL0     H42782   9.614   4.861   9.170 -0.6484  0.1197  0.2024
  317MOL0     H42783   9.410   4.862   9.226 -0.5176  0.8123  0.3149
  317MOL0     H42784   9.256   4.779   9.216  1.4079 -0.1836  1.5771
  317MOL0     H42785   9.263   4.839   8.978  0.0545 -1.5175  2.1915
  317MOL0     H42786   9.411   4.946   9.000  1.7263 -0.3253  1.7813
  317MOL0     H42787   9.243   5.073   9.167 -0.7967 -2.0353 -0.0610
  317MOL0     H42788   9.115   5.001   9.077  0.1522  0.7680  5.2677
  317MOL0     H42789   9.169   5.209   8.979  0.5928 -0.1729  1.1552
  317MOL0     H42790   9.336   5.169   8.949  0.1333  0.9686 -1.4628
  317MOL0     H42791   9.134   5.012   8.621 -0.3711  0.5322 -0.9262
  317MOL0     H42792   9.507   4.508   8.957 -0.7255 -0.1358 -0.6364
  317MOL0     H42793   9.640   4.416   8.782 -0.7134  0.4286  0.0440
  317MOL0     H42794   9.791   4.485   8.738 -2.0321 -0.3859 -0.8989
  317MOL0     H42795   9.779   4.377   8.889  2.0847  1.3181  0.6355
  318MOL0     O42796   9.888   5.528   1.593 -0.4344 -0.1366 -0.3784
  318MOL0     C42797   9.977   5.569   1.521  0.0900  0.7417 -0.0637
  318MOL0     O42798  10.095   5.519   1.518 -0.7584 -0.8360  0.4298
  318MOL0     C42799  10.134   5.416   1.604  1.0270 -0.3743 -0.1604
  318MOL0     C42800  10.070   5.292   1.604  0.9940 -0.0378  0.0786
  318MOL0     C42801  10.121   5.182   1.678  0.5240 -0.4275 -0.0994
  318MOL0     C42802  10.238   5.203   1.752  0.7870 -0.8705  0.0085
  318MOL0     O42803  10.269   5.090   1.833 -0.0054 -0.6228  0.5075
  318MOL0     C42804  10.361   5.102   1.938 -0.0699  0.0335  0.1064
  318MOL0     C42805  10.380   4.974   2.018 -0.1086  0.3286  0.6272
  318MOL0     C42806  10.440   4.863   1.933 -0.6743 -1.2809  1.3658
  318MOL0     C42807  10.451   4.740   2.010  1.0237  0.2163  0.1144
  318MOL0     C42808  10.475   4.604   1.932 -0.1309 -0.1825 -0.9358
  318MOL0     C42809  10.611   4.579   1.872 -0.4548  0.2635 -1.0662
  318MOL0     C42810  10.740   4.605   1.962  0.3616 -0.3374 -0.3605
  318MOL0     C42811  10.747   4.513   2.089  0.4849 -0.8437 -0.0542
  318MOL0     N42812  10.844   4.574   2.185  0.4943  0.4626 -0.3538
  318MOL0     C42813  10.977   4.589   2.149 -0.1138 -1.4443  0.7449
  318MOL0     C42814  11.029   4.674   2.247  0.4038  0.1155 -0.3876
  318MOL0     C42815  11.165   4.725   2.247 -1.1112 -0.0490  0.7265
  318MOL0     C42816  11.172   4.871   2.285  0.1957 -0.0387 -0.3292
  318MOL0     C42817  11.197   4.886   2.436 -0.7552  0.5689 -0.1844
  318MOL0     C42818  11.198   5.028   2.473  0.0840 -0.1965 -0.7928
  318MOL0     O42819  11.306   5.101   2.417 -0.3399 -0.7585 -0.2799
  318MOL0     C42820  11.279   5.226   2.361  0.6311 -0.1945 -1.3476
  318MOL0     C42821  11.239   5.246   2.231  0.4921 -0.1947 -1.4278
  318MOL0     C42822  11.222   5.383   2.192 -0.0220 -0.8339  0.5411
  318MOL0     C42823  11.241   5.491   2.282  0.5728 -0.2300  0.5555
  318MOL0     C42824  11.210   5.635   2.246 -0.2026 -0.0399  0.9740
  318MOL0     O42825  11.155   5.649   2.125  0.4361  0.2014  0.3093
  318MOL0     C42826  11.101   5.770   2.088 -0.9562 -1.2138 -0.3096
  318MOL0     C42827  11.128   5.819   1.963 -0.1362 -0.0907  0.1378
  318MOL0     C42828  11.068   5.939   1.917  0.2981  0.2628 -0.0765
  318MOL0     C42829  10.985   6.009   2.010  0.0777 -0.0022  0.2659
  318MOL0     O42830  10.932   6.130   1.963 -0.3458 -0.4521 -0.1899
  318MOL0     C42831  11.002   6.240   2.026 -0.1497 -0.0628  0.5982
  318MOL0     C42832  11.000   6.361   1.938 -0.4930  0.7334  1.4936
  318MOL0     C42833  11.097   6.341   1.823 -0.2208  0.2086 -0.7163
  318MOL0     C42834  11.029   6.370   1.697 -0.9617  0.3650  0.5856
  318MOL0     C42835  11.003   6.524   1.685 -0.1065  0.7363  0.1316
  318MOL0     C42836  10.957   6.557   1.538  0.3801  0.8531 -0.4012
  318MOL0     C42837  11.073   6.576   1.439  0.2709  0.8355 -0.1248
  318MOL0     C42838  11.038   6.505   1.306 -0.2490  0.4612 -0.1000
  318MOL0    Cl42839  11.179   6.534   1.193 -0.6928  0.1877 -0.0040
  318MOL0     C42840  10.949   5.958   2.135 -0.7477 -0.9396  0.4273
  318MOL0     C42841  11.008   5.836   2.178  0.5736  0.1292  0.3295
  318MOL0     O42842  11.227   5.726   2.331  0.0357 -0.3373 -0.2703
  318MOL0     C42843  11.292   5.464   2.405 -0.1203 -0.4781 -0.6468
  318MOL0     C42844  11.313   5.329   2.445  0.2857 -0.1290  0.4698
  318MOL0     N42845  10.924   4.713   2.330 -0.0438  0.3168  0.0234
  318MOL0     N42846  10.813   4.661   2.286 -0.1501  0.3936 -0.3364
  318MOL0     C42847  10.316   5.326   1.741 -0.0371  0.4131  0.3481
  318MOL0     C42848  10.254   5.434   1.675  0.5064  0.1733  0.8296
  318MOL0     C42849   9.959   5.698   1.460  0.4890 -0.4191  0.4385
  318MOL0     C42850   9.961   5.809   1.547 -0.3555 -0.0602 -0.5895
  318MOL0     C42851   9.946   5.937   1.511  0.5795  0.8389  0.0871
  318MOL0     C42852   9.934   5.965   1.376 -0.3820  0.0956  0.4386
  318MOL0     O42853   9.934   6.095   1.320 -0.2815  0.0165 -0.0461
  318MOL0     C42854   9.903   6.207   1.409 -0.2775  0.4738 -0.5563
  318MOL0     C42855  10.038   6.286   1.451 -0.7528 -0.5587  0.7159
  318MOL0     C42856  10.167   6.257   1.374 -0.2244 -0.2093  0.9766
  318MOL0     C42857  10.292   6.188   1.459 -0.2150  0.0204  0.1990
  318MOL0     C42858  10.295   6.047   1.431 -0.5767 -0.4121 -0.7688
  318MOL0     C42859  10.301   5.927   1.401  0.9625 -0.1642 -0.3484
  318MOL0     C42860   9.915   5.855   1.285  0.3323  0.1210 -0.4721
  318MOL0     C42861   9.932   5.716   1.332 -0.3428 -0.0023  1.1565
  318MOL0     C42862   9.918   5.604   1.237  0.2845  1.0017  0.9040
  318MOL0     H42863   9.983   5.269   1.545  0.0215 -0.9734  1.8051
  318MOL0     H42864  10.062   5.090   1.671  1.7386 -1.1964 -0.5140
  318MOL0     H42865  10.458   5.143   1.908 -0.6136  1.4396  0.1633
  318MOL0     H42866  10.319   5.183   2.000 -4.3115 -0.0003 -2.3382
  318MOL0     H42867  10.275   4.955   2.040 -0.1637  0.9103  0.8835
  318MOL0     H42868  10.448   4.990   2.103  2.7829 -0.2066 -1.4214
  318MOL0     H42869  10.535   4.904   1.899 -1.3801 -1.5602 -1.1870
  318MOL0     H42870  10.400   4.855   1.831  1.6352  0.2815  0.2385
  318MOL0     H42871  10.526   4.754   2.089  1.9111 -0.4817 -0.5792
  318MOL0     H42872  10.353   4.741   2.058  1.0780  1.1717  0.2320
  318MOL0     H42873  10.444   4.531   2.008 -0.2969  1.8558  1.0606
  318MOL0     H42874  10.406   4.602   1.848  1.0879  0.3006 -1.9732
  318MOL0     H42875  10.612   4.479   1.827  1.1458 -1.2591  2.0492
  318MOL0     H42876  10.638   4.658   1.802  1.4332  1.6742  1.1216
  318MOL0     H42877  10.734   4.711   1.987 -4.4891 -0.9112  2.1421
  318MOL0     H42878  10.829   4.590   1.900  0.8624  2.9098 -0.6325
  318MOL0     H42879  10.648   4.511   2.135 -1.0849 -1.3647 -3.1679
  318MOL0     H42880  10.773   4.415   2.048 -3.2885 -2.7625  1.6414
  318MOL0     H42881  11.008   4.550   2.053 -1.2670  1.7209 -1.0783
  318MOL0     H42882  11.245   4.666   2.293 -0.0092  1.2978  0.5864
  318MOL0     H42883  11.187   4.731   2.140  0.9307  0.1610  1.1222
  318MOL0     H42884  11.239   4.931   2.223 -0.8223 -0.2095 -1.6562
  318MOL0     H42885  11.070   4.908   2.268 -0.7654 -1.4998  1.7771
  318MOL0     H42886  11.296   4.840   2.453 -0.9644 -0.0329 -0.5526
  318MOL0     H42887  11.139   4.815   2.496  3.8843 -2.9023  0.8033
  318MOL0     H42888  11.197   5.042   2.581 -1.3198  1.2007 -0.9462
  318MOL0     H42889  11.102   5.064   2.436 -0.5294  1.1027  1.8116
  318MOL0     H42890  11.213   5.159   2.173 -1.1705 -0.0215 -1.0055
  318MOL0     H42891  11.174   5.386   2.095 -0.6289 -2.4147  0.7727
  318MOL0     H42892  11.174   5.761   1.884 -1.5449  1.7298 -2.1224
  318MOL0     H42893  11.093   5.977   1.819  0.6835  0.2231  0.0064
  318MOL0     H42894  10.954   6.273   2.119 -1.9696  0.8516 -0.6277
  318MOL0     H42895  11.110   6.222   2.028 -0.2359 -0.9380 -1.2603
  318MOL0     H42896  10.897   6.389   1.914 -0.6552 -0.1714  1.0982
  318MOL0     H42897  11.026   6.449   1.998 -0.4946  2.3512 -0.7715
  318MOL0     H42898  11.190   6.397   1.834  0.2909 -0.6639 -0.4820
  318MOL0     H42899  11.132   6.237   1.812 -1.3969  0.0084 -3.0454
  318MOL0     H42900  10.935   6.320   1.672 -0.2909 -0.7391  0.1909
  318MOL0     H42901  11.088   6.334   1.612  0.4835  3.0010  0.3480
  318MOL0     H42902  11.086   6.589   1.714  0.7796  1.2390 -3.0834
  318MOL0     H42903  10.911   6.544   1.740 -1.2580 -0.1425 -1.3939
  318MOL0     H42904  10.885   6.479   1.512 -0.6341  0.8843  2.0257
  318MOL0     H42905  10.909   6.655   1.551  0.1328  0.6382  0.3763
  318MOL0     H42906  11.166   6.538   1.482  1.0841  1.9049 -0.9007
  318MOL0     H42907  11.100   6.679   1.414  3.8059 -0.1189 -0.8127
  318MOL0     H42908  11.025   6.397   1.318 -3.2610  0.6070 -1.1188
  318MOL0     H42909  10.946   6.549   1.267 -1.2779 -0.1107  1.5577
  318MOL0     H42910  10.878   6.017   2.191 -0.4998 -0.9635  0.7659
  318MOL0     H42911  10.978   5.783   2.267 -0.8989  0.0168 -0.2071
  318MOL0     H42912  11.327   5.538   2.476  1.8091 -1.9637  0.0551
  318MOL0     H42913  11.374   5.288   2.525  1.8587  0.8164 -0.1959
  318MOL0     H42914  10.411   5.341   1.791 -0.0348 -0.6613  0.6862
  318MOL0     H42915  10.320   5.516   1.647  1.7484 -1.2864 -0.7959
  318MOL0     H42916   9.962   5.780   1.652 -0.1553  0.5288 -0.4249
  318MOL0     H42917   9.955   6.015   1.586 -1.7140  1.0651  0.1895
  318MOL0     H42918   9.844   6.175   1.495 -0.0984  1.8534  0.1190
  318MOL0     H42919   9.842   6.280   1.354  1.4006 -0.1892 -3.4587
  318MOL0     H42920  10.066   6.264   1.555  0.9749  1.6077  0.7833
  318MOL0     H42921  10.012   6.391   1.463  4.0854  0.7895  1.3109
  318MOL0     H42922  10.184   6.351   1.320 -0.4977 -0.2102  0.8830
  318MOL0     H42923  10.146   6.190   1.290 -1.6716  0.0655  1.0890
  318MOL0     H42924  10.392   6.233   1.449  0.0527 -0.3571  1.1029
  318MOL0     H42925  10.285   6.203   1.567  1.6060 -1.5041  0.5990
  318MOL0     H42926  10.322   5.831   1.360  0.9259 -0.0398 -0.6576
  318MOL0     H42927   9.907   5.875   1.179  0.3084 -0.7467 -0.6432
  318MOL0     H42928   9.985   5.520   1.261 -0.5000 -0.1414 -0.7561
  318MOL0     H42929   9.817   5.563   1.231  0.9224 -0.4941 -0.0882
  318MOL0     H42930   9.951   5.633   1.137 -1.9075  0.6134  0.0225
  319MOL0     O42931   0.718   0.134   7.927 -0.8494 -0.2201  0.0031
  319MOL0     C42932   0.790   0.221   7.979 -0.2957  0.3338  0.5385
  319MOL0     O42933   0.891   0.268   7.910 -1.0445 -0.0068 -0.3897
  319MOL0     C42934   0.890   0.291   7.767  0.2766  0.2305 -1.1517
  319MOL0     C42935   1.004   0.357   7.712 -0.6852  0.2332  0.7250
  319MOL0     C42936   1.020   0.375   7.571  0.9318 -0.2683 -0.0763
  319MOL0     C42937   0.919   0.332   7.491  0.4522  0.1989 -0.2102
  319MOL0     O42938   0.906   0.362   7.357  0.9105  0.6335 -0.0481
  319MOL0     C42939   1.008   0.428   7.289 -0.8337 -0.2865  0.2816
  319MOL0     C42940   1.122   0.340   7.247 -0.1886 -0.0438 -0.1978
  319MOL0     C42941   1.250   0.412   7.275 -0.5145 -0.2235 -0.1054
  319MOL0     C42942   1.363   0.400   7.166 -0.3999 -0.6632 -0.5656
  319MOL0     C42943   1.491   0.441   7.226 -0.4991 -1.3564 -0.2662
  319MOL0     C42944   1.600   0.428   7.119 -0.4190  0.7557 -0.6927
  319MOL0     C42945   1.747   0.428   7.153 -0.4739  0.4032  0.2720
  319MOL0     C42946   1.821   0.559   7.163  0.0846  0.0786  0.0693
  319MOL0     N42947   1.963   0.565   7.211  0.4314 -0.5899 -0.3590
  319MOL0     C42948   2.055   0.662   7.168 -0.2355  0.7055 -0.2993
  319MOL0     C42949   2.168   0.622   7.225 -0.0125 -0.5374 -0.2306
  319MOL0     C42950   2.298   0.696   7.217 -0.2200  0.9769  0.5446
  319MOL0     C42951   2.310   0.764   7.353  0.7759 -0.0217  0.4485
  319MOL0     C42952   2.455   0.795   7.402 -0.3930 -0.1447  0.4743
  319MOL0     C42953   2.521   0.705   7.505  0.0318  0.3330 -0.1023
  319MOL0     O42954   2.441   0.696   7.629  0.1012 -0.6517 -0.0273
  319MOL0     C42955   2.464   0.608   7.726 -0.7161  1.0606 -0.3267
  319MOL0     C42956   2.375   0.559   7.818 -0.4657 -0.0976  0.4377
  319MOL0     C42957   2.404   0.491   7.938  0.6026  0.1748 -0.3435
  319MOL0     C42958   2.535   0.452   7.954  0.3981  0.5589  0.2136
  319MOL0     C42959   2.586   0.379   8.079 -0.3346 -0.2924 -1.1613
  319MOL0     O42960   2.728   0.386   8.105 -0.2229 -0.4856 -0.4264
  319MOL0     C42961   2.789   0.289   8.183  0.1820  0.1237  1.0823
  319MOL0     C42962   2.889   0.326   8.276  0.6115 -0.5727  0.3188
  319MOL0     C42963   2.948   0.218   8.352  0.2649  0.5769  0.4266
  319MOL0     C42964   2.938   0.084   8.327 -0.5699  0.2356 -0.9749
  319MOL0     O42965   2.982  -0.025   8.397 -0.1956 -0.3471 -0.1493
  319MOL0     C42966   3.112  -0.029   8.459 -0.0181  0.4537 -0.5001
  319MOL0     C42967   3.224  -0.010   8.366 -0.1236 -0.5962 -1.1755
  319MOL0     C42968   3.353  -0.101   8.363  1.2727  1.3168  0.5389
  319MOL0     C42969   3.449  -0.085   8.479  1.0817  0.0897  0.3838
  319MOL0     C42970   3.583  -0.157   8.459 -0.2153  0.8874 -0.3948
  319MOL0     C42971   3.568  -0.309   8.456  0.1074  0.1971  0.1000
  319MOL0     C42972   3.492  -0.389   8.570  0.2555 -0.5403 -0.2713
  319MOL0     C42973   3.562  -0.418   8.701 -0.0283 -0.0438  0.1236
  319MOL0    Cl42974   3.475  -0.521   8.823  0.2050 -0.3499  0.3779
  319MOL0     C42975   2.839   0.050   8.222 -0.0199 -0.3015 -0.2474
  319MOL0     C42976   2.768   0.151   8.159  0.0860 -0.6102 -0.1026
  319MOL0     O42977   2.502   0.323   8.154  0.0794 -0.5231  0.2350
  319MOL0     C42978   2.628   0.473   7.855  0.1260  0.3293  0.3638
  319MOL0     C42979   2.590   0.547   7.742  0.9914 -0.9860 -0.0800
  319MOL0     N42980   2.146   0.498   7.281 -0.3121  0.5577  0.2099
  319MOL0     N42981   2.024   0.467   7.279  0.0006 -0.0313 -0.1019
  319MOL0     C42982   0.799   0.277   7.547 -1.1047 -0.3542 -0.2487
  319MOL0     C42983   0.789   0.251   7.681  0.1568  0.4424  0.8242
  319MOL0     C42984   0.772   0.254   8.127 -0.0184  0.2229  0.5524
  319MOL0     C42985   0.844   0.357   8.188 -0.2578 -1.1031  1.2017
  319MOL0     C42986   0.818   0.396   8.322  0.2874 -0.0273  0.0318
  319MOL0     C42987   0.707   0.341   8.396 -0.2395  0.1394  0.3207
  319MOL0     O42988   0.683   0.388   8.521 -0.2960 -0.1170 -0.2491
  319MOL0     C42989   0.749   0.507   8.578  0.4127 -0.6268  0.0381
  319MOL0     C42990   0.661   0.543   8.700  0.1475 -0.2492 -0.6831
  319MOL0     C42991   0.730   0.669   8.768  0.1317  0.8780 -0.4755
  319MOL0     C42992   0.746   0.652   8.924  0.4476 -0.4408  1.0233
  319MOL0     C42993   0.847   0.755   8.959  0.4121  0.0126 -0.5335
  319MOL0     C42994   0.920   0.838   9.003  0.4726 -1.1044 -0.3419
  319MOL0     C42995   0.632   0.244   8.332  0.1213  0.2176  0.1578
  319MOL0     C42996   0.671   0.186   8.210 -0.3494 -0.6805  1.2004
  319MOL0     C42997   0.595   0.066   8.165 -0.1192 -0.3771  0.3487
  319MOL0     H42998   1.085   0.396   7.772  0.7044 -1.6568  0.1628
  319MOL0     H42999   1.108   0.419   7.526  0.3046  0.1674 -0.8971
  319MOL0     H43000   0.961   0.453   7.194 -0.2512 -0.0556  0.0464
  319MOL0     H43001   1.045   0.516   7.342 -0.3529 -1.8227  2.6661
  319MOL0     H43002   1.105   0.308   7.143  0.7493  5.5475 -2.4011
  319MOL0     H43003   1.105   0.253   7.311  0.9196  0.2688  0.5521
  319MOL0     H43004   1.276   0.357   7.365  0.6408 -1.6321 -1.2621
  319MOL0     H43005   1.241   0.517   7.306 -1.6808 -0.6501  1.1138
  319MOL0     H43006   1.372   0.292   7.152  0.8221 -0.7672  0.8627
  319MOL0     H43007   1.334   0.455   7.075 -0.5740  1.2773  0.6007
  319MOL0     H43008   1.486   0.545   7.259 -2.3396 -1.2888 -0.6616
  319MOL0     H43009   1.508   0.377   7.314  1.3553 -1.1001 -0.3871
  319MOL0     H43010   1.590   0.330   7.073  3.1439  0.5444 -1.3268
  319MOL0     H43011   1.576   0.508   7.049 -0.4952  1.0015 -0.3910
  319MOL0     H43012   1.791   0.382   7.064 -0.4581 -0.6730  0.8262
  319MOL0     H43013   1.763   0.352   7.230  0.4445 -1.2450 -1.4577
  319MOL0     H43014   1.813   0.620   7.073  1.3214  2.5478  1.4994
  319MOL0     H43015   1.766   0.614   7.240  2.3187  1.1669  1.0098
  319MOL0     H43016   2.028   0.758   7.125 -1.4513  1.4069  1.8558
  319MOL0     H43017   2.382   0.629   7.197 -0.6296 -0.0133  1.9655
  319MOL0     H43018   2.310   0.772   7.139  1.5546  1.6000  1.3561
  319MOL0     H43019   2.259   0.858   7.330 -0.7246 -0.2396  2.5700
  319MOL0     H43020   2.253   0.716   7.433 -0.8451  0.3403 -0.4632
  319MOL0     H43021   2.440   0.892   7.450 -1.2161  0.7928 -1.5657
  319MOL0     H43022   2.504   0.816   7.307 -2.8537  1.7069 -0.5029
  319MOL0     H43023   2.621   0.745   7.523 -0.0097  0.2677  0.2757
  319MOL0     H43024   2.546   0.617   7.444 -0.2028  2.2729 -3.1969
  319MOL0     H43025   2.271   0.590   7.807 -1.2735 -2.6785  0.2253
  319MOL0     H43026   2.325   0.472   8.010  1.9698  0.3124  1.2659
  319MOL0     H43027   2.895   0.431   8.303  0.7312 -0.8697  1.5033
  319MOL0     H43028   3.019   0.243   8.431  0.6332 -0.0415  0.3001
  319MOL0     H43029   3.113   0.039   8.545  1.0845 -0.2334  0.0511
  319MOL0     H43030   3.123  -0.125   8.511 -1.5815  0.4165 -0.1921
  319MOL0     H43031   3.175  -0.021   8.269  1.4440 -4.0658 -1.7229
  319MOL0     H43032   3.254   0.095   8.377 -2.6071  0.0026  0.8602
  319MOL0     H43033   3.325  -0.206   8.352  0.3567  1.5268  0.8367
  319MOL0     H43034   3.402  -0.091   8.265  1.1508  0.8900  0.4356
  319MOL0     H43035   3.409  -0.119   8.575  0.9843 -3.3473 -0.7461
  319MOL0     H43036   3.449   0.024   8.490 -2.1838  0.1077  1.3517
  319MOL0     H43037   3.648  -0.138   8.545  0.8862 -3.0660 -0.1489
  319MOL0     H43038   3.622  -0.138   8.359  1.2588 -2.6734 -0.6490
  319MOL0     H43039   3.521  -0.339   8.362 -0.1487 -1.1553  0.6364
  319MOL0     H43040   3.670  -0.349   8.448  0.3965  0.9864 -0.2410
  319MOL0     H43041   3.474  -0.493   8.542  2.8957 -2.5504  4.2538
  319MOL0     H43042   3.396  -0.339   8.585  1.9204  3.0270 -0.5938
  319MOL0     H43043   3.655  -0.470   8.676  1.7349  0.5045  4.6551
  319MOL0     H43044   3.584  -0.317   8.738 -2.1456 -0.3936  2.6209
  319MOL0     H43045   2.806  -0.053   8.212 -0.6615  0.1520 -3.8773
  319MOL0     H43046   2.683   0.120   8.097  1.3152  3.2701 -4.3347
  319MOL0     H43047   2.730   0.436   7.849 -0.3992 -0.8956 -2.2917
  319MOL0     H43048   2.668   0.570   7.670  0.8281  0.8778  0.2912
  319MOL0     H43049   0.713   0.256   7.484 -1.0887  0.4959 -0.5598
  319MOL0     H43050   0.691   0.208   7.696 -2.2471  3.7853 -3.3541
  319MOL0     H43051   0.912   0.404   8.118 -1.6749  3.4583  2.5375
  319MOL0     H43052   0.887   0.467   8.366 -1.8162 -0.0739  3.8665
  319MOL0     H43053   0.746   0.593   8.510 -1.9222 -1.6856 -1.3311
  319MOL0     H43054   0.852   0.480   8.602 -0.2511 -1.4721  2.1308
  319MOL0     H43055   0.649   0.447   8.751 -1.6221 -3.3284 -6.0887
  319MOL0     H43056   0.562   0.575   8.666 -0.2028 -3.9724 -3.8047
  319MOL0     H43057   0.667   0.757   8.753 -1.9128 -0.3135  0.7113
  319MOL0     H43058   0.825   0.686   8.715 -0.9380  4.9894 -1.4760
  319MOL0     H43059   0.649   0.674   8.968 -1.6017 -0.8899 -2.9015
  319MOL0     H43060   0.774   0.547   8.939 -0.3879 -1.2840 -2.4249
  319MOL0     H43061   0.987   0.909   9.046  1.3938 -1.9874 -0.2693
  319MOL0     H43062   0.538   0.213   8.375  0.7002 -0.7225  0.7903
  319MOL0     H43063   0.547   0.019   8.251  2.1309  0.7988  2.3671
  319MOL0     H43064   0.523   0.102   8.091  1.4839  0.6774 -0.7785
  319MOL0     H43065   0.659  -0.013   8.124 -4.2498 -3.2305 -1.2272
  320MOL0     O43066   7.913   1.568  11.006 -0.1883 -0.3053  0.7114
  320MOL0     C43067   7.845   1.670  11.019 -0.0640  0.6588  0.4308
  320MOL0     O43068   7.735   1.677  11.094 -0.2988 -0.1670 -0.7978
  320MOL0     C43069   7.689   1.568  11.155  0.4942 -0.0199  0.2062
  320MOL0     C43070   7.554   1.552  11.147  0.4853 -0.4600 -0.3268
  320MOL0     C43071   7.488   1.463  11.230  0.3401 -0.6204 -0.7760
  320MOL0     C43072   7.562   1.367  11.304 -1.3394  0.6051  0.8809
  320MOL0     O43073   7.512   1.264  11.368  0.0984  0.2857 -0.1835
  320MOL0     C43074   7.379   1.228  11.344 -0.0434 -0.5027 -0.0695
  320MOL0     C43075   7.357   1.080  11.382  0.4524  0.0852  0.0963
  320MOL0     C43076   7.265   1.011  11.292  0.1860  0.0386 -0.1591
  320MOL0     C43077   7.265   0.868  11.324  0.1950  0.1703 -1.1437
  320MOL0     C43078   7.149   0.793  11.248  0.4300  1.0259 -0.3724
  320MOL0     C43079   7.166   0.783  11.100  0.3672 -1.3715 -0.6286
  320MOL0     C43080   7.038   0.738  11.029  0.0890  0.4255  0.0886
  320MOL0     C43081   7.082   0.686  10.896  0.1575 -0.8136  0.6818
  320MOL0     N43082   6.967   0.654  10.812  0.0910 -0.1794  0.5452
  320MOL0     C43083   6.952   0.691  10.680  0.3001  0.8968  0.0136
  320MOL0     C43084   6.825   0.652  10.657  0.8424 -0.3088  0.7685
  320MOL0     C43085   6.748   0.673  10.523 -0.3540  0.7779 -0.1142
  320MOL0     C43086   6.795   0.584  10.406 -0.1792 -0.0691  0.6028
  320MOL0     C43087   6.766   0.634  10.269 -0.0227 -0.4999  0.1832
  320MOL0     C43088   6.825   0.533  10.170  0.1732  0.1975  1.1012
  320MOL0     O43089   6.854   0.606  10.044  0.4993 -0.3741 -0.8145
  320MOL0     C43090   6.961   0.688  10.036  0.5731  0.3835  0.5409
  320MOL0     C43091   6.996   0.742   9.914 -0.9247  0.5576  0.2227
  320MOL0     C43092   7.105   0.833   9.890  0.7054 -0.4923 -0.2140
  320MOL0     C43093   7.200   0.861   9.995 -0.4862 -0.4886  0.9392
  320MOL0     C43094   7.297   0.970   9.994  0.0096 -0.5324  0.9522
  320MOL0     O43095   7.358   0.999  10.120 -0.4068  0.5839  0.1625
  320MOL0     C43096   7.441   1.106  10.129 -0.2682  0.8151 -0.0574
  320MOL0     C43097   7.411   1.238  10.080 -0.2999  0.7092  0.2430
  320MOL0     C43098   7.500   1.349  10.095 -1.5887  0.2420  0.8509
  320MOL0     C43099   7.620   1.325  10.178  1.3880 -1.7102 -0.0829
  320MOL0     O43100   7.701   1.431  10.211 -0.1685 -0.3162 -0.3271
  320MOL0     C43101   7.782   1.496  10.114  0.9088 -0.3728 -0.5108
  320MOL0     C43102   7.917   1.425  10.120 -1.0059 -0.2039  0.0313
  320MOL0     C43103   8.002   1.488  10.015  0.0425 -0.2797 -0.9907
  320MOL0     C43104   8.137   1.428  10.026  1.4022 -0.5546  0.6771
  320MOL0     C43105   8.158   1.317   9.931  1.4325 -0.5976 -0.5314
  320MOL0     C43106   8.119   1.341   9.791 -1.3169  0.1901 -0.1301
  320MOL0     C43107   8.175   1.224   9.711  0.0086 -0.2549  0.1097
  320MOL0     C43108   8.144   1.230   9.565  1.3475  0.2120 -0.4844
  320MOL0    Cl43109   8.204   1.090   9.477 -0.2734 -0.0817 -0.3337
  320MOL0     C43110   7.643   1.199  10.229  0.9113  0.2600 -0.1961
  320MOL0     C43111   7.556   1.093  10.205 -0.1182  0.6569 -0.6605
  320MOL0     O43112   7.297   1.043   9.889 -0.9408  0.7522  0.5041
  320MOL0     C43113   7.173   0.791  10.115  0.8228 -0.1633  0.8093
  320MOL0     C43114   7.064   0.705  10.131 -0.4246  0.0270 -0.2383
  320MOL0     N43115   6.769   0.587  10.759 -0.2593 -0.1778 -0.3175
  320MOL0     N43116   6.854   0.583  10.848 -0.5401 -0.0258  0.6908
  320MOL0     C43117   7.695   1.387  11.318 -0.7975 -0.1079  0.9839
  320MOL0     C43118   7.764   1.489  11.246  0.9164  0.3742 -0.1601
  320MOL0     C43119   7.870   1.785  10.922  0.7608 -0.3006 -0.4237
  320MOL0     C43120   7.764   1.857  10.876  0.9300  0.5305  0.9438
  320MOL0     C43121   7.772   1.939  10.759  0.2075 -0.5455  0.6542
  320MOL0     C43122   7.898   1.971  10.707  0.4684  0.1180  0.1832
  320MOL0     O43123   7.890   2.042  10.591  0.4576  0.5036 -0.2960
  320MOL0     C43124   7.849   2.178  10.607 -0.6409  0.6421  0.5720
  320MOL0     C43125   7.920   2.245  10.480  0.0699  0.3224 -0.7081
  320MOL0     C43126   7.854   2.382  10.439 -0.5497  0.2160  0.9809
  320MOL0     C43127   7.842   2.393  10.284 -0.2732  0.9936 -0.0751
  320MOL0     C43128   7.979   2.426  10.217  1.0716  0.2421  0.0933
  320MOL0     C43129   8.069   2.427  10.143 -0.3980 -0.5357 -0.4168
  320MOL0     C43130   8.007   1.923  10.770  0.3089  0.0135 -0.1322
  320MOL0     C43131   8.000   1.822  10.872  0.9130 -0.8345 -0.2624
  320MOL0     C43132   8.124   1.776  10.945  0.3847  0.1140  0.0081
  320MOL0     H43133   7.499   1.611  11.075  2.0296  0.1470 -1.0549
  320MOL0     H43134   7.383   1.462  11.205  0.1887  2.7584 -0.7098
  320MOL0     H43135   7.315   1.284  11.413 -2.9036 -3.1921 -0.3573
  320MOL0     H43136   7.333   1.265  11.252 -2.9043  1.9515  2.1338
  320MOL0     H43137   7.328   1.080  11.487 -3.1564  1.4401 -0.7475
  320MOL0     H43138   7.453   1.029  11.372  0.1741 -0.4389  0.0523
  320MOL0     H43139   7.299   1.029  11.190  1.7455  1.4989  0.5506
  320MOL0     H43140   7.170   1.064  11.307 -0.8950 -1.7367 -0.5029
  320MOL0     H43141   7.358   0.819  11.294 -1.4549 -3.3025 -1.0988
  320MOL0     H43142   7.239   0.852  11.430  0.7009  0.9778 -0.8918
  320MOL0     H43143   7.149   0.691  11.289  0.4731 -0.1874 -3.1584
  320MOL0     H43144   7.055   0.848  11.262 -0.6726 -1.2774  2.0573
  320MOL0     H43145   7.201   0.881  11.067  0.4648 -1.0147  0.4960
  320MOL0     H43146   7.249   0.715  11.078 -1.4051 -3.7720 -0.4047
  320MOL0     H43147   6.969   0.820  11.008  1.3315  1.1762 -1.1856
  320MOL0     H43148   6.985   0.652  11.071 -1.1767  0.3852 -1.4876
  320MOL0     H43149   7.144   0.758  10.841  0.5261  0.2563  2.4168
  320MOL0     H43150   7.137   0.591  10.903 -2.3959 -2.4880 -0.5828
  320MOL0     H43151   7.017   0.755  10.621 -0.8047  0.4208 -1.7891
  320MOL0     H43152   6.644   0.644  10.537 -0.2689 -1.1269 -2.7878
  320MOL0     H43153   6.771   0.777  10.497  1.1778  0.3748 -0.4583
  320MOL0     H43154   6.902   0.562  10.404  0.3363  1.3750 -5.3468
  320MOL0     H43155   6.743   0.493  10.438  0.7049  0.4668  3.9268
  320MOL0     H43156   6.809   0.734  10.264  0.5828 -0.8234 -1.7535
  320MOL0     H43157   6.658   0.641  10.255 -0.0312  1.0430  0.8076
  320MOL0     H43158   6.759   0.449  10.144  2.6580 -1.0399 -1.7779
  320MOL0     H43159   6.920   0.485  10.196 -0.2488 -1.4910 -0.2856
  320MOL0     H43160   6.922   0.734   9.834 -1.5600 -1.8202  0.9663
  320MOL0     H43161   7.112   0.884   9.794  2.2663  2.0824  1.1770
  320MOL0     H43162   7.324   1.247  10.016  1.1422 -2.8034 -2.5264
  320MOL0     H43163   7.480   1.440  10.040 -3.0248 -1.3594 -1.4336
  320MOL0     H43164   7.743   1.497  10.012  0.5434 -0.8910 -0.3791
  320MOL0     H43165   7.798   1.596  10.157  2.8199  0.0831 -2.1678
  320MOL0     H43166   7.961   1.437  10.219  2.5994 -0.6161 -1.3398
  320MOL0     H43167   7.899   1.322  10.089  1.2552 -0.4735 -0.6351
  320MOL0     H43168   7.956   1.477   9.917  0.5206  4.3087 -1.9445
  320MOL0     H43169   8.013   1.596  10.029 -1.3333 -0.3053  0.5415
  320MOL0     H43170   8.161   1.397  10.128 -0.6693  0.3105  1.4776
  320MOL0     H43171   8.206   1.509   9.999  1.4663  0.1282  2.7392
  320MOL0     H43172   8.090   1.243   9.975  0.2652  1.8378  2.0222
  320MOL0     H43173   8.256   1.270   9.946 -0.1003 -3.3766  2.0751
  320MOL0     H43174   8.012   1.349   9.769 -1.0808 -0.6155 -1.7017
  320MOL0     H43175   8.163   1.437   9.759  0.1006 -0.6497 -0.7930
  320MOL0     H43176   8.146   1.130   9.759 -0.3362 -1.4619 -2.3047
  320MOL0     H43177   8.284   1.217   9.716  0.1763  0.9764 -0.9993
  320MOL0     H43178   8.037   1.242   9.548  1.1544 -2.7923 -2.1213
  320MOL0     H43179   8.196   1.318   9.527 -2.3980  3.8868  2.0351
  320MOL0     H43180   7.722   1.194  10.303  0.0983  4.0192  1.1743
  320MOL0     H43181   7.570   1.001  10.260  1.1771  1.5634  0.6302
  320MOL0     H43182   7.218   0.818  10.210 -0.7545  2.2548  0.9386
  320MOL0     H43183   7.050   0.675  10.234  0.0943  0.2249 -0.1090
  320MOL0     H43184   7.758   1.314  11.368  0.6966  1.3826  1.3598
  320MOL0     H43185   7.870   1.504  11.263  0.6555  0.8045  1.2251
  320MOL0     H43186   7.659   1.845  10.902  0.5033 -0.5114 -1.0703
  320MOL0     H43187   7.686   1.973  10.703 -0.7195 -3.5536  0.1050
  320MOL0     H43188   7.875   2.222  10.704  2.0376 -0.8818  0.6338
  320MOL0     H43189   7.741   2.165  10.597 -0.8596  0.1050  3.0367
  320MOL0     H43190   7.930   2.182  10.392  0.6616  2.1258 -1.9896
  320MOL0     H43191   8.025   2.267  10.498  0.3081  0.0809 -1.7637
  320MOL0     H43192   7.912   2.468  10.471  0.2348  0.6000 -1.3066
  320MOL0     H43193   7.753   2.393  10.480 -0.1112 -1.5551  2.6596
  320MOL0     H43194   7.803   2.298  10.244 -1.8031  1.4259  0.3011
  320MOL0     H43195   7.775   2.476  10.260  1.1993  1.3991 -3.2042
  320MOL0     H43196   8.165   2.429  10.095  0.3136  1.5037  0.9275
  320MOL0     H43197   8.102   1.952  10.726  3.1397 -1.8052  4.1641
  320MOL0     H43198   8.177   1.866  10.978  1.4446 -0.3928 -0.2735
  320MOL0     H43199   8.109   1.714  11.033  1.9648 -3.7551 -2.2190
  320MOL0     H43200   8.186   1.719  10.876 -0.3622 -0.0715 -0.5252
  321MOL0     O43201   8.777   4.894  10.820  0.9322  0.1505  0.0410
  321MOL0     C43202   8.664   4.872  10.771 -0.1080 -0.5928  0.3616
  321MOL0     O43203   8.558   4.824  10.845 -0.5386 -0.0997 -0.4183
  321MOL0     C43204   8.570   4.828  10.978 -0.4327  0.4185 -0.0555
  321MOL0     C43205   8.546   4.944  11.054 -0.8377  0.4059  0.5965
  321MOL0     C43206   8.556   4.934  11.193 -0.6342  0.5320 -0.8053
  321MOL0     C43207   8.572   4.807  11.261  0.4159 -0.1437  0.6831
  321MOL0     O43208   8.571   4.815  11.395  0.5009  0.9290 -0.1343
  321MOL0     C43209   8.493   4.710  11.460 -0.2541 -0.1828  0.1412
  321MOL0     C43210   8.463   4.742  11.604 -0.1989  0.1870 -0.5872
  321MOL0     C43211   8.379   4.870  11.635 -0.3948 -0.4061 -0.3963
  321MOL0     C43212   8.249   4.870  11.553 -0.6188 -0.0733 -1.6544
  321MOL0     C43213   8.166   4.997  11.574 -0.0603  0.2074 -0.3353
  321MOL0     C43214   8.062   5.023  11.467  0.9834 -0.2143  1.0790
  321MOL0     C43215   7.992   5.163  11.499  0.1782  0.9031  0.6354
  321MOL0     C43216   7.958   5.265  11.385 -0.9741  0.3630 -0.2898
  321MOL0     N43217   7.923   5.396  11.452  0.4015 -0.1090 -0.2872
  321MOL0     C43218   7.998   5.507  11.456 -0.5114  0.2531 -0.1408
  321MOL0     C43219   7.930   5.591  11.541 -0.0367  0.4407  0.6992
  321MOL0     C43220   7.951   5.738  11.568  0.3897 -0.0498 -1.5239
  321MOL0     C43221   7.993   5.776  11.714 -0.7319  0.7821  0.6773
  321MOL0     C43222   7.886   5.769  11.818 -0.3734 -0.2221 -0.0986
  321MOL0     C43223   7.960   5.783  11.952  0.0666  0.0146 -0.5645
  321MOL0     O43224   8.038   5.671  11.983 -0.4613 -0.4097 -0.4674
  321MOL0     C43225   8.055   5.621  12.107  0.2353  0.7144 -0.7201
  321MOL0     C43226   7.947   5.600  12.201  0.2152 -0.9207 -0.6827
  321MOL0     C43227   7.980   5.527  12.308  0.0625  0.8060  0.0840
  321MOL0     C43228   8.106   5.474  12.339  0.1316  0.3334 -0.0749
  321MOL0     C43229   8.137   5.396  12.465  0.9359  0.2482 -0.1451
  321MOL0     O43230   8.245   5.327  12.472  0.3081  0.4897 -0.1708
  321MOL0     C43231   8.306   5.313  12.596 -0.0452  0.5882 -0.6765
  321MOL0     C43232   8.366   5.196  12.634 -0.5331 -0.3211 -0.4783
  321MOL0     C43233   8.452   5.182  12.741  0.6326  0.3821 -0.6947
  321MOL0     C43234   8.477   5.293  12.827 -0.3506 -0.1918 -1.3174
  321MOL0     O43235   8.545   5.261  12.944  0.1842  0.6139 -1.2431
  321MOL0     C43236   8.523   5.336  13.063 -0.2071  0.0465  0.3443
  321MOL0     C43237   8.382   5.300  13.111 -0.3446  0.0064 -0.6357
  321MOL0     C43238   8.354   5.321  13.260 -0.2312  0.4906  0.0380
  321MOL0     C43239   8.361   5.470  13.299 -0.2418  0.6872 -0.5468
  321MOL0     C43240   8.336   5.490  13.448  0.3369  0.0083 -0.7176
  321MOL0     C43241   8.443   5.413  13.542  0.0389  0.0312  0.0853
  321MOL0     C43242   8.449   5.471  13.683 -0.4006  0.5214 -0.5511
  321MOL0     C43243   8.564   5.566  13.703  0.4409  0.1192 -0.5036
  321MOL0    Cl43244   8.558   5.723  13.613 -0.0612  0.6366  0.2403
  321MOL0     C43245   8.418   5.414  12.797  0.1802  0.9362 -0.1547
  321MOL0     C43246   8.331   5.426  12.684  1.2574 -0.1093 -0.4619
  321MOL0     O43247   8.047   5.395  12.556 -0.4326 -0.3075 -0.3811
  321MOL0     C43248   8.213   5.497  12.250 -0.2041 -0.1130 -0.0052
  321MOL0     C43249   8.190   5.568  12.129 -0.1655  0.3646 -0.3377
  321MOL0     N43250   7.801   5.528  11.555 -0.1797  0.7551  0.0603
  321MOL0     N43251   7.799   5.414  11.507  0.1404 -0.3732 -0.5224
  321MOL0     C43252   8.589   4.689  11.179 -1.2060 -0.0949 -0.8899
  321MOL0     C43253   8.601   4.704  11.041 -0.2212 -0.5041 -0.2566
  321MOL0     C43254   8.639   4.898  10.624 -1.2051  0.2259  0.0047
  321MOL0     C43255   8.517   4.946  10.588 -0.6252 -0.2932 -0.0517
  321MOL0     C43256   8.487   4.971  10.458 -0.9485  0.7952 -0.2625
  321MOL0     C43257   8.585   4.958  10.360 -0.6869  0.3977 -1.1279
  321MOL0     O43258   8.560   4.989  10.229 -0.6592  0.1251  0.3114
  321MOL0     C43259   8.526   5.124  10.197 -0.2263  0.2332  0.1238
  321MOL0     C43260   8.432   5.114  10.076  0.0500 -0.7268  0.3280
  321MOL0     C43261   8.362   5.249  10.043  1.0212  0.6470 -0.3240
  321MOL0     C43262   8.220   5.218   9.991  0.7137  0.2133 -0.5044
  321MOL0     C43263   8.228   5.170   9.855  0.1626 -0.2742 -0.7767
  321MOL0     C43264   8.225   5.148   9.740  0.1143  0.4752 -0.6411
  321MOL0     C43265   8.711   4.901  10.395 -0.7436 -0.9838  0.2210
  321MOL0     C43266   8.737   4.876  10.527  0.0371  0.2601 -0.1038
  321MOL0     C43267   8.877   4.813  10.557 -0.8486  0.1913 -0.6397
  321MOL0     H43268   8.535   5.042  11.009 -0.8279 -0.6373 -1.8403
  321MOL0     H43269   8.545   5.023  11.255 -1.2245  0.0046 -0.1273
  321MOL0     H43270   8.395   4.691  11.416 -1.8102  2.3734  2.2359
  321MOL0     H43271   8.557   4.622  11.450  0.2866  0.2655 -0.4851
  321MOL0     H43272   8.563   4.756  11.647  0.0606  1.1474 -1.4417
  321MOL0     H43273   8.412   4.661  11.657 -1.2628  2.0727  1.4501
  321MOL0     H43274   8.431   4.961  11.604 -3.2628  1.0777 -1.2794
  321MOL0     H43275   8.351   4.881  11.740  0.4364 -1.7757 -0.0186
  321MOL0     H43276   8.286   4.876  11.450  1.3938  3.5950 -0.8882
  321MOL0     H43277   8.187   4.780  11.562 -1.0666  0.3695 -0.1382
  321MOL0     H43278   8.116   4.984  11.670  1.4789 -1.5416  0.2884
  321MOL0     H43279   8.236   5.081  11.569  2.5192 -1.8512 -1.1209
  321MOL0     H43280   8.109   5.013  11.369  0.2735 -1.5830  0.8478
  321MOL0     H43281   7.987   4.943  11.467 -2.6493  2.7867 -1.4819
  321MOL0     H43282   8.057   5.216  11.570 -1.2521  1.5198  1.5469
  321MOL0     H43283   7.894   5.146  11.545 -1.1349  0.2351 -2.1948
  321MOL0     H43284   8.043   5.284  11.319  1.2175 -1.0938  1.9494
  321MOL0     H43285   7.881   5.220  11.322 -1.5481 -1.8802  1.8823
  321MOL0     H43286   8.089   5.527  11.401 -0.5779  1.2006  0.0838
  321MOL0     H43287   8.042   5.767  11.516  0.8726 -2.4122 -2.0951
  321MOL0     H43288   7.854   5.780  11.541 -0.7573 -1.6573 -0.1412
  321MOL0     H43289   8.086   5.724  11.742 -0.6220 -0.4088 -1.6539
  321MOL0     H43290   8.019   5.882  11.705  3.0703  0.0995  1.7923
  321MOL0     H43291   7.829   5.676  11.816 -0.0519 -0.4054 -2.0989
  321MOL0     H43292   7.810   5.844  11.792  0.8871  1.0718 -0.1526
  321MOL0     H43293   7.884   5.806  12.028  0.0385  1.2497 -0.9359
  321MOL0     H43294   8.025   5.869  11.935  1.4722 -1.1104 -1.0628
  321MOL0     H43295   7.847   5.637  12.179 -0.1284 -1.8685 -0.7434
  321MOL0     H43296   7.899   5.522  12.381  0.9634  2.2171  1.2502
  321MOL0     H43297   8.343   5.116  12.564  1.7900 -0.5517 -1.0746
  321MOL0     H43298   8.489   5.086  12.776  2.5779  1.0574 -0.7999
  321MOL0     H43299   8.588   5.293  13.139 -3.2148 -1.2743  2.3381
  321MOL0     H43300   8.548   5.442  13.057 -0.1566 -0.0026 -0.5333
  321MOL0     H43301   8.299   5.319  13.042  0.3841 -1.8536 -2.1059
  321MOL0     H43302   8.379   5.191  13.108  0.9690 -0.2278  2.5959
  321MOL0     H43303   8.259   5.275  13.288  1.4423 -1.4742  2.9207
  321MOL0     H43304   8.439   5.271  13.307  0.6217  3.4069  1.8262
  321MOL0     H43305   8.291   5.525  13.236  0.7296 -0.2301 -2.5232
  321MOL0     H43306   8.462   5.506  13.278  0.3801 -2.5199 -4.3373
  321MOL0     H43307   8.232   5.458  13.465  0.1232  0.1103 -1.7746
  321MOL0     H43308   8.338   5.594  13.482  1.2199 -0.2816  0.1586
  321MOL0     H43309   8.416   5.307  13.549  2.0510 -0.4226  2.4637
  321MOL0     H43310   8.548   5.421  13.510  0.0984  1.1126  0.5201
  321MOL0     H43311   8.446   5.379  13.741 -3.7432  1.2089  0.6343
  321MOL0     H43312   8.364   5.530  13.720 -0.7523 -2.0083  3.1802
  321MOL0     H43313   8.565   5.593  13.809 -2.7555 -1.2270 -0.0011
  321MOL0     H43314   8.658   5.520  13.673  0.5688  0.7801 -1.1314
  321MOL0     H43315   8.434   5.502  12.858  2.5357 -0.7597  1.8984
  321MOL0     H43316   8.288   5.524  12.666 -2.2783 -1.4675 -0.2057
  321MOL0     H43317   8.312   5.483  12.293 -0.2495 -2.4685 -0.5194
  321MOL0     H43318   8.266   5.583  12.053  0.5719 -2.5546 -0.2786
  321MOL0     H43319   8.621   4.593  11.217 -1.3925  1.6645  4.5886
  321MOL0     H43320   8.608   4.613  10.983  2.9360  1.8754 -4.0976
  321MOL0     H43321   8.442   4.968  10.663 -0.5957 -0.9695  0.1808
  321MOL0     H43322   8.385   4.992  10.430 -2.1576 -2.1669  1.4218
  321MOL0     H43323   8.609   5.194  10.182  0.1921 -0.2671  0.0526
  321MOL0     H43324   8.460   5.165  10.274 -0.1152  0.2086  0.2334
  321MOL0     H43325   8.361   5.036  10.104  0.9913 -1.7439 -0.0216
  321MOL0     H43326   8.498   5.089   9.992 -1.7453 -0.9055 -1.0831
  321MOL0     H43327   8.418   5.319   9.980  1.7253 -1.4409 -2.1487
  321MOL0     H43328   8.351   5.303  10.138 -2.6177  0.9753 -0.7797
  321MOL0     H43329   8.173   5.143  10.055 -0.7542  0.1372 -1.6225
  321MOL0     H43330   8.162   5.310  10.003  2.2616  1.1703 -0.0999
  321MOL0     H43331   8.224   5.128   9.635 -1.6112 -0.0285 -0.5598
  321MOL0     H43332   8.787   4.894  10.317 -1.3028 -0.8071 -0.3528
  321MOL0     H43333   8.867   4.736  10.634 -1.2912 -0.7695 -1.6404
  321MOL0     H43334   8.912   4.768  10.464 -0.8302 -0.0287 -0.5283
  321MOL0     H43335   8.945   4.896  10.583 -1.8445  0.4903  1.2149
  322MOL0     O43336  11.395   7.482   6.172  0.3662 -0.1410  0.0147
  322MOL0     C43337  11.315   7.464   6.083 -0.7462 -0.3424 -0.4055
  322MOL0     O43338  11.355   7.429   5.959  0.8370 -0.3993 -0.0032
  322MOL0     C43339  11.479   7.370   5.956 -0.6896  0.3655 -0.6095
  322MOL0     C43340  11.600   7.446   5.931  1.0672 -0.1801  0.3553
  322MOL0     C43341  11.726   7.384   5.933  0.4476 -0.6144  0.3526
  322MOL0     C43342  11.740   7.253   5.972  0.5996  0.0343 -0.0064
  322MOL0     O43343  11.861   7.189   5.987  0.5696  0.4366 -0.2372
  322MOL0     C43344  11.984   7.261   5.950  0.6483 -0.2704 -0.5172
  322MOL0     C43345  12.106   7.179   5.979 -0.8476 -0.9879  0.1445
  322MOL0     C43346  12.230   7.256   6.033  0.7011 -0.1273  0.2103
  322MOL0     C43347  12.341   7.270   5.939 -0.4360  0.3108  0.0320
  322MOL0     C43348  12.317   7.354   5.808 -0.5484 -0.0698 -0.5846
  322MOL0     C43349  12.451   7.374   5.730 -0.3284  0.2039  0.9691
  322MOL0     C43350  12.501   7.231   5.669  0.9366 -0.4796 -1.0561
  322MOL0     C43351  12.393   7.161   5.589 -0.0529  1.0805 -0.1917
  322MOL0     N43352  12.363   7.239   5.464  0.0691 -0.2072 -0.2930
  322MOL0     C43353  12.227   7.277   5.423 -0.1997  0.2594 -0.1056
  322MOL0     C43354  12.245   7.325   5.297  0.8500 -0.3199  0.7390
  322MOL0     C43355  12.155   7.368   5.191  1.0733 -0.2788  0.9477
  322MOL0     C43356  12.032   7.441   5.251  0.6625 -0.4682 -0.4506
  322MOL0     C43357  12.054   7.584   5.292 -0.3946  0.4050  0.9927
  322MOL0     C43358  12.147   7.600   5.419  0.4453  0.1500 -0.3336
  322MOL0     O43359  12.091   7.579   5.551 -0.5116 -0.1133  0.0258
  322MOL0     C43360  11.975   7.650   5.574 -0.6585  0.6432  0.0339
  322MOL0     C43361  11.966   7.792   5.570  0.8143  1.8953  0.8037
  322MOL0     C43362  11.848   7.854   5.619 -0.4258 -0.1193  0.3263
  322MOL0     C43363  11.739   7.773   5.658 -0.3669 -0.4019  0.3636
  322MOL0     C43364  11.621   7.837   5.716 -0.1320  0.2798  0.3496
  322MOL0     O43365  11.516   7.753   5.734  0.0791 -0.2775 -0.2317
  322MOL0     C43366  11.390   7.803   5.748  0.1665 -1.2392 -0.2930
  322MOL0     C43367  11.336   7.840   5.870 -1.0054 -0.4670  0.2829
  322MOL0     C43368  11.202   7.872   5.879 -0.1777  0.5319  0.4172
  322MOL0     C43369  11.130   7.886   5.755 -0.4661 -0.5798 -0.0098
  322MOL0     O43370  11.000   7.932   5.759  0.1101  0.0503  0.5023
  322MOL0     C43371  10.953   7.994   5.882 -0.2275 -0.0421  0.7230
  322MOL0     C43372  10.809   8.069   5.854  0.3387 -0.0046 -0.1214
  322MOL0     C43373  10.762   8.141   5.981  0.6099 -0.2823  0.3402
  322MOL0     C43374  10.613   8.183   5.962  0.7348  0.1056  0.0979
  322MOL0     C43375  10.564   8.240   6.104  0.5476  0.2430  0.0488
  322MOL0     C43376  10.410   8.272   6.104  0.1171  0.5878 -0.3034
  322MOL0     C43377  10.362   8.327   6.246 -0.4712  1.2756  0.8257
  322MOL0     C43378  10.214   8.350   6.269  0.8821  0.7133  0.3705
  322MOL0    Cl43379  10.185   8.421   6.434  0.5412  0.2105 -0.0380
  322MOL0     C43380  11.186   7.861   5.629  0.1922  0.4448 -0.8520
  322MOL0     C43381  11.322   7.821   5.629 -0.1658 -0.9524  0.4199
  322MOL0     O43382  11.618   7.949   5.753  0.3534 -0.5432  0.2477
  322MOL0     C43383  11.743   7.631   5.656  0.4726 -0.2268  0.0746
  322MOL0     C43384  11.865   7.569   5.619 -0.0412 -0.9252 -0.5294
  322MOL0     N43385  12.376   7.310   5.257 -1.5030  0.0028 -0.4911
  322MOL0     N43386  12.442   7.257   5.352 -1.1578  0.2171 -0.4336
  322MOL0     C43387  11.624   7.180   6.009 -0.0446 -0.6986  0.2869
  322MOL0     C43388  11.494   7.237   5.997  0.0257 -0.2855  0.4372
  322MOL0     C43389  11.185   7.525   6.101 -0.2991  0.2025  0.3395
  322MOL0     C43390  11.118   7.582   6.000  0.2779 -1.0714  0.9793
  322MOL0     C43391  10.997   7.655   6.020  0.7893  0.0574  0.4704
  322MOL0     C43392  10.961   7.692   6.143  1.1663  0.1054  0.0386
  322MOL0     O43393  10.848   7.771   6.155 -0.5578 -0.7162  0.7039
  322MOL0     C43394  10.771   7.763   6.274  0.4014 -0.3175  0.6092
  322MOL0     C43395  10.642   7.839   6.251  1.6087  0.8047 -0.0530
  322MOL0     C43396  10.532   7.739   6.194 -0.2103  0.4423 -0.7776
  322MOL0     C43397  10.478   7.636   6.301 -0.2704 -0.3514  0.1368
  322MOL0     C43398  10.336   7.609   6.278 -0.8663 -0.3751 -0.8936
  322MOL0     C43399  10.223   7.616   6.262  0.1328  0.5071  0.7475
  322MOL0     C43400  11.030   7.628   6.252  1.1732  0.2708  0.5507
  322MOL0     C43401  11.134   7.538   6.234  0.3066 -0.1468 -0.0613
  322MOL0     C43402  11.182   7.447   6.345  0.4233 -0.8576 -0.2136
  322MOL0     H43403  11.577   7.551   5.921 -1.3588 -0.5798  1.0640
  322MOL0     H43404  11.814   7.445   5.916 -0.3128  0.0038 -1.6189
  322MOL0     H43405  11.972   7.273   5.841  0.5528 -1.8951 -0.7070
  322MOL0     H43406  11.988   7.360   5.996 -0.4419  1.2277 -3.3560
  322MOL0     H43407  12.135   7.118   5.894 -2.2823  1.0031 -1.8913
  322MOL0     H43408  12.082   7.118   6.066  0.8852  0.3206  1.6354
  322MOL0     H43409  12.256   7.223   6.135  0.6050  0.7892  0.5419
  322MOL0     H43410  12.188   7.356   6.042  0.1137  0.5136 -5.7881
  322MOL0     H43411  12.429   7.324   5.976  0.4973  0.8260 -2.6651
  322MOL0     H43412  12.382   7.174   5.909 -1.4332 -0.3763  0.7937
  322MOL0     H43413  12.235   7.313   5.749  0.2207 -2.2305 -0.2377
  322MOL0     H43414  12.285   7.454   5.838  1.4061  1.2392 -2.5298
  322MOL0     H43415  12.426   7.443   5.650 -0.7089 -0.0354  0.8787
  322MOL0     H43416  12.536   7.412   5.788 -0.0281  0.1546  0.5636
  322MOL0     H43417  12.517   7.165   5.755  0.2932 -2.2955 -2.2903
  322MOL0     H43418  12.591   7.237   5.608  3.2970 -3.2607  1.7819
  322MOL0     H43419  12.441   7.067   5.559  1.5320  1.2068  1.7393
  322MOL0     H43420  12.297   7.129   5.631 -1.3252 -0.1612 -3.6732
  322MOL0     H43421  12.138   7.253   5.479  2.4854  0.6866  4.9099
  322MOL0     H43422  12.200   7.442   5.125 -3.5691  2.2497  0.1869
  322MOL0     H43423  12.117   7.283   5.133 -1.9121  1.0042  0.8562
  322MOL0     H43424  11.946   7.437   5.184 -0.6864  1.7258  1.0294
  322MOL0     H43425  11.996   7.383   5.337  0.8740  3.4875  2.5649
  322MOL0     H43426  11.959   7.628   5.324 -2.6609 -1.4458 -2.5179
  322MOL0     H43427  12.091   7.635   5.203  0.0745  0.0793  0.9969
  322MOL0     H43428  12.175   7.706   5.411 -2.1458  1.4274  4.2140
  322MOL0     H43429  12.233   7.534   5.406  0.3016  0.1124 -1.1346
  322MOL0     H43430  12.054   7.851   5.544  0.0709  3.7610  2.2759
  322MOL0     H43431  11.838   7.962   5.629  0.8308 -0.0444  1.0412
  322MOL0     H43432  11.392   7.818   5.961  1.6815 -0.3181 -1.2367
  322MOL0     H43433  11.170   7.893   5.981 -0.4156  1.6523  0.1224
  322MOL0     H43434  10.935   7.924   5.964 -6.2919 -1.0241 -0.8975
  322MOL0     H43435  11.011   8.081   5.912 -0.0947 -0.5099  1.8513
  322MOL0     H43436  10.822   8.146   5.778 -0.3691  0.6523  0.4147
  322MOL0     H43437  10.728   8.003   5.821  0.1687 -0.6413  1.4691
  322MOL0     H43438  10.774   8.070   6.064  0.6650 -2.9264 -1.8053
  322MOL0     H43439  10.820   8.232   5.999 -0.4418 -0.0232  2.9358
  322MOL0     H43440  10.566   8.090   5.929  3.7315 -0.7478 -2.2070
  322MOL0     H43441  10.603   8.264   5.890  7.4575  0.6455 -0.9043
  322MOL0     H43442  10.611   8.339   6.108  1.2148 -0.0857  0.5037
  322MOL0     H43443  10.579   8.166   6.183  0.1274 -0.0315 -0.1229
  322MOL0     H43444  10.376   8.336   6.022  2.2049 -0.5123 -2.1267
  322MOL0     H43445  10.361   8.177   6.080  0.2262  0.0563  1.4531
  322MOL0     H43446  10.412   8.420   6.274 -0.9808  1.1750  2.1429
  322MOL0     H43447  10.396   8.250   6.317  0.2941 -1.1164 -1.9056
  322MOL0     H43448  10.179   8.420   6.193 -1.4464  0.0502  0.7532
  322MOL0     H43449  10.159   8.257   6.250  2.6281  0.3444 -4.1251
  322MOL0     H43450  11.128   7.868   5.538  0.0513  1.3864 -0.6988
  322MOL0     H43451  11.376   7.798   5.537  3.1885 -2.0847  2.4808
  322MOL0     H43452  11.661   7.571   5.695  0.6714 -0.2290  0.4982
  322MOL0     H43453  11.868   7.462   5.636  0.2583 -0.8261  0.0447
  322MOL0     H43454  11.639   7.077   6.040  1.4401 -0.9244 -1.0969
  322MOL0     H43455  11.408   7.175   6.018  0.1797 -2.3610 -3.8301
  322MOL0     H43456  11.161   7.560   5.903  2.0004 -0.8669  1.6698
  322MOL0     H43457  10.942   7.701   5.939 -0.7820 -0.8098  1.0086
  322MOL0     H43458  10.830   7.812   6.352 -1.5311  1.3108  1.1254
  322MOL0     H43459  10.750   7.661   6.308  1.3670 -1.1412 -1.1146
  322MOL0     H43460  10.664   7.918   6.179  1.6626 -1.3882 -2.6066
  322MOL0     H43461  10.599   7.877   6.344 -4.9414  1.1974 -2.7319
  322MOL0     H43462  10.578   7.690   6.107 -0.4843 -0.6441 -0.3330
  322MOL0     H43463  10.445   7.798   6.162  0.2774  0.6449 -1.7700
  322MOL0     H43464  10.532   7.541   6.300 -2.5040 -1.7362  1.4758
  322MOL0     H43465  10.485   7.676   6.403  0.2121 -1.7723  0.6734
  322MOL0     H43466  10.118   7.607   6.241  0.3990  2.2425 -1.7568
  322MOL0     H43467  11.010   7.654   6.355 -0.8663 -2.0604  0.8248
  322MOL0     H43468  11.245   7.365   6.309  1.0605  0.4175 -2.1611
  322MOL0     H43469  11.247   7.515   6.401 -1.7690  0.5189  0.7830
  322MOL0     H43470  11.105   7.403   6.409 -0.3823 -2.2415 -2.0534
  323MOL0     O43471   8.538  11.321   1.602 -0.0328 -0.6928  0.2311
  323MOL0     C43472   8.424  11.371   1.604 -0.5102 -0.9426 -0.3177
  323MOL0     O43473   8.346  11.380   1.716  0.0202 -0.0835 -1.0313
  323MOL0     C43474   8.387  11.316   1.832  0.0472  0.3107  0.8207
  323MOL0     C43475   8.413  11.173   1.834 -1.1823 -0.1024  0.2524
  323MOL0     C43476   8.447  11.104   1.955 -0.1193 -0.4852  0.1672
  323MOL0     C43477   8.443  11.158   2.086  0.3670 -0.2716  0.3440
  323MOL0     O43478   8.465  11.089   2.204 -0.3770 -0.4431 -0.0380
  323MOL0     C43479   8.466  10.945   2.214 -0.6823 -1.1223  0.1668
  323MOL0     C43480   8.544  10.887   2.338 -0.8154 -0.3380  0.1239
  323MOL0     C43481   8.488  10.929   2.481 -0.1224  0.1734  1.5538
  323MOL0     C43482   8.397  10.821   2.542 -0.3126 -0.2654 -0.0953
  323MOL0     C43483   8.253  10.877   2.538  0.0563 -0.5952  0.0145
  323MOL0     C43484   8.215  10.979   2.647  0.4659  0.3599 -0.6552
  323MOL0     C43485   8.225  10.917   2.788  0.4147  0.6283  0.6962
  323MOL0     C43486   8.113  10.818   2.834 -1.0050  0.5337  0.2630
  323MOL0     N43487   8.165  10.729   2.938  0.2812  0.5373 -0.5307
  323MOL0     C43488   8.184  10.595   2.928  0.4411 -0.4710 -0.7260
  323MOL0     C43489   8.223  10.555   3.059 -0.0835  0.0013 -0.1429
  323MOL0     C43490   8.273  10.415   3.084  0.4310 -0.3175  0.7927
  323MOL0     C43491   8.268  10.373   3.231  0.3335 -0.2419 -0.8194
  323MOL0     C43492   8.126  10.378   3.295 -0.4423  0.3919  0.9179
  323MOL0     C43493   8.125  10.287   3.410  0.3130 -0.3273 -0.1332
  323MOL0     O43494   7.993  10.280   3.467 -0.4197 -0.1788 -0.1975
  323MOL0     C43495   7.989  10.193   3.576  0.5449 -0.1605  0.2604
  323MOL0     C43496   8.082  10.096   3.596 -0.7127 -0.3739 -0.5590
  323MOL0     C43497   8.084  10.034   3.721  0.3770 -0.9746 -0.4988
  323MOL0     C43498   7.982  10.059   3.821  0.2776 -0.0010  0.3955
  323MOL0     C43499   7.961   9.962   3.934  0.3370  0.4409  0.3999
  323MOL0     O43500   8.042   9.856   3.949 -1.0846  0.6021 -0.3318
  323MOL0     C43501   8.012   9.776   4.060 -0.1392  0.0119  0.1357
  323MOL0     C43502   8.012   9.822   4.196  0.4649 -0.2027  0.9101
  323MOL0     C43503   7.967   9.729   4.291  0.8896  0.7621  1.1501
  323MOL0     C43504   7.958   9.593   4.261  0.8214 -0.9820  0.3649
  323MOL0     O43505   7.940   9.505   4.362  0.1449 -0.4241  0.4211
  323MOL0     C43506   7.797   9.479   4.398  0.2369 -0.3776  0.5012
  323MOL0     C43507   7.721   9.411   4.295  0.5166 -0.5573 -0.2142
  323MOL0     C43508   7.579   9.360   4.335  0.1907  0.5909 -0.1005
  323MOL0     C43509   7.561   9.208   4.310  0.7707 -0.3740  0.1911
  323MOL0     C43510   7.425   9.152   4.370 -0.1855 -0.2407  0.0107
  323MOL0     C43511   7.297   9.197   4.291  0.8737 -0.1918  0.8725
  323MOL0     C43512   7.268   9.099   4.175  1.0225  1.2433 -0.0687
  323MOL0     C43513   7.148   9.143   4.100 -0.1059  0.3339  0.1961
  323MOL0    Cl43514   7.182   9.265   3.976  0.0595 -0.0655  0.7206
  323MOL0     C43515   7.970   9.553   4.131 -0.1118 -0.3022 -0.3512
  323MOL0     C43516   7.998   9.643   4.027 -0.0741 -0.5103 -0.2450
  323MOL0     O43517   7.861   9.976   4.000 -0.5107 -0.0812  0.4923
  323MOL0     C43518   7.881  10.150   3.786  0.0424 -0.0130  0.0297
  323MOL0     C43519   7.882  10.214   3.664  0.9349  1.1458 -0.3000
  323MOL0     N43520   8.198  10.657   3.143  0.2651 -0.0300  0.9689
  323MOL0     N43521   8.175  10.764   3.070 -0.9348  0.5808  0.1765
  323MOL0     C43522   8.402  11.295   2.080 -0.0205 -0.0543  0.4707
  323MOL0     C43523   8.379  11.368   1.956 -0.0946 -0.7263 -0.6714
  323MOL0     C43524   8.366  11.430   1.480 -0.4285  0.8875 -0.1832
  323MOL0     C43525   8.460  11.507   1.410  0.5390 -0.1565 -0.4617
  323MOL0     C43526   8.434  11.559   1.287  0.7406 -0.5069 -0.3497
  323MOL0     C43527   8.307  11.554   1.228  1.5197 -0.4199 -0.1449
  323MOL0     O43528   8.268  11.595   1.101 -0.1698 -0.3498  0.8419
  323MOL0     C43529   8.385  11.614   1.007 -0.1112  0.3498 -0.5216
  323MOL0     C43530   8.341  11.653   0.873 -0.1624 -0.7317  0.0191
  323MOL0     C43531   8.305  11.806   0.866 -0.1775 -0.0095 -0.2657
  323MOL0     C43532   8.256  11.847   0.724 -0.4031  0.0425 -0.2054
  323MOL0     C43533   8.251  11.992   0.700 -0.1398  0.6811  1.3534
  323MOL0     C43534   8.231  12.109   0.686  0.3585  0.2513  0.4818
  323MOL0     C43535   8.203  11.489   1.301  0.2988 -0.6164  0.0172
  323MOL0     C43536   8.232  11.427   1.428 -0.0836 -0.3383  1.5742
  323MOL0     C43537   8.112  11.397   1.508 -0.8024 -0.3724  0.3385
  323MOL0     H43538   8.406  11.121   1.739  1.5882 -0.0406 -0.0646
  323MOL0     H43539   8.453  10.997   1.943 -0.5307 -0.3490 -1.4017
  323MOL0     H43540   8.362  10.913   2.217 -0.7526 -1.0296 -0.9262
  323MOL0     H43541   8.523  10.899   2.133 -1.1305  0.8470 -1.3551
  323MOL0     H43542   8.647  10.921   2.325 -0.9138 -0.1130 -0.0763
  323MOL0     H43543   8.542  10.779   2.322 -0.2365 -0.5367  1.3077
  323MOL0     H43544   8.449  11.030   2.474 -1.4699 -0.4359 -1.8802
  323MOL0     H43545   8.570  10.919   2.553  1.2341 -0.5744 -0.0021
  323MOL0     H43546   8.403  10.729   2.483 -1.9890  1.4670 -3.2219
  323MOL0     H43547   8.442  10.799   2.640  3.1239  0.5008 -1.3370
  323MOL0     H43548   8.241  10.914   2.436  2.2711 -3.0376 -1.2552
  323MOL0     H43549   8.192  10.787   2.550  1.0760 -1.0600  2.0482
  323MOL0     H43550   8.288  11.061   2.655  0.6702  0.6783 -4.0606
  323MOL0     H43551   8.116  11.020   2.629  0.8742  1.6370 -0.1087
  323MOL0     H43552   8.222  11.005   2.853  0.6356 -0.4764  2.2540
  323MOL0     H43553   8.322  10.869   2.803  1.1536  2.4612  2.2911
  323MOL0     H43554   8.022  10.867   2.869 -1.5367 -2.2656  3.2029
  323MOL0     H43555   8.083  10.763   2.745  0.0354  1.2458 -0.5643
  323MOL0     H43556   8.176  10.520   2.850 -1.8404 -2.4687  1.2358
  323MOL0     H43557   8.206  10.354   3.022  0.7403  0.4256 -0.2900
  323MOL0     H43558   8.375  10.404   3.047  0.7139 -3.0708  2.1692
  323MOL0     H43559   8.310  10.274   3.251  0.3668 -1.0458 -4.2072
  323MOL0     H43560   8.329  10.448   3.281 -0.6483  0.3053 -0.4222
  323MOL0     H43561   8.041  10.340   3.238  1.1829 -4.2882  1.1763
  323MOL0     H43562   8.115  10.476   3.341 -1.0513 -1.3911  4.9657
  323MOL0     H43563   8.182  10.320   3.497  3.0262  1.1546 -2.3380
  323MOL0     H43564   8.156  10.190   3.371  1.7966  0.0963 -0.0621
  323MOL0     H43565   8.171  10.093   3.534 -0.9155  2.9185 -1.2402
  323MOL0     H43566   8.165   9.969   3.753  2.5269  1.0030 -1.6840
  323MOL0     H43567   8.031   9.924   4.229 -1.3929  0.3125  0.5046
  323MOL0     H43568   7.970   9.775   4.389 -0.9956 -0.4759  1.8248
  323MOL0     H43569   7.800   9.406   4.480 -1.6988  1.1151  2.0011
  323MOL0     H43570   7.742   9.566   4.437  0.5666  0.0091  0.1196
  323MOL0     H43571   7.693   9.480   4.214  1.1532 -4.4137 -4.1359
  323MOL0     H43572   7.781   9.331   4.249  0.1486 -0.1483 -1.4570
  323MOL0     H43573   7.566   9.383   4.442  0.6530  1.1859 -0.1706
  323MOL0     H43574   7.499   9.413   4.282 -1.5871 -1.6669  0.1494
  323MOL0     H43575   7.641   9.153   4.362  0.6189  1.3860  2.4265
  323MOL0     H43576   7.570   9.179   4.205  2.8672 -0.6947  0.4057
  323MOL0     H43577   7.411   9.185   4.473 -0.5596  5.1086 -1.4430
  323MOL0     H43578   7.429   9.043   4.377 -1.5094 -0.2026  2.1066
  323MOL0     H43579   7.207   9.213   4.351 -0.1630  1.3207 -0.9665
  323MOL0     H43580   7.311   9.295   4.244  0.5990 -0.3992  0.3568
  323MOL0     H43581   7.242   9.007   4.229 -0.0412 -0.5875 -3.4051
  323MOL0     H43582   7.357   9.082   4.114 -1.1386  0.2121 -3.1570
  323MOL0     H43583   7.116   9.057   4.041 -0.4601  0.0252  0.8232
  323MOL0     H43584   7.064   9.157   4.169  1.6936 -3.2649  3.4888
  323MOL0     H43585   7.934   9.452   4.111 -1.5848 -0.1401  1.2556
  323MOL0     H43586   7.973   9.613   3.925 -1.0791 -1.6355  0.3105
  323MOL0     H43587   7.800  10.174   3.854  1.0450  1.8468  0.6445
  323MOL0     H43588   7.810  10.293   3.645 -1.2304 -0.8805 -1.0064
  323MOL0     H43589   8.385  11.351   2.172  0.4854 -2.0787  1.8749
  323MOL0     H43590   8.339  11.464   1.985 -0.6984 -0.7136 -1.5079
  323MOL0     H43591   8.559  11.523   1.451 -0.6408 -1.1805  3.1501
  323MOL0     H43592   8.516  11.616   1.243  0.4559  2.1112  2.1699
  323MOL0     H43593   8.432  11.516   0.995 -0.7520  0.1640 -1.6908
  323MOL0     H43594   8.465  11.680   1.043 -0.5888  0.1010  1.0881
  323MOL0     H43595   8.263  11.583   0.842  0.5490 -1.2820 -0.5569
  323MOL0     H43596   8.428  11.625   0.814  1.6701 -1.0782  2.7032
  323MOL0     H43597   8.391  11.868   0.892  1.3022 -0.9952 -2.5317
  323MOL0     H43598   8.221  11.826   0.933 -2.2984 -0.7682 -2.5610
  323MOL0     H43599   8.315  11.809   0.640 -2.2363  3.2844 -3.2051
  323MOL0     H43600   8.152  11.818   0.706 -0.6964 -0.7733  2.3555
  323MOL0     H43601   8.229  12.213   0.662 -1.0750  0.0645 -0.3079
  323MOL0     H43602   8.107  11.460   1.259  0.7508 -2.4361  0.1589
  323MOL0     H43603   8.143  11.393   1.613  2.6832  1.7444 -0.4549
  323MOL0     H43604   8.034  11.474   1.513 -0.6202 -0.2320  1.2100
  323MOL0     H43605   8.069  11.300   1.482 -0.7745 -0.3781  0.3139
  324MOL0     O43606   9.082  10.876  10.071  0.2113 -0.5828  1.4998
  324MOL0     C43607   9.193  10.886  10.114 -0.6876 -0.5720 -0.5673
  324MOL0     O43608   9.291  10.782  10.111  0.3657 -0.0985 -0.0140
  324MOL0     C43609   9.248  10.656  10.110 -0.2703  0.3055  0.6631
  324MOL0     C43610   9.139  10.603  10.177  0.0362 -0.3650 -0.0121
  324MOL0     C43611   9.108  10.470  10.188  0.0461  0.8095 -0.4389
  324MOL0     C43612   9.179  10.382  10.100  0.2504  0.0191  0.0599
  324MOL0     O43613   9.147  10.252  10.083 -0.5857  0.0705  0.2752
  324MOL0     C43614   9.009  10.211  10.101  0.4833 -0.3297 -0.7959
  324MOL0     C43615   9.006  10.064  10.085 -0.0293  0.7730  0.6641
  324MOL0     C43616   9.085   9.992  10.195  0.3717  0.9764 -0.2217
  324MOL0     C43617   8.985   9.928  10.296 -0.3817  0.2881  0.6120
  324MOL0     C43618   9.037   9.813  10.373 -0.4941  0.4907 -0.9215
  324MOL0     C43619   8.981   9.811  10.510 -0.3989  0.0130 -0.1283
  324MOL0     C43620   9.061   9.691  10.573  1.5242 -0.5881  0.5232
  324MOL0     C43621   8.994   9.659  10.707  0.1838  0.0768  0.2813
  324MOL0     N43622   9.058   9.537  10.754  0.1324 -0.7465  0.2933
  324MOL0     C43623   9.182   9.533  10.786  0.4662 -0.2799 -0.0491
  324MOL0     C43624   9.202   9.400  10.803 -0.4616 -0.2099  0.4420
  324MOL0     C43625   9.330   9.328  10.862 -0.1241 -0.4461  0.7721
  324MOL0     C43626   9.306   9.185  10.909 -0.3064  0.2074  1.0220
  324MOL0     C43627   9.440   9.111  10.894  0.2559 -0.2411  0.1395
  324MOL0     C43628   9.447   8.976  10.976  0.8416  1.3058  1.0991
  324MOL0     O43629   9.580   8.925  10.951  0.8910 -0.4630  0.4235
  324MOL0     C43630   9.655   8.920  11.065 -1.1568 -0.2305  1.2163
  324MOL0     C43631   9.640   8.815  11.155  1.1459 -0.6526  0.4240
  324MOL0     C43632   9.714   8.820  11.270 -0.4822  0.4864  0.1191
  324MOL0     C43633   9.821   8.914  11.295  0.5371  0.4983 -0.3599
  324MOL0     C43634   9.887   8.920  11.427 -0.0848 -0.2208  0.3371
  324MOL0     O43635  10.013   8.979  11.420  0.3568  0.3578 -0.0899
  324MOL0     C43636  10.082   9.007  11.534 -0.8627 -0.7763 -0.8275
  324MOL0     C43637  10.079   8.938  11.655 -0.1594  0.6746 -0.7327
  324MOL0     C43638  10.162   8.979  11.758  0.1149  0.0431 -0.5653
  324MOL0     C43639  10.229   9.101  11.756 -0.0431  0.5778  0.6769
  324MOL0     O43640  10.295   9.143  11.865 -0.4730  0.0753  0.4146
  324MOL0     C43641  10.424   9.077  11.876  0.1675 -0.2524 -0.1424
  324MOL0     C43642  10.536   9.184  11.885 -0.5199 -0.0925  0.1446
  324MOL0     C43643  10.579   9.242  11.748 -1.0127 -1.4618 -0.2914
  324MOL0     C43644  10.690   9.341  11.781 -0.4585  0.0176  0.2856
  324MOL0     C43645  10.834   9.291  11.725  0.3058 -0.5236  0.7614
  324MOL0     C43646  10.930   9.413  11.692 -0.1767  0.2412  0.1502
  324MOL0     C43647  10.976   9.503  11.796 -0.1425 -0.5204 -0.5031
  324MOL0     C43648  11.007   9.644  11.753  0.1886 -0.1561 -0.8611
  324MOL0    Cl43649  11.151   9.649  11.640  0.1372 -0.6876 -0.0626
  324MOL0     C43650  10.215   9.178  11.642 -0.7319  0.2450 -0.0611
  324MOL0     C43651  10.154   9.129  11.529  0.1416 -0.3057  1.0373
  324MOL0     O43652   9.830   8.883  11.531 -0.0205  0.0329  0.7571
  324MOL0     C43653   9.842   9.015  11.195  0.3173  0.6188 -0.3781
  324MOL0     C43654   9.760   9.018  11.082 -0.0369  0.9068  0.1263
  324MOL0     N43655   9.091   9.330  10.761  0.0122  0.0546  1.0958
  324MOL0     N43656   8.997   9.411  10.739 -0.2530  0.7070 -0.3117
  324MOL0     C43657   9.280  10.436  10.021  0.2600  0.5413  0.5385
  324MOL0     C43658   9.313  10.571  10.026 -0.9124  0.1749  1.5281
  324MOL0     C43659   9.238  11.024  10.144 -0.4815  0.8204 -0.3610
  324MOL0     C43660   9.288  11.037  10.279  0.1776 -0.5110 -0.5354
  324MOL0     C43661   9.332  11.161  10.318 -0.6211 -0.6556 -0.0716
  324MOL0     C43662   9.323  11.274  10.225 -0.6180  0.7250  0.2223
  324MOL0     O43663   9.354  11.411  10.262  0.5476  0.6413 -0.7118
  324MOL0     C43664   9.249  11.460  10.351 -0.2532  0.3787  0.0534
  324MOL0     C43665   9.153  11.560  10.278 -0.6497  0.5222 -0.1664
  324MOL0     C43666   9.215  11.702  10.274  0.4674  0.6374 -0.1926
  324MOL0     C43667   9.121  11.787  10.205 -0.6337  0.8270  0.7547
  324MOL0     C43668   9.150  11.921  10.238  0.2407  0.9269 -0.0353
  324MOL0     C43669   9.176  12.032  10.281  0.6175  0.6506 -0.2427
  324MOL0     C43670   9.279  11.254  10.104  0.7421  0.3006  1.5235
  324MOL0     C43671   9.232  11.131  10.055 -0.8940  0.2931 -0.1242
  324MOL0     C43672   9.173  11.122   9.922 -0.1382  0.7254 -0.2951
  324MOL0     H43673   9.073  10.663  10.238  2.7926  1.1836  1.6788
  324MOL0     H43674   9.017  10.451  10.244 -0.5001  1.4383 -1.0903
  324MOL0     H43675   8.969  10.234  10.200 -0.3533 -2.9999 -0.4183
  324MOL0     H43676   8.940  10.254  10.027 -0.5379  0.4691  0.5770
  324MOL0     H43677   9.059  10.044   9.992  0.5285  1.3733  0.8467
  324MOL0     H43678   8.903  10.029  10.069  0.3169  0.4604 -1.1305
  324MOL0     H43679   9.134  10.066  10.259  0.1062  1.6451 -0.7693
  324MOL0     H43680   9.154   9.916  10.159  0.3557  0.6802  0.3637
  324MOL0     H43681   8.954  10.011  10.359 -2.3475 -1.1395  1.6462
  324MOL0     H43682   8.896   9.893  10.244 -0.3592  0.8468  0.1877
  324MOL0     H43683   9.008   9.721  10.320 -4.1408  0.7083  0.4235
  324MOL0     H43684   9.146   9.818  10.369 -0.2149 -1.7213  1.0142
  324MOL0     H43685   8.997   9.906  10.563  0.9544 -1.3823  2.1258
  324MOL0     H43686   8.873   9.793  10.511 -0.4728  0.4022 -0.6752
  324MOL0     H43687   9.162   9.719  10.601  2.1271 -1.7062 -0.4442
  324MOL0     H43688   9.055   9.595  10.520  1.3593  0.8391 -2.2554
  324MOL0     H43689   9.011   9.743  10.775  1.2011 -0.4064  0.6493
  324MOL0     H43690   8.891   9.624  10.692  0.2570 -0.1213  0.2417
  324MOL0     H43691   9.245   9.611  10.825  1.6675 -0.2229 -1.9820
  324MOL0     H43692   9.409   9.326  10.786 -1.6491  0.1464 -0.8951
  324MOL0     H43693   9.372   9.375  10.952  2.7848 -0.5990 -0.3787
  324MOL0     H43694   9.272   9.183  11.013  1.4130 -2.0674  1.6379
  324MOL0     H43695   9.226   9.141  10.850 -0.2951  3.2645 -1.5218
  324MOL0     H43696   9.518   9.173  10.939 -1.3793  0.5902  1.9355
  324MOL0     H43697   9.460   9.098  10.787 -0.2101  1.5294 -0.1905
  324MOL0     H43698   9.381   8.890  10.961 -0.4717  2.5567 -0.6271
  324MOL0     H43699   9.435   9.005  11.080  1.4415 -1.5811  2.0645
  324MOL0     H43700   9.568   8.745  11.115  0.3497  2.4687 -4.5838
  324MOL0     H43701   9.689   8.749  11.349  1.5135  0.8530  1.1592
  324MOL0     H43702  10.023   8.851  11.689 -1.2089  1.7253  0.3515
  324MOL0     H43703  10.181   8.911  11.841 -0.6976  0.1561 -0.2717
  324MOL0     H43704  10.422   9.012  11.964 -0.9139 -0.5954 -0.3984
  324MOL0     H43705  10.443   9.010  11.792 -1.6117 -1.4506  0.3600
  324MOL0     H43706  10.492   9.258  11.952  4.7317  1.2413  2.6878
  324MOL0     H43707  10.622   9.131  11.928 -1.7483 -1.3988  1.0716
  324MOL0     H43708  10.617   9.175  11.669  1.1919  0.5127 -1.0268
  324MOL0     H43709  10.498   9.295  11.698 -2.0660  0.7511  3.4369
  324MOL0     H43710  10.700   9.378  11.883  0.0438  1.2573 -0.1924
  324MOL0     H43711  10.665   9.420  11.710 -0.1732 -1.2108 -1.2245
  324MOL0     H43712  10.826   9.225  11.638  1.7895 -1.3028  1.1760
  324MOL0     H43713  10.877   9.223  11.800 -2.5033 -0.8786  2.2050
  324MOL0     H43714  11.023   9.374  11.649  0.9545  2.0877  0.7923
  324MOL0     H43715  10.887   9.471  11.610 -3.1717 -0.8284  0.8121
  324MOL0     H43716  11.060   9.461  11.852  1.7383  1.5857 -1.5903
  324MOL0     H43717  10.893   9.516  11.866 -0.0436 -0.1272 -0.4604
  324MOL0     H43718  10.920   9.689  11.705 -0.4466 -1.6572 -1.1635
  324MOL0     H43719  11.022   9.699  11.847 -1.1646 -1.6107  0.2569
  324MOL0     H43720  10.277   9.267  11.636 -1.5786  0.7201 -2.7059
  324MOL0     H43721  10.166   9.162  11.426 -1.3556 -3.1053 -0.1538
  324MOL0     H43722   9.909   9.094  11.229 -1.7828  1.6747  1.5164
  324MOL0     H43723   9.762   9.102  11.013  1.5491  1.7924  1.1932
  324MOL0     H43724   9.339  10.361   9.969 -3.2819  0.6462 -4.2273
  324MOL0     H43725   9.390  10.626   9.972  0.7428 -0.2833  3.2851
  324MOL0     H43726   9.290  10.950  10.344  2.5863 -0.4466 -0.4289
  324MOL0     H43727   9.381  11.181  10.413  1.2436 -2.3733 -0.6046
  324MOL0     H43728   9.293  11.510  10.438  1.4016 -0.2419 -0.3808
  324MOL0     H43729   9.189  11.379  10.392 -0.1538 -0.2370 -0.9730
  324MOL0     H43730   9.061  11.551  10.337 -1.9507 -2.0800 -2.3794
  324MOL0     H43731   9.145  11.513  10.179  1.8089 -1.2070  0.3506
  324MOL0     H43732   9.314  11.710  10.229  0.7257  0.8820  0.4116
  324MOL0     H43733   9.216  11.726  10.381  0.4769 -0.8167  0.1457
  324MOL0     H43734   9.147  11.772  10.100 -0.6565  0.7860  0.7542
  324MOL0     H43735   9.017  11.752  10.212  0.3994 -3.6254 -2.1706
  324MOL0     H43736   9.213  12.124  10.322  1.2572  1.6544 -2.9058
  324MOL0     H43737   9.269  11.345  10.046 -2.4581  0.3775  1.9976
  324MOL0     H43738   9.213  11.039   9.862 -0.2327  0.8326 -0.5111
  324MOL0     H43739   9.064  11.117   9.926 -0.1724  1.9119  2.2066
  324MOL0     H43740   9.205  11.201   9.853 -0.1933 -0.5557 -1.8662
  325MOL0     O43741   4.628   6.035   8.290 -0.6871 -0.6846 -0.2512
  325MOL0     C43742   4.695   5.944   8.240  0.5561 -0.2684 -0.8374
  325MOL0     O43743   4.815   5.952   8.168 -0.1543  0.1800 -0.4398
  325MOL0     C43744   4.848   6.079   8.114 -0.3565  1.0813 -1.4676
  325MOL0     C43745   4.920   6.175   8.187 -1.4786  0.1182  0.0126
  325MOL0     C43746   4.945   6.297   8.122  0.5076 -1.6772  0.0982
  325MOL0     C43747   4.910   6.319   7.983 -0.6647  0.7270 -0.7152
  325MOL0     O43748   4.949   6.433   7.921 -0.6294 -0.1001  0.6418
  325MOL0     C43749   4.910   6.563   7.972  0.1592 -0.0126 -0.5431
  325MOL0     C43750   5.037   6.642   8.014 -0.0029  0.1275  1.0119
  325MOL0     C43751   5.016   6.760   8.103 -0.8192 -0.0842 -0.9664
  325MOL0     C43752   5.142   6.780   8.189  0.7731 -1.5792 -0.4144
  325MOL0     C43753   5.169   6.672   8.301 -0.3547  0.6851  0.3769
  325MOL0     C43754   5.317   6.683   8.345 -0.1032  0.1078 -0.5355
  325MOL0     C43755   5.382   6.560   8.422  0.3364  0.4691  0.2745
  325MOL0     C43756   5.515   6.598   8.487  0.5044 -1.0435 -0.3679
  325MOL0     N43757   5.588   6.477   8.530 -0.6105  0.9607  0.1782
  325MOL0     C43758   5.706   6.440   8.469  0.2851  0.3523  0.8711
  325MOL0     C43759   5.744   6.331   8.534  0.5664 -0.0197  0.5001
  325MOL0     C43760   5.869   6.251   8.503  0.3913  0.4389  0.4293
  325MOL0     C43761   5.911   6.156   8.606  0.4191  0.3262 -0.9006
  325MOL0     C43762   6.024   6.067   8.547 -0.0867  0.5706  0.4469
  325MOL0     C43763   6.051   6.045   8.400  0.1790 -0.2034  0.7864
  325MOL0     O43764   6.180   5.977   8.380  0.0387  1.1459 -0.4484
  325MOL0     C43765   6.224   5.952   8.251  0.4871  0.0199  0.8985
  325MOL0     C43766   6.150   5.984   8.134  0.2815 -0.5105  0.6189
  325MOL0     C43767   6.195   5.951   8.007  0.6868  1.3919  0.0828
  325MOL0     C43768   6.308   5.865   7.997 -0.2749 -0.2721 -0.2039
  325MOL0     C43769   6.330   5.798   7.866 -0.3260 -0.4803 -0.0271
  325MOL0     O43770   6.260   5.834   7.751  0.2917 -0.4258  0.9191
  325MOL0     C43771   6.314   5.789   7.628  0.2298  0.0688 -0.0655
  325MOL0     C43772   6.440   5.825   7.582  1.1947  1.2938 -0.4364
  325MOL0     C43773   6.502   5.754   7.475  0.6407 -0.9189 -0.1968
  325MOL0     C43774   6.439   5.643   7.418 -0.3196 -0.2150 -1.1691
  325MOL0     O43775   6.480   5.564   7.320 -1.1644 -0.0193  0.0918
  325MOL0     C43776   6.624   5.579   7.294 -1.0596  0.6403 -0.1793
  325MOL0     C43777   6.666   5.514   7.165 -1.1494  0.2113  0.4482
  325MOL0     C43778   6.643   5.609   7.039 -0.6564  0.2535  0.8417
  325MOL0     C43779   6.605   5.524   6.917 -0.5613 -0.6054  0.6964
  325MOL0     C43780   6.722   5.450   6.836  0.2961  0.0229  0.4532
  325MOL0     C43781   6.667   5.378   6.723  0.9244  0.4431  0.0049
  325MOL0     C43782   6.772   5.280   6.659 -0.6925  0.2676  0.3657
  325MOL0     C43783   6.836   5.185   6.761  0.3699 -0.2346 -0.0368
  325MOL0    Cl43784   6.704   5.087   6.837  0.1647  0.1704  0.2093
  325MOL0     C43785   6.304   5.617   7.450 -1.2177 -0.2979 -0.1003
  325MOL0     C43786   6.249   5.689   7.556  0.0498 -0.7657 -0.2626
  325MOL0     O43787   6.415   5.703   7.863  0.4883  0.0657 -0.6342
  325MOL0     C43788   6.380   5.833   8.106  0.0435  0.0838 -0.1427
  325MOL0     C43789   6.337   5.882   8.232  0.3869 -1.0554  0.3583
  325MOL0     N43790   5.656   6.305   8.639  0.0123  0.7986  0.0069
  325MOL0     N43791   5.572   6.399   8.640 -0.8700  0.3572  0.7009
  325MOL0     C43792   4.849   6.213   7.918  0.3502 -0.3872 -0.3010
  325MOL0     C43793   4.814   6.094   7.985 -0.3612 -0.1817  0.1004
  325MOL0     C43794   4.655   5.801   8.273 -0.1467 -0.2021  0.1262
  325MOL0     C43795   4.677   5.704   8.166  0.7156 -0.3248 -0.0076
  325MOL0     C43796   4.642   5.568   8.192  0.8016 -0.2868  0.9234
  325MOL0     C43797   4.599   5.519   8.314 -0.3256 -1.6267  0.2014
  325MOL0     O43798   4.544   5.393   8.335 -0.6368  0.9568 -0.0505
  325MOL0     C43799   4.600   5.279   8.269 -0.2188  0.7632 -0.3918
  325MOL0     C43800   4.492   5.243   8.178  0.5293 -1.1863  0.0285
  325MOL0     C43801   4.538   5.119   8.105  0.7674  1.0677 -0.2099
  325MOL0     C43802   4.492   4.988   8.175 -0.3039  0.5905 -0.3420
  325MOL0     C43803   4.540   4.867   8.099 -0.6029 -0.1415  0.5369
  325MOL0     C43804   4.557   4.765   8.038 -0.9798 -0.0559  1.0727
  325MOL0     C43805   4.578   5.613   8.418  0.2801 -0.8368  0.5331
  325MOL0     C43806   4.613   5.750   8.402 -0.4100  0.2206 -1.0232
  325MOL0     C43807   4.613   5.842   8.527 -0.1142  0.4787 -0.1111
  325MOL0     H43808   4.957   6.133   8.280  0.5297  0.0878 -0.7555
  325MOL0     H43809   5.007   6.371   8.171  0.2636 -0.0600 -1.9266
  325MOL0     H43810   4.862   6.624   7.895  2.7441  2.8219 -0.0727
  325MOL0     H43811   4.850   6.552   8.063  0.0053  2.5183 -0.2638
  325MOL0     H43812   5.096   6.663   7.924 -0.3334 -2.9945 -0.0700
  325MOL0     H43813   5.102   6.575   8.071  0.6002 -0.7484 -0.6235
  325MOL0     H43814   4.932   6.743   8.171 -0.3154  0.3439 -0.2206
  325MOL0     H43815   4.991   6.847   8.040 -0.3283 -0.8826 -2.2894
  325MOL0     H43816   5.230   6.776   8.124  1.8892  0.3171  0.8780
  325MOL0     H43817   5.139   6.879   8.235 -4.0979 -0.6806 -2.1632
  325MOL0     H43818   5.114   6.693   8.393 -1.0499  2.3213 -0.3717
  325MOL0     H43819   5.171   6.568   8.268 -0.9762 -0.5911  3.9242
  325MOL0     H43820   5.376   6.692   8.253 -0.8398  1.5025 -0.8926
  325MOL0     H43821   5.324   6.774   8.405 -2.2756  0.0783 -0.1704
  325MOL0     H43822   5.382   6.473   8.355 -2.5363 -3.4295  4.7022
  325MOL0     H43823   5.320   6.525   8.505  1.5135 -0.1710  0.9015
  325MOL0     H43824   5.567   6.648   8.404 -1.1002 -1.0060 -1.3841
  325MOL0     H43825   5.508   6.665   8.574  1.4210  0.7476 -1.5996
  325MOL0     H43826   5.744   6.491   8.381  1.2229 -1.4355  0.1936
  325MOL0     H43827   5.863   6.212   8.401 -1.9172  2.9492 -0.5135
  325MOL0     H43828   5.948   6.326   8.501  0.6446  0.5153  4.4930
  325MOL0     H43829   5.953   6.196   8.699  0.0867 -4.1740  1.4147
  325MOL0     H43830   5.826   6.100   8.643  1.2415 -1.7088 -1.9383
  325MOL0     H43831   6.027   5.971   8.600 -2.3102  1.0465  1.5475
  325MOL0     H43832   6.111   6.121   8.585 -0.3382  0.9681  0.4615
  325MOL0     H43833   6.050   6.140   8.344 -1.5025 -1.0223 -0.6984
  325MOL0     H43834   5.971   5.987   8.354  0.0563 -0.3855  1.2287
  325MOL0     H43835   6.054   6.034   8.145  0.3319 -0.6128  1.5997
  325MOL0     H43836   6.149   5.987   7.916  0.8538 -1.4049 -1.1991
  325MOL0     H43837   6.498   5.903   7.630  1.6084 -0.2297  1.6862
  325MOL0     H43838   6.600   5.789   7.447 -0.0460  3.8303  2.3572
  325MOL0     H43839   6.669   5.678   7.283  0.6601 -0.2558 -1.8887
  325MOL0     H43840   6.677   5.528   7.376  1.9292  1.2324 -1.6143
  325MOL0     H43841   6.774   5.500   7.166 -1.2644 -1.6238 -1.6183
  325MOL0     H43842   6.640   5.408   7.152  1.1828 -0.5210  1.2560
  325MOL0     H43843   6.565   5.684   7.051  2.5793  3.7554  1.9602
  325MOL0     H43844   6.732   5.671   7.026 -0.2648 -0.6354 -1.1292
  325MOL0     H43845   6.561   5.598   6.850  0.6098 -1.6311 -1.2849
  325MOL0     H43846   6.514   5.467   6.940 -0.2116 -0.5712  2.2782
  325MOL0     H43847   6.752   5.378   6.912 -1.7865 -2.5666 -1.0203
  325MOL0     H43848   6.810   5.511   6.813  1.3301 -2.2465 -2.2343
  325MOL0     H43849   6.570   5.336   6.754  0.5566  2.4705  1.8157
  325MOL0     H43850   6.650   5.448   6.641  0.5197 -0.8147 -1.0200
  325MOL0     H43851   6.843   5.336   6.597 -0.6662 -1.6539 -1.4508
  325MOL0     H43852   6.718   5.215   6.590  0.3778  0.5904 -0.8129
  325MOL0     H43853   6.911   5.116   6.720  1.1296  1.4824 -1.6570
  325MOL0     H43854   6.894   5.242   6.834 -1.3961  0.3550  0.9734
  325MOL0     H43855   6.276   5.525   7.400  1.9291 -0.8080 -1.1542
  325MOL0     H43856   6.152   5.662   7.596 -0.8893  0.0316 -1.8956
  325MOL0     H43857   6.466   5.768   8.098  0.4591  0.8760 -3.1325
  325MOL0     H43858   6.384   5.856   8.326  1.0915 -2.8617 -0.4493
  325MOL0     H43859   4.811   6.224   7.817 -2.7875 -1.4491  0.6489
  325MOL0     H43860   4.752   6.022   7.934  0.2577  0.2675 -1.3447
  325MOL0     H43861   4.710   5.728   8.066 -0.7005  0.7139 -0.2474
  325MOL0     H43862   4.651   5.497   8.110  1.0823  0.2340  0.4957
  325MOL0     H43863   4.626   5.204   8.344  0.2963  2.6967  1.4457
  325MOL0     H43864   4.692   5.301   8.214  2.4642 -3.3137  1.9764
  325MOL0     H43865   4.465   5.320   8.105  0.4292 -0.7398  0.5333
  325MOL0     H43866   4.399   5.229   8.233  0.8964 -0.8807  0.7349
  325MOL0     H43867   4.648   5.119   8.097  0.7938 -0.5291 -0.2074
  325MOL0     H43868   4.495   5.115   8.004 -3.2914 -0.7064  1.3814
  325MOL0     H43869   4.539   4.969   8.272  2.6543  0.3034 -1.7255
  325MOL0     H43870   4.383   4.996   8.176 -0.4774 -1.2245 -0.6899
  325MOL0     H43871   4.585   4.676   7.986 -1.3524 -0.6077  1.7964
  325MOL0     H43872   4.530   5.570   8.505  1.1853 -1.1245  0.9020
  325MOL0     H43873   4.626   5.774   8.612  0.0016 -0.7030 -1.0389
  325MOL0     H43874   4.698   5.911   8.525 -1.3563  2.1185 -3.4092
  325MOL0     H43875   4.521   5.898   8.546 -1.3772 -0.5792 -2.5755
  326MOL0     O43876   0.534  10.948   3.892  0.0601  0.8648  0.3198
  326MOL0     C43877   0.527  11.014   3.994  1.1971  0.2733 -0.1304
  326MOL0     O43878   0.579  10.975   4.116  0.0340 -0.4331  0.1116
  326MOL0     C43879   0.608  10.837   4.115  0.9208 -0.1502 -0.9718
  326MOL0     C43880   0.522  10.737   4.169  0.5293  0.8518 -0.1448
  326MOL0     C43881   0.560  10.606   4.200  0.1694 -0.6331 -0.2025
  326MOL0     C43882   0.696  10.570   4.173 -0.1634  1.0796 -0.3394
  326MOL0     O43883   0.753  10.445   4.204 -0.0404 -0.2549  0.0727
  326MOL0     C43884   0.686  10.369   4.312  0.8510 -0.9689  0.4674
  326MOL0     C43885   0.668  10.445   4.450 -0.1554  0.4336 -0.1582
  326MOL0     C43886   0.799  10.494   4.526 -0.3624  0.4747 -0.1325
  326MOL0     C43887   0.922  10.511   4.429 -0.1844 -0.4391 -0.1419
  326MOL0     C43888   1.065  10.531   4.490 -0.3499 -0.1193 -0.3206
  326MOL0     C43889   1.130  10.638   4.408  1.1327  0.1616 -0.2940
  326MOL0     C43890   1.262  10.671   4.466 -0.4342  0.0760  0.1895
  326MOL0     C43891   1.335  10.767   4.367 -0.1901  0.0239  1.5634
  326MOL0     N43892   1.449  10.819   4.428 -0.9557 -0.4057  0.0469
  326MOL0     C43893   1.575  10.762   4.402 -0.5488 -0.4436 -1.1262
  326MOL0     C43894   1.646  10.773   4.517 -0.0149 -0.5113  0.5915
  326MOL0     C43895   1.785  10.738   4.545 -0.1521  0.0860 -0.2226
  326MOL0     C43896   1.815  10.587   4.543  0.3612 -0.1397  0.9661
  326MOL0     C43897   1.705  10.505   4.611 -0.9242 -0.3056  0.5649
  326MOL0     C43898   1.719  10.354   4.576  0.1672 -0.6237  0.4248
  326MOL0     O43899   1.830  10.283   4.632  0.1319  0.4848 -0.3485
  326MOL0     C43900   1.822  10.146   4.614 -0.4502 -0.3399 -0.0097
  326MOL0     C43901   1.710  10.057   4.619  0.1035 -0.4017  0.3911
  326MOL0     C43902   1.728   9.920   4.627  0.3194  0.2180  0.1682
  326MOL0     C43903   1.859   9.861   4.604  0.3487 -0.4519 -0.7161
  326MOL0     C43904   1.868   9.716   4.615 -0.0738  0.5004  1.0757
  326MOL0     O43905   1.783   9.645   4.697  0.3968  0.7197 -0.1540
  326MOL0     C43906   1.778   9.517   4.669 -0.8459 -0.4217  0.3387
  326MOL0     C43907   1.829   9.424   4.756 -0.3677 -0.3084 -0.6956
  326MOL0     C43908   1.832   9.289   4.717 -0.1403  0.5837  0.3664
  326MOL0     C43909   1.787   9.241   4.594  1.0660  0.5248  0.4089
  326MOL0     O43910   1.790   9.101   4.573 -0.3080 -0.6534  1.3795
  326MOL0     C43911   1.694   9.045   4.478  0.5113 -0.4667 -0.4305
  326MOL0     C43912   1.571   8.988   4.561 -0.7988  0.9095  0.9605
  326MOL0     C43913   1.444   8.975   4.490  0.0438  0.0201 -0.4188
  326MOL0     C43914   1.352   8.879   4.561  0.5257  0.1964 -0.6768
  326MOL0     C43915   1.213   8.867   4.484 -1.2469  0.0744 -0.2766
  326MOL0     C43916   1.118   8.772   4.551  0.2470  0.6621 -0.1915
  326MOL0     C43917   0.990   8.741   4.468  0.0104 -0.7885 -0.6989
  326MOL0     C43918   1.010   8.687   4.327  0.4628  0.5921  0.1591
  326MOL0    Cl43919   0.849   8.633   4.249 -0.2169 -0.0269  0.5691
  326MOL0     C43920   1.734   9.339   4.511  0.3819  0.5825  0.1762
  326MOL0     C43921   1.732   9.477   4.549  1.3857 -0.6928  0.5139
  326MOL0     O43922   1.950   9.673   4.536  0.4419  0.4416  0.0760
  326MOL0     C43923   1.966   9.947   4.582 -0.8936  0.0034 -0.2251
  326MOL0     C43924   1.945  10.087   4.588  0.7407  1.5837  0.7769
  326MOL0     N43925   1.570  10.853   4.608 -0.3217 -0.4234 -0.2349
  326MOL0     N43926   1.448  10.870   4.555  0.1630 -0.0087 -0.2696
  326MOL0     C43927   0.783  10.652   4.108  0.3232 -0.0403  0.1678
  326MOL0     C43928   0.741  10.784   4.081 -0.6545 -0.0253 -0.2725
  326MOL0     C43929   0.457  11.157   3.975 -0.4275  0.0569 -0.8341
  326MOL0     C43930   0.388  11.184   3.859 -0.0546 -0.4858  0.1737
  326MOL0     C43931   0.315  11.297   3.845 -0.5537 -0.7386 -0.3679
  326MOL0     C43932   0.314  11.398   3.951  0.3497 -1.0167 -0.1367
  326MOL0     O43933   0.241  11.512   3.920 -0.6821 -0.4734 -0.0183
  326MOL0     C43934   0.211  11.597   4.033  0.9663  1.0690  0.1795
  326MOL0     C43935   0.115  11.525   4.141  0.0658  0.2990 -0.1502
  326MOL0     C43936  -0.017  11.488   4.081 -0.0536  0.1547  0.6018
  326MOL0     C43937  -0.140  11.526   4.156 -0.0880  0.3728 -0.7209
  326MOL0     C43938  -0.162  11.667   4.148 -0.5851 -0.4665  0.1890
  326MOL0     C43939  -0.190  11.785   4.112 -0.2535 -0.4473 -0.5562
  326MOL0     C43940   0.382  11.373   4.071 -0.0140  0.0030  0.3929
  326MOL0     C43941   0.454  11.249   4.085  0.2950  0.4744 -0.6527
  326MOL0     C43942   0.525  11.236   4.219 -0.3787  0.5841 -0.5007
  326MOL0     H43943   0.416  10.760   4.179 -1.0501 -4.0682 -2.1909
  326MOL0     H43944   0.480  10.546   4.242 -3.2990  5.3024  3.0290
  326MOL0     H43945   0.588  10.337   4.276 -0.2021  1.5345  0.9356
  326MOL0     H43946   0.742  10.276   4.327  0.7920 -0.9875  0.5746
  326MOL0     H43947   0.612  10.377   4.515 -2.6540 -1.3870 -3.8514
  326MOL0     H43948   0.616  10.539   4.430  3.3477  2.5129 -0.3865
  326MOL0     H43949   0.815  10.403   4.584 -1.8641 -0.2343 -0.7735
  326MOL0     H43950   0.781  10.582   4.588  0.2098  0.3770  0.1749
  326MOL0     H43951   0.924  10.418   4.372 -1.2494 -0.2358 -0.5312
  326MOL0     H43952   0.897  10.596   4.365  0.9620  0.3642  0.4304
  326MOL0     H43953   1.057  10.558   4.596  2.8046 -2.4748  0.6878
  326MOL0     H43954   1.109  10.431   4.482 -1.8127 -0.7182 -1.3785
  326MOL0     H43955   1.147  10.586   4.314 -3.3112 -0.9784 -0.6986
  326MOL0     H43956   1.061  10.723   4.411  2.1052  0.9454  1.2391
  326MOL0     H43957   1.322  10.582   4.486  2.1380  1.1214 -2.1537
  326MOL0     H43958   1.256  10.710   4.567  1.5165  0.6789  0.1244
  326MOL0     H43959   1.357  10.721   4.270 -2.6795  1.2052  0.3342
  326MOL0     H43960   1.267  10.850   4.346  1.3382  0.7369 -1.1017
  326MOL0     H43961   1.620  10.710   4.318 -2.7834 -0.8613 -2.1454
  326MOL0     H43962   1.847  10.785   4.468  0.7333 -0.0733  0.3775
  326MOL0     H43963   1.814  10.777   4.643  0.7308  4.7267 -2.0954
  326MOL0     H43964   1.836  10.559   4.440  1.0103  1.1483  0.7189
  326MOL0     H43965   1.904  10.573   4.604  2.4215 -0.9629 -2.0292
  326MOL0     H43966   1.607  10.543   4.582  0.4536  2.4261 -0.8867
  326MOL0     H43967   1.708  10.511   4.720 -2.7034  0.5471  0.5945
  326MOL0     H43968   1.719  10.333   4.469  0.0813 -2.1337  0.7051
  326MOL0     H43969   1.622  10.312   4.603  1.3175 -4.4913 -0.7556
  326MOL0     H43970   1.617  10.093   4.661 -0.2115 -1.3923  0.5542
  326MOL0     H43971   1.647   9.852   4.651  2.0605 -1.8383  0.5823
  326MOL0     H43972   1.868   9.466   4.848  1.8810 -3.3538 -0.1315
  326MOL0     H43973   1.868   9.207   4.778 -1.6416  0.8418  1.6728
  326MOL0     H43974   1.661   9.111   4.397  2.8878  1.9056  0.3969
  326MOL0     H43975   1.740   8.956   4.434 -1.2304 -1.3390 -0.5799
  326MOL0     H43976   1.596   8.885   4.587  3.1319  1.2466 -0.7774
  326MOL0     H43977   1.569   9.029   4.663  2.2277 -0.5804  1.7087
  326MOL0     H43978   1.390   9.070   4.493  0.1164  0.0721 -0.7994
  326MOL0     H43979   1.453   8.940   4.387  0.8404 -2.6017  0.4410
  326MOL0     H43980   1.341   8.928   4.659  0.1112  1.2596 -1.2469
  326MOL0     H43981   1.396   8.780   4.578 -3.3187 -1.9265 -1.9917
  326MOL0     H43982   1.227   8.820   4.387 -0.0631  2.0897 -1.1585
  326MOL0     H43983   1.162   8.962   4.464  2.2823  1.7695 -2.2983
  326MOL0     H43984   1.164   8.676   4.574  0.4397  0.5293 -1.0823
  326MOL0     H43985   1.093   8.813   4.649  1.8329  1.4192 -0.0858
  326MOL0     H43986   0.959   8.846   4.456 -2.7889 -1.3770  0.5705
  326MOL0     H43987   0.916   8.690   4.530 -0.0579 -0.2004 -0.2848
  326MOL0     H43988   1.045   8.766   4.261  1.0462  1.3812  1.3667
  326MOL0     H43989   1.076   8.600   4.326  1.3193  1.1566  1.9408
  326MOL0     H43990   1.724   9.304   4.409 -1.8560 -0.0094  0.5493
  326MOL0     H43991   1.697   9.556   4.482  2.0729 -0.0737  0.8699
  326MOL0     H43992   2.067   9.919   4.553 -0.7170  1.2244 -0.8753
  326MOL0     H43993   2.033  10.149   4.599  0.3902  1.8705  2.2712
  326MOL0     H43994   0.881  10.609   4.090  0.3591 -0.3221  0.9936
  326MOL0     H43995   0.825  10.849   4.056  0.5174 -2.0921 -2.0659
  326MOL0     H43996   0.377  11.114   3.777 -2.4866 -0.0359  0.0488
  326MOL0     H43997   0.277  11.323   3.747 -1.3469  2.1261  0.5983
  326MOL0     H43998   0.152  11.682   3.999 -1.0829 -0.9771 -1.7049
  326MOL0     H43999   0.305  11.639   4.071 -0.3322  3.1536  1.3033
  326MOL0     H44000   0.099  11.600   4.219  4.9775  0.8160  0.6919
  326MOL0     H44001   0.166  11.440   4.187  1.4825  0.7688 -0.8071
  326MOL0     H44002  -0.014  11.380   4.065 -1.1899  0.4432 -2.0399
  326MOL0     H44003  -0.030  11.532   3.981 -0.3236 -2.1431 -0.4322
  326MOL0     H44004  -0.220  11.459   4.119  0.1301 -0.6666  0.6323
  326MOL0     H44005  -0.125  11.497   4.260 -2.5060  2.5321  0.3283
  326MOL0     H44006  -0.207  11.889   4.091  0.1734 -0.2334  0.1120
  326MOL0     H44007   0.384  11.437   4.159 -2.5183 -0.2072  0.6639
  326MOL0     H44008   0.633  11.220   4.207 -0.4767  0.0062 -0.6646
  326MOL0     H44009   0.525  11.336   4.263 -0.2605  1.5149 -2.4625
  326MOL0     H44010   0.475  11.163   4.283  2.1397 -2.4115 -1.6980
  327MOL0     O44011   1.876   1.696   8.146 -0.1208 -0.4105 -0.0734
  327MOL0     C44012   1.787   1.660   8.216 -0.2068 -0.2487 -1.2195
  327MOL0     O44013   1.793   1.609   8.342  0.6629 -0.2316 -0.8087
  327MOL0     C44014   1.904   1.548   8.393  0.7240 -0.1915 -0.5405
  327MOL0     C44015   1.889   1.409   8.437 -0.6194  0.5717 -0.4529
  327MOL0     C44016   2.005   1.346   8.486  0.5987 -0.7809  1.2249
  327MOL0     C44017   2.118   1.418   8.520 -0.3859  0.5048  0.4521
  327MOL0     O44018   2.231   1.371   8.583  0.3176 -1.3988  0.2815
  327MOL0     C44019   2.227   1.268   8.685  0.1426  0.8814  0.9650
  327MOL0     C44020   2.341   1.267   8.784  0.2516  0.1414  0.1649
  327MOL0     C44021   2.409   1.401   8.820 -0.1115 -0.0242  0.1354
  327MOL0     C44022   2.528   1.388   8.913 -0.7757  0.1197  0.9169
  327MOL0     C44023   2.584   1.520   8.974 -0.3919 -0.4860 -0.4546
  327MOL0     C44024   2.730   1.500   8.997 -0.8231 -0.3340 -0.6562
  327MOL0     C44025   2.795   1.636   9.043  0.8728 -0.5057 -0.3923
  327MOL0     C44026   2.944   1.616   9.070 -0.4949  0.1631  0.1909
  327MOL0     N44027   3.017   1.556   8.958  0.6398 -0.1412  0.2103
  327MOL0     C44028   3.056   1.615   8.836 -0.0184  0.0639  1.2885
  327MOL0     C44029   3.111   1.524   8.757  0.0452  0.8028 -0.2866
  327MOL0     C44030   3.180   1.541   8.630  0.5825 -0.9658  0.5999
  327MOL0     C44031   3.299   1.444   8.591 -0.3447  0.1149 -0.5053
  327MOL0     C44032   3.354   1.463   8.451 -0.9128 -0.2632 -0.7262
  327MOL0     C44033   3.498   1.417   8.448 -0.6794 -0.8768 -0.8672
  327MOL0     O44034   3.544   1.394   8.308  0.5664  0.2848  0.1921
  327MOL0     C44035   3.682   1.381   8.287 -0.9632  1.4016  0.9155
  327MOL0     C44036   3.716   1.379   8.148 -0.0678  0.4143 -0.1143
  327MOL0     C44037   3.850   1.371   8.107  0.7970 -0.2314 -0.7327
  327MOL0     C44038   3.947   1.343   8.206 -0.9481 -0.1869  0.6281
  327MOL0     C44039   4.087   1.325   8.167  0.4828  0.2311  0.2125
  327MOL0     O44040   4.114   1.365   8.042 -0.0508 -0.6505  0.6313
  327MOL0     C44041   4.247   1.378   8.012 -0.2170 -0.4713  0.4187
  327MOL0     C44042   4.312   1.490   8.047  0.2205  0.5272  0.8008
  327MOL0     C44043   4.446   1.493   8.034  0.6130  0.6955  0.0530
  327MOL0     C44044   4.517   1.389   7.985 -0.8183  0.4759  0.5873
  327MOL0     O44045   4.657   1.389   7.979 -0.4140 -0.2094 -0.0301
  327MOL0     C44046   4.753   1.489   8.035 -0.5422 -0.2461 -0.2874
  327MOL0     C44047   4.896   1.425   8.061  0.4615 -0.0856  1.1161
  327MOL0     C44048   4.941   1.377   7.924 -0.6723  0.8804 -0.4779
  327MOL0     C44049   5.101   1.364   7.920  1.1177  0.0705 -0.2315
  327MOL0     C44050   5.137   1.287   7.796 -0.5586 -0.0769 -0.6022
  327MOL0     C44051   5.073   1.150   7.767  0.4572 -0.0098 -0.1741
  327MOL0     C44052   5.146   1.047   7.690  0.6256 -0.7589 -0.5620
  327MOL0     C44053   5.060   0.922   7.672 -0.7298 -0.4453 -0.4455
  327MOL0    Cl44054   4.965   0.947   7.530 -0.2207  0.2819 -0.0183
  327MOL0     C44055   4.449   1.286   7.932  0.0508 -0.0023 -0.1587
  327MOL0     C44056   4.311   1.274   7.949 -0.5507 -1.0457  0.3023
  327MOL0     O44057   4.165   1.274   8.251  0.4203 -0.6665  0.5427
  327MOL0     C44058   3.911   1.337   8.341 -0.0519 -0.4568 -0.7424
  327MOL0     C44059   3.778   1.348   8.379  0.8492 -1.0844 -0.3802
  327MOL0     N44060   3.088   1.396   8.820  0.1102 -0.4815  0.6785
  327MOL0     N44061   3.038   1.421   8.943  0.0810  0.9948  0.3455
  327MOL0     C44062   2.125   1.552   8.485  0.0610  0.0079 -0.6403
  327MOL0     C44063   2.024   1.615   8.420  0.3608 -0.7797 -0.0683
  327MOL0     C44064   1.657   1.688   8.154 -0.1990  0.4914  0.2921
  327MOL0     C44065   1.635   1.668   8.014  1.0329  0.0005 -0.3842
  327MOL0     C44066   1.493   1.688   7.971 -1.0998  0.7096 -0.2702
  327MOL0     C44067   1.389   1.740   8.049  0.2500  0.2360  0.9841
  327MOL0     O44068   1.250   1.742   8.019 -0.8347 -0.0415  0.8176
  327MOL0     C44069   1.229   1.745   7.878 -0.3439 -0.1398  0.0828
  327MOL0     C44070   1.249   1.882   7.829  0.0819  0.0807 -1.1435
  327MOL0     C44071   1.234   1.890   7.678  0.3228 -0.6822 -0.0176
  327MOL0     C44072   1.233   2.041   7.635 -0.0907 -0.6488  0.0882
  327MOL0     C44073   1.194   2.063   7.500 -0.6726 -0.1641  0.3847
  327MOL0     C44074   1.149   2.104   7.391 -0.3317  0.4482 -0.6763
  327MOL0     C44075   1.430   1.755   8.182  0.7324  0.9382  0.5892
  327MOL0     C44076   1.557   1.748   8.231 -0.0556 -0.4803 -0.1122
  327MOL0     C44077   1.584   1.791   8.382 -0.4120  0.8920 -0.0136
  327MOL0     H44078   1.794   1.355   8.432 -1.9290  2.2609  2.9568
  327MOL0     H44079   1.988   1.241   8.508 -0.7704 -0.5636  1.2864
  327MOL0     H44080   2.142   1.276   8.752 -1.3049 -2.4728 -0.2629
  327MOL0     H44081   2.226   1.169   8.640 -1.9531  2.2926 -2.4688
  327MOL0     H44082   2.421   1.196   8.759 -0.3382 -0.8104  0.9187
  327MOL0     H44083   2.299   1.237   8.880 -1.7616 -0.2554 -0.7941
  327MOL0     H44084   2.326   1.458   8.862 -0.2558  2.3141 -2.9822
  327MOL0     H44085   2.453   1.456   8.736  2.9096 -1.8617  0.3544
  327MOL0     H44086   2.501   1.329   9.001  0.4557 -1.8696  0.0084
  327MOL0     H44087   2.610   1.340   8.859 -1.7799 -1.1115  0.4527
  327MOL0     H44088   2.564   1.602   8.904 -2.3140 -0.3685  0.1812
  327MOL0     H44089   2.536   1.543   9.070  0.3016 -0.4326 -0.1131
  327MOL0     H44090   2.738   1.427   9.078  0.8158  2.8965  2.3944
  327MOL0     H44091   2.769   1.469   8.900  1.5776  2.2756 -0.6638
  327MOL0     H44092   2.735   1.652   9.132  1.2771 -2.4849  0.2871
  327MOL0     H44093   2.783   1.717   8.970  0.4119 -1.9936 -2.0456
  327MOL0     H44094   2.994   1.713   9.081  0.6427 -0.2761 -0.9307
  327MOL0     H44095   2.961   1.555   9.160  1.1760 -0.2306 -0.3612
  327MOL0     H44096   3.052   1.721   8.813 -0.7882  0.1243  1.6741
  327MOL0     H44097   3.100   1.527   8.557 -0.5541 -0.7977  1.7720
  327MOL0     H44098   3.218   1.643   8.627 -0.3522 -0.6200 -0.2150
  327MOL0     H44099   3.384   1.457   8.659 -0.4327  1.0929 -0.5808
  327MOL0     H44100   3.261   1.341   8.601  1.2290 -0.5867 -1.3838
  327MOL0     H44101   3.345   1.569   8.427 -0.2012  1.1266  4.0720
  327MOL0     H44102   3.305   1.393   8.383 -1.3861 -1.0998  0.4476
  327MOL0     H44103   3.498   1.323   8.504 -2.2020 -1.3324 -1.5849
  327MOL0     H44104   3.560   1.484   8.509  0.3435 -2.0771 -0.5368
  327MOL0     H44105   3.640   1.413   8.078  1.6342  2.1493 -1.2033
  327MOL0     H44106   3.872   1.379   8.001 -1.5416  0.5851 -1.2081
  327MOL0     H44107   4.271   1.584   8.084 -0.2029  1.1360 -1.1185
  327MOL0     H44108   4.492   1.585   8.067  3.0770 -1.1850  2.3307
  327MOL0     H44109   4.754   1.587   7.987  0.4551  0.3800  0.9306
  327MOL0     H44110   4.713   1.515   8.134  0.4625  1.9758 -0.4077
  327MOL0     H44111   4.959   1.496   8.116  2.4269  0.5108 -1.7077
  327MOL0     H44112   4.900   1.337   8.126 -1.6142 -0.7434  0.4473
  327MOL0     H44113   4.889   1.284   7.901  0.6929 -0.1079  0.2336
  327MOL0     H44114   4.912   1.431   7.834 -1.7196 -2.1459 -2.1107
  327MOL0     H44115   5.118   1.301   8.008  0.4877  2.0170  1.3542
  327MOL0     H44116   5.146   1.464   7.922 -0.9405  1.0492  1.3210
  327MOL0     H44117   5.246   1.279   7.808 -0.6237  2.3359  3.2553
  327MOL0     H44118   5.133   1.360   7.715  0.7455 -0.9500 -1.5036
  327MOL0     H44119   5.048   1.104   7.864 -1.2591 -2.6700 -1.7304
  327MOL0     H44120   4.979   1.160   7.712  1.3358  1.6487 -1.4428
  327MOL0     H44121   5.224   1.006   7.754 -0.8868  2.1170  3.5022
  327MOL0     H44122   5.174   1.084   7.591 -4.2692 -1.0202 -2.3438
  327MOL0     H44123   5.122   0.835   7.646 -1.3385 -1.0215  0.0168
  327MOL0     H44124   5.001   0.893   7.759 -2.5978  1.4305 -1.0005
  327MOL0     H44125   4.497   1.207   7.875 -0.1483 -0.2280 -0.0157
  327MOL0     H44126   4.260   1.188   7.908 -0.0975  0.1673 -3.0703
  327MOL0     H44127   3.991   1.309   8.409 -1.2880  1.6123  1.7091
  327MOL0     H44128   3.750   1.354   8.484 -0.3499 -0.6340 -0.7030
  327MOL0     H44129   2.219   1.603   8.505 -0.5931  1.1179 -0.3320
  327MOL0     H44130   2.045   1.721   8.409  1.1530 -1.1115 -2.2964
  327MOL0     H44131   1.710   1.631   7.944  1.8709  0.0001  0.4957
  327MOL0     H44132   1.490   1.658   7.867  0.1424  0.1585 -0.1646
  327MOL0     H44133   1.132   1.706   7.846  0.3298 -2.0654  0.2927
  327MOL0     H44134   1.298   1.682   7.821 -0.2533  0.1902 -0.1745
  327MOL0     H44135   1.352   1.911   7.850  0.1481  1.3172 -2.9674
  327MOL0     H44136   1.181   1.952   7.878 -0.8577  0.1931 -2.5419
  327MOL0     H44137   1.140   1.844   7.644  0.7308 -0.2597 -1.8130
  327MOL0     H44138   1.316   1.842   7.623  0.2199  0.4628 -1.2250
  327MOL0     H44139   1.167   2.111   7.688 -2.7847 -2.5318 -0.5650
  327MOL0     H44140   1.329   2.090   7.654  0.4022 -2.1931  1.9683
  327MOL0     H44141   1.109   2.139   7.298 -0.3451  1.5615 -0.2654
  327MOL0     H44142   1.341   1.780   8.240 -1.6843  0.8904 -2.7922
  327MOL0     H44143   1.496   1.845   8.420  0.7892  2.7734  0.2504
  327MOL0     H44144   1.603   1.710   8.453 -1.8522  0.3745 -0.1759
  327MOL0     H44145   1.664   1.863   8.400 -0.6792  0.9051  1.2044
  328MOL0     O44146  10.483   1.790   4.451 -0.5870  0.1461  0.2080
  328MOL0     C44147  10.530   1.810   4.558  0.4956  0.0119 -0.1079
  328MOL0     O44148  10.526   1.721   4.668  0.6453  0.5425 -0.0775
  328MOL0     C44149  10.424   1.632   4.677  1.0946  0.1270  0.9337
  328MOL0     C44150  10.295   1.653   4.629  0.3948 -0.7201  0.4674
  328MOL0     C44151  10.196   1.554   4.637 -0.1101  0.3170 -0.1944
  328MOL0     C44152  10.218   1.433   4.697  0.2238  0.6533  0.0061
  328MOL0     O44153  10.124   1.331   4.720 -0.3141 -0.6251  0.0072
  328MOL0     C44154   9.994   1.337   4.651  0.3379 -0.8325  0.1734
  328MOL0     C44155  10.002   1.289   4.507 -0.7853  0.3221  0.7184
  328MOL0     C44156   9.882   1.334   4.410 -0.2315  0.1310  0.1062
  328MOL0     C44157   9.853   1.223   4.309  0.3268 -0.2164 -0.4737
  328MOL0     C44158   9.722   1.262   4.228  0.7257 -0.1691 -0.1124
  328MOL0     C44159   9.662   1.152   4.141  0.5073 -0.7422  0.2032
  328MOL0     C44160   9.740   1.120   4.005 -0.4032 -0.3796 -0.0781
  328MOL0     C44161   9.681   1.207   3.895  0.0195  0.4044 -0.0386
  328MOL0     N44162   9.739   1.179   3.764  0.3226  0.1407  0.2656
  328MOL0     C44163   9.861   1.212   3.733  0.2406 -0.8117 -0.2231
  328MOL0     C44164   9.893   1.151   3.615  0.2438 -0.0389  0.3471
  328MOL0     C44165  10.039   1.154   3.564  0.4544 -0.2785  0.5008
  328MOL0     C44166  10.120   1.040   3.621 -0.2514 -0.2747 -0.2456
  328MOL0     C44167  10.080   0.907   3.539  0.2640  0.4397 -0.8081
  328MOL0     C44168  10.131   0.913   3.396 -0.0373  0.5744 -0.3058
  328MOL0     O44169  10.270   0.938   3.383 -0.4391 -1.1580  0.0828
  328MOL0     C44170  10.353   0.834   3.379 -0.2828 -0.6446  0.3025
  328MOL0     C44171  10.483   0.869   3.329  0.7811  0.0940  0.0137
  328MOL0     C44172  10.583   0.764   3.300 -1.6712 -1.0213  0.3363
  328MOL0     C44173  10.553   0.632   3.341 -0.9998 -0.3836  0.1124
  328MOL0     C44174  10.657   0.526   3.335 -0.1194  0.3812 -0.1184
  328MOL0     O44175  10.609   0.408   3.376 -0.7001 -0.3996  0.6561
  328MOL0     C44176  10.696   0.298   3.370  0.0137  0.3565  1.2899
  328MOL0     C44177  10.650   0.182   3.441  0.8387 -0.0905 -0.2973
  328MOL0     C44178  10.731   0.060   3.438  0.4268 -0.5822  0.2753
  328MOL0     C44179  10.858   0.051   3.377 -0.7706  0.4129 -0.4734
  328MOL0     O44180  10.924  -0.071   3.392 -0.0413  0.5027  0.1721
  328MOL0     C44181  11.054  -0.101   3.326 -1.5817 -0.1645 -0.1973
  328MOL0     C44182  11.086  -0.248   3.370  0.1183  0.0582  0.1684
  328MOL0     C44183  11.211  -0.301   3.300 -0.3262 -0.1810  0.5790
  328MOL0     C44184  11.182  -0.348   3.159 -0.8051  0.3954  0.7967
  328MOL0     C44185  11.315  -0.413   3.091  0.9147  0.6678  0.0153
  328MOL0     C44186  11.286  -0.522   2.978 -0.3329  0.1577  0.2710
  328MOL0     C44187  11.398  -0.546   2.875 -0.3183  0.6794 -0.6866
  328MOL0     C44188  11.388  -0.673   2.794 -0.1201 -0.8681  0.4915
  328MOL0    Cl44189  11.410  -0.809   2.909  0.2403 -0.4519  0.0816
  328MOL0     C44190  10.899   0.159   3.312 -0.7614  0.0250 -0.4007
  328MOL0     C44191  10.823   0.280   3.308  0.4262 -0.9604 -0.6401
  328MOL0     O44192  10.773   0.567   3.324 -0.8574 -0.2076  0.5905
  328MOL0     C44193  10.425   0.601   3.376 -0.1447  0.4659 -0.3157
  328MOL0     C44194  10.325   0.699   3.405  0.4989  0.5126  0.8447
  328MOL0     N44195   9.781   1.089   3.568  0.0578 -0.6396  0.3318
  328MOL0     N44196   9.689   1.108   3.657  0.4663  0.8792 -0.8132
  328MOL0     C44197  10.347   1.411   4.748  0.4598  0.0619  0.5156
  328MOL0     C44198  10.448   1.515   4.736  0.0942  0.5538  0.2452
  328MOL0     C44199  10.642   1.912   4.570  0.7436  0.1591  0.5296
  328MOL0     C44200  10.752   1.885   4.655  0.5109  0.6320  0.2110
  328MOL0     C44201  10.870   1.955   4.649 -0.6535  0.1719 -0.1878
  328MOL0     C44202  10.867   2.068   4.569 -0.4183 -0.3704  0.0281
  328MOL0     O44203  10.957   2.168   4.559 -0.1130 -1.0899 -0.4096
  328MOL0     C44204  11.056   2.184   4.666 -0.6626  0.8190 -0.4967
  328MOL0     C44205  11.193   2.143   4.613  0.5182 -0.0862  0.0602
  328MOL0     C44206  11.241   2.196   4.468  0.0106  1.1421  1.2153
  328MOL0     C44207  11.219   2.341   4.440 -0.0714 -0.4522  0.1470
  328MOL0     C44208  11.345   2.401   4.402  0.7165  0.2809  0.6356
  328MOL0     C44209  11.459   2.439   4.373  0.7583  0.1519  0.2162
  328MOL0     C44210  10.745   2.111   4.513 -1.0977 -0.6870  0.1928
  328MOL0     C44211  10.633   2.025   4.491 -0.2078  0.3214 -0.3063
  328MOL0     C44212  10.532   2.060   4.388 -0.2761  0.5626 -0.9093
  328MOL0     H44213  10.266   1.750   4.590 -3.0217 -3.5871 -5.5266
  328MOL0     H44214  10.093   1.582   4.615 -0.8619 -0.6441  1.7971
  328MOL0     H44215   9.928   1.276   4.714  1.0734  1.6296  3.6249
  328MOL0     H44216   9.952   1.438   4.657  2.4498  0.0112  2.2873
  328MOL0     H44217  10.006   1.180   4.518 -1.7435  0.3978  2.0806
  328MOL0     H44218  10.088   1.330   4.454  0.0952 -1.7246  0.4479
  328MOL0     H44219   9.920   1.421   4.355  1.7288 -0.7320  0.0133
  328MOL0     H44220   9.794   1.349   4.473 -2.1072 -1.5633 -1.9444
  328MOL0     H44221   9.936   1.192   4.246 -1.4706 -0.5594 -2.8111
  328MOL0     H44222   9.841   1.130   4.366  0.0340 -1.6143 -2.6781
  328MOL0     H44223   9.646   1.288   4.303 -2.2482 -1.3470 -2.4770
  328MOL0     H44224   9.736   1.345   4.157  0.3630 -1.6421 -1.9840
  328MOL0     H44225   9.635   1.058   4.191 -2.5885 -0.4776 -0.7397
  328MOL0     H44226   9.568   1.199   4.110  2.1543  1.0490 -2.4854
  328MOL0     H44227   9.715   1.018   3.975 -1.2179 -0.0749 -0.4653
  328MOL0     H44228   9.848   1.135   4.005 -0.4376 -0.1035 -0.5478
  328MOL0     H44229   9.573   1.202   3.875  0.3643  1.6811 -2.5915
  328MOL0     H44230   9.697   1.312   3.922  0.3654  0.2635  0.3308
  328MOL0     H44231   9.928   1.265   3.800  1.2101  1.2039 -2.6248
  328MOL0     H44232  10.056   1.156   3.456 -0.1621 -1.6388  0.3536
  328MOL0     H44233  10.073   1.250   3.603 -1.6588 -0.0579  1.9616
  328MOL0     H44234  10.227   1.064   3.621 -0.7224  2.0382  0.5640
  328MOL0     H44235  10.089   1.027   3.725 -2.3124 -0.7185 -0.8695
  328MOL0     H44236   9.974   0.883   3.547  0.2314 -0.4715 -3.1546
  328MOL0     H44237  10.127   0.822   3.589  0.2627 -0.4157 -2.2178
  328MOL0     H44238  10.080   0.992   3.340 -2.3595 -0.3926  0.3003
  328MOL0     H44239  10.105   0.820   3.344 -1.2365  1.2193 -0.9063
  328MOL0     H44240  10.476   0.975   3.309 -0.2321  0.1269  0.4780
  328MOL0     H44241  10.683   0.798   3.274 -2.3206  0.1868 -0.6867
  328MOL0     H44242  10.559   0.189   3.500 -0.4715 -3.2914 -1.7298
  328MOL0     H44243  10.699  -0.036   3.477  4.1591 -3.3217 -2.6301
  328MOL0     H44244  11.034  -0.095   3.218 -2.9318 -0.3137  0.0192
  328MOL0     H44245  11.138  -0.035   3.347 -0.1639 -2.0006  0.1936
  328MOL0     H44246  11.107  -0.241   3.477  2.3034  1.8336 -0.3062
  328MOL0     H44247  11.013  -0.328   3.356  0.0040  0.1871  0.0393
  328MOL0     H44248  11.290  -0.225   3.308  0.0782 -0.3304 -1.5617
  328MOL0     H44249  11.244  -0.387   3.359 -2.5989 -1.5040  0.0047
  328MOL0     H44250  11.150  -0.272   3.087 -2.5695 -1.5914 -0.6473
  328MOL0     H44251  11.110  -0.430   3.158  0.4236 -0.7948 -2.5381
  328MOL0     H44252  11.383  -0.468   3.156 -0.7159 -1.0392  0.3639
  328MOL0     H44253  11.373  -0.337   3.038  0.0579  0.3623 -1.4270
  328MOL0     H44254  11.251  -0.618   3.016  0.3247  0.1402  0.8613
  328MOL0     H44255  11.206  -0.481   2.917 -0.6824 -1.3801 -0.3458
  328MOL0     H44256  11.497  -0.532   2.918  0.6268 -1.1133 -2.1334
  328MOL0     H44257  11.396  -0.474   2.793  4.3737  0.3463 -1.3479
  328MOL0     H44258  11.295  -0.679   2.738 -0.3148  0.2309  0.6583
  328MOL0     H44259  11.467  -0.672   2.719 -2.2680  0.5031 -1.8998
  328MOL0     H44260  10.993   0.147   3.259 -0.6488  0.7593 -0.3872
  328MOL0     H44261  10.870   0.367   3.263  1.1065 -1.5930 -1.1708
  328MOL0     H44262  10.387   0.502   3.397 -1.5405  0.4980 -2.3967
  328MOL0     H44263  10.232   0.658   3.442  1.2416 -1.5617  0.5105
  328MOL0     H44264  10.356   1.314   4.795 -1.4333  1.0652  3.1299
  328MOL0     H44265  10.547   1.498   4.778  0.1130 -1.2081 -0.4397
  328MOL0     H44266  10.749   1.810   4.733  0.2320  1.5427  1.0966
  328MOL0     H44267  10.948   1.927   4.720 -3.2001 -1.8681  2.0498
  328MOL0     H44268  11.034   2.118   4.751  1.2696  0.8529  0.0928
  328MOL0     H44269  11.054   2.282   4.714 -4.6498  1.3680 -1.4863
  328MOL0     H44270  11.196   2.034   4.621 -2.7725 -0.2107  1.3464
  328MOL0     H44271  11.268   2.184   4.681  0.3370 -1.6645  1.2565
  328MOL0     H44272  11.198   2.138   4.386 -2.8222  3.4157  0.9612
  328MOL0     H44273  11.346   2.165   4.455  0.4055  2.2057  1.7254
  328MOL0     H44274  11.142   2.352   4.362  1.0683  1.1118 -0.8192
  328MOL0     H44275  11.196   2.393   4.534 -0.8431 -0.7497  0.1313
  328MOL0     H44276  11.559   2.464   4.341  0.4879 -0.2209 -0.9662
  328MOL0     H44277  10.749   2.213   4.476  0.2503 -1.5308 -2.2795
  328MOL0     H44278  10.535   1.994   4.301 -0.9969 -2.1216  0.9795
  328MOL0     H44279  10.429   2.045   4.422 -0.0162 -1.5281 -0.9637
  328MOL0     H44280  10.537   2.168   4.368 -0.4040  0.9741  1.0182
  329MOL0     O44281   0.672   8.897  10.170  0.3234 -0.1738  0.1068
  329MOL0     C44282   0.604   8.817  10.240  0.5072  0.1390  0.0331
  329MOL0     O44283   0.503   8.858  10.331 -0.4181 -0.1681  0.3515
  329MOL0     C44284   0.500   8.991  10.371 -1.3498 -0.2350  0.6309
  329MOL0     C44285   0.453   9.093  10.281 -0.5979 -0.8929  0.9048
  329MOL0     C44286   0.465   9.231  10.306  0.0068 -0.3687 -0.8672
  329MOL0     C44287   0.532   9.270  10.425  0.2466 -0.2740 -0.4691
  329MOL0     O44288   0.543   9.404  10.444 -0.3973  0.2109 -0.3628
  329MOL0     C44289   0.546   9.447  10.581  0.2651  0.0912  0.9479
  329MOL0     C44290   0.430   9.411  10.677  0.4064  0.0386 -0.2741
  329MOL0     C44291   0.299   9.496  10.643 -0.4284 -0.1118 -0.4841
  329MOL0     C44292   0.165   9.458  10.702 -0.0847 -0.3609 -1.4180
  329MOL0     C44293   0.055   9.558  10.653  0.2549 -0.2897  0.0446
  329MOL0     C44294  -0.066   9.565  10.756 -0.1657 -0.4608  0.8840
  329MOL0     C44295  -0.032   9.625  10.889 -0.1722  0.5072  0.7543
  329MOL0     C44296  -0.164   9.653  10.973 -0.7436 -0.4445 -0.6257
  329MOL0     N44297  -0.124   9.731  11.096  0.6254 -0.4722  0.6635
  329MOL0     C44298  -0.119   9.680  11.226  0.5620 -0.1537 -0.0449
  329MOL0     C44299  -0.078   9.792  11.299 -0.1826 -0.0584 -0.7989
  329MOL0     C44300  -0.038   9.784  11.441 -1.2909 -0.2802  0.8573
  329MOL0     C44301   0.107   9.730  11.469  0.1274 -0.5508  0.7084
  329MOL0     C44302   0.206   9.816  11.381  1.0458  0.2033 -0.7538
  329MOL0     C44303   0.235   9.779  11.228 -0.2854  0.2362 -0.3825
  329MOL0     O44304   0.314   9.893  11.181 -0.4697  0.0909 -0.4605
  329MOL0     C44305   0.347   9.918  11.051  0.3264 -0.5632 -0.5643
  329MOL0     C44306   0.316   9.845  10.940 -0.4001  0.2349 -0.1103
  329MOL0     C44307   0.356   9.882  10.814 -0.1168 -0.4202 -1.4304
  329MOL0     C44308   0.420  10.005  10.795 -0.3031  1.2108 -0.1686
  329MOL0     C44309   0.458  10.047  10.663  0.0534  0.7132 -0.2457
  329MOL0     O44310   0.388   9.983  10.553 -0.2680 -0.3211  0.4208
  329MOL0     C44311   0.441  10.006  10.424  0.6232 -0.0521  0.2121
  329MOL0     C44312   0.467  10.141  10.362  0.0482  0.5703  0.4682
  329MOL0     C44313   0.506  10.150  10.226 -0.7209 -0.2031 -0.5920
  329MOL0     C44314   0.539  10.030  10.158 -0.1745  0.0975  0.4644
  329MOL0     O44315   0.606  10.027  10.040 -0.2653  0.5188  0.2094
  329MOL0     C44316   0.745  10.027  10.043  0.3867 -0.6705 -0.8299
  329MOL0     C44317   0.811  10.171  10.075  0.0047 -0.5357 -0.0177
  329MOL0     C44318   0.958  10.178  10.081 -0.6075 -0.4720  0.0039
  329MOL0     C44319   1.031  10.088  10.176  0.2479  0.1246  0.2307
  329MOL0     C44320   1.187  10.118  10.185  0.6227 -0.3629  0.1362
  329MOL0     C44321   1.260  10.093  10.057 -0.6137  0.1980  0.6499
  329MOL0     C44322   1.412  10.070  10.067  0.3239  0.6591  0.8921
  329MOL0     C44323   1.481  10.192  10.031  0.0775  0.8923  0.4213
  329MOL0    Cl44324   1.482  10.291  10.189  0.2612 -0.1603 -0.1020
  329MOL0     C44325   0.501   9.913  10.205 -0.3559 -0.0990  0.6964
  329MOL0     C44326   0.465   9.898  10.340  0.2958 -1.4646 -0.6718
  329MOL0     O44327   0.550  10.123  10.649 -0.2255 -0.3006 -0.0529
  329MOL0     C44328   0.444  10.075  10.911  0.8910  0.4298 -1.5136
  329MOL0     C44329   0.413  10.043  11.046 -0.0881  0.3101  0.8532
  329MOL0     N44330  -0.074   9.906  11.215 -1.0927 -0.8547 -0.4621
  329MOL0     N44331  -0.093   9.863  11.100  0.4282 -0.8807  0.4769
  329MOL0     C44332   0.578   9.168  10.517  0.2441 -0.0501 -0.5975
  329MOL0     C44333   0.553   9.030  10.495 -0.2045  0.0730 -0.0119
  329MOL0     C44334   0.640   8.670  10.236 -0.4589 -0.1737 -0.8318
  329MOL0     C44335   0.600   8.601  10.352 -0.6615  1.2156 -0.1939
  329MOL0     C44336   0.648   8.464  10.379  0.6524  1.0073 -0.2018
  329MOL0     C44337   0.726   8.401  10.283 -0.0804 -0.0916  0.3796
  329MOL0     O44338   0.746   8.270  10.292 -0.5420  0.1022 -0.3115
  329MOL0     C44339   0.767   8.204  10.421  0.5862  0.3000  0.7687
  329MOL0     C44340   0.905   8.228  10.464 -0.2924  0.4202 -0.4922
  329MOL0     C44341   1.016   8.171  10.368 -0.1046  0.4245  0.1616
  329MOL0     C44342   1.156   8.226  10.360  0.5110 -0.0086 -0.5206
  329MOL0     C44343   1.209   8.256  10.496  0.1999  0.2970  0.5512
  329MOL0     C44344   1.272   8.271  10.587 -0.0887  0.3120  0.4185
  329MOL0     C44345   0.759   8.467  10.159 -0.1259  0.3213  0.7159
  329MOL0     C44346   0.730   8.600  10.141  1.3390  0.8078 -0.3132
  329MOL0     C44347   0.796   8.662  10.015  0.2856  0.0994 -0.0550
  329MOL0     H44348   0.408   9.066  10.186  0.9192  0.6486 -0.3329
  329MOL0     H44349   0.432   9.315  10.245  1.7930  1.2246  0.2734
  329MOL0     H44350   0.639   9.411  10.626  1.7872  1.1308 -1.1744
  329MOL0     H44351   0.560   9.555  10.585  2.9281 -0.1778  0.5631
  329MOL0     H44352   0.461   9.433  10.780 -1.0772  4.1746 -0.5461
  329MOL0     H44353   0.399   9.308  10.655  0.2339  0.1771 -0.6879
  329MOL0     H44354   0.290   9.483  10.534  0.4950  1.2932 -0.7515
  329MOL0     H44355   0.321   9.601  10.664  0.4690 -0.0968 -1.4246
  329MOL0     H44356   0.148   9.355  10.669  0.2371 -0.5725 -0.9419
  329MOL0     H44357   0.179   9.458  10.810 -0.6165 -1.7031 -1.3228
  329MOL0     H44358   0.088   9.661  10.644  0.2700 -0.3225 -0.2999
  329MOL0     H44359   0.009   9.527  10.559 -3.1417 -2.7199  2.2299
  329MOL0     H44360  -0.143   9.625  10.708  1.1525 -0.0987 -0.8796
  329MOL0     H44361  -0.097   9.460  10.753  1.6998 -1.0956 -2.9057
  329MOL0     H44362   0.028   9.711  10.859  0.3525  0.7957  2.5251
  329MOL0     H44363   0.030   9.564  10.956  0.5890 -0.0651 -0.4368
  329MOL0     H44364  -0.236   9.707  10.911 -1.0691 -0.4486 -0.2566
  329MOL0     H44365  -0.215   9.561  11.006 -0.6952  0.6525  2.8860
  329MOL0     H44366  -0.131   9.576  11.256  2.7726 -1.0950 -2.0907
  329MOL0     H44367  -0.037   9.886  11.482 -0.0595  0.3055 -0.5524
  329MOL0     H44368  -0.110   9.723  11.496 -2.5123 -0.3402 -0.7489
  329MOL0     H44369   0.132   9.756  11.572  1.7561  2.4365 -0.3298
  329MOL0     H44370   0.122   9.623  11.449 -2.4980 -0.2594 -4.3982
  329MOL0     H44371   0.300   9.809  11.437  0.6177 -1.8411 -0.2123
  329MOL0     H44372   0.193   9.924  11.389  2.9113  0.5996 -2.3771
  329MOL0     H44373   0.138   9.768  11.180 -0.0843  2.1861 -1.3291
  329MOL0     H44374   0.281   9.680  11.223 -1.0374 -0.0525 -3.0567
  329MOL0     H44375   0.258   9.753  10.933 -2.7700  1.7338 -1.6594
  329MOL0     H44376   0.331   9.828  10.724 -1.2144 -0.1093 -1.3285
  329MOL0     H44377   0.449  10.228  10.425  1.4395  3.6084 -2.9590
  329MOL0     H44378   0.537  10.249  10.194  0.3110 -0.5782 -0.7769
  329MOL0     H44379   0.775   9.954  10.120 -2.2858 -1.5981 -0.5257
  329MOL0     H44380   0.782   9.986   9.949  2.8658  0.4233 -0.3992
  329MOL0     H44381   0.760  10.237  10.004  0.0071 -1.0575 -0.5033
  329MOL0     H44382   0.787  10.190  10.180  1.5824  4.1674 -0.2493
  329MOL0     H44383   1.004  10.157   9.984  1.6639 -1.6038  1.2376
  329MOL0     H44384   0.981  10.277  10.123  0.0973 -0.5152 -0.2735
  329MOL0     H44385   1.015   9.984  10.146  1.2669  0.1353 -0.4100
  329MOL0     H44386   0.994  10.088  10.279  0.4608 -1.6033  0.3338
  329MOL0     H44387   1.230  10.044  10.254 -1.6600 -2.3029 -0.3921
  329MOL0     H44388   1.198  10.218  10.227  0.2431 -0.2389 -0.0551
  329MOL0     H44389   1.217  10.002  10.013 -0.0816  0.8052 -1.2451
  329MOL0     H44390   1.229  10.173   9.990  1.7202  0.5316 -0.1259
  329MOL0     H44391   1.441   9.982  10.010 -0.9658  0.6349  0.2312
  329MOL0     H44392   1.426  10.050  10.174 -0.1481  2.4956  1.3308
  329MOL0     H44393   1.577  10.160   9.989  0.1306  2.3182 -0.6186
  329MOL0     H44394   1.423  10.246   9.956  0.1832 -0.0605 -0.3806
  329MOL0     H44395   0.524   9.823  10.148 -0.0486 -0.9541  2.1155
  329MOL0     H44396   0.458   9.809  10.401  1.3850 -0.7995  0.4921
  329MOL0     H44397   0.487  10.174  10.902 -1.0717  1.2841 -2.1450
  329MOL0     H44398   0.442  10.115  11.122  3.8423  2.3950 -2.2011
  329MOL0     H44399   0.630   9.189  10.611  0.1728 -0.5902 -0.4365
  329MOL0     H44400   0.578   8.946  10.559 -0.1149 -1.6057 -2.0925
  329MOL0     H44401   0.529   8.651  10.417 -1.2129 -2.0442  1.8993
  329MOL0     H44402   0.609   8.414  10.467  0.9543 -1.3705 -1.3456
  329MOL0     H44403   0.763   8.095  10.409 -0.4226  0.3629  0.3982
  329MOL0     H44404   0.692   8.223  10.498 -1.7755  0.4324 -1.4115
  329MOL0     H44405   0.917   8.183  10.563  3.1675  0.9882 -0.5149
  329MOL0     H44406   0.916   8.336  10.478  1.9295  0.0244  1.6299
  329MOL0     H44407   0.986   8.170  10.263  0.8008 -0.8551 -0.1129
  329MOL0     H44408   1.028   8.063  10.380  0.2832  0.6428  2.0830
  329MOL0     H44409   1.228   8.155  10.318  0.2677 -0.4456 -0.2028
  329MOL0     H44410   1.151   8.318  10.301 -2.0655  1.6426  2.0095
  329MOL0     H44411   1.315   8.270  10.685 -0.1203 -1.5256  0.4558
  329MOL0     H44412   0.829   8.409  10.100 -3.1780 -1.2825 -1.6235
  329MOL0     H44413   0.727   8.693   9.936  0.6523  1.7431  0.2283
  329MOL0     H44414   0.849   8.753  10.046 -0.5528  0.3217  0.7774
  329MOL0     H44415   0.874   8.594   9.981  2.6973  0.4906  3.9948
  330MOL0     O44416   1.264   0.777   5.455  0.1916  0.1588  0.1912
  330MOL0     C44417   1.223   0.856   5.367  0.1036  0.4335  0.5354
  330MOL0     O44418   1.137   0.826   5.268 -0.1591 -0.5043  0.5167
  330MOL0     C44419   1.079   0.705   5.274 -0.5665  0.1272 -0.5197
  330MOL0     C44420   0.991   0.677   5.379 -0.1938 -0.6049  0.7437
  330MOL0     C44421   0.918   0.553   5.374 -0.6303 -1.3240 -0.1563
  330MOL0     C44422   0.918   0.461   5.271 -0.8942  1.0454  0.1271
  330MOL0     O44423   0.848   0.346   5.251  0.1582  0.4037  0.1891
  330MOL0     C44424   0.795   0.299   5.377 -0.9124 -0.0087  0.4166
  330MOL0     C44425   0.763   0.144   5.355 -0.8567 -0.3721 -0.4554
  330MOL0     C44426   0.702   0.078   5.480  0.5777 -1.2152 -1.1340
  330MOL0     C44427   0.616   0.161   5.585 -0.2350  1.0317  0.1825
  330MOL0     C44428   0.481   0.088   5.607  0.1872  0.3280  0.7631
  330MOL0     C44429   0.420   0.132   5.743 -0.0319  0.1496 -0.0336
  330MOL0     C44430   0.271   0.131   5.739  1.0276 -1.1961 -0.0704
  330MOL0     C44431   0.203   0.281   5.722  0.6551  1.2731 -0.1534
  330MOL0     N44432   0.055   0.263   5.716 -0.2883  0.7600 -0.3718
  330MOL0     C44433  -0.034   0.282   5.612  0.5126 -0.3938 -0.1939
  330MOL0     C44434  -0.152   0.251   5.659  0.6570  1.1686  0.0645
  330MOL0     C44435  -0.277   0.234   5.579  0.4450 -0.4698  0.6941
  330MOL0     C44436  -0.327   0.375   5.542  0.4312 -0.0574  0.6827
  330MOL0     C44437  -0.458   0.370   5.461 -0.5190  0.0104 -0.0158
  330MOL0     C44438  -0.425   0.307   5.320  0.6148  0.2569  0.8608
  330MOL0     O44439  -0.546   0.302   5.245  0.3591  0.1638 -0.0919
  330MOL0     C44440  -0.543   0.247   5.123 -0.2547  0.0674  0.9976
  330MOL0     C44441  -0.433   0.197   5.056 -0.1813 -0.2230  0.1672
  330MOL0     C44442  -0.455   0.139   4.929 -1.2952 -0.5683  0.7439
  330MOL0     C44443  -0.574   0.114   4.865 -0.3540 -0.4756  0.0495
  330MOL0     C44444  -0.586   0.043   4.736 -0.6397 -0.1263  0.7821
  330MOL0     O44445  -0.465   0.012   4.670 -0.2617  0.0657 -0.2330
  330MOL0     C44446  -0.475  -0.027   4.542  0.5438 -0.5125  0.6835
  330MOL0     C44447  -0.480   0.062   4.438  0.5925  0.0948  0.1796
  330MOL0     C44448  -0.497   0.015   4.305  0.5713  0.6060  0.7037
  330MOL0     C44449  -0.488  -0.127   4.280  0.1954 -0.7043  0.6092
  330MOL0     O44450  -0.508  -0.196   4.162  0.4850  0.2267 -0.0532
  330MOL0     C44451  -0.510  -0.119   4.044  0.9689 -0.5324 -0.3598
  330MOL0     C44452  -0.493  -0.211   3.930 -0.1095  0.3173  0.3560
  330MOL0     C44453  -0.343  -0.248   3.915  0.3621 -0.0597  0.4992
  330MOL0     C44454  -0.314  -0.339   3.785  0.1323 -0.0280  0.1600
  330MOL0     C44455  -0.163  -0.368   3.759 -0.7878 -0.0810 -0.5067
  330MOL0     C44456  -0.105  -0.305   3.631  0.0611 -0.1097  0.3856
  330MOL0     C44457   0.042  -0.351   3.631 -0.1355  0.1728  0.8544
  330MOL0     C44458   0.112  -0.309   3.506 -0.3384  0.2489  1.2442
  330MOL0    Cl44459   0.039  -0.377   3.368 -0.1735 -0.0622  0.7649
  330MOL0     C44460  -0.502  -0.214   4.389 -0.5643 -0.2240  0.9403
  330MOL0     C44461  -0.493  -0.161   4.517 -0.7105 -0.7664  0.1027
  330MOL0     O44462  -0.698   0.027   4.705 -0.0965 -0.1394  0.6254
  330MOL0     C44463  -0.677   0.177   4.932  0.5585 -0.5523 -0.2416
  330MOL0     C44464  -0.662   0.236   5.056  0.5726 -0.7579 -0.3216
  330MOL0     N44465  -0.137   0.219   5.791 -0.3065  0.5252  0.6622
  330MOL0     N44466  -0.012   0.236   5.830  0.3927  0.1310  0.4780
  330MOL0     C44467   1.004   0.504   5.163  0.9561 -1.0391  0.0019
  330MOL0     C44468   1.085   0.619   5.171  0.5673 -0.3997  0.2472
  330MOL0     C44469   1.283   0.994   5.365  0.1180 -0.4618  0.2990
  330MOL0     C44470   1.293   1.072   5.245 -1.0823 -0.3037  0.1357
  330MOL0     C44471   1.375   1.183   5.245  0.1050 -0.9148  0.4145
  330MOL0     C44472   1.439   1.236   5.356  0.1271  0.0406  0.0443
  330MOL0     O44473   1.524   1.341   5.330  0.0272  0.1223  0.6778
  330MOL0     C44474   1.612   1.392   5.434 -0.1183 -0.8182  0.2256
  330MOL0     C44475   1.735   1.293   5.464  0.1160 -0.4726  0.3041
  330MOL0     C44476   1.833   1.358   5.546 -0.4048 -0.7166  0.3550
  330MOL0     C44477   1.797   1.373   5.697 -0.2906 -0.7845  1.5026
  330MOL0     C44478   1.772   1.237   5.750 -0.5709  0.1140  0.2086
  330MOL0     C44479   1.771   1.115   5.776 -1.4770  0.0304  0.8641
  330MOL0     C44480   1.428   1.158   5.468 -0.5832 -0.6572 -0.4047
  330MOL0     C44481   1.350   1.041   5.478 -0.5314 -0.4612 -0.6247
  330MOL0     C44482   1.343   0.971   5.622 -0.0625  0.5127 -0.2882
  330MOL0     H44483   0.983   0.736   5.470  0.6783  0.4827  0.1371
  330MOL0     H44484   0.853   0.540   5.460 -0.7888  3.6192  0.7540
  330MOL0     H44485   0.878   0.312   5.447  1.9646  1.4102 -2.9279
  330MOL0     H44486   0.703   0.350   5.409 -2.0453 -1.4176 -0.4690
  330MOL0     H44487   0.861   0.104   5.326 -1.0713 -1.7370  0.5997
  330MOL0     H44488   0.703   0.133   5.265  0.5134 -2.4645 -1.1861
  330MOL0     H44489   0.792   0.054   5.538  0.7143  2.4345  0.4016
  330MOL0     H44490   0.645  -0.012   5.454 -3.8565  0.0048  2.9245
  330MOL0     H44491   0.671   0.171   5.679 -0.7287  0.9390  0.4847
  330MOL0     H44492   0.590   0.260   5.546 -0.6532  1.2860  1.0599
  330MOL0     H44493   0.417   0.115   5.523  1.0633 -0.1627 -0.0921
  330MOL0     H44494   0.497  -0.021   5.607 -2.2168 -0.1219 -1.1095
  330MOL0     H44495   0.466   0.075   5.824 -0.9388  1.1515  1.2158
  330MOL0     H44496   0.457   0.232   5.769  3.9526 -1.4873  1.4202
  330MOL0     H44497   0.244   0.089   5.836  2.9314 -1.1420  0.5223
  330MOL0     H44498   0.239   0.072   5.653  0.3490  2.8137 -2.8491
  330MOL0     H44499   0.223   0.344   5.810 -1.4220  0.4293  0.9973
  330MOL0     H44500   0.236   0.322   5.626 -0.4279 -2.7981 -2.4927
  330MOL0     H44501  -0.010   0.312   5.511 -1.8121  2.5617  0.0035
  330MOL0     H44502  -0.237   0.181   5.492  2.5471 -1.5081  2.2252
  330MOL0     H44503  -0.349   0.166   5.626  0.0346 -1.3687 -1.1208
  330MOL0     H44504  -0.354   0.439   5.626  0.4416  0.8726 -0.0034
  330MOL0     H44505  -0.258   0.427   5.475 -1.5946  3.0617  0.8056
  330MOL0     H44506  -0.492   0.472   5.442 -2.8517 -0.4324  1.4375
  330MOL0     H44507  -0.537   0.323   5.521 -2.3122  1.2316 -1.3163
  330MOL0     H44508  -0.383   0.207   5.315  1.3906  0.5608 -4.2483
  330MOL0     H44509  -0.349   0.363   5.265  1.0814  0.2552  1.5021
  330MOL0     H44510  -0.337   0.187   5.105  0.0128  0.7427  0.0061
  330MOL0     H44511  -0.362   0.109   4.882  0.4933  0.5614  3.3489
  330MOL0     H44512  -0.476   0.167   4.462  2.3494 -0.4346  2.6373
  330MOL0     H44513  -0.490   0.083   4.221  0.7495  1.3981  1.3461
  330MOL0     H44514  -0.611  -0.077   4.041  1.1750 -0.0007 -0.1259
  330MOL0     H44515  -0.432  -0.042   4.052  0.5038 -0.2062  1.7006
  330MOL0     H44516  -0.567  -0.291   3.919 -2.4044  2.5335 -1.9105
  330MOL0     H44517  -0.509  -0.148   3.841 -1.4700  0.4439  0.6786
  330MOL0     H44518  -0.293  -0.150   3.911 -0.6630  0.4251 -1.2579
  330MOL0     H44519  -0.303  -0.297   4.005  1.1050  1.9696  1.3583
  330MOL0     H44520  -0.347  -0.304   3.687  0.9682 -3.3540 -1.4538
  330MOL0     H44521  -0.356  -0.440   3.790  3.4562 -1.6155 -0.5184
  330MOL0     H44522  -0.153  -0.477   3.761  0.5668 -0.0036  2.0841
  330MOL0     H44523  -0.097  -0.322   3.833  0.4401 -1.2355 -0.8483
  330MOL0     H44524  -0.157  -0.326   3.537 -1.0159  2.9067  0.2152
  330MOL0     H44525  -0.103  -0.196   3.636  0.0633 -0.1401  1.1833
  330MOL0     H44526   0.061  -0.458   3.621  2.8512  0.7454 -0.8344
  330MOL0     H44527   0.104  -0.296   3.703 -2.2681  2.3958  1.1201
  330MOL0     H44528   0.103  -0.200   3.500  0.5956  0.3912  2.0988
  330MOL0     H44529   0.214  -0.347   3.516 -0.4315 -0.6672 -0.7593
  330MOL0     H44530  -0.507  -0.322   4.378  0.8478 -0.0446 -2.9693
  330MOL0     H44531  -0.498  -0.230   4.600 -0.6848  0.6897  1.3645
  330MOL0     H44532  -0.783   0.162   4.912 -0.5291  4.2021  0.8353
  330MOL0     H44533  -0.751   0.273   5.107  1.1412  0.0915  0.0968
  330MOL0     H44534   1.002   0.433   5.081 -2.9206 -0.6449 -0.4449
  330MOL0     H44535   1.153   0.642   5.089 -0.2263  2.3444  0.2481
  330MOL0     H44536   1.248   1.042   5.151 -4.2456  3.8015  0.0486
  330MOL0     H44537   1.395   1.218   5.144  1.7058 -3.8917 -0.4507
  330MOL0     H44538   1.551   1.402   5.524 -1.1869 -0.7092 -0.4920
  330MOL0     H44539   1.647   1.487   5.392 -3.2034  0.5535  0.4637
  330MOL0     H44540   1.779   1.276   5.365 -0.2232 -2.7861  0.5134
  330MOL0     H44541   1.701   1.199   5.509 -0.1244 -0.3781  0.3228
  330MOL0     H44542   1.859   1.454   5.502  2.9598 -1.5388  0.3298
  330MOL0     H44543   1.917   1.288   5.542  1.6740  1.7053 -2.3620
  330MOL0     H44544   1.885   1.409   5.751  2.1446 -1.7314 -1.5403
  330MOL0     H44545   1.716   1.445   5.708 -0.3685 -0.5552 -0.2977
  330MOL0     H44546   1.757   1.009   5.777 -0.7296 -0.0715  0.6413
  330MOL0     H44547   1.482   1.192   5.556  2.0018  1.8105 -2.7533
  330MOL0     H44548   1.379   1.045   5.695  1.2288  1.2855 -1.6457
  330MOL0     H44549   1.245   0.935   5.654  0.8228 -0.8301  1.0326
  330MOL0     H44550   1.416   0.892   5.640  0.4361  0.9057 -0.5287
  331MOL0     O44551  10.006   4.023   6.211  0.7548  0.0737  0.3861
  331MOL0     C44552  10.073   4.124   6.183  0.2153 -0.6500 -0.4038
  331MOL0     O44553  10.200   4.138   6.163  0.1808 -0.1427  0.4039
  331MOL0     C44554  10.280   4.026   6.188 -0.6650  0.7759 -0.3182
  331MOL0     C44555  10.396   4.013   6.109 -0.6823  0.1563 -0.8645
  331MOL0     C44556  10.489   3.910   6.144  0.2678  1.9108  0.4571
  331MOL0     C44557  10.459   3.814   6.238  0.2149  0.4773 -0.3401
  331MOL0     O44558  10.548   3.706   6.267  0.3055  0.0553 -0.1240
  331MOL0     C44559  10.529   3.623   6.395  0.1886 -0.2324 -0.8201
  331MOL0     C44560  10.633   3.507   6.398 -0.6520 -0.0746 -1.0801
  331MOL0     C44561  10.588   3.414   6.295 -1.1157 -0.4639 -0.0294
  331MOL0     C44562  10.527   3.286   6.350  0.3547 -0.1233 -0.4033
  331MOL0     C44563  10.470   3.181   6.249  0.0089  0.1915  0.4591
  331MOL0     C44564  10.590   3.117   6.173 -0.4975 -0.5347 -0.0516
  331MOL0     C44565  10.542   3.038   6.047  0.5858  0.8200 -0.4915
  331MOL0     C44566  10.602   3.074   5.915 -0.2563 -0.0437 -1.1125
  331MOL0     N44567  10.749   3.079   5.920 -0.3420 -0.1292  0.6912
  331MOL0     C44568  10.830   2.975   5.878 -0.2157  0.7190  0.7734
  331MOL0     C44569  10.957   3.011   5.904 -0.3473 -0.0011  0.2729
  331MOL0     C44570  11.074   2.909   5.891  1.1545 -0.9557  0.5143
  331MOL0     C44571  11.177   2.925   5.999 -0.1376  0.4886  0.3596
  331MOL0     C44572  11.277   2.803   5.998 -0.1018 -1.2346 -0.4095
  331MOL0     C44573  11.343   2.776   5.859  0.3077 -0.6093 -1.3370
  331MOL0     O44574  11.414   2.657   5.877  0.3523  0.4058  0.2747
  331MOL0     C44575  11.376   2.541   5.819  0.5345 -0.3227 -0.1839
  331MOL0     C44576  11.241   2.493   5.800 -0.0216 -0.1552  0.4413
  331MOL0     C44577  11.201   2.361   5.761 -0.5871  1.1550  0.7255
  331MOL0     C44578  11.312   2.272   5.734 -0.3723 -0.3005 -0.2527
  331MOL0     C44579  11.284   2.129   5.678  0.1829  0.9354 -0.9848
  331MOL0     O44580  11.168   2.070   5.718 -0.1535  0.6896 -0.9006
  331MOL0     C44581  11.149   1.941   5.672  0.3292 -0.9013  0.2991
  331MOL0     C44582  11.129   1.832   5.748 -1.1520  0.4996  0.9033
  331MOL0     C44583  11.095   1.706   5.695  0.4408  0.1308  0.8414
  331MOL0     C44584  11.078   1.693   5.556 -0.4497 -0.0879 -0.2228
  331MOL0     O44585  11.042   1.583   5.495  0.0519 -0.0082  0.2930
  331MOL0     C44586  11.099   1.460   5.553  0.5045 -0.1173  0.4944
  331MOL0     C44587  11.082   1.358   5.437 -0.4815 -0.0096  0.0186
  331MOL0     C44588  11.181   1.239   5.451 -0.9285 -0.1005 -0.9410
  331MOL0     C44589  11.135   1.113   5.378  0.1325 -0.5328 -0.3540
  331MOL0     C44590  11.242   1.007   5.394  0.2754  0.2750  0.0991
  331MOL0     C44591  11.223   0.888   5.307  0.3127  0.2101 -0.1500
  331MOL0     C44592  11.271   0.748   5.366 -0.9219 -0.2674 -0.7749
  331MOL0     C44593  11.426   0.741   5.345  0.1219 -1.0818  0.0812
  331MOL0    Cl44594  11.483   0.579   5.385  0.1065 -0.7043 -0.3390
  331MOL0     C44595  11.093   1.807   5.481  0.4452 -0.3570  0.1007
  331MOL0     C44596  11.131   1.925   5.535 -0.3785  0.2667 -0.4917
  331MOL0     O44597  11.365   2.077   5.603  0.4981  0.5339 -0.1344
  331MOL0     C44598  11.443   2.316   5.759 -0.5825 -0.1663 -0.6002
  331MOL0     C44599  11.475   2.438   5.805 -0.0594 -0.1146 -0.5072
  331MOL0     N44600  10.945   3.144   5.941 -0.9439 -0.3393  0.0690
  331MOL0     N44601  10.825   3.182   5.962  0.8802 -0.0739  0.2244
  331MOL0     C44602  10.340   3.821   6.315 -0.3665 -0.1525 -0.4790
  331MOL0     C44603  10.260   3.930   6.293  0.2980 -1.1239  0.4480
  331MOL0     C44604   9.998   4.250   6.179  0.5131 -0.3462  0.4050
  331MOL0     C44605   9.871   4.239   6.118 -0.0291  0.2282  0.1174
  331MOL0     C44606   9.783   4.344   6.130  0.4481 -0.6442 -0.2209
  331MOL0     C44607   9.821   4.457   6.187 -0.6316 -0.3292  0.0462
  331MOL0     O44608   9.723   4.546   6.210 -0.2201  0.1290  0.4017
  331MOL0     C44609   9.730   4.669   6.134  0.1112 -0.0760 -0.5429
  331MOL0     C44610   9.687   4.658   5.993 -0.1137  0.0195 -0.4509
  331MOL0     C44611   9.771   4.570   5.903 -0.2223 -0.5651  0.2487
  331MOL0     C44612   9.785   4.605   5.754  0.4877  0.2140  0.7654
  331MOL0     C44613   9.654   4.634   5.687 -0.7357  0.5177 -0.2758
  331MOL0     C44614   9.536   4.645   5.635  0.7189  0.2818 -0.5094
  331MOL0     C44615   9.949   4.472   6.249  0.1316 -0.6542 -0.2851
  331MOL0     C44616  10.045   4.366   6.249  0.7426  0.6683  0.0377
  331MOL0     C44617  10.184   4.377   6.312 -0.3240  0.1053 -0.0198
  331MOL0     H44618  10.415   4.082   6.027 -0.1038  2.0576  0.7868
  331MOL0     H44619  10.574   3.886   6.081 -1.8885 -1.3699 -1.5379
  331MOL0     H44620  10.549   3.684   6.483 -1.4460 -0.7418 -0.0529
  331MOL0     H44621  10.431   3.574   6.385  0.9803 -1.4384 -3.9603
  331MOL0     H44622  10.634   3.459   6.496 -1.5240 -2.5664 -2.1965
  331MOL0     H44623  10.734   3.536   6.370 -0.8572 -0.9308 -2.8242
  331MOL0     H44624  10.670   3.399   6.224 -1.1026 -0.5463  0.0045
  331MOL0     H44625  10.519   3.459   6.223 -1.9609 -0.9128  0.4878
  331MOL0     H44626  10.608   3.234   6.402 -1.2014 -3.6474 -1.2564
  331MOL0     H44627  10.441   3.293   6.417  1.2181  0.1351  0.7047
  331MOL0     H44628  10.415   3.108   6.310 -0.8486  0.0415 -0.4512
  331MOL0     H44629  10.396   3.225   6.181  0.2523  0.6351  0.4769
  331MOL0     H44630  10.668   3.192   6.154  0.8932 -0.6703  4.0093
  331MOL0     H44631  10.646   3.042   6.230  3.4449  1.2148 -1.2657
  331MOL0     H44632  10.433   3.035   6.048  0.5990 -0.7156 -0.2759
  331MOL0     H44633  10.561   2.932   6.066  1.1026  1.3104  2.0747
  331MOL0     H44634  10.564   3.000   5.844 -1.6892  0.1220 -0.5528
  331MOL0     H44635  10.573   3.174   5.884  1.6065  2.8840  5.0225
  331MOL0     H44636  10.809   2.882   5.826 -0.3394 -0.8074  3.3942
  331MOL0     H44637  11.033   2.808   5.880 -2.4737  0.3675  0.6016
  331MOL0     H44638  11.118   2.927   5.792 -0.3982 -2.4893 -0.5222
  331MOL0     H44639  11.228   3.021   5.982 -3.0528  1.8372 -1.5084
  331MOL0     H44640  11.130   2.937   6.097 -0.6307 -0.2813  0.2176
  331MOL0     H44641  11.226   2.710   6.026 -0.6711 -1.0197 -0.7182
  331MOL0     H44642  11.361   2.836   6.059 -0.2248  1.9443 -1.7748
  331MOL0     H44643  11.395   2.871   5.843  0.2692 -0.0743  1.2531
  331MOL0     H44644  11.263   2.768   5.785 -1.1847 -0.3965  0.1980
  331MOL0     H44645  11.165   2.569   5.812 -0.8535 -0.4046 -2.5072
  331MOL0     H44646  11.096   2.345   5.740 -0.0219 -4.6316  0.7900
  331MOL0     H44647  11.134   1.838   5.856  0.4821 -0.0903  0.8780
  331MOL0     H44648  11.076   1.626   5.765 -0.1029 -0.3355  0.1726
  331MOL0     H44649  11.207   1.475   5.564  0.9327 -0.9073 -2.0876
  331MOL0     H44650  11.056   1.415   5.643 -0.0599 -0.0153  0.2746
  331MOL0     H44651  10.981   1.315   5.442  0.1082 -1.3747  0.9795
  331MOL0     H44652  11.112   1.393   5.338  0.7513 -2.2524 -0.4901
  331MOL0     H44653  11.283   1.264   5.418 -0.6710 -0.2585 -0.2706
  331MOL0     H44654  11.170   1.216   5.557  3.7688  2.0969  0.3020
  331MOL0     H44655  11.098   1.122   5.275 -0.1234  1.2603 -0.1314
  331MOL0     H44656  11.047   1.071   5.426  0.6805 -3.2960 -1.5528
  331MOL0     H44657  11.235   0.983   5.500  1.7752  2.8566  0.8735
  331MOL0     H44658  11.331   1.064   5.365  1.9578 -1.2994  1.8571
  331MOL0     H44659  11.116   0.868   5.294  1.0010 -2.0326 -3.7545
  331MOL0     H44660  11.269   0.912   5.210  0.4882 -1.7858 -0.6058
  331MOL0     H44661  11.224   0.669   5.305 -2.6514  2.5480 -3.4156
  331MOL0     H44662  11.236   0.737   5.469  2.3750 -2.1443  0.2789
  331MOL0     H44663  11.449   0.767   5.242  1.8362 -0.9843  0.4627
  331MOL0     H44664  11.478   0.821   5.398  1.9597  1.6752 -5.1820
  331MOL0     H44665  11.078   1.808   5.373 -0.4466 -3.8841  0.0658
  331MOL0     H44666  11.139   2.002   5.459 -1.1364  1.1624  0.3201
  331MOL0     H44667  11.521   2.242   5.744 -0.1395  0.2043 -0.1519
  331MOL0     H44668  11.574   2.466   5.839  0.0074 -2.0301  1.0908
  331MOL0     H44669  10.329   3.750   6.397  1.7680 -1.9313 -1.6134
  331MOL0     H44670  10.181   3.936   6.367  1.6057 -1.1634  1.8837
  331MOL0     H44671   9.846   4.146   6.070 -0.0119 -0.7593  1.9507
  331MOL0     H44672   9.681   4.346   6.094 -0.6101  0.0214  2.6243
  331MOL0     H44673   9.826   4.722   6.138 -0.3275  0.7097  3.1603
  331MOL0     H44674   9.653   4.730   6.182 -0.4434 -0.0535 -1.4258
  331MOL0     H44675   9.706   4.761   5.964 -1.0272  0.9866  2.1082
  331MOL0     H44676   9.579   4.638   5.992  0.0492 -0.9394 -0.1806
  331MOL0     H44677   9.738   4.465   5.909  2.8196 -1.6703 -0.5761
  331MOL0     H44678   9.867   4.565   5.955 -0.5680 -1.7276  0.8217
  331MOL0     H44679   9.843   4.698   5.742  0.3480  0.4219  1.6209
  331MOL0     H44680   9.829   4.521   5.699 -2.0294 -1.7150  1.5409
  331MOL0     H44681   9.433   4.660   5.612  0.1253 -1.6235  0.7104
  331MOL0     H44682   9.984   4.567   6.290 -0.1493 -0.4034 -0.6251
  331MOL0     H44683  10.206   4.297   6.383 -1.9899 -0.0120  0.4014
  331MOL0     H44684  10.257   4.391   6.232  0.9445  0.0330  1.0861
  331MOL0     H44685  10.193   4.471   6.369  4.6625 -0.5424  0.6876
  332MOL0     O44686   3.273   8.832   6.561 -0.4717 -0.6929 -0.2633
  332MOL0     C44687   3.384   8.871   6.600  0.4956  0.2144  1.2607
  332MOL0     O44688   3.416   8.999   6.634 -0.2693  0.3157  0.7649
  332MOL0     C44689   3.318   9.091   6.632 -1.2948  0.3145 -0.6883
  332MOL0     C44690   3.191   9.075   6.688  0.2694  0.7587  0.4330
  332MOL0     C44691   3.092   9.164   6.669  0.7558  0.4103  0.8575
  332MOL0     C44692   3.105   9.269   6.578  0.6172 -1.3324  0.9623
  332MOL0     O44693   2.991   9.349   6.554 -0.0523  0.4468  0.2032
  332MOL0     C44694   2.994   9.449   6.451  0.3400 -0.1401  0.2526
  332MOL0     C44695   2.882   9.553   6.478 -0.0067  0.5432 -0.8281
  332MOL0     C44696   2.753   9.525   6.409 -0.4396 -0.8006 -0.3797
  332MOL0     C44697   2.682   9.395   6.458  0.1410 -0.0431 -0.8108
  332MOL0     C44698   2.540   9.368   6.387  0.2712 -0.5722 -0.0739
  332MOL0     C44699   2.549   9.340   6.237 -0.0740  0.3054  0.9747
  332MOL0     C44700   2.414   9.287   6.181  0.2085 -0.6365 -0.8988
  332MOL0     C44701   2.306   9.405   6.176 -0.1328 -0.1968 -0.3622
  332MOL0     N44702   2.185   9.356   6.111 -1.0123 -0.2085 -0.9049
  332MOL0     C44703   2.083   9.307   6.181 -0.9237  0.9819  0.0473
  332MOL0     C44704   1.999   9.259   6.090 -0.4297  0.6293  0.2259
  332MOL0     C44705   1.858   9.215   6.126 -0.2368 -0.1422 -0.1309
  332MOL0     C44706   1.769   9.176   6.011  0.4717 -0.0316 -0.1861
  332MOL0     C44707   1.741   9.298   5.906  0.4038 -0.3756  0.0845
  332MOL0     C44708   1.672   9.422   5.977 -0.7836 -0.1245  1.1387
  332MOL0     O44709   1.547   9.394   6.032 -0.2433 -0.7468  0.9202
  332MOL0     C44710   1.484   9.508   6.074  0.2942 -0.1343  0.7151
  332MOL0     C44711   1.378   9.560   5.998  0.1273 -0.0661  0.9605
  332MOL0     C44712   1.318   9.688   6.029 -0.2154 -0.2076 -0.4773
  332MOL0     C44713   1.361   9.777   6.130  0.3012  0.1362 -0.1185
  332MOL0     C44714   1.287   9.902   6.177  0.9720  0.7310  0.3547
  332MOL0     O44715   1.187   9.939   6.089 -1.0586  0.4552  1.0015
  332MOL0     C44716   1.102  10.044   6.099 -0.4634 -0.3380 -1.0295
  332MOL0     C44717   1.098  10.141   6.202  0.5209  0.6956  0.7550
  332MOL0     C44718   1.011  10.254   6.188 -1.1693  1.0201  0.5515
  332MOL0     C44719   0.926  10.264   6.087  1.1566 -0.5278  0.1509
  332MOL0     O44720   0.842  10.376   6.068 -0.4271 -0.1120 -0.3442
  332MOL0     C44721   0.794  10.419   6.197  0.3709 -0.0213 -1.1735
  332MOL0     C44722   0.649  10.463   6.186  0.7408 -0.0877  0.9077
  332MOL0     C44723   0.625  10.583   6.084  0.3983  1.1015 -0.2816
  332MOL0     C44724   0.529  10.551   5.970  0.6506  0.2550  0.5678
  332MOL0     C44725   0.567  10.457   5.859  0.2621  0.4244  0.4083
  332MOL0     C44726   0.694  10.508   5.790 -0.2600  0.2581 -0.1150
  332MOL0     C44727   0.730  10.408   5.679 -0.0736  0.4006  1.5070
  332MOL0     C44728   0.630  10.405   5.565  0.6370 -0.6880 -0.4790
  332MOL0    Cl44729   0.610  10.573   5.491  0.1052 -0.2513  0.1489
  332MOL0     C44730   0.920  10.170   5.990  0.1006  0.1180 -0.2466
  332MOL0     C44731   1.009  10.061   5.998  0.2904 -0.0779 -0.6110
  332MOL0     O44732   1.310   9.942   6.284 -0.8627  0.1548 -0.2561
  332MOL0     C44733   1.468   9.721   6.208  0.9974  0.3299  0.4266
  332MOL0     C44734   1.529   9.593   6.174 -0.6715 -0.3606  1.1678
  332MOL0     N44735   2.048   9.279   5.962 -0.7993 -0.3599 -0.1353
  332MOL0     N44736   2.167   9.341   5.977 -0.2856  0.8118  0.5700
  332MOL0     C44737   3.238   9.286   6.522 -0.0257  0.0419 -0.0519
  332MOL0     C44738   3.348   9.206   6.562  0.9597 -0.8145  0.3918
  332MOL0     C44739   3.495   8.769   6.595 -0.5916  0.1619  0.4096
  332MOL0     C44740   3.487   8.658   6.509 -0.5415 -0.3686 -0.0961
  332MOL0     C44741   3.590   8.563   6.507  0.5862 -0.0232  0.4053
  332MOL0     C44742   3.714   8.583   6.576  2.1088 -0.9111  0.2516
  332MOL0     O44743   3.812   8.496   6.581 -0.7656 -0.1308  0.7537
  332MOL0     C44744   3.818   8.376   6.497 -0.8988  0.6508  0.1279
  332MOL0     C44745   3.757   8.250   6.560 -0.3026 -1.0840  0.6467
  332MOL0     C44746   3.850   8.217   6.686 -0.7569 -0.0155  1.0931
  332MOL0     C44747   3.801   8.089   6.767 -0.3333  0.4235  1.9838
  332MOL0     C44748   3.846   7.955   6.717 -0.6791 -0.1987 -0.5250
  332MOL0     C44749   3.880   7.843   6.683  0.3469  0.4116  1.1637
  332MOL0     C44750   3.724   8.699   6.659  0.1218  0.3484 -1.0506
  332MOL0     C44751   3.619   8.791   6.667  0.1530  1.1600  0.0161
  332MOL0     C44752   3.644   8.897   6.767  0.0066  0.4396 -0.4482
  332MOL0     H44753   3.182   8.984   6.748  3.5002 -3.0323 -4.0681
  332MOL0     H44754   2.992   9.136   6.701  0.1288  0.6058 -0.8136
  332MOL0     H44755   3.096   9.487   6.455  2.5858 -5.2472 -0.6360
  332MOL0     H44756   2.985   9.413   6.348  1.0464 -0.1085  0.1767
  332MOL0     H44757   2.920   9.654   6.457 -2.2639  1.6786  0.1932
  332MOL0     H44758   2.864   9.565   6.585 -1.2034 -0.7562 -0.8589
  332MOL0     H44759   2.761   9.521   6.300  2.5016 -0.8952 -0.2219
  332MOL0     H44760   2.683   9.608   6.425 -0.6417 -0.6238 -2.0591
  332MOL0     H44761   2.745   9.308   6.439 -0.1047 -0.2514 -0.6597
  332MOL0     H44762   2.647   9.413   6.560 -2.1250 -0.6929 -1.4328
  332MOL0     H44763   2.488   9.293   6.447  0.4437  0.4549  1.3975
  332MOL0     H44764   2.486   9.463   6.395  2.9749  0.9498  1.6572
  332MOL0     H44765   2.570   9.434   6.185  0.0975 -1.0436 -1.5098
  332MOL0     H44766   2.631   9.270   6.226  0.9877  1.7012 -0.3609
  332MOL0     H44767   2.371   9.219   6.255  1.5843 -0.4026  0.1484
  332MOL0     H44768   2.427   9.247   6.080 -1.9171 -0.3886 -1.3192
  332MOL0     H44769   2.278   9.439   6.276 -1.8502 -1.4225 -0.3894
  332MOL0     H44770   2.342   9.488   6.115  1.7437 -0.7522 -0.1041
  332MOL0     H44771   2.064   9.314   6.287  0.6146  1.8738  0.2823
  332MOL0     H44772   1.849   9.126   6.188  1.3394  1.2237  2.2261
  332MOL0     H44773   1.815   9.288   6.195  2.4244 -0.8308  2.4697
  332MOL0     H44774   1.805   9.089   5.955 -1.4703  0.4713 -2.3734
  332MOL0     H44775   1.666   9.157   6.041 -0.3580  0.9488 -2.2431
  332MOL0     H44776   1.679   9.262   5.823 -2.0411  1.3009  1.0787
  332MOL0     H44777   1.836   9.334   5.864 -1.3874  1.5468 -2.6483
  332MOL0     H44778   1.668   9.507   5.909  4.1987 -0.2630  0.2967
  332MOL0     H44779   1.738   9.461   6.055  1.7296 -1.6467 -0.1093
  332MOL0     H44780   1.346   9.507   5.909  1.3439  2.3469 -1.0425
  332MOL0     H44781   1.244   9.723   5.958 -1.6667 -1.7158  0.2247
  332MOL0     H44782   1.186  10.139   6.265  1.8139 -1.3476 -0.9502
  332MOL0     H44783   1.035  10.328   6.264  3.5709  0.0776  0.2583
  332MOL0     H44784   0.795  10.331   6.262  1.1714  0.3320 -0.6942
  332MOL0     H44785   0.864  10.492   6.237 -2.1053  1.6726  0.4036
  332MOL0     H44786   0.602  10.373   6.146  2.0212  0.4042 -1.8994
  332MOL0     H44787   0.621  10.490   6.289  0.3079 -0.0181  0.7737
  332MOL0     H44788   0.572  10.662   6.138 -2.5733 -1.4943  0.8924
  332MOL0     H44789   0.724  10.619   6.052  2.4698 -2.3378  1.5653
  332MOL0     H44790   0.515  10.646   5.918  1.5805  2.2023  3.5709
  332MOL0     H44791   0.431  10.533   6.014 -0.0989  0.6854 -0.8894
  332MOL0     H44792   0.481  10.452   5.791 -2.6852  0.7786  3.8116
  332MOL0     H44793   0.579  10.351   5.885  1.9080  0.6024  0.5058
  332MOL0     H44794   0.672  10.606   5.746  2.3345  0.1233 -1.9277
  332MOL0     H44795   0.768  10.519   5.869 -2.6320  2.5431  1.9653
  332MOL0     H44796   0.743  10.306   5.717  1.3471  0.5827  1.5474
  332MOL0     H44797   0.825  10.430   5.630 -0.0351 -3.9805 -0.8497
  332MOL0     H44798   0.650  10.331   5.487 -1.4607  0.7112 -2.4811
  332MOL0     H44799   0.531  10.384   5.608  0.2497  0.4125 -0.8030
  332MOL0     H44800   0.864  10.179   5.897  0.4771 -0.1615 -0.5054
  332MOL0     H44801   1.014   9.985   5.920 -0.1591 -1.7520  0.9112
  332MOL0     H44802   1.512   9.769   6.294  3.0966 -1.9137  0.7239
  332MOL0     H44803   1.611   9.540   6.222 -2.7243 -3.6303  1.4230
  332MOL0     H44804   3.246   9.372   6.456 -2.7589  0.2632 -0.1939
  332MOL0     H44805   3.452   9.220   6.535  0.7278 -0.2835 -0.2688
  332MOL0     H44806   3.398   8.651   6.447 -0.5890 -0.0971 -0.0616
  332MOL0     H44807   3.555   8.481   6.446  0.3434  1.3722 -1.4226
  332MOL0     H44808   3.925   8.358   6.487 -0.8589 -0.5695  2.1471
  332MOL0     H44809   3.783   8.383   6.394  1.8706  1.1005 -0.8544
  332MOL0     H44810   3.771   8.168   6.489  1.9963  0.7458 -1.1565
  332MOL0     H44811   3.653   8.265   6.592  0.2033 -1.8258  2.7244
  332MOL0     H44812   3.845   8.310   6.744 -0.5701  0.6288  0.1056
  332MOL0     H44813   3.956   8.208   6.660 -1.1754 -0.5512 -0.5103
  332MOL0     H44814   3.825   8.098   6.874 -0.2885 -0.4678  2.0550
  332MOL0     H44815   3.693   8.080   6.755 -0.4115  0.6942  2.4382
  332MOL0     H44816   3.910   7.760   6.621 -3.7719  0.7840 -1.7379
  332MOL0     H44817   3.819   8.711   6.710  0.4101  1.5259 -1.8250
  332MOL0     H44818   3.720   8.880   6.845  3.0982 -0.6660 -3.4526
  332MOL0     H44819   3.676   8.987   6.715 -1.8210 -0.6296 -3.6544
  332MOL0     H44820   3.554   8.914   6.827  0.9149 -2.6165  2.0821
  333MOL0     O44821   5.538   7.736   0.794  0.7634 -0.1238 -0.4919
  333MOL0     C44822   5.660   7.726   0.782  0.0866  0.3036 -0.9258
  333MOL0     O44823   5.759   7.774   0.875 -0.1031 -0.1928  0.3459
  333MOL0     C44824   5.741   7.858   0.979 -0.4237 -0.6824 -0.0082
  333MOL0     C44825   5.819   7.854   1.103  0.3857  0.5948  0.0621
  333MOL0     C44826   5.788   7.940   1.206 -0.4486 -0.2655 -0.3870
  333MOL0     C44827   5.691   8.033   1.196 -0.7465  0.2713 -0.2867
  333MOL0     O44828   5.659   8.130   1.289  0.1715 -1.0708 -0.0461
  333MOL0     C44829   5.696   8.120   1.423 -0.7850 -0.1836 -0.3359
  333MOL0     C44830   5.841   8.154   1.455 -0.6269 -0.1023  0.0203
  333MOL0     C44831   5.864   8.304   1.422  0.9260  0.9284 -0.1963
  333MOL0     C44832   6.009   8.351   1.444 -0.0725  0.3391  0.2404
  333MOL0     C44833   6.012   8.495   1.401 -0.5859  0.3020 -0.4335
  333MOL0     C44834   6.136   8.572   1.461  0.4182 -0.0590 -0.7302
  333MOL0     C44835   6.132   8.720   1.435  0.3346  0.5493 -0.2484
  333MOL0     C44836   6.012   8.790   1.488 -0.1643  0.5224 -0.8615
  333MOL0     N44837   6.032   8.936   1.482  0.5800 -1.2741  0.0261
  333MOL0     C44838   6.137   9.014   1.530  1.0211  0.0975  0.4112
  333MOL0     C44839   6.119   9.133   1.484  0.0224  0.2454 -0.2371
  333MOL0     C44840   6.214   9.241   1.504  0.3577 -0.6810  0.5975
  333MOL0     C44841   6.223   9.293   1.648  0.0690 -0.9774 -0.3028
  333MOL0     C44842   6.093   9.349   1.703 -0.3913 -0.0356  0.5156
  333MOL0     C44843   6.102   9.416   1.843 -0.5795 -0.2985  0.3652
  333MOL0     O44844   6.188   9.537   1.834 -0.0290 -0.5868  1.0621
  333MOL0     C44845   6.173   9.618   1.939  0.7925 -0.1287  0.4526
  333MOL0     C44846   6.274   9.713   1.951  1.2230 -0.0895 -0.8125
  333MOL0     C44847   6.281   9.801   2.059  0.4692 -0.1215 -0.2452
  333MOL0     C44848   6.197   9.780   2.174  0.2599 -0.9316  1.0341
  333MOL0     C44849   6.204   9.867   2.290  0.2983 -0.1571  0.5040
  333MOL0     O44850   6.253   9.996   2.263 -0.3853  1.1835  0.3528
  333MOL0     C44851   6.267  10.101   2.349 -0.1296 -0.3014 -0.5326
  333MOL0     C44852   6.340  10.206   2.299 -0.1810  0.0118 -0.3002
  333MOL0     C44853   6.347  10.328   2.376 -0.1996  0.2694  0.1120
  333MOL0     C44854   6.295  10.337   2.510  0.1100  0.2932 -0.8087
  333MOL0     O44855   6.296  10.455   2.585 -0.2048  0.2757 -0.9883
  333MOL0     C44856   6.183  10.538   2.585 -0.3056 -0.5744 -0.1937
  333MOL0     C44857   6.193  10.637   2.467 -0.0635  0.1660  0.2972
  333MOL0     C44858   6.322  10.723   2.474  0.6299 -0.0383 -0.0574
  333MOL0     C44859   6.300  10.852   2.386  0.1008 -0.1195 -0.0424
  333MOL0     C44860   6.304  10.835   2.234 -0.7345  0.5603  0.4847
  333MOL0     C44861   6.280  10.958   2.147 -1.0350  0.2357  0.0665
  333MOL0     C44862   6.337  10.939   2.002  0.1010  0.3856  0.2813
  333MOL0     C44863   6.275  11.033   1.901 -0.0144 -0.5961 -0.0917
  333MOL0    Cl44864   6.296  11.202   1.957  0.0961 -0.0201  0.0255
  333MOL0     C44865   6.233  10.228   2.560  0.5735  0.0348 -0.1079
  333MOL0     C44866   6.216  10.113   2.483 -0.0492  0.1627  0.1170
  333MOL0     O44867   6.178   9.823   2.401  0.6545 -0.0514  0.2406
  333MOL0     C44868   6.102   9.680   2.163  0.2831 -0.1879 -0.6569
  333MOL0     C44869   6.089   9.606   2.049  0.8851 -0.1927  0.3434
  333MOL0     N44870   6.004   9.129   1.413  0.0900  0.3098 -0.1561
  333MOL0     N44871   5.951   9.015   1.411  0.3924 -0.4112 -0.5616
  333MOL0     C44872   5.619   8.053   1.073  0.8504 -0.7638  1.0902
  333MOL0     C44873   5.643   7.964   0.974  0.3989  0.0011 -0.4905
  333MOL0     C44874   5.708   7.654   0.664  0.3085  0.4844  0.2246
  333MOL0     C44875   5.623   7.561   0.598  0.2425  0.2623 -1.3697
  333MOL0     C44876   5.651   7.491   0.487 -0.2938  1.1283 -0.8016
  333MOL0     C44877   5.774   7.520   0.429  0.3783 -0.4668 -0.1721
  333MOL0     O44878   5.807   7.469   0.306  0.0430  0.5899  0.0523
  333MOL0     C44879   5.729   7.361   0.256 -0.5477 -0.2579  0.2741
  333MOL0     C44880   5.798   7.288   0.138  0.4477  0.4215  0.0825
  333MOL0     C44881   5.908   7.183   0.192 -1.6632 -0.5491  0.6870
  333MOL0     C44882   6.009   7.240   0.298 -0.2544 -2.5089 -0.9343
  333MOL0     C44883   6.059   7.145   0.390 -0.0817 -1.0584 -0.9716
  333MOL0     C44884   6.091   7.062   0.478 -0.1581  0.6373  0.7098
  333MOL0     C44885   5.861   7.624   0.477  0.3909  0.9264 -0.4800
  333MOL0     C44886   5.830   7.684   0.600 -0.0595 -0.0642  0.2065
  333MOL0     C44887   5.941   7.777   0.641  0.9851 -0.3235 -0.2251
  333MOL0     H44888   5.881   7.765   1.106  0.1157  0.3563 -0.9748
  333MOL0     H44889   5.834   7.918   1.302 -0.3515  0.7711 -0.1868
  333MOL0     H44890   5.641   8.197   1.477 -0.8971 -0.0496 -0.6409
  333MOL0     H44891   5.671   8.024   1.469 -2.4292  0.5761  0.4436
  333MOL0     H44892   5.908   8.089   1.397 -0.1002  0.4496 -0.0043
  333MOL0     H44893   5.870   8.133   1.558  0.2277 -0.8767 -0.3691
  333MOL0     H44894   5.793   8.359   1.485  1.4930  1.0624  0.3346
  333MOL0     H44895   5.829   8.321   1.320  1.1394  1.1640 -0.2324
  333MOL0     H44896   6.042   8.333   1.547 -1.5198 -2.7533  0.2987
  333MOL0     H44897   6.066   8.284   1.379 -2.5177 -0.8034 -0.8745
  333MOL0     H44898   6.028   8.496   1.292  1.4352  0.5128 -0.1868
  333MOL0     H44899   5.912   8.535   1.418 -1.4500 -1.4118 -1.3202
  333MOL0     H44900   6.136   8.535   1.564  0.4862 -1.3840 -1.1837
  333MOL0     H44901   6.223   8.534   1.405  0.3579  2.0089 -2.3377
  333MOL0     H44902   6.147   8.749   1.330  0.0852 -1.3306 -0.8313
  333MOL0     H44903   6.214   8.758   1.497  0.2239  1.4692 -0.6364
  333MOL0     H44904   5.918   8.767   1.436 -1.8688  2.1183  1.3251
  333MOL0     H44905   5.999   8.755   1.591  0.6745 -1.8401 -1.5024
  333MOL0     H44906   6.225   8.984   1.586  2.8457  2.3806 -1.0423
  333MOL0     H44907   6.315   9.208   1.474  1.1635  2.1012 -0.0691
  333MOL0     H44908   6.189   9.310   1.423 -2.8525 -2.5376 -0.1506
  333MOL0     H44909   6.255   9.222   1.725  2.0401  1.7833  1.6105
  333MOL0     H44910   6.302   9.369   1.648  0.8465 -1.7627 -1.3632
  333MOL0     H44911   6.025   9.264   1.694 -0.3458  0.0420 -0.7093
  333MOL0     H44912   6.059   9.430   1.637 -0.5630  0.5465  1.3082
  333MOL0     H44913   6.144   9.350   1.920  0.0174 -1.3701 -0.8526
  333MOL0     H44914   5.997   9.438   1.861 -0.2847  1.4770  0.0774
  333MOL0     H44915   6.369   9.714   1.899  1.9282 -2.4044  0.3010
  333MOL0     H44916   6.366   9.868   2.069 -0.5284  0.8997  2.5357
  333MOL0     H44917   6.382  10.210   2.199  4.4941  0.9898  1.4259
  333MOL0     H44918   6.379  10.424   2.337 -3.2212  2.7705  3.0856
  333MOL0     H44919   6.091  10.480   2.585  0.9190 -2.7787  3.3733
  333MOL0     H44920   6.181  10.604   2.673  1.3028 -2.3136  1.2160
  333MOL0     H44921   6.189  10.585   2.370 -0.8944 -0.1647  0.4941
  333MOL0     H44922   6.101  10.697   2.469  0.4208  1.2158 -2.9206
  333MOL0     H44923   6.343  10.748   2.579  2.7335 -3.1077  0.3995
  333MOL0     H44924   6.402  10.665   2.428  2.0000  2.1519 -0.6061
  333MOL0     H44925   6.387  10.915   2.407 -0.4530  0.4774  0.5115
  333MOL0     H44926   6.196  10.884   2.395  0.5055  0.8913  1.5875
  333MOL0     H44927   6.240  10.753   2.198 -0.1550  0.5686 -0.6037
  333MOL0     H44928   6.409  10.816   2.211  0.4810  5.6124  0.6079
  333MOL0     H44929   6.171  10.967   2.150 -1.0698 -0.3637  1.3887
  333MOL0     H44930   6.330  11.044   2.192  0.4644 -0.8371  0.5392
  333MOL0     H44931   6.331  10.838   1.961 -0.9814  0.2644  0.7137
  333MOL0     H44932   6.442  10.970   2.011 -0.7065  3.6524 -0.2615
  333MOL0     H44933   6.327  11.020   1.806  0.3424  3.9988 -0.7741
  333MOL0     H44934   6.172  11.010   1.872  0.4011 -1.5420 -0.8709
  333MOL0     H44935   6.193  10.238   2.660 -1.4488 -1.9988 -0.6299
  333MOL0     H44936   6.159  10.040   2.539 -1.8722  2.1930  1.0464
  333MOL0     H44937   6.026   9.667   2.239  0.6712 -1.1006 -0.4184
  333MOL0     H44938   6.002   9.542   2.048 -0.1704  1.1845  0.6187
  333MOL0     H44939   5.557   8.142   1.062  3.6699  1.1464 -0.7743
  333MOL0     H44940   5.571   7.987   0.896 -2.0888 -0.0558  1.6088
  333MOL0     H44941   5.527   7.542   0.644  2.6000  0.6354  4.5169
  333MOL0     H44942   5.587   7.410   0.455  2.9569 -2.1832  0.3534
  333MOL0     H44943   5.641   7.413   0.218  0.9615  2.2957  0.0922
  333MOL0     H44944   5.703   7.293   0.338  0.8570 -0.2201  0.7862
  333MOL0     H44945   5.842   7.365   0.075 -1.4601  1.4910 -0.0071
  333MOL0     H44946   5.728   7.233   0.075 -0.3467  1.7062 -0.1907
  333MOL0     H44947   5.974   7.160   0.108 -0.8097  3.4683  0.0197
  333MOL0     H44948   5.860   7.097   0.239 -0.9390 -1.5467 -0.3599
  333MOL0     H44949   6.082   7.294   0.238 -2.1421 -0.4391 -1.4811
  333MOL0     H44950   5.963   7.312   0.366  1.2055 -1.6507 -0.8258
  333MOL0     H44951   6.117   6.983   0.545 -0.5386 -0.2494 -0.1618
  333MOL0     H44952   5.957   7.652   0.435  1.2402  0.5746  1.1365
  333MOL0     H44953   6.008   7.738   0.718  0.9523  1.2367  0.6251
  333MOL0     H44954   5.994   7.811   0.551 -1.5989  1.6531 -1.1251
  333MOL0     H44955   5.902   7.864   0.694  0.1821 -1.3337  0.8938
  334MOL0     O44956   6.360  10.110   7.485 -0.0456  1.1034  0.1663
  334MOL0     C44957   6.317  10.027   7.397  0.5602 -0.6585  0.9393
  334MOL0     O44958   6.292   9.900   7.418  0.9068 -0.5419 -0.8740
  334MOL0     C44959   6.296   9.854   7.549 -0.1374  0.0783 -0.2145
  334MOL0     C44960   6.178   9.808   7.615 -0.2867  0.4081 -0.0044
  334MOL0     C44961   6.175   9.787   7.759 -0.7078  0.1497 -0.4968
  334MOL0     C44962   6.294   9.790   7.834 -1.1364  0.3136 -0.6569
  334MOL0     O44963   6.282   9.786   7.967  0.2538 -0.0363  0.3535
  334MOL0     C44964   6.194   9.879   8.027  0.2946  0.7489  0.3028
  334MOL0     C44965   6.156   9.847   8.163  0.1746 -0.3208  0.4725
  334MOL0     C44966   6.066   9.961   8.223 -0.2136 -0.4637 -0.7443
  334MOL0     C44967   5.917   9.940   8.182  0.0167  0.2014  1.1761
  334MOL0     C44968   5.816  10.066   8.199 -1.1162 -0.1483  0.3565
  334MOL0     C44969   5.669  10.036   8.163  1.3673  0.2721  0.2438
  334MOL0     C44970   5.575  10.153   8.200 -0.8477  0.5893  0.2252
  334MOL0     C44971   5.572  10.168   8.361 -0.5961 -0.3871 -0.4206
  334MOL0     N44972   5.519  10.307   8.389  0.6779  0.1115  0.0764
  334MOL0     C44973   5.574  10.389   8.483  0.3026 -0.9165  0.2319
  334MOL0     C44974   5.483  10.489   8.504  0.4948 -0.0651  1.2657
  334MOL0     C44975   5.485  10.606   8.595  0.2344  0.1788  0.4182
  334MOL0     C44976   5.452  10.566   8.737  0.4274  0.0236  0.1248
  334MOL0     C44977   5.554  10.477   8.805 -0.2599 -0.0727  0.5202
  334MOL0     C44978   5.603  10.544   8.937  0.1981  0.1561  0.7761
  334MOL0     O44979   5.684  10.457   9.015 -0.5232 -0.1169 -0.5268
  334MOL0     C44980   5.743  10.492   9.138  0.2069  0.0215  0.5531
  334MOL0     C44981   5.727  10.609   9.196 -1.1978 -0.7491 -0.4613
  334MOL0     C44982   5.798  10.643   9.308  0.5770 -0.6264 -0.7392
  334MOL0     C44983   5.892  10.546   9.366  0.4540 -0.8146  0.3953
  334MOL0     C44984   5.969  10.577   9.482 -0.5717  0.1968  0.0863
  334MOL0     O44985   5.944  10.686   9.552  0.9514  0.6884  0.8778
  334MOL0     C44986   6.033  10.726   9.653  0.1269  0.0688 -1.0903
  334MOL0     C44987   5.971  10.779   9.767 -0.0076 -0.1233 -0.2454
  334MOL0     C44988   6.050  10.832   9.869 -0.5475  0.9113  0.9447
  334MOL0     C44989   6.191  10.829   9.869 -0.1494  0.1896 -1.0404
  334MOL0     O44990   6.261  10.870   9.986  0.0240  0.1845  0.3818
  334MOL0     C44991   6.221  10.994  10.036  0.6130 -0.4163 -0.2646
  334MOL0     C44992   6.305  11.039  10.150  0.1934 -0.7984 -0.8387
  334MOL0     C44993   6.246  11.046  10.289  0.1208  0.2261 -0.6576
  334MOL0     C44994   6.160  10.924  10.322  0.3715  0.1697 -0.2247
  334MOL0     C44995   6.059  10.954  10.437  0.5170  0.4674 -0.2423
  334MOL0     C44996   6.105  11.056  10.544  0.1892  0.3377  0.4472
  334MOL0     C44997   6.022  11.048  10.666 -0.8316  0.2186 -0.3761
  334MOL0     C44998   6.049  11.142  10.778  0.2621  0.8724  0.2517
  334MOL0    Cl44999   5.929  11.110  10.916  0.3338  0.4326 -0.1159
  334MOL0     C45000   6.254  10.778   9.757 -0.3194  0.7338  0.2332
  334MOL0     C45001   6.173  10.720   9.655 -0.0874  0.5879  0.0174
  334MOL0     O45002   6.047  10.494   9.524 -0.2845  0.6555 -0.2603
  334MOL0     C45003   5.902  10.427   9.307  0.5332  0.5750  0.3663
  334MOL0     C45004   5.820  10.396   9.202 -1.0919  0.4756  0.1237
  334MOL0     N45005   5.377  10.461   8.427  0.6490  0.1820 -0.9038
  334MOL0     N45006   5.386  10.345   8.364 -0.5841 -0.6971  0.4589
  334MOL0     C45007   6.408   9.825   7.754 -0.0775 -0.5242  0.5124
  334MOL0     C45008   6.411   9.857   7.618 -0.1417 -0.6987  1.3321
  334MOL0     C45009   6.337  10.070   7.255 -0.9917  0.2589 -1.0268
  334MOL0     C45010   6.329   9.964   7.162  0.3126 -1.2248  1.0190
  334MOL0     C45011   6.357  10.001   7.026 -0.1352  0.4037 -1.4478
  334MOL0     C45012   6.370  10.141   6.990 -0.1013  0.6418 -0.2140
  334MOL0     O45013   6.359  10.155   6.848  0.3591  0.4712 -0.3780
  334MOL0     C45014   6.363  10.282   6.777 -0.5283  0.5758 -0.7407
  334MOL0     C45015   6.328  10.261   6.629  0.0172 -0.0026  0.0479
  334MOL0     C45016   6.458  10.248   6.550 -0.5559  0.4696  0.4892
  334MOL0     C45017   6.420  10.224   6.400 -0.4095 -1.1712  1.0742
  334MOL0     C45018   6.547  10.214   6.327  0.0077 -0.5298 -0.6668
  334MOL0     C45019   6.646  10.207   6.260  0.5605  0.2306 -0.4016
  334MOL0     C45020   6.375  10.235   7.087  0.0790 -0.4091  0.0744
  334MOL0     C45021   6.365  10.199   7.217  0.8248  0.2276  0.0847
  334MOL0     C45022   6.364  10.320   7.314 -0.0269 -0.4182 -0.0798
  334MOL0     H45023   6.083   9.803   7.561 -0.7610  2.8914  0.4711
  334MOL0     H45024   6.081   9.766   7.808 -0.4214 -2.3849 -0.9264
  334MOL0     H45025   6.262   9.963   8.042  2.6789 -1.3344  2.3178
  334MOL0     H45026   6.106   9.907   7.969  0.2149  2.4810  1.1882
  334MOL0     H45027   6.247   9.821   8.218  2.2290  2.6176 -1.2171
  334MOL0     H45028   6.098   9.756   8.146  0.2024 -0.0528 -1.3362
  334MOL0     H45029   6.095  10.060   8.187  0.7342 -0.8169 -0.9559
  334MOL0     H45030   6.079   9.947   8.330 -3.6928 -2.4704 -0.4148
  334MOL0     H45031   5.920   9.914   8.076  2.4097  0.4988  1.1347
  334MOL0     H45032   5.871   9.857   8.236 -1.3559 -0.1975 -0.5003
  334MOL0     H45033   5.825  10.106   8.300  0.9602  0.9176 -0.1859
  334MOL0     H45034   5.865  10.134   8.128 -1.2415 -1.3589 -0.9356
  334MOL0     H45035   5.652  10.016   8.057 -3.0024 -0.0363  0.8037
  334MOL0     H45036   5.638   9.951   8.225  1.0895  1.5680  1.9467
  334MOL0     H45037   5.477  10.136   8.155 -0.9967  1.0072  0.3834
  334MOL0     H45038   5.614  10.250   8.165 -1.5873  1.2513  1.1681
  334MOL0     H45039   5.514  10.086   8.403  1.3313 -1.0980  1.0234
  334MOL0     H45040   5.672  10.166   8.406 -0.8282  0.6808  0.1723
  334MOL0     H45041   5.675  10.386   8.523 -0.0488  2.0610  1.6083
  334MOL0     H45042   5.575  10.668   8.588  1.6806 -1.8769 -0.1758
  334MOL0     H45043   5.401  10.670   8.568 -1.4134 -1.3174  1.7788
  334MOL0     H45044   5.439  10.660   8.791  0.3975 -0.2221  0.5463
  334MOL0     H45045   5.359  10.512   8.759 -0.3938  0.7122 -1.5014
  334MOL0     H45046   5.637  10.456   8.737  0.9086 -1.1796  2.1892
  334MOL0     H45047   5.511  10.382   8.836  0.4750 -0.9441 -1.0312
  334MOL0     H45048   5.526  10.583   9.004  2.0134  1.7719  2.0125
  334MOL0     H45049   5.670  10.627   8.913  0.6060  0.1777  1.9296
  334MOL0     H45050   5.660  10.679   9.147  0.5099  0.5251 -1.1031
  334MOL0     H45051   5.782  10.741   9.352 -1.9598 -1.8024  1.2007
  334MOL0     H45052   5.864  10.793   9.751 -0.3433 -1.0277  1.0736
  334MOL0     H45053   6.011  10.874   9.961  1.8200  2.1016  1.4982
  334MOL0     H45054   6.230  11.062   9.951 -1.7492 -0.9670 -1.0143
  334MOL0     H45055   6.118  11.001  10.071  0.7417  1.5595 -0.1659
  334MOL0     H45056   6.393  10.974  10.147  0.3705 -0.5322 -1.8672
  334MOL0     H45057   6.350  11.138  10.133 -1.3266 -0.0712 -0.7880
  334MOL0     H45058   6.319  11.059  10.369  1.7299  0.5547 -2.1105
  334MOL0     H45059   6.181  11.134  10.288  2.9008  2.4055 -0.6875
  334MOL0     H45060   6.227  10.844  10.355 -0.4647 -0.7363 -0.6475
  334MOL0     H45061   6.105  10.880  10.238 -2.4707 -2.1866  2.5971
  334MOL0     H45062   6.034  10.868  10.500  0.1876  1.2909  0.7785
  334MOL0     H45063   5.968  10.996  10.394 -0.0495 -0.1091  0.3686
  334MOL0     H45064   6.197  11.016  10.589 -1.4171 -1.1198  2.6571
  334MOL0     H45065   6.128  11.151  10.497 -0.5473  0.3200  0.0339
  334MOL0     H45066   6.051  10.953  10.711  3.0671  2.8744  3.6584
  334MOL0     H45067   5.914  11.047  10.645 -0.6308 -1.2752 -1.4745
  334MOL0     H45068   6.154  11.122  10.798  0.0830 -0.4856 -0.1129
  334MOL0     H45069   6.051  11.243  10.736 -2.7941  0.2541 -1.6790
  334MOL0     H45070   6.362  10.776   9.746  0.0398  0.5237  3.0116
  334MOL0     H45071   6.220  10.688   9.563  0.8991 -0.2269  0.7741
  334MOL0     H45072   5.967  10.349   9.344 -0.8517  0.0902  1.9014
  334MOL0     H45073   5.823  10.295   9.161 -2.4442  1.0177 -1.4048
  334MOL0     H45074   6.507   9.845   7.793 -0.1201  1.4240 -0.2227
  334MOL0     H45075   6.502   9.890   7.569 -0.7870  2.8541  2.2790
  334MOL0     H45076   6.297   9.862   7.177 -1.9709 -1.0778 -1.9461
  334MOL0     H45077   6.348   9.932   6.943 -3.6819 -0.0427 -0.8591
  334MOL0     H45078   6.458  10.336   6.782  0.1541 -0.6696  1.9352
  334MOL0     H45079   6.288  10.351   6.818 -3.4005 -2.2579 -0.8121
  334MOL0     H45080   6.278  10.355   6.606  3.1936  1.7083 -0.3824
  334MOL0     H45081   6.263  10.173   6.621  1.0445 -1.7930  6.2054
  334MOL0     H45082   6.512  10.157   6.577 -1.3145  0.0472  0.6233
  334MOL0     H45083   6.526  10.332   6.563 -0.2118  0.5714 -1.6045
  334MOL0     H45084   6.365  10.131   6.385 -2.2502 -0.1906  1.5231
  334MOL0     H45085   6.362  10.303   6.353 -1.6129 -2.0635  1.0227
  334MOL0     H45086   6.724  10.206   6.187  2.1035 -1.4086  1.1543
  334MOL0     H45087   6.376  10.340   7.060  2.5866 -0.6747 -1.1290
  334MOL0     H45088   6.371  10.416   7.261 -4.2255  0.5854  0.8222
  334MOL0     H45089   6.261  10.319   7.351 -0.3260 -0.8423 -0.8986
  334MOL0     H45090   6.447  10.317   7.384  0.1838  1.2341 -0.2209
  335MOL0     O45091   6.990   1.547   1.130 -0.0367 -0.2016 -1.1581
  335MOL0     C45092   7.087   1.569   1.207  0.0831 -0.4245  0.2972
  335MOL0     O45093   7.156   1.688   1.211 -0.1810  0.1380 -0.0158
  335MOL0     C45094   7.094   1.796   1.146  0.0028  0.0688 -0.4330
  335MOL0     C45095   7.109   1.912   1.220 -0.2744 -0.4394  0.5509
  335MOL0     C45096   7.085   2.039   1.159  0.5496 -0.5517 -0.4658
  335MOL0     C45097   7.039   2.047   1.029 -0.3150  0.2866 -0.0671
  335MOL0     O45098   6.996   2.155   0.960  0.2110 -0.4606  0.5217
  335MOL0     C45099   7.033   2.288   1.008 -0.6894 -0.4264  0.1665
  335MOL0     C45100   6.974   2.393   0.910  0.4025 -0.1467 -0.8274
  335MOL0     C45101   7.050   2.388   0.775 -0.5218  0.0362 -0.7067
  335MOL0     C45102   6.990   2.466   0.660 -0.4155  1.0224 -0.3239
  335MOL0     C45103   6.992   2.614   0.686  0.4409  0.1994 -0.3773
  335MOL0     C45104   6.911   2.697   0.592  0.1301 -0.7376 -0.2225
  335MOL0     C45105   6.912   2.847   0.628  0.1010  0.2508 -0.0291
  335MOL0     C45106   7.036   2.909   0.582 -0.6491  0.3035 -0.5485
  335MOL0     N45107   7.041   3.053   0.571  1.4571 -0.1880 -0.9487
  335MOL0     C45108   7.094   3.128   0.468 -0.0735 -0.1098  0.5818
  335MOL0     C45109   7.066   3.259   0.487 -0.0894  0.6395  1.1864
  335MOL0     C45110   7.087   3.365   0.379 -0.1115 -0.5172 -0.0072
  335MOL0     C45111   7.081   3.505   0.446 -0.2569 -0.2444  0.2721
  335MOL0     C45112   7.140   3.622   0.366  0.1262  0.4168 -0.1165
  335MOL0     C45113   7.068   3.631   0.235  0.1254 -0.7168  0.6243
  335MOL0     O45114   7.113   3.753   0.162 -0.3356 -0.1226  0.4524
  335MOL0     C45115   7.102   3.755   0.027 -0.3234 -0.5963  0.8345
  335MOL0     C45116   7.144   3.642  -0.052 -0.7603  0.1834 -1.3939
  335MOL0     C45117   7.126   3.650  -0.197 -0.7593  0.3386 -0.6343
  335MOL0     C45118   7.060   3.760  -0.258  0.4189  0.1486  0.2320
  335MOL0     C45119   7.036   3.766  -0.408  0.7971  0.0035 -0.0980
  335MOL0     O45120   6.932   3.855  -0.436 -0.1658 -0.2548  0.6946
  335MOL0     C45121   6.896   3.892  -0.565  0.2648 -0.3378 -0.4908
  335MOL0     C45122   6.961   3.859  -0.685  0.1502  0.1640 -0.2545
  335MOL0     C45123   6.908   3.913  -0.810  0.7933 -0.5158  0.7159
  335MOL0     C45124   6.790   3.995  -0.809 -0.8581 -0.3964 -0.7799
  335MOL0     O45125   6.750   4.058  -0.918 -0.4708 -0.7749  0.2437
  335MOL0     C45126   6.622   4.131  -0.929  0.2782  0.7452 -0.9311
  335MOL0     C45127   6.606   4.194  -1.068 -0.5766  0.8324  1.1779
  335MOL0     C45128   6.495   4.299  -1.050  0.4895  0.3183  0.9874
  335MOL0     C45129   6.464   4.388  -1.164  0.4126 -0.3737 -0.2873
  335MOL0     C45130   6.339   4.468  -1.131  0.0002  0.1715 -0.3358
  335MOL0     C45131   6.264   4.528  -1.249 -0.2697 -0.5874  0.8897
  335MOL0     C45132   6.342   4.640  -1.322  0.2182 -0.7447  0.3396
  335MOL0     C45133   6.247   4.718  -1.409  0.1210 -0.2646  0.8914
  335MOL0    Cl45134   6.161   4.616  -1.516  0.0558 -0.0298 -0.3460
  335MOL0     C45135   6.736   4.024  -0.690 -1.3114 -0.1790 -0.6184
  335MOL0     C45136   6.776   3.970  -0.564 -0.0169  0.3248  0.6327
  335MOL0     O45137   7.075   3.679  -0.483 -0.2365  0.7838 -0.4005
  335MOL0     C45138   7.007   3.857  -0.175  1.0432 -1.1501  0.4026
  335MOL0     C45139   7.040   3.858  -0.042  0.2874  0.1327 -0.3232
  335MOL0     N45140   6.993   3.266   0.606 -0.6554 -0.5070 -0.4066
  335MOL0     N45141   6.977   3.142   0.655 -0.0131  0.0753  0.3518
  335MOL0     C45142   7.021   1.926   0.952 -0.5410 -0.2166 -0.5704
  335MOL0     C45143   7.058   1.798   1.008  0.4655 -1.0376 -0.6268
  335MOL0     C45144   7.128   1.465   1.296  0.8146  0.4559  0.3640
  335MOL0     C45145   7.204   1.504   1.409  0.0802  0.8591 -0.9304
  335MOL0     C45146   7.255   1.402   1.491 -0.2709 -0.3258 -0.2602
  335MOL0     C45147   7.225   1.271   1.486 -0.0152  0.8140  0.8738
  335MOL0     O45148   7.251   1.176   1.576  0.1927  0.5472 -0.8904
  335MOL0     C45149   7.339   1.194   1.690 -0.5011 -0.3593 -0.3758
  335MOL0     C45150   7.265   1.186   1.825 -0.3321  0.7998  0.6128
  335MOL0     C45151   7.231   1.045   1.875 -0.4157 -0.6718 -0.4179
  335MOL0     C45152   7.354   0.966   1.932 -0.0942 -0.1645  0.3502
  335MOL0     C45153   7.304   0.835   1.962  0.0664 -0.0527 -2.0741
  335MOL0     C45154   7.271   0.725   1.999  1.0206  0.2720  0.9119
  335MOL0     C45155   7.142   1.234   1.372 -0.9985  0.4533  0.2188
  335MOL0     C45156   7.092   1.329   1.273 -1.0775  0.1089  0.3075
  335MOL0     C45157   7.014   1.263   1.160 -0.1867 -0.8477 -0.2565
  335MOL0     H45158   7.154   1.905   1.319 -0.4240 -3.0691  0.5115
  335MOL0     H45159   7.092   2.124   1.226  5.8315 -0.8070 -0.2443
  335MOL0     H45160   6.989   2.313   1.105 -0.7510  4.0965 -0.8000
  335MOL0     H45161   7.141   2.305   0.999 -1.1213  1.6169 -2.7917
  335MOL0     H45162   7.000   2.489   0.956  2.8358 -1.6995  1.2835
  335MOL0     H45163   6.868   2.385   0.883  1.3416 -3.6295 -4.4494
  335MOL0     H45164   7.067   2.285   0.745 -1.1603 -0.1248 -0.5271
  335MOL0     H45165   7.152   2.425   0.788 -1.1917  1.9127 -0.5017
  335MOL0     H45166   7.046   2.449   0.568  1.4246  1.9905  0.5680
  335MOL0     H45167   6.891   2.427   0.635 -0.4785 -0.2433  1.6234
  335MOL0     H45168   6.929   2.635   0.774 -1.5671  0.5590 -1.8375
  335MOL0     H45169   7.098   2.639   0.696  1.2932 -1.9851 -3.0528
  335MOL0     H45170   6.960   2.688   0.495  1.3890  0.3078  0.2719
  335MOL0     H45171   6.807   2.663   0.584 -0.1701 -1.0034  3.2832
  335MOL0     H45172   6.915   2.860   0.736  1.1864 -0.1577  0.0070
  335MOL0     H45173   6.822   2.902   0.602  0.5082  1.2944  0.7142
  335MOL0     H45174   7.123   2.861   0.626 -0.4599 -0.4302 -1.6667
  335MOL0     H45175   7.044   2.898   0.473  3.7267  5.1809 -1.0780
  335MOL0     H45176   7.140   3.099   0.374 -2.3019 -0.8404 -0.3583
  335MOL0     H45177   7.187   3.351   0.337  0.4714  0.4841  1.0046
  335MOL0     H45178   7.016   3.360   0.296  2.0488 -0.2348 -1.9957
  335MOL0     H45179   6.978   3.531   0.471 -0.3506 -2.0911  2.1035
  335MOL0     H45180   7.138   3.520   0.538  0.1166  1.1105 -0.1541
  335MOL0     H45181   7.245   3.601   0.349 -0.1859 -0.8341 -0.6305
  335MOL0     H45182   7.126   3.719   0.416 -1.6246 -0.6206  1.6015
  335MOL0     H45183   6.960   3.636   0.254 -1.0275 -0.9042 -4.3637
  335MOL0     H45184   7.071   3.538   0.179 -1.0367 -3.2232  4.3556
  335MOL0     H45185   7.199   3.565   0.001 -1.6512  0.9412  0.7439
  335MOL0     H45186   7.172   3.568  -0.251 -0.7156 -3.9995  5.0009
  335MOL0     H45187   7.058   3.811  -0.675  0.7963  1.7637  2.1069
  335MOL0     H45188   6.963   3.887  -0.900  3.1212 -0.0823  1.9611
  335MOL0     H45189   6.537   4.067  -0.904  1.1721 -0.6003 -1.2096
  335MOL0     H45190   6.630   4.218  -0.864 -1.9759 -0.0756  0.5679
  335MOL0     H45191   6.695   4.253  -1.092  1.5737  0.8129  7.1702
  335MOL0     H45192   6.576   4.120  -1.143 -2.2129  0.7426  1.8791
  335MOL0     H45193   6.403   4.244  -1.027 -0.2575  2.2693  2.9952
  335MOL0     H45194   6.511   4.362  -0.962  0.8317 -1.2278  2.0815
  335MOL0     H45195   6.444   4.318  -1.245  1.6741  0.2103 -1.1241
  335MOL0     H45196   6.545   4.451  -1.201  1.0779 -1.5513 -0.8812
  335MOL0     H45197   6.360   4.552  -1.064  0.2442 -1.3475  1.5814
  335MOL0     H45198   6.269   4.397  -1.086 -1.8055  1.9270 -0.2217
  335MOL0     H45199   6.250   4.445  -1.319  0.7673  0.2982 -0.4065
  335MOL0     H45200   6.170   4.575  -1.219 -1.9801  0.8659 -5.2209
  335MOL0     H45201   6.415   4.598  -1.392  1.7901 -1.1296  2.0944
  335MOL0     H45202   6.385   4.707  -1.246  0.4371  0.0048 -0.4339
  335MOL0     H45203   6.183   4.782  -1.347  0.0200 -1.3649  1.9671
  335MOL0     H45204   6.314   4.786  -1.462 -0.5088  0.9095  1.5673
  335MOL0     H45205   6.664   4.104  -0.673 -1.7209 -0.9868  1.8510
  335MOL0     H45206   6.737   4.006  -0.470 -1.3639 -1.3298  0.7470
  335MOL0     H45207   6.935   3.930  -0.213  1.6845 -2.3585 -3.5485
  335MOL0     H45208   6.990   3.936   0.014  2.1098  0.1716  1.3668
  335MOL0     H45209   6.972   1.942   0.857  0.0079  1.0888 -0.6565
  335MOL0     H45210   7.056   1.705   0.952  0.1237 -1.9122  0.7885
  335MOL0     H45211   7.240   1.603   1.436 -3.0513  1.7353  0.4407
  335MOL0     H45212   7.326   1.435   1.566 -1.5785 -0.4641  1.0759
  335MOL0     H45213   7.406   1.279   1.679 -1.7275  0.8884  1.3260
  335MOL0     H45214   7.415   1.116   1.704  0.7716  1.0874  1.0695
  335MOL0     H45215   7.180   1.255   1.821  0.5869  1.9970  0.8744
  335MOL0     H45216   7.327   1.248   1.891  0.4994  0.1141  0.4787
  335MOL0     H45217   7.172   0.992   1.800 -3.3108  0.3766  0.9545
  335MOL0     H45218   7.155   1.058   1.953  1.9832 -0.2049  2.0056
  335MOL0     H45219   7.440   0.951   1.865 -0.5683 -1.3657 -0.0187
  335MOL0     H45220   7.389   1.022   2.019 -0.4253  3.0382 -1.4207
  335MOL0     H45221   7.238   0.634   2.044 -3.1984  1.5256  0.7605
  335MOL0     H45222   7.127   1.127   1.362 -0.2303  0.2660  0.9584
  335MOL0     H45223   6.913   1.273   1.199 -0.6851 -2.2259 -1.1337
  335MOL0     H45224   7.025   1.311   1.062  1.4797  2.2069  1.2662
  335MOL0     H45225   7.030   1.156   1.145 -2.4253 -1.1671 -0.5872
  336MOL0     O45226   9.201   4.058   9.946  0.4212 -0.6296 -0.7696
  336MOL0     C45227   9.207   4.045   9.826  0.7391  0.3528  0.0398
  336MOL0     O45228   9.090   4.060   9.742  0.1715  0.0072  0.6471
  336MOL0     C45229   8.988   4.136   9.794 -0.3063  0.4506 -0.0756
  336MOL0     C45230   8.925   4.115   9.924  0.1406  0.3248 -0.2408
  336MOL0     C45231   8.812   4.190   9.957  0.5596 -0.3895 -0.3794
  336MOL0     C45232   8.770   4.288   9.869 -0.1043 -1.2430  0.7627
  336MOL0     O45233   8.663   4.368   9.886 -0.3648  0.9351  0.5615
  336MOL0     C45234   8.559   4.328   9.963  0.5752  0.5995  0.3363
  336MOL0     C45235   8.564   4.383  10.108 -0.1291  0.4704  1.2768
  336MOL0     C45236   8.429   4.359  10.181 -0.4788  0.2436 -0.0624
  336MOL0     C45237   8.441   4.263  10.296  0.6930 -0.5431  0.0932
  336MOL0     C45238   8.314   4.268  10.380  0.0548  0.0666 -0.7334
  336MOL0     C45239   8.235   4.135  10.378  0.3857 -0.8657  0.5233
  336MOL0     C45240   8.119   4.120  10.475 -0.1179 -0.3073  0.3518
  336MOL0     C45241   8.166   4.083  10.616 -1.3908 -0.8736  0.5680
  336MOL0     N45242   8.256   3.968  10.637 -0.9318 -0.0591 -0.2873
  336MOL0     C45243   8.223   3.846  10.579  0.3326 -0.5244  0.4535
  336MOL0     C45244   8.338   3.772  10.585  0.4154 -0.3587  0.1706
  336MOL0     C45245   8.380   3.647  10.514  0.4603  0.6497  0.2907
  336MOL0     C45246   8.295   3.524  10.571 -0.5916  0.0300 -1.1779
  336MOL0     C45247   8.324   3.484  10.721 -0.0499 -0.7666 -0.8355
  336MOL0     C45248   8.273   3.561  10.834  0.3238  1.0902  0.1554
  336MOL0     O45249   8.336   3.515  10.952 -0.1820  0.3183 -0.0555
  336MOL0     C45250   8.323   3.597  11.065 -1.0186  0.4449  0.4808
  336MOL0     C45251   8.400   3.548  11.171 -0.1159 -0.9686 -0.0742
  336MOL0     C45252   8.398   3.610  11.300 -0.2555 -0.3223 -0.3095
  336MOL0     C45253   8.319   3.720  11.317  0.0289 -0.2315  0.8409
  336MOL0     C45254   8.294   3.768  11.449  0.3232  0.5639  0.2914
  336MOL0     O45255   8.173   3.824  11.475 -0.1316 -0.3568  0.2220
  336MOL0     C45256   8.153   3.875  11.610 -0.0366  0.7044 -0.5304
  336MOL0     C45257   8.031   3.843  11.674 -0.4833 -0.1115 -0.3368
  336MOL0     C45258   7.988   3.904  11.789 -0.3075  0.3452  0.5680
  336MOL0     C45259   8.081   3.982  11.857  0.5849  0.2082 -0.2483
  336MOL0     O45260   8.054   4.046  11.973 -0.1315  0.2065  0.6639
  336MOL0     C45261   7.923   4.056  12.030  0.6709 -0.5225  0.3229
  336MOL0     C45262   7.838   4.153  11.954  0.1790  0.1627  0.9450
  336MOL0     C45263   7.915   4.289  11.938 -0.5225 -0.5089 -0.2481
  336MOL0     C45264   7.820   4.400  11.899 -0.5423  0.9723 -0.0446
  336MOL0     C45265   7.893   4.527  11.946 -0.0111 -0.2006  0.0084
  336MOL0     C45266   7.798   4.650  11.942  0.4446 -1.6869  0.4006
  336MOL0     C45267   7.779   4.713  11.801  1.2813  0.1054 -0.4213
  336MOL0     C45268   7.903   4.766  11.729  1.0815 -0.5091 -0.6031
  336MOL0    Cl45269   7.957   4.662  11.593 -0.0367  0.4871  0.0074
  336MOL0     C45270   8.208   4.006  11.801  0.1654 -0.1402 -0.8821
  336MOL0     C45271   8.236   3.961  11.675  0.1608 -0.7272  0.3878
  336MOL0     O45272   8.382   3.748  11.537 -0.3347  0.8176  0.6304
  336MOL0     C45273   8.257   3.778  11.204 -0.7141 -0.7973  0.4602
  336MOL0     C45274   8.260   3.713  11.081  1.1986 -0.0753 -0.2942
  336MOL0     N45275   8.432   3.847  10.652 -0.1097 -1.0060 -0.5321
  336MOL0     N45276   8.380   3.964  10.680 -0.8422  0.0087 -0.3736
  336MOL0     C45277   8.835   4.307   9.749  1.0425 -0.3806  0.1116
  336MOL0     C45278   8.942   4.234   9.709  0.6055 -0.6763  0.3479
  336MOL0     C45279   9.329   4.005   9.754  0.1977 -0.8727 -0.8385
  336MOL0     C45280   9.311   3.982   9.611 -0.4265 -0.0887  0.0535
  336MOL0     C45281   9.434   3.977   9.538  0.9293  0.0977 -0.0768
  336MOL0     C45282   9.556   3.976   9.593  0.9660  0.4403 -0.5138
  336MOL0     O45283   9.664   3.957   9.507 -0.0951 -0.6217  0.8392
  336MOL0     C45284   9.797   3.924   9.563  0.1706  0.7717 -0.0618
  336MOL0     C45285   9.897   4.023   9.520 -0.4603 -0.4072  1.3370
  336MOL0     C45286   9.911   4.016   9.362  0.5147  0.1895  0.1090
  336MOL0     C45287   9.976   4.147   9.323 -0.6947  0.6105  0.3564
  336MOL0     C45288   9.962   4.174   9.175  0.7882 -0.1575  0.1866
  336MOL0     C45289   9.946   4.187   9.057 -0.6427 -0.3543  0.2137
  336MOL0     C45290   9.562   3.973   9.732  0.0821 -0.2010 -0.8210
  336MOL0     C45291   9.455   3.992   9.814  0.1750  0.0375  0.3463
  336MOL0     C45292   9.493   4.011   9.956 -0.4152 -0.1990  0.9700
  336MOL0     H45293   8.956   4.032   9.987  0.6774  1.5413  1.1518
  336MOL0     H45294   8.759   4.176  10.051  1.9987 -1.1689  0.3600
  336MOL0     H45295   8.477   4.358   9.898  1.1688 -1.3736 -1.4472
  336MOL0     H45296   8.547   4.219   9.965 -2.8893  0.8785  0.1856
  336MOL0     H45297   8.571   4.492  10.097 -0.1485  0.3399 -0.3258
  336MOL0     H45298   8.646   4.333  10.159 -0.5921 -0.0893  1.4753
  336MOL0     H45299   8.364   4.305  10.112 -0.0789 -0.0379 -0.2186
  336MOL0     H45300   8.370   4.446  10.212 -1.3668 -0.5198  0.4357
  336MOL0     H45301   8.463   4.167  10.249  0.8860  0.7181 -2.5545
  336MOL0     H45302   8.528   4.284  10.358  1.9932 -4.3928 -0.1547
  336MOL0     H45303   8.355   4.270  10.481  0.8828 -3.3086 -0.8829
  336MOL0     H45304   8.258   4.356  10.345  0.1006 -0.6578 -2.7667
  336MOL0     H45305   8.191   4.119  10.280  0.5688 -1.8805  0.6032
  336MOL0     H45306   8.309   4.057  10.394 -0.7240 -2.1829 -0.6010
  336MOL0     H45307   8.048   4.046  10.438 -3.5728  1.3385  3.0362
  336MOL0     H45308   8.055   4.209  10.475 -1.4513 -1.2213 -0.6958
  336MOL0     H45309   8.206   4.171  10.666 -0.0358 -1.1705  0.0643
  336MOL0     H45310   8.073   4.051  10.664 -1.1225  0.0939  1.7796
  336MOL0     H45311   8.134   3.817  10.525 -1.1073  1.1697  1.8093
  336MOL0     H45312   8.363   3.658  10.407 -5.2623  3.0917  1.0744
  336MOL0     H45313   8.485   3.619  10.531  0.1138 -0.5752  0.5121
  336MOL0     H45314   8.190   3.553  10.557 -1.3537 -2.7840 -2.0730
  336MOL0     H45315   8.298   3.437  10.505 -1.0428 -0.6286 -0.3522
  336MOL0     H45316   8.432   3.469  10.734  0.0671  0.3225 -0.4686
  336MOL0     H45317   8.283   3.386  10.747  2.0942 -0.9450  2.5290
  336MOL0     H45318   8.171   3.524  10.848  0.8162  0.6596  3.3205
  336MOL0     H45319   8.280   3.667  10.808  4.0941  0.2081 -3.4576
  336MOL0     H45320   8.459   3.457  11.163  0.4224 -0.5263 -1.3438
  336MOL0     H45321   8.431   3.554  11.387  0.6376 -1.2509 -1.1986
  336MOL0     H45322   7.961   3.777  11.625  0.2089 -0.3749 -0.9894
  336MOL0     H45323   7.889   3.874  11.823 -0.1500 -0.6873  0.1592
  336MOL0     H45324   7.859   3.967  12.034  2.2230 -1.6199  3.1065
  336MOL0     H45325   7.943   4.082  12.134  0.8806 -4.0656  1.3112
  336MOL0     H45326   7.791   4.118  11.861  0.2127  2.5585 -0.0515
  336MOL0     H45327   7.766   4.168  12.034  0.2867 -1.1964  1.3141
  336MOL0     H45328   7.953   4.311  12.038 -2.6641  2.8211  0.0038
  336MOL0     H45329   7.989   4.273  11.859  1.0981 -1.5711  1.4277
  336MOL0     H45330   7.723   4.401  11.949 -0.4758 -1.8045  0.2492
  336MOL0     H45331   7.806   4.388  11.791  0.8707 -2.6619  0.0263
  336MOL0     H45332   7.984   4.539  11.886  0.4925  1.0507  0.9733
  336MOL0     H45333   7.928   4.504  12.047  2.6222  0.9738 -0.5577
  336MOL0     H45334   7.705   4.623  11.993  1.8136 -1.3200  3.2759
  336MOL0     H45335   7.848   4.725  12.003  1.1786 -1.8446  0.0129
  336MOL0     H45336   7.706   4.795  11.807  1.5134  0.3467 -0.8576
  336MOL0     H45337   7.726   4.651  11.728  0.9632  2.4140 -2.2937
  336MOL0     H45338   7.884   4.865  11.687  1.7211 -0.0876  0.0753
  336MOL0     H45339   7.981   4.776  11.805 -0.5673  0.8125  1.0256
  336MOL0     H45340   8.261   4.066  11.873 -0.8377 -2.7566  2.3160
  336MOL0     H45341   8.333   3.989  11.635  0.9448  1.1017  3.2352
  336MOL0     H45342   8.201   3.871  11.206 -0.6764 -0.7081 -1.2626
  336MOL0     H45343   8.204   3.756  10.999 -0.7912 -0.2855  0.8963
  336MOL0     H45344   8.796   4.390   9.691 -2.2244 -0.0211  2.5580
  336MOL0     H45345   8.986   4.254   9.612  1.2584 -5.7722 -0.6745
  336MOL0     H45346   9.211   3.974   9.569 -0.2737  0.0498 -0.3417
  336MOL0     H45347   9.424   3.977   9.430  2.0331  1.7778 -0.2128
  336MOL0     H45348   9.822   3.823   9.530 -2.5521 -0.4090  1.1978
  336MOL0     H45349   9.807   3.906   9.670 -0.0186 -1.4528 -0.3550
  336MOL0     H45350   9.997   4.003   9.562 -0.4610  0.2112  1.6459
  336MOL0     H45351   9.857   4.117   9.559 -0.4700 -0.9339  2.6526
  336MOL0     H45352   9.815   4.010   9.311  0.1466  1.8397  0.5253
  336MOL0     H45353   9.970   3.933   9.324 -2.0311 -0.7286 -2.1419
  336MOL0     H45354   9.930   4.236   9.368 -2.7691 -1.0098  1.5927
  336MOL0     H45355  10.082   4.143   9.350 -1.0631 -1.7599  1.6702
  336MOL0     H45356   9.902   4.188   8.960  0.2181 -1.7125 -0.2124
  336MOL0     H45357   9.657   3.966   9.784 -0.7078  3.0176  1.3140
  336MOL0     H45358   9.597   4.044   9.948 -1.1586  2.0191 -5.5761
  336MOL0     H45359   9.441   4.095  10.002 -0.8633 -1.7740  3.5370
  336MOL0     H45360   9.469   3.920  10.012  0.1212 -1.6457 -1.0304
  337MOL0     O45361   9.949  11.334   8.128 -0.5951 -0.4633 -0.8254
  337MOL0     C45362   9.992  11.354   8.018  0.5713  0.6308  0.0574
  337MOL0     O45363  10.002  11.478   7.957 -0.6450  0.3326 -0.1852
  337MOL0     C45364   9.954  11.594   8.017  0.2030 -0.6925  0.0783
  337MOL0     C45365   9.820  11.628   8.017 -0.1837  0.0200  0.0719
  337MOL0     C45366   9.788  11.745   8.078 -0.5462  0.5157 -0.2384
  337MOL0     C45367   9.873  11.840   8.131 -0.3425 -0.0930  0.3303
  337MOL0     O45368   9.819  11.964   8.179  0.2178 -0.7095 -0.0595
  337MOL0     C45369   9.914  12.065   8.191 -0.0745  0.9318  1.2031
  337MOL0     C45370   9.853  12.200   8.175 -0.4321  0.7633 -0.7672
  337MOL0     C45371   9.762  12.229   8.057  0.3100 -0.1800  0.1578
  337MOL0     C45372   9.834  12.199   7.929  0.0082  0.0771 -0.1550
  337MOL0     C45373   9.759  12.260   7.806 -0.5247  0.0177 -0.0623
  337MOL0     C45374   9.807  12.213   7.674  0.7172 -0.2169 -0.4065
  337MOL0     C45375   9.960  12.214   7.653 -0.0253 -0.7393 -0.7694
  337MOL0     C45376  10.015  12.203   7.510 -0.5888  0.2139  0.2233
  337MOL0     N45377  10.160  12.220   7.510  0.3955  0.1381  0.1322
  337MOL0     C45378  10.257  12.162   7.592 -0.1773  0.3443  0.9053
  337MOL0     C45379  10.371  12.226   7.558 -1.2875 -0.4177 -0.9648
  337MOL0     C45380  10.511  12.206   7.614  0.2326  0.5832  0.9600
  337MOL0     C45381  10.530  12.316   7.732 -0.7451  0.2965  0.0358
  337MOL0     C45382  10.507  12.258   7.868 -0.0843  0.5739 -0.7038
  337MOL0     C45383  10.510  12.369   7.970  0.2481 -0.6188 -0.7702
  337MOL0     O45384  10.642  12.429   7.972  0.2497 -0.3175  1.1038
  337MOL0     C45385  10.729  12.414   8.068  0.5471  1.2227  0.3895
  337MOL0     C45386  10.708  12.487   8.187  0.0569  0.4817 -0.0182
  337MOL0     C45387  10.788  12.468   8.303  0.1070  0.0119  0.8895
  337MOL0     C45388  10.896  12.362   8.283 -0.3117 -0.0855 -0.2482
  337MOL0     C45389  10.987  12.335   8.400 -0.0509 -0.3992  0.2634
  337MOL0     O45390  11.032  12.443   8.467 -0.3986  0.2649 -0.0449
  337MOL0     C45391  11.126  12.417   8.566 -0.5220  0.4027 -0.2336
  337MOL0     C45392  11.253  12.477   8.572  0.5025 -1.0415 -0.0437
  337MOL0     C45393  11.330  12.459   8.683  0.5318 -0.4976  0.5489
  337MOL0     C45394  11.308  12.365   8.777 -0.5593 -0.5601 -1.0436
  337MOL0     O45395  11.386  12.333   8.886 -0.0226 -0.4637 -0.6252
  337MOL0     C45396  11.527  12.312   8.855  0.1896 -0.1872 -0.1945
  337MOL0     C45397  11.597  12.250   8.979  0.6779 -0.8027  0.3915
  337MOL0     C45398  11.742  12.192   8.967 -0.2961  0.5263  0.4688
  337MOL0     C45399  11.728  12.047   8.903  0.7797 -0.2458 -0.5146
  337MOL0     C45400  11.871  11.986   8.893  0.3425 -0.1457  0.0483
  337MOL0     C45401  11.874  11.839   8.850  0.3775  0.7294 -1.1884
  337MOL0     C45402  12.016  11.774   8.849 -0.4074 -0.2121  1.2594
  337MOL0     C45403  12.004  11.626   8.811 -0.4311 -0.4529  0.1085
  337MOL0    Cl45404  12.168  11.570   8.778  0.1486 -0.1384  0.0967
  337MOL0     C45405  11.193  12.287   8.774  0.8010 -0.5650  0.1090
  337MOL0     C45406  11.100  12.322   8.676  0.6003 -0.4950 -0.5576
  337MOL0     O45407  11.025  12.220   8.401  0.4355  0.4735 -0.7520
  337MOL0     C45408  10.915  12.292   8.164  0.6585 -0.0784  0.0149
  337MOL0     C45409  10.835  12.326   8.061  1.1458 -0.1619  0.7545
  337MOL0     N45410  10.337  12.310   7.450 -0.8263  0.4229 -0.6681
  337MOL0     N45411  10.212  12.317   7.434  0.3879 -0.3922  0.0504
  337MOL0     C45412  10.006  11.799   8.143 -0.4546  0.2386 -0.3529
  337MOL0     C45413  10.044  11.679   8.077 -0.3777 -0.2123  0.1272
  337MOL0     C45414  10.028  11.236   7.941  0.4380 -0.0352 -0.3264
  337MOL0     C45415  10.068  11.115   8.011  1.2066 -0.0603 -0.2584
  337MOL0     C45416  10.121  11.015   7.932  0.4696 -0.3649  0.8790
  337MOL0     C45417  10.139  11.023   7.796  0.0421 -0.9047  0.7453
  337MOL0     O45418  10.195  10.926   7.713  0.0797  0.6429  0.2443
  337MOL0     C45419  10.235  10.803   7.773 -0.7293 -0.1738 -0.1593
  337MOL0     C45420  10.301  10.721   7.656  0.5035 -1.3897 -0.0274
  337MOL0     C45421  10.186  10.671   7.562 -0.2429 -1.0008  0.6957
  337MOL0     C45422  10.251  10.587   7.446  0.0306 -0.7084 -0.0844
  337MOL0     C45423  10.297  10.452   7.471 -1.5343 -0.3785 -0.3090
  337MOL0     C45424  10.344  10.348   7.502 -0.9954  0.8161  0.4531
  337MOL0     C45425  10.093  11.135   7.729  0.3778 -0.4602 -0.0305
  337MOL0     C45426  10.048  11.252   7.796  0.4765  0.3197 -0.1760
  337MOL0     C45427  10.000  11.363   7.704 -1.0976  0.2705  0.8188
  337MOL0     H45428   9.748  11.547   8.000 -2.7149  2.1221  0.1429
  337MOL0     H45429   9.684  11.774   8.063 -0.4754  0.3714 -1.0637
  337MOL0     H45430   9.971  12.067   8.284  0.3909  1.2313  0.9195
  337MOL0     H45431   9.986  12.048   8.110  0.6384  0.3672  1.9457
  337MOL0     H45432   9.935  12.272   8.168 -1.9411  2.5071 -1.5945
  337MOL0     H45433   9.794  12.212   8.267 -1.4109 -0.0424 -1.2673
  337MOL0     H45434   9.734  12.334   8.054  2.0216  0.3247  0.7727
  337MOL0     H45435   9.675  12.163   8.068  0.0850  0.4076  2.5073
  337MOL0     H45436   9.934  12.241   7.939  1.4565 -3.5698  3.0025
  337MOL0     H45437   9.846  12.093   7.907  0.9555  0.0184  0.5774
  337MOL0     H45438   9.654  12.230   7.813 -0.3916 -1.0761 -2.1338
  337MOL0     H45439   9.774  12.368   7.818  4.4435 -0.5263  0.5710
  337MOL0     H45440   9.780  12.110   7.649  0.5905 -0.1829 -0.4091
  337MOL0     H45441   9.749  12.272   7.603 -2.8336 -1.6268  1.0892
  337MOL0     H45442   9.994  12.131   7.716  0.4664 -1.5409 -2.0451
  337MOL0     H45443  10.006  12.300   7.702  4.0958 -3.7760  1.2570
  337MOL0     H45444   9.999  12.106   7.463  0.4947  0.7538 -1.3395
  337MOL0     H45445   9.978  12.279   7.441 -0.6856  1.3071  1.4356
  337MOL0     H45446  10.226  12.094   7.671 -1.1653  0.1994  0.4100
  337MOL0     H45447  10.524  12.103   7.649  0.0392 -0.4062 -1.6516
  337MOL0     H45448  10.575  12.221   7.526  1.1771 -3.8567  0.6484
  337MOL0     H45449  10.635  12.336   7.709 -0.6675 -3.0244 -3.6188
  337MOL0     H45450  10.448  12.385   7.710 -0.1889  0.2044 -2.6236
  337MOL0     H45451  10.583  12.183   7.891 -2.3040 -1.3332  0.8611
  337MOL0     H45452  10.413  12.202   7.865  0.3503 -0.1414 -1.7115
  337MOL0     H45453  10.479  12.334   8.069  1.2945  1.3479  0.3063
  337MOL0     H45454  10.436  12.440   7.933  0.5215 -0.1066 -0.3370
  337MOL0     H45455  10.624  12.555   8.181 -1.2900 -1.0394  0.7134
  337MOL0     H45456  10.756  12.513   8.396 -1.6858  3.3678 -1.1385
  337MOL0     H45457  11.275  12.542   8.488  0.4338 -0.7316  0.1754
  337MOL0     H45458  11.420  12.520   8.693  0.7014 -1.0272  2.8240
  337MOL0     H45459  11.542  12.236   8.778  2.9008 -0.7535  0.7687
  337MOL0     H45460  11.562  12.411   8.824 -0.1391 -0.0781 -0.2233
  337MOL0     H45461  11.595  12.339   9.042  1.3896  1.7155 -2.8758
  337MOL0     H45462  11.525  12.172   9.008 -0.0911 -1.5725 -3.1624
  337MOL0     H45463  11.809  12.252   8.905  2.8297 -1.3594  1.8457
  337MOL0     H45464  11.788  12.188   9.066  2.1076 -1.0192 -0.6333
  337MOL0     H45465  11.687  12.050   8.801  3.0915  2.3650 -1.5079
  337MOL0     H45466  11.658  11.992   8.966  0.5507 -0.2375 -0.7595
  337MOL0     H45467  11.909  11.986   8.995 -4.1750  2.1314  2.0196
  337MOL0     H45468  11.930  12.049   8.825 -4.3213  2.3557 -2.1433
  337MOL0     H45469  11.804  11.788   8.916  0.5086  3.0479  0.8490
  337MOL0     H45470  11.840  11.836   8.746 -0.4265 -0.9540 -0.9164
  337MOL0     H45471  12.081  11.788   8.936 -1.7746  1.6223  2.0466
  337MOL0     H45472  12.081  11.810   8.769 -1.1340 -0.2514  0.6439
  337MOL0     H45473  11.948  11.561   8.879  0.6607 -1.1964  0.3114
  337MOL0     H45474  11.953  11.615   8.715  1.1959  0.0509 -0.8330
  337MOL0     H45475  11.178  12.210   8.849  1.6272 -0.9621 -0.1278
  337MOL0     H45476  11.002  12.276   8.670 -0.3870  1.3562  0.2779
  337MOL0     H45477  10.986  12.211   8.152  1.5502  0.7928 -0.8400
  337MOL0     H45478  10.845  12.270   7.969 -3.2366 -1.7534  0.9979
  337MOL0     H45479  10.075  11.862   8.199 -4.2422  1.7299  3.1817
  337MOL0     H45480  10.145  11.639   8.073 -0.1058  0.5834 -2.5222
  337MOL0     H45481  10.063  11.093   8.117  1.0458  2.8847  0.4582
  337MOL0     H45482  10.150  10.923   7.981 -1.2450  0.4736  3.6602
  337MOL0     H45483  10.150  10.762   7.829 -0.3501  1.2135  1.5222
  337MOL0     H45484  10.324  10.813   7.836  0.3960 -1.3295 -1.4802
  337MOL0     H45485  10.352  10.633   7.695 -2.5943 -3.5260 -0.4011
  337MOL0     H45486  10.360  10.791   7.595 -0.3890 -1.2260 -0.7267
  337MOL0     H45487  10.135  10.755   7.514 -0.4042 -1.8173 -0.6182
  337MOL0     H45488  10.117  10.599   7.607 -2.7219  0.4864 -0.5318
  337MOL0     H45489  10.174  10.595   7.369 -0.6488  2.4148  0.7590
  337MOL0     H45490  10.332  10.650   7.406  0.5145 -1.6179 -0.5641
  337MOL0     H45491  10.398  10.256   7.512  2.0474  1.6721 -4.7221
  337MOL0     H45492  10.082  11.142   7.621 -2.5856 -2.9307 -0.0288
  337MOL0     H45493   9.990  11.326   7.601  0.2995 -1.1091  1.1379
  337MOL0     H45494   9.911  11.409   7.747  1.5197  4.5062  2.3216
  337MOL0     H45495  10.073  11.444   7.715  1.5086 -1.6818 -0.8251
  338MOL0     O45496  10.542   5.039   0.604 -0.3057 -1.2150  0.7179
  338MOL0     C45497  10.587   5.104   0.518  1.1043 -0.0395 -0.2234
  338MOL0     O45498  10.660   5.211   0.542  0.2393 -1.1063 -0.1059
  338MOL0     C45499  10.717   5.233   0.673  0.0161  0.1533  0.1377
  338MOL0     C45500  10.810   5.145   0.727 -0.3506 -0.2521 -0.4730
  338MOL0     C45501  10.861   5.173   0.858 -0.2685  0.0993 -0.4917
  338MOL0     C45502  10.829   5.280   0.939  0.4865 -0.2154  0.2006
  338MOL0     O45503  10.894   5.302   1.061 -0.2018  0.0715  0.8337
  338MOL0     C45504  10.787   5.284   1.165 -1.0781  0.0341 -0.7094
  338MOL0     C45505  10.813   5.380   1.286  0.3658  0.2226  0.9459
  338MOL0     C45506  10.810   5.532   1.257  0.0426 -0.4535  0.1708
  338MOL0     C45507  10.664   5.580   1.230 -0.3362  0.7007 -0.3603
  338MOL0     C45508  10.662   5.736   1.232  1.1698  0.9172 -0.1897
  338MOL0     C45509  10.775   5.812   1.168 -0.4144 -0.6130  0.2481
  338MOL0     C45510  10.730   5.950   1.150 -0.3129 -0.7137 -0.6344
  338MOL0     C45511  10.828   6.042   1.082  0.0309 -0.6636 -0.1199
  338MOL0     N45512  10.779   6.176   1.060 -0.5138  0.4005 -0.4215
  338MOL0     C45513  10.712   6.225   0.950  0.6983  1.3932 -0.4605
  338MOL0     C45514  10.661   6.347   0.997 -0.9802  0.1561 -0.3536
  338MOL0     C45515  10.552   6.413   0.916  0.3609 -0.6778  1.0187
  338MOL0     C45516  10.436   6.316   0.874  0.0631  0.5261  0.4598
  338MOL0     C45517  10.343   6.268   0.984 -0.2509 -0.7567  0.5153
  338MOL0     C45518  10.237   6.174   0.923 -0.5599 -0.7775  0.1112
  338MOL0     O45519  10.300   6.061   0.862  0.0417  0.4833  1.2119
  338MOL0     C45520  10.310   5.940   0.926 -0.5731  0.5205 -0.1010
  338MOL0     C45521  10.224   5.903   1.035  0.7217  0.0365  0.2798
  338MOL0     C45522  10.229   5.780   1.093  0.5083  0.8077 -0.4072
  338MOL0     C45523  10.316   5.679   1.041 -0.8558 -0.7132 -0.3686
  338MOL0     C45524  10.334   5.534   1.093  0.0762 -0.9058 -0.6160
  338MOL0     O45525  10.240   5.487   1.185 -0.6042 -0.9596  0.1897
  338MOL0     C45526  10.266   5.366   1.240  0.5551 -0.3286  0.2142
  338MOL0     C45527  10.374   5.350   1.326 -0.8779 -0.6136 -0.1998
  338MOL0     C45528  10.400   5.225   1.378 -0.7186 -0.1736  0.3342
  338MOL0     C45529  10.335   5.108   1.332  0.1061  0.5477  0.6092
  338MOL0     O45530  10.364   4.980   1.365 -0.5656 -0.2268  0.5271
  338MOL0     C45531  10.480   4.950   1.455  0.4311  0.2448 -0.9661
  338MOL0     C45532  10.614   4.955   1.383 -0.0927 -0.7795 -0.4715
  338MOL0     C45533  10.737   4.902   1.459 -0.5096 -0.2746 -0.3566
  338MOL0     C45534  10.765   4.973   1.590 -0.0387  0.8524  0.6878
  338MOL0     C45535  10.851   4.895   1.685  0.4538 -0.7527  0.4176
  338MOL0     C45536  10.883   4.978   1.807  0.3964  0.1470  1.0186
  338MOL0     C45537  11.005   4.918   1.881  0.1562  0.0585  0.4896
  338MOL0     C45538  11.145   4.920   1.813 -0.0664  0.8887  0.9189
  338MOL0    Cl45539  11.247   4.818   1.914 -0.3019 -0.5149 -0.6367
  338MOL0     C45540  10.230   5.133   1.239  0.7071  0.6894 -0.3769
  338MOL0     C45541  10.187   5.259   1.202 -0.2378 -0.8707 -0.4282
  338MOL0     O45542  10.426   5.471   1.042  0.7126  0.3767  0.0663
  338MOL0     C45543  10.400   5.709   0.932 -0.2792  0.3734  0.0293
  338MOL0     C45544  10.401   5.838   0.872  0.4273 -0.7336 -0.0327
  338MOL0     N45545  10.701   6.365   1.125 -0.6913 -0.2726  1.0704
  338MOL0     N45546  10.774   6.270   1.164  0.6021  0.5072 -0.3022
  338MOL0     C45547  10.730   5.363   0.878 -0.4648 -0.0117  0.2950
  338MOL0     C45548  10.675   5.339   0.750 -0.3854 -0.5062  0.0444
  338MOL0     C45549  10.550   5.066   0.379  0.1475 -0.8616  0.0547
  338MOL0     C45550  10.626   5.145   0.279  0.4809  0.6846  0.2271
  338MOL0     C45551  10.602   5.117   0.145  0.7874 -0.5354 -0.2894
  338MOL0     C45552  10.534   5.004   0.103 -0.3878 -0.1869  0.1943
  338MOL0     O45553  10.537   4.998  -0.039 -0.1150  0.0375 -0.0360
  338MOL0     C45554  10.499   4.876  -0.099  0.1768  0.4380 -0.4306
  338MOL0     C45555  10.577   4.743  -0.072  0.7732 -0.2577 -0.2899
  338MOL0     C45556  10.735   4.773  -0.069 -0.2323  0.7320 -0.6900
  338MOL0     C45557  10.810   4.640  -0.083  0.4351 -0.1192  0.2499
  338MOL0     C45558  10.766   4.550  -0.199 -0.7345 -0.3626 -0.5129
  338MOL0     C45559  10.735   4.486  -0.296 -0.5111 -1.3309  0.4704
  338MOL0     C45560  10.471   4.923   0.195  0.0472  0.6581  0.2580
  338MOL0     C45561  10.476   4.954   0.327  0.8871 -1.1321 -0.4313
  338MOL0     C45562  10.393   4.856   0.407  0.0828 -1.4331  0.0441
  338MOL0     H45563  10.840   5.054   0.676 -1.8266 -0.4174 -1.1052
  338MOL0     H45564  10.929   5.096   0.895  2.2410  2.4090 -0.0274
  338MOL0     H45565  10.693   5.299   1.112  0.1936  2.2413 -2.5274
  338MOL0     H45566  10.793   5.179   1.193 -2.9150  0.2246  0.5762
  338MOL0     H45567  10.905   5.353   1.338  2.2088  0.0418 -2.1450
  338MOL0     H45568  10.720   5.349   1.336 -0.4921 -2.0414 -1.7501
  338MOL0     H45569  10.869   5.552   1.167 -2.0463 -0.1071 -1.2038
  338MOL0     H45570  10.850   5.580   1.347  4.0192 -3.3892  0.2282
  338MOL0     H45571  10.640   5.555   1.127  2.5645  1.5490 -1.3504
  338MOL0     H45572  10.588   5.540   1.298 -0.6941  1.9501  0.0083
  338MOL0     H45573  10.567   5.757   1.183  2.1339  0.8050 -2.2074
  338MOL0     H45574  10.640   5.770   1.334  1.5347 -0.3221  0.3154
  338MOL0     H45575  10.864   5.810   1.232  1.2663  1.6116 -1.8101
  338MOL0     H45576  10.788   5.764   1.071 -0.4293 -2.8224  1.2880
  338MOL0     H45577  10.707   5.994   1.247 -2.2605 -0.8119 -1.0011
  338MOL0     H45578  10.639   5.946   1.089  0.3999  0.1330 -1.8071
  338MOL0     H45579  10.915   6.041   1.149 -0.3049  1.6698  0.4200
  338MOL0     H45580  10.852   6.001   0.983 -1.2035 -1.8760  0.0556
  338MOL0     H45581  10.697   6.184   0.851  0.6307 -0.5714  0.3174
  338MOL0     H45582  10.512   6.500   0.968  0.3583 -0.6168  0.9130
  338MOL0     H45583  10.602   6.441   0.823  3.0517  0.8793  2.7799
  338MOL0     H45584  10.370   6.362   0.800  0.4668 -1.7165 -1.4082
  338MOL0     H45585  10.470   6.227   0.820 -0.5655  2.8959 -4.3135
  338MOL0     H45586  10.288   6.352   1.025 -0.2100 -0.6122  0.2799
  338MOL0     H45587  10.392   6.215   1.066  0.6274 -2.8662 -1.2473
  338MOL0     H45588  10.194   6.226   0.837 -3.4797  0.0029  1.8788
  338MOL0     H45589  10.159   6.156   0.998 -0.3073 -1.2573  0.2612
  338MOL0     H45590  10.148   5.970   1.071 -0.2312  0.3109 -2.0512
  338MOL0     H45591  10.164   5.754   1.176 -0.8456  0.7639 -1.4465
  338MOL0     H45592  10.406   5.440   1.377 -0.9354 -0.1173 -1.0287
  338MOL0     H45593  10.483   5.232   1.448 -0.9623  2.5089  0.4369
  338MOL0     H45594  10.473   5.005   1.549  1.3287 -2.2145  0.6481
  338MOL0     H45595  10.471   4.843   1.480 -2.6019  0.6529  0.1616
  338MOL0     H45596  10.614   4.911   1.283 -0.0374  2.3058 -1.9685
  338MOL0     H45597  10.638   5.062   1.377 -1.4262 -0.2238  2.2858
  338MOL0     H45598  10.708   4.801   1.489 -1.4576  0.6229  1.9876
  338MOL0     H45599  10.826   4.916   1.398 -1.2910  1.0939 -1.2357
  338MOL0     H45600  10.671   4.995   1.642 -0.0819  0.3863  0.8158
  338MOL0     H45601  10.833   5.056   1.571  1.6602 -0.9340 -1.5717
  338MOL0     H45602  10.942   4.865   1.632  1.0856 -1.4968  1.8648
  338MOL0     H45603  10.784   4.813   1.711  0.0353 -0.8350 -0.8479
  338MOL0     H45604  10.899   5.084   1.784 -0.7463 -0.3596 -2.7387
  338MOL0     H45605  10.790   4.981   1.864 -0.7177 -0.1422 -0.6985
  338MOL0     H45606  10.990   4.813   1.909  1.5766 -0.2451  0.1610
  338MOL0     H45607  11.002   4.984   1.967  0.4145 -0.1350  0.6470
  338MOL0     H45608  11.140   4.874   1.714 -0.5142  0.0127  1.3376
  338MOL0     H45609  11.193   5.018   1.811 -0.0689  0.8773 -0.0491
  338MOL0     H45610  10.170   5.048   1.207 -0.3833  1.7250 -1.1764
  338MOL0     H45611  10.105   5.286   1.137  2.8554  4.8429 -2.7229
  338MOL0     H45612  10.473   5.647   0.881  1.2793  0.8989  1.5119
  338MOL0     H45613  10.457   5.868   0.783 -2.5036 -0.8110 -2.0270
  338MOL0     H45614  10.716   5.455   0.933  1.8817  0.1705  0.7266
  338MOL0     H45615  10.607   5.411   0.706  0.5954  1.0025  0.8891
  338MOL0     H45616  10.687   5.229   0.309  1.6294 -1.2890  4.1678
  338MOL0     H45617  10.639   5.194   0.078 -1.3457  1.2669  0.4883
  338MOL0     H45618  10.505   4.891  -0.207 -2.0709 -0.2640 -0.6989
  338MOL0     H45619  10.396   4.850  -0.074  0.3574 -0.4924 -0.6216
  338MOL0     H45620  10.561   4.672  -0.154  2.0168  0.2869 -1.0248
  338MOL0     H45621  10.542   4.693   0.019 -5.7862  2.1911 -0.9531
  338MOL0     H45622  10.750   4.832   0.022 -1.1297  0.6678 -0.4957
  338MOL0     H45623  10.770   4.838  -0.151  4.9659 -0.7522 -0.0544
  338MOL0     H45624  10.919   4.641  -0.095  0.1832  0.8109 -2.8958
  338MOL0     H45625  10.795   4.584   0.010 -0.9535  1.2585  0.9079
  338MOL0     H45626  10.698   4.428  -0.378 -1.7547 -0.1672  0.1632
  338MOL0     H45627  10.412   4.844   0.149  1.5787 -0.2009 -0.3244
  338MOL0     H45628  10.307   4.829   0.345  0.7809  1.7986 -2.6529
  338MOL0     H45629  10.470   4.781   0.428  1.6471  0.3686  1.0406
  338MOL0     H45630  10.357   4.891   0.504  1.4864  2.3092 -0.6184
  339MOL0     O45631   7.022   5.286   7.709 -0.4676  0.7471  0.3145
  339MOL0     C45632   7.114   5.327   7.777 -0.0993 -0.0372 -0.8362
  339MOL0     O45633   7.122   5.431   7.852  0.5118 -0.0559  0.1506
  339MOL0     C45634   7.009   5.502   7.887 -0.4472 -0.0218 -1.0241
  339MOL0     C45635   6.955   5.593   7.800  0.4346 -0.1627 -0.3868
  339MOL0     C45636   6.857   5.680   7.838  0.0506 -0.3341  0.6061
  339MOL0     C45637   6.829   5.695   7.971  0.4389 -0.0365 -0.9234
  339MOL0     O45638   6.769   5.812   8.020 -0.4646 -0.1233  0.6176
  339MOL0     C45639   6.824   5.929   7.973  0.0011 -0.7615  1.1453
  339MOL0     C45640   6.714   6.000   7.889 -0.3085 -0.3648  0.2324
  339MOL0     C45641   6.775   6.131   7.838  1.2953  0.1824 -0.1330
  339MOL0     C45642   6.883   6.119   7.736  0.1416 -0.5847 -0.4028
  339MOL0     C45643   6.916   6.260   7.671  0.6866 -0.4738 -0.1671
  339MOL0     C45644   6.822   6.310   7.561  0.5333  0.4477  0.7060
  339MOL0     C45645   6.864   6.251   7.423  0.1382  0.9089 -0.4772
  339MOL0     C45646   7.003   6.303   7.382 -0.4580 -0.3968  0.0546
  339MOL0     N45647   6.998   6.347   7.245  0.6815 -0.0986  0.6431
  339MOL0     C45648   6.931   6.458   7.207 -0.0835  0.9768  0.7787
  339MOL0     C45649   6.958   6.479   7.074  0.2588 -0.2736 -0.4472
  339MOL0     C45650   6.890   6.592   6.996 -0.1756 -0.2388  0.2672
  339MOL0     C45651   6.987   6.695   6.934  0.0452 -1.0011 -0.3500
  339MOL0     C45652   7.102   6.637   6.849  0.1518 -0.1191  0.0531
  339MOL0     C45653   7.086   6.538   6.730 -1.0486  0.0616  0.0759
  339MOL0     O45654   6.998   6.587   6.627  0.5176  0.9942  0.7250
  339MOL0     C45655   6.858   6.553   6.647 -0.3698  0.1275 -0.4590
  339MOL0     C45656   6.766   6.653   6.651  0.1891  0.0265  0.2333
  339MOL0     C45657   6.633   6.627   6.654 -0.0264  0.0701 -0.4541
  339MOL0     C45658   6.590   6.497   6.638  0.2281 -1.7868  0.2172
  339MOL0     C45659   6.442   6.470   6.647  1.0316  0.3351  1.0087
  339MOL0     O45660   6.367   6.580   6.610 -0.4832 -0.7546 -0.2084
  339MOL0     C45661   6.236   6.604   6.645 -0.1741  0.3778  0.1322
  339MOL0     C45662   6.169   6.707   6.572 -0.5743 -0.3585 -0.0567
  339MOL0     C45663   6.036   6.732   6.584  0.0751 -0.3428 -0.5843
  339MOL0     C45664   5.960   6.667   6.682 -0.2494  1.2222 -0.2845
  339MOL0     O45665   5.832   6.707   6.708  0.2930 -0.8529 -0.5088
  339MOL0     C45666   5.772   6.690   6.841  0.6987  0.1301  0.1665
  339MOL0     C45667   5.672   6.797   6.863 -0.5223 -0.1632 -0.5406
  339MOL0     C45668   5.537   6.804   6.803  0.2583 -0.8058 -0.4300
  339MOL0     C45669   5.451   6.685   6.826 -0.3429 -0.1599  0.3740
  339MOL0     C45670   5.310   6.675   6.768  0.7652 -0.0589  0.0853
  339MOL0     C45671   5.213   6.784   6.819 -0.1603 -0.6257 -0.0999
  339MOL0     C45672   5.192   6.886   6.711  0.3810  0.1899  0.8077
  339MOL0     C45673   5.122   7.005   6.763  0.2387 -0.7230  0.0740
  339MOL0    Cl45674   4.939   6.976   6.791 -0.3132  0.2127  0.5580
  339MOL0     C45675   6.022   6.562   6.753 -0.3839 -0.6252  0.2142
  339MOL0     C45676   6.162   6.526   6.729  0.2624 -0.5459 -0.7799
  339MOL0     O45677   6.401   6.359   6.678 -0.0866  0.5861  1.1300
  339MOL0     C45678   6.683   6.397   6.612  1.0821 -0.2904 -0.7320
  339MOL0     C45679   6.816   6.429   6.626  0.5808  0.5588  0.6419
  339MOL0     N45680   7.033   6.369   7.033 -0.1975 -0.9250 -0.8307
  339MOL0     N45681   7.056   6.295   7.134  0.4324  0.2538  0.5454
  339MOL0     C45682   6.877   5.601   8.067 -0.1863  0.0842  0.3062
  339MOL0     C45683   6.957   5.503   8.020  0.0654 -0.0785  0.6975
  339MOL0     C45684   7.214   5.229   7.800 -0.8459  1.0474 -0.0473
  339MOL0     C45685   7.236   5.193   7.936 -0.5750 -0.6486 -0.1003
  339MOL0     C45686   7.328   5.086   7.974 -0.3544 -0.1384 -0.5708
  339MOL0     C45687   7.394   5.012   7.873 -0.3633 -0.8542 -0.6343
  339MOL0     O45688   7.482   4.907   7.904  0.1764  0.5047  0.3149
  339MOL0     C45689   7.467   4.838   8.025 -0.7344  0.5459  0.0679
  339MOL0     C45690   7.340   4.751   8.021  0.5272  0.3897  0.0752
  339MOL0     C45691   7.321   4.652   7.898  0.4287 -0.1145 -0.4464
  339MOL0     C45692   7.397   4.521   7.910  0.2485 -0.1975  0.0933
  339MOL0     C45693   7.472   4.499   7.786  0.6874 -1.3084 -0.3203
  339MOL0     C45694   7.543   4.505   7.688 -0.1802  0.2350 -0.9740
  339MOL0     C45695   7.364   5.043   7.739 -0.0159  0.3123 -0.5582
  339MOL0     C45696   7.282   5.152   7.703  0.2551 -0.2589  0.9969
  339MOL0     C45697   7.269   5.181   7.553 -0.1628  0.5067 -0.4349
  339MOL0     H45698   6.990   5.612   7.699 -0.0373  1.9025 -0.2086
  339MOL0     H45699   6.811   5.748   7.766 -2.6972  1.7636  4.0241
  339MOL0     H45700   6.841   5.981   8.068 -1.1942 -1.9466  2.0546
  339MOL0     H45701   6.917   5.914   7.918 -0.4361  3.3282 -1.1178
  339MOL0     H45702   6.629   6.016   7.956 -0.7902  3.3223 -1.0722
  339MOL0     H45703   6.689   5.937   7.803 -1.1175 -2.7408  2.0968
  339MOL0     H45704   6.815   6.188   7.923 -1.5337  2.3109 -0.0929
  339MOL0     H45705   6.696   6.197   7.803  3.3327  1.9149 -1.6956
  339MOL0     H45706   6.968   6.060   7.771  0.0279  0.0031  0.8974
  339MOL0     H45707   6.856   6.047   7.658  0.1136  2.6628 -3.6286
  339MOL0     H45708   6.912   6.327   7.757 -1.1384 -0.8512  0.0923
  339MOL0     H45709   7.020   6.265   7.638  1.8027  2.4105  3.1974
  339MOL0     H45710   6.725   6.267   7.589  0.2748 -1.0177 -2.0719
  339MOL0     H45711   6.831   6.419   7.560  3.5932  0.2959 -1.0792
  339MOL0     H45712   6.788   6.276   7.348 -0.4276 -1.1250 -0.6436
  339MOL0     H45713   6.868   6.142   7.422  0.0583  0.9095 -0.9391
  339MOL0     H45714   7.034   6.383   7.450  4.5597 -1.5047 -0.4968
  339MOL0     H45715   7.083   6.228   7.379  0.3199  0.4219 -3.1545
  339MOL0     H45716   6.876   6.529   7.268 -1.4374  0.6819 -0.0643
  339MOL0     H45717   6.840   6.547   6.910  0.2461  0.4003 -0.3330
  339MOL0     H45718   6.822   6.651   7.057 -1.7070 -0.8552 -0.7870
  339MOL0     H45719   6.932   6.762   6.867 -0.1485  0.2685  1.0216
  339MOL0     H45720   7.016   6.760   7.018 -1.4025  0.5077 -0.9443
  339MOL0     H45721   7.175   6.595   6.918 -2.1810  0.5033  3.1107
  339MOL0     H45722   7.143   6.730   6.807 -3.0971  1.7205  0.6201
  339MOL0     H45723   7.044   6.443   6.765  1.2165 -0.6163  1.1703
  339MOL0     H45724   7.180   6.510   6.682 -1.7235  0.6299 -1.6924
  339MOL0     H45725   6.817   6.746   6.673  2.0591 -0.4198 -1.8043
  339MOL0     H45726   6.561   6.709   6.662  0.5922  0.6468 -0.6668
  339MOL0     H45727   6.233   6.772   6.513  1.2548 -2.7266 -0.8516
  339MOL0     H45728   5.986   6.809   6.525 -3.4613 -2.8368 -1.1627
  339MOL0     H45729   5.736   6.588   6.858  2.2243 -0.7961 -1.7636
  339MOL0     H45730   5.848   6.706   6.918 -1.8375 -2.0578  3.3853
  339MOL0     H45731   5.666   6.796   6.972 -0.4705 -3.3960 -0.4723
  339MOL0     H45732   5.723   6.889   6.834  0.1288 -1.1197 -2.6494
  339MOL0     H45733   5.486   6.891   6.846  0.1930 -0.5811 -0.9489
  339MOL0     H45734   5.551   6.810   6.694 -1.2303  1.5131 -0.5635
  339MOL0     H45735   5.443   6.676   6.935  0.1445 -0.8414  0.3621
  339MOL0     H45736   5.514   6.606   6.784  1.3634  2.3812 -2.2088
  339MOL0     H45737   5.260   6.581   6.795  0.5954  0.0651  0.2031
  339MOL0     H45738   5.332   6.659   6.662  4.7920 -0.0185  0.7439
  339MOL0     H45739   5.117   6.734   6.834  0.0402 -0.9084  0.2527
  339MOL0     H45740   5.256   6.831   6.907  0.5337  1.0555 -1.2781
  339MOL0     H45741   5.125   6.846   6.635 -0.7895  0.2744  1.7665
  339MOL0     H45742   5.288   6.915   6.666  0.3554  1.5136  1.5233
  339MOL0     H45743   5.172   7.051   6.849  0.8049 -0.7631 -0.2306
  339MOL0     H45744   5.132   7.082   6.686 -1.4590 -1.4078 -0.8896
  339MOL0     H45745   5.960   6.512   6.827 -0.2674 -3.0300 -1.2212
  339MOL0     H45746   6.196   6.440   6.786 -0.1990 -1.1802 -1.4483
  339MOL0     H45747   6.657   6.297   6.579  0.0642 -1.1634  2.3176
  339MOL0     H45748   6.889   6.356   6.592  0.2068  0.6334 -0.3777
  339MOL0     H45749   6.854   5.611   8.172 -2.4296  2.0028 -0.2696
  339MOL0     H45750   6.992   5.430   8.093 -0.9869 -1.3529 -0.0253
  339MOL0     H45751   7.182   5.244   8.016 -0.8977  1.5733 -1.6508
  339MOL0     H45752   7.356   5.076   8.078 -1.7002 -1.0101 -0.2708
  339MOL0     H45753   7.461   4.908   8.108  0.7177  0.0616  0.6169
  339MOL0     H45754   7.558   4.781   8.049 -0.8559 -0.4093 -1.5795
  339MOL0     H45755   7.251   4.813   8.006 -0.1465 -0.3525  0.8981
  339MOL0     H45756   7.326   4.711   8.122 -1.6102 -0.6215 -0.5802
  339MOL0     H45757   7.351   4.704   7.807  5.3059  0.1245  1.0020
  339MOL0     H45758   7.215   4.635   7.877  0.9366 -1.2777 -2.3300
  339MOL0     H45759   7.464   4.517   7.996  2.0292 -1.8142 -1.2809
  339MOL0     H45760   7.317   4.448   7.924 -2.0284  2.3563  1.4909
  339MOL0     H45761   7.626   4.513   7.621 -0.2215  1.9491 -0.8632
  339MOL0     H45762   7.434   4.992   7.674  1.8570  0.3237  1.3299
  339MOL0     H45763   7.235   5.284   7.538 -1.8745  0.2529  1.2193
  339MOL0     H45764   7.357   5.154   7.494  0.0735 -1.8881  0.8827
  339MOL0     H45765   7.183   5.128   7.511  0.3980  1.1390 -2.4607
  340MOL0     O45766   4.926   0.284   6.861  0.5072 -0.0716  0.6279
  340MOL0     C45767   4.897   0.364   6.959  0.6103 -0.4592  0.5478
  340MOL0     O45768   4.919   0.336   7.083 -0.4333 -0.5689 -0.0783
  340MOL0     C45769   5.023   0.245   7.110 -0.7077  0.4163  0.3382
  340MOL0     C45770   5.143   0.284   7.177 -0.2826  0.3553  0.0172
  340MOL0     C45771   5.237   0.185   7.218  0.5640 -0.1257 -0.3189
  340MOL0     C45772   5.217   0.052   7.194 -0.4236 -0.2141 -0.1013
  340MOL0     O45773   5.316  -0.038   7.224  0.3878 -0.1050 -1.1483
  340MOL0     C45774   5.295  -0.176   7.194 -0.4589  0.1250 -0.1001
  340MOL0     C45775   5.429  -0.242   7.203 -0.5559 -0.3046 -0.1562
  340MOL0     C45776   5.408  -0.391   7.208  0.4118  1.3912 -0.0924
  340MOL0     C45777   5.374  -0.437   7.352  0.5100 -0.1390 -0.1554
  340MOL0     C45778   5.497  -0.453   7.433 -1.1491  0.1407  0.4248
  340MOL0     C45779   5.586  -0.567   7.412 -0.4589 -0.2696 -0.6146
  340MOL0     C45780   5.707  -0.582   7.501 -0.4222 -0.3189  0.1859
  340MOL0     C45781   5.804  -0.461   7.499 -0.2418  0.7004  0.8104
  340MOL0     N45782   5.777  -0.372   7.616  0.3112 -0.1894 -0.0722
  340MOL0     C45783   5.788  -0.405   7.752 -0.3751 -0.8485 -0.5792
  340MOL0     C45784   5.754  -0.296   7.835  0.6377 -0.3154  0.6251
  340MOL0     C45785   5.786  -0.289   7.982  0.5074  0.6861  0.4133
  340MOL0     C45786   5.884  -0.173   8.014 -0.5410  0.0606  0.3796
  340MOL0     C45787   5.805  -0.054   8.063 -0.3355  0.4927  0.0804
  340MOL0     C45788   5.895   0.068   8.082 -0.4900 -0.2073 -0.4753
  340MOL0     O45789   5.815   0.172   8.143 -0.5571 -0.6461 -0.1027
  340MOL0     C45790   5.760   0.277   8.065  0.7466  0.4010 -0.0788
  340MOL0     C45791   5.721   0.392   8.132 -0.3316 -1.4395 -0.9830
  340MOL0     C45792   5.678   0.505   8.053  0.0508 -0.3009 -1.0706
  340MOL0     C45793   5.658   0.490   7.912 -0.4899 -0.6014 -0.0616
  340MOL0     C45794   5.606   0.619   7.847  0.2619  0.4154 -0.5111
  340MOL0     O45795   5.618   0.739   7.922 -0.1732 -0.2295  0.4461
  340MOL0     C45796   5.591   0.853   7.845  0.4266  0.6634  1.3169
  340MOL0     C45797   5.693   0.891   7.752  0.2671 -0.1570 -0.0242
  340MOL0     C45798   5.690   1.021   7.689  0.7936 -0.0613 -0.5499
  340MOL0     C45799   5.592   1.117   7.734 -0.3997 -0.2878  0.8092
  340MOL0     O45800   5.593   1.247   7.703  0.4724  0.5075  0.4700
  340MOL0     C45801   5.500   1.278   7.602 -0.6882 -0.8023 -0.4832
  340MOL0     C45802   5.499   1.427   7.592 -0.2556  0.1044  0.7339
  340MOL0     C45803   5.444   1.471   7.448  0.2282  0.0143 -0.1802
  340MOL0     C45804   5.450   1.621   7.435  0.2028 -0.4897  0.1308
  340MOL0     C45805   5.452   1.676   7.294  0.0645 -0.6215  0.1561
  340MOL0     C45806   5.590   1.688   7.234  0.9503 -0.0217  0.3202
  340MOL0     C45807   5.583   1.690   7.086 -0.9619  0.8021 -0.3171
  340MOL0     C45808   5.729   1.660   7.030  0.0560  0.7165 -0.6536
  340MOL0    Cl45809   5.717   1.671   6.851  0.1725  0.0516  0.8940
  340MOL0     C45810   5.484   1.064   7.803  0.1031  0.5682  0.0308
  340MOL0     C45811   5.478   0.936   7.856 -0.6316  0.1665  0.0213
  340MOL0     O45812   5.589   0.620   7.730  0.6106  0.0139  0.1381
  340MOL0     C45813   5.688   0.371   7.852  0.9549  0.7984  0.3828
  340MOL0     C45814   5.737   0.264   7.930 -0.1389 -0.1438 -0.8163
  340MOL0     N45815   5.723  -0.199   7.740 -0.9304  0.5950 -0.1264
  340MOL0     N45816   5.738  -0.244   7.614  0.8118 -0.2223  0.7752
  340MOL0     C45817   5.090   0.015   7.145 -0.5443 -0.2134  0.4580
  340MOL0     C45818   4.994   0.114   7.109  0.0789  0.3375  0.2427
  340MOL0     C45819   4.829   0.504   6.931 -0.4236  0.1850 -0.7228
  340MOL0     C45820   4.789   0.593   7.036 -0.3521  0.1566 -0.4821
  340MOL0     C45821   4.730   0.712   7.030  0.3386  1.0148  1.1385
  340MOL0     C45822   4.680   0.742   6.903  0.0739 -0.0654  0.5545
  340MOL0     O45823   4.604   0.852   6.878 -0.3526  0.1870 -0.1258
  340MOL0     C45824   4.542   0.929   6.979  0.3486 -0.3261 -0.7025
  340MOL0     C45825   4.483   1.049   6.894 -0.7283 -0.2118  0.2139
  340MOL0     C45826   4.366   1.020   6.799  0.1530 -0.6896  0.0046
  340MOL0     C45827   4.291   1.150   6.749  0.0502 -0.8301  0.2230
  340MOL0     C45828   4.363   1.200   6.624  0.6228  0.1056  0.2187
  340MOL0     C45829   4.423   1.260   6.534 -0.1286 -1.7375 -0.1261
  340MOL0     C45830   4.724   0.667   6.790 -0.4621  0.0094 -0.3106
  340MOL0     C45831   4.803   0.554   6.806  0.6803  1.3553  0.0692
  340MOL0     C45832   4.868   0.494   6.683  0.2856 -0.7793 -0.0323
  340MOL0     H45833   5.166   0.388   7.200 -1.0463  0.4801  0.2315
  340MOL0     H45834   5.329   0.221   7.263  1.4309  0.5697 -2.5453
  340MOL0     H45835   5.218  -0.215   7.261 -0.1520 -0.9605 -0.3689
  340MOL0     H45836   5.255  -0.190   7.094 -1.0668  0.2256  0.1271
  340MOL0     H45837   5.490  -0.203   7.284  2.9124 -2.1766 -1.6282
  340MOL0     H45838   5.483  -0.212   7.112 -0.5768 -1.3542 -0.5332
  340MOL0     H45839   5.497  -0.440   7.169 -0.5042  0.0580 -0.5860
  340MOL0     H45840   5.319  -0.414   7.148 -0.4378  1.8473  0.9580
  340MOL0     H45841   5.300  -0.366   7.393  0.4528 -0.3820  0.1714
  340MOL0     H45842   5.321  -0.532   7.367 -0.6355  0.8428  3.1210
  340MOL0     H45843   5.561  -0.370   7.402  1.2870 -2.2120 -1.2639
  340MOL0     H45844   5.475  -0.439   7.540 -0.7668  0.5403  0.4574
  340MOL0     H45845   5.524  -0.648   7.453  0.5904 -1.3211 -1.0303
  340MOL0     H45846   5.604  -0.593   7.307  3.4856 -1.6128  0.1975
  340MOL0     H45847   5.761  -0.672   7.472  2.0066  1.3007 -0.6117
  340MOL0     H45848   5.675  -0.601   7.604 -3.1914 -1.9903 -0.8781
  340MOL0     H45849   5.905  -0.502   7.493 -1.1854 -1.6802 -0.5753
  340MOL0     H45850   5.791  -0.408   7.404  2.0521 -0.4410 -0.2206
  340MOL0     H45851   5.810  -0.497   7.806 -1.6364 -0.1362  1.2432
  340MOL0     H45852   5.691  -0.278   8.035 -0.4921  1.8980 -1.5217
  340MOL0     H45853   5.829  -0.384   8.016 -0.1172 -0.2892 -1.3682
  340MOL0     H45854   5.952  -0.204   8.094 -2.5183  0.0102  2.1249
  340MOL0     H45855   5.932  -0.153   7.918 -2.3515 -1.5189 -0.9210
  340MOL0     H45856   5.761  -0.101   8.151  0.4913 -3.7464 -1.5114
  340MOL0     H45857   5.718  -0.026   8.003 -0.7710 -0.4993  0.2153
  340MOL0     H45858   5.937   0.090   7.983 -1.8575  0.8756 -0.8338
  340MOL0     H45859   5.975   0.034   8.149 -0.1377 -0.0889 -0.8301
  340MOL0     H45860   5.747   0.392   8.237  0.5114 -0.3214 -1.1832
  340MOL0     H45861   5.659   0.594   8.113  0.5806 -1.4778  0.9575
  340MOL0     H45862   5.768   0.819   7.723 -1.3065 -2.1869  0.6667
  340MOL0     H45863   5.756   1.059   7.612 -1.0651  1.7516 -1.3578
  340MOL0     H45864   5.525   1.237   7.504  0.6223 -0.0099 -0.5097
  340MOL0     H45865   5.396   1.263   7.634  0.1795 -0.1571  3.0649
  340MOL0     H45866   5.443   1.473   7.674 -0.9004 -2.8334  2.0775
  340MOL0     H45867   5.600   1.468   7.605 -1.1030  3.2501 -1.2908
  340MOL0     H45868   5.511   1.442   7.368  0.4336 -0.4936  0.1708
  340MOL0     H45869   5.343   1.434   7.425 -0.7400  0.5715  2.6941
  340MOL0     H45870   5.529   1.673   7.489 -0.5154  0.4209  0.3405
  340MOL0     H45871   5.355   1.650   7.482 -0.2948 -2.3407  0.3750
  340MOL0     H45872   5.399   1.771   7.298 -0.6214 -0.6462 -3.9439
  340MOL0     H45873   5.387   1.621   7.225  0.0298  2.6275 -2.6774
  340MOL0     H45874   5.629   1.782   7.275 -0.1159 -0.1168  1.5993
  340MOL0     H45875   5.660   1.614   7.276  3.0708  1.2749 -0.7381
  340MOL0     H45876   5.550   1.786   7.045 -1.2499 -0.1876 -2.5336
  340MOL0     H45877   5.512   1.616   7.048 -1.9638  1.4031  0.3230
  340MOL0     H45878   5.805   1.731   7.062 -0.4160  0.7626  0.4217
  340MOL0     H45879   5.772   1.563   7.058 -1.0708  1.0332  2.7026
  340MOL0     H45880   5.409   1.136   7.835  1.4610  0.9667  2.4988
  340MOL0     H45881   5.396   0.912   7.923  0.2706 -1.5745  0.5713
  340MOL0     H45882   5.666   0.377   7.746  1.0438  2.4355  0.4450
  340MOL0     H45883   5.769   0.180   7.869 -0.1665 -0.8760  0.1451
  340MOL0     H45884   5.060  -0.089   7.139 -0.5330 -0.1223 -2.9599
  340MOL0     H45885   4.898   0.089   7.065  0.3369  0.7985 -0.6081
  340MOL0     H45886   4.802   0.554   7.136 -0.1812  0.1137 -0.5197
  340MOL0     H45887   4.707   0.763   7.123 -2.1669 -0.1586  1.2182
  340MOL0     H45888   4.604   0.961   7.064 -1.8440 -0.5842  1.0759
  340MOL0     H45889   4.458   0.877   7.026 -2.2906  2.7268 -1.6739
  340MOL0     H45890   4.561   1.106   6.843 -1.2547  0.1389 -0.2051
  340MOL0     H45891   4.440   1.119   6.967  1.2017 -0.4219  1.6311
  340MOL0     H45892   4.297   0.949   6.846  0.6917  0.6008  2.9016
  340MOL0     H45893   4.412   0.969   6.713  2.0515  0.1292  0.5048
  340MOL0     H45894   4.190   1.124   6.715 -0.0950 -0.5078  0.4098
  340MOL0     H45895   4.273   1.233   6.817  0.8729 -0.2217 -0.2898
  340MOL0     H45896   4.459   1.324   6.456 -0.1244 -0.7392  0.6674
  340MOL0     H45897   4.694   0.694   6.689  0.4666  1.9557 -0.1339
  340MOL0     H45898   4.872   0.568   6.602  0.0909 -1.7104 -0.9155
  340MOL0     H45899   4.972   0.468   6.706  0.7309  1.7389  1.1060
  340MOL0     H45900   4.824   0.404   6.639 -1.6228 -0.8801  1.9441
  341MOL0     O45901   0.266   9.274   3.095  0.3077 -0.1676  0.5901
  341MOL0     C45902   0.157   9.259   3.036  0.3254  0.2938 -0.1300
  341MOL0     O45903   0.126   9.223   2.908 -0.5690 -0.0867 -0.3571
  341MOL0     C45904   0.216   9.176   2.819 -0.2847 -0.2714 -0.1856
  341MOL0     C45905   0.324   9.256   2.785 -1.3584  1.0320  0.1613
  341MOL0     C45906   0.431   9.189   2.730 -0.4656  0.1672  0.9842
  341MOL0     C45907   0.425   9.064   2.671 -0.5100  0.4161 -0.0433
  341MOL0     O45908   0.519   8.993   2.597  0.4465 -0.7111  0.3350
  341MOL0     C45909   0.650   9.032   2.554  0.0170  0.5976 -0.7277
  341MOL0     C45910   0.751   9.007   2.666 -0.5225  0.0384  0.1240
  341MOL0     C45911   0.758   9.119   2.770 -0.7516  0.2676 -0.3239
  341MOL0     C45912   0.878   9.103   2.864  0.6487  0.0689  1.5113
  341MOL0     C45913   0.863   9.170   2.996 -0.0359 -0.1134 -1.3463
  341MOL0     C45914   0.781   9.095   3.106  0.3766 -0.4558 -0.1828
  341MOL0     C45915   0.715   9.188   3.210  0.1713 -0.0155 -1.1566
  341MOL0     C45916   0.815   9.280   3.289  0.0466  0.6642 -0.0481
  341MOL0     N45917   0.743   9.390   3.345  0.5058 -0.4372  0.1728
  341MOL0     C45918   0.641   9.381   3.439 -0.2710  0.2027  0.5175
  341MOL0     C45919   0.597   9.509   3.449 -0.2264  0.8195  0.6042
  341MOL0     C45920   0.492   9.569   3.525  0.0478  0.4615 -0.0208
  341MOL0     C45921   0.357   9.573   3.450  0.1868 -0.9958 -1.5988
  341MOL0     C45922   0.232   9.643   3.524 -0.8793  1.4409  0.5464
  341MOL0     C45923   0.171   9.529   3.608 -0.4372  0.3702 -1.4362
  341MOL0     O45924   0.047   9.568   3.680  0.3693  0.2057 -0.0055
  341MOL0     C45925   0.070   9.603   3.811  0.1097  0.6595 -0.1385
  341MOL0     C45926   0.188   9.610   3.889 -0.4121  0.1264  0.3872
  341MOL0     C45927   0.184   9.654   4.025  1.6384  0.2439  0.1356
  341MOL0     C45928   0.056   9.678   4.086 -0.0811  0.5310  1.1399
  341MOL0     C45929   0.049   9.706   4.227  0.7817 -0.3576  0.2260
  341MOL0     O45930  -0.061   9.660   4.285 -0.1478  0.5412  0.4127
  341MOL0     C45931  -0.083   9.696   4.410  0.7166 -0.2337 -0.4263
  341MOL0     C45932  -0.078   9.831   4.456 -0.6026  0.1641 -1.9618
  341MOL0     C45933  -0.126   9.870   4.586  0.4501  0.5955  0.1572
  341MOL0     C45934  -0.158   9.769   4.682  0.3733 -0.2113  0.6864
  341MOL0     O45935  -0.180   9.805   4.810 -0.1427 -0.3589 -0.1236
  341MOL0     C45936  -0.290   9.885   4.829  0.7228 -1.0029 -0.0796
  341MOL0     C45937  -0.413   9.793   4.819 -0.2618 -1.4702  0.2561
  341MOL0     C45938  -0.535   9.881   4.867  0.7314 -0.3683 -0.7082
  341MOL0     C45939  -0.635   9.778   4.913 -0.5057  1.5612 -0.1036
  341MOL0     C45940  -0.774   9.841   4.910  0.0544 -1.1557  0.0396
  341MOL0     C45941  -0.800   9.976   4.972  0.1591 -1.2892  0.5359
  341MOL0     C45942  -0.771   9.983   5.127  1.5469  0.0621  0.5194
  341MOL0     C45943  -0.884   9.914   5.200 -0.1598 -0.0767  0.1524
  341MOL0    Cl45944  -0.803   9.862   5.357  0.0437 -0.2226 -0.0226
  341MOL0     C45945  -0.166   9.640   4.634  0.0553  0.8696 -0.2613
  341MOL0     C45946  -0.128   9.600   4.504  0.4971  0.3341  0.7353
  341MOL0     O45947   0.137   9.772   4.290  0.4178 -0.6155  0.3057
  341MOL0     C45948  -0.060   9.670   4.005 -0.3606  0.6688 -0.9158
  341MOL0     C45949  -0.044   9.623   3.875  0.0904  0.7142 -0.4050
  341MOL0     N45950   0.661   9.589   3.354 -1.0416  0.7403  0.3338
  341MOL0     N45951   0.750   9.510   3.293 -0.0266 -0.5393 -0.1592
  341MOL0     C45952   0.298   9.001   2.667 -0.7431 -0.4450  0.8603
  341MOL0     C45953   0.205   9.053   2.756  0.0989 -0.2775  0.2297
  341MOL0     C45954   0.054   9.306   3.115 -0.7653 -0.9199 -0.6726
  341MOL0     C45955   0.072   9.407   3.209  0.1840 -0.3589 -0.2886
  341MOL0     C45956  -0.037   9.443   3.299  0.0303 -0.7218  0.6434
  341MOL0     C45957  -0.164   9.384   3.294  0.8052 -0.5340 -0.6772
  341MOL0     O45958  -0.278   9.423   3.372  0.6708  0.3779 -0.2041
  341MOL0     C45959  -0.252   9.499   3.495 -0.3920  0.3710 -0.3805
  341MOL0     C45960  -0.380   9.565   3.544 -0.7515 -0.3232  0.3108
  341MOL0     C45961  -0.438   9.676   3.455  0.9396 -0.8942  0.1739
  341MOL0     C45962  -0.566   9.712   3.514 -0.0276 -0.1703  0.2909
  341MOL0     C45963  -0.677   9.619   3.506  0.1029  0.0201 -0.4726
  341MOL0     C45964  -0.741   9.516   3.517  0.0677 -1.5662 -0.0720
  341MOL0     C45965  -0.177   9.290   3.195 -0.0825  0.1522 -0.8663
  341MOL0     C45966  -0.074   9.253   3.106  0.3071 -0.2602  1.0814
  341MOL0     C45967  -0.125   9.168   2.980  0.3853  0.0189  0.1328
  341MOL0     H45968   0.335   9.357   2.823  1.1172  0.6325  0.6848
  341MOL0     H45969   0.523   9.242   2.707 -0.6420 -0.1944 -0.7246
  341MOL0     H45970   0.669   8.971   2.465 -1.1303 -0.3308 -0.3607
  341MOL0     H45971   0.648   9.141   2.544 -2.7400  0.7902  1.0396
  341MOL0     H45972   0.850   9.014   2.619  0.3203  1.2893  1.9756
  341MOL0     H45973   0.742   8.911   2.717 -0.3067 -2.7111 -4.4773
  341MOL0     H45974   0.669   9.113   2.833 -1.4241  0.3752 -1.2481
  341MOL0     H45975   0.753   9.217   2.722 -1.2445  0.0772 -0.6737
  341MOL0     H45976   0.900   8.997   2.879 -3.1497 -0.6026  3.5529
  341MOL0     H45977   0.957   9.161   2.815 -1.7142  2.8409  0.6738
  341MOL0     H45978   0.959   9.202   3.038 -0.7511  1.3296 -0.7328
  341MOL0     H45979   0.807   9.261   2.973  0.5354  0.9951  1.3524
  341MOL0     H45980   0.703   9.033   3.060  1.2127 -2.2665  0.7399
  341MOL0     H45981   0.839   9.019   3.160 -1.3984 -3.0736 -1.6874
  341MOL0     H45982   0.653   9.132   3.280 -1.2704  3.0350  0.2000
  341MOL0     H45983   0.645   9.254   3.157 -0.8993  0.3575  0.6401
  341MOL0     H45984   0.852   9.218   3.371 -0.7850  1.6314  1.0982
  341MOL0     H45985   0.900   9.321   3.234 -0.4173  1.3444 -0.2719
  341MOL0     H45986   0.598   9.290   3.477 -0.5904 -0.6771 -1.7807
  341MOL0     H45987   0.485   9.509   3.617  1.2079  3.2659  2.0701
  341MOL0     H45988   0.534   9.663   3.562  1.0175 -0.3688  1.0764
  341MOL0     H45989   0.371   9.641   3.366  2.4633  0.2228 -0.3324
  341MOL0     H45990   0.330   9.473   3.417  0.9660 -2.7604  2.4594
  341MOL0     H45991   0.162   9.681   3.448 -0.7090  0.6970  0.0048
  341MOL0     H45992   0.266   9.736   3.570  1.0737  0.7505  0.5594
  341MOL0     H45993   0.242   9.494   3.684 -3.1278 -1.5397  0.3632
  341MOL0     H45994   0.131   9.446   3.549 -1.8260 -1.4768  1.8242
  341MOL0     H45995   0.284   9.590   3.843 -1.1186 -0.2479 -0.9718
  341MOL0     H45996   0.278   9.654   4.079  0.6611  1.9834  1.9512
  341MOL0     H45997  -0.040   9.907   4.389 -1.4312  0.9186 -1.6048
  341MOL0     H45998  -0.101   9.972   4.613  0.0078  0.1263  2.4776
  341MOL0     H45999  -0.285   9.918   4.933  2.9312  1.3219 -0.8193
  341MOL0     H46000  -0.301   9.976   4.768  1.2148  0.0951  1.4053
  341MOL0     H46001  -0.420   9.763   4.714  2.4474  0.6989 -0.6512
  341MOL0     H46002  -0.390   9.708   4.885 -1.7927 -1.8240  0.3782
  341MOL0     H46003  -0.504   9.962   4.934 -0.9206  0.7378 -1.2151
  341MOL0     H46004  -0.577   9.931   4.779  0.1398  0.4315  0.0028
  341MOL0     H46005  -0.614   9.734   5.011 -1.5688 -1.9213 -1.2955
  341MOL0     H46006  -0.632   9.690   4.849  1.8696  2.3831 -1.2745
  341MOL0     H46007  -0.841   9.765   4.951 -1.5401 -2.5215 -4.5322
  341MOL0     H46008  -0.797   9.860   4.805 -5.1018 -2.2750  0.6955
  341MOL0     H46009  -0.742  10.045   4.910 -3.1612 -1.2245 -2.8251
  341MOL0     H46010  -0.905  10.001   4.956 -0.3393 -0.1612  4.4600
  341MOL0     H46011  -0.761  10.088   5.155 -1.9806  0.8337 -0.6168
  341MOL0     H46012  -0.678   9.931   5.154  1.6904 -1.9676 -3.1847
  341MOL0     H46013  -0.961   9.990   5.219  2.1588  2.7539 -1.0359
  341MOL0     H46014  -0.923   9.829   5.143  4.4720 -1.5776 -1.1922
  341MOL0     H46015  -0.199   9.576   4.716  0.5269  0.0828 -0.6757
  341MOL0     H46016  -0.150   9.496   4.481  0.7406  0.1658  1.2499
  341MOL0     H46017  -0.158   9.692   4.047 -1.3554 -1.0239 -2.2089
  341MOL0     H46018  -0.137   9.605   3.822 -0.9971 -1.0235  1.9269
  341MOL0     H46019   0.290   8.908   2.611 -0.5448 -0.6893  1.2373
  341MOL0     H46020   0.107   9.013   2.776 -1.3586  1.9436 -1.9010
  341MOL0     H46021   0.162   9.467   3.216  0.1679 -0.3870  0.2182
  341MOL0     H46022  -0.013   9.506   3.384 -4.0487  0.0015  1.4843
  341MOL0     H46023  -0.176   9.576   3.480  0.4758 -0.4969 -0.5525
  341MOL0     H46024  -0.203   9.422   3.555 -1.1045 -0.3807 -0.7495
  341MOL0     H46025  -0.361   9.608   3.643 -2.2371  1.6588 -0.2113
  341MOL0     H46026  -0.445   9.478   3.557 -3.2050  0.5553 -4.1122
  341MOL0     H46027  -0.457   9.655   3.349  1.0362  1.6224 -0.4138
  341MOL0     H46028  -0.364   9.757   3.462  1.2227 -0.8591 -2.3742
  341MOL0     H46029  -0.549   9.723   3.622  2.8866 -1.4041  0.0352
  341MOL0     H46030  -0.599   9.801   3.460 -1.1971 -0.8645 -0.1812
  341MOL0     H46031  -0.821   9.445   3.525 -0.4910 -1.1439 -1.5018
  341MOL0     H46032  -0.279   9.259   3.179  0.3851 -0.7220 -2.4122
  341MOL0     H46033  -0.053   9.093   2.947  1.0016  0.9631 -0.7151
  341MOL0     H46034  -0.210   9.105   3.009 -0.0862  1.1527  1.2724
  341MOL0     H46035  -0.162   9.235   2.903  0.2413 -0.1558  0.0469
  342MOL0     O46036   9.819   4.387   3.917  0.3532  0.7971  0.2468
  342MOL0     C46037   9.940   4.396   3.917 -0.0958 -1.2156 -0.7307
  342MOL0     O46038  10.029   4.313   3.998  0.1565  0.2127  0.5906
  342MOL0     C46039   9.980   4.274   4.115  0.8643 -0.3443  0.0445
  342MOL0     C46040  10.004   4.144   4.150 -0.0698 -0.0844 -0.0333
  342MOL0     C46041   9.976   4.099   4.280  0.7516 -0.3067  0.3354
  342MOL0     C46042   9.903   4.184   4.370  0.2024 -0.0768  0.7463
  342MOL0     O46043   9.872   4.143   4.497  0.6246 -0.0382  0.0138
  342MOL0     C46044   9.874   4.007   4.535 -0.3213 -0.2468  0.5968
  342MOL0     C46045   9.760   3.926   4.470 -0.4870 -0.0424  0.2471
  342MOL0     C46046   9.624   3.971   4.533  0.4589  0.1630  0.5109
  342MOL0     C46047   9.500   3.924   4.457  0.6035  0.6370  0.3464
  342MOL0     C46048   9.478   3.975   4.307  0.0213  0.4230  0.3288
  342MOL0     C46049   9.486   4.130   4.296  0.2406 -1.2220 -0.0449
  342MOL0     C46050   9.459   4.188   4.159  0.2387  0.5151  0.1745
  342MOL0     C46051   9.551   4.148   4.046  0.1290 -0.1049 -0.4298
  342MOL0     N46052   9.509   4.225   3.927 -0.8827 -0.8245 -0.1240
  342MOL0     C46053   9.467   4.358   3.913  0.3305 -0.6012  0.4416
  342MOL0     C46054   9.442   4.381   3.782 -0.1355 -0.0726 -0.3985
  342MOL0     C46055   9.396   4.512   3.710 -0.1942 -0.8206  0.2958
  342MOL0     C46056   9.518   4.581   3.656 -0.3637  0.0319  0.6676
  342MOL0     C46057   9.487   4.691   3.561  0.4661 -0.9487  0.4378
  342MOL0     C46058   9.417   4.641   3.434 -0.3384 -0.1550 -0.7025
  342MOL0     O46059   9.466   4.519   3.388  0.1848 -0.3926 -0.2191
  342MOL0     C46060   9.599   4.506   3.358  0.4717  0.5208 -0.2957
  342MOL0     C46061   9.644   4.378   3.386 -0.3072  0.1309 -0.1787
  342MOL0     C46062   9.776   4.342   3.356 -0.2186 -0.7440 -0.0204
  342MOL0     C46063   9.859   4.434   3.293  0.6934 -0.6997  0.7318
  342MOL0     C46064   9.994   4.395   3.254 -0.5911  0.0627 -0.5138
  342MOL0     O46065  10.072   4.493   3.199  0.1746  0.3953  0.0681
  342MOL0     C46066  10.204   4.502   3.230 -0.0667  0.0632 -0.3650
  342MOL0     C46067  10.266   4.455   3.345 -0.4382  0.5793 -0.2956
  342MOL0     C46068  10.393   4.481   3.378 -0.0752 -0.2704 -0.1876
  342MOL0     C46069  10.468   4.561   3.294 -0.0983 -0.5172  0.1652
  342MOL0     O46070  10.602   4.572   3.319 -0.5237 -0.5016  1.1498
  342MOL0     C46071  10.646   4.704   3.316  0.7577 -0.2351 -0.2400
  342MOL0     C46072  10.575   4.806   3.407 -0.2788 -0.5376 -0.6085
  342MOL0     C46073  10.573   4.754   3.546  0.4619  1.2408 -0.6988
  342MOL0     C46074  10.458   4.830   3.623 -1.2846  0.4285 -0.8974
  342MOL0     C46075  10.465   4.984   3.622  0.4261  0.3171  0.3638
  342MOL0     C46076  10.364   5.043   3.719  0.3789 -0.4901 -0.0699
  342MOL0     C46077  10.379   5.199   3.702 -0.0125 -0.1088 -0.1461
  342MOL0     C46078  10.290   5.273   3.803 -0.5105 -0.0856 -0.0945
  342MOL0    Cl46079  10.121   5.249   3.779  0.2132  0.1083 -0.1553
  342MOL0     C46080  10.420   4.615   3.172 -0.1270  0.8581  0.0208
  342MOL0     C46081  10.290   4.573   3.142 -1.0110  0.3806  0.2242
  342MOL0     O46082  10.036   4.283   3.282 -0.2160 -0.2348  0.6904
  342MOL0     C46083   9.813   4.565   3.269 -0.5152  0.4621  1.6021
  342MOL0     C46084   9.682   4.600   3.299 -0.8313 -0.6978 -0.1422
  342MOL0     N46085   9.448   4.257   3.726 -0.9801  0.4387  0.6957
  342MOL0     N46086   9.500   4.170   3.804 -0.5084 -0.5555 -0.0838
  342MOL0     C46087   9.866   4.317   4.331 -0.0229 -0.4023 -0.4683
  342MOL0     C46088   9.909   4.357   4.208 -0.5317 -0.6435  1.1673
  342MOL0     C46089   9.994   4.484   3.819 -0.4706  0.3112  0.3838
  342MOL0     C46090   9.927   4.498   3.703 -0.2483 -0.0771  0.4699
  342MOL0     C46091   9.976   4.576   3.590 -0.0415  0.1957 -0.1087
  342MOL0     C46092  10.087   4.656   3.612 -0.0778 -0.3066  0.3729
  342MOL0     O46093  10.135   4.752   3.529 -0.1262  0.6178 -0.5107
  342MOL0     C46094  10.081   4.774   3.401  0.3254  0.0467 -0.8367
  342MOL0     C46095  10.141   4.891   3.324 -0.0867  0.6473 -0.4575
  342MOL0     C46096  10.138   5.027   3.408  0.0952 -0.5264  0.2429
  342MOL0     C46097  10.189   5.142   3.312 -0.4449 -0.0323  0.9295
  342MOL0     C46098  10.147   5.278   3.354 -0.7528  1.6019 -0.4816
  342MOL0     C46099  10.120   5.393   3.377  0.2402 -0.1080  0.3738
  342MOL0     C46100  10.160   4.640   3.732 -0.5011  0.7526 -0.0853
  342MOL0     C46101  10.116   4.547   3.830 -0.0975  0.1831  0.2576
  342MOL0     C46102  10.188   4.549   3.964 -0.0676 -0.4992  0.8957
  342MOL0     H46103  10.057   4.079   4.080  0.9126  0.7323 -0.0631
  342MOL0     H46104  10.006   3.998   4.307  0.4131  0.0553  2.2317
  342MOL0     H46105   9.966   3.956   4.503 -0.4455  0.5026 -1.0488
  342MOL0     H46106   9.871   3.996   4.644 -4.5926  1.4729  0.8336
  342MOL0     H46107   9.781   3.823   4.501 -0.3000  0.8135  3.2840
  342MOL0     H46108   9.763   3.931   4.361  3.2329  1.8766  0.3023
  342MOL0     H46109   9.637   4.080   4.541  2.7663  0.3052 -2.9096
  342MOL0     H46110   9.612   3.934   4.635  0.1750  0.9153  0.7555
  342MOL0     H46111   9.500   3.815   4.464  3.2910  0.6505  2.8703
  342MOL0     H46112   9.408   3.950   4.510 -0.4890 -0.9328 -0.6983
  342MOL0     H46113   9.548   3.921   4.242 -1.1661  0.3135 -0.9058
  342MOL0     H46114   9.376   3.950   4.274 -1.4425  2.8929  2.5604
  342MOL0     H46115   9.414   4.176   4.364 -3.0781 -2.5427 -2.4142
  342MOL0     H46116   9.587   4.161   4.324  0.2285 -2.1538  1.1026
  342MOL0     H46117   9.463   4.297   4.168  1.0772  0.4590  0.5894
  342MOL0     H46118   9.362   4.151   4.125  0.8031 -0.6285 -0.2466
  342MOL0     H46119   9.652   4.181   4.074  0.1723 -0.3229 -0.3293
  342MOL0     H46120   9.547   4.042   4.019  2.9120 -0.2002 -0.7370
  342MOL0     H46121   9.450   4.428   3.995 -3.3013 -2.0806  1.1626
  342MOL0     H46122   9.325   4.479   3.633  0.2624  0.4990 -0.7286
  342MOL0     H46123   9.345   4.575   3.783 -1.7976 -0.9784 -0.6478
  342MOL0     H46124   9.576   4.620   3.740  1.4843  0.3280 -0.6976
  342MOL0     H46125   9.573   4.499   3.610  4.1482  3.7416 -1.3342
  342MOL0     H46126   9.577   4.749   3.536  0.7054 -0.7195  1.7653
  342MOL0     H46127   9.408   4.758   3.595  0.8632  1.9350 -3.5634
  342MOL0     H46128   9.437   4.722   3.363  3.1913 -0.4956 -0.2770
  342MOL0     H46129   9.308   4.629   3.438 -0.3827  0.4723  0.2816
  342MOL0     H46130   9.577   4.303   3.425  0.2481  0.9474  2.5696
  342MOL0     H46131   9.806   4.239   3.374 -0.4098 -0.5937  1.3130
  342MOL0     H46132  10.211   4.391   3.412  2.3583  1.2191  2.9255
  342MOL0     H46133  10.445   4.422   3.453 -0.5773 -1.2106 -0.5584
  342MOL0     H46134  10.748   4.700   3.355  0.3229 -2.0602  0.8285
  342MOL0     H46135  10.653   4.751   3.218 -2.0986  3.1919  0.9995
  342MOL0     H46136  10.622   4.905   3.408  1.8022 -1.4752 -0.1439
  342MOL0     H46137  10.481   4.836   3.360 -0.3372  1.3320  0.5847
  342MOL0     H46138  10.560   4.646   3.546  1.2891  1.1237  0.2506
  342MOL0     H46139  10.669   4.764   3.598  2.1123 -0.6836 -3.1609
  342MOL0     H46140  10.473   4.808   3.729  0.4861  0.9131 -1.0273
  342MOL0     H46141  10.363   4.790   3.585  0.4684 -2.0592 -2.9798
  342MOL0     H46142  10.431   5.022   3.525 -3.2645 -0.1849  1.3329
  342MOL0     H46143  10.570   5.014   3.632  0.0816  0.7468  3.8641
  342MOL0     H46144  10.257   5.026   3.701  0.4092  0.2120 -0.9939
  342MOL0     H46145  10.370   5.014   3.825 -3.2140 -0.1026  0.3928
  342MOL0     H46146  10.361   5.235   3.601 -2.2646  0.1334  0.2957
  342MOL0     H46147  10.478   5.236   3.733  0.2155  2.4850 -3.4493
  342MOL0     H46148  10.322   5.233   3.899  3.3037  3.2078  0.2447
  342MOL0     H46149  10.309   5.380   3.798 -1.7761  0.1660  0.0031
  342MOL0     H46150  10.481   4.676   3.105  0.6930  1.7106  1.5016
  342MOL0     H46151  10.249   4.612   3.049  0.3514  1.0827 -0.1013
  342MOL0     H46152   9.884   4.627   3.215 -2.3473  0.8526 -0.4987
  342MOL0     H46153   9.664   4.704   3.276  1.6645  0.7597  3.5933
  342MOL0     H46154   9.814   4.375   4.406 -0.2330 -1.2553  0.0581
  342MOL0     H46155   9.903   4.462   4.181 -1.3262 -1.1984 -1.0729
  342MOL0     H46156   9.846   4.425   3.695 -1.5634  0.5428  5.1229
  342MOL0     H46157   9.908   4.582   3.506  1.3145 -1.3118 -1.3825
  342MOL0     H46158   9.976   4.796   3.427  0.4328 -2.3460  2.2247
  342MOL0     H46159  10.087   4.688   3.335 -0.2549  0.5393 -1.5441
  342MOL0     H46160  10.071   4.897   3.241  0.6364  0.1903 -1.1140
  342MOL0     H46161  10.244   4.871   3.292 -0.5096 -0.2760 -1.2803
  342MOL0     H46162  10.206   5.018   3.493 -2.8200  1.1977  2.9999
  342MOL0     H46163  10.041   5.041   3.457  0.5510 -1.9410  1.6378
  342MOL0     H46164  10.297   5.129   3.322 -0.1832  0.2937 -0.9713
  342MOL0     H46165  10.153   5.136   3.209 -0.1449  2.2916  0.6530
  342MOL0     H46166  10.088   5.495   3.388 -1.1111 -0.2762 -1.4350
  342MOL0     H46167  10.246   4.702   3.755  2.6544 -2.0120 -3.2469
  342MOL0     H46168  10.223   4.447   3.979 -2.9330 -2.4855 -3.6884
  342MOL0     H46169  10.271   4.619   3.959  1.4012 -2.0381  2.3063
  342MOL0     H46170  10.115   4.568   4.044 -0.9430 -3.4753  0.9364
  343MOL0     O46171   1.556   1.376   4.522 -0.0577 -0.6641  0.0764
  343MOL0     C46172   1.548   1.391   4.398 -0.2702  0.0555 -0.0330
  343MOL0     O46173   1.571   1.517   4.336 -0.2791  0.2238  0.4643
  343MOL0     C46174   1.583   1.626   4.421 -0.5970  0.0603 -0.0240
  343MOL0     C46175   1.677   1.618   4.522  1.0496  0.0387 -1.4123
  343MOL0     C46176   1.690   1.724   4.621  1.2319  0.5415 -0.0069
  343MOL0     C46177   1.604   1.836   4.608  0.2657  0.1112  0.5400
  343MOL0     O46178   1.633   1.942   4.696  0.1910  0.1531  0.0866
  343MOL0     C46179   1.545   2.048   4.717 -0.0225  0.0617  0.5961
  343MOL0     C46180   1.606   2.159   4.797 -0.3847 -0.0824  0.3431
  343MOL0     C46181   1.506   2.277   4.824  0.9066  0.6864  0.1688
  343MOL0     C46182   1.548   2.377   4.934  1.4924  0.7445  0.2922
  343MOL0     C46183   1.437   2.479   4.974 -0.8255  0.6981  0.3620
  343MOL0     C46184   1.506   2.599   5.030 -0.2101 -0.5906  0.6279
  343MOL0     C46185   1.411   2.722   5.031  0.4949 -0.1836 -0.1171
  343MOL0     C46186   1.305   2.701   5.129 -0.1940 -0.8535  0.0919
  343MOL0     N46187   1.347   2.685   5.269  0.2188 -0.4339 -0.4353
  343MOL0     C46188   1.418   2.776   5.335 -0.1439  0.2232 -0.6978
  343MOL0     C46189   1.422   2.735   5.461  0.3123  1.6204 -0.5551
  343MOL0     C46190   1.500   2.785   5.574 -0.4365  0.1425  0.1426
  343MOL0     C46191   1.531   2.944   5.567 -0.2401 -0.3397  0.2489
  343MOL0     C46192   1.650   2.963   5.472  0.1554 -0.0131  0.2982
  343MOL0     C46193   1.621   3.093   5.388 -0.0117  0.0633  0.2587
  343MOL0     O46194   1.512   3.081   5.296  1.0276 -0.2766 -0.1705
  343MOL0     C46195   1.461   3.190   5.233  0.3700 -0.2266 -1.0118
  343MOL0     C46196   1.486   3.321   5.274 -1.0659 -0.1537  0.4572
  343MOL0     C46197   1.432   3.434   5.210 -0.0476  0.4689  0.0025
  343MOL0     C46198   1.383   3.429   5.086 -0.4238 -0.0585  1.2379
  343MOL0     C46199   1.335   3.551   5.023  0.5028 -0.4244  0.0416
  343MOL0     O46200   1.288   3.642   5.110  0.1152 -0.5606 -0.1813
  343MOL0     C46201   1.228   3.757   5.061  0.2340  1.5506 -0.9972
  343MOL0     C46202   1.177   3.837   5.169  0.2250 -0.0251  1.0071
  343MOL0     C46203   1.127   3.974   5.140  0.2326 -0.5349 -0.2200
  343MOL0     C46204   1.131   4.028   5.009 -0.4285 -0.2517 -0.9667
  343MOL0     O46205   1.071   4.143   4.971 -0.2100  0.0711  1.2078
  343MOL0     C46206   1.045   4.247   5.063  0.6579 -0.9727  0.6286
  343MOL0     C46207   0.980   4.366   4.996 -0.0928  0.2340 -0.3402
  343MOL0     C46208   0.945   4.489   5.080 -0.0338  0.1580  0.1411
  343MOL0     C46209   0.886   4.458   5.212  0.4838 -0.1587 -0.5280
  343MOL0     C46210   0.832   4.584   5.277  1.3248 -0.2346  0.2152
  343MOL0     C46211   0.764   4.552   5.411 -0.1698  0.0746  0.2999
  343MOL0     C46212   0.705   4.689   5.467 -0.7772 -0.2291  1.1383
  343MOL0     C46213   0.580   4.731   5.397 -0.8881  0.2976  0.5188
  343MOL0    Cl46214   0.504   4.839   5.521 -0.0581 -0.2478 -0.0849
  343MOL0     C46215   1.170   3.939   4.910  0.1941 -1.0089 -0.7732
  343MOL0     C46216   1.222   3.811   4.931  1.8332  0.2181 -0.0270
  343MOL0     O46217   1.330   3.559   4.901  0.0576 -0.8975 -0.9562
  343MOL0     C46218   1.368   3.301   5.032  0.0663 -0.2790 -0.6528
  343MOL0     C46219   1.397   3.186   5.111 -0.4968  0.7453 -0.4828
  343MOL0     N46220   1.335   2.622   5.472  0.0869  0.1645 -0.0334
  343MOL0     N46221   1.306   2.590   5.349 -0.3646 -0.1002 -0.7489
  343MOL0     C46222   1.535   1.850   4.488 -0.2776  0.5486 -0.2701
  343MOL0     C46223   1.520   1.746   4.400 -0.4039 -0.8863  0.5225
  343MOL0     C46224   1.514   1.288   4.300  1.2334 -0.7372 -0.1872
  343MOL0     C46225   1.430   1.327   4.196  0.7425  1.3736  0.8261
  343MOL0     C46226   1.380   1.228   4.109  0.8198  0.2875 -1.0071
  343MOL0     C46227   1.419   1.097   4.132 -0.0203  0.2897  0.2672
  343MOL0     O46228   1.347   1.011   4.055 -0.4431 -0.2382 -0.8712
  343MOL0     C46229   1.347   0.863   4.069  0.4961 -0.1631  1.4356
  343MOL0     C46230   1.270   0.806   3.949 -0.4615 -0.1508  0.1951
  343MOL0     C46231   1.352   0.850   3.818  0.0052  0.5258 -0.5669
  343MOL0     C46232   1.357   0.751   3.698  0.1992  0.2640 -0.0589
  343MOL0     C46233   1.421   0.621   3.727  0.3290 -0.0097 -0.8245
  343MOL0     C46234   1.460   0.511   3.772 -0.0217  0.2626  0.0323
  343MOL0     C46235   1.494   1.054   4.248 -0.3637  0.2365  0.3088
  343MOL0     C46236   1.541   1.148   4.322  0.0644  0.0996  0.2495
  343MOL0     C46237   1.633   1.094   4.428  0.1506 -0.1323 -1.0107
  343MOL0     H46238   1.741   1.531   4.532  0.2463 -0.6762 -2.3586
  343MOL0     H46239   1.751   1.737   4.710 -0.8930  2.8854  1.2327
  343MOL0     H46240   1.516   2.086   4.619  1.9479  0.3933  0.1026
  343MOL0     H46241   1.455   2.018   4.772  0.1003  1.8787  1.9096
  343MOL0     H46242   1.699   2.196   4.754  1.8182 -3.6689  1.5891
  343MOL0     H46243   1.656   2.123   4.887 -1.0516 -1.9418  0.0099
  343MOL0     H46244   1.410   2.230   4.847  0.6216 -2.2816 -5.3617
  343MOL0     H46245   1.500   2.337   4.733  1.2269  1.6072  0.7495
  343MOL0     H46246   1.577   2.337   5.031 -1.9090  0.7653  1.4502
  343MOL0     H46247   1.634   2.421   4.882  2.9974 -2.6557 -0.4125
  343MOL0     H46248   1.379   2.500   4.883  0.3519 -0.5075 -0.7177
  343MOL0     H46249   1.366   2.442   5.048  1.2672  0.8334  2.5262
  343MOL0     H46250   1.547   2.583   5.130  1.4580  2.5079  0.5801
  343MOL0     H46251   1.591   2.622   4.965 -0.6171  0.9957  0.6106
  343MOL0     H46252   1.356   2.727   4.937 -3.3636  2.8551  2.0038
  343MOL0     H46253   1.473   2.812   5.035 -1.0758  0.9006  0.9118
  343MOL0     H46254   1.233   2.783   5.135  0.2288 -0.5584  3.6309
  343MOL0     H46255   1.251   2.610   5.101 -0.8926  0.3808 -2.9981
  343MOL0     H46256   1.468   2.854   5.279  0.0391  0.3709 -0.3317
  343MOL0     H46257   1.445   2.762   5.666 -2.6936  0.2679 -1.0984
  343MOL0     H46258   1.599   2.741   5.586  0.2166  0.5839 -2.7441
  343MOL0     H46259   1.445   3.006   5.540 -0.9288 -1.3284  0.0831
  343MOL0     H46260   1.550   2.986   5.666 -2.3097  2.1070 -0.2908
  343MOL0     H46261   1.671   2.880   5.404 -2.6329  0.7355 -1.6190
  343MOL0     H46262   1.741   2.981   5.531  2.4866 -0.0656 -2.9723
  343MOL0     H46263   1.715   3.120   5.339 -0.9097  1.2444 -0.8915
  343MOL0     H46264   1.602   3.177   5.455  0.3209  1.8875 -1.8054
  343MOL0     H46265   1.535   3.347   5.368  1.8995 -2.4569 -0.3175
  343MOL0     H46266   1.422   3.526   5.267 -4.2303 -0.1824  0.5996
  343MOL0     H46267   1.189   3.796   5.268  3.9136  1.1971  1.1878
  343MOL0     H46268   1.077   4.028   5.220 -0.4042 -1.3799 -0.0325
  343MOL0     H46269   0.984   4.204   5.143 -1.2705 -0.9806 -0.7984
  343MOL0     H46270   1.141   4.294   5.088  0.6935  0.5748 -2.1418
  343MOL0     H46271   1.045   4.398   4.913  0.5668  0.4762  0.2638
  343MOL0     H46272   0.885   4.332   4.955  0.0071  0.6778 -0.9622
  343MOL0     H46273   1.041   4.539   5.093  1.0585 -1.3584 -1.6084
  343MOL0     H46274   0.878   4.552   5.021  1.2476  0.8148 -0.6449
  343MOL0     H46275   0.952   4.418   5.288 -0.0214 -0.1886 -0.0970
  343MOL0     H46276   0.801   4.390   5.204 -1.0114  1.4546  0.7981
  343MOL0     H46277   0.758   4.633   5.213  1.9654 -0.1211 -0.4538
  343MOL0     H46278   0.914   4.655   5.290  0.2485  1.3896 -1.4379
  343MOL0     H46279   0.692   4.472   5.390 -0.5983  1.0575 -2.4231
  343MOL0     H46280   0.846   4.521   5.476  0.8641  1.6255 -0.2168
  343MOL0     H46281   0.788   4.760   5.459  1.8540 -3.0606  1.4879
  343MOL0     H46282   0.687   4.696   5.575  0.1452 -2.9896  1.5512
  343MOL0     H46283   0.609   4.780   5.304  1.8500  1.0561  1.6528
  343MOL0     H46284   0.516   4.643   5.390 -0.8326  0.0690  2.2587
  343MOL0     H46285   1.170   3.985   4.812  2.1779 -0.7116 -0.6828
  343MOL0     H46286   1.271   3.767   4.844  2.0143 -2.3622  1.2874
  343MOL0     H46287   1.307   3.271   4.947  0.3317 -1.4645 -0.4445
  343MOL0     H46288   1.368   3.084   5.085  0.5229 -0.1841  1.7645
  343MOL0     H46289   1.492   1.948   4.470  0.1341  0.5796 -1.1710
  343MOL0     H46290   1.449   1.758   4.319  0.6821  1.8124 -0.1681
  343MOL0     H46291   1.398   1.428   4.175 -1.0535  0.9044  1.1366
  343MOL0     H46292   1.309   1.265   4.035 -1.1137 -3.2237 -1.1161
  343MOL0     H46293   1.291   0.837   4.159  0.5902  0.6998  1.7501
  343MOL0     H46294   1.445   0.816   4.082  0.5877 -0.3065  0.3358
  343MOL0     H46295   1.170   0.848   3.935 -0.2737  0.2339 -0.0256
  343MOL0     H46296   1.265   0.697   3.946 -1.0743 -0.2624 -5.1011
  343MOL0     H46297   1.458   0.868   3.838  0.1114 -0.9610  0.4328
  343MOL0     H46298   1.311   0.944   3.780  0.5673  0.2569 -1.8808
  343MOL0     H46299   1.254   0.740   3.665 -0.1087 -1.8408  1.4288
  343MOL0     H46300   1.422   0.801   3.625  2.8788  0.0367  1.9924
  343MOL0     H46301   1.498   0.417   3.808  0.1990  0.1472 -0.4981
  343MOL0     H46302   1.528   0.952   4.257  0.0940 -0.2097 -4.2516
  343MOL0     H46303   1.669   0.992   4.413  0.3270 -0.1973 -0.2009
  343MOL0     H46304   1.711   1.171   4.431 -1.0785  1.1422  2.6748
  343MOL0     H46305   1.586   1.099   4.526 -0.2202 -4.2092 -0.8183
  344MOL0     O46306   1.635   6.773   8.483 -0.1645 -0.1952  0.6552
  344MOL0     C46307   1.754   6.754   8.480 -0.0671 -0.0067  0.6707
  344MOL0     O46308   1.812   6.642   8.426  0.6640 -0.4772 -0.0869
  344MOL0     C46309   1.743   6.550   8.351  0.1476 -0.6435  0.0523
  344MOL0     C46310   1.760   6.414   8.381  0.2106 -0.3522 -0.4505
  344MOL0     C46311   1.691   6.312   8.315 -0.2497 -0.5219 -0.2523
  344MOL0     C46312   1.603   6.342   8.207 -0.2429 -0.5860  0.2437
  344MOL0     O46313   1.537   6.255   8.122  0.3795 -0.0626  0.0896
  344MOL0     C46314   1.418   6.193   8.179 -0.1266 -0.7157  0.7158
  344MOL0     C46315   1.392   6.076   8.085  1.0332  0.6501  0.2574
  344MOL0     C46316   1.254   6.097   8.022 -0.2843 -0.6506 -0.5718
  344MOL0     C46317   1.228   5.986   7.909  0.6862 -0.1720 -0.1244
  344MOL0     C46318   1.068   5.990   7.896 -0.1118 -0.2625  0.0118
  344MOL0     C46319   1.008   5.927   7.776  1.2761 -0.2207 -0.2526
  344MOL0     C46320   0.854   5.937   7.770 -0.6879  0.4147 -0.3390
  344MOL0     C46321   0.810   5.882   7.632  0.4123 -0.0670  0.3464
  344MOL0     N46322   0.668   5.877   7.628  0.0728 -0.2928 -0.3341
  344MOL0     C46323   0.573   5.975   7.598 -1.4425  0.4244 -0.1017
  344MOL0     C46324   0.453   5.913   7.616 -0.6644 -0.1844 -0.2917
  344MOL0     C46325   0.317   5.961   7.568  0.7623 -0.5759 -0.3338
  344MOL0     C46326   0.258   6.078   7.637 -0.4650 -0.7670  0.5451
  344MOL0     C46327   0.314   6.203   7.573  0.0400 -0.5626  0.7891
  344MOL0     C46328   0.265   6.336   7.638  0.1142 -0.4062 -0.6087
  344MOL0     O46329   0.281   6.455   7.553  0.9109 -0.7600 -0.9533
  344MOL0     C46330   0.397   6.495   7.505 -0.8936  0.0948  0.2575
  344MOL0     C46331   0.519   6.456   7.557 -0.4204 -0.4038 -0.1816
  344MOL0     C46332   0.635   6.516   7.518 -0.2168  0.5716  2.0226
  344MOL0     C46333   0.634   6.607   7.404  0.2520  1.2740  0.1624
  344MOL0     C46334   0.748   6.668   7.346 -0.3750 -0.4491  0.1401
  344MOL0     O46335   0.726   6.756   7.241  0.5720 -0.1522 -0.6308
  344MOL0     C46336   0.827   6.801   7.164  0.1742 -0.6244 -0.0066
  344MOL0     C46337   0.858   6.731   7.052 -0.9800 -0.1057 -1.8449
  344MOL0     C46338   0.942   6.781   6.955  0.1687 -0.6359  0.9677
  344MOL0     C46339   0.993   6.910   6.968  0.8946 -0.4346 -0.5157
  344MOL0     O46340   1.077   6.969   6.881 -0.1818  0.7449  0.4515
  344MOL0     C46341   1.024   7.085   6.817  0.0374  0.7713  0.0150
  344MOL0     C46342   1.142   7.172   6.817 -0.1773  0.2055  0.6517
  344MOL0     C46343   1.199   7.233   6.953 -0.1863 -0.0137 -0.3392
  344MOL0     C46344   1.124   7.351   7.020  0.6340 -0.1484 -0.4582
  344MOL0     C46345   1.197   7.414   7.143 -0.6389 -0.6283 -0.3365
  344MOL0     C46346   1.181   7.329   7.269 -0.1753  1.4731  0.1989
  344MOL0     C46347   1.215   7.410   7.387 -0.4680  0.4183 -0.2410
  344MOL0     C46348   1.098   7.480   7.456  1.0148  0.6136 -0.2606
  344MOL0    Cl46349   0.963   7.390   7.517  0.1161  0.3750  0.2271
  344MOL0     C46350   0.957   6.987   7.085 -0.1971  0.0095  0.2879
  344MOL0     C46351   0.881   6.931   7.185 -0.1204 -0.2815 -0.4025
  344MOL0     O46352   0.863   6.642   7.392  0.6491  0.6790  0.5559
  344MOL0     C46353   0.506   6.643   7.351  0.4437  0.0938  0.4687
  344MOL0     C46354   0.391   6.591   7.407  0.0291 -0.2087 -0.0211
  344MOL0     N46355   0.472   5.789   7.666 -0.6140 -1.0913  1.0348
  344MOL0     N46356   0.600   5.772   7.674  0.0514 -1.1741 -0.4278
  344MOL0     C46357   1.595   6.482   8.169 -0.0719  0.7597  0.0350
  344MOL0     C46358   1.650   6.579   8.254 -0.2517 -0.0196  0.7130
  344MOL0     C46359   1.849   6.845   8.545 -0.6896  0.3537 -0.2559
  344MOL0     C46360   1.785   6.951   8.621 -0.7488 -0.5512 -0.4303
  344MOL0     C46361   1.860   7.049   8.688  0.7905  0.3639  0.4374
  344MOL0     C46362   1.998   7.054   8.667  0.2505  0.5283 -0.4963
  344MOL0     O46363   2.079   7.155   8.714  0.3984  0.4247  0.8914
  344MOL0     C46364   2.023   7.257   8.797 -0.7630  0.2650 -0.6596
  344MOL0     C46365   1.954   7.376   8.737 -0.4504  0.1279 -0.3978
  344MOL0     C46366   2.037   7.501   8.737 -0.5691  0.0975  0.7480
  344MOL0     C46367   2.191   7.484   8.704  0.0748 -0.4747  0.1172
  344MOL0     C46368   2.253   7.618   8.676 -0.2896 -0.3450  0.3820
  344MOL0     C46369   2.291   7.727   8.643 -0.4571 -0.7548  0.5440
  344MOL0     C46370   2.062   6.940   8.611  0.6065  0.0235  0.4405
  344MOL0     C46371   1.988   6.833   8.554 -0.0895 -0.3283 -0.8378
  344MOL0     C46372   2.066   6.735   8.473  0.7011  0.2006  0.5649
  344MOL0     H46373   1.822   6.395   8.469 -2.1501 -0.8046  1.2082
  344MOL0     H46374   1.706   6.209   8.344 -1.1019 -0.6027 -0.0780
  344MOL0     H46375   1.438   6.167   8.284  0.6333  0.9652  1.0239
  344MOL0     H46376   1.335   6.264   8.175  1.8789  1.7476 -0.0437
  344MOL0     H46377   1.402   5.984   8.145 -1.3497  0.9945  1.3014
  344MOL0     H46378   1.465   6.072   8.004 -1.5935  2.0068 -2.3472
  344MOL0     H46379   1.242   6.188   7.962  3.4113 -0.8315 -1.8230
  344MOL0     H46380   1.182   6.103   8.104 -2.1990  3.9150 -2.2661
  344MOL0     H46381   1.278   6.009   7.815  3.8398 -2.0314  0.9399
  344MOL0     H46382   1.264   5.888   7.943 -0.2551 -1.4926 -2.7486
  344MOL0     H46383   1.017   5.949   7.984  0.1032  0.9893  0.7449
  344MOL0     H46384   1.029   6.092   7.897 -0.1919 -0.2712  1.9157
  344MOL0     H46385   1.047   5.981   7.690 -0.6363  3.3182  0.8830
  344MOL0     H46386   1.033   5.820   7.776 -2.1171 -1.1523  0.7335
  344MOL0     H46387   0.817   6.039   7.781 -0.1224  0.4423  1.9095
  344MOL0     H46388   0.821   5.866   7.847  2.0643  0.3224  0.8801
  344MOL0     H46389   0.843   5.941   7.546  1.8403  2.2204  2.3223
  344MOL0     H46390   0.850   5.782   7.613 -0.8646 -0.3750 -0.9102
  344MOL0     H46391   0.610   6.068   7.556  1.8747 -0.4148  0.7311
  344MOL0     H46392   0.330   5.983   7.461  0.1238 -2.8596 -0.9456
  344MOL0     H46393   0.244   5.880   7.577 -2.5262  2.2323  0.3867
  344MOL0     H46394   0.150   6.087   7.620 -0.3727 -0.6097  0.0483
  344MOL0     H46395   0.266   6.085   7.746 -1.7190  2.0479  0.5569
  344MOL0     H46396   0.275   6.209   7.471  0.9603  0.5839  0.4924
  344MOL0     H46397   0.423   6.198   7.574  0.0149 -1.2298  1.8063
  344MOL0     H46398   0.325   6.355   7.728  1.5160 -2.3013 -1.0757
  344MOL0     H46399   0.163   6.325   7.675 -0.9556  2.3335 -2.3987
  344MOL0     H46400   0.527   6.387   7.641 -0.7265 -1.0472 -0.6686
  344MOL0     H46401   0.726   6.496   7.572  0.6340 -3.0371 -0.3855
  344MOL0     H46402   0.826   6.627   7.048  0.0093 -0.5014 -0.3354
  344MOL0     H46403   0.961   6.726   6.863  1.8264  0.1484  0.8007
  344MOL0     H46404   1.011   7.053   6.713  0.3616 -1.7036  0.6552
  344MOL0     H46405   0.931   7.128   6.855  0.0285 -0.4477  1.4693
  344MOL0     H46406   1.223   7.110   6.779 -1.2413 -1.4807  1.0398
  344MOL0     H46407   1.127   7.256   6.748 -0.5450  0.0192  0.5070
  344MOL0     H46408   1.223   7.150   7.019  0.5563 -0.7724 -1.5168
  344MOL0     H46409   1.292   7.285   6.930  0.3733 -0.0517  1.7194
  344MOL0     H46410   1.022   7.328   7.054  1.4916  0.7161  3.0370
  344MOL0     H46411   1.126   7.428   6.942  0.2387  2.5114  1.9726
  344MOL0     H46412   1.154   7.513   7.163  0.5946 -0.6152  2.9207
  344MOL0     H46413   1.300   7.443   7.121 -1.5237  1.2526 -2.3937
  344MOL0     H46414   1.083   7.279   7.274 -1.4386  3.8724  1.1278
  344MOL0     H46415   1.252   7.245   7.271 -1.7551  0.0890  0.9403
  344MOL0     H46416   1.289   7.485   7.357 -0.5955  0.1557 -1.2583
  344MOL0     H46417   1.254   7.338   7.459  1.8907 -2.1506 -3.7064
  344MOL0     H46418   1.128   7.533   7.547  0.2490 -2.9434  2.2846
  344MOL0     H46419   1.061   7.559   7.391  1.0178 -0.1685 -1.2531
  344MOL0     H46420   1.006   7.083   7.095 -0.0129  0.0598 -0.9349
  344MOL0     H46421   0.865   6.997   7.271 -1.5106 -0.2942 -0.6270
  344MOL0     H46422   0.501   6.715   7.270  1.5171  0.4714  0.7313
  344MOL0     H46423   0.297   6.619   7.360 -0.5057  1.8527  2.0441
  344MOL0     H46424   1.529   6.516   8.090 -2.1198 -1.4982  0.6539
  344MOL0     H46425   1.631   6.685   8.244  0.2955 -0.0897 -1.7393
  344MOL0     H46426   1.677   6.956   8.630 -0.6080 -1.2530  4.1465
  344MOL0     H46427   1.800   7.130   8.728  0.4425  1.3310 -1.8630
  344MOL0     H46428   2.101   7.292   8.864 -1.9785 -0.2001  1.0526
  344MOL0     H46429   1.965   7.206   8.874  3.2219 -0.7343  2.0234
  344MOL0     H46430   1.879   7.390   8.815  0.6587 -0.3980  0.8174
  344MOL0     H46431   1.910   7.347   8.641 -0.2690  1.1738 -0.8026
  344MOL0     H46432   2.028   7.548   8.836 -0.1142  2.2593 -0.1845
  344MOL0     H46433   1.983   7.563   8.665 -0.7757 -0.7924  0.1323
  344MOL0     H46434   2.244   7.434   8.786  0.1368 -5.4349 -2.5472
  344MOL0     H46435   2.200   7.415   8.620 -3.1870 -1.4957  0.4696
  344MOL0     H46436   2.319   7.826   8.613 -0.8165 -0.5593  0.8636
  344MOL0     H46437   2.168   6.925   8.625  0.4038 -1.1563  0.8389
  344MOL0     H46438   2.034   6.749   8.369 -0.3778  1.9472  1.1031
  344MOL0     H46439   2.173   6.757   8.460  0.4498  0.6032 -1.0426
  344MOL0     H46440   2.068   6.635   8.517 -0.0141 -0.7707 -1.4497
  345MOL0     O46441   5.439   0.284   0.260  0.2777  0.2709 -0.5700
  345MOL0     C46442   5.483   0.181   0.317  0.0384 -0.3878  0.8242
  345MOL0     O46443   5.497   0.061   0.266  0.5160 -0.5519  0.2204
  345MOL0     C46444   5.418   0.026   0.151  0.1783 -0.6962  0.2318
  345MOL0     C46445   5.307   0.087   0.092 -0.3179  0.0325  0.0660
  345MOL0     C46446   5.251   0.041  -0.031  1.2064 -0.8427 -0.5714
  345MOL0     C46447   5.290  -0.083  -0.082  0.1430  0.0482  0.8810
  345MOL0     O46448   5.231  -0.123  -0.196 -0.0972 -0.0375 -0.4495
  345MOL0     C46449   5.289  -0.218  -0.285  0.9550  0.1185 -0.8217
  345MOL0     C46450   5.266  -0.358  -0.252 -1.3978  0.5816 -1.0428
  345MOL0     C46451   5.325  -0.455  -0.355 -1.4054 -0.0855  0.8271
  345MOL0     C46452   5.229  -0.488  -0.471  0.0116  0.5878 -0.0358
  345MOL0     C46453   5.275  -0.599  -0.563 -0.5499 -0.0124  0.4131
  345MOL0     C46454   5.411  -0.570  -0.636 -0.5808  0.3452 -0.4171
  345MOL0     C46455   5.444  -0.695  -0.728 -0.4470  0.3504  0.4870
  345MOL0     C46456   5.592  -0.676  -0.767  0.3137  0.1970  0.5271
  345MOL0     N46457   5.605  -0.583  -0.877  0.2071 -0.2340  0.6708
  345MOL0     C46458   5.663  -0.456  -0.863 -0.1051 -0.7084  0.8926
  345MOL0     C46459   5.686  -0.410  -0.985  0.3800 -1.2430 -0.8058
  345MOL0     C46460   5.772  -0.287  -1.021  0.5640  0.4789 -0.0693
  345MOL0     C46461   5.685  -0.168  -1.066 -0.2403 -0.1557 -0.1393
  345MOL0     C46462   5.592  -0.104  -0.961 -0.1900 -0.3635 -0.1645
  345MOL0     C46463   5.662  -0.035  -0.843  0.6939  0.7945 -0.1958
  345MOL0     O46464   5.732  -0.126  -0.766 -0.3244  0.6118 -0.1438
  345MOL0     C46465   5.736  -0.109  -0.630  0.8823  0.1244 -0.0897
  345MOL0     C46466   5.779   0.011  -0.574 -0.1273 -0.2315  0.4396
  345MOL0     C46467   5.773   0.021  -0.438 -0.5321 -0.0145 -0.4161
  345MOL0     C46468   5.750  -0.091  -0.351 -0.1246 -0.5944 -0.7328
  345MOL0     C46469   5.762  -0.065  -0.202  0.3279 -0.8112 -0.1008
  345MOL0     O46470   5.837   0.037  -0.161  0.2308  0.1858  0.0163
  345MOL0     C46471   5.830   0.065  -0.022 -0.2467 -0.3756  0.6650
  345MOL0     C46472   5.893  -0.011   0.082  0.1004  0.6362 -0.3665
  345MOL0     C46473   5.902   0.023   0.210 -0.2042 -0.2801  1.1897
  345MOL0     C46474   5.855   0.149   0.247 -0.3953 -0.1429  0.1794
  345MOL0     O46475   5.872   0.208   0.370  0.5298  0.2694  0.5409
  345MOL0     C46476   5.916   0.134   0.484 -0.3637 -0.3382  0.5628
  345MOL0     C46477   5.858   0.194   0.613 -0.1325  0.1754  0.8946
  345MOL0     C46478   5.947   0.135   0.733  0.7778 -0.5032  0.9117
  345MOL0     C46479   5.884   0.179   0.865  0.8593 -0.3908  0.7303
  345MOL0     C46480   5.953   0.100   0.979 -0.4805 -1.4676  0.0915
  345MOL0     C46481   6.099   0.153   0.984 -0.5280  0.1247  1.2552
  345MOL0     C46482   6.177   0.090   1.103  0.5093 -0.0994 -0.0815
  345MOL0     C46483   6.309   0.167   1.109 -0.3013  0.6305  0.0930
  345MOL0    Cl46484   6.408   0.078   1.238  0.3651  0.2649  0.1035
  345MOL0     C46485   5.787   0.230   0.157 -0.5775 -0.1042  0.6108
  345MOL0     C46486   5.776   0.188   0.020  0.4671 -0.0223 -0.0020
  345MOL0     O46487   5.726  -0.159  -0.138  0.4708  0.2662  0.0903
  345MOL0     C46488   5.708  -0.210  -0.406  0.7132 -0.0886  0.6425
  345MOL0     C46489   5.707  -0.223  -0.549 -0.2317  0.7270  0.8253
  345MOL0     N46490   5.631  -0.491  -1.078 -0.0651  0.7601  0.0470
  345MOL0     N46491   5.600  -0.606  -1.014 -0.7659  0.1438  0.4655
  345MOL0     C46492   5.390  -0.156  -0.012 -1.2681  0.2368  0.8912
  345MOL0     C46493   5.463  -0.095   0.093  0.5553  0.3201 -0.0275
  345MOL0     C46494   5.492   0.190   0.469 -0.4010 -0.0645  0.7544
  345MOL0     C46495   5.473   0.078   0.549 -0.1916  0.1939  0.3434
  345MOL0     C46496   5.463   0.082   0.687 -0.4417 -0.2050 -0.6524
  345MOL0     C46497   5.480   0.211   0.753 -0.5345  0.2458  0.0025
  345MOL0     O46498   5.474   0.245   0.886  0.2841 -0.4069 -0.0128
  345MOL0     C46499   5.378   0.195   0.979 -0.3730  0.8693  0.1133
  345MOL0     C46500   5.244   0.250   0.960  0.9267  0.1018 -0.6396
  345MOL0     C46501   5.231   0.403   0.962 -0.9161  0.0372  0.1798
  345MOL0     C46502   5.095   0.454   1.004  0.8652 -0.1411 -0.7974
  345MOL0     C46503   4.991   0.428   0.905  0.5207 -0.4104  0.0944
  345MOL0     C46504   4.901   0.438   0.827 -0.9886 -0.3453 -0.2724
  345MOL0     C46505   5.531   0.319   0.675  0.4507 -0.5778  0.3475
  345MOL0     C46506   5.530   0.306   0.536 -0.5730  1.0242  0.0008
  345MOL0     C46507   5.582   0.433   0.474  0.0924  0.2492  0.7343
  345MOL0     H46508   5.268   0.186   0.116  0.8434  0.1819  1.4415
  345MOL0     H46509   5.168   0.099  -0.071  1.5129 -0.4928 -0.7123
  345MOL0     H46510   5.259  -0.204  -0.389 -2.7632 -1.4652 -0.1015
  345MOL0     H46511   5.396  -0.195  -0.281  1.5421 -2.5046  2.1035
  345MOL0     H46512   5.161  -0.384  -0.237 -0.5163 -2.8688 -0.0675
  345MOL0     H46513   5.313  -0.373  -0.154  0.5369  4.0039 -1.2676
  345MOL0     H46514   5.357  -0.546  -0.303  0.0245 -1.0559 -1.5723
  345MOL0     H46515   5.419  -0.421  -0.398 -1.5835 -0.8571 -0.2156
  345MOL0     H46516   5.144  -0.530  -0.416  1.7230  0.8626  3.0431
  345MOL0     H46517   5.194  -0.394  -0.515 -2.1167 -0.1826 -0.0857
  345MOL0     H46518   5.293  -0.697  -0.519  2.1141 -0.5082 -1.5226
  345MOL0     H46519   5.186  -0.610  -0.625 -1.4296  0.2363  1.6170
  345MOL0     H46520   5.387  -0.482  -0.696 -0.0042  1.3218  0.7351
  345MOL0     H46521   5.497  -0.545  -0.573  0.3788  3.6246 -2.7952
  345MOL0     H46522   5.383  -0.708  -0.818 -1.6035  2.2197  0.9433
  345MOL0     H46523   5.439  -0.788  -0.671  4.8929 -0.7564 -0.3531
  345MOL0     H46524   5.660  -0.642  -0.688 -0.3691  1.6957  0.4966
  345MOL0     H46525   5.647  -0.766  -0.795  1.0421  1.0724 -0.9945
  345MOL0     H46526   5.699  -0.420  -0.767 -0.3397  2.5850 -0.1522
  345MOL0     H46527   5.827  -0.251  -0.933  1.2900 -0.4076 -0.1495
  345MOL0     H46528   5.850  -0.312  -1.093 -1.5815 -1.1022 -1.9594
  345MOL0     H46529   5.764  -0.095  -1.086  2.6734 -2.6662  1.3641
  345MOL0     H46530   5.638  -0.189  -1.163  3.1741 -2.5354 -1.4840
  345MOL0     H46531   5.520  -0.181  -0.934 -1.6128 -0.3094 -3.3594
  345MOL0     H46532   5.531  -0.033  -1.016  0.8589  0.7626  0.0710
  345MOL0     H46533   5.590   0.023  -0.784  0.6771  1.0369 -0.4543
  345MOL0     H46534   5.732   0.042  -0.877 -0.2837  1.4536 -0.7836
  345MOL0     H46535   5.787   0.093  -0.645  0.6714 -0.2647  0.4816
  345MOL0     H46536   5.804   0.117  -0.397  2.8035 -1.7170  1.4862
  345MOL0     H46537   5.936  -0.108   0.060  0.9601  1.2217 -1.3503
  345MOL0     H46538   5.932  -0.042   0.292 -1.6020  0.0531  2.0031
  345MOL0     H46539   5.876   0.032   0.484 -0.1568 -0.4360 -0.8845
  345MOL0     H46540   6.024   0.134   0.498 -0.4908 -2.5487  2.2785
  345MOL0     H46541   5.890   0.298   0.601  1.2892 -0.4816 -1.9596
  345MOL0     H46542   5.752   0.174   0.630 -0.5151  0.5747 -0.8212
  345MOL0     H46543   5.952   0.026   0.727  2.4651 -0.6433  3.2846
  345MOL0     H46544   6.042   0.188   0.719 -1.5055  3.6582 -0.6224
  345MOL0     H46545   5.777   0.162   0.856  0.7250  0.1544  1.2809
  345MOL0     H46546   5.913   0.282   0.886  0.4991 -0.7510  3.4685
  345MOL0     H46547   5.959  -0.008   0.959 -0.6201 -1.1382 -1.8830
  345MOL0     H46548   5.899   0.121   1.072  1.4313 -1.2504  1.1945
  345MOL0     H46549   6.143   0.135   0.886  3.9053  1.3119  2.7839
  345MOL0     H46550   6.106   0.262   0.995 -0.0960  0.7805 -3.5451
  345MOL0     H46551   6.204  -0.015   1.090 -1.4685 -0.8940  1.6467
  345MOL0     H46552   6.112   0.094   1.191 -3.7106 -1.0431 -2.9153
  345MOL0     H46553   6.369   0.157   1.018 -1.9038  2.4030 -1.2285
  345MOL0     H46554   6.300   0.272   1.138  1.5117  0.2224  2.4369
  345MOL0     H46555   5.728   0.314   0.191  0.4088 -0.5985  3.9136
  345MOL0     H46556   5.737   0.256  -0.055  1.4319 -1.4318 -1.8395
  345MOL0     H46557   5.675  -0.291  -0.342 -2.0121  0.7544  0.4042
  345MOL0     H46558   5.685  -0.320  -0.592  0.4785  0.2140  1.6041
  345MOL0     H46559   5.446  -0.244  -0.044  0.4627  1.6239 -0.0443
  345MOL0     H46560   5.545  -0.151   0.138 -1.3673 -1.7915  1.0706
  345MOL0     H46561   5.447  -0.016   0.503 -0.5838  0.3000  0.3377
  345MOL0     H46562   5.424  -0.005   0.740 -2.2331  1.6948  1.4204
  345MOL0     H46563   5.415   0.222   1.078  2.1189 -2.4928  0.2640
  345MOL0     H46564   5.370   0.086   0.975  0.1669  0.8482 -0.9221
  345MOL0     H46565   5.173   0.204   1.029  0.2855 -0.1769 -1.4632
  345MOL0     H46566   5.210   0.219   0.861 -0.4570 -0.3903 -0.0372
  345MOL0     H46567   5.245   0.435   0.859 -1.9771  1.6751  0.5015
  345MOL0     H46568   5.311   0.447   1.023  0.4746  0.1584 -1.6572
  345MOL0     H46569   5.064   0.398   1.093 -0.5802  2.4720  0.4471
  345MOL0     H46570   5.102   0.559   1.035 -1.3312  0.0214 -0.6864
  345MOL0     H46571   4.827   0.435   0.750 -1.2323 -1.9500  0.0096
  345MOL0     H46572   5.556   0.412   0.725 -1.3579 -0.0751  0.3704
  345MOL0     H46573   5.500   0.501   0.452  1.2901  0.6763 -3.1758
  345MOL0     H46574   5.653   0.494   0.531  1.6056  2.0247 -2.7907
  345MOL0     H46575   5.620   0.419   0.373 -0.5018 -2.8064  0.8232
  346MOL0     O46576   4.849   2.763   4.721 -1.4209 -0.2510  0.3801
  346MOL0     C46577   4.748   2.706   4.755 -0.4750 -0.4203  0.7423
  346MOL0     O46578   4.646   2.677   4.670 -0.9796  0.2250  0.5555
  346MOL0     C46579   4.672   2.705   4.543  0.0578  0.4440  1.2439
  346MOL0     C46580   4.724   2.613   4.451  0.2531  0.4247 -0.0518
  346MOL0     C46581   4.745   2.643   4.319  0.1800  0.0701 -1.2598
  346MOL0     C46582   4.709   2.764   4.268 -0.0332  0.5056 -0.8605
  346MOL0     O46583   4.734   2.770   4.131 -0.1185 -0.2486  0.2670
  346MOL0     C46584   4.730   2.904   4.077  0.6631 -0.0792  1.9198
  346MOL0     C46585   4.763   2.899   3.920  1.6596  0.4535 -0.4951
  346MOL0     C46586   4.905   2.879   3.897 -1.0126 -0.3355 -0.0618
  346MOL0     C46587   4.989   2.976   3.805  0.7849 -0.3873 -0.5573
  346MOL0     C46588   5.140   2.928   3.802  0.6743  0.3034 -0.7005
  346MOL0     C46589   5.226   2.997   3.706 -0.3612  0.0553 -0.5696
  346MOL0     C46590   5.185   3.145   3.667  0.4981 -0.2159 -0.7490
  346MOL0     C46591   5.293   3.223   3.585 -0.0046  1.0963 -0.3751
  346MOL0     N46592   5.254   3.364   3.544 -0.1535  1.5590 -0.4546
  346MOL0     C46593   5.336   3.472   3.573  0.4124 -0.2167 -0.6820
  346MOL0     C46594   5.279   3.571   3.504 -0.1510 -0.1621  0.2771
  346MOL0     C46595   5.338   3.710   3.489  0.0850 -0.3328 -0.8521
  346MOL0     C46596   5.295   3.811   3.600 -1.1537  0.5709 -0.4785
  346MOL0     C46597   5.362   3.811   3.747  0.1627  0.4190 -0.4109
  346MOL0     C46598   5.517   3.840   3.750 -0.5641  0.5205 -0.4773
  346MOL0     O46599   5.539   3.957   3.683 -0.6023  0.4534 -0.5164
  346MOL0     C46600   5.514   4.079   3.744  0.7329  0.7598 -0.7247
  346MOL0     C46601   5.410   4.160   3.698 -0.7323 -0.3578  0.6884
  346MOL0     C46602   5.383   4.285   3.747  0.9349 -0.8662 -0.8263
  346MOL0     C46603   5.462   4.338   3.844  0.5548  0.2553 -0.0969
  346MOL0     C46604   5.440   4.475   3.900 -0.4649 -0.3232 -0.4951
  346MOL0     O46605   5.372   4.569   3.840  0.6090 -0.5273  0.6290
  346MOL0     C46606   5.362   4.698   3.866  0.0092 -0.8826 -0.6786
  346MOL0     C46607   5.241   4.767   3.859  0.5162  0.7717  0.3972
  346MOL0     C46608   5.228   4.908   3.875  0.1118  0.3912 -1.6117
  346MOL0     C46609   5.338   4.986   3.918  0.5424 -0.3537  0.5480
  346MOL0     O46610   5.329   5.118   3.940  0.2158 -0.3847 -0.6054
  346MOL0     C46611   5.446   5.179   3.993 -0.8564  0.1643 -0.1769
  346MOL0     C46612   5.421   5.327   4.047  0.1297 -0.0213 -1.4396
  346MOL0     C46613   5.384   5.422   3.936  1.0975 -0.3801  0.5189
  346MOL0     C46614   5.357   5.557   3.985 -0.9458 -0.2221  0.4131
  346MOL0     C46615   5.360   5.650   3.861  0.2772 -0.9448  0.0809
  346MOL0     C46616   5.309   5.787   3.899  0.8176  1.2317 -0.0593
  346MOL0     C46617   5.330   5.901   3.804  0.1701  0.4522  0.3032
  346MOL0     C46618   5.289   6.035   3.860  0.5325 -0.7173 -0.0234
  346MOL0    Cl46619   5.394   6.095   3.977  0.6703 -0.0510 -0.2313
  346MOL0     C46620   5.455   4.907   3.940 -0.7627  0.0144  1.2294
  346MOL0     C46621   5.473   4.773   3.908  0.9029  0.0119  0.8342
  346MOL0     O46622   5.488   4.480   4.009  0.3859 -0.1634 -0.4531
  346MOL0     C46623   5.573   4.260   3.888 -0.8396  0.6203 -0.0350
  346MOL0     C46624   5.589   4.126   3.845  0.0284 -1.2830 -0.5386
  346MOL0     N46625   5.166   3.531   3.437 -0.7934 -0.2783 -0.1852
  346MOL0     N46626   5.157   3.403   3.466  0.2800 -0.3658 -0.0852
  346MOL0     C46627   4.638   2.846   4.349  0.0010 -0.2225  0.8154
  346MOL0     C46628   4.623   2.828   4.484 -0.2912 -0.5401  0.3082
  346MOL0     C46629   4.737   2.670   4.905  0.1635 -0.1059  0.5874
  346MOL0     C46630   4.643   2.570   4.933  0.5117 -0.4799  0.4991
  346MOL0     C46631   4.607   2.532   5.062 -0.4895  0.5786 -0.0271
  346MOL0     C46632   4.681   2.570   5.164 -0.4334 -0.4823  0.5160
  346MOL0     O46633   4.650   2.535   5.291 -0.6288  0.6407 -0.1831
  346MOL0     C46634   4.579   2.647   5.357  0.4265  0.5280 -0.1226
  346MOL0     C46635   4.657   2.669   5.489  0.9635  0.4169  0.5535
  346MOL0     C46636   4.619   2.802   5.566  0.2051 -1.1044  0.6096
  346MOL0     C46637   4.467   2.792   5.613  0.6739 -0.3036  1.3834
  346MOL0     C46638   4.462   2.907   5.713  0.5844  1.2885  0.9917
  346MOL0     C46639   4.445   2.989   5.796  0.6832 -0.0490 -0.3000
  346MOL0     C46640   4.785   2.671   5.149  0.5003  0.6278 -1.7074
  346MOL0     C46641   4.806   2.725   5.016  0.6302  0.4942  0.1809
  346MOL0     C46642   4.877   2.857   4.994 -0.5165  0.9975 -0.0850
  346MOL0     H46643   4.759   2.515   4.484 -0.5983  0.4427  0.9718
  346MOL0     H46644   4.792   2.564   4.262  0.4428 -0.9587  0.3362
  346MOL0     H46645   4.632   2.951   4.089  0.6447 -0.4158  3.1292
  346MOL0     H46646   4.813   2.963   4.116  0.9232  0.6661  0.3261
  346MOL0     H46647   4.713   2.990   3.885 -2.7804 -1.9002 -0.9496
  346MOL0     H46648   4.698   2.819   3.883  0.8246  1.4796 -1.3134
  346MOL0     H46649   4.931   2.786   3.846  0.5725 -0.6392  1.2132
  346MOL0     H46650   4.950   2.869   3.997  0.6135 -1.0030 -0.8273
  346MOL0     H46651   4.934   2.959   3.712  1.2384 -2.5019 -0.4899
  346MOL0     H46652   4.986   3.078   3.844  0.2909  0.5079 -2.7524
  346MOL0     H46653   5.177   2.936   3.905 -1.8121 -3.6706  0.6940
  346MOL0     H46654   5.139   2.824   3.769 -5.5803 -0.2443  0.0397
  346MOL0     H46655   5.330   2.995   3.741 -0.9099 -2.2808  1.1415
  346MOL0     H46656   5.226   2.930   3.619  2.1618  0.4075 -0.9373
  346MOL0     H46657   5.187   3.206   3.758  2.3700 -0.4429 -0.5861
  346MOL0     H46658   5.094   3.151   3.608  0.5051  2.3234 -0.5990
  346MOL0     H46659   5.379   3.230   3.651  0.3782 -1.2321 -0.5330
  346MOL0     H46660   5.323   3.156   3.504  0.6629 -2.1996  2.3688
  346MOL0     H46661   5.430   3.475   3.628 -0.7122 -0.3606  1.3617
  346MOL0     H46662   5.443   3.719   3.462  0.1656 -1.2301 -0.8648
  346MOL0     H46663   5.287   3.757   3.404  0.0631 -0.2443 -0.7907
  346MOL0     H46664   5.303   3.906   3.548  0.1410  0.6905 -0.1119
  346MOL0     H46665   5.188   3.793   3.611 -0.8453 -3.0601 -1.8267
  346MOL0     H46666   5.343   3.713   3.791 -0.8281  0.2629 -1.1506
  346MOL0     H46667   5.317   3.888   3.810 -1.2110  0.2550 -1.1557
  346MOL0     H46668   5.576   3.764   3.699  4.4977  0.5934  4.3414
  346MOL0     H46669   5.550   3.846   3.854  0.3634 -1.9281 -0.5775
  346MOL0     H46670   5.347   4.122   3.618 -2.5531 -1.4107  2.5220
  346MOL0     H46671   5.307   4.350   3.705  0.5751  0.1509  1.2921
  346MOL0     H46672   5.159   4.698   3.840  1.4834 -0.8097  1.6358
  346MOL0     H46673   5.124   4.939   3.870 -0.8940 -2.3946 -0.1807
  346MOL0     H46674   5.485   5.129   4.082  0.7786  0.2234 -0.8381
  346MOL0     H46675   5.526   5.181   3.918  0.3729  1.4436  1.1201
  346MOL0     H46676   5.357   5.341   4.135  0.3119  0.3536 -1.3629
  346MOL0     H46677   5.519   5.350   4.090  0.1365 -1.8261 -0.3805
  346MOL0     H46678   5.471   5.422   3.870  0.7820  0.1688  0.0969
  346MOL0     H46679   5.302   5.373   3.881  0.9893  1.6390 -1.2455
  346MOL0     H46680   5.433   5.589   4.058 -3.0511  2.6948  1.4845
  346MOL0     H46681   5.272   5.563   4.052  0.2157  3.3380  1.8320
  346MOL0     H46682   5.288   5.609   3.790 -0.2290  0.5164 -0.2826
  346MOL0     H46683   5.449   5.660   3.799 -0.9920 -0.0951 -1.6965
  346MOL0     H46684   5.203   5.783   3.925  1.0423  2.5272  1.1607
  346MOL0     H46685   5.348   5.822   3.995 -2.2615  1.0289  1.3755
  346MOL0     H46686   5.270   5.898   3.713 -1.6967  3.0671  1.3065
  346MOL0     H46687   5.436   5.921   3.786  0.1088  0.3487 -0.1657
  346MOL0     H46688   5.287   6.108   3.778  1.2397  2.6071  2.6800
  346MOL0     H46689   5.186   6.036   3.897  0.5692 -1.1723  0.1051
  346MOL0     H46690   5.548   4.951   3.974 -0.1641 -0.6274  0.4551
  346MOL0     H46691   5.567   4.719   3.918 -0.1471 -1.6901  1.9024
  346MOL0     H46692   5.643   4.301   3.960 -0.1100 -1.0608  0.2609
  346MOL0     H46693   5.675   4.067   3.875  2.0257 -0.5812 -4.2819
  346MOL0     H46694   4.620   2.950   4.323 -0.5825 -0.3768  0.5801
  346MOL0     H46695   4.581   2.906   4.547  0.6715  1.6501 -1.5988
  346MOL0     H46696   4.582   2.524   4.856  2.3063 -0.6296 -0.8789
  346MOL0     H46697   4.523   2.466   5.083 -0.2841  0.2588 -0.2058
  346MOL0     H46698   4.478   2.610   5.380  0.0148  0.1905 -2.2645
  346MOL0     H46699   4.559   2.737   5.299 -2.9127 -1.5197 -2.5509
  346MOL0     H46700   4.761   2.670   5.456  0.2495  1.6289 -1.9472
  346MOL0     H46701   4.659   2.576   5.547 -0.0390 -2.7639 -3.9596
  346MOL0     H46702   4.636   2.879   5.489 -2.6761 -1.2316 -0.2773
  346MOL0     H46703   4.686   2.827   5.649 -2.5698 -2.1124  3.3283
  346MOL0     H46704   4.393   2.814   5.536 -1.1462  1.2592  3.4295
  346MOL0     H46705   4.423   2.705   5.662 -1.6451 -0.1591 -0.2764
  346MOL0     H46706   4.434   3.073   5.861  1.5030 -1.7498  2.2369
  346MOL0     H46707   4.830   2.712   5.238 -3.8793 -0.4025  1.2893
  346MOL0     H46708   4.885   2.905   5.091 -3.4426  1.0985  0.1869
  346MOL0     H46709   4.977   2.843   4.952  0.0368  2.6732  0.6013
  346MOL0     H46710   4.818   2.931   4.938  0.2417  2.5057  1.0492
  347MOL0     O46711  10.750  10.332   3.538 -0.2852 -0.0407 -0.6148
  347MOL0     C46712  10.660  10.321   3.460 -0.4617 -0.6503 -0.1972
  347MOL0     O46713  10.674  10.330   3.324 -0.2176  0.2714 -0.0113
  347MOL0     C46714  10.804  10.322   3.271  0.7380  0.8988 -0.6657
  347MOL0     C46715  10.874  10.207   3.238 -0.3798 -0.0346 -0.4840
  347MOL0     C46716  10.996  10.211   3.174 -0.5122  0.3786  0.8016
  347MOL0     C46717  11.060  10.329   3.141 -0.6825 -0.0134  0.6551
  347MOL0     O46718  11.183  10.319   3.087 -0.0797 -0.2155  0.2410
  347MOL0     C46719  11.271  10.435   3.084  0.5733 -0.1669  0.1926
  347MOL0     C46720  11.413  10.387   3.069 -0.2840  0.3522 -1.1180
  347MOL0     C46721  11.429  10.335   2.929  1.4480 -1.2935 -0.3216
  347MOL0     C46722  11.488  10.196   2.939  0.2451  1.1271  0.7176
  347MOL0     C46723  11.498  10.122   2.809  0.2182  0.1189  0.1706
  347MOL0     C46724  11.590  10.191   2.705 -1.5064 -0.7289  1.2173
  347MOL0     C46725  11.634  10.102   2.583 -0.4019 -0.4499 -0.7591
  347MOL0     C46726  11.520  10.091   2.484  0.4376 -0.0221  0.9259
  347MOL0     N46727  11.415   9.993   2.513 -0.2364  0.1011  0.9245
  347MOL0     C46728  11.281  10.028   2.494  0.2847  0.3489 -0.7255
  347MOL0     C46729  11.208   9.911   2.498  0.7793 -0.4010 -0.5757
  347MOL0     C46730  11.063   9.879   2.473 -0.6624 -0.0749 -0.3262
  347MOL0     C46731  10.956   9.982   2.510  0.2566  0.4324  0.4839
  347MOL0     C46732  10.818   9.921   2.535 -0.7667 -0.5596  0.5810
  347MOL0     C46733  10.706  10.018   2.498 -0.8394 -0.0320 -0.4751
  347MOL0     O46734  10.593   9.982   2.568  0.2660  0.2582 -0.3721
  347MOL0     C46735  10.476  10.043   2.530  2.2037 -0.1869 -0.6471
  347MOL0     C46736  10.472  10.160   2.448  0.9278 -0.0756  0.7727
  347MOL0     C46737  10.347  10.227   2.441  0.5273  0.2678  0.8815
  347MOL0     C46738  10.231  10.185   2.508 -0.1550 -0.2109 -0.8913
  347MOL0     C46739  10.104  10.269   2.502  0.0561 -0.8373  0.7131
  347MOL0     O46740  10.013  10.256   2.601  0.8931  0.2166  0.7757
  347MOL0     C46741   9.881  10.302   2.583  0.0123 -0.1560 -1.1175
  347MOL0     C46742   9.844  10.375   2.697  0.2164  0.0073 -0.6943
  347MOL0     C46743   9.720  10.436   2.692  0.1219 -0.2155  0.8281
  347MOL0     C46744   9.632  10.417   2.583  0.1436  0.1439  0.7689
  347MOL0     O46745   9.512  10.479   2.592  0.1539 -0.3215 -0.1526
  347MOL0     C46746   9.404  10.437   2.507  1.3447 -0.1656  0.6060
  347MOL0     C46747   9.278  10.514   2.548  0.4694 -0.2973  0.2650
  347MOL0     C46748   9.213  10.493   2.682 -0.1188 -0.2695 -0.4521
  347MOL0     C46749   9.123  10.604   2.726  0.2759 -0.3759  0.0643
  347MOL0     C46750   8.978  10.599   2.684  0.1782 -0.8271 -0.0384
  347MOL0     C46751   8.894  10.474   2.749 -0.6736  0.1221  0.1302
  347MOL0     C46752   8.737  10.487   2.742 -0.4746  0.4985  1.0226
  347MOL0     C46753   8.663  10.382   2.849 -0.2302  0.9409  0.3681
  347MOL0    Cl46754   8.633  10.222   2.792 -0.1466  0.3104 -0.0290
  347MOL0     C46755   9.671  10.339   2.469  0.2523  0.5929 -0.0176
  347MOL0     C46756   9.799  10.286   2.472 -0.2962 -0.3739  0.1940
  347MOL0     O46757  10.091  10.338   2.403 -0.6352  0.1772  0.3974
  347MOL0     C46758  10.244  10.071   2.582 -0.0579  0.5665 -0.2864
  347MOL0     C46759  10.360   9.993   2.594  0.0562  0.0137 -0.4980
  347MOL0     N46760  11.307   9.802   2.519  0.4739 -1.0896 -0.4052
  347MOL0     N46761  11.434   9.856   2.524 -0.1258 -0.0059 -0.2475
  347MOL0     C46762  10.995  10.451   3.173  0.0876 -0.0586  0.5684
  347MOL0     C46763  10.867  10.439   3.234 -0.9387 -0.0608  0.2000
  347MOL0     C46764  10.526  10.321   3.528  0.7139  0.1711 -0.5261
  347MOL0     C46765  10.417  10.280   3.450  0.2006 -0.6329 -0.0990
  347MOL0     C46766  10.287  10.272   3.501 -0.0782  0.6225  0.4375
  347MOL0     C46767  10.267  10.300   3.639  0.3110 -0.8253  0.5907
  347MOL0     O46768  10.149  10.284   3.707 -0.3447  0.2297 -0.3977
  347MOL0     C46769  10.047  10.216   3.627  0.2445 -0.4378 -0.7394
  347MOL0     C46770   9.926  10.177   3.718  0.2493 -0.3649  0.2143
  347MOL0     C46771   9.872  10.300   3.795  0.1843  0.4837 -0.4682
  347MOL0     C46772   9.772  10.245   3.893  0.6764  0.5276  1.2359
  347MOL0     C46773   9.724  10.350   3.988  0.7229 -0.1757 -0.0576
  347MOL0     C46774   9.707  10.446   4.066  0.2979  0.8986 -0.7296
  347MOL0     C46775  10.373  10.334   3.720 -0.0804 -0.6069 -0.5202
  347MOL0     C46776  10.500  10.347   3.667 -0.0237  0.0052  0.0211
  347MOL0     C46777  10.606  10.391   3.769  0.0419  0.4907  0.1691
  347MOL0     H46778  10.819  10.118   3.270 -1.8197  0.6896 -0.8562
  347MOL0     H46779  11.048  10.119   3.149  0.1960  1.2034 -0.9261
  347MOL0     H46780  11.244  10.507   3.006  1.1606 -0.2533 -0.0928
  347MOL0     H46781  11.265  10.500   3.172 -1.2891  0.2520 -0.1812
  347MOL0     H46782  11.423  10.299   3.132  0.6303 -0.5467 -2.4529
  347MOL0     H46783  11.489  10.458   3.102 -0.4190 -0.7708  1.9138
  347MOL0     H46784  11.498  10.405   2.880 -0.1686 -0.6255 -1.7416
  347MOL0     H46785  11.336  10.337   2.871  1.8321  1.5753 -0.9969
  347MOL0     H46786  11.591  10.196   2.976  0.9546 -2.7215 -0.7966
  347MOL0     H46787  11.424  10.137   3.006  1.0781  0.1021  0.6344
  347MOL0     H46788  11.541  10.022   2.819 -0.5915 -0.4204 -1.3807
  347MOL0     H46789  11.396  10.111   2.772  0.3237  0.7051 -0.3057
  347MOL0     H46790  11.554  10.288   2.671 -0.2155 -0.3764  0.7805
  347MOL0     H46791  11.691  10.211   2.743  0.8188 -2.0270 -3.5032
  347MOL0     H46792  11.676  10.007   2.615  0.5796  0.4186  0.6180
  347MOL0     H46793  11.714  10.163   2.539 -1.3780 -1.2071 -3.7940
  347MOL0     H46794  11.483  10.193   2.470  3.0066  0.5999 -2.9575
  347MOL0     H46795  11.559  10.056   2.388  0.0366  0.3188  0.6355
  347MOL0     H46796  11.242  10.129   2.483 -2.3249 -0.1240  2.5800
  347MOL0     H46797  11.048   9.856   2.367 -3.3775  3.7386 -0.9855
  347MOL0     H46798  11.049   9.786   2.530  1.0477 -0.0198  0.2440
  347MOL0     H46799  10.982  10.035   2.602 -0.6812  1.2466  0.2921
  347MOL0     H46800  10.953  10.047   2.422  0.9683 -1.5402 -1.0810
  347MOL0     H46801  10.802   9.886   2.637 -1.1023  1.0805  1.1134
  347MOL0     H46802  10.805   9.833   2.471  2.6081 -0.7748  0.0107
  347MOL0     H46803  10.675  10.009   2.394 -3.3289 -0.6437  0.2372
  347MOL0     H46804  10.732  10.123   2.511  2.0561 -0.6545 -0.6339
  347MOL0     H46805  10.546  10.221   2.396 -0.5966  1.2980  0.1164
  347MOL0     H46806  10.338  10.323   2.389 -2.1819  0.1503  1.0103
  347MOL0     H46807   9.908  10.379   2.784  2.8404 -6.5121 -1.7110
  347MOL0     H46808   9.673  10.480   2.779 -1.0388  0.3488 -0.0725
  347MOL0     H46809   9.423  10.455   2.401  1.2678 -0.1003  0.6027
  347MOL0     H46810   9.392  10.329   2.522 -1.1288 -0.1304 -0.6470
  347MOL0     H46811   9.281  10.622   2.529 -3.0095 -0.1234  0.0201
  347MOL0     H46812   9.200  10.480   2.480  1.2053 -0.8760 -0.3116
  347MOL0     H46813   9.170  10.393   2.693 -1.5941  0.5738  2.3365
  347MOL0     H46814   9.299  10.508   2.747 -1.5362  0.6137  1.3199
  347MOL0     H46815   9.167  10.701   2.701  1.8702 -1.1287 -0.1896
  347MOL0     H46816   9.120  10.598   2.835 -1.2085 -0.2473  0.0519
  347MOL0     H46817   8.962  10.597   2.576  0.6124 -2.3447 -0.1078
  347MOL0     H46818   8.928  10.687   2.726  0.3743 -0.9460  0.4496
  347MOL0     H46819   8.938  10.383   2.706  2.3500  0.7198  1.6513
  347MOL0     H46820   8.926  10.470   2.854  0.8701 -0.2376 -0.3183
  347MOL0     H46821   8.698  10.459   2.644  1.1331 -2.3414  1.0650
  347MOL0     H46822   8.696  10.588   2.735 -0.1277  0.6206  0.6917
  347MOL0     H46823   8.712  10.374   2.947  0.1799 -1.1439  0.0460
  347MOL0     H46824   8.564  10.424   2.866  0.3144  2.6009 -0.3253
  347MOL0     H46825   9.614  10.342   2.376  2.7494  2.3640 -1.6350
  347MOL0     H46826   9.833  10.228   2.386  0.6470 -1.1907  1.0941
  347MOL0     H46827  10.156  10.027   2.626  1.5285 -2.8372 -0.1714
  347MOL0     H46828  10.374   9.906   2.657  2.4352  0.4937 -0.2365
  347MOL0     H46829  11.044  10.539   3.133 -0.8077  1.7565  3.1891
  347MOL0     H46830  10.822  10.531   3.270  1.7686  1.7025 -0.5545
  347MOL0     H46831  10.445  10.279   3.345  4.3723  2.2836  0.7427
  347MOL0     H46832  10.212  10.240   3.430  1.0980 -4.0467  1.0060
  347MOL0     H46833  10.086  10.131   3.570  2.1378  1.2482 -2.1150
  347MOL0     H46834  10.010  10.299   3.566 -1.1242  1.4780  2.4470
  347MOL0     H46835   9.969  10.101   3.784  0.7766  0.5190  0.9059
  347MOL0     H46836   9.839  10.126   3.674 -1.2373 -0.0566  2.6347
  347MOL0     H46837   9.812  10.362   3.727 -5.0852 -2.6424  0.7726
  347MOL0     H46838   9.940  10.364   3.852 -1.8717  0.3151  2.3572
  347MOL0     H46839   9.685  10.211   3.835 -0.6548  2.3357  2.0902
  347MOL0     H46840   9.800  10.164   3.961  1.9299  1.1862  1.5278
  347MOL0     H46841   9.693  10.522   4.141  1.8265 -1.1915  1.8413
  347MOL0     H46842  10.346  10.337   3.825  0.2709 -2.2555 -0.3556
  347MOL0     H46843  10.555  10.401   3.865  0.8002 -1.8593  0.8750
  347MOL0     H46844  10.685  10.316   3.771 -1.5911 -1.3113  2.2495
  347MOL0     H46845  10.648  10.485   3.732 -1.3276 -0.0665 -3.1874
  348MOL0     O46846   3.407  11.361   4.678  0.4117 -0.8304  0.1174
  348MOL0     C46847   3.432  11.359   4.798  0.2062 -0.9297 -0.0776
  348MOL0     O46848   3.561  11.360   4.856 -0.0802  0.0136 -0.3570
  348MOL0     C46849   3.661  11.402   4.769 -0.8407 -0.0511  0.1720
  348MOL0     C46850   3.739  11.520   4.804  1.0318  0.6306 -0.0187
  348MOL0     C46851   3.841  11.557   4.719  0.4521 -0.1930  0.1292
  348MOL0     C46852   3.876  11.480   4.609 -1.1265 -0.8732  0.5881
  348MOL0     O46853   3.979  11.520   4.522 -0.1561  0.0143  0.7287
  348MOL0     C46854   4.094  11.594   4.572  0.4515 -0.2752  0.9191
  348MOL0     C46855   4.162  11.512   4.679 -0.4987  0.2008 -0.3760
  348MOL0     C46856   4.215  11.387   4.615 -0.9675  0.0155  0.0257
  348MOL0     C46857   4.289  11.312   4.727  1.1869 -0.2524  0.7586
  348MOL0     C46858   4.216  11.272   4.855  0.0502  0.2023  0.2718
  348MOL0     C46859   4.102  11.179   4.815 -0.1436 -0.1251  0.5415
  348MOL0     C46860   4.021  11.127   4.931  0.2379 -0.1628 -0.4162
  348MOL0     C46861   4.001  11.233   5.040  0.6486  0.4371  0.2815
  348MOL0     N46862   3.899  11.186   5.132 -0.3266  0.5600  0.5388
  348MOL0     C46863   3.768  11.195   5.093 -0.6890 -1.5359  0.8912
  348MOL0     C46864   3.705  11.099   5.164  0.1919  0.0053 -0.0118
  348MOL0     C46865   3.559  11.060   5.150 -1.0606  0.2606  0.7083
  348MOL0     C46866   3.543  10.985   5.008  0.3549 -0.3842  0.4468
  348MOL0     C46867   3.399  10.963   4.979  0.4733  0.4987  0.1069
  348MOL0     C46868   3.374  10.880   4.848 -1.3861  0.7887 -0.3131
  348MOL0     O46869   3.251  10.810   4.865  0.5290 -0.0067 -0.5115
  348MOL0     C46870   3.197  10.709   4.784  0.7841 -0.7994 -1.1458
  348MOL0     C46871   3.219  10.694   4.649 -0.4444  0.6251 -0.1182
  348MOL0     C46872   3.173  10.577   4.590 -0.1645  0.0766 -0.2172
  348MOL0     C46873   3.106  10.471   4.662  0.2666 -0.9067  0.0399
  348MOL0     C46874   3.049  10.357   4.603  0.0815 -0.0289 -0.6840
  348MOL0     O46875   3.008  10.262   4.694  1.2020 -0.0354 -0.3184
  348MOL0     C46876   2.940  10.146   4.673  1.9635 -0.0943  0.4612
  348MOL0     C46877   2.965  10.043   4.764 -0.3057 -0.3194 -0.1041
  348MOL0     C46878   2.905   9.920   4.746  0.6196 -0.2193  0.1695
  348MOL0     C46879   2.819   9.891   4.637 -0.2425  0.1686  0.0775
  348MOL0     O46880   2.739   9.782   4.625  0.2335  1.0699 -0.6675
  348MOL0     C46881   2.809   9.653   4.623  0.3613  0.8759  0.0326
  348MOL0     C46882   2.792   9.598   4.485  1.5455 -0.2142 -0.5993
  348MOL0     C46883   2.814   9.443   4.489 -0.5008  0.9501 -0.6129
  348MOL0     C46884   2.879   9.399   4.358 -0.0521  0.1886  0.0196
  348MOL0     C46885   2.815   9.273   4.309 -0.2956  0.0670 -0.1874
  348MOL0     C46886   2.867   9.231   4.174  0.5513 -0.2697 -1.1545
  348MOL0     C46887   2.821   9.094   4.133 -0.9434 -0.5333  0.1598
  348MOL0     C46888   2.859   9.052   3.991  0.6225 -0.8884  0.0767
  348MOL0    Cl46889   2.755   9.171   3.902 -0.4795 -0.3059 -0.9813
  348MOL0     C46890   2.798   9.993   4.539  0.7581  0.1261 -0.2604
  348MOL0     C46891   2.851  10.116   4.562  0.6221  0.0831 -0.3883
  348MOL0     O46892   3.041  10.350   4.483  0.1877 -0.5821 -0.4426
  348MOL0     C46893   3.083  10.494   4.805 -0.1151  0.3925  0.9025
  348MOL0     C46894   3.134  10.615   4.858 -0.3076  0.2956 -0.3074
  348MOL0     N46895   3.795  11.030   5.246 -0.2695 -0.4054  0.3920
  348MOL0     N46896   3.912  11.079   5.213  0.1374  0.4593  0.0328
  348MOL0     C46897   3.808  11.361   4.577  0.6185 -0.2015 -0.2496
  348MOL0     C46898   3.700  11.320   4.659 -0.6103  0.5038 -0.5413
  348MOL0     C46899   3.322  11.334   4.894 -0.0208 -0.4106  0.4226
  348MOL0     C46900   3.333  11.371   5.030  0.0077 -0.2284 -0.0114
  348MOL0     C46901   3.232  11.353   5.123 -0.1158  0.2898  0.8502
  348MOL0     C46902   3.112  11.303   5.082  0.0200  0.5759 -0.5165
  348MOL0     O46903   3.005  11.282   5.171 -0.5629 -0.0732 -0.2527
  348MOL0     C46904   2.931  11.158   5.161  0.6033  0.9627  0.2110
  348MOL0     C46905   2.784  11.202   5.178  0.1767  0.4361 -0.2383
  348MOL0     C46906   2.666  11.112   5.147 -0.8159  0.4386 -0.8396
  348MOL0     C46907   2.694  10.971   5.215 -0.1363  0.6485 -0.5159
  348MOL0     C46908   2.688  10.979   5.365  0.3305 -0.4789 -0.2064
  348MOL0     C46909   2.688  11.006   5.482 -0.5376  0.1019 -0.0852
  348MOL0     C46910   3.091  11.271   4.949  0.5002 -0.5828 -1.0377
  348MOL0     C46911   3.195  11.273   4.855  0.1075 -0.5681 -0.6179
  348MOL0     C46912   3.176  11.203   4.717  0.5677 -0.0186 -0.1055
  348MOL0     H46913   3.725  11.572   4.899 -1.5771  0.4978 -0.2701
  348MOL0     H46914   3.900  11.642   4.749  0.6229 -0.7326  1.4303
  348MOL0     H46915   4.148  11.605   4.478 -2.2240  0.8832 -0.6061
  348MOL0     H46916   4.085  11.698   4.604  4.4482  0.1178  1.1519
  348MOL0     H46917   4.093  11.478   4.756 -1.2843 -3.3473 -2.4221
  348MOL0     H46918   4.245  11.572   4.716 -1.1330  1.6814 -1.2463
  348MOL0     H46919   4.285  11.412   4.535  0.0778 -0.4103  0.7911
  348MOL0     H46920   4.131  11.333   4.569 -1.3364 -0.1552  0.8846
  348MOL0     H46921   4.313  11.222   4.670 -0.6650 -0.4684  0.2421
  348MOL0     H46922   4.376  11.376   4.744 -0.3725  2.4792 -0.9241
  348MOL0     H46923   4.281  11.221   4.926 -0.1622  3.9103  3.4954
  348MOL0     H46924   4.181  11.365   4.901  2.3071 -0.0912  2.8662
  348MOL0     H46925   4.025  11.239   4.766  0.7332 -1.5798 -2.9594
  348MOL0     H46926   4.135  11.109   4.737 -2.5176 -0.8255  0.0919
  348MOL0     H46927   4.065  11.032   4.961  4.0638  1.5453  0.0265
  348MOL0     H46928   3.919  11.103   4.899 -0.1553 -0.2932  0.8735
  348MOL0     H46929   4.094  11.242   5.097  1.6354 -2.9972 -0.5412
  348MOL0     H46930   3.959  11.325   5.000 -3.2355 -1.1849  0.1588
  348MOL0     H46931   3.740  11.262   5.012  0.4267 -0.1353  1.6282
  348MOL0     H46932   3.529  10.991   5.229  0.3195  0.4788  1.4593
  348MOL0     H46933   3.508  11.155   5.166 -0.0405  0.5782  2.2411
  348MOL0     H46934   3.590  11.037   4.924 -1.6085 -2.4924 -2.1755
  348MOL0     H46935   3.598  10.891   5.013  0.8880 -0.0780  0.3784
  348MOL0     H46936   3.344  11.058   4.975  1.7857  1.3210 -4.6291
  348MOL0     H46937   3.345  10.913   5.059 -0.7474  2.4093  0.5424
  348MOL0     H46938   3.444  10.797   4.839 -0.9802  0.8004  2.0846
  348MOL0     H46939   3.374  10.934   4.753  0.0019  1.3257 -0.0328
  348MOL0     H46940   3.286  10.762   4.598 -0.0051  1.1320  1.0787
  348MOL0     H46941   3.198  10.554   4.486 -0.0616  1.4748 -0.5106
  348MOL0     H46942   3.035  10.069   4.843  1.2055 -0.9615 -1.1797
  348MOL0     H46943   2.907   9.838   4.817  0.9758  0.6812  1.2387
  348MOL0     H46944   2.917   9.650   4.642  0.6375  0.8604 -1.3694
  348MOL0     H46945   2.756   9.593   4.697  3.0552 -1.3793  0.3204
  348MOL0     H46946   2.692   9.616   4.446  1.3518 -1.2074 -0.6009
  348MOL0     H46947   2.860   9.656   4.422 -1.1550  3.1940 -0.5941
  348MOL0     H46948   2.887   9.426   4.568 -1.4323 -0.5157 -0.0462
  348MOL0     H46949   2.726   9.383   4.514  0.0163  1.8520  4.2780
  348MOL0     H46950   2.988   9.394   4.361  0.0528  0.4333 -1.8283
  348MOL0     H46951   2.877   9.474   4.278  5.9206  0.4737 -0.2848
  348MOL0     H46952   2.706   9.273   4.318 -0.2363  0.9392  0.8169
  348MOL0     H46953   2.853   9.196   4.377  0.6301 -0.0675 -0.8473
  348MOL0     H46954   2.836   9.309   4.104 -0.1006  2.2078  1.6603
  348MOL0     H46955   2.975   9.217   4.179  0.4019 -1.1647  2.4950
  348MOL0     H46956   2.713   9.081   4.147 -0.9985 -1.2027 -0.7719
  348MOL0     H46957   2.867   9.020   4.198  0.8684  0.7742  0.4375
  348MOL0     H46958   2.966   9.052   3.970  0.7886  1.9761  0.4467
  348MOL0     H46959   2.820   8.951   3.975 -0.1257 -0.2066 -3.3600
  348MOL0     H46960   2.730   9.969   4.458  1.1234 -1.4060 -0.1521
  348MOL0     H46961   2.837  10.203   4.498  0.7757  1.7359  1.7213
  348MOL0     H46962   3.039  10.414   4.864  2.5288  0.5535  3.3319
  348MOL0     H46963   3.121  10.616   4.966 -2.3762 -1.7078 -0.4480
  348MOL0     H46964   3.841  11.295   4.497 -0.0638  0.5357 -1.1600
  348MOL0     H46965   3.650  11.224   4.644 -1.4468  0.8425 -0.0221
  348MOL0     H46966   3.420  11.422   5.071 -1.5753  0.5800  2.5566
  348MOL0     H46967   3.240  11.371   5.230 -0.7023 -4.1609  1.8161
  348MOL0     H46968   2.966  11.088   5.237  1.8638  0.8549 -0.4472
  348MOL0     H46969   2.945  11.110   5.064  3.5150  2.2085 -0.0765
  348MOL0     H46970   2.764  11.274   5.098 -1.2359 -0.4355 -0.7183
  348MOL0     H46971   2.769  11.250   5.274 -1.4881  2.4892 -1.4305
  348MOL0     H46972   2.649  11.082   5.043 -2.7582  0.7514 -0.6507
  348MOL0     H46973   2.576  11.166   5.178 -0.2769  2.7772 -2.9952
  348MOL0     H46974   2.625  10.890   5.187  1.6164 -0.9321 -0.4393
  348MOL0     H46975   2.791  10.929   5.188  0.1885 -1.3588  3.1822
  348MOL0     H46976   2.687  11.012   5.589 -0.2810 -0.7756 -0.0323
  348MOL0     H46977   2.991  11.248   4.915 -0.2821  1.1636 -0.0567
  348MOL0     H46978   3.160  11.277   4.638  4.4551  0.7957 -0.3298
  348MOL0     H46979   3.251  11.132   4.681  0.7078  1.2086 -2.4087
  348MOL0     H46980   3.077  11.155   4.722 -0.0411  1.2679  0.5540
  349MOL0     O46981   2.502   6.020   9.576  0.0636 -0.1570  1.0730
  349MOL0     C46982   2.547   5.915   9.533  0.0822 -0.5030  0.0233
  349MOL0     O46983   2.674   5.871   9.542  0.6627  0.4128  0.3508
  349MOL0     C46984   2.765   5.935   9.621  0.1608 -0.4017 -0.2167
  349MOL0     C46985   2.899   5.909   9.600  0.1630 -0.1539 -0.3862
  349MOL0     C46986   2.999   5.973   9.674  0.5518 -0.2881  0.5586
  349MOL0     C46987   2.978   6.056   9.779 -0.6421  0.5069 -0.0903
  349MOL0     O46988   3.088   6.104   9.850 -0.0757  0.0366  1.0241
  349MOL0     C46989   3.070   6.215   9.923  0.2335 -0.1375 -0.6941
  349MOL0     C46990   3.014   6.206  10.067  0.1585 -0.5526 -0.3267
  349MOL0     C46991   3.101   6.271  10.170 -0.7218 -0.5420  0.4788
  349MOL0     C46992   3.052   6.249  10.315  0.3209 -1.4066 -0.6528
  349MOL0     C46993   3.154   6.313  10.412 -0.5456  0.8158 -0.5597
  349MOL0     C46994   3.116   6.301  10.554 -0.4254 -1.4033 -0.1875
  349MOL0     C46995   3.230   6.364  10.644 -0.0711  0.1176  0.3373
  349MOL0     C46996   3.198   6.402  10.793 -0.2235  0.0439  0.5334
  349MOL0     N46997   3.081   6.495  10.807 -1.2084  0.2308  0.4777
  349MOL0     C46998   3.095   6.627  10.768 -0.1355  0.2527 -0.6303
  349MOL0     C46999   2.955   6.663  10.745  0.5679 -0.3470 -0.6401
  349MOL0     C47000   2.900   6.790  10.683  0.4517  0.5425  0.0949
  349MOL0     C47001   2.938   6.901  10.789  0.7522 -0.9445 -0.3607
  349MOL0     C47002   2.842   6.878  10.913 -0.2128 -0.0279  0.7523
  349MOL0     C47003   2.913   6.900  11.043  0.1112 -0.5662 -0.6544
  349MOL0     O47004   2.822   6.938  11.148  0.0898  0.0265  0.1131
  349MOL0     C47005   2.732   6.850  11.197  0.7632 -0.5394 -0.1218
  349MOL0     C47006   2.737   6.706  11.179  0.3185  0.2203  0.2237
  349MOL0     C47007   2.645   6.621  11.234 -1.2606 -0.2760 -0.3804
  349MOL0     C47008   2.535   6.670  11.306  0.2918  0.4320  0.1840
  349MOL0     C47009   2.432   6.588  11.370 -0.8910 -0.1859  0.0733
  349MOL0     O47010   2.336   6.648  11.446 -0.1071  0.5861  0.3265
  349MOL0     C47011   2.234   6.569  11.509 -0.7477 -0.3250 -0.2867
  349MOL0     C47012   2.219   6.575  11.644  0.4600  0.2811  0.3064
  349MOL0     C47013   2.117   6.495  11.697 -0.2090 -0.2154  0.9967
  349MOL0     C47014   2.055   6.387  11.620 -0.0991 -0.4221 -0.3315
  349MOL0     O47015   1.973   6.297  11.684 -0.3879 -1.3921 -0.0525
  349MOL0     C47016   2.025   6.231  11.802  0.1032  0.2824 -0.2561
  349MOL0     C47017   1.919   6.241  11.917 -0.2159 -0.3431 -1.6158
  349MOL0     C47018   1.903   6.111  11.988  0.4400 -0.1108  0.2946
  349MOL0     C47019   1.802   6.015  11.913  0.9286  0.5205  0.4770
  349MOL0     C47020   1.777   5.873  11.959 -0.7562  0.5113  0.5363
  349MOL0     C47021   1.657   5.865  12.054 -0.1624  0.1709 -0.2248
  349MOL0     C47022   1.689   5.925  12.196 -0.7010 -0.5433 -0.0995
  349MOL0     C47023   1.820   5.883  12.274 -0.0662  0.2812 -0.0712
  349MOL0    Cl47024   1.847   5.702  12.246 -0.0449 -0.0212 -0.1130
  349MOL0     C47025   2.073   6.382  11.485 -0.0072  0.0871 -0.4647
  349MOL0     C47026   2.173   6.474  11.426  0.5373 -0.2711 -0.4286
  349MOL0     O47027   2.452   6.468  11.357 -0.7405  0.5211  0.1506
  349MOL0     C47028   2.527   6.810  11.332 -0.2861  1.0334  0.4418
  349MOL0     C47029   2.616   6.888  11.273 -0.3566 -0.2909  0.1998
  349MOL0     N47030   2.874   6.558  10.788 -0.6902  0.1431  0.1309
  349MOL0     N47031   2.951   6.460  10.819 -0.2088  0.5567 -1.2402
  349MOL0     C47032   2.844   6.091   9.795 -1.0177 -0.3213 -0.6779
  349MOL0     C47033   2.741   6.037   9.717 -0.4219  0.2304 -0.2097
  349MOL0     C47034   2.454   5.815   9.477  0.0993  0.0998  0.4124
  349MOL0     C47035   2.510   5.724   9.381  0.2183 -0.7228 -0.3310
  349MOL0     C47036   2.439   5.637   9.301 -0.0856 -0.7822  0.6397
  349MOL0     C47037   2.300   5.645   9.312 -0.9027 -0.6916 -0.7362
  349MOL0     O47038   2.217   5.577   9.227  0.0715  0.0179 -0.8081
  349MOL0     C47039   2.267   5.519   9.103  0.1799 -0.1365 -0.3462
  349MOL0     C47040   2.153   5.453   9.036  0.9129 -0.9471  0.7544
  349MOL0     C47041   2.206   5.383   8.909 -0.2054  0.1058  0.5573
  349MOL0     C47042   2.110   5.297   8.830  0.0785  0.5813  0.0503
  349MOL0     C47043   2.054   5.180   8.900  0.6209 -0.0385  0.3979
  349MOL0     C47044   2.029   5.080   8.959 -0.6772  0.4449 -0.8565
  349MOL0     C47045   2.244   5.719   9.407  0.3181  0.9281  1.6457
  349MOL0     C47046   2.316   5.803   9.488 -0.5800  0.9849 -1.2791
  349MOL0     C47047   2.241   5.858   9.609  0.7964 -0.9444  1.4791
  349MOL0     H47048   2.925   5.840   9.520  1.7651 -1.5174  1.2443
  349MOL0     H47049   3.101   5.953   9.644  1.2721  1.9973  1.2997
  349MOL0     H47050   3.171   6.257   9.917  0.5007 -0.8534 -1.3017
  349MOL0     H47051   3.006   6.280   9.863  0.2069 -0.0718 -0.5958
  349MOL0     H47052   3.004   6.105  10.107 -0.3167 -0.1695  0.5299
  349MOL0     H47053   2.914   6.251  10.063  0.5414  0.2449 -1.7059
  349MOL0     H47054   3.101   6.378  10.149  1.7327 -0.8355 -1.4827
  349MOL0     H47055   3.202   6.230  10.156 -0.6956 -0.3656  0.1319
  349MOL0     H47056   2.955   6.300  10.319  1.5141  0.9272  0.9147
  349MOL0     H47057   3.040   6.142  10.333 -2.9211 -0.8128  1.3862
  349MOL0     H47058   3.247   6.258  10.394  0.4133  1.8538  0.9567
  349MOL0     H47059   3.171   6.420  10.397  0.6589  0.6975 -0.1241
  349MOL0     H47060   3.029   6.361  10.582 -1.1551 -2.6902  0.3795
  349MOL0     H47061   3.099   6.195  10.576 -0.4565 -0.5866  4.7795
  349MOL0     H47062   3.273   6.447  10.587 -0.6549 -0.1750 -0.5371
  349MOL0     H47063   3.314   6.295  10.647  2.3268  2.4385 -3.7487
  349MOL0     H47064   3.165   6.303  10.826  1.3044 -1.4550 -2.0726
  349MOL0     H47065   3.291   6.436  10.839  2.2665 -2.2523 -2.3277
  349MOL0     H47066   3.177   6.687  10.730 -2.0741  2.1123 -2.1224
  349MOL0     H47067   2.925   6.801  10.577  0.3397 -1.4408 -0.1869
  349MOL0     H47068   2.791   6.789  10.671  0.2970  0.6139  1.3444
  349MOL0     H47069   3.042   6.893  10.821  0.3337  1.2586  1.8643
  349MOL0     H47070   2.921   7.001  10.749 -0.6957  0.1152  2.6256
  349MOL0     H47071   2.792   6.781  10.907  0.5394 -0.3948  0.2767
  349MOL0     H47072   2.764   6.955  10.908  0.3474  0.4912 -1.9407
  349MOL0     H47073   2.974   6.991  11.036 -2.2883  1.2808  0.5666
  349MOL0     H47074   2.976   6.821  11.083 -1.2561 -1.2483  0.2062
  349MOL0     H47075   2.816   6.656  11.124  1.9254  1.1008  1.6276
  349MOL0     H47076   2.644   6.513  11.225 -0.1029 -0.3666  0.3397
  349MOL0     H47077   2.253   6.655  11.709  3.4588 -0.0097 -0.7767
  349MOL0     H47078   2.088   6.518  11.799 -1.8828  1.8267  0.1607
  349MOL0     H47079   2.060   6.129  11.780 -2.5354 -0.4623 -1.4339
  349MOL0     H47080   2.113   6.277  11.847  0.1948  1.0027 -1.1408
  349MOL0     H47081   1.948   6.309  11.998 -2.0443 -0.8484 -0.4618
  349MOL0     H47082   1.817   6.274  11.893 -0.7867 -1.0237 -0.2620
  349MOL0     H47083   1.994   6.054  12.009  1.5808  0.9781 -1.4483
  349MOL0     H47084   1.864   6.125  12.090 -1.3122  0.8237 -0.4625
  349MOL0     H47085   1.836   5.998  11.810 -2.9716  1.8589 -1.2083
  349MOL0     H47086   1.707   6.066  11.896  0.8006  0.0932 -0.0952
  349MOL0     H47087   1.864   5.814  11.987  0.1291  1.6280  0.1929
  349MOL0     H47088   1.738   5.816  11.874  0.4158 -2.4920  1.8741
  349MOL0     H47089   1.581   5.922  12.001  1.0445  2.3465  0.2857
  349MOL0     H47090   1.621   5.763  12.072 -2.9459  0.9430 -1.0068
  349MOL0     H47091   1.607   5.893  12.261 -1.4745  0.9812 -0.2922
  349MOL0     H47092   1.708   6.033  12.195  0.9144 -0.8024 -1.8447
  349MOL0     H47093   1.907   5.934  12.232  0.6522 -0.5190  0.4163
  349MOL0     H47094   1.820   5.910  12.380 -2.0771 -0.2776  0.1106
  349MOL0     H47095   2.022   6.308  11.424 -0.2505  1.1501 -1.5739
  349MOL0     H47096   2.188   6.471  11.319  1.2021 -2.5293 -0.3191
  349MOL0     H47097   2.453   6.871  11.383  0.1943  0.7357  1.5228
  349MOL0     H47098   2.605   6.989  11.310 -2.0525 -1.0949  2.0682
  349MOL0     H47099   2.812   6.166   9.866 -0.1916 -1.4806  0.9847
  349MOL0     H47100   2.639   6.055   9.749  0.9742  3.0886  3.2912
  349MOL0     H47101   2.614   5.732   9.349 -0.3099  4.0445 -1.6085
  349MOL0     H47102   2.499   5.572   9.238  1.8656  0.3082  1.2961
  349MOL0     H47103   2.350   5.451   9.123  0.2738  0.3916  1.2290
  349MOL0     H47104   2.305   5.596   9.035 -2.1967  1.5925  0.1573
  349MOL0     H47105   2.087   5.533   9.001  0.4212 -1.7484 -0.1930
  349MOL0     H47106   2.097   5.392   9.108  2.3317 -2.6473  0.4859
  349MOL0     H47107   2.285   5.317   8.945 -1.6634 -0.9920  1.9207
  349MOL0     H47108   2.236   5.452   8.831 -1.7368 -3.1905 -3.2905
  349MOL0     H47109   2.029   5.363   8.797 -0.2718 -0.6094 -1.5758
  349MOL0     H47110   2.173   5.250   8.755  0.7072 -1.6043  1.8435
  349MOL0     H47111   2.001   4.997   9.020 -0.3702 -0.3896 -1.8337
  349MOL0     H47112   2.137   5.701   9.404  0.9696 -5.2320  1.1933
  349MOL0     H47113   2.133   5.851   9.596  0.7640  2.5990 -2.1619
  349MOL0     H47114   2.260   5.814   9.707 -1.0870  1.0936  2.8611
  349MOL0     H47115   2.259   5.966   9.619  2.0361 -1.1356  1.4340
  350MOL0     O47116   8.194   2.787   7.888 -0.0708  0.0169 -0.8542
  350MOL0     C47117   8.305   2.791   7.836 -0.8745 -0.0634 -0.3022
  350MOL0     O47118   8.423   2.825   7.900 -0.4229  0.2894 -0.0064
  350MOL0     C47119   8.432   2.808   8.029  0.0459 -0.2282 -0.8413
  350MOL0     C47120   8.540   2.869   8.092  0.9809  0.9285 -0.4017
  350MOL0     C47121   8.576   2.828   8.224 -0.2002 -0.3981 -0.6714
  350MOL0     C47122   8.498   2.741   8.305 -0.0536  1.1535  0.5505
  350MOL0     O47123   8.545   2.724   8.430 -0.3813  0.6433 -0.1086
  350MOL0     C47124   8.465   2.630   8.510  0.1108  0.2412  1.5569
  350MOL0     C47125   8.509   2.642   8.666 -0.2297 -0.1650  0.5528
  350MOL0     C47126   8.415   2.564   8.759 -0.7585  0.0899 -0.4688
  350MOL0     C47127   8.502   2.508   8.871 -0.3578 -0.0990  0.0897
  350MOL0     C47128   8.424   2.423   8.979  0.5897  0.5263  0.4796
  350MOL0     C47129   8.530   2.384   9.088 -0.3162  0.4789  0.2732
  350MOL0     C47130   8.461   2.299   9.196 -0.3768  0.7637  1.4695
  350MOL0     C47131   8.543   2.271   9.324  0.7670 -0.0409  0.0122
  350MOL0     N47132   8.655   2.173   9.306  0.0905 -0.5021 -0.4767
  350MOL0     C47133   8.765   2.161   9.384 -0.2922  0.3408 -0.0078
  350MOL0     C47134   8.847   2.072   9.332  0.5787  0.0491 -0.9570
  350MOL0     C47135   8.984   2.024   9.381 -0.1557  0.1507 -0.2556
  350MOL0     C47136   8.961   1.876   9.440  0.9786 -0.3895 -0.0996
  350MOL0     C47137   9.059   1.840   9.539 -0.2806 -0.1448 -0.2308
  350MOL0     C47138   9.032   1.697   9.608 -0.1082  0.3609  0.2765
  350MOL0     O47139   9.070   1.584   9.529 -0.9308  0.1260  0.5542
  350MOL0     C47140   9.188   1.526   9.577 -0.2265  0.1785 -0.0257
  350MOL0     C47141   9.216   1.460   9.704  0.4957  0.3600 -0.0627
  350MOL0     C47142   9.333   1.395   9.723  0.5105  0.4928 -0.0463
  350MOL0     C47143   9.436   1.411   9.638 -0.0018 -0.0760 -0.4160
  350MOL0     C47144   9.571   1.352   9.674  1.1536 -0.1150 -0.3473
  350MOL0     O47145   9.569   1.269   9.786  0.9161 -0.5558 -0.4849
  350MOL0     C47146   9.659   1.165   9.804 -0.0675 -0.6768 -0.7708
  350MOL0     C47147   9.713   1.095   9.696  0.2359  0.6708  0.3583
  350MOL0     C47148   9.798   0.988   9.717 -0.1409 -0.2295  0.2429
  350MOL0     C47149   9.843   0.938   9.843  0.0355 -0.8782 -0.1205
  350MOL0     O47150   9.908   0.816   9.842  0.4828  0.8853 -0.5904
  350MOL0     C47151   9.972   0.772   9.963 -0.8514  0.7351  0.4195
  350MOL0     C47152  10.064   0.647   9.925 -0.6725 -0.7976  0.0635
  350MOL0     C47153  10.187   0.695   9.863 -0.3485  0.2632 -0.5387
  350MOL0     C47154  10.276   0.771   9.970 -0.4904  0.5231  0.3781
  350MOL0     C47155  10.423   0.780   9.917 -0.7615  0.4339 -1.1071
  350MOL0     C47156  10.525   0.812  10.033  0.4370  0.0910  0.2227
  350MOL0     C47157  10.665   0.770   9.979  0.5787 -1.4828 -0.1725
  350MOL0     C47158  10.772   0.790  10.080  0.3669 -1.1299 -0.1755
  350MOL0    Cl47159  10.931   0.700  10.041 -0.0585  0.1164  0.0586
  350MOL0     C47160   9.782   1.007   9.955  0.0187 -0.2346  0.0830
  350MOL0     C47161   9.687   1.110   9.929 -0.8731  0.4886 -0.5101
  350MOL0     O47162   9.673   1.385   9.615 -0.4254 -0.3220 -0.4288
  350MOL0     C47163   9.426   1.495   9.527  0.0787  0.5554 -0.2998
  350MOL0     C47164   9.303   1.550   9.495  0.7162 -0.9592 -0.2523
  350MOL0     N47165   8.777   2.037   9.217  0.6602 -0.2846  0.4247
  350MOL0     N47166   8.655   2.084   9.210 -0.4445  0.6920  0.2947
  350MOL0     C47167   8.394   2.670   8.234  0.9333 -1.2621  0.1373
  350MOL0     C47168   8.368   2.703   8.097 -0.4547 -0.2849  0.0353
  350MOL0     C47169   8.296   2.781   7.688 -0.5276  0.0395  0.8148
  350MOL0     C47170   8.398   2.858   7.632  0.0276 -0.7135 -0.3439
  350MOL0     C47171   8.403   2.867   7.490  1.1434  0.6623  0.5461
  350MOL0     C47172   8.307   2.800   7.414  0.5330 -0.5532 -0.8723
  350MOL0     O47173   8.312   2.813   7.281 -1.2923 -0.0081 -0.0698
  350MOL0     C47174   8.363   2.703   7.208 -1.1642  0.3667  0.3154
  350MOL0     C47175   8.261   2.598   7.176 -0.1548  0.2732  1.0382
  350MOL0     C47176   8.161   2.639   7.068  0.0113 -0.3831  0.2739
  350MOL0     C47177   8.034   2.694   7.147  0.0859  0.3438  0.2636
  350MOL0     C47178   7.958   2.583   7.210  0.7894  0.3631 -1.4455
  350MOL0     C47179   7.897   2.495   7.267 -0.2871 -0.4302 -0.1164
  350MOL0     C47180   8.194   2.743   7.486  0.2095  0.3712 -0.2344
  350MOL0     C47181   8.201   2.717   7.615  0.1067  0.1525 -0.6309
  350MOL0     C47182   8.086   2.632   7.678 -0.5684  0.0739 -0.0415
  350MOL0     H47183   8.589   2.956   8.049  1.1319  1.2199  0.3354
  350MOL0     H47184   8.666   2.872   8.266 -1.5902  1.0549  0.9298
  350MOL0     H47185   8.359   2.653   8.497 -0.2232 -1.9309 -0.2121
  350MOL0     H47186   8.484   2.529   8.472  0.5369  1.4336 -1.7106
  350MOL0     H47187   8.500   2.748   8.691 -3.0798  0.1964 -1.5298
  350MOL0     H47188   8.616   2.617   8.674 -0.1348 -0.0164 -0.1470
  350MOL0     H47189   8.359   2.488   8.704 -1.2913  0.4450 -0.4261
  350MOL0     H47190   8.340   2.632   8.799 -0.4788 -0.2700  0.7179
  350MOL0     H47191   8.566   2.444   8.810 -1.1759  2.6673 -4.0948
  350MOL0     H47192   8.565   2.587   8.912  2.6137 -1.9688 -0.5326
  350MOL0     H47193   8.347   2.484   9.026 -0.4234 -0.6984  0.4663
  350MOL0     H47194   8.379   2.338   8.926  1.1144 -0.4943  1.6225
  350MOL0     H47195   8.620   2.345   9.040 -0.6103  0.0990  0.0223
  350MOL0     H47196   8.561   2.477   9.137  1.2116  2.1566 -3.4374
  350MOL0     H47197   8.423   2.214   9.139 -0.3838  1.3023  0.6489
  350MOL0     H47198   8.382   2.366   9.230  0.9271  2.5189  1.1945
  350MOL0     H47199   8.584   2.360   9.373  2.6529 -0.5145 -0.6334
  350MOL0     H47200   8.472   2.224   9.392 -0.1651  0.7479 -0.3920
  350MOL0     H47201   8.772   2.219   9.475  0.5349  1.6039 -0.8428
  350MOL0     H47202   9.069   2.025   9.313  2.9444 -1.0706  3.2617
  350MOL0     H47203   9.019   2.089   9.462  0.3153 -0.1946 -0.1815
  350MOL0     H47204   8.865   1.878   9.491  0.3750 -0.0927 -1.2105
  350MOL0     H47205   8.959   1.807   9.355  0.0392  3.9380 -3.9743
  350MOL0     H47206   9.066   1.911   9.621 -1.2373 -1.6157  1.1846
  350MOL0     H47207   9.150   1.833   9.479  0.2195 -0.1278  0.5088
  350MOL0     H47208   8.928   1.683   9.638 -0.0856 -6.1973 -1.2043
  350MOL0     H47209   9.094   1.695   9.698  0.4133  0.4489 -0.0778
  350MOL0     H47210   9.136   1.451   9.777 -1.7034  1.8146 -2.1458
  350MOL0     H47211   9.342   1.335   9.813 -2.2104 -1.6750 -1.0751
  350MOL0     H47212   9.682   1.111   9.593  0.6838  3.4976  0.5725
  350MOL0     H47213   9.825   0.927   9.631  1.1246  1.4255 -0.5805
  350MOL0     H47214  10.033   0.855  10.000  0.6623  0.0501 -0.4610
  350MOL0     H47215   9.904   0.735  10.041 -0.9691  2.3354  1.1185
  350MOL0     H47216  10.092   0.590  10.015  3.0342  0.1356 -0.3343
  350MOL0     H47217  10.013   0.599   9.841 -0.2667 -2.3207  0.6585
  350MOL0     H47218  10.238   0.610   9.816 -1.8519  0.2910 -2.3420
  350MOL0     H47219  10.163   0.759   9.778 -2.8419 -2.0679 -1.6957
  350MOL0     H47220  10.266   0.709  10.060 -3.7305 -0.7876 -0.7301
  350MOL0     H47221  10.239   0.873   9.979  0.0074  0.8842 -1.3797
  350MOL0     H47222  10.442   0.864   9.849  3.1176  0.5927 -0.0783
  350MOL0     H47223  10.447   0.682   9.876  0.3707 -0.6141  1.8024
  350MOL0     H47224  10.538   0.919  10.047  1.5782 -0.2829  2.4257
  350MOL0     H47225  10.500   0.759  10.126  0.8989  1.8935  1.4274
  350MOL0     H47226  10.676   0.829   9.887 -0.6388  2.3539  1.9265
  350MOL0     H47227  10.674   0.661   9.966  0.0217 -1.4958 -0.4634
  350MOL0     H47228  10.791   0.897  10.088  2.8117 -1.4081 -1.2810
  350MOL0     H47229  10.740   0.752  10.177 -0.5362 -0.9937 -0.4139
  350MOL0     H47230   9.781   0.975  10.058  0.1417  0.7002  0.3822
  350MOL0     H47231   9.636   1.157  10.012 -0.0941 -0.3960  0.4926
  350MOL0     H47232   9.508   1.510   9.458  0.0809  0.1802 -0.3787
  350MOL0     H47233   9.301   1.597   9.397 -1.0178  0.6322  0.4888
  350MOL0     H47234   8.346   2.596   8.297 -0.3772  2.1827  3.6478
  350MOL0     H47235   8.286   2.638   8.068  0.3595 -2.5797  2.4280
  350MOL0     H47236   8.484   2.903   7.681 -2.7448  4.4042  0.5531
  350MOL0     H47237   8.487   2.915   7.442  0.2503  1.7775  0.0612
  350MOL0     H47238   8.452   2.661   7.255 -0.9640 -1.6531 -1.6796
  350MOL0     H47239   8.401   2.739   7.113 -2.1899  0.6554 -0.0067
  350MOL0     H47240   8.213   2.572   7.271 -1.6817  0.4847  0.3467
  350MOL0     H47241   8.306   2.504   7.145 -0.5352 -0.1101  1.6233
  350MOL0     H47242   8.127   2.552   7.011 -2.0259  1.4699 -1.5378
  350MOL0     H47243   8.183   2.730   7.011 -1.8398  0.4862  0.8641
  350MOL0     H47244   8.045   2.767   7.228 -1.0021  0.9766 -0.1287
  350MOL0     H47245   7.975   2.744   7.069 -0.2380 -1.5909 -0.8141
  350MOL0     H47246   7.846   2.425   7.331 -1.4346 -0.4589 -1.0283
  350MOL0     H47247   8.110   2.692   7.438 -3.6370  4.1124  1.8260
  350MOL0     H47248   8.008   2.703   7.708  0.6447  0.8110  1.4938
  350MOL0     H47249   8.051   2.564   7.599 -0.5713  1.0993 -0.9435
  350MOL0     H47250   8.118   2.578   7.768  2.9434 -0.4362 -1.4626
  351MOL0     O47251   6.271   9.557   5.962 -0.7855  0.9751  0.8417
  351MOL0     C47252   6.331   9.554   5.849  0.6651  0.3183  0.3308
  351MOL0     O47253   6.420   9.462   5.807 -0.4329 -0.6266  0.2805
  351MOL0     C47254   6.448   9.358   5.889 -0.2834 -0.4297  0.6152
  351MOL0     C47255   6.381   9.234   5.885 -0.2989 -0.7205  0.3817
  351MOL0     C47256   6.432   9.123   5.941  1.4503  0.2953  0.2081
  351MOL0     C47257   6.543   9.127   6.031 -0.2059 -0.1962  1.0504
  351MOL0     O47258   6.575   9.017   6.097  1.3368  0.3902 -0.0236
  351MOL0     C47259   6.709   9.002   6.140 -0.4824 -0.4243 -0.5261
  351MOL0     C47260   6.744   8.853   6.180  0.4736 -0.2188  0.3014
  351MOL0     C47261   6.742   8.739   6.070  0.2011 -0.1280  0.2056
  351MOL0     C47262   6.802   8.770   5.934 -0.0848 -0.2488  0.4934
  351MOL0     C47263   6.779   8.649   5.837 -0.0161 -0.6213 -0.3966
  351MOL0     C47264   6.817   8.700   5.692 -0.0029  0.2860 -0.5913
  351MOL0     C47265   6.960   8.745   5.672  0.5662 -0.3195  0.4380
  351MOL0     C47266   6.972   8.787   5.527  0.0667 -0.1301 -0.4171
  351MOL0     N47267   6.935   8.684   5.429  0.0701 -0.7493 -0.6202
  351MOL0     C47268   6.998   8.566   5.402 -0.2734 -0.4600  0.0934
  351MOL0     C47269   6.930   8.529   5.292 -0.2710 -0.2426 -0.0730
  351MOL0     C47270   6.951   8.395   5.227  1.1888 -0.5608 -0.1082
  351MOL0     C47271   6.843   8.293   5.272  0.0587 -0.0620 -0.8207
  351MOL0     C47272   6.853   8.155   5.194  0.5856  0.6787 -0.0630
  351MOL0     C47273   6.716   8.081   5.223 -0.4286 -0.3044 -0.2390
  351MOL0     O47274   6.604   8.135   5.145 -0.2659  0.3810 -0.2038
  351MOL0     C47275   6.543   8.084   5.036  0.4798 -0.1427  0.2353
  351MOL0     C47276   6.405   8.089   5.019  0.6541 -1.6972  1.2089
  351MOL0     C47277   6.350   8.005   4.925  0.6275  1.1487 -1.2378
  351MOL0     C47278   6.432   7.920   4.852  0.5365  0.7651  0.5154
  351MOL0     C47279   6.366   7.842   4.749  0.1607  0.7679 -0.0433
  351MOL0     O47280   6.245   7.783   4.776 -0.1122  0.6039 -0.4731
  351MOL0     C47281   6.191   7.688   4.689 -1.5006 -0.1118 -0.1293
  351MOL0     C47282   6.053   7.675   4.688 -0.1569 -0.3576 -0.2845
  351MOL0     C47283   5.983   7.585   4.614 -0.4415  0.3372 -0.4792
  351MOL0     C47284   6.060   7.497   4.536  1.0556  1.1166  0.5037
  351MOL0     O47285   5.996   7.402   4.449  0.1905  0.1023 -0.2758
  351MOL0     C47286   5.860   7.416   4.408 -1.4398  0.4718  0.2410
  351MOL0     C47287   5.824   7.352   4.271 -0.3813  0.4818  0.4445
  351MOL0     C47288   5.677   7.377   4.238 -0.0821  0.7519  0.1810
  351MOL0     C47289   5.643   7.334   4.086  0.1493  0.1702 -1.7980
  351MOL0     C47290   5.489   7.317   4.049  0.1572  0.8650  0.5156
  351MOL0     C47291   5.482   7.334   3.897 -0.1480  0.3154  0.9387
  351MOL0     C47292   5.340   7.300   3.850  0.9154 -0.6117  0.0279
  351MOL0     C47293   5.332   7.281   3.695 -0.0694  0.8908  0.1895
  351MOL0    Cl47294   5.379   7.429   3.608  0.2600 -0.3842  0.1125
  351MOL0     C47295   6.200   7.500   4.530  0.3585 -0.5830 -0.4634
  351MOL0     C47296   6.266   7.590   4.609  0.4850 -0.2800  0.2763
  351MOL0     O47297   6.428   7.837   4.642  0.3740  0.3213  0.6073
  351MOL0     C47298   6.570   7.942   4.846 -0.7768  0.6235 -0.3902
  351MOL0     C47299   6.625   8.015   4.948 -0.4888  0.0533 -0.5247
  351MOL0     N47300   6.843   8.620   5.243  0.3513 -0.1477 -0.2479
  351MOL0     N47301   6.839   8.714   5.334  0.0269 -0.3058 -0.0387
  351MOL0     C47302   6.618   9.254   6.034  0.1203  0.1060 -0.2935
  351MOL0     C47303   6.573   9.366   5.964 -0.0460  0.3771  0.5354
  351MOL0     C47304   6.325   9.676   5.758 -1.2453 -0.6156 -0.2782
  351MOL0     C47305   6.433   9.695   5.668 -0.5665 -1.1273  0.8867
  351MOL0     C47306   6.457   9.816   5.601  0.1712  0.7398  0.3154
  351MOL0     C47307   6.367   9.929   5.616 -0.5541 -0.3632 -0.6875
  351MOL0     O47308   6.385  10.050   5.557  0.0022  0.2132 -0.4754
  351MOL0     C47309   6.509  10.076   5.497 -0.6014 -0.1486  0.6251
  351MOL0     C47310   6.536  10.219   5.446  0.2173  0.4469 -0.3112
  351MOL0     C47311   6.595  10.323   5.542 -0.0292 -0.2446 -0.0891
  351MOL0     C47312   6.615  10.463   5.469 -1.3807  0.6547  0.1286
  351MOL0     C47313   6.699  10.459   5.343 -0.4302  0.0256  0.7132
  351MOL0     C47314   6.753  10.457   5.236 -0.3092 -0.2632 -0.5058
  351MOL0     C47315   6.255   9.910   5.697  0.0940  0.1719 -0.1335
  351MOL0     C47316   6.231   9.782   5.765  0.5492 -0.5151 -0.4365
  351MOL0     C47317   6.104   9.767   5.851  0.1354 -0.1209 -0.4592
  351MOL0     H47318   6.283   9.221   5.841 -0.6551 -1.0626  1.2534
  351MOL0     H47319   6.375   9.032   5.932 -2.5811  2.5714  0.5558
  351MOL0     H47320   6.777   9.030   6.059  2.4420 -1.0563  1.5665
  351MOL0     H47321   6.718   9.059   6.232 -2.5598 -0.5281 -0.2086
  351MOL0     H47322   6.672   8.822   6.256  0.0958  0.2868  0.1572
  351MOL0     H47323   6.842   8.867   6.228 -1.5933  0.8172  4.7423
  351MOL0     H47324   6.636   8.729   6.044  0.6363 -0.7481 -1.3877
  351MOL0     H47325   6.783   8.643   6.103  3.5793  1.4977  1.1656
  351MOL0     H47326   6.743   8.859   5.908  0.3153 -0.1913 -0.2270
  351MOL0     H47327   6.905   8.802   5.918  0.5603 -2.9192 -1.4630
  351MOL0     H47328   6.846   8.568   5.866  2.1535  0.4739 -2.0800
  351MOL0     H47329   6.678   8.606   5.845 -0.4857  0.6325  0.9506
  351MOL0     H47330   6.789   8.622   5.621  0.0915 -1.4271  1.1766
  351MOL0     H47331   6.754   8.787   5.671 -0.3029 -0.3827 -2.6886
  351MOL0     H47332   7.036   8.672   5.701  0.7627 -0.1961  0.2440
  351MOL0     H47333   6.984   8.836   5.729 -0.6732  0.9458 -0.9613
  351MOL0     H47334   6.917   8.879   5.508  0.7779  0.1860 -0.9998
  351MOL0     H47335   7.078   8.806   5.507 -0.1321 -0.6037 -2.0829
  351MOL0     H47336   7.083   8.506   5.434 -1.3131 -3.5600 -2.5005
  351MOL0     H47337   6.945   8.398   5.118  0.5427 -0.3095 -0.0737
  351MOL0     H47338   7.049   8.359   5.257  1.2399  0.9378  1.6782
  351MOL0     H47339   6.866   8.277   5.378 -1.6916 -2.2675 -0.7088
  351MOL0     H47340   6.743   8.329   5.246 -1.2745 -2.8097  0.1311
  351MOL0     H47341   6.940   8.094   5.221 -1.5285 -1.9866  1.2851
  351MOL0     H47342   6.865   8.178   5.088  2.0635 -2.2136 -0.6164
  351MOL0     H47343   6.688   8.090   5.329  0.7299 -1.1507  0.1586
  351MOL0     H47344   6.719   7.975   5.198  0.1345 -1.1536  2.8911
  351MOL0     H47345   6.353   8.167   5.074  3.5705  2.9828 -1.8278
  351MOL0     H47346   6.242   8.000   4.926  0.5411  1.1848  2.5019
  351MOL0     H47347   6.007   7.748   4.755 -1.0926 -0.6840 -0.5544
  351MOL0     H47348   5.874   7.591   4.619 -0.4796 -0.9034  3.1957
  351MOL0     H47349   5.799   7.370   4.487  1.2646 -0.5202  1.8774
  351MOL0     H47350   5.825   7.520   4.409 -2.0467  0.2741  1.2027
  351MOL0     H47351   5.886   7.414   4.206  1.3288 -1.5577  0.0130
  351MOL0     H47352   5.849   7.246   4.258  0.4327  0.8137 -0.8435
  351MOL0     H47353   5.620   7.305   4.297  0.5243 -0.0910 -0.2392
  351MOL0     H47354   5.651   7.479   4.269 -1.4692  0.1365  1.1174
  351MOL0     H47355   5.681   7.231   4.079  1.1290  0.0955  2.0646
  351MOL0     H47356   5.702   7.392   4.015 -0.3538  2.1788 -0.6424
  351MOL0     H47357   5.440   7.401   4.099  1.9623  1.9237  0.6167
  351MOL0     H47358   5.453   7.216   4.070 -1.0817  0.4444 -2.9534
  351MOL0     H47359   5.516   7.430   3.857  3.9931 -2.2829 -2.7043
  351MOL0     H47360   5.539   7.254   3.850 -0.1943 -0.3701  2.0190
  351MOL0     H47361   5.260   7.369   3.879  0.1352 -1.1196 -0.8522
  351MOL0     H47362   5.307   7.202   3.888 -1.8716  0.1543 -0.1547
  351MOL0     H47363   5.398   7.198   3.667  2.1576  1.5663  2.9426
  351MOL0     H47364   5.234   7.252   3.657  0.0557  1.7123 -0.7952
  351MOL0     H47365   6.253   7.438   4.458  0.8578  0.5102 -1.0461
  351MOL0     H47366   6.375   7.585   4.612  0.4754 -0.2361  0.8744
  351MOL0     H47367   6.634   7.899   4.769 -0.8550 -3.0796  1.3822
  351MOL0     H47368   6.730   8.038   4.964 -1.0396  0.5770  3.4053
  351MOL0     H47369   6.710   9.258   6.092 -1.5479 -1.3557  2.7117
  351MOL0     H47370   6.626   9.461   5.959  2.1407 -0.8179 -0.9881
  351MOL0     H47371   6.513   9.623   5.654  0.2085  0.1102 -1.5603
  351MOL0     H47372   6.534   9.820   5.525 -3.0406 -1.1945 -3.4033
  351MOL0     H47373   6.528   9.999   5.422  3.0747 -0.0465  1.2616
  351MOL0     H47374   6.593  10.069   5.567  1.8645 -0.9487 -2.1686
  351MOL0     H47375   6.441  10.253   5.404 -1.5397 -1.4942  1.8154
  351MOL0     H47376   6.606  10.205   5.364 -1.3768 -1.3872 -1.4425
  351MOL0     H47377   6.693  10.292   5.580 -0.3054 -0.2264  0.6558
  351MOL0     H47378   6.528  10.338   5.627 -1.8665 -1.7142 -1.1901
  351MOL0     H47379   6.519  10.499   5.431 -1.7902 -0.5269  0.0067
  351MOL0     H47380   6.653  10.533   5.544 -1.7045 -0.2997  1.2176
  351MOL0     H47381   6.812  10.460   5.147  0.9595 -1.4595  0.2592
  351MOL0     H47382   6.197  10.001   5.710  0.4660  0.1507  2.1195
  351MOL0     H47383   6.060   9.865   5.868  0.1445 -0.0476 -0.8481
  351MOL0     H47384   6.039   9.691   5.806  1.2487 -2.9421  2.2463
  351MOL0     H47385   6.131   9.731   5.951  1.4043  2.3177  0.1496
  352MOL0     O47386   3.714  10.023   1.881  0.8488  0.5418 -0.3594
  352MOL0     C47387   3.683  10.060   1.768  0.1896 -0.5810  0.4950
  352MOL0     O47388   3.693   9.986   1.655 -0.9272  0.7991  0.1508
  352MOL0     C47389   3.710   9.851   1.690 -0.9615 -0.0429  0.5748
  352MOL0     C47390   3.600   9.762   1.687 -0.1748  0.6017 -0.8167
  352MOL0     C47391   3.611   9.631   1.727  1.5597  0.5296  1.2454
  352MOL0     C47392   3.721   9.597   1.795  0.3835  0.1452  0.5833
  352MOL0     O47393   3.719   9.469   1.843  1.0375  0.3128  0.1713
  352MOL0     C47394   3.650   9.433   1.969  0.0367 -0.2741  0.1818
  352MOL0     C47395   3.735   9.487   2.091  1.2126  0.5914  0.2613
  352MOL0     C47396   3.676   9.426   2.215  0.6599 -0.4514 -0.4683
  352MOL0     C47397   3.769   9.450   2.334 -0.1664  0.1306  0.0790
  352MOL0     C47398   3.721   9.405   2.469 -0.0774 -0.1487 -0.2213
  352MOL0     C47399   3.803   9.452   2.595 -0.3159  0.3026  0.5481
  352MOL0     C47400   3.743   9.380   2.713 -0.2283 -0.5431 -0.5458
  352MOL0     C47401   3.838   9.404   2.834 -0.2798  0.0560 -0.1575
  352MOL0     N47402   3.798   9.321   2.954  0.1871  0.0839 -0.2047
  352MOL0     C47403   3.819   9.181   2.955  0.0402  0.4238  0.0136
  352MOL0     C47404   3.785   9.154   3.083 -0.4372  0.3903 -0.5106
  352MOL0     C47405   3.818   9.029   3.149  0.6206 -0.2394  0.4907
  352MOL0     C47406   3.683   8.954   3.189 -0.3730 -0.2829  0.0413
  352MOL0     C47407   3.601   8.922   3.061 -0.0049 -0.4458  0.3949
  352MOL0     C47408   3.476   8.840   3.105  1.2570 -0.2246 -1.0936
  352MOL0     O47409   3.518   8.707   3.136  0.0543 -0.7602  0.1011
  352MOL0     C47410   3.507   8.602   3.044 -0.0796 -0.2639  0.8019
  352MOL0     C47411   3.554   8.481   3.092 -0.7032 -0.0351  0.2040
  352MOL0     C47412   3.547   8.362   3.019 -0.4107 -0.2810  0.3541
  352MOL0     C47413   3.476   8.360   2.901 -0.4125 -1.1803  1.2028
  352MOL0     C47414   3.449   8.240   2.826  0.2429 -0.5025 -0.5689
  352MOL0     O47415   3.406   8.271   2.706  0.2745  1.0989  0.2563
  352MOL0     C47416   3.425   8.167   2.617  0.0656  0.5312  0.5794
  352MOL0     C47417   3.316   8.088   2.587 -0.2572 -0.2742 -0.3927
  352MOL0     C47418   3.322   7.985   2.491 -1.2235 -0.0233  0.8166
  352MOL0     C47419   3.438   7.949   2.426  0.4262  0.3348  0.8025
  352MOL0     O47420   3.445   7.843   2.339  0.0969 -0.4040 -0.0334
  352MOL0     C47421   3.502   7.727   2.400 -0.1758  0.3265  0.4095
  352MOL0     C47422   3.542   7.611   2.294  0.2724 -0.2688 -0.1643
  352MOL0     C47423   3.594   7.670   2.159  0.5822 -0.2452  0.1950
  352MOL0     C47424   3.735   7.721   2.176  0.2135  0.3285  0.4665
  352MOL0     C47425   3.808   7.781   2.050  0.2898  0.5618 -0.1805
  352MOL0     C47426   3.823   7.685   1.930  0.8285  0.4179  0.5628
  352MOL0     C47427   3.783   7.764   1.799 -0.0970  0.6890  0.2552
  352MOL0     C47428   3.811   7.673   1.684 -0.6311 -0.3265 -0.6918
  352MOL0    Cl47429   3.988   7.613   1.692 -0.2326 -0.3619  0.2554
  352MOL0     C47430   3.547   8.029   2.446  0.0181  0.6427 -0.5975
  352MOL0     C47431   3.540   8.134   2.541  0.4449 -1.0885 -0.5388
  352MOL0     O47432   3.494   8.131   2.860  0.3810 -0.6340  0.8078
  352MOL0     C47433   3.423   8.488   2.855 -1.0088 -0.2588  1.0681
  352MOL0     C47434   3.447   8.609   2.927 -0.3417 -0.5366 -0.3385
  352MOL0     N47435   3.735   9.269   3.147 -0.3364 -0.0647 -0.1535
  352MOL0     N47436   3.748   9.373   3.068  0.9654  0.1818 -0.0432
  352MOL0     C47437   3.842   9.671   1.787  1.0255 -0.4481  0.1370
  352MOL0     C47438   3.838   9.801   1.725 -0.5507  0.1893 -0.1522
  352MOL0     C47439   3.651  10.208   1.751  0.5391 -0.3624  0.0582
  352MOL0     C47440   3.749  10.300   1.786 -1.4331 -0.2502 -0.2534
  352MOL0     C47441   3.741  10.442   1.756  0.2247  0.7746  0.7174
  352MOL0     C47442   3.626  10.478   1.684  1.0559  1.4510 -0.8155
  352MOL0     O47443   3.610  10.602   1.650  0.1563 -0.1700  0.1836
  352MOL0     C47444   3.537  10.675   1.739 -0.5063  0.1439  0.1442
  352MOL0     C47445   3.545  10.823   1.703 -0.2751 -1.0306  0.0394
  352MOL0     C47446   3.472  10.845   1.571 -0.2883  0.5264 -0.1358
  352MOL0     C47447   3.480  10.995   1.529  0.7765  0.0210  0.5795
  352MOL0     C47448   3.459  10.999   1.379  1.0055  0.1447 -0.8670
  352MOL0     C47449   3.429  10.988   1.261 -0.7712 -0.3018 -0.8193
  352MOL0     C47450   3.528  10.388   1.644  0.1815  1.2239 -0.0026
  352MOL0     C47451   3.542  10.250   1.674 -0.4369  0.3675  0.4086
  352MOL0     C47452   3.445  10.149   1.621 -1.0230  0.1831  1.0491
  352MOL0     H47453   3.498   9.790   1.663  0.1769  1.3068 -1.5026
  352MOL0     H47454   3.520   9.573   1.716  0.1639  2.4638  1.9345
  352MOL0     H47455   3.547   9.471   1.960 -0.6859 -2.0801  0.4542
  352MOL0     H47456   3.634   9.325   1.978 -2.5647  0.0012 -0.2242
  352MOL0     H47457   3.715   9.594   2.103 -0.8593  0.4607 -1.5077
  352MOL0     H47458   3.842   9.473   2.073  0.9746 -0.6318 -0.2780
  352MOL0     H47459   3.653   9.319   2.213 -2.1322 -0.1329  3.3114
  352MOL0     H47460   3.576   9.466   2.236  0.5862 -1.7313  1.9847
  352MOL0     H47461   3.871   9.423   2.307  1.0883 -0.4195  4.4736
  352MOL0     H47462   3.789   9.558   2.342  1.3141  0.0164 -1.5768
  352MOL0     H47463   3.621   9.449   2.470 -0.1995 -0.4043 -0.7808
  352MOL0     H47464   3.729   9.296   2.477  2.5234  0.0459  0.6330
  352MOL0     H47465   3.906   9.415   2.586 -1.7234 -3.7862 -0.5146
  352MOL0     H47466   3.808   9.559   2.618  1.9880  0.4655 -0.3707
  352MOL0     H47467   3.745   9.271   2.700 -0.5445 -0.3752 -2.2154
  352MOL0     H47468   3.642   9.417   2.735 -0.5829 -0.8732 -1.5583
  352MOL0     H47469   3.938   9.384   2.796 -0.8262  1.6813 -2.7089
  352MOL0     H47470   3.854   9.506   2.867 -0.6532  0.4367 -1.1114
  352MOL0     H47471   3.877   9.121   2.886 -0.3191  0.2976 -0.1779
  352MOL0     H47472   3.875   8.973   3.074  1.0147  1.8789 -0.9170
  352MOL0     H47473   3.883   9.040   3.236  1.4268 -1.7985  0.1264
  352MOL0     H47474   3.714   8.866   3.247  1.9408  0.4236 -0.0102
  352MOL0     H47475   3.640   9.024   3.261 -0.0126  0.1008 -0.1121
  352MOL0     H47476   3.667   8.861   2.997  1.0216  0.6593  0.3674
  352MOL0     H47477   3.556   8.998   2.996 -0.7492 -1.8591 -0.8227
  352MOL0     H47478   3.402   8.838   3.024  0.9015 -1.3868 -0.7554
  352MOL0     H47479   3.431   8.888   3.192  3.6529  3.4775 -1.6369
  352MOL0     H47480   3.584   8.457   3.193  0.6274  0.2237 -0.1084
  352MOL0     H47481   3.584   8.266   3.054 -1.5260 -2.4278 -3.6737
  352MOL0     H47482   3.221   8.106   2.638  0.7574 -1.5231  2.0884
  352MOL0     H47483   3.234   7.923   2.478 -1.0316 -0.2140  0.4120
  352MOL0     H47484   3.575   7.751   2.478 -1.2894 -2.3368  2.4663
  352MOL0     H47485   3.412   7.694   2.454 -2.5145  3.2896 -1.3821
  352MOL0     H47486   3.615   7.545   2.341  0.4616 -0.3488 -0.5728
  352MOL0     H47487   3.448   7.561   2.266  1.8953 -1.8286 -3.2461
  352MOL0     H47488   3.600   7.591   2.083 -0.0520  2.4129 -2.8391
  352MOL0     H47489   3.528   7.748   2.120  0.5486  0.6907  2.0522
  352MOL0     H47490   3.787   7.626   2.191  0.6035  0.4415 -0.1238
  352MOL0     H47491   3.748   7.780   2.267 -0.8660 -0.9427  1.4799
  352MOL0     H47492   3.907   7.816   2.080  0.4001  1.6197 -1.6578
  352MOL0     H47493   3.751   7.867   2.013  0.1231 -0.3089 -2.0644
  352MOL0     H47494   3.924   7.646   1.944  0.7050  0.0956  0.5486
  352MOL0     H47495   3.748   7.606   1.933  0.0773  1.1217  0.8393
  352MOL0     H47496   3.850   7.850   1.791  1.9718 -0.7379  1.2759
  352MOL0     H47497   3.678   7.797   1.800 -0.8030 -1.3452 -0.3634
  352MOL0     H47498   3.733   7.597   1.685 -2.1687  1.1085  2.2400
  352MOL0     H47499   3.807   7.732   1.592 -1.5324  0.0531 -0.4180
  352MOL0     H47500   3.642   8.011   2.396  1.8892  1.8295  2.2372
  352MOL0     H47501   3.623   8.200   2.565  0.2654  0.2852 -3.2997
  352MOL0     H47502   3.367   8.505   2.764  1.7718 -1.3322 -0.9904
  352MOL0     H47503   3.403   8.695   2.878  1.5641 -0.9232 -2.9519
  352MOL0     H47504   3.930   9.629   1.835  1.5103 -1.3928 -1.5223
  352MOL0     H47505   3.930   9.859   1.723  0.6161 -1.5097  1.0778
  352MOL0     H47506   3.836  10.267   1.843 -1.8745  0.5173  0.9029
  352MOL0     H47507   3.828  10.506   1.761  1.7154 -0.6008 -3.4957
  352MOL0     H47508   3.579  10.659   1.839 -0.5329 -0.3346  0.0806
  352MOL0     H47509   3.440  10.624   1.738  1.2724 -3.6225 -1.0607
  352MOL0     H47510   3.644  10.868   1.707 -1.3810  1.4977  1.6745
  352MOL0     H47511   3.489  10.865   1.787  0.5981 -1.4632  0.8695
  352MOL0     H47512   3.367  10.815   1.570 -0.1201 -0.1533  0.8474
  352MOL0     H47513   3.528  10.787   1.497  0.1255  0.5246  0.1744
  352MOL0     H47514   3.391  11.044   1.570  1.3379 -0.5046  2.5197
  352MOL0     H47515   3.577  11.042   1.548  1.6209 -1.3879 -0.0569
  352MOL0     H47516   3.407  10.974   1.157  2.4643 -0.4522 -1.5958
  352MOL0     H47517   3.441  10.422   1.589 -1.5331  4.1115  4.0305
  352MOL0     H47518   3.394  10.088   1.696 -0.7583  2.0281  2.8440
  352MOL0     H47519   3.355  10.196   1.578  0.3746  1.9899 -0.0474
  352MOL0     H47520   3.491  10.089   1.542 -1.5514  1.5486 -0.3530
  353MOL0     O47521   1.389   8.742   6.756 -0.0342 -0.8535  0.1181
  353MOL0     C47522   1.345   8.858   6.741  0.4785  0.6968 -0.3168
  353MOL0     O47523   1.277   8.890   6.633  0.3277  1.0260 -0.3715
  353MOL0     C47524   1.244   8.795   6.541 -0.0359 -0.2640 -0.3148
  353MOL0     C47525   1.112   8.773   6.502 -0.9757 -0.6187  0.1571
  353MOL0     C47526   1.072   8.694   6.393  0.0054  0.3318 -0.8749
  353MOL0     C47527   1.163   8.614   6.324  0.3607  1.0084 -0.4909
  353MOL0     O47528   1.112   8.537   6.223 -0.3304  0.1140 -0.6207
  353MOL0     C47529   1.186   8.560   6.098  0.4543 -1.4491 -0.2250
  353MOL0     C47530   1.173   8.445   6.008  0.3309 -0.8185  1.5855
  353MOL0     C47531   1.249   8.329   6.062 -0.3619 -0.1271 -0.6401
  353MOL0     C47532   1.261   8.223   5.951  0.4966 -0.9512  0.1898
  353MOL0     C47533   1.343   8.097   5.976 -0.3170  0.2506  0.4628
  353MOL0     C47534   1.358   8.030   5.843  0.7115 -0.2203  0.3277
  353MOL0     C47535   1.422   7.891   5.864  0.8770  0.2037 -0.6908
  353MOL0     C47536   1.577   7.881   5.835 -0.2418  0.0098  0.7513
  353MOL0     N47537   1.619   7.743   5.853 -0.3091 -0.3003  1.0258
  353MOL0     C47538   1.705   7.688   5.942 -0.3102 -0.5479 -1.1414
  353MOL0     C47539   1.699   7.555   5.916 -0.1589 -0.1538  0.9368
  353MOL0     C47540   1.768   7.449   5.998  0.4737  0.3166  0.4754
  353MOL0     C47541   1.658   7.359   6.051 -1.4112 -0.3617 -1.1112
  353MOL0     C47542   1.712   7.221   6.097 -0.3015 -0.0539 -0.1684
  353MOL0     C47543   1.794   7.240   6.231  0.0841  0.2782 -0.3650
  353MOL0     O47544   1.813   7.120   6.312  1.2221  0.3408  0.1429
  353MOL0     C47545   1.922   7.033   6.309  0.0430  0.5282 -0.3939
  353MOL0     C47546   2.008   7.015   6.212  1.0317 -0.1564 -0.1339
  353MOL0     C47547   2.115   6.934   6.227  0.3079  0.4860 -0.1968
  353MOL0     C47548   2.131   6.857   6.346 -0.6423  0.7797 -0.0286
  353MOL0     C47549   2.257   6.777   6.372  0.3300  0.4860 -1.7017
  353MOL0     O47550   2.290   6.739   6.502 -0.4153 -1.2363  0.4382
  353MOL0     C47551   2.388   6.649   6.521  0.1522 -0.5006  0.5561
  353MOL0     C47552   2.519   6.656   6.468 -0.6814  0.1942  1.2397
  353MOL0     C47553   2.622   6.568   6.511 -0.5751 -0.3155  0.2397
  353MOL0     C47554   2.584   6.464   6.594  0.1330  0.6932 -0.6481
  353MOL0     O47555   2.692   6.384   6.638  0.1725 -0.4752 -0.8805
  353MOL0     C47556   2.694   6.257   6.568 -0.1465  0.0354 -0.0166
  353MOL0     C47557   2.786   6.156   6.645  0.6707  0.6885  0.0928
  353MOL0     C47558   2.938   6.200   6.644 -0.4776  0.4687 -0.2175
  353MOL0     C47559   3.024   6.099   6.729  1.0871 -0.0134 -0.7896
  353MOL0     C47560   3.171   6.135   6.720  0.1241  1.5188 -0.5058
  353MOL0     C47561   3.204   6.264   6.796  0.1191 -0.9460 -0.0056
  353MOL0     C47562   3.364   6.258   6.824  0.1829  0.7800  0.4615
  353MOL0     C47563   3.406   6.368   6.924  0.7471  0.4587  0.2231
  353MOL0    Cl47564   3.573   6.330   6.969  0.2629 -0.3152 -0.2871
  353MOL0     C47565   2.449   6.451   6.640 -0.4156  0.8738  0.4375
  353MOL0     C47566   2.359   6.546   6.600  1.4036  0.1838  0.0296
  353MOL0     O47567   2.331   6.750   6.274 -0.4730 -0.4683 -0.0461
  353MOL0     C47568   2.041   6.874   6.453 -0.2163  0.1909 -0.6386
  353MOL0     C47569   1.925   6.953   6.427  0.2491  0.0733  0.6957
  353MOL0     N47570   1.623   7.538   5.812  0.2172 -0.0833  0.1328
  353MOL0     N47571   1.573   7.643   5.774 -0.3463 -0.5070 -0.2982
  353MOL0     C47572   1.299   8.629   6.358  1.2302 -0.3173  0.1736
  353MOL0     C47573   1.340   8.725   6.459  0.5431 -0.0241 -0.8199
  353MOL0     C47574   1.384   8.961   6.841 -0.7282  0.1037  0.3528
  353MOL0     C47575   1.514   8.958   6.907 -0.8048  0.3203 -0.4619
  353MOL0     C47576   1.549   9.054   6.992 -0.5754 -0.1535 -0.1049
  353MOL0     C47577   1.463   9.154   7.035 -0.2658 -0.1626  0.9263
  353MOL0     O47578   1.526   9.236   7.118  0.5837 -0.2788 -0.5763
  353MOL0     C47579   1.444   9.347   7.169  0.6809  0.3376  0.2266
  353MOL0     C47580   1.498   9.412   7.299 -0.1204  0.7575  0.1457
  353MOL0     C47581   1.429   9.334   7.409 -0.2623  0.0041  0.5109
  353MOL0     C47582   1.485   9.369   7.541  1.1064 -0.3758  0.0358
  353MOL0     C47583   1.403   9.476   7.607  0.4430  0.6576 -0.4790
  353MOL0     C47584   1.360   9.576   7.652  0.4112  0.6796 -0.7245
  353MOL0     C47585   1.333   9.157   6.987  0.5254  0.3769 -0.1039
  353MOL0     C47586   1.296   9.059   6.889  0.6479 -0.2522 -0.0694
  353MOL0     C47587   1.157   9.077   6.834 -0.5778  0.5802 -0.5779
  353MOL0     H47588   1.030   8.826   6.550  1.8707  3.3396  1.1558
  353MOL0     H47589   0.969   8.688   6.360 -1.0828  0.2625  2.1449
  353MOL0     H47590   1.145   8.656   6.068  1.3145 -0.5163  1.4460
  353MOL0     H47591   1.294   8.579   6.100 -0.0527  2.1545 -0.5695
  353MOL0     H47592   1.213   8.470   5.909  1.5032 -1.5186  1.8656
  353MOL0     H47593   1.070   8.419   5.982  0.9664 -2.7291  0.8629
  353MOL0     H47594   1.194   8.277   6.141 -1.3916 -0.8376 -1.8001
  353MOL0     H47595   1.349   8.349   6.102 -1.6402  0.0278  2.7671
  353MOL0     H47596   1.160   8.194   5.922  0.7588 -2.2737  0.5251
  353MOL0     H47597   1.310   8.272   5.867 -2.5607  0.0492 -1.1559
  353MOL0     H47598   1.441   8.134   6.009 -1.0731  1.4162  1.4825
  353MOL0     H47599   1.288   8.028   6.040 -0.7446 -2.7404 -2.8532
  353MOL0     H47600   1.257   8.006   5.811  0.5251 -3.0190  2.5919
  353MOL0     H47601   1.411   8.096   5.774  1.7244 -0.2314  1.0685
  353MOL0     H47602   1.362   7.816   5.813 -1.8647  1.3560  0.6446
  353MOL0     H47603   1.407   7.849   5.964  1.0398  2.5789  0.4054
  353MOL0     H47604   1.594   7.910   5.731 -3.7833 -0.0130  0.0138
  353MOL0     H47605   1.633   7.946   5.902  0.3659  0.4588 -0.1726
  353MOL0     H47606   1.759   7.735   6.023 -0.7703  0.3708 -1.3592
  353MOL0     H47607   1.844   7.392   5.943  1.1639  0.5088  1.2053
  353MOL0     H47608   1.823   7.507   6.073 -0.8844  1.7525  0.4125
  353MOL0     H47609   1.608   7.416   6.129  1.6176 -1.0783  1.5548
  353MOL0     H47610   1.596   7.344   5.962  1.3826  0.3433 -3.3452
  353MOL0     H47611   1.761   7.173   6.012 -2.8272  5.1818 -5.2809
  353MOL0     H47612   1.625   7.159   6.120 -0.8598  0.3094 -1.2221
  353MOL0     H47613   1.745   7.312   6.296 -0.6058  1.5274 -2.1766
  353MOL0     H47614   1.887   7.276   6.186  1.4827 -4.4311 -1.9000
  353MOL0     H47615   1.987   7.066   6.119 -2.7725  0.8531  1.0956
  353MOL0     H47616   2.181   6.922   6.142  0.5145  0.2108 -0.0007
  353MOL0     H47617   2.547   6.741   6.407  0.8988 -1.0341  0.1589
  353MOL0     H47618   2.726   6.579   6.481 -0.6607 -1.7645 -0.7092
  353MOL0     H47619   2.591   6.220   6.557 -0.4357  0.7142  0.3255
  353MOL0     H47620   2.723   6.266   6.463  0.5576 -0.8101  0.0897
  353MOL0     H47621   2.747   6.158   6.747  1.8341 -0.6755  0.6034
  353MOL0     H47622   2.773   6.058   6.599  0.6702  0.8775 -0.3097
  353MOL0     H47623   2.975   6.204   6.541 -0.4538 -0.2552 -0.2428
  353MOL0     H47624   2.954   6.298   6.691 -0.2915  1.2534 -1.8704
  353MOL0     H47625   3.015   5.996   6.694 -2.2554  0.8621 -2.9001
  353MOL0     H47626   2.989   6.109   6.833 -0.8067 -3.4784 -0.9452
  353MOL0     H47627   3.200   6.147   6.615 -2.8375  1.3064 -1.4290
  353MOL0     H47628   3.225   6.048   6.759  0.1796  0.8262 -2.0216
  353MOL0     H47629   3.175   6.355   6.743  0.4433  1.7733  4.0642
  353MOL0     H47630   3.151   6.276   6.891 -2.3428  0.7141 -1.4932
  353MOL0     H47631   3.415   6.271   6.729 -1.2607  0.4843 -0.3788
  353MOL0     H47632   3.400   6.162   6.863 -0.8028 -1.0753 -2.8384
  353MOL0     H47633   3.401   6.460   6.864  1.8813 -0.6424 -1.6738
  353MOL0     H47634   3.344   6.364   7.014  4.1395 -0.0012  2.7198
  353MOL0     H47635   2.423   6.373   6.711 -0.0690  2.8301  2.8290
  353MOL0     H47636   2.259   6.550   6.641  0.6019  5.3808 -1.6935
  353MOL0     H47637   2.040   6.828   6.551  0.1481  2.6326  0.5929
  353MOL0     H47638   1.846   6.946   6.501 -2.5151  0.9377 -1.9723
  353MOL0     H47639   1.377   8.579   6.302  2.1330 -1.5925  2.4249
  353MOL0     H47640   1.444   8.748   6.477  0.7638 -2.6434  1.9763
  353MOL0     H47641   1.591   8.883   6.889  0.8959  1.7846  0.4253
  353MOL0     H47642   1.650   9.053   7.033 -0.7609 -2.1739  0.4196
  353MOL0     H47643   1.336   9.334   7.178  0.7292 -1.3858 -1.2786
  353MOL0     H47644   1.455   9.415   7.084 -1.1070 -1.9886 -2.0330
  353MOL0     H47645   1.470   9.518   7.303  3.7950  1.9082  2.3130
  353MOL0     H47646   1.606   9.400   7.291  0.0139  1.2727  1.0677
  353MOL0     H47647   1.443   9.226   7.404  2.4672  0.0895  3.3014
  353MOL0     H47648   1.321   9.352   7.402 -0.3147 -0.1838  0.8326
  353MOL0     H47649   1.474   9.284   7.610  1.6139 -1.0635 -0.7136
  353MOL0     H47650   1.592   9.392   7.538  1.3610 -1.4135  0.6262
  353MOL0     H47651   1.322   9.672   7.681 -1.9092  1.3447 -5.0556
  353MOL0     H47652   1.259   9.232   7.012 -0.1895  0.0426 -1.1586
  353MOL0     H47653   1.151   9.111   6.731 -3.3773 -1.8297 -1.3445
  353MOL0     H47654   1.112   8.980   6.814  0.0658  0.6586 -2.6836
  353MOL0     H47655   1.084   9.127   6.899  0.6763  1.8065 -0.0507
  354MOL0     O47656   4.795   3.944  10.808 -0.1923  0.3430  0.0211
  354MOL0     C47657   4.739   3.881  10.720  0.7216 -0.1898 -0.1903
  354MOL0     O47658   4.801   3.837  10.609  0.0602  0.1599  0.1159
  354MOL0     C47659   4.932   3.810  10.623 -0.0868 -0.0956 -0.4576
  354MOL0     C47660   5.023   3.886  10.555  0.0522 -0.4509  0.9827
  354MOL0     C47661   5.154   3.846  10.555 -0.4154  0.7599 -0.2049
  354MOL0     C47662   5.197   3.731  10.624  0.0568  0.6485 -0.0311
  354MOL0     O47663   5.332   3.692  10.614 -0.8712 -0.3823  0.4159
  354MOL0     C47664   5.373   3.569  10.658 -0.5259 -0.3204 -0.4490
  354MOL0     C47665   5.505   3.516  10.607 -0.7682  0.2573 -0.5241
  354MOL0     C47666   5.626   3.616  10.616  0.1660  0.4495 -0.8125
  354MOL0     C47667   5.692   3.587  10.762  0.1282  0.0768  0.4850
  354MOL0     C47668   5.803   3.476  10.749  1.3531 -0.3410  1.1236
  354MOL0     C47669   5.891   3.443  10.864  0.7444  1.2619  0.3417
  354MOL0     C47670   5.801   3.419  10.988 -0.6199  0.3167  0.7528
  354MOL0     C47671   5.894   3.392  11.101  0.3272 -0.2953 -0.0225
  354MOL0     N47672   5.942   3.255  11.096 -0.6693 -0.2178 -0.6053
  354MOL0     C47673   5.867   3.146  11.128  0.3751  0.5635  0.6341
  354MOL0     C47674   5.963   3.044  11.115  0.3227  1.2565  0.5032
  354MOL0     C47675   5.927   2.900  11.151 -0.0349 -0.4119  0.0053
  354MOL0     C47676   6.004   2.808  11.069 -1.1599  0.1912 -0.2430
  354MOL0     C47677   5.944   2.664  11.082 -0.1678  0.1597  1.3380
  354MOL0     C47678   5.982   2.595  10.952 -0.3015  0.5423  0.9108
  354MOL0     O47679   6.108   2.538  10.958  0.1713  0.1963  0.5010
  354MOL0     C47680   6.132   2.429  11.041 -0.1454  0.3944  0.1357
  354MOL0     C47681   6.243   2.428  11.129  0.0073  0.2873  0.1874
  354MOL0     C47682   6.277   2.305  11.190 -1.1252  0.5372  0.7326
  354MOL0     C47683   6.202   2.186  11.175  0.4472  0.7317 -0.5713
  354MOL0     C47684   6.244   2.069  11.256 -0.4709  0.7350  0.1835
  354MOL0     O47685   6.148   1.987  11.298  0.2379  0.2901 -0.1850
  354MOL0     C47686   6.185   1.855  11.337 -0.1453 -0.2034 -0.1789
  354MOL0     C47687   6.310   1.790  11.303  0.1714  0.3408  0.0571
  354MOL0     C47688   6.330   1.659  11.347  0.3811 -0.0861  0.4047
  354MOL0     C47689   6.232   1.591  11.412 -0.9061  0.0707 -0.9238
  354MOL0     O47690   6.255   1.456  11.443  0.5807 -0.1957  0.1499
  354MOL0     C47691   6.361   1.410  11.522 -0.0435  0.5622 -0.9062
  354MOL0     C47692   6.301   1.415  11.670 -0.7061  0.1552  0.0133
  354MOL0     C47693   6.382   1.345  11.778 -0.2887  0.2008  0.7123
  354MOL0     C47694   6.335   1.213  11.830 -0.1557  0.0632 -0.1728
  354MOL0     C47695   6.331   1.092  11.733 -0.7421 -0.4707 -0.9406
  354MOL0     C47696   6.468   1.060  11.672  1.0249 -0.0789  0.7482
  354MOL0     C47697   6.592   1.042  11.765 -0.4329 -1.0968  0.0872
  354MOL0     C47698   6.591   0.905  11.842  0.4879  0.3429 -0.5899
  354MOL0    Cl47699   6.700   0.902  11.996  0.3850 -0.2537 -0.0534
  354MOL0     C47700   6.107   1.648  11.440  0.6351 -0.9764 -0.1252
  354MOL0     C47701   6.088   1.786  11.407 -0.3337  0.1851 -0.2116
  354MOL0     O47702   6.358   2.068  11.303  0.3815  0.2586 -0.4089
  354MOL0     C47703   6.087   2.188  11.090  0.2688  1.2726 -0.1689
  354MOL0     C47704   6.065   2.306  11.020 -0.3265  0.0995 -0.3724
  354MOL0     N47705   6.084   3.094  11.081  0.3760  0.4029  0.1079
  354MOL0     N47706   6.071   3.220  11.080 -0.0901  0.3160 -0.2030
  354MOL0     C47707   5.109   3.658  10.700  0.6473 -0.0223 -0.9432
  354MOL0     C47708   4.975   3.696  10.693 -0.6827  0.3839 -0.3533
  354MOL0     C47709   4.598   3.882  10.726  0.3217  0.2698  0.0414
  354MOL0     C47710   4.540   4.007  10.761 -0.6177 -0.0056 -1.1411
  354MOL0     C47711   4.400   4.012  10.774 -0.3855 -0.1373  0.1681
  354MOL0     C47712   4.316   3.906  10.744 -0.4290 -0.6609 -0.4646
  354MOL0     O47713   4.179   3.922  10.763 -0.1168  0.2886  0.1476
  354MOL0     C47714   4.080   3.822  10.721 -0.2842  0.4590 -1.0049
  354MOL0     C47715   4.067   3.803  10.575  0.3619  0.4647 -0.0883
  354MOL0     C47716   4.045   3.931  10.503 -0.3396  0.0398  0.8598
  354MOL0     C47717   4.072   3.918  10.353 -0.2100 -0.4134  0.4719
  354MOL0     C47718   4.034   4.047  10.288 -0.1494 -0.6044 -0.3978
  354MOL0     C47719   4.011   4.144  10.226 -0.3471  0.5735 -0.5204
  354MOL0     C47720   4.375   3.788  10.701 -0.3882 -0.1833 -0.6781
  354MOL0     C47721   4.514   3.777  10.691  0.2268 -0.2989  0.7303
  354MOL0     C47722   4.567   3.640  10.636  0.0884 -0.4472  0.2950
  354MOL0     H47723   4.999   3.972  10.494  3.5819 -0.9433 -1.3999
  354MOL0     H47724   5.225   3.911  10.504  1.2036 -0.3887  0.5086
  354MOL0     H47725   5.385   3.568  10.767 -0.7215 -0.8709 -0.4326
  354MOL0     H47726   5.302   3.491  10.631 -1.5547  0.5747 -0.4031
  354MOL0     H47727   5.491   3.497  10.500 -0.4359  0.9328 -0.6947
  354MOL0     H47728   5.533   3.415  10.639 -0.5228 -0.2943 -2.3911
  354MOL0     H47729   5.586   3.719  10.616  1.4605  0.9650 -0.9675
  354MOL0     H47730   5.686   3.608  10.525  3.4412 -1.0971  1.3251
  354MOL0     H47731   5.740   3.677  10.801 -3.9710  1.2801  3.4391
  354MOL0     H47732   5.624   3.554  10.841 -0.5711  0.6327  0.1289
  354MOL0     H47733   5.749   3.389  10.711  0.8379 -0.5647  2.3008
  354MOL0     H47734   5.860   3.510  10.663 -1.2383  2.2429  0.2664
  354MOL0     H47735   5.966   3.372  10.827  2.7716  3.6127 -0.3089
  354MOL0     H47736   5.954   3.531  10.877  0.7988  1.8882 -3.2220
  354MOL0     H47737   5.723   3.345  10.971 -0.9047  0.6480  0.6197
  354MOL0     H47738   5.747   3.511  11.012 -1.7892 -0.4660  1.2039
  354MOL0     H47739   5.974   3.466  11.087  1.0212 -0.8379  0.9719
  354MOL0     H47740   5.820   3.414  11.178 -0.1573  2.8854 -1.2403
  354MOL0     H47741   5.759   3.134  11.138  0.4639  0.5464  1.6896
  354MOL0     H47742   5.940   2.888  11.259 -1.4590  3.3395  0.7255
  354MOL0     H47743   5.819   2.895  11.132 -0.1884  0.8745  0.4580
  354MOL0     H47744   5.991   2.843  10.966 -0.3041 -1.1235 -0.8240
  354MOL0     H47745   6.108   2.803  11.102 -0.4348 -0.0330 -2.4338
  354MOL0     H47746   5.835   2.662  11.085 -0.2235  0.9636  0.3124
  354MOL0     H47747   5.989   2.607  11.164  0.0308 -1.1193  0.3559
  354MOL0     H47748   5.977   2.662  10.866  0.9930 -1.3416 -0.7266
  354MOL0     H47749   5.905   2.518  10.941  0.8331 -0.5089  0.1527
  354MOL0     H47750   6.289   2.526  11.136 -3.0484  2.0161 -1.9299
  354MOL0     H47751   6.365   2.305  11.253 -1.4105  2.4051  1.1992
  354MOL0     H47752   6.392   1.833  11.247 -0.3079  0.2888 -0.7018
  354MOL0     H47753   6.415   1.599  11.314 -0.6456 -1.9149  0.9392
  354MOL0     H47754   6.391   1.308  11.497 -2.3901 -0.5869  0.5357
  354MOL0     H47755   6.434   1.490  11.537 -0.6684  1.0745 -0.5486
  354MOL0     H47756   6.275   1.512  11.712 -1.4978 -1.1228  2.7782
  354MOL0     H47757   6.200   1.375  11.653 -1.6513  1.9789  1.0308
  354MOL0     H47758   6.487   1.340  11.749 -1.0240 -0.5578 -2.0738
  354MOL0     H47759   6.376   1.393  11.877 -1.6816 -1.2165  1.3663
  354MOL0     H47760   6.231   1.222  11.864 -0.1430 -1.5030  0.3480
  354MOL0     H47761   6.407   1.188  11.908  1.8627  2.4516 -1.1071
  354MOL0     H47762   6.267   1.115  11.647 -1.0724 -1.5448 -0.9951
  354MOL0     H47763   6.306   0.996  11.778 -0.4286 -2.0538 -3.9228
  354MOL0     H47764   6.452   0.957  11.638  1.3329 -0.3370  1.3648
  354MOL0     H47765   6.504   1.125  11.592 -0.2769 -0.1124  0.1174
  354MOL0     H47766   6.592   1.129  11.832 -1.6244 -0.6216 -0.4952
  354MOL0     H47767   6.687   1.047  11.711 -1.5000 -0.5516 -1.8340
  354MOL0     H47768   6.489   0.869  11.861  0.8173 -0.2566  0.0814
  354MOL0     H47769   6.623   0.823  11.777 -3.2573 -0.7909 -1.2674
  354MOL0     H47770   6.031   1.591  11.491  0.2823 -0.4441 -0.0475
  354MOL0     H47771   5.999   1.844  11.431 -1.5436 -1.3471 -0.8558
  354MOL0     H47772   6.008   2.114  11.091  0.5415  0.8823  2.6117
  354MOL0     H47773   5.991   2.295  10.941 -1.2338 -4.8934  0.8312
  354MOL0     H47774   5.137   3.572  10.759  0.3707  0.8820  0.5622
  354MOL0     H47775   4.916   3.620  10.743  2.1655 -1.0516  1.0000
  354MOL0     H47776   4.598   4.093  10.793 -0.4459  0.3726 -2.4087
  354MOL0     H47777   4.356   4.103  10.815 -1.7085 -0.8245  0.3324
  354MOL0     H47778   3.986   3.846  10.772  0.9449 -0.9730  2.1857
  354MOL0     H47779   4.107   3.732  10.776 -1.2732  1.9330  2.1419
  354MOL0     H47780   3.982   3.741  10.544  1.8606 -0.8789 -1.6979
  354MOL0     H47781   4.163   3.759  10.545  0.9292  3.1811 -2.7032
  354MOL0     H47782   4.116   4.005  10.543  1.5163 -2.3968  2.4410
  354MOL0     H47783   3.941   3.960  10.513 -0.1938  1.0549 -0.3838
  354MOL0     H47784   4.175   3.890  10.331 -1.2747 -2.4524 -2.6453
  354MOL0     H47785   4.011   3.847  10.297  0.4537 -0.0139 -0.8261
  354MOL0     H47786   3.990   4.222  10.156 -1.3081 -2.5352 -4.1031
  354MOL0     H47787   4.314   3.703  10.669 -1.0054 -0.4878  1.1641
  354MOL0     H47788   4.626   3.656  10.546  0.0126 -1.3073  0.0836
  354MOL0     H47789   4.619   3.591  10.720 -2.3193 -0.7674  1.6947
  354MOL0     H47790   4.490   3.575  10.594  3.3306 -2.0578 -3.8202
  355MOL0     O47791   8.897   7.341   7.610 -0.2504  0.3366 -0.0393
  355MOL0     C47792   8.814   7.339   7.518  0.3926  0.1438  0.0054
  355MOL0     O47793   8.761   7.453   7.452 -0.0537 -0.2782 -0.3760
  355MOL0     C47794   8.820   7.573   7.497  0.4466 -0.1678 -0.3506
  355MOL0     C47795   8.921   7.634   7.418 -0.3301 -0.0277  0.1131
  355MOL0     C47796   9.007   7.733   7.464 -0.0499 -0.5658 -0.2390
  355MOL0     C47797   8.971   7.800   7.579 -0.2945 -0.9281 -0.9542
  355MOL0     O47798   9.047   7.901   7.628 -0.2733  0.2807 -0.0264
  355MOL0     C47799   9.061   7.901   7.769 -1.6208  0.8206  0.1418
  355MOL0     C47800   9.199   7.965   7.791  0.2490 -0.2300 -0.0000
  355MOL0     C47801   9.316   7.873   7.774  0.6426  0.2467 -0.3530
  355MOL0     C47802   9.415   7.923   7.668 -0.5623  0.7546  0.6128
  355MOL0     C47803   9.387   7.837   7.549  0.4859  0.5199  0.9671
  355MOL0     C47804   9.456   7.907   7.423  0.3011 -0.7468 -0.4123
  355MOL0     C47805   9.479   7.805   7.304 -0.2550  0.3616 -0.7024
  355MOL0     C47806   9.545   7.873   7.183  0.0361 -0.5962 -0.5299
  355MOL0     N47807   9.509   7.814   7.053 -0.0418 -0.1058  0.0768
  355MOL0     C47808   9.452   7.697   7.018 -0.3269  1.3033  0.5982
  355MOL0     C47809   9.468   7.690   6.883  1.2625  0.4415 -0.1078
  355MOL0     C47810   9.406   7.589   6.793  0.2721  0.3125  0.3532
  355MOL0     C47811   9.505   7.480   6.733 -1.0451  0.0014 -1.2102
  355MOL0     C47812   9.421   7.401   6.625 -0.3303  0.8822 -1.0813
  355MOL0     C47813   9.390   7.255   6.678  0.6934 -0.8737  0.6361
  355MOL0     O47814   9.301   7.196   6.577 -0.0548  0.1766 -0.1094
  355MOL0     C47815   9.284   7.064   6.606  0.3419  0.7883 -0.6329
  355MOL0     C47816   9.261   6.973   6.497  0.5771 -0.6670  0.9667
  355MOL0     C47817   9.226   6.844   6.518  1.5730  0.2442 -0.2627
  355MOL0     C47818   9.225   6.790   6.649  0.0908  0.2896 -0.4633
  355MOL0     C47819   9.208   6.647   6.688 -0.0929  0.5455  0.3261
  355MOL0     O47820   9.158   6.624   6.810 -0.7666 -0.2646  0.3788
  355MOL0     C47821   9.085   6.516   6.843  0.5896  1.4213  0.0242
  355MOL0     C47822   9.061   6.479   6.978 -0.2209 -0.5465  0.0164
  355MOL0     C47823   8.970   6.374   7.018 -0.1881  0.4298  0.0817
  355MOL0     C47824   8.881   6.332   6.913  0.1955 -0.7622  0.8922
  355MOL0     O47825   8.784   6.241   6.948 -0.5519 -0.1135  0.0283
  355MOL0     C47826   8.678   6.205   6.857  0.6671 -0.8089 -0.1425
  355MOL0     C47827   8.565   6.142   6.945 -0.5321  0.1484  0.6048
  355MOL0     C47828   8.585   5.999   6.992 -0.2945 -0.3450 -0.9095
  355MOL0     C47829   8.480   5.931   7.093  0.3315  0.1694 -0.8659
  355MOL0     C47830   8.477   6.000   7.234 -0.8596  0.6760 -0.9209
  355MOL0     C47831   8.344   6.035   7.287 -0.1424 -0.6061  0.2110
  355MOL0     C47832   8.279   5.913   7.347 -0.1466  0.0325 -0.3386
  355MOL0     C47833   8.142   5.942   7.396 -0.3183 -0.3946  0.8542
  355MOL0    Cl47834   8.038   5.986   7.256  0.2502 -0.2804 -0.5446
  355MOL0     C47835   8.905   6.374   6.780 -0.3707  1.1755 -0.2501
  355MOL0     C47836   9.010   6.448   6.739  0.4224 -0.0975 -1.3327
  355MOL0     O47837   9.218   6.558   6.597 -0.2439  0.5309  0.0942
  355MOL0     C47838   9.250   6.876   6.761 -0.6454 -0.9502  0.1249
  355MOL0     C47839   9.271   7.014   6.742 -0.6496 -0.3526  0.0598
  355MOL0     N47840   9.543   7.798   6.839 -0.7159 -0.7591 -0.4161
  355MOL0     N47841   9.567   7.873   6.943  0.1964  0.3625  0.3777
  355MOL0     C47842   8.850   7.762   7.641 -0.2288 -0.3703 -0.7311
  355MOL0     C47843   8.774   7.649   7.607  0.2760 -0.7888  0.0488
  355MOL0     C47844   8.772   7.206   7.463 -0.3783 -0.0717 -0.7921
  355MOL0     C47845   8.825   7.174   7.340 -0.1373 -0.5470 -0.3288
  355MOL0     C47846   8.804   7.049   7.293 -0.0419 -0.2396  0.2516
  355MOL0     C47847   8.728   6.949   7.367  0.2222 -0.6900  0.3845
  355MOL0     O47848   8.716   6.824   7.337 -0.3670  0.5522  0.4270
  355MOL0     C47849   8.737   6.780   7.201  0.0599  0.4702  0.8273
  355MOL0     C47850   8.683   6.643   7.172 -0.6896  0.4071  1.2094
  355MOL0     C47851   8.538   6.640   7.201  0.6354  0.5010 -0.0917
  355MOL0     C47852   8.476   6.503   7.213  0.1654 -0.5890  0.2800
  355MOL0     C47853   8.525   6.435   7.332 -0.3011 -0.2104  0.2652
  355MOL0     C47854   8.548   6.396   7.444  0.1765 -0.8263  0.3048
  355MOL0     C47855   8.678   6.989   7.495  0.0452  0.4414  1.0299
  355MOL0     C47856   8.694   7.121   7.535  0.6304  0.1921 -0.0770
  355MOL0     C47857   8.642   7.164   7.670 -0.2256 -0.0023 -0.2064
  355MOL0     H47858   8.955   7.583   7.328  2.0109  0.2892  0.7640
  355MOL0     H47859   9.085   7.762   7.394 -1.5521  2.2374 -0.9084
  355MOL0     H47860   8.981   7.961   7.814  0.7518  2.8938  1.8389
  355MOL0     H47861   9.059   7.799   7.810  1.4587  1.1149  1.2762
  355MOL0     H47862   9.189   8.008   7.891  0.5507 -1.1504  0.4441
  355MOL0     H47863   9.208   8.049   7.721  3.5561  0.0665  0.5823
  355MOL0     H47864   9.287   7.768   7.767  2.0395 -0.5483  3.4269
  355MOL0     H47865   9.372   7.873   7.868  0.0504  2.3130  0.0525
  355MOL0     H47866   9.401   8.031   7.661 -1.9538  0.5840  0.5392
  355MOL0     H47867   9.518   7.898   7.696 -0.5533 -0.3742 -0.3689
  355MOL0     H47868   9.429   7.737   7.538  1.5067  1.1986 -2.4623
  355MOL0     H47869   9.280   7.833   7.527  1.0101 -3.7557 -1.9296
  355MOL0     H47870   9.389   7.984   7.384  2.7964  1.4085 -0.7154
  355MOL0     H47871   9.549   7.951   7.460  0.3696 -1.2993  0.0970
  355MOL0     H47872   9.381   7.765   7.276 -0.4493 -1.0697  1.7078
  355MOL0     H47873   9.545   7.722   7.330 -0.5977  0.3911  0.3077
  355MOL0     H47874   9.532   7.982   7.174  2.4632 -0.3434 -1.7620
  355MOL0     H47875   9.653   7.877   7.204  0.5205 -0.8490 -2.7276
  355MOL0     H47876   9.391   7.629   7.077 -0.8735  2.5822  1.5467
  355MOL0     H47877   9.318   7.541   6.836  2.4931 -4.9552 -0.1994
  355MOL0     H47878   9.351   7.639   6.712 -0.5554  1.3629  1.5313
  355MOL0     H47879   9.591   7.518   6.676  0.3338  1.8407  1.7799
  355MOL0     H47880   9.540   7.430   6.823 -2.7122 -0.0769 -0.5698
  355MOL0     H47881   9.475   7.389   6.531  0.7445 -1.0091 -0.2845
  355MOL0     H47882   9.328   7.453   6.599 -1.3355  2.9541  4.9876
  355MOL0     H47883   9.343   7.259   6.777  2.4138 -1.9012  1.5347
  355MOL0     H47884   9.487   7.207   6.686  1.5680  0.5101 -0.9927
  355MOL0     H47885   9.269   7.024   6.401  2.5025 -2.9661 -0.1816
  355MOL0     H47886   9.196   6.771   6.443  0.2326  0.8755 -0.3629
  355MOL0     H47887   9.117   6.525   7.058 -3.6964  0.4137  2.1103
  355MOL0     H47888   8.961   6.349   7.123  2.9542 -0.2002  0.2965
  355MOL0     H47889   8.629   6.288   6.804  1.4776 -0.8885 -1.0435
  355MOL0     H47890   8.709   6.139   6.775  0.3544 -1.6086  0.3712
  355MOL0     H47891   8.545   6.218   7.021 -0.9434  1.5119 -0.8049
  355MOL0     H47892   8.484   6.127   6.872 -1.1477 -2.8308  1.7416
  355MOL0     H47893   8.580   5.928   6.909 -0.4237 -4.2817  2.1749
  355MOL0     H47894   8.680   5.975   7.041 -1.2041 -0.9648  0.6311
  355MOL0     H47895   8.508   5.826   7.108 -0.2200 -0.1011 -1.6430
  355MOL0     H47896   8.384   5.939   7.040  0.4660  1.0961 -0.9804
  355MOL0     H47897   8.530   6.094   7.218  1.3849 -0.5841 -1.4897
  355MOL0     H47898   8.534   5.941   7.307  2.3397  2.6152 -1.6509
  355MOL0     H47899   8.370   6.094   7.376  1.4092 -0.4442 -0.3217
  355MOL0     H47900   8.284   6.088   7.213  0.5329  0.7540  0.6023
  355MOL0     H47901   8.340   5.890   7.435  1.5474  2.1602 -0.8795
  355MOL0     H47902   8.282   5.821   7.288  0.2893 -0.6217  0.6807
  355MOL0     H47903   8.115   5.847   7.444  0.0246  0.0855  2.0310
  355MOL0     H47904   8.149   6.026   7.466  3.0120 -0.1407  0.3706
  355MOL0     H47905   8.841   6.352   6.695 -3.5962 -0.9050  2.4278
  355MOL0     H47906   8.997   6.481   6.637 -3.1050 -2.5774 -1.8655
  355MOL0     H47907   9.251   6.839   6.863 -0.7929  1.9444  1.2976
  355MOL0     H47908   9.302   7.074   6.827  1.9582  2.1626 -2.4272
  355MOL0     H47909   8.806   7.834   7.710 -2.1576 -1.4071 -0.8320
  355MOL0     H47910   8.687   7.622   7.665 -1.0722  0.3335 -1.3429
  355MOL0     H47911   8.882   7.246   7.282  1.1723  0.4476  2.0627
  355MOL0     H47912   8.851   7.024   7.199  1.0567 -1.4531  1.0745
  355MOL0     H47913   8.843   6.765   7.177 -0.0305 -1.0817  1.2912
  355MOL0     H47914   8.700   6.852   7.128 -2.0349 -0.3959  0.9565
  355MOL0     H47915   8.739   6.562   7.220 -0.2789  0.6476  1.1418
  355MOL0     H47916   8.693   6.615   7.067 -0.3058  0.2358  1.2898
  355MOL0     H47917   8.490   6.696   7.120 -1.3726 -1.9193 -0.7122
  355MOL0     H47918   8.514   6.679   7.301  0.3076 -1.5803  0.7007
  355MOL0     H47919   8.367   6.503   7.224  0.3017 -2.3100  2.2032
  355MOL0     H47920   8.494   6.443   7.123 -0.7537 -1.5005  0.6836
  355MOL0     H47921   8.565   6.379   7.549  1.5826 -1.3446  0.0258
  355MOL0     H47922   8.646   6.902   7.550  0.9502 -3.8466 -4.3023
  355MOL0     H47923   8.606   7.080   7.729 -1.2821 -0.3593 -1.3234
  355MOL0     H47924   8.721   7.218   7.724 -0.6241  1.1144 -0.7090
  355MOL0     H47925   8.570   7.244   7.651 -0.0506  0.4026  0.7812
  356MOL0     O47926   9.761   4.797   4.703 -0.4797 -0.6386  1.0768
  356MOL0     C47927   9.775   4.839   4.816 -0.1369  0.3581 -0.1789
  356MOL0     O47928   9.686   4.926   4.870 -0.1899 -0.0059  0.4865
  356MOL0     C47929   9.587   4.995   4.800  0.4580  0.3131 -0.1442
  356MOL0     C47930   9.518   4.954   4.680  1.4190 -0.4957  1.3155
  356MOL0     C47931   9.409   5.034   4.636 -0.9239 -0.4828 -0.6041
  356MOL0     C47932   9.388   5.154   4.699  0.8949  0.2338 -0.1635
  356MOL0     O47933   9.301   5.245   4.633  0.4119 -0.3602 -0.6644
  356MOL0     C47934   9.201   5.316   4.712 -0.5536  0.5360 -0.2708
  356MOL0     C47935   9.092   5.380   4.626  0.1124 -0.2263  0.0531
  356MOL0     C47936   9.148   5.473   4.513 -0.4726 -0.1021 -0.0504
  356MOL0     C47937   9.049   5.490   4.409 -0.4086  0.0477  0.2949
  356MOL0     C47938   9.082   5.598   4.307  0.6774 -0.3919 -0.7187
  356MOL0     C47939   9.225   5.607   4.258 -0.4254 -0.0824  0.7643
  356MOL0     C47940   9.279   5.475   4.199  0.2957  0.6536  0.6689
  356MOL0     C47941   9.425   5.474   4.169 -0.0605 -0.6363  0.6473
  356MOL0     N47942   9.499   5.513   4.289 -0.3786 -0.3528 -0.2331
  356MOL0     C47943   9.509   5.445   4.415  0.2453 -0.6718  0.4802
  356MOL0     C47944   9.596   5.504   4.484 -0.3217 -0.2252 -0.0828
  356MOL0     C47945   9.662   5.452   4.614  0.3255 -0.2969  0.1427
  356MOL0     C47946   9.774   5.360   4.576 -0.4626  0.3503 -0.2190
  356MOL0     C47947   9.841   5.311   4.710 -0.3587  0.2457  0.1796
  356MOL0     C47948   9.977   5.263   4.683  1.2019  0.3219  0.4257
  356MOL0     O47949  10.056   5.225   4.794  0.1534  0.5239 -0.7849
  356MOL0     C47950  10.155   5.144   4.785  0.8961  0.8367 -0.0401
  356MOL0     C47951  10.197   5.082   4.900 -0.9339  0.1330  0.9311
  356MOL0     C47952  10.296   4.976   4.905  0.4486  0.0846 -0.5647
  356MOL0     C47953  10.357   4.936   4.791 -0.1209 -1.0925  0.2829
  356MOL0     C47954  10.452   4.821   4.795 -0.8731 -0.7338  0.3618
  356MOL0     O47955  10.522   4.813   4.911  0.6206 -0.2239  0.1545
  356MOL0     C47956  10.585   4.693   4.933 -0.1569 -0.6481 -0.5090
  356MOL0     C47957  10.720   4.673   4.900  1.0046 -0.1330  0.0445
  356MOL0     C47958  10.778   4.548   4.923 -0.1492  0.4653 -0.4514
  356MOL0     C47959  10.707   4.450   4.997 -0.4132 -0.0463 -0.1959
  356MOL0     O47960  10.781   4.338   5.025  0.0641  0.6783  0.0351
  356MOL0     C47961  10.725   4.235   5.106  0.3981 -0.3779  0.0594
  356MOL0     C47962  10.815   4.119   5.142 -1.2498 -0.1833  0.0466
  356MOL0     C47963  10.940   4.167   5.211  0.1633  0.3439  0.4772
  356MOL0     C47964  10.920   4.197   5.362  0.6971  0.4042 -0.0692
  356MOL0     C47965  11.061   4.220   5.435  0.9503  0.3335 -0.1320
  356MOL0     C47966  11.112   4.360   5.413  0.3829  0.6705  0.2260
  356MOL0     C47967  11.238   4.392   5.494  0.2469  1.2106  0.3707
  356MOL0     C47968  11.216   4.397   5.645 -0.2520 -0.3602 -0.0341
  356MOL0    Cl47969  11.378   4.433   5.733 -0.1351 -0.0729 -0.2163
  356MOL0     C47970  10.576   4.472   5.041  0.7163 -0.1475 -0.3323
  356MOL0     C47971  10.517   4.596   5.010 -0.5756 -0.1612  0.5307
  356MOL0     O47972  10.486   4.766   4.692 -0.4253  0.1764 -0.0830
  356MOL0     C47973  10.313   4.995   4.673  0.2649  1.0793  0.4290
  356MOL0     C47974  10.212   5.089   4.663 -0.3061  0.1011  0.1001
  356MOL0     N47975   9.651   5.606   4.408  0.3173 -0.2619 -0.1604
  356MOL0     N47976   9.596   5.606   4.291  0.8581 -0.2723 -0.1304
  356MOL0     C47977   9.454   5.188   4.818 -0.7170 -1.0677 -0.6350
  356MOL0     C47978   9.555   5.113   4.867  0.6312  0.6990  0.6027
  356MOL0     C47979   9.880   4.802   4.911  0.9921  0.8936 -0.1975
  356MOL0     C47980   9.874   4.842   5.050 -0.1994 -0.7216  0.0643
  356MOL0     C47981   9.981   4.808   5.130 -0.7321  0.2704  0.3137
  356MOL0     C47982  10.102   4.750   5.072 -0.5802 -0.5018  0.0914
  356MOL0     O47983  10.209   4.730   5.148 -0.3684 -0.1512 -1.3550
  356MOL0     C47984  10.218   4.807   5.279  0.0519 -0.1170  0.6522
  356MOL0     C47985  10.353   4.795   5.352 -0.4286  0.2944 -0.4898
  356MOL0     C47986  10.381   4.647   5.389 -0.0032 -0.0889 -0.1339
  356MOL0     C47987  10.473   4.622   5.507  0.2757 -0.3831  0.4931
  356MOL0     C47988  10.419   4.699   5.622  0.0134 -0.8576 -0.8713
  356MOL0     C47989  10.381   4.763   5.716  0.2403  0.5853 -0.4853
  356MOL0     C47990  10.123   4.728   4.940  0.4562  0.7722 -1.1652
  356MOL0     C47991  10.012   4.752   4.865 -0.1543 -0.1212  0.2323
  356MOL0     C47992  10.034   4.741   4.713 -0.5613  0.3360 -0.5179
  356MOL0     H47993   9.549   4.866   4.624  0.1533  0.2769 -0.7314
  356MOL0     H47994   9.372   5.007   4.537 -0.3835 -1.2748 -0.6029
  356MOL0     H47995   9.156   5.241   4.777 -2.6132 -0.9364 -3.1623
  356MOL0     H47996   9.241   5.400   4.770  2.1088 -1.7659  1.4271
  356MOL0     H47997   9.026   5.426   4.701 -0.5299 -1.9995  0.6133
  356MOL0     H47998   9.036   5.298   4.581  1.7334 -1.9504  1.0105
  356MOL0     H47999   9.239   5.427   4.475 -0.0324 -0.2274  1.1173
  356MOL0     H48000   9.183   5.566   4.560 -0.3010  1.7663 -3.5361
  356MOL0     H48001   9.044   5.391   4.363  3.4309  1.2348 -3.2347
  356MOL0     H48002   8.946   5.513   4.439 -1.5366 -1.5243 -2.0769
  356MOL0     H48003   9.013   5.591   4.223  4.0765 -0.3764 -3.7747
  356MOL0     H48004   9.045   5.687   4.360 -1.9009 -0.5428 -2.1273
  356MOL0     H48005   9.208   5.679   4.178 -4.2828 -1.6609 -0.0789
  356MOL0     H48006   9.283   5.646   4.342 -0.3988 -1.4158  1.3885
  356MOL0     H48007   9.231   5.449   4.103 -0.4600  0.9752  0.9492
  356MOL0     H48008   9.252   5.401   4.275 -1.1339  1.8553  1.3718
  356MOL0     H48009   9.464   5.384   4.122  2.6575  0.5940  0.3270
  356MOL0     H48010   9.450   5.559   4.104  1.2740 -0.7627  0.9700
  356MOL0     H48011   9.434   5.379   4.458 -1.9282  1.8764  0.9228
  356MOL0     H48012   9.699   5.533   4.677  2.2986 -0.8121 -0.2908
  356MOL0     H48013   9.590   5.391   4.670  3.0873 -1.1150  3.1395
  356MOL0     H48014   9.730   5.267   4.539 -2.9591 -0.1380  3.4617
  356MOL0     H48015   9.845   5.402   4.504  1.3207 -1.9083  0.0762
  356MOL0     H48016   9.782   5.230   4.755 -2.0833 -0.1735 -2.6303
  356MOL0     H48017   9.848   5.398   4.776 -0.2702  0.5870 -0.2797
  356MOL0     H48018  10.034   5.351   4.651  0.1699  1.1522  0.7974
  356MOL0     H48019   9.977   5.184   4.608  2.7434  2.4135 -1.9472
  356MOL0     H48020  10.152   5.118   4.992 -0.0526  1.2333  0.9559
  356MOL0     H48021  10.323   4.938   5.003 -1.2015 -0.9762 -0.4867
  356MOL0     H48022  10.772   4.759   4.859  2.8966 -0.6624  1.1987
  356MOL0     H48023  10.878   4.515   4.896 -1.5368 -3.5272 -1.5178
  356MOL0     H48024  10.694   4.276   5.203 -0.0789  2.2723 -1.1058
  356MOL0     H48025  10.638   4.201   5.049  1.4836 -0.7498 -1.4337
  356MOL0     H48026  10.761   4.037   5.191 -0.3894 -2.4671 -2.5870
  356MOL0     H48027  10.840   4.083   5.041 -3.5999  3.3344 -1.9971
  356MOL0     H48028  11.019   4.094   5.189  2.1116  3.0129 -2.1771
  356MOL0     H48029  10.979   4.255   5.160  0.3531  1.4296  2.3987
  356MOL0     H48030  10.861   4.120   5.413  0.5142  2.4963  3.1941
  356MOL0     H48031  10.863   4.289   5.377 -0.1944 -0.2785  0.8875
  356MOL0     H48032  11.135   4.146   5.401  1.4439  0.6141  0.3256
  356MOL0     H48033  11.043   4.225   5.542  0.2308  2.0171 -0.3008
  356MOL0     H48034  11.127   4.383   5.307  0.1068  0.4699  0.1438
  356MOL0     H48035  11.036   4.431   5.446 -1.8155 -2.5676  2.6614
  356MOL0     H48036  11.270   4.493   5.464 -1.0331  0.8952 -2.3685
  356MOL0     H48037  11.314   4.320   5.462 -1.3144  0.5314 -2.0829
  356MOL0     H48038  11.139   4.475   5.657  2.0396  1.8569  1.2395
  356MOL0     H48039  11.177   4.301   5.679 -0.4698  0.1508  1.2226
  356MOL0     H48040  10.519   4.410   5.109 -1.4309  2.0101 -0.0317
  356MOL0     H48041  10.415   4.625   5.033 -0.4891 -0.0411  0.7797
  356MOL0     H48042  10.342   4.978   4.570 -0.4128 -0.9215  0.5131
  356MOL0     H48043  10.171   5.130   4.571 -1.8186  1.4252  1.2997
  356MOL0     H48044   9.444   5.290   4.855 -0.0866 -1.1407 -0.2568
  356MOL0     H48045   9.606   5.122   4.963  1.8917 -3.1586  0.4901
  356MOL0     H48046   9.789   4.895   5.092 -0.5813 -0.2556 -1.2520
  356MOL0     H48047   9.969   4.834   5.235 -1.5127  0.1418  0.2660
  356MOL0     H48048  10.141   4.783   5.353 -1.1514 -0.2448 -0.6047
  356MOL0     H48049  10.207   4.913   5.253  1.1890 -0.1513 -0.0112
  356MOL0     H48050  10.332   4.863   5.435  0.2302  0.6619 -0.6086
  356MOL0     H48051  10.439   4.845   5.305  0.4772 -1.6519 -1.0161
  356MOL0     H48052  10.409   4.591   5.299 -1.6287 -0.3737 -0.4916
  356MOL0     H48053  10.284   4.616   5.427  0.0512  0.8543  0.8210
  356MOL0     H48054  10.477   4.514   5.527 -0.7730 -0.3056  1.2003
  356MOL0     H48055  10.573   4.663   5.495  0.0473 -0.3792 -1.6613
  356MOL0     H48056  10.348   4.812   5.806  1.5415 -1.6585  1.3211
  356MOL0     H48057  10.210   4.680   4.897  2.0989  0.8682  1.7848
  356MOL0     H48058  10.134   4.700   4.696  0.0923  0.5702  2.2306
  356MOL0     H48059   9.960   4.667   4.682 -2.9685  2.5167 -0.2959
  356MOL0     H48060  10.006   4.835   4.665 -3.2158 -0.6655 -1.1052
  357MOL0     O48061   6.303   6.921   8.576  0.2801  0.1957  0.0904
  357MOL0     C48062   6.329   6.843   8.669 -0.0617 -0.5185 -0.8611
  357MOL0     O48063   6.296   6.870   8.793 -0.1898  0.0364 -0.1832
  357MOL0     C48064   6.200   6.964   8.812 -0.6905 -0.3692 -0.2410
  357MOL0     C48065   6.077   6.959   8.741  0.1997 -0.8879 -0.3239
  357MOL0     C48066   5.990   7.075   8.753  0.3340  0.4788  0.7270
  357MOL0     C48067   6.019   7.186   8.823 -0.6416  0.5608 -0.0502
  357MOL0     O48068   5.939   7.294   8.844  0.7924  1.0985  0.3481
  357MOL0     C48069   5.814   7.317   8.781  0.2222  0.0578 -0.0166
  357MOL0     C48070   5.742   7.428   8.872 -0.1643  0.6891 -0.7801
  357MOL0     C48071   5.792   7.562   8.841 -0.4075  0.9497 -0.0231
  357MOL0     C48072   5.691   7.668   8.806  0.0889 -0.0514 -0.8284
  357MOL0     C48073   5.779   7.800   8.767 -0.5501  1.0357 -0.7123
  357MOL0     C48074   5.683   7.922   8.748  1.0051  0.7332 -0.4879
  357MOL0     C48075   5.592   7.906   8.626  0.7257  0.1717 -0.7488
  357MOL0     C48076   5.572   8.040   8.572 -0.2242  0.1199  0.2425
  357MOL0     N48077   5.490   8.047   8.451 -0.1694  0.3672  0.2900
  357MOL0     C48078   5.361   8.020   8.454  1.4812  0.6015 -0.1253
  357MOL0     C48079   5.331   8.020   8.317 -0.9925  0.9073 -0.2155
  357MOL0     C48080   5.192   8.032   8.237  1.1184  0.3472 -0.3067
  357MOL0     C48081   5.164   8.175   8.207  0.6259  0.3011  0.4211
  357MOL0     C48082   5.041   8.184   8.112 -0.0171  0.2281  0.6353
  357MOL0     C48083   4.997   8.331   8.087  0.6199 -0.0897  0.0953
  357MOL0     O48084   4.959   8.400   8.204  0.4057 -0.2700 -0.7578
  357MOL0     C48085   4.845   8.357   8.285 -0.8319  0.4459 -0.2849
  357MOL0     C48086   4.737   8.285   8.228 -0.7720  0.8038 -0.4693
  357MOL0     C48087   4.636   8.250   8.324 -0.2959 -0.9426  0.0222
  357MOL0     C48088   4.642   8.271   8.462 -0.8712 -0.7848 -0.3478
  357MOL0     C48089   4.540   8.210   8.546 -0.7044  0.3463 -0.3407
  357MOL0     O48090   4.404   8.214   8.499 -0.3555  0.4329 -0.1144
  357MOL0     C48091   4.300   8.165   8.577 -0.3015  0.1481  0.4144
  357MOL0     C48092   4.180   8.235   8.577 -0.3298 -0.0651 -0.0265
  357MOL0     C48093   4.076   8.203   8.662 -0.3171 -0.3554  0.2610
  357MOL0     C48094   4.092   8.084   8.743 -0.5314 -0.6083  0.7135
  357MOL0     O48095   4.007   8.046   8.842 -0.2183 -0.3343 -0.0831
  357MOL0     C48096   3.907   7.954   8.794 -1.2495  0.0863 -0.3693
  357MOL0     C48097   3.795   7.976   8.880 -0.1861 -0.5525  0.2972
  357MOL0     C48098   3.702   8.087   8.826 -0.0915 -0.9091 -0.2293
  357MOL0     C48099   3.553   8.076   8.879  0.1361  0.4948  0.6777
  357MOL0     C48100   3.450   8.187   8.833  0.6732  0.4674  0.3440
  357MOL0     C48101   3.312   8.148   8.883 -0.5503 -0.1949  0.5582
  357MOL0     C48102   3.202   8.223   8.815 -0.4446  0.0424 -0.1167
  357MOL0     C48103   3.208   8.375   8.793 -1.4641  0.5642 -0.2932
  357MOL0    Cl48104   3.052   8.417   8.717 -0.3055 -0.4090 -0.2604
  357MOL0     C48105   4.208   8.005   8.727 -0.9973  0.3842  0.4099
  357MOL0     C48106   4.310   8.041   8.652 -1.1777  0.4163 -0.1160
  357MOL0     O48107   4.589   8.150   8.640 -0.0716  0.0363  0.5948
  357MOL0     C48108   4.753   8.349   8.515  0.5249  0.4313 -0.2759
  357MOL0     C48109   4.847   8.389   8.427 -1.1577 -0.2601  0.1050
  357MOL0     N48110   5.451   8.010   8.245  0.8375 -0.0007  0.6495
  357MOL0     N48111   5.541   8.033   8.330  0.0539  0.1317  0.4749
  357MOL0     C48112   6.144   7.188   8.882 -1.0130 -0.2555 -0.4975
  357MOL0     C48113   6.233   7.078   8.884 -0.4246 -0.1015 -0.1081
  357MOL0     C48114   6.402   6.716   8.643  0.3504  0.6159  0.5623
  357MOL0     C48115   6.383   6.622   8.744  0.5677  1.0896  0.1254
  357MOL0     C48116   6.441   6.493   8.729  1.0761 -0.3441  0.0607
  357MOL0     C48117   6.518   6.473   8.620 -0.4732 -0.2587 -0.8744
  357MOL0     O48118   6.595   6.368   8.590  0.1859  0.2818 -0.3514
  357MOL0     C48119   6.594   6.255   8.679  0.0405  0.6518 -0.0636
  357MOL0     C48120   6.695   6.146   8.620  0.3239  0.0551 -0.2490
  357MOL0     C48121   6.644   6.126   8.472 -0.1594 -0.0193 -0.7544
  357MOL0     C48122   6.733   6.045   8.371  0.0936  0.0133  0.0857
  357MOL0     C48123   6.734   5.897   8.402  0.3209 -0.2675  0.0727
  357MOL0     C48124   6.729   5.790   8.447 -1.1982  0.0530 -0.3595
  357MOL0     C48125   6.532   6.562   8.522 -0.1126 -0.2307 -0.7999
  357MOL0     C48126   6.466   6.677   8.520 -0.3710  0.3740  0.3260
  357MOL0     C48127   6.479   6.766   8.407  0.5557 -0.3973  0.4546
  357MOL0     H48128   6.053   6.882   8.669 -2.4002  1.3536 -2.0468
  357MOL0     H48129   5.904   7.062   8.688  1.5987 -2.6987 -0.5054
  357MOL0     H48130   5.819   7.348   8.676 -0.7500 -1.8925 -0.6947
  357MOL0     H48131   5.751   7.229   8.789 -1.2343  1.2205  3.3554
  357MOL0     H48132   5.750   7.407   8.979 -0.2226 -2.0353 -1.2365
  357MOL0     H48133   5.638   7.421   8.840  0.6481 -0.6567 -3.4816
  357MOL0     H48134   5.869   7.555   8.764 -0.8341 -0.6778 -0.3406
  357MOL0     H48135   5.865   7.596   8.915  0.5468 -1.2868  0.1286
  357MOL0     H48136   5.608   7.629   8.745  0.2415 -0.1371 -0.9813
  357MOL0     H48137   5.644   7.689   8.903  1.2436 -1.1486  0.0013
  357MOL0     H48138   5.844   7.830   8.849  1.0550 -0.2715 -1.4493
  357MOL0     H48139   5.847   7.801   8.681 -0.2590  1.4188 -0.4807
  357MOL0     H48140   5.631   7.939   8.843 -2.7334  0.5747 -2.3194
  357MOL0     H48141   5.747   8.007   8.724 -1.2980  2.1683 -1.9259
  357MOL0     H48142   5.495   7.872   8.661  1.7986 -0.0830  2.2843
  357MOL0     H48143   5.637   7.839   8.551  3.1601 -1.6402  2.1266
  357MOL0     H48144   5.521   8.104   8.645  3.2057  3.6136 -0.0516
  357MOL0     H48145   5.672   8.084   8.572 -0.0640 -0.2435 -0.0001
  357MOL0     H48146   5.292   8.017   8.537  3.3111  0.0181  1.4513
  357MOL0     H48147   5.191   7.965   8.151 -1.0863 -1.6726  1.1744
  357MOL0     H48148   5.112   7.985   8.294  1.4241 -1.5398 -1.3623
  357MOL0     H48149   5.153   8.230   8.300 -2.1203  0.3228  0.1605
  357MOL0     H48150   5.251   8.216   8.155  0.5626  3.2179  2.4031
  357MOL0     H48151   4.966   8.111   8.145 -2.7855  2.3923 -0.4108
  357MOL0     H48152   5.065   8.147   8.012 -3.0724  1.0715 -0.5412
  357MOL0     H48153   4.907   8.340   8.024  0.9643  1.9890 -0.1737
  357MOL0     H48154   5.079   8.381   8.034  0.8135 -3.0904 -2.7758
  357MOL0     H48155   4.738   8.267   8.121  4.1688  1.0365 -0.6696
  357MOL0     H48156   4.558   8.200   8.267  1.0595 -1.1566 -1.7439
  357MOL0     H48157   4.182   8.317   8.506  2.5835  1.0149  1.1451
  357MOL0     H48158   3.993   8.272   8.673  0.0219  0.1783 -0.4343
  357MOL0     H48159   3.894   7.962   8.686  0.5897 -1.4279 -0.7478
  357MOL0     H48160   3.946   7.855   8.816  2.5653  1.2011 -1.4530
  357MOL0     H48161   3.743   7.880   8.885  2.7141 -2.3336 -0.9819
  357MOL0     H48162   3.820   8.008   8.981 -1.5581  4.0348 -0.5771
  357MOL0     H48163   3.753   8.181   8.852  1.4257 -1.5606 -0.7367
  357MOL0     H48164   3.699   8.082   8.716 -1.4286 -5.9518 -0.2114
  357MOL0     H48165   3.558   8.078   8.989  1.6096  0.7597  0.6305
  357MOL0     H48166   3.508   7.980   8.851 -2.5337  1.7394  0.3770
  357MOL0     H48167   3.447   8.164   8.726  2.3946 -2.4474  0.8268
  357MOL0     H48168   3.479   8.292   8.849 -0.9231  1.1563 -0.9058
  357MOL0     H48169   3.310   8.038   8.878 -0.8275 -0.1516 -0.4275
  357MOL0     H48170   3.300   8.169   8.990 -0.4819 -1.3148  0.8018
  357MOL0     H48171   3.111   8.200   8.872  0.0374  0.1781  0.7212
  357MOL0     H48172   3.191   8.178   8.716  0.9252  0.4298 -0.4675
  357MOL0     H48173   3.216   8.425   8.890  1.1447  0.6218 -0.4533
  357MOL0     H48174   3.288   8.405   8.725 -0.7239 -0.5678  0.0494
  357MOL0     H48175   4.226   7.920   8.792  3.9646  0.8823  0.0178
  357MOL0     H48176   4.399   7.979   8.645 -0.7643  0.9451  0.3259
  357MOL0     H48177   4.754   8.383   8.618  0.8182  1.1609 -0.5064
  357MOL0     H48178   4.935   8.446   8.456  0.0566  0.2924 -3.9905
  357MOL0     H48179   6.182   7.285   8.914 -0.9744  0.1097 -1.6177
  357MOL0     H48180   6.325   7.085   8.942 -0.5463  0.7301 -0.0029
  357MOL0     H48181   6.327   6.647   8.833 -1.6229  0.4700 -1.0172
  357MOL0     H48182   6.430   6.430   8.817 -2.5742 -0.1309 -0.0618
  357MOL0     H48183   6.494   6.211   8.681  1.2356 -2.2647  0.0842
  357MOL0     H48184   6.624   6.287   8.779 -1.1194 -2.6793  1.5002
  357MOL0     H48185   6.701   6.051   8.674 -0.2990 -0.4728 -1.0814
  357MOL0     H48186   6.799   6.179   8.627  1.5986 -3.7969  1.6334
  357MOL0     H48187   6.640   6.226   8.428  2.7567  1.5262  2.0077
  357MOL0     H48188   6.546   6.080   8.479 -0.8769  1.6873  3.1385
  357MOL0     H48189   6.700   6.067   8.269 -0.4673  1.6820  0.5823
  357MOL0     H48190   6.829   6.093   8.395 -0.8531  1.8339  0.4727
  357MOL0     H48191   6.732   5.685   8.472 -1.2389 -0.5442 -2.6151
  357MOL0     H48192   6.574   6.532   8.427  2.5909 -0.0543  0.2664
  357MOL0     H48193   6.533   6.708   8.330 -3.3371 -0.1174 -2.8424
  357MOL0     H48194   6.380   6.790   8.368  0.1003  1.3124  2.4834
  357MOL0     H48195   6.533   6.856   8.436 -0.6916  0.5693 -0.1405
  358MOL0     O48196   9.479  11.105   6.881 -0.0910 -0.8834  0.0548
  358MOL0     C48197   9.435  11.024   6.801 -0.3129 -0.1866 -0.4954
  358MOL0     O48198   9.508  10.933   6.724 -0.2532 -0.6608 -0.3261
  358MOL0     C48199   9.644  10.960   6.728 -0.2099  0.6902  0.3063
  358MOL0     C48200   9.719  11.038   6.635  0.1473 -0.9118  0.2797
  358MOL0     C48201   9.859  11.069   6.650 -0.7315 -0.2725  0.2850
  358MOL0     C48202   9.928  11.011   6.768  0.2729 -0.6486  1.2873
  358MOL0     O48203  10.063  11.042   6.802  0.0507  0.7735  0.0177
  358MOL0     C48204  10.112  11.172   6.756  0.5225 -0.2175 -1.0146
  358MOL0     C48205  10.205  11.150   6.638  0.6073 -0.5383  0.3809
  358MOL0     C48206  10.230  11.295   6.584 -0.2223  0.2236  0.4044
  358MOL0     C48207  10.316  11.296   6.455 -0.4603  0.9456 -1.2179
  358MOL0     C48208  10.373  11.434   6.447  0.6935  0.1843  1.2810
  358MOL0     C48209  10.448  11.442   6.311 -0.0330 -1.0587  0.0942
  358MOL0     C48210  10.526  11.572   6.311  0.4712 -0.1896  0.4183
  358MOL0     C48211  10.657  11.556   6.393 -0.4216 -0.4267  0.0074
  358MOL0     N48212  10.753  11.455   6.347  0.1592 -0.2427  1.2659
  358MOL0     C48213  10.822  11.370   6.426  1.1446 -0.2887  0.5637
  358MOL0     C48214  10.882  11.278   6.348  0.2411 -0.2917 -0.7034
  358MOL0     C48215  10.947  11.151   6.410  0.4702  0.0485 -0.7580
  358MOL0     C48216  11.105  11.165   6.406  0.7102  0.1906  0.0018
  358MOL0     C48217  11.171  11.026   6.439  0.0809 -0.7631 -0.1346
  358MOL0     C48218  11.321  11.024   6.443 -0.2920 -0.3934 -0.5404
  358MOL0     O48219  11.344  10.921   6.531 -0.4436  0.9601 -0.2230
  358MOL0     C48220  11.428  10.815   6.499  0.8515  0.0799  0.4022
  358MOL0     C48221  11.382  10.729   6.405  0.9307 -0.5460 -0.4088
  358MOL0     C48222  11.457  10.619   6.367  0.0682  0.3450 -0.3372
  358MOL0     C48223  11.581  10.600   6.426 -0.4587  0.3965 -0.0750
  358MOL0     C48224  11.666  10.491   6.382  0.4562  0.8765  0.2187
  358MOL0     O48225  11.632  10.402   6.277  0.8204 -0.6915  0.1081
  358MOL0     C48226  11.712  10.315   6.205 -0.5526  0.7417 -1.0136
  358MOL0     C48227  11.722  10.179   6.239  2.1342 -0.1948  0.1537
  358MOL0     C48228  11.793  10.096   6.155 -0.5094  0.0612  0.0176
  358MOL0     C48229  11.842  10.147   6.032  0.2800  0.6580  0.4769
  358MOL0     O48230  11.904  10.066   5.949 -0.1199 -0.6618 -0.4624
  358MOL0     C48231  11.825   9.951   5.905 -0.4091 -0.8242 -0.3816
  358MOL0     C48232  11.904   9.877   5.795  0.9656  0.4203 -0.1848
  358MOL0     C48233  11.874   9.730   5.794  0.4506  0.1252  0.2367
  358MOL0     C48234  11.999   9.648   5.738  1.2478  0.3484 -0.6045
  358MOL0     C48235  11.962   9.500   5.747 -1.1156  0.8858 -0.2168
  358MOL0     C48236  12.066   9.419   5.664  0.0888  0.2582  0.7188
  358MOL0     C48237  12.023   9.268   5.661 -0.1070  0.8127 -0.0341
  358MOL0     C48238  12.131   9.190   5.740 -0.7989  0.0550 -0.6372
  358MOL0    Cl48239  12.295   9.203   5.665  0.4367  0.1861  0.2172
  358MOL0     C48240  11.830  10.281   5.998  1.7080 -0.2125 -0.5385
  358MOL0     C48241  11.767  10.363   6.090 -0.4241 -0.9597 -0.2691
  358MOL0     O48242  11.779  10.488   6.435  0.2841 -0.5598  1.3120
  358MOL0     C48243  11.623  10.691   6.524 -0.3308  0.6765  0.4153
  358MOL0     C48244  11.539  10.790   6.571  0.1944  0.5431  0.3507
  358MOL0     N48245  10.854  11.306   6.216  0.3595 -0.7215  0.6800
  358MOL0     N48246  10.784  11.414   6.222  0.3333  0.2529  0.1908
  358MOL0     C48247   9.857  10.937   6.857 -0.6871  0.9299 -0.0024
  358MOL0     C48248   9.722  10.905   6.832  0.2106  0.8099 -0.8266
  358MOL0     C48249   9.298  11.029   6.756 -0.4603 -0.0499  0.4504
  358MOL0     C48250   9.243  11.151   6.721  0.1587 -0.1335 -0.4201
  358MOL0     C48251   9.121  11.153   6.651  0.7383  0.5454 -1.0341
  358MOL0     C48252   9.041  11.034   6.639 -0.5625 -0.4402  0.0699
  358MOL0     O48253   8.914  11.023   6.580 -0.3298 -0.7137  0.7400
  358MOL0     C48254   8.871  11.126   6.494  0.4551  0.0766 -0.3898
  358MOL0     C48255   8.803  11.227   6.568  0.3324 -0.5567  0.1929
  358MOL0     C48256   8.768  11.338   6.476  0.0535  0.4614  0.1005
  358MOL0     C48257   8.714  11.460   6.552 -0.2989 -0.4247  0.3970
  358MOL0     C48258   8.712  11.587   6.485  0.6357 -0.5553  0.4162
  358MOL0     C48259   8.696  11.692   6.425 -0.4728 -0.1048  0.3299
  358MOL0     C48260   9.090  10.913   6.686 -0.6501  0.0223 -0.4310
  358MOL0     C48261   9.216  10.906   6.747  0.0100 -0.2746 -0.3057
  358MOL0     C48262   9.257  10.783   6.812 -0.1640 -1.1148  0.4153
  358MOL0     H48263   9.670  11.103   6.564 -0.0084 -0.1330  1.0830
  358MOL0     H48264   9.915  11.131   6.581  1.9345 -0.3509  2.2392
  358MOL0     H48265  10.031  11.235   6.719 -0.2783 -0.7043 -0.1379
  358MOL0     H48266  10.158  11.218   6.844 -1.7576 -0.3211  0.3168
  358MOL0     H48267  10.167  11.085   6.558 -1.1790 -0.5642  1.1900
  358MOL0     H48268  10.294  11.097   6.671  0.2860 -3.1135 -2.4476
  358MOL0     H48269  10.284  11.352   6.660 -0.8897  1.0317  0.2935
  358MOL0     H48270  10.136  11.348   6.568  0.4832  1.2151 -0.5846
  358MOL0     H48271  10.391  11.216   6.461 -1.2807  0.0994 -2.0267
  358MOL0     H48272  10.259  11.270   6.366 -2.0580  0.4059 -0.0726
  358MOL0     H48273  10.288  11.498   6.425 -0.3521 -2.1490 -2.4046
  358MOL0     H48274  10.441  11.464   6.527  0.2113 -1.4085  2.3216
  358MOL0     H48275  10.511  11.355   6.292 -0.8066 -1.8036  0.8505
  358MOL0     H48276  10.383  11.453   6.224  2.6519 -0.8144 -2.0296
  358MOL0     H48277  10.465  11.656   6.346 -1.6171  0.2302 -3.5835
  358MOL0     H48278  10.550  11.587   6.206  4.1148 -1.7459  0.8945
  358MOL0     H48279  10.708  11.652   6.384  0.6143 -1.1843 -4.8830
  358MOL0     H48280  10.639  11.533   6.498  0.9084 -1.9448 -0.0643
  358MOL0     H48281  10.829  11.365   6.534 -0.5766 -0.0961  0.7060
  358MOL0     H48282  10.905  11.144   6.511  0.6846  0.1595 -0.6612
  358MOL0     H48283  10.903  11.066   6.358 -2.2127 -1.1467  2.9977
  358MOL0     H48284  11.129  11.201   6.305 -1.6028 -0.8718 -0.9956
  358MOL0     H48285  11.144  11.245   6.470  0.3929 -0.0587  0.5175
  358MOL0     H48286  11.133  10.955   6.366 -0.6705  0.1924 -0.6965
  358MOL0     H48287  11.145  10.997   6.541  0.9206 -0.2201  0.2429
  358MOL0     H48288  11.366  11.121   6.465 -0.5293  0.2326 -2.5954
  358MOL0     H48289  11.355  11.004   6.340  0.2089 -0.4781 -0.3602
  358MOL0     H48290  11.282  10.741   6.366 -0.1438 -1.7695  1.7558
  358MOL0     H48291  11.425  10.545   6.295 -2.1876 -1.2420  2.0996
  358MOL0     H48292  11.677  10.150   6.333 -2.1586 -0.7560 -1.8110
  358MOL0     H48293  11.799   9.994   6.193  3.5935  0.7997  1.9417
  358MOL0     H48294  11.810   9.884   5.990  0.1220 -1.3948 -0.7298
  358MOL0     H48295  11.725   9.988   5.882 -0.4776  2.3067  3.7226
  358MOL0     H48296  11.868   9.920   5.701 -3.0964 -1.9683  0.0356
  358MOL0     H48297  12.011   9.897   5.807  0.9126  1.4629 -1.3106
  358MOL0     H48298  11.855   9.698   5.898  1.2887  1.2084  0.7359
  358MOL0     H48299  11.787   9.706   5.733 -1.1615  2.4381  1.4839
  358MOL0     H48300  12.078   9.666   5.812  0.4341 -0.8052  0.6048
  358MOL0     H48301  12.020   9.693   5.641 -1.8940  1.4463 -0.8740
  358MOL0     H48302  11.871   9.493   5.687  1.4733 -0.9885 -4.3457
  358MOL0     H48303  11.952   9.459   5.848 -0.7980 -0.7372 -0.8265
  358MOL0     H48304  12.066   9.452   5.560 -0.6979  2.8695  1.4936
  358MOL0     H48305  12.166   9.423   5.707 -0.3170 -2.6723  2.2280
  358MOL0     H48306  12.040   9.235   5.558  0.2206  0.8145  0.0190
  358MOL0     H48307  11.919   9.236   5.673  0.1073 -0.0547 -0.4024
  358MOL0     H48308  12.134   9.235   5.839 -0.7549  0.2923 -0.7440
  358MOL0     H48309  12.115   9.083   5.756  2.6378 -0.7382 -1.6013
  358MOL0     H48310  11.858  10.333   5.907 -1.7686  1.6494 -0.7009
  358MOL0     H48311  11.749  10.466   6.062  2.6530 -0.1060  0.4654
  358MOL0     H48312  11.727  10.679   6.551 -0.6148 -2.8037  0.4642
  358MOL0     H48313  11.578  10.863   6.641  2.2245  1.3065 -1.4488
  358MOL0     H48314   9.920  10.901   6.938 -0.4621  2.5669  0.6036
  358MOL0     H48315   9.673  10.838   6.902 -1.1497  1.7555 -0.8315
  358MOL0     H48316   9.302  11.242   6.724 -1.7115  1.2808 -2.6492
  358MOL0     H48317   9.085  11.252   6.626  2.6288  2.1570  2.0025
  358MOL0     H48318   8.806  11.086   6.416  0.9721  0.2830 -0.9392
  358MOL0     H48319   8.948  11.159   6.424 -1.3730 -0.5935 -2.8816
  358MOL0     H48320   8.873  11.265   6.644  0.2006 -1.0595  0.5678
  358MOL0     H48321   8.721  11.179   6.623 -1.4227 -0.2558 -2.0092
  358MOL0     H48322   8.699  11.289   6.407 -1.2955  0.6446  1.2587
  358MOL0     H48323   8.860  11.365   6.424 -1.3540  2.1724 -1.6515
  358MOL0     H48324   8.622  11.431   6.603 -0.8678  1.3665  0.4634
  358MOL0     H48325   8.789  11.467   6.631  2.3592 -0.0928 -1.9772
  358MOL0     H48326   8.677  11.788   6.381  1.3187  0.0578 -0.1754
  358MOL0     H48327   9.030  10.822   6.678  2.3356 -2.3156  1.7082
  358MOL0     H48328   9.350  10.800   6.867  0.6778 -1.7807 -0.7663
  358MOL0     H48329   9.177  10.747   6.879 -2.8782  2.4604 -0.6376
  358MOL0     H48330   9.287  10.703   6.743  1.2713 -1.0221  0.9033
  359MOL0     O48331   4.591   2.802   0.634  0.6188 -0.5053  0.0241
  359MOL0     C48332   4.666   2.894   0.661  1.1287  1.2329  1.0818
  359MOL0     O48333   4.624   3.001   0.716 -0.0400 -0.0598 -0.1917
  359MOL0     C48334   4.494   3.016   0.751 -0.4408  0.7494 -0.4877
  359MOL0     C48335   4.396   3.034   0.656  0.7068  0.3286 -0.0074
  359MOL0     C48336   4.266   3.063   0.694 -0.1052 -0.2230 -0.3869
  359MOL0     C48337   4.235   3.090   0.822  0.1107 -0.5407 -0.4499
  359MOL0     O48338   4.099   3.109   0.839  0.2771  0.0059 -0.1213
  359MOL0     C48339   4.052   3.028   0.952  0.7945  0.3841  0.0764
  359MOL0     C48340   3.908   3.063   0.990 -0.5077 -0.3905  0.6670
  359MOL0     C48341   3.845   2.933   1.033 -0.8797  0.3733  0.7339
  359MOL0     C48342   3.703   2.948   1.068 -0.7684  0.9248  0.6474
  359MOL0     C48343   3.648   2.804   1.068 -1.0506  0.3566 -0.5072
  359MOL0     C48344   3.513   2.792   1.126 -0.2091  0.1441  0.3691
  359MOL0     C48345   3.513   2.796   1.286  0.0466  0.0752  0.3348
  359MOL0     C48346   3.369   2.771   1.338 -0.2718 -0.0482  0.2799
  359MOL0     N48347   3.330   2.626   1.322 -0.7470  0.3727  0.2540
  359MOL0     C48348   3.223   2.583   1.247  0.6495 -0.8209 -0.1073
  359MOL0     C48349   3.213   2.451   1.248 -0.3387 -0.3405 -0.1098
  359MOL0     C48350   3.124   2.368   1.162  0.9991 -0.2260  0.2142
  359MOL0     C48351   2.980   2.351   1.214  0.6754  0.1695  0.7043
  359MOL0     C48352   2.902   2.470   1.278 -0.8261  0.1112 -0.2411
  359MOL0     C48353   2.757   2.430   1.314  0.0478 -1.1074  0.5425
  359MOL0     O48354   2.681   2.412   1.202 -0.4082  0.0771 -1.1096
  359MOL0     C48355   2.551   2.367   1.230 -0.5933 -0.9808  0.9114
  359MOL0     C48356   2.517   2.297   1.344 -0.2289  0.3683 -1.0806
  359MOL0     C48357   2.391   2.257   1.366  0.9449  0.3029  0.2324
  359MOL0     C48358   2.289   2.265   1.260  0.2014  0.3913  0.3792
  359MOL0     C48359   2.147   2.216   1.271  1.6963  1.0574 -0.4611
  359MOL0     O48360   2.073   2.199   1.141  0.0580 -0.7336 -0.9826
  359MOL0     C48361   1.943   2.161   1.160 -0.1443  0.1098  0.2529
  359MOL0     C48362   1.830   2.240   1.133 -0.0710 -0.2895  0.4727
  359MOL0     C48363   1.697   2.195   1.140  0.3117  0.4283  0.3409
  359MOL0     C48364   1.674   2.059   1.168 -0.9906 -0.0350  0.2785
  359MOL0     O48365   1.539   2.024   1.178  0.0454 -0.4297  0.1313
  359MOL0     C48366   1.496   1.894   1.228  0.0267  0.9717 -0.5551
  359MOL0     C48367   1.352   1.885   1.199 -0.1023  0.1693 -0.2544
  359MOL0     C48368   1.325   1.856   1.052 -0.5560  0.1872  1.0008
  359MOL0     C48369   1.338   1.714   0.998  0.1248 -0.0537 -0.1126
  359MOL0     C48370   1.300   1.697   0.852 -0.0579  1.0696  0.2369
  359MOL0     C48371   1.300   1.549   0.802 -0.1395 -0.4467  0.2757
  359MOL0     C48372   1.268   1.540   0.652 -0.4584 -0.2271  0.6881
  359MOL0     C48373   1.148   1.622   0.599  0.0738  0.3968  1.1819
  359MOL0    Cl48374   1.003   1.531   0.656 -0.0205 -0.2012 -0.2127
  359MOL0     C48375   1.787   1.974   1.179  0.7034 -0.5249  0.4452
  359MOL0     C48376   1.915   2.023   1.182 -0.2124  0.1858  0.2232
  359MOL0     O48377   2.106   2.180   1.382  0.1947  0.8781 -0.3256
  359MOL0     C48378   2.324   2.330   1.141  0.6878  0.1969  0.0132
  359MOL0     C48379   2.456   2.385   1.123  0.9482  0.2809 -0.7775
  359MOL0     N48380   3.318   2.409   1.329  0.2123 -0.7656  0.3117
  359MOL0     N48381   3.400   2.514   1.358 -0.4220 -0.2943 -0.1352
  359MOL0     C48382   4.334   3.088   0.921  0.0043 -0.5535 -1.6249
  359MOL0     C48383   4.467   3.046   0.889 -0.1129  0.6218 -0.3527
  359MOL0     C48384   4.815   2.886   0.639  0.8961 -0.4349  1.1608
  359MOL0     C48385   4.892   2.940   0.739  0.2980  0.2521  0.1967
  359MOL0     C48386   5.037   2.938   0.728 -0.1422  0.9063  0.2063
  359MOL0     C48387   5.108   2.898   0.608 -0.0559 -0.1271 -0.6098
  359MOL0     O48388   5.246   2.898   0.585  0.3759  0.4241 -0.5594
  359MOL0     C48389   5.324   2.946   0.698 -0.5282 -0.0451  0.1789
  359MOL0     C48390   5.476   2.917   0.676  0.4196 -0.0069  0.7895
  359MOL0     C48391   5.516   2.773   0.705 -0.2098 -0.4985 -1.4545
  359MOL0     C48392   5.669   2.758   0.689 -1.2111  0.4821 -0.6869
  359MOL0     C48393   5.759   2.858   0.762 -0.1696 -0.1176 -0.1162
  359MOL0     C48394   5.816   2.940   0.821  0.5815 -0.4984  0.1692
  359MOL0     C48395   5.019   2.858   0.506 -0.2141  0.0694  0.0072
  359MOL0     C48396   4.881   2.838   0.517  0.9088 -0.0304 -0.2170
  359MOL0     C48397   4.810   2.769   0.401 -0.5115  0.1948 -0.1111
  359MOL0     H48398   4.436   3.043   0.555  1.7870  0.7694  0.4509
  359MOL0     H48399   4.181   3.072   0.628 -1.1310 -0.4358  0.8698
  359MOL0     H48400   4.067   2.921   0.935 -2.5642 -0.1935  0.0171
  359MOL0     H48401   4.098   3.050   1.049 -0.8073  1.3850  0.6477
  359MOL0     H48402   3.862   3.107   0.901  1.2623 -0.9521 -0.5615
  359MOL0     H48403   3.897   3.137   1.071 -0.3396 -0.3020  0.6083
  359MOL0     H48404   3.901   2.903   1.122  3.1430  0.3020 -1.5808
  359MOL0     H48405   3.860   2.852   0.961 -2.7011  1.5952 -1.1382
  359MOL0     H48406   3.682   2.990   1.166 -0.4360  1.4024  0.5121
  359MOL0     H48407   3.656   3.011   0.992  0.1079  0.5723 -0.2091
  359MOL0     H48408   3.659   2.789   0.960  0.6551  4.9989 -1.2091
  359MOL0     H48409   3.717   2.729   1.109 -0.0869  0.7791 -1.3241
  359MOL0     H48410   3.459   2.878   1.085 -2.3218 -1.4342 -0.3508
  359MOL0     H48411   3.471   2.697   1.089 -2.3473  0.8086  0.9349
  359MOL0     H48412   3.547   2.891   1.327 -2.7698  1.2088  0.3057
  359MOL0     H48413   3.571   2.712   1.326  1.0894  0.4187 -0.4212
  359MOL0     H48414   3.365   2.792   1.445 -0.8882  2.5856 -0.2083
  359MOL0     H48415   3.295   2.832   1.286 -0.9068 -1.1679 -0.1902
  359MOL0     H48416   3.156   2.649   1.193  1.7162 -1.2521 -2.0137
  359MOL0     H48417   3.126   2.427   1.070 -0.0442 -1.8119 -0.8943
  359MOL0     H48418   3.168   2.268   1.152  1.1204 -0.3335  1.5735
  359MOL0     H48419   2.924   2.309   1.130 -0.2859 -0.0503  1.4440
  359MOL0     H48420   2.987   2.272   1.289 -0.1473 -0.3267  0.2734
  359MOL0     H48421   2.921   2.556   1.213 -1.5470 -1.7424 -3.0941
  359MOL0     H48422   2.945   2.497   1.375 -2.6186 -1.8914  1.2101
  359MOL0     H48423   2.711   2.500   1.384  1.4140 -1.0464  1.4080
  359MOL0     H48424   2.760   2.334   1.366 -1.0280 -0.7924  1.2186
  359MOL0     H48425   2.583   2.270   1.426 -0.3090 -1.9618 -1.6930
  359MOL0     H48426   2.366   2.196   1.452 -2.0711 -0.2386 -0.9319
  359MOL0     H48427   1.861   2.337   1.095  1.5142 -1.1020 -0.3977
  359MOL0     H48428   1.614   2.261   1.117  0.2403  1.4807  3.2371
  359MOL0     H48429   1.546   1.813   1.174  1.2112 -0.4615  2.4369
  359MOL0     H48430   1.527   1.894   1.333  1.4570 -1.4032 -0.9166
  359MOL0     H48431   1.318   1.798   1.254  0.2977 -0.7563 -1.4250
  359MOL0     H48432   1.293   1.972   1.230  0.2176 -0.3071  1.8306
  359MOL0     H48433   1.219   1.874   1.034 -0.6840 -1.4824 -0.0784
  359MOL0     H48434   1.389   1.921   0.991 -0.4999 -0.2459  0.5954
  359MOL0     H48435   1.292   1.637   1.061  1.5718  0.2159  1.3520
  359MOL0     H48436   1.440   1.678   1.015  0.5477  0.4551 -1.4406
  359MOL0     H48437   1.367   1.763   0.796 -1.2775  2.7995  0.7600
  359MOL0     H48438   1.198   1.732   0.837 -0.3560  0.8236  1.5526
  359MOL0     H48439   1.396   1.502   0.824 -0.2865 -0.2348  1.4472
  359MOL0     H48440   1.224   1.503   0.865 -1.7463  0.8011 -0.6672
  359MOL0     H48441   1.262   1.434   0.623  1.5115 -0.4867  1.1177
  359MOL0     H48442   1.359   1.571   0.602 -1.9083 -0.8151 -2.5790
  359MOL0     H48443   1.149   1.727   0.627  3.9930  0.9864 -0.4761
  359MOL0     H48444   1.137   1.635   0.491 -2.0220  1.6987  1.5157
  359MOL0     H48445   1.767   1.868   1.193 -0.6760 -0.2855  0.4872
  359MOL0     H48446   2.001   1.960   1.202  0.7519  2.0457  2.5686
  359MOL0     H48447   2.257   2.359   1.061 -0.1073 -3.7699 -0.9531
  359MOL0     H48448   2.485   2.447   1.039  1.8438 -2.4182 -2.6133
  359MOL0     H48449   4.318   3.101   1.027  0.1859 -1.0222 -1.5399
  359MOL0     H48450   4.555   3.045   0.953 -0.8748 -0.7431  0.7176
  359MOL0     H48451   4.860   2.976   0.836 -1.0058 -0.5961  0.1016
  359MOL0     H48452   5.087   2.987   0.811 -3.4943  4.1263  0.5630
  359MOL0     H48453   5.306   2.885   0.787 -0.8394 -0.9144 -0.4681
  359MOL0     H48454   5.303   3.053   0.710  4.2641  1.1157  0.1118
  359MOL0     H48455   5.531   2.993   0.732 -0.8195  1.9226 -0.4647
  359MOL0     H48456   5.495   2.934   0.570  1.0804  1.1851  1.0863
  359MOL0     H48457   5.480   2.697   0.636  1.0931 -1.1355 -1.4708
  359MOL0     H48458   5.486   2.754   0.808  1.7434 -1.4441 -1.0074
  359MOL0     H48459   5.703   2.656   0.705  2.8125  1.0801 -3.8331
  359MOL0     H48460   5.712   2.756   0.589  3.4093  1.2049  1.0297
  359MOL0     H48461   5.885   3.009   0.865  0.7695  0.6134 -1.7495
  359MOL0     H48462   5.065   2.822   0.415  5.6915  1.2388  2.0876
  359MOL0     H48463   4.862   2.674   0.382 -0.3852  0.2736 -0.1625
  359MOL0     H48464   4.701   2.764   0.407 -0.4432 -1.2312  0.3604
  359MOL0     H48465   4.820   2.837   0.317 -0.4694 -1.0237 -1.1200
  360MOL0     O48466   5.787   1.417   3.261  0.8542 -0.1421  0.0117
  360MOL0     C48467   5.763   1.418   3.383  0.4345 -0.7157  0.3590
  360MOL0     O48468   5.854   1.403   3.478 -0.0787  0.1158  0.6232
  360MOL0     C48469   5.995   1.417   3.465  0.6448  0.3358 -0.5727
  360MOL0     C48470   6.069   1.350   3.556  0.4516 -0.3288 -0.6578
  360MOL0     C48471   6.208   1.346   3.551 -1.2126 -0.6761  0.3617
  360MOL0     C48472   6.274   1.422   3.457  0.1642  0.9762 -0.5421
  360MOL0     O48473   6.410   1.421   3.450  1.2080  0.1076  0.0051
  360MOL0     C48474   6.460   1.356   3.335  0.9171 -0.3594 -0.6629
  360MOL0     C48475   6.613   1.370   3.344  0.5477 -1.1318 -0.7177
  360MOL0     C48476   6.688   1.316   3.222  0.0451  0.5534  0.3224
  360MOL0     C48477   6.812   1.400   3.197 -0.2086 -0.1316 -0.5772
  360MOL0     C48478   6.887   1.344   3.085 -0.6508 -0.2240 -0.1352
  360MOL0     C48479   7.044   1.382   3.094  0.4738 -1.1576 -0.4678
  360MOL0     C48480   7.137   1.365   2.981 -0.3367  0.3032 -0.1424
  360MOL0     C48481   7.205   1.221   2.984  0.9845 -0.0538  0.0753
  360MOL0     N48482   7.272   1.172   2.866 -0.5898  1.2252  0.1917
  360MOL0     C48483   7.207   1.123   2.753  0.8387  0.0820  0.4576
  360MOL0     C48484   7.307   1.051   2.692  0.0412  0.5898  0.8026
  360MOL0     C48485   7.283   0.981   2.568 -0.6655  0.2358  0.0379
  360MOL0     C48486   7.346   1.053   2.455  0.2327 -0.8510 -0.7247
  360MOL0     C48487   7.283   1.026   2.319 -0.4198  0.2569 -0.4515
  360MOL0     C48488   7.168   1.115   2.290 -0.1281 -0.0434  0.6297
  360MOL0     O48489   7.215   1.245   2.246 -0.8853 -0.0763  0.3927
  360MOL0     C48490   7.164   1.320   2.150  0.4443  0.3199  0.5681
  360MOL0     C48491   7.241   1.415   2.080 -0.3416 -0.3470 -0.2694
  360MOL0     C48492   7.187   1.497   1.978 -0.4295 -0.7578  0.1553
  360MOL0     C48493   7.053   1.472   1.939  0.2353 -0.3657 -0.6163
  360MOL0     C48494   6.995   1.555   1.818 -0.0166  0.9735 -0.6690
  360MOL0     O48495   6.860   1.565   1.800 -0.1784 -0.1403  0.3892
  360MOL0     C48496   6.829   1.633   1.680  0.5408 -0.0237 -0.2573
  360MOL0     C48497   6.735   1.740   1.696 -0.3384  0.1810 -0.8484
  360MOL0     C48498   6.674   1.810   1.582 -0.4253 -0.0085 -0.5970
  360MOL0     C48499   6.725   1.790   1.454 -0.1131  0.0348  0.6622
  360MOL0     O48500   6.683   1.889   1.370 -0.5694 -0.1631  0.6070
  360MOL0     C48501   6.719   1.869   1.230 -0.1705  0.3647  0.7464
  360MOL0     C48502   6.691   1.991   1.144 -0.7344 -1.1723  0.2484
  360MOL0     C48503   6.549   2.043   1.168  0.2273 -0.5084  0.7356
  360MOL0     C48504   6.516   2.165   1.088  0.5252  0.3114  0.3081
  360MOL0     C48505   6.355   2.172   1.075  0.5096 -0.5050 -0.6362
  360MOL0     C48506   6.313   2.331   1.077 -0.7997  0.8478  0.1330
  360MOL0     C48507   6.166   2.336   1.116  0.8214  0.7269 -0.3449
  360MOL0     C48508   6.142   2.415   1.252 -0.4835  0.7384  0.2865
  360MOL0    Cl48509   6.223   2.577   1.262  0.3049 -0.1445 -0.0888
  360MOL0     C48510   6.820   1.685   1.442 -0.1837 -0.2188  0.5073
  360MOL0     C48511   6.869   1.605   1.546 -0.4953  0.1655  0.0115
  360MOL0     O48512   7.082   1.606   1.751  0.2207  0.7494  0.3160
  360MOL0     C48513   6.976   1.376   2.009 -0.3438 -0.2931 -0.1859
  360MOL0     C48514   7.024   1.318   2.121 -0.4463 -0.1351  0.2217
  360MOL0     N48515   7.420   1.039   2.759  0.9031 -0.0977  0.3204
  360MOL0     N48516   7.399   1.121   2.865 -0.0956 -0.6517  0.0127
  360MOL0     C48517   6.198   1.505   3.367  0.2259  0.6011  1.0342
  360MOL0     C48518   6.057   1.507   3.375 -0.4407 -0.0201  1.1457
  360MOL0     C48519   5.624   1.422   3.428  0.0129 -0.6226 -0.7160
  360MOL0     C48520   5.596   1.336   3.529  0.4818  0.4944 -1.0470
  360MOL0     C48521   5.470   1.318   3.587 -0.6328 -0.0098  0.6100
  360MOL0     C48522   5.356   1.383   3.530 -0.3865  0.2743 -0.1745
  360MOL0     O48523   5.239   1.363   3.585 -1.0655 -0.0837  0.0711
  360MOL0     C48524   5.135   1.459   3.584  0.0459  1.2906  0.3272
  360MOL0     C48525   5.132   1.538   3.715  0.7039 -0.2736  0.0806
  360MOL0     C48526   5.276   1.593   3.754  0.3871  1.0708  0.4863
  360MOL0     C48527   5.254   1.728   3.820 -0.1426 -0.0341 -0.0866
  360MOL0     C48528   5.383   1.781   3.863 -0.2225  0.2253  0.0865
  360MOL0     C48529   5.488   1.822   3.895 -0.0878 -0.0832  0.3140
  360MOL0     C48530   5.384   1.483   3.428 -1.1649  0.0892 -0.6617
  360MOL0     C48531   5.512   1.496   3.377 -0.8195  0.0627 -0.0937
  360MOL0     C48532   5.531   1.597   3.263  0.8659 -0.0447  0.4974
  360MOL0     H48533   6.017   1.310   3.642  1.8841  0.4628  0.6132
  360MOL0     H48534   6.253   1.279   3.623 -0.1601  1.0546  1.3791
  360MOL0     H48535   6.437   1.249   3.343 -0.0157 -0.2267 -1.2988
  360MOL0     H48536   6.429   1.401   3.240  0.6512  1.7863  0.3820
  360MOL0     H48537   6.645   1.323   3.438 -0.9396  0.1446  0.4899
  360MOL0     H48538   6.624   1.478   3.359  0.6512 -1.3662  1.2360
  360MOL0     H48539   6.628   1.337   3.133  1.8664 -0.9116 -1.3403
  360MOL0     H48540   6.707   1.208   3.225 -1.7184  0.2080  0.1545
  360MOL0     H48541   6.792   1.506   3.184 -2.6598 -0.6499 -1.5620
  360MOL0     H48542   6.883   1.400   3.281  1.9060  3.0419 -2.1973
  360MOL0     H48543   6.868   1.237   3.075 -2.5107 -0.2608  2.7179
  360MOL0     H48544   6.854   1.393   2.993 -1.5569 -1.5147 -0.5288
  360MOL0     H48545   7.051   1.489   3.116  2.1734 -0.6814 -2.9261
  360MOL0     H48546   7.098   1.337   3.178 -1.1969 -0.4621  1.0338
  360MOL0     H48547   7.216   1.441   2.985 -0.2365  0.2863 -1.2605
  360MOL0     H48548   7.085   1.380   2.886 -5.2504 -1.3816  1.9723
  360MOL0     H48549   7.277   1.226   3.065 -0.8192 -2.3545  1.9613
  360MOL0     H48550   7.124   1.156   3.018  1.9402 -0.2563  2.0552
  360MOL0     H48551   7.106   1.143   2.719 -0.2869 -2.1115  2.2636
  360MOL0     H48552   7.320   0.877   2.569  3.3189  1.4619 -0.8652
  360MOL0     H48553   7.174   0.968   2.567 -0.7315  0.7991 -0.0427
  360MOL0     H48554   7.352   1.161   2.471  2.9274 -1.3002  2.3264
  360MOL0     H48555   7.450   1.021   2.452  2.3679  4.9566 -0.7248
  360MOL0     H48556   7.254   0.920   2.315  1.8954 -0.4418  0.0355
  360MOL0     H48557   7.349   1.030   2.232 -3.0023 -3.4798 -2.8848
  360MOL0     H48558   7.106   1.126   2.379  3.1930  2.9634  2.8558
  360MOL0     H48559   7.111   1.069   2.209  2.7182 -1.0000 -0.9899
  360MOL0     H48560   7.345   1.427   2.108  1.9521 -5.2843 -4.7837
  360MOL0     H48561   7.237   1.586   1.941 -6.6541  3.0568 -0.4914
  360MOL0     H48562   6.715   1.748   1.802  2.8728 -0.1952 -0.1079
  360MOL0     H48563   6.601   1.890   1.592 -0.9107 -0.6683  1.6481
  360MOL0     H48564   6.828   1.861   1.221 -0.3450 -1.4476 -0.3328
  360MOL0     H48565   6.666   1.778   1.201  2.0833 -1.3013  1.4890
  360MOL0     H48566   6.762   2.074   1.156 -1.1363  0.1038 -4.2420
  360MOL0     H48567   6.716   1.975   1.039  0.3512 -0.6643  0.4173
  360MOL0     H48568   6.490   1.962   1.126 -1.6820  1.5681 -0.8023
  360MOL0     H48569   6.519   2.059   1.272 -1.3441  0.7560  0.1287
  360MOL0     H48570   6.555   2.165   0.986  1.1545  0.7344  0.5444
  360MOL0     H48571   6.554   2.249   1.148  2.2841  0.5603 -1.0595
  360MOL0     H48572   6.312   2.126   1.164  0.8878 -0.9937 -0.7061
  360MOL0     H48573   6.315   2.127   0.984 -1.5147 -0.6556  0.2780
  360MOL0     H48574   6.380   2.388   1.142  0.9343 -0.9106 -0.0251
  360MOL0     H48575   6.340   2.374   0.981  0.9932 -0.6485 -0.0999
  360MOL0     H48576   6.123   2.235   1.123  1.7372  0.3841  0.8709
  360MOL0     H48577   6.105   2.382   1.038  1.5036 -0.0658 -1.3788
  360MOL0     H48578   6.034   2.430   1.264 -0.5338 -0.4203  1.5945
  360MOL0     H48579   6.168   2.343   1.331 -2.2395 -0.6109 -0.3121
  360MOL0     H48580   6.845   1.672   1.338 -2.2130  0.8228 -0.1701
  360MOL0     H48581   6.933   1.519   1.530 -2.2083 -1.4759  1.3604
  360MOL0     H48582   6.876   1.353   1.972 -0.6714 -0.7080  0.9162
  360MOL0     H48583   6.969   1.245   2.179  0.3903 -0.9671 -0.0084
  360MOL0     H48584   6.260   1.560   3.296 -0.5269  1.2009  0.8243
  360MOL0     H48585   5.990   1.566   3.313 -0.5469  1.9710  3.0165
  360MOL0     H48586   5.678   1.284   3.578  0.2607  0.9029 -0.2144
  360MOL0     H48587   5.457   1.267   3.682  1.9521 -0.1764  0.9612
  360MOL0     H48588   5.044   1.400   3.572  0.6100  0.2849  0.8368
  360MOL0     H48589   5.130   1.521   3.494 -2.0487 -0.1305 -0.5962
  360MOL0     H48590   5.103   1.473   3.798  2.4934 -2.6601 -1.0403
  360MOL0     H48591   5.063   1.623   3.716  0.1517 -0.7255  1.2230
  360MOL0     H48592   5.334   1.608   3.663  0.8585 -2.1243  0.1512
  360MOL0     H48593   5.329   1.518   3.813 -0.8892 -0.3202 -0.0794
  360MOL0     H48594   5.196   1.794   3.756 -1.4549 -0.9819  0.0910
  360MOL0     H48595   5.200   1.719   3.915 -1.3068 -0.9089 -0.8067
  360MOL0     H48596   5.585   1.866   3.905 -0.6481  0.7158  3.3898
  360MOL0     H48597   5.302   1.543   3.392 -2.2051 -0.8297  0.1107
  360MOL0     H48598   5.631   1.604   3.219  1.6126  2.5202  2.3957
  360MOL0     H48599   5.458   1.573   3.186  2.7227 -1.5088 -0.8908
  360MOL0     H48600   5.521   1.698   3.304  0.2981  0.6264 -1.2139
  361MOL0     O48601   6.661   9.757   3.826  0.0751  0.4684 -0.0378
  361MOL0     C48602   6.696   9.675   3.913  0.6083  0.1578  0.4205
  361MOL0     O48603   6.827   9.639   3.936  0.6206 -0.1389  0.9535
  361MOL0     C48604   6.919   9.666   3.834 -0.2620 -0.0233 -0.0802
  361MOL0     C48605   6.911   9.608   3.707 -0.1060  0.1526 -0.3872
  361MOL0     C48606   6.997   9.641   3.612 -0.9021 -0.9340  1.0395
  361MOL0     C48607   7.099   9.732   3.636 -0.0267 -0.4047  0.1328
  361MOL0     O48608   7.198   9.769   3.547  0.2933 -0.1027 -0.3018
  361MOL0     C48609   7.167   9.785   3.408  0.6899  0.2320  0.0782
  361MOL0     C48610   7.220   9.910   3.352  0.0739  0.7190  0.9976
  361MOL0     C48611   7.162  10.035   3.429 -0.4615 -1.1354 -1.3713
  361MOL0     C48612   7.014  10.048   3.419 -0.1925 -0.0301 -0.6516
  361MOL0     C48613   6.955  10.187   3.430 -0.1163  0.5311  1.2760
  361MOL0     C48614   6.971  10.263   3.561  0.4864 -0.2589  0.4405
  361MOL0     C48615   6.889  10.198   3.676 -1.0344 -0.1269 -0.1877
  361MOL0     C48616   6.940  10.227   3.817  0.1016 -1.1912  0.4939
  361MOL0     N48617   6.854  10.186   3.925  0.5312  0.0283  0.2916
  361MOL0     C48618   6.756  10.082   3.926 -0.5472 -0.0645  0.2813
  361MOL0     C48619   6.704  10.097   4.052  0.8153  0.1683 -0.0934
  361MOL0     C48620   6.589  10.024   4.115 -0.3758  0.8082 -0.3379
  361MOL0     C48621   6.468  10.038   4.020 -0.3707  0.4083 -0.9859
  361MOL0     C48622   6.337  10.065   4.091  0.1052 -0.2317  0.2040
  361MOL0     C48623   6.215  10.042   4.010  0.0158 -0.7883  0.1657
  361MOL0     O48624   6.095  10.061   4.088  0.6027  0.4957  0.0295
  361MOL0     C48625   6.071   9.984   4.204  0.5688  0.0279  1.6133
  361MOL0     C48626   6.121   9.858   4.223 -0.0433 -0.1078 -0.2594
  361MOL0     C48627   6.100   9.789   4.341  0.1718  1.0104  0.0184
  361MOL0     C48628   6.033   9.840   4.448 -0.0595  0.1052 -0.4735
  361MOL0     C48629   6.027   9.764   4.575  0.3181  0.2161  0.2519
  361MOL0     O48630   6.084   9.640   4.577 -0.2017  0.4391  0.1827
  361MOL0     C48631   6.073   9.565   4.689 -0.9959 -1.1335  0.3718
  361MOL0     C48632   6.014   9.442   4.692 -0.0144 -0.0281  0.1412
  361MOL0     C48633   6.011   9.367   4.813  0.0203  0.0757  0.9461
  361MOL0     C48634   6.052   9.423   4.939 -0.2153  1.0617 -0.0288
  361MOL0     O48635   6.029   9.348   5.043  0.6454  0.0716 -1.1809
  361MOL0     C48636   5.977   9.414   5.160  0.0194  0.4045  0.2101
  361MOL0     C48637   5.929   9.308   5.252  1.2250 -0.5057 -0.8302
  361MOL0     C48638   5.857   9.364   5.376  0.2001 -0.7820 -0.1986
  361MOL0     C48639   5.718   9.424   5.342 -0.0484 -0.1537  0.2463
  361MOL0     C48640   5.639   9.479   5.456  0.0447 -0.2382 -0.7125
  361MOL0     C48641   5.612   9.373   5.572 -0.1054  0.1173 -0.4095
  361MOL0     C48642   5.552   9.238   5.545 -0.0833 -0.0548  0.8567
  361MOL0     C48643   5.426   9.230   5.473  0.0975 -0.5458  0.5634
  361MOL0    Cl48644   5.372   9.064   5.462 -0.0737 -0.6346 -0.0435
  361MOL0     C48645   6.111   9.547   4.942  0.0358  0.2651 -0.4320
  361MOL0     C48646   6.112   9.617   4.817 -0.9486  0.3682  0.8152
  361MOL0     O48647   5.972   9.820   4.675  0.1455  0.6163 -0.1053
  361MOL0     C48648   5.970   9.968   4.433 -0.3711 -0.2877  0.2358
  361MOL0     C48649   5.995  10.039   4.308 -0.2493 -0.9069 -0.9578
  361MOL0     N48650   6.751  10.212   4.111 -0.1855  0.0403  0.9889
  361MOL0     N48651   6.837  10.262   4.033 -0.5469 -0.7752 -0.3126
  361MOL0     C48652   7.106   9.789   3.765  0.2017 -0.3943 -0.0026
  361MOL0     C48653   7.017   9.762   3.862 -0.2695 -0.3117 -0.0810
  361MOL0     C48654   6.597   9.615   4.004  0.0777  0.5105  1.1219
  361MOL0     C48655   6.635   9.553   4.129  1.0013 -0.4038  0.9461
  361MOL0     C48656   6.546   9.487   4.207 -0.0236 -0.3342  0.4608
  361MOL0     C48657   6.410   9.471   4.171  0.6187 -0.5513  0.4501
  361MOL0     O48658   6.311   9.407   4.243  0.4463  0.9252  0.0663
  361MOL0     C48659   6.357   9.352   4.371  0.8875  0.1237  0.2674
  361MOL0     C48660   6.243   9.277   4.429 -0.0347 -0.2598 -0.2095
  361MOL0     C48661   6.280   9.223   4.571 -0.0627  0.2598  0.8764
  361MOL0     C48662   6.419   9.162   4.603 -0.2511  0.6677 -0.5130
  361MOL0     C48663   6.450   9.049   4.513 -0.0901 -0.3036  0.4376
  361MOL0     C48664   6.467   8.934   4.468 -0.1733  0.8656 -0.4283
  361MOL0     C48665   6.370   9.525   4.045 -0.2181 -0.5890 -0.0168
  361MOL0     C48666   6.458   9.595   3.963  0.1900  0.4068 -0.4871
  361MOL0     C48667   6.398   9.641   3.831  0.6898 -0.4947  0.3724
  361MOL0     H48668   6.838   9.528   3.702  0.5146 -0.6000  1.4716
  361MOL0     H48669   6.991   9.597   3.513 -0.4744 -2.1101  1.5146
  361MOL0     H48670   7.233   9.718   3.352  1.4616  2.0235 -1.2588
  361MOL0     H48671   7.060   9.779   3.386  1.4029 -1.5834 -3.5008
  361MOL0     H48672   7.193   9.923   3.247 -0.1050 -0.4041  0.8947
  361MOL0     H48673   7.328   9.897   3.366  0.1992 -0.8953 -0.9335
  361MOL0     H48674   7.211  10.122   3.384 -2.1472  1.1756  0.9540
  361MOL0     H48675   7.197  10.043   3.532 -0.8619  0.2061 -1.3187
  361MOL0     H48676   6.982  10.007   3.323 -1.1446 -4.9308  1.4852
  361MOL0     H48677   6.982   9.972   3.490  0.2199 -0.5954 -1.0688
  361MOL0     H48678   7.001  10.251   3.355 -1.2647  0.6608  0.6711
  361MOL0     H48679   6.848  10.174   3.410 -0.2163  3.0817 -0.2513
  361MOL0     H48680   7.077  10.278   3.580  1.1189 -3.5254  0.0234
  361MOL0     H48681   6.919  10.357   3.542  0.9780  0.4278  2.3304
  361MOL0     H48682   6.895  10.090   3.662 -2.9247 -0.4330  1.0076
  361MOL0     H48683   6.784  10.227   3.676 -1.7087 -2.3617 -1.2946
  361MOL0     H48684   7.035  10.174   3.833  1.6255 -0.1788 -3.7871
  361MOL0     H48685   6.945  10.336   3.813 -0.0887 -1.2147 -1.9385
  361MOL0     H48686   6.746  10.010   3.845  2.4469 -0.4383  0.1142
  361MOL0     H48687   6.617   9.919   4.125 -2.4690  0.4440  3.9403
  361MOL0     H48688   6.580  10.057   4.219  1.9317  2.9440 -0.7186
  361MOL0     H48689   6.481  10.116   3.944 -1.0776  0.2149 -1.3175
  361MOL0     H48690   6.455   9.946   3.963  0.6424 -0.7935  0.6444
  361MOL0     H48691   6.339  10.170   4.124 -3.5801 -0.4979  1.7019
  361MOL0     H48692   6.344   9.987   4.166 -0.6358 -2.1281 -1.6136
  361MOL0     H48693   6.209   9.943   3.963 -1.3766 -1.4357  1.6330
  361MOL0     H48694   6.216  10.118   3.931  0.3525 -2.0926 -1.1418
  361MOL0     H48695   6.195   9.806   4.163  1.9629  1.9381  0.3060
  361MOL0     H48696   6.139   9.688   4.345 -0.2933  0.8391  0.5973
  361MOL0     H48697   5.968   9.387   4.611  1.7479  0.3654 -1.1867
  361MOL0     H48698   5.958   9.273   4.814 -0.9323  0.5575 -0.8302
  361MOL0     H48699   6.053   9.472   5.214  2.7779  1.7121 -4.4802
  361MOL0     H48700   5.910   9.496   5.132  0.9578  1.0639 -0.1586
  361MOL0     H48701   5.864   9.236   5.203  2.3410 -1.4846 -0.9098
  361MOL0     H48702   6.011   9.243   5.284  0.3705 -0.9429  0.5416
  361MOL0     H48703   5.848   9.280   5.446 -2.1473  0.3809  1.0321
  361MOL0     H48704   5.917   9.446   5.419 -1.6540  1.2020 -1.1988
  361MOL0     H48705   5.665   9.344   5.288  1.8348 -1.2297 -0.1001
  361MOL0     H48706   5.732   9.510   5.276  0.4211  0.0818  0.6488
  361MOL0     H48707   5.543   9.515   5.419 -1.6164 -1.9530  1.6346
  361MOL0     H48708   5.692   9.562   5.505 -3.3963  0.6697  1.8972
  361MOL0     H48709   5.699   9.358   5.636 -0.4778 -1.7490 -0.2962
  361MOL0     H48710   5.522   9.420   5.612 -0.5755  0.5239 -1.8588
  361MOL0     H48711   5.539   9.199   5.647  3.6217  1.7358  2.1956
  361MOL0     H48712   5.624   9.180   5.486  0.0268  0.6955  0.2334
  361MOL0     H48713   5.342   9.291   5.508  0.1146  0.6092 -1.2739
  361MOL0     H48714   5.438   9.270   5.372 -0.6307  0.4152  0.8391
  361MOL0     H48715   6.147   9.581   5.039  0.2949 -2.1502  0.3688
  361MOL0     H48716   6.142   9.721   4.805 -2.0551  0.5115 -1.0384
  361MOL0     H48717   5.903  10.013   4.506 -2.6637  0.7383 -2.3286
  361MOL0     H48718   5.945  10.134   4.289 -0.3017 -0.5086  0.9448
  361MOL0     H48719   7.194   9.850   3.784 -0.9549  2.2217 -2.3073
  361MOL0     H48720   7.017   9.805   3.962  0.3056 -0.9089  0.1827
  361MOL0     H48721   6.743   9.551   4.139  1.2429 -3.7814 -0.8455
  361MOL0     H48722   6.595   9.446   4.295 -1.1370 -1.3994  0.6065
  361MOL0     H48723   6.390   9.418   4.452  0.5267 -0.0782  0.5860
  361MOL0     H48724   6.432   9.273   4.359 -2.3072 -3.8632  3.1721
  361MOL0     H48725   6.194   9.203   4.365 -0.0978  0.3943 -0.9428
  361MOL0     H48726   6.172   9.355   4.459 -0.5560 -0.0542 -1.8396
  361MOL0     H48727   6.207   9.142   4.584 -3.1173  2.3777 -1.4598
  361MOL0     H48728   6.253   9.298   4.646  1.4820 -0.1045  1.8353
  361MOL0     H48729   6.500   9.236   4.609  0.0949  0.3234 -0.8506
  361MOL0     H48730   6.415   9.117   4.702  0.4904  1.4250 -0.1270
  361MOL0     H48731   6.492   8.836   4.434  0.0983  0.2640  1.3815
  361MOL0     H48732   6.267   9.529   4.011 -0.5619  0.1003  1.0619
  361MOL0     H48733   6.399   9.750   3.829 -1.6646 -0.4288 -0.4871
  361MOL0     H48734   6.446   9.606   3.739 -2.6526 -1.4307 -1.1675
  361MOL0     H48735   6.289   9.632   3.822  0.7466  0.0219 -1.1465
  362MOL0     O48736   9.597   4.437  10.398 -0.5304 -0.7525 -0.2179
  362MOL0     C48737   9.627   4.526  10.487 -0.6301 -0.5624  0.6050
  362MOL0     O48738   9.592   4.664  10.483 -0.1270 -0.0362  0.2591
  362MOL0     C48739   9.574   4.721  10.366 -0.4769  0.1900 -0.2588
  362MOL0     C48740   9.452   4.714  10.296  0.7009 -0.1844 -0.2914
  362MOL0     C48741   9.449   4.765  10.165 -0.8049  0.4771  0.6429
  362MOL0     C48742   9.556   4.828  10.095  0.5687  0.9492 -0.0605
  362MOL0     O48743   9.533   4.879   9.977 -0.6765  0.1096  0.4666
  362MOL0     C48744   9.647   4.932   9.909 -0.5446 -0.6968 -0.0403
  362MOL0     C48745   9.588   5.003   9.783  0.2172  0.5313 -0.3380
  362MOL0     C48746   9.691   5.038   9.678  0.1129 -0.5568  0.6306
  362MOL0     C48747   9.781   4.910   9.645 -0.2759 -0.4705  0.4737
  362MOL0     C48748   9.861   4.927   9.511  0.9417 -0.5332  1.3956
  362MOL0     C48749   9.977   4.823   9.497 -0.6890  0.4058  0.3807
  362MOL0     C48750  10.096   4.861   9.410 -0.4894  0.3546 -0.5024
  362MOL0     C48751  10.184   4.745   9.360  0.0274 -0.5497  0.2034
  362MOL0     N48752  10.239   4.654   9.464  0.0341 -0.0659  0.0153
  362MOL0     C48753  10.159   4.557   9.520  0.0488 -0.4499  0.4329
  362MOL0     C48754  10.248   4.487   9.600  0.9994 -0.6506 -0.0314
  362MOL0     C48755  10.229   4.363   9.678  0.0222 -0.3640 -0.0402
  362MOL0     C48756  10.316   4.244   9.640  0.1408 -1.0348 -0.1371
  362MOL0     C48757  10.290   4.121   9.727 -0.5493  0.3156  0.2759
  362MOL0     C48758  10.359   4.007   9.651 -0.6277  0.8574  0.2818
  362MOL0     O48759  10.485   4.048   9.590 -0.4907  0.2504 -0.3569
  362MOL0     C48760  10.550   3.949   9.513 -0.7918 -0.3486 -0.8450
  362MOL0     C48761  10.651   3.991   9.418  0.3091 -0.0060  0.2779
  362MOL0     C48762  10.710   3.894   9.334 -0.0122 -0.0796 -0.4241
  362MOL0     C48763  10.676   3.765   9.330 -0.8171 -0.4871  0.0886
  362MOL0     C48764  10.732   3.668   9.237  0.3797 -0.3749 -0.5630
  362MOL0     O48765  10.651   3.567   9.200 -0.0500  0.5100 -0.2565
  362MOL0     C48766  10.681   3.476   9.102  0.3854  0.0572  0.3802
  362MOL0     C48767  10.592   3.371   9.108 -0.5901  0.8684 -0.5336
  362MOL0     C48768  10.601   3.249   9.029  0.4674 -0.2930  0.6493
  362MOL0     C48769  10.714   3.253   8.936 -0.1199 -0.4052 -0.2663
  362MOL0     O48770  10.737   3.134   8.872  0.4162  0.2418 -0.3150
  362MOL0     C48771  10.760   3.143   8.734  1.1069  0.0297 -1.4619
  362MOL0     C48772  10.710   3.026   8.655  0.1192  0.2694  1.0537
  362MOL0     C48773  10.783   2.897   8.687 -0.5360  0.0915 -0.1013
  362MOL0     C48774  10.706   2.766   8.638  1.1186 -0.7940 -0.0101
  362MOL0     C48775  10.749   2.646   8.719  1.2044 -0.2811 -0.3725
  362MOL0     C48776  10.664   2.621   8.838 -0.3453 -0.1267 -0.3890
  362MOL0     C48777  10.677   2.488   8.899  0.8541  0.9130 -0.4028
  362MOL0     C48778  10.539   2.424   8.949 -0.0234 -0.2420  0.0792
  362MOL0    Cl48779  10.433   2.565   9.018 -0.1989  0.0568  0.1649
  362MOL0     C48780  10.800   3.365   8.923  0.0353 -0.7180 -0.5724
  362MOL0     C48781  10.772   3.482   9.002 -0.9023  0.3545 -0.1678
  362MOL0     O48782  10.843   3.702   9.194 -0.1281  0.4378  0.8977
  362MOL0     C48783  10.584   3.721   9.425 -0.4702 -2.2592  0.3671
  362MOL0     C48784  10.523   3.808   9.525 -0.4899 -0.2602  0.1994
  362MOL0     N48785  10.376   4.544   9.592 -0.2734  0.3361  0.5598
  362MOL0     N48786  10.368   4.637   9.504  0.5901 -0.2322  0.1107
  362MOL0     C48787   9.668   4.825  10.171  0.6990  0.1675  0.3426
  362MOL0     C48788   9.683   4.770  10.299 -0.6964  0.5918  0.4662
  362MOL0     C48789   9.659   4.477  10.621 -1.4271 -0.2301 -1.2299
  362MOL0     C48790   9.639   4.564  10.735  0.0007  0.0738 -0.3380
  362MOL0     C48791   9.671   4.524  10.869  0.1395 -0.3080  0.8085
  362MOL0     C48792   9.718   4.396  10.890 -0.6029  0.3251  0.2177
  362MOL0     O48793   9.748   4.370  11.027  0.2534  0.0913 -0.0224
  362MOL0     C48794   9.826   4.254  11.061  0.8897  0.8476 -0.2553
  362MOL0     C48795   9.840   4.266  11.209 -0.1514 -0.0737 -0.1365
  362MOL0     C48796   9.934   4.387  11.238 -0.0806  0.3151 -1.6400
  362MOL0     C48797   9.918   4.431  11.387 -0.4412  0.4438  0.1109
  362MOL0     C48798   9.962   4.326  11.481  0.4659 -1.1227  0.6630
  362MOL0     C48799  10.005   4.236  11.557  1.0615 -0.2558  0.3460
  362MOL0     C48800   9.746   4.310  10.787  0.7828 -0.5630  0.3391
  362MOL0     C48801   9.726   4.354  10.649  0.2142 -0.0022  0.2192
  362MOL0     C48802   9.776   4.243  10.563 -0.1003 -0.1170 -0.5448
  362MOL0     H48803   9.362   4.680  10.346  1.7748 -1.1726  1.0739
  362MOL0     H48804   9.352   4.753  10.117 -3.0818  1.7956  4.5016
  362MOL0     H48805   9.704   5.003   9.969 -2.3835 -0.8170  1.9397
  362MOL0     H48806   9.707   4.848   9.872 -2.2302 -1.0107 -2.3078
  362MOL0     H48807   9.566   5.103   9.823 -2.9160  0.8571 -2.5535
  362MOL0     H48808   9.505   4.940   9.749  3.7256 -3.7299 -1.9729
  362MOL0     H48809   9.757   5.118   9.712 -0.8936 -0.3030  2.0904
  362MOL0     H48810   9.637   5.079   9.591  0.6548 -1.5890 -0.2112
  362MOL0     H48811   9.858   4.882   9.717 -0.4180 -3.7575 -0.4923
  362MOL0     H48812   9.706   4.831   9.630 -0.7562 -0.1705  1.2283
  362MOL0     H48813   9.789   4.932   9.428  1.6560  2.4292  0.8267
  362MOL0     H48814   9.900   5.029   9.511  0.2075 -0.2260  0.3741
  362MOL0     H48815  10.012   4.799   9.597 -1.6350  1.1455  0.9019
  362MOL0     H48816   9.945   4.731   9.447  2.7381 -0.1973 -1.0056
  362MOL0     H48817  10.173   4.921   9.460  1.8111 -1.6088 -1.4429
  362MOL0     H48818  10.055   4.904   9.319  1.7463 -0.4523 -1.9947
  362MOL0     H48819  10.131   4.688   9.284 -0.6927  1.5637 -0.9650
  362MOL0     H48820  10.273   4.782   9.309 -1.2155  0.1498 -1.5534
  362MOL0     H48821  10.061   4.518   9.494 -0.4079  2.8721 -4.0204
  362MOL0     H48822  10.236   4.401   9.780 -3.6272  1.3854 -0.2592
  362MOL0     H48823  10.124   4.335   9.662 -0.0712 -0.0584  0.0330
  362MOL0     H48824  10.292   4.219   9.536 -1.1510  0.0338 -0.1249
  362MOL0     H48825  10.422   4.267   9.655 -0.1837 -0.5810  1.5971
  362MOL0     H48826  10.182   4.100   9.730 -0.3682 -0.6606  0.2148
  362MOL0     H48827  10.321   4.129   9.831 -0.2682  1.5107  0.1179
  362MOL0     H48828  10.299   3.967   9.569 -0.1215  1.3546 -0.3492
  362MOL0     H48829  10.382   3.931   9.726  0.8572 -0.2202 -1.1879
  362MOL0     H48830  10.683   4.095   9.424  2.3933 -0.6389  1.0524
  362MOL0     H48831  10.780   3.926   9.258 -1.0922 -2.2237 -2.4521
  362MOL0     H48832  10.498   3.369   9.162 -0.1443 -0.9356  0.2418
  362MOL0     H48833  10.537   3.165   9.055  0.3778  0.6496  3.8614
  362MOL0     H48834  10.710   3.230   8.690 -1.4980 -1.4109 -1.5769
  362MOL0     H48835  10.869   3.140   8.727  1.3846 -0.7682  1.6699
  362MOL0     H48836  10.610   2.994   8.687 -0.0630 -0.5460 -0.2717
  362MOL0     H48837  10.718   3.051   8.549 -1.6763 -0.3083  0.7355
  362MOL0     H48838  10.890   2.913   8.668  0.1323 -0.6688  2.5488
  362MOL0     H48839  10.788   2.882   8.795 -2.2054  1.1238  0.1542
  362MOL0     H48840  10.728   2.760   8.531 -1.2830  0.4853 -0.6400
  362MOL0     H48841  10.598   2.771   8.657  1.2712  1.1433  0.6264
  362MOL0     H48842  10.853   2.646   8.753  1.1699 -1.4326 -0.2122
  362MOL0     H48843  10.727   2.555   8.663 -5.6271  0.9272 -0.4591
  362MOL0     H48844  10.683   2.697   8.914  1.4053 -1.5338  0.6693
  362MOL0     H48845  10.559   2.641   8.813 -0.8861 -1.1985  0.9115
  362MOL0     H48846  10.743   2.494   8.985  1.6168  1.5260 -1.0106
  362MOL0     H48847  10.718   2.410   8.834 -3.2474 -0.3523 -1.8061
  362MOL0     H48848  10.498   2.368   8.865  2.5347  1.0412 -2.1891
  362MOL0     H48849  10.562   2.361   9.036 -0.7512 -0.2667  0.2567
  362MOL0     H48850  10.884   3.379   8.856  0.5753  0.6346  0.3503
  362MOL0     H48851  10.836   3.569   9.001  0.8383 -0.8666 -0.7934
  362MOL0     H48852  10.561   3.615   9.433 -3.5575 -1.7478 -0.5112
  362MOL0     H48853  10.462   3.765   9.604  0.0359 -3.5771 -1.0427
  362MOL0     H48854   9.761   4.864  10.130  0.1339  0.0559 -1.0856
  362MOL0     H48855   9.777   4.753  10.350 -0.5251  1.1976  0.3626
  362MOL0     H48856   9.582   4.656  10.728 -1.1083 -0.2874  2.7015
  362MOL0     H48857   9.645   4.593  10.949 -0.1973  0.1324  0.3291
  362MOL0     H48858   9.916   4.230  11.004  1.8549 -3.4558  2.5216
  362MOL0     H48859   9.765   4.165  11.041  1.0518  0.5556  0.5053
  362MOL0     H48860   9.881   4.173  11.250 -1.9919  0.6734  3.8361
  362MOL0     H48861   9.748   4.269  11.268 -0.4427 -1.6041 -0.4703
  362MOL0     H48862   9.915   4.475  11.176 -3.1175  2.2911  1.6743
  362MOL0     H48863  10.037   4.355  11.220  0.4608  0.5931  0.6514
  362MOL0     H48864   9.983   4.517  11.407 -0.9862  1.2982 -1.5794
  362MOL0     H48865   9.816   4.469  11.396 -0.8655 -1.0087  2.3484
  362MOL0     H48866  10.046   4.159  11.619 -0.2582 -0.0386  1.5372
  362MOL0     H48867   9.775   4.209  10.815  4.8140  0.6170  1.0496
  362MOL0     H48868   9.853   4.181  10.609  0.1277  0.9161  0.5019
  362MOL0     H48869   9.689   4.181  10.542  0.7005 -1.7162  0.6892
  362MOL0     H48870   9.815   4.281  10.468 -1.8776 -0.8927 -1.6239
  363MOL0     O48871   5.291   5.035  10.046  0.3701  0.2747  0.2443
  363MOL0     C48872   5.216   5.043   9.947  0.1186 -0.2960 -0.8864
  363MOL0     O48873   5.269   5.080   9.828  0.7023 -0.0103 -0.0259
  363MOL0     C48874   5.378   5.024   9.778 -0.7266 -1.3540 -0.3615
  363MOL0     C48875   5.486   5.105   9.729 -0.6130  0.1557  0.2371
  363MOL0     C48876   5.599   5.048   9.681 -0.0855 -0.0672  0.3226
  363MOL0     C48877   5.617   4.914   9.687  0.0980  0.6242  1.0297
  363MOL0     O48878   5.736   4.853   9.633  0.1621 -1.6906  0.1974
  363MOL0     C48879   5.859   4.929   9.653 -0.0729  0.2360  0.0536
  363MOL0     C48880   5.980   4.833   9.625 -0.2588 -0.9860 -0.0770
  363MOL0     C48881   6.119   4.915   9.614  0.7486  0.7227  0.0479
  363MOL0     C48882   6.216   4.833   9.535 -0.5042  0.6230 -0.1614
  363MOL0     C48883   6.358   4.892   9.560  0.4188  1.4177 -0.1880
  363MOL0     C48884   6.417   4.837   9.696  0.1307 -0.0826  0.5902
  363MOL0     C48885   6.557   4.900   9.715 -0.2487  0.1685 -0.3951
  363MOL0     C48886   6.599   4.908   9.863  0.2931 -0.3071  0.9540
  363MOL0     N48887   6.739   4.888   9.892 -0.3452 -0.3635  0.5416
  363MOL0     C48888   6.844   4.938   9.816  0.7920  0.0329  0.3887
  363MOL0     C48889   6.959   4.891   9.866  0.0803  0.6464 -0.9477
  363MOL0     C48890   7.100   4.933   9.833  0.7470  0.5909  0.5338
  363MOL0     C48891   7.194   4.938   9.945 -0.3327  0.2376 -0.4057
  363MOL0     C48892   7.156   5.044  10.040 -0.3837 -0.0526 -0.3037
  363MOL0     C48893   7.238   5.031  10.165  0.7266 -0.0891 -0.6155
  363MOL0     O48894   7.206   5.148  10.247  0.2175  0.0536 -0.2400
  363MOL0     C48895   7.137   5.131  10.366 -0.4769  0.2932  0.0248
  363MOL0     C48896   7.189   5.213  10.462 -0.3706 -0.0287  0.5390
  363MOL0     C48897   7.130   5.210  10.594 -0.3599 -0.9729  0.2905
  363MOL0     C48898   7.032   5.113  10.629  0.6261 -0.7060  0.1357
  363MOL0     C48899   6.966   5.108  10.761 -0.0495 -0.0074  0.6788
  363MOL0     O48900   6.844   5.067  10.767  0.1130  0.4558  0.4887
  363MOL0     C48901   6.770   5.090  10.883 -1.2123  0.1607 -0.0935
  363MOL0     C48902   6.638   5.132  10.867  0.3725  0.2281 -0.0528
  363MOL0     C48903   6.563   5.153  10.984 -0.4177  0.3976 -0.0723
  363MOL0     C48904   6.614   5.126  11.118  0.2170 -0.3305 -0.3270
  363MOL0     O48905   6.543   5.135  11.234  0.2910 -0.4312 -0.7726
  363MOL0     C48906   6.397   5.128  11.222  0.2594 -0.7044  0.6978
  363MOL0     C48907   6.338   5.103  11.360 -1.0053 -0.6157 -0.1398
  363MOL0     C48908   6.192   5.102  11.357  0.1684  0.5872 -0.3129
  363MOL0     C48909   6.142   5.042  11.497  0.2845  0.0709  1.1666
  363MOL0     C48910   5.996   5.029  11.500  0.6333  0.7505  0.4935
  363MOL0     C48911   5.950   4.885  11.513 -0.0859  0.0724 -0.0465
  363MOL0     C48912   5.797   4.865  11.478  0.2539 -0.7430 -0.4271
  363MOL0     C48913   5.762   4.725  11.430  0.4145 -0.2665  0.0411
  363MOL0    Cl48914   5.585   4.724  11.392 -0.0186 -0.1937 -0.0470
  363MOL0     C48915   6.744   5.079  11.131 -0.0627  0.1671 -0.3921
  363MOL0     C48916   6.812   5.042  11.011  0.5800  0.3380  0.0412
  363MOL0     O48917   7.031   5.148  10.855 -0.7215 -0.4430 -1.1682
  363MOL0     C48918   6.994   5.024  10.533  0.0894  0.2067 -0.3936
  363MOL0     C48919   7.044   5.031  10.404 -0.5651  0.1935  0.3778
  363MOL0     N48920   6.920   4.792   9.959  0.1737 -0.4812 -0.9249
  363MOL0     N48921   6.786   4.795   9.974 -0.9220 -0.1295 -0.0769
  363MOL0     C48922   5.503   4.824   9.721 -0.5704 -0.4273 -0.8021
  363MOL0     C48923   5.389   4.887   9.767 -0.4307  0.0400  0.6666
  363MOL0     C48924   5.069   5.033   9.962 -0.4455  0.0087  0.7634
  363MOL0     C48925   4.997   4.991   9.850 -0.0101 -0.3435  0.5653
  363MOL0     C48926   4.864   4.984   9.862  0.7024 -0.1278  0.2722
  363MOL0     C48927   4.797   5.014   9.979  0.0547 -0.4157  0.0928
  363MOL0     O48928   4.662   5.000   9.987 -0.2571  0.5199  0.3228
  363MOL0     C48929   4.591   5.116   9.950 -0.2931 -0.2528  0.3313
  363MOL0     C48930   4.550   5.121   9.809 -0.5985  0.4348 -0.3728
  363MOL0     C48931   4.426   5.209   9.783 -0.7994 -0.3715 -0.2075
  363MOL0     C48932   4.402   5.274   9.639  0.3205  0.6215  0.6168
  363MOL0     C48933   4.513   5.362   9.609 -0.2418  0.8048  1.0439
  363MOL0     C48934   4.602   5.444   9.588  1.1137 -0.4830  0.1507
  363MOL0     C48935   4.867   5.047  10.091 -0.7642  0.0928 -0.3219
  363MOL0     C48936   5.006   5.058  10.084  0.2566 -0.6426  0.4148
  363MOL0     C48937   5.055   5.141  10.197  0.1903 -0.1410 -0.1128
  363MOL0     H48938   5.482   5.213   9.729  2.2572  0.3612  1.9522
  363MOL0     H48939   5.674   5.122   9.657  1.3937 -1.3560  0.8062
  363MOL0     H48940   5.867   5.009   9.578 -2.4803 -0.4086 -0.9925
  363MOL0     H48941   5.855   4.970   9.754 -2.2886 -0.9359  0.5125
  363MOL0     H48942   5.967   4.764   9.541 -2.5038 -1.1992  0.3792
  363MOL0     H48943   5.994   4.763   9.708  0.8306  0.0036  0.5934
  363MOL0     H48944   6.161   4.930   9.714  1.0868 -3.8387  0.8193
  363MOL0     H48945   6.108   5.009   9.561 -0.3410  0.2910 -0.5159
  363MOL0     H48946   6.203   4.730   9.569  0.9644  0.0923 -1.0920
  363MOL0     H48947   6.199   4.835   9.427 -1.8124  2.5000  0.0233
  363MOL0     H48948   6.410   4.857   9.470 -1.6869  2.0297 -1.7279
  363MOL0     H48949   6.363   5.001   9.558 -0.2355  1.5421  2.0516
  363MOL0     H48950   6.358   4.860   9.786 -0.0801 -2.7719  1.2258
  363MOL0     H48951   6.427   4.728   9.702  1.8747 -0.0702 -1.3040
  363MOL0     H48952   6.564   4.993   9.658  2.9047  2.8279  3.7688
  363MOL0     H48953   6.629   4.834   9.664  0.3607 -0.0314  0.6928
  363MOL0     H48954   6.560   5.006   9.891 -2.4239 -0.6127 -1.3826
  363MOL0     H48955   6.544   4.833   9.921  0.8544 -2.7204 -1.4303
  363MOL0     H48956   6.825   5.014   9.741 -1.8162 -0.8100  0.0903
  363MOL0     H48957   7.128   4.857   9.760 -2.3015 -0.5033  0.3542
  363MOL0     H48958   7.095   5.036   9.796 -1.8495  0.1357 -0.6344
  363MOL0     H48959   7.186   4.837   9.985 -0.6030 -0.7248 -2.7477
  363MOL0     H48960   7.296   4.954   9.908 -0.0939  0.3449  0.2820
  363MOL0     H48961   7.054   5.079  10.054  0.4604  2.7359 -0.5090
  363MOL0     H48962   7.205   5.126   9.987  1.5769 -0.1226  1.2790
  363MOL0     H48963   7.344   5.026  10.141  0.9341 -3.3519  0.5386
  363MOL0     H48964   7.231   4.935  10.216 -0.4083 -0.1333 -0.8331
  363MOL0     H48965   7.263   5.285  10.431 -0.0486  0.0347  1.4210
  363MOL0     H48966   7.165   5.273  10.675 -1.3751 -1.1473  0.8853
  363MOL0     H48967   6.588   5.136  10.771 -1.0813 -2.8913  0.4659
  363MOL0     H48968   6.460   5.181  10.963 -0.6615 -1.3887 -1.5721
  363MOL0     H48969   6.350   5.219  11.184 -0.5469 -1.5320 -0.3410
  363MOL0     H48970   6.364   5.048  11.155 -1.4024  1.4278 -1.2030
  363MOL0     H48971   6.374   5.004  11.387  1.3400  0.5112  1.2420
  363MOL0     H48972   6.369   5.164  11.446 -0.8299 -3.2838  1.8094
  363MOL0     H48973   6.143   5.198  11.339  0.3483  0.6671 -0.3760
  363MOL0     H48974   6.154   5.042  11.274 -1.5576 -0.9517  1.4765
  363MOL0     H48975   6.171   5.102  11.585  1.0695 -0.7016  1.4527
  363MOL0     H48976   6.181   4.940  11.505 -2.9569 -1.4760 -0.8447
  363MOL0     H48977   5.956   5.070  11.407  0.4107  1.7805  1.0243
  363MOL0     H48978   5.947   5.092  11.575  0.5705  1.1473  0.1264
  363MOL0     H48979   6.008   4.819  11.448  3.7219  1.7244  1.3121
  363MOL0     H48980   5.972   4.851  11.615  1.0367 -0.5552 -0.4817
  363MOL0     H48981   5.770   4.932  11.397  1.0826 -2.9187 -2.6381
  363MOL0     H48982   5.738   4.881  11.569 -5.0094 -2.4800 -3.1300
  363MOL0     H48983   5.818   4.697  11.341  0.5214 -1.9660  0.6161
  363MOL0     H48984   5.793   4.660  11.513  0.2402 -0.1964  0.1630
  363MOL0     H48985   6.788   5.065  11.229 -2.5769  1.5695  1.0314
  363MOL0     H48986   6.909   5.002  11.035  0.8488 -1.3076 -3.3145
  363MOL0     H48987   6.928   4.943  10.563 -0.5693  0.8540 -0.0565
  363MOL0     H48988   7.020   4.967  10.320  0.9380 -0.8089  0.6717
  363MOL0     H48989   5.530   4.720   9.731  1.5780  0.3095  3.8140
  363MOL0     H48990   5.306   4.829   9.805  0.9988 -2.0569  0.7576
  363MOL0     H48991   5.054   4.953   9.766  0.2437 -1.6947  1.3215
  363MOL0     H48992   4.799   4.953   9.782  0.2870 -0.0176  0.5636
  363MOL0     H48993   4.638   5.206   9.991 -2.0801  1.8470 -1.9415
  363MOL0     H48994   4.493   5.091   9.990 -0.4336 -2.0305 -1.0240
  363MOL0     H48995   4.530   5.016   9.785 -0.8483 -0.7396  4.0509
  363MOL0     H48996   4.624   5.168   9.745  0.4228 -0.1511  0.3437
  363MOL0     H48997   4.435   5.294   9.852 -3.8697  0.7303 -0.9878
  363MOL0     H48998   4.336   5.152   9.810 -0.0949 -0.9956  0.8796
  363MOL0     H48999   4.388   5.201   9.559 -3.1426  1.4376  0.3155
  363MOL0     H49000   4.308   5.331   9.639  1.0716  1.9124  0.1784
  363MOL0     H49001   4.660   5.527   9.551 -0.0369  1.1016  1.7505
  363MOL0     H49002   4.813   5.077  10.181  1.1640 -0.6390  1.1433
  363MOL0     H49003   5.164   5.148  10.193  0.3089  0.8201  2.5979
  363MOL0     H49004   5.024   5.246  10.197  1.1986  0.2612  3.2465
  363MOL0     H49005   5.021   5.082  10.283 -0.8394  0.6570  0.0603
  364MOL0     O49006  11.090   2.496  11.315 -0.2904 -0.0049 -0.1944
  364MOL0     C49007  11.184   2.458  11.379 -0.2898  0.2293 -0.2208
  364MOL0     O49008  11.245   2.528  11.489  0.8157  0.2861 -0.3932
  364MOL0     C49009  11.165   2.621  11.551  0.3613  0.1644 -0.4966
  364MOL0     C49010  11.099   2.603  11.668 -0.0443 -0.6370 -0.3081
  364MOL0     C49011  11.042   2.704  11.744  0.5081  0.5623  0.5738
  364MOL0     C49012  11.017   2.824  11.693  0.5168 -0.0015  0.9191
  364MOL0     O49013  10.939   2.907  11.768 -0.2045 -0.2580 -0.4377
  364MOL0     C49014  10.913   3.045  11.734  0.9075 -0.5138 -0.2387
  364MOL0     C49015  10.767   3.061  11.735  0.0190 -0.1844  0.3869
  364MOL0     C49016  10.708   3.204  11.737 -0.2641 -0.5774  0.9308
  364MOL0     C49017  10.713   3.284  11.865  0.4385 -0.2655 -0.7439
  364MOL0     C49018  10.674   3.430  11.835 -0.7735 -0.3666 -0.0657
  364MOL0     C49019  10.762   3.510  11.734  0.0623  0.5329  0.0515
  364MOL0     C49020  10.909   3.492  11.765  0.7473  0.1220 -0.2637
  364MOL0     C49021  10.997   3.594  11.685  0.6354 -0.7599  0.3669
  364MOL0     N49022  11.136   3.564  11.708 -0.5483  0.2957  0.8689
  364MOL0     C49023  11.215   3.597  11.817  0.4136  0.3913 -0.4162
  364MOL0     C49024  11.313   3.496  11.811 -0.1236  0.6371 -0.4488
  364MOL0     C49025  11.394   3.447  11.930  0.2272 -0.8738  0.3361
  364MOL0     C49026  11.469   3.319  11.917 -0.2181  0.1886 -0.2209
  364MOL0     C49027  11.388   3.190  11.913 -0.3456 -0.3640  0.6679
  364MOL0     C49028  11.303   3.167  12.036 -0.0816  0.0310 -0.2012
  364MOL0     O49029  11.407   3.134  12.143 -0.1182 -0.9436  0.2792
  364MOL0     C49030  11.422   3.224  12.256  0.3405  0.1363 -0.2996
  364MOL0     C49031  11.346   3.336  12.283  0.2110  0.3836 -0.5103
  364MOL0     C49032  11.376   3.413  12.400  0.7943  0.3146  0.7820
  364MOL0     C49033  11.470   3.378  12.494 -0.3675  0.0312 -0.6589
  364MOL0     C49034  11.512   3.469  12.618  0.0790 -0.4739  0.7194
  364MOL0     O49035  11.607   3.419  12.706  0.1614  0.5500  0.5755
  364MOL0     C49036  11.675   3.500  12.794 -1.0148 -1.0348 -0.0617
  364MOL0     C49037  11.773   3.439  12.866  0.4622  0.2656  0.2645
  364MOL0     C49038  11.865   3.508  12.949  0.0695 -0.4939 -0.9334
  364MOL0     C49039  11.861   3.649  12.946  1.0931 -0.1058  1.0799
  364MOL0     O49040  11.965   3.709  13.004  0.1701  0.0796  0.1182
  364MOL0     C49041  11.963   3.848  13.056 -0.0946  0.4354  1.2917
  364MOL0     C49042  11.887   3.847  13.188 -0.9374 -0.7566 -0.7505
  364MOL0     C49043  11.947   3.746  13.295  0.1945 -1.1673  0.4918
  364MOL0     C49044  11.949   3.825  13.427 -0.0144 -0.1370  0.0790
  364MOL0     C49045  11.967   3.717  13.548 -0.5628 -1.0961  1.8673
  364MOL0     C49046  11.987   3.803  13.675 -0.9998  0.2702 -0.7548
  364MOL0     C49047  12.114   3.899  13.678 -0.1655  1.1869  0.7854
  364MOL0     C49048  12.158   3.933  13.818 -0.4449 -0.2833  0.0994
  364MOL0    Cl49049  12.319   4.009  13.814  0.1778 -0.1224  0.0286
  364MOL0     C49050  11.750   3.717  12.887  0.3463 -0.0996 -0.3278
  364MOL0     C49051  11.661   3.650  12.805  0.0030 -0.2172 -0.2462
  364MOL0     O49052  11.455   3.574  12.621  0.5151 -1.1449  0.1276
  364MOL0     C49053  11.543   3.260  12.463  0.6547 -0.6961  0.2297
  364MOL0     C49054  11.507   3.176  12.354 -0.4500 -0.0114  0.2475
  364MOL0     N49055  11.300   3.424  11.696  0.6812 -0.1689 -0.1386
  364MOL0     N49056  11.199   3.474  11.627  0.1990 -0.2067  0.7628
  364MOL0     C49057  11.081   2.858  11.564  0.6103  0.3322 -0.4214
  364MOL0     C49058  11.148   2.754  11.497 -0.0145 -0.7411  0.0943
  364MOL0     C49059  11.229   2.320  11.362  0.8549 -0.1085 -0.0330
  364MOL0     C49060  11.341   2.271  11.442  0.4797  0.0793 -0.4698
  364MOL0     C49061  11.386   2.143  11.461  0.8544  0.9935  0.2529
  364MOL0     C49062  11.325   2.051  11.372 -0.5077  0.7420 -0.8842
  364MOL0     O49063  11.373   1.921  11.369 -0.4358 -0.4188  0.4954
  364MOL0     C49064  11.430   1.872  11.250  0.4111 -0.8861  0.6289
  364MOL0     C49065  11.581   1.912  11.248  1.0682  0.4557  0.5936
  364MOL0     C49066  11.628   1.931  11.102  0.1731  0.2986 -0.0765
  364MOL0     C49067  11.587   2.076  11.055 -0.2017  0.1538  0.4888
  364MOL0     C49068  11.613   2.094  10.903 -0.5134  0.7306 -0.5359
  364MOL0     C49069  11.645   2.098  10.787 -0.1962  0.1019 -0.1434
  364MOL0     C49070  11.221   2.092  11.284 -0.5237  0.1890 -0.4417
  364MOL0     C49071  11.171   2.220  11.281 -0.1024  0.1284 -0.0058
  364MOL0     C49072  11.070   2.246  11.171 -0.2771  0.6245  0.3439
  364MOL0     H49073  11.093   2.500  11.704 -2.3467  0.0750  1.5681
  364MOL0     H49074  11.001   2.656  11.832  1.9003 -4.9293 -1.4000
  364MOL0     H49075  10.956   3.105  11.815 -0.8770 -2.0742  1.9790
  364MOL0     H49076  10.949   3.079  11.636 -0.8510 -0.9087 -1.0522
  364MOL0     H49077  10.736   3.004  11.823  0.6062 -0.8018  0.2064
  364MOL0     H49078  10.728   3.010  11.646 -0.2761  1.5483 -0.5171
  364MOL0     H49079  10.601   3.207  11.711 -0.8240 -5.8900  1.5366
  364MOL0     H49080  10.758   3.264  11.660 -3.4623  3.1799  1.4329
  364MOL0     H49081  10.648   3.243  11.942 -0.6309  0.4247 -1.2612
  364MOL0     H49082  10.812   3.279  11.913  0.9955  1.7207 -1.6029
  364MOL0     H49083  10.572   3.433  11.795 -0.0092  3.7383 -2.2705
  364MOL0     H49084  10.676   3.492  11.925 -0.5507 -0.0225 -0.3045
  364MOL0     H49085  10.752   3.482  11.629 -0.0238  0.5393  0.0577
  364MOL0     H49086  10.736   3.616  11.733  1.9872  1.0738 -1.8853
  364MOL0     H49087  10.948   3.392  11.745  1.9892  0.5508 -0.0817
  364MOL0     H49088  10.918   3.522  11.870 -2.1437  0.0778  0.0910
  364MOL0     H49089  10.976   3.601  11.578 -1.4671  0.7206  0.8062
  364MOL0     H49090  10.981   3.696  11.722 -0.5894 -0.7876 -0.0219
  364MOL0     H49091  11.190   3.666  11.898  0.2525  0.2884 -0.3776
  364MOL0     H49092  11.462   3.526  11.962 -0.5532 -0.7951  1.9473
  364MOL0     H49093  11.333   3.448  12.022 -1.0126  1.7996 -0.4240
  364MOL0     H49094  11.527   3.331  11.825  0.2930  2.8591  0.3728
  364MOL0     H49095  11.549   3.310  11.991 -0.0155 -1.3929 -0.5762
  364MOL0     H49096  11.445   3.097  11.916 -0.6573 -0.5780  0.0416
  364MOL0     H49097  11.336   3.192  11.817 -1.4136 -2.2257  1.1524
  364MOL0     H49098  11.253   3.073  12.011  2.9570 -1.4055 -1.4206
  364MOL0     H49099  11.244   3.257  12.055  2.0655  1.8342 -1.5388
  364MOL0     H49100  11.250   3.361  12.239 -1.1161 -0.6202  1.6059
  364MOL0     H49101  11.312   3.498  12.418  0.5920 -0.0032  1.5683
  364MOL0     H49102  11.782   3.331  12.865 -0.1451  0.1789  1.5694
  364MOL0     H49103  11.935   3.450  13.009  0.0293  0.6016  0.2149
  364MOL0     H49104  12.066   3.873  13.083  1.1598  0.3322 -2.7488
  364MOL0     H49105  11.916   3.920  12.989 -0.7667 -0.5182  0.7016
  364MOL0     H49106  11.878   3.950  13.223  0.4597 -0.2918 -1.6788
  364MOL0     H49107  11.791   3.799  13.165 -0.9364  0.0185 -2.5860
  364MOL0     H49108  11.891   3.652  13.302  1.7598 -2.2890 -1.0470
  364MOL0     H49109  12.046   3.705  13.271  1.9783  0.9560  3.6098
  364MOL0     H49110  11.859   3.883  13.447 -1.6257 -1.9396 -1.5509
  364MOL0     H49111  12.032   3.896  13.431  0.1200 -0.3560  1.7021
  364MOL0     H49112  12.052   3.652  13.526 -1.0526 -1.0680 -0.3170
  364MOL0     H49113  11.879   3.652  13.550 -0.0374 -1.8607  1.0906
  364MOL0     H49114  11.893   3.854  13.691 -0.1867  1.9767 -1.2150
  364MOL0     H49115  12.007   3.740  13.762  0.9067 -0.7171 -1.8374
  364MOL0     H49116  12.082   3.988  13.622 -1.0590  1.9767  2.4722
  364MOL0     H49117  12.194   3.865  13.612 -1.3770  2.5323 -1.5198
  364MOL0     H49118  12.091   4.011  13.855  0.4805  0.2206  0.7442
  364MOL0     H49119  12.150   3.850  13.889 -1.2265  0.9857  1.5561
  364MOL0     H49120  11.740   3.825  12.897  4.8609  0.3992  0.7981
  364MOL0     H49121  11.570   3.694  12.766  0.0816  0.5206  0.3828
  364MOL0     H49122  11.624   3.230  12.527  0.9140  0.5541  0.5149
  364MOL0     H49123  11.558   3.081  12.343 -0.7700 -0.2373  0.6939
  364MOL0     H49124  11.054   2.952  11.517 -1.0628  1.5423  2.6634
  364MOL0     H49125  11.197   2.764  11.401 -0.3260 -3.4868 -0.4527
  364MOL0     H49126  11.387   2.343  11.508 -0.3117  1.8164 -1.7239
  364MOL0     H49127  11.461   2.113  11.533  1.2236 -0.7451 -0.7832
  364MOL0     H49128  11.378   1.901  11.157  2.6421 -0.8041 -0.6586
  364MOL0     H49129  11.429   1.764  11.268 -2.8991 -1.1812 -0.5085
  364MOL0     H49130  11.635   1.830  11.296 -1.2468 -1.6763 -0.2035
  364MOL0     H49131  11.589   2.006  11.305 -2.3961  1.1277  0.1943
  364MOL0     H49132  11.577   1.859  11.036 -0.2940  0.7287 -0.1938
  364MOL0     H49133  11.733   1.920  11.076  0.1387  1.0894 -0.5729
  364MOL0     H49134  11.484   2.093  11.087 -0.8698 -0.5207 -1.1800
  364MOL0     H49135  11.652   2.140  11.116 -3.1534  1.4784  2.4430
  364MOL0     H49136  11.678   2.106  10.685 -0.1298  0.7122 -0.0762
  364MOL0     H49137  11.180   2.008  11.230 -1.1642  0.1268  0.1343
  364MOL0     H49138  11.123   2.320  11.111  0.3938  1.0980  1.4897
  364MOL0     H49139  11.040   2.153  11.121  0.8397  0.0569  0.6837
  364MOL0     H49140  10.981   2.298  11.210 -1.7996 -0.7508 -1.1163
  365MOL0     O49141   5.335   9.569   8.616 -0.4353 -0.3500  0.5976
  365MOL0     C49142   5.462   9.602   8.606  0.1391  0.7184  0.6442
  365MOL0     O49143   5.515   9.671   8.505 -0.2715 -0.0114  0.3718
  365MOL0     C49144   5.433   9.734   8.411 -1.0966 -0.4095  0.1424
  365MOL0     C49145   5.425   9.695   8.279 -0.5240  0.0965 -0.1788
  365MOL0     C49146   5.346   9.774   8.192  0.0634 -0.4947  0.4219
  365MOL0     C49147   5.293   9.896   8.234  0.1855 -0.1523  0.6106
  365MOL0     O49148   5.228   9.968   8.139 -0.0763  0.9761  0.4672
  365MOL0     C49149   5.147  10.078   8.178 -0.6667  0.0222  0.6625
  365MOL0     C49150   5.142  10.170   8.072 -0.1462 -1.0818  0.1418
  365MOL0     C49151   5.079  10.296   8.126  0.3925 -0.3095 -0.3644
  365MOL0     C49152   5.069  10.412   8.025  0.1174 -0.2510  0.2387
  365MOL0     C49153   5.068  10.557   8.078  0.0877 -0.2173 -0.1406
  365MOL0     C49154   5.055  10.654   7.967  0.4375 -0.0355  0.4420
  365MOL0     C49155   5.023  10.785   8.035 -0.1524  1.2561 -0.9251
  365MOL0     C49156   5.018  10.896   7.936 -0.0780 -0.1233  0.8692
  365MOL0     N49157   5.148  10.929   7.868  0.2293 -0.3935  0.0265
  365MOL0     C49158   5.247  10.979   7.943 -0.1371  0.8704 -0.4887
  365MOL0     C49159   5.355  10.967   7.858 -1.3060 -0.1930  0.4838
  365MOL0     C49160   5.492  11.017   7.875 -0.5283  0.4693 -0.6549
  365MOL0     C49161   5.588  10.923   7.964  0.7820 -0.3324 -0.7540
  365MOL0     C49162   5.517  10.869   8.095  0.3712 -0.7531  0.4064
  365MOL0     C49163   5.496  10.988   8.191 -0.3144  1.1140  0.6849
  365MOL0     O49164   5.626  11.002   8.250  1.2411  0.6787  0.9348
  365MOL0     C49165   5.657  11.123   8.306 -0.7204 -0.1541  0.3550
  365MOL0     C49166   5.561  11.212   8.344  0.1267  0.0616  0.6810
  365MOL0     C49167   5.605  11.335   8.413  0.6710  0.5427  1.0170
  365MOL0     C49168   5.747  11.360   8.427  0.1170 -0.0400  0.0335
  365MOL0     C49169   5.795  11.492   8.479  0.2783  0.2376  0.8261
  365MOL0     O49170   5.912  11.499   8.532 -0.4486 -0.3324 -0.6651
  365MOL0     C49171   5.973  11.619   8.563 -0.4596 -0.5084  0.0012
  365MOL0     C49172   5.966  11.740   8.484  0.1281  1.0933 -0.8472
  365MOL0     C49173   6.034  11.863   8.523  0.4675 -0.1072 -0.5103
  365MOL0     C49174   6.125  11.855   8.634 -0.6622 -0.6817  0.6307
  365MOL0     O49175   6.196  11.973   8.663  0.1358  0.3465 -0.4606
  365MOL0     C49176   6.278  11.980   8.783  0.3973 -0.4378 -0.5311
  365MOL0     C49177   6.349  12.119   8.793 -0.5683  0.5941 -0.0111
  365MOL0     C49178   6.265  12.232   8.848 -0.8785  0.5058 -0.0141
  365MOL0     C49179   6.190  12.312   8.740 -0.7779  0.0443  0.5389
  365MOL0     C49180   6.089  12.419   8.785 -0.2083 -0.3432 -0.0438
  365MOL0     C49181   5.975  12.350   8.872  0.3574 -0.3414  0.1216
  365MOL0     C49182   5.904  12.233   8.798 -0.0656  0.8338 -0.8841
  365MOL0     C49183   5.804  12.167   8.889  0.1741 -0.8084 -0.6467
  365MOL0    Cl49184   5.689  12.288   8.954 -0.0868 -0.2545 -0.0389
  365MOL0     C49185   6.141  11.732   8.707  0.2069 -0.4546  0.0732
  365MOL0     C49186   6.055  11.624   8.676  0.3605  0.4263 -0.3615
  365MOL0     O49187   5.712  11.585   8.463 -0.5030  0.0859 -0.0874
  365MOL0     C49188   5.835  11.266   8.378  0.3723  0.7240 -0.4385
  365MOL0     C49189   5.790  11.149   8.317 -0.3065  0.6836  0.4356
  365MOL0     N49190   5.311  10.899   7.752  0.1939 -0.1726  0.4710
  365MOL0     N49191   5.189  10.875   7.753  0.2000 -0.1813  0.7225
  365MOL0     C49192   5.282   9.922   8.373 -0.2127 -0.1918 -0.1596
  365MOL0     C49193   5.362   9.844   8.457  0.6206 -0.4554  0.0011
  365MOL0     C49194   5.578   9.557   8.691 -0.3824 -0.0969 -0.0264
  365MOL0     C49195   5.713   9.545   8.640  0.3366  0.1573  0.1304
  365MOL0     C49196   5.825   9.486   8.706 -0.1971  0.6693  1.1484
  365MOL0     C49197   5.791   9.430   8.830 -0.5316  0.5200  0.2698
  365MOL0     O49198   5.874   9.374   8.919 -0.8050  0.3274 -0.0360
  365MOL0     C49199   6.009   9.378   8.884 -0.9755 -0.0591  0.1504
  365MOL0     C49200   6.109   9.312   8.985  0.1467  0.2342 -0.1002
  365MOL0     C49201   6.253   9.323   8.925  1.2910 -0.0523 -0.3315
  365MOL0     C49202   6.362   9.228   8.978 -0.1075  0.2596 -0.0803
  365MOL0     C49203   6.316   9.085   8.977 -0.0203 -0.7929  0.2115
  365MOL0     C49204   6.292   8.967   8.976  0.0540  0.2759  0.5172
  365MOL0     C49205   5.658   9.440   8.880 -0.0704 -0.0465 -0.4907
  365MOL0     C49206   5.552   9.494   8.810 -0.3643 -0.2275 -0.2726
  365MOL0     C49207   5.414   9.472   8.879 -1.1855  0.0139  0.1187
  365MOL0     H49208   5.471   9.605   8.238 -2.1000  0.7754 -3.7262
  365MOL0     H49209   5.346   9.748   8.086 -0.7759  0.2142  0.2399
  365MOL0     H49210   5.044  10.047   8.201 -0.1953  0.1431  3.2477
  365MOL0     H49211   5.185  10.131   8.266  5.2387  3.6722 -3.4317
  365MOL0     H49212   5.074  10.128   7.997 -0.5922  1.0898 -0.7322
  365MOL0     H49213   5.241  10.196   8.033  0.0558 -0.2560  1.1509
  365MOL0     H49214   5.132  10.340   8.211  0.3850  2.2426 -1.5899
  365MOL0     H49215   4.984  10.272   8.175  1.1082 -0.6153  0.9434
  365MOL0     H49216   5.156  10.413   7.959 -0.0138  0.8417  0.0677
  365MOL0     H49217   4.983  10.392   7.960  0.4288 -0.6195 -0.0675
  365MOL0     H49218   4.999  10.567   8.162  1.5738  3.3979  0.8411
  365MOL0     H49219   5.169  10.582   8.112 -0.7340  0.0363  2.2853
  365MOL0     H49220   5.153  10.658   7.918  0.1744 -1.4685 -0.2510
  365MOL0     H49221   4.983  10.615   7.894 -0.9310  1.5440  0.8892
  365MOL0     H49222   5.104  10.809   8.106  0.8981 -3.2695 -0.2050
  365MOL0     H49223   4.926  10.781   8.086 -0.5234  0.9112 -1.6446
  365MOL0     H49224   4.950  10.858   7.858  1.3066  1.6795 -1.3569
  365MOL0     H49225   4.964  10.982   7.976  0.2994  0.3254  0.4365
  365MOL0     H49226   5.222  11.024   8.038 -1.6834  1.3701 -1.0930
  365MOL0     H49227   5.532  11.012   7.773  0.3667 -0.0417 -0.2967
  365MOL0     H49228   5.496  11.123   7.900 -0.3210  0.1214  0.9217
  365MOL0     H49229   5.628  10.836   7.911  3.0629  0.9473 -1.2278
  365MOL0     H49230   5.677  10.979   7.991 -0.0704  1.5823 -1.7274
  365MOL0     H49231   5.581  10.785   8.124  1.2352 -1.8459 -3.9513
  365MOL0     H49232   5.420  10.827   8.068 -0.1649  2.4657 -3.5861
  365MOL0     H49233   5.425  10.963   8.270 -1.4240 -0.9167 -0.8191
  365MOL0     H49234   5.456  11.065   8.124 -2.7440 -1.1302 -0.6496
  365MOL0     H49235   5.454  11.205   8.333  0.0594  2.9806 -1.8116
  365MOL0     H49236   5.533  11.408   8.449  2.4057  2.1420  1.3695
  365MOL0     H49237   5.902  11.756   8.398 -1.6796  1.3818  0.4996
  365MOL0     H49238   6.016  11.954   8.466  1.1853 -1.2262 -2.6333
  365MOL0     H49239   6.204  11.961   8.861 -0.7027  2.7524 -0.6736
  365MOL0     H49240   6.352  11.899   8.782 -0.2501 -1.0892 -2.4261
  365MOL0     H49241   6.433  12.105   8.862 -1.0431 -1.9807  0.1397
  365MOL0     H49242   6.398  12.138   8.697 -2.3916  0.0717 -1.0833
  365MOL0     H49243   6.192  12.179   8.910  0.2689  0.9659  1.7944
  365MOL0     H49244   6.321  12.295   8.917 -3.3843  1.6760  1.0723
  365MOL0     H49245   6.142  12.257   8.659  1.5234  0.6087 -1.3209
  365MOL0     H49246   6.275  12.366   8.697 -0.1402 -0.5164  1.0612
  365MOL0     H49247   6.056  12.466   8.692  1.5648  2.8431  0.7730
  365MOL0     H49248   6.139  12.501   8.837  1.7307 -1.3729 -0.1752
  365MOL0     H49249   6.009  12.314   8.969  2.4801 -3.3099 -1.5611
  365MOL0     H49250   5.895  12.421   8.896 -0.8891 -1.2152 -1.2303
  365MOL0     H49251   5.967  12.147   8.773 -0.5877  0.1670  0.0216
  365MOL0     H49252   5.861  12.264   8.703  0.2517 -0.2062 -1.3849
  365MOL0     H49253   5.754  12.083   8.839  0.6213 -0.5454 -1.5693
  365MOL0     H49254   5.853  12.136   8.981 -1.0897 -2.5905 -0.5046
  365MOL0     H49255   6.222  11.707   8.774 -0.2534 -0.8204  0.5025
  365MOL0     H49256   6.065  11.534   8.736 -1.2272  0.9044  0.6662
  365MOL0     H49257   5.943  11.279   8.384  0.5598  0.9099 -2.8778
  365MOL0     H49258   5.864  11.093   8.261 -0.7704  0.9610 -0.4751
  365MOL0     H49259   5.225  10.005   8.415 -0.4890  1.4740 -3.5071
  365MOL0     H49260   5.370   9.879   8.559 -2.5805 -1.4098  0.6846
  365MOL0     H49261   5.732   9.604   8.550  3.0310 -0.1971  0.3822
  365MOL0     H49262   5.929   9.496   8.678 -0.4150  4.5053  1.0922
  365MOL0     H49263   6.041   9.482   8.874  1.4528 -0.8493 -1.2856
  365MOL0     H49264   6.012   9.314   8.795  0.8660 -0.9376  0.7810
  365MOL0     H49265   6.083   9.206   8.988 -0.6686  0.3974 -1.0084
  365MOL0     H49266   6.115   9.360   9.083  0.8950 -1.5616  0.7709
  365MOL0     H49267   6.291   9.425   8.936 -0.8500  0.8874 -1.1386
  365MOL0     H49268   6.239   9.292   8.821  0.9554 -0.8567 -0.0492
  365MOL0     H49269   6.448   9.230   8.910 -0.0660 -1.8817 -0.1397
  365MOL0     H49270   6.381   9.265   9.079 -1.3526 -1.2151  0.7393
  365MOL0     H49271   6.288   8.861   8.983  2.4736 -0.3217 -3.4253
  365MOL0     H49272   5.629   9.389   8.971  1.9812  1.9457  1.3937
  365MOL0     H49273   5.421   9.397   8.959 -2.8900 -1.0793 -0.6857
  365MOL0     H49274   5.386   9.568   8.924  1.3327  1.7393 -1.7508
  365MOL0     H49275   5.344   9.422   8.811  0.7530 -6.4847  2.2034
  366MOL0     O49276   5.057   6.260   0.405 -0.3917  1.1658 -0.3549
  366MOL0     C49277   5.167   6.216   0.432 -0.2275  0.4570 -0.2579
  366MOL0     O49278   5.274   6.288   0.463  0.0228 -0.3195 -0.5439
  366MOL0     C49279   5.383   6.224   0.513 -0.1185  1.0661  0.1513
  366MOL0     C49280   5.515   6.259   0.466  0.3324 -0.1111 -0.6126
  366MOL0     C49281   5.637   6.219   0.522  1.0099  1.1686  0.2843
  366MOL0     C49282   5.622   6.117   0.624 -0.1575 -0.9912  0.9242
  366MOL0     O49283   5.725   6.056   0.688  0.1795  0.3059  0.0370
  366MOL0     C49284   5.757   6.133   0.808  0.9206 -0.1248 -0.0002
  366MOL0     C49285   5.874   6.070   0.876  0.4850 -0.4615  0.2724
  366MOL0     C49286   5.991   6.157   0.848 -0.1528 -0.1429  1.0073
  366MOL0     C49287   6.118   6.129   0.913  0.5246  0.0338  0.3323
  366MOL0     C49288   6.234   6.151   0.818  0.1468 -0.7033 -0.3951
  366MOL0     C49289   6.263   6.307   0.788 -0.5289 -0.0614  0.3508
  366MOL0     C49290   6.299   6.336   0.644  0.1999 -0.3717 -0.3364
  366MOL0     C49291   6.423   6.263   0.592  0.1531  0.5121 -0.5199
  366MOL0     N49292   6.539   6.346   0.568  0.5825  0.4112  0.7518
  366MOL0     C49293   6.541   6.423   0.455  0.0269  0.0604  0.9531
  366MOL0     C49294   6.639   6.519   0.485  0.5492  0.4896  0.7002
  366MOL0     C49295   6.671   6.636   0.403 -0.2372  0.2690  0.4205
  366MOL0     C49296   6.669   6.612   0.252  0.8275  0.1415  0.1779
  366MOL0     C49297   6.793   6.538   0.193 -0.3520  0.2915 -0.1987
  366MOL0     C49298   6.740   6.459   0.077  0.0203 -0.4314  0.3602
  366MOL0     O49299   6.694   6.549  -0.026  0.5502  0.1495  0.0741
  366MOL0     C49300   6.678   6.501  -0.153 -0.6924  0.5088  0.3434
  366MOL0     C49301   6.645   6.597  -0.248 -0.7900  0.8079 -1.0708
  366MOL0     C49302   6.589   6.561  -0.367  0.3565 -0.2625  0.2737
  366MOL0     C49303   6.572   6.428  -0.400  0.0859  0.0428  0.6161
  366MOL0     C49304   6.520   6.382  -0.531  0.1557 -0.0969  0.9726
  366MOL0     O49305   6.529   6.238  -0.557 -0.2438  0.0400 -0.0744
  366MOL0     C49306   6.493   6.174  -0.673 -0.0618 -0.2456 -0.1432
  366MOL0     C49307   6.453   6.039  -0.666  0.8311 -0.4357  1.0546
  366MOL0     C49308   6.440   5.966  -0.789 -0.3242  0.5688 -0.0568
  366MOL0     C49309   6.449   6.031  -0.914  0.6364  0.3162 -0.6788
  366MOL0     O49310   6.441   5.974  -1.041 -0.3020  0.7039 -0.4247
  366MOL0     C49311   6.429   5.835  -1.054 -0.5661  0.5390  0.1062
  366MOL0     C49312   6.282   5.793  -1.064 -0.4365  1.8157 -0.6822
  366MOL0     C49313   6.176   5.881  -1.130 -0.3674 -0.0635 -0.5244
  366MOL0     C49314   6.057   5.806  -1.190 -0.7435  1.7262  0.2639
  366MOL0     C49315   5.941   5.895  -1.227 -0.1629 -0.9026 -0.3009
  366MOL0     C49316   5.854   5.837  -1.340  0.6206  0.0404 -1.0513
  366MOL0     C49317   5.789   5.703  -1.296 -0.0473 -0.6955  0.9442
  366MOL0     C49318   5.667   5.678  -1.384 -0.5803 -0.3101 -0.1215
  366MOL0    Cl49319   5.624   5.512  -1.346  0.2481  0.2160 -0.3789
  366MOL0     C49320   6.475   6.164  -0.907  0.4922 -0.4409 -1.1930
  366MOL0     C49321   6.510   6.236  -0.792  0.4051  0.4683  0.1824
  366MOL0     O49322   6.449   6.454  -0.601  0.2839  0.0681  0.5498
  366MOL0     C49323   6.625   6.333  -0.311  0.0390  0.4506 -1.2785
  366MOL0     C49324   6.670   6.371  -0.187  0.3088 -0.3261 -0.2847
  366MOL0     N49325   6.703   6.489   0.604 -0.3285 -0.5979  0.1637
  366MOL0     N49326   6.638   6.387   0.657  0.0155 -0.0835  0.1267
  366MOL0     C49327   5.495   6.079   0.661  0.6034 -0.2092  0.2865
  366MOL0     C49328   5.373   6.135   0.612 -1.1262 -0.1824 -0.6523
  366MOL0     C49329   5.182   6.071   0.398  0.1649 -0.9720  0.4673
  366MOL0     C49330   5.103   5.978   0.461  0.5797  0.1874 -0.6884
  366MOL0     C49331   5.123   5.843   0.431  0.4003  0.9579 -0.2057
  366MOL0     C49332   5.214   5.797   0.335  0.7954  0.1706  1.1081
  366MOL0     O49333   5.203   5.664   0.296  0.0278 -0.1166  0.3045
  366MOL0     C49334   5.303   5.613   0.204  0.2890 -0.8319 -0.2419
  366MOL0     C49335   5.299   5.468   0.170  0.4343  0.5971  0.3273
  366MOL0     C49336   5.418   5.429   0.081 -0.7450 -0.2061  0.5810
  366MOL0     C49337   5.430   5.275   0.063 -0.9726 -0.4570  0.1539
  366MOL0     C49338   5.554   5.242  -0.014 -0.3659 -0.3849 -0.5709
  366MOL0     C49339   5.664   5.223  -0.057 -0.2488  0.4229  0.0597
  366MOL0     C49340   5.282   5.895   0.270 -0.6914  1.2734 -0.4111
  366MOL0     C49341   5.267   6.036   0.289  0.7030 -0.9844 -0.8673
  366MOL0     C49342   5.311   6.141   0.193 -1.2407  0.0947 -0.0818
  366MOL0     H49343   5.522   6.337   0.391 -3.9379  1.2290  0.0729
  366MOL0     H49344   5.732   6.268   0.503  1.8854 -0.2161  0.8851
  366MOL0     H49345   5.773   6.240   0.798  1.5530  0.0343  2.2519
  366MOL0     H49346   5.674   6.119   0.878  1.0431 -2.0264 -0.1765
  366MOL0     H49347   5.891   5.963   0.859  1.9658  0.1295 -2.3963
  366MOL0     H49348   5.849   6.077   0.982 -0.8946  1.7130 -0.1530
  366MOL0     H49349   5.962   6.258   0.880 -1.4281 -0.4901  1.0048
  366MOL0     H49350   6.006   6.158   0.740  1.9182  0.3709  1.2532
  366MOL0     H49351   6.137   6.182   1.007 -1.2583 -0.3183  0.9418
  366MOL0     H49352   6.113   6.026   0.950 -0.3177  0.8136  2.6198
  366MOL0     H49353   6.328   6.120   0.865  0.1732 -0.1805 -0.0950
  366MOL0     H49354   6.216   6.093   0.727  2.3468 -0.8091 -0.8024
  366MOL0     H49355   6.169   6.359   0.807 -1.3868 -1.1868 -0.6056
  366MOL0     H49356   6.348   6.342   0.847 -0.2175  0.8541 -0.6006
  366MOL0     H49357   6.314   6.443   0.628 -0.5262 -0.3604 -1.0198
  366MOL0     H49358   6.214   6.306   0.582  1.4996  1.0955 -3.0114
  366MOL0     H49359   6.448   6.185   0.664 -2.8123  0.4471  0.5422
  366MOL0     H49360   6.397   6.203   0.504 -0.3211  0.9361 -0.6730
  366MOL0     H49361   6.490   6.413   0.359 -1.7584 -0.7827  1.9465
  366MOL0     H49362   6.601   6.718   0.425  0.8852  2.1744 -2.5217
  366MOL0     H49363   6.773   6.658   0.435 -0.0290 -2.3421  1.7925
  366MOL0     H49364   6.578   6.562   0.219  1.0365  1.1699 -2.1603
  366MOL0     H49365   6.664   6.711   0.206 -2.7167  0.9702  1.9869
  366MOL0     H49366   6.826   6.469   0.272 -2.3058  0.0007  0.4273
  366MOL0     H49367   6.879   6.603   0.174  0.6100 -0.5743  1.0282
  366MOL0     H49368   6.665   6.387   0.110  2.4298 -2.3262  2.0876
  366MOL0     H49369   6.823   6.396   0.044 -1.6534 -1.1289 -2.9901
  366MOL0     H49370   6.672   6.702  -0.235  1.8358  0.1555 -0.5818
  366MOL0     H49371   6.582   6.644  -0.436 -0.6647  1.8713  2.7691
  366MOL0     H49372   6.443   5.986  -0.571 -0.3090 -0.7922  0.7524
  366MOL0     H49373   6.430   5.860  -0.771 -2.3221  0.3729 -1.9545
  366MOL0     H49374   6.465   5.798  -1.151 -2.9386  0.3590 -0.7772
  366MOL0     H49375   6.476   5.784  -0.970 -1.2103  2.2112  1.5461
  366MOL0     H49376   6.283   5.697  -1.116  1.5549  0.9967  0.7257
  366MOL0     H49377   6.249   5.757  -0.966  0.1420 -0.6886 -1.3480
  366MOL0     H49378   6.136   5.945  -1.051 -0.2254 -0.8480  0.2044
  366MOL0     H49379   6.224   5.947  -1.202 -1.1714  2.2227  0.9286
  366MOL0     H49380   6.024   5.729  -1.119 -0.7948  1.4582 -0.0542
  366MOL0     H49381   6.083   5.764  -1.287 -5.0830 -2.2697  0.4743
  366MOL0     H49382   5.991   5.983  -1.268 -0.6553  0.2998  1.5668
  366MOL0     H49383   5.889   5.928  -1.138  0.5131 -0.7555  0.0430
  366MOL0     H49384   5.785   5.904  -1.393  0.2844  0.6030  0.0671
  366MOL0     H49385   5.922   5.812  -1.422  0.2760  0.9399 -1.6296
  366MOL0     H49386   5.759   5.705  -1.191 -0.1961 -1.6898  0.9229
  366MOL0     H49387   5.867   5.627  -1.300  0.0777 -0.6992  2.6767
  366MOL0     H49388   5.580   5.741  -1.363 -0.5113  0.2447 -1.3740
  366MOL0     H49389   5.686   5.689  -1.492  2.9919  1.0354  0.5294
  366MOL0     H49390   6.473   6.212  -1.005  1.0561 -0.6559 -1.3171
  366MOL0     H49391   6.542   6.339  -0.801  1.2862  0.0566 -1.9642
  366MOL0     H49392   6.623   6.226  -0.325 -1.2529  0.1050  1.0321
  366MOL0     H49393   6.698   6.292  -0.118  1.0363  1.9837  2.2585
  366MOL0     H49394   5.482   6.018   0.750  0.0413  2.7726  2.4211
  366MOL0     H49395   5.272   6.122   0.649 -1.0139 -1.3498 -0.7191
  366MOL0     H49396   5.037   6.020   0.536  1.8159  0.5961  0.2017
  366MOL0     H49397   5.057   5.774   0.482  1.4748 -0.5490 -0.8053
  366MOL0     H49398   5.401   5.649   0.238 -1.6641  0.8852  4.2548
  366MOL0     H49399   5.286   5.664   0.109 -0.8804 -1.9322 -0.6395
  366MOL0     H49400   5.205   5.443   0.120  2.1292  0.5357 -3.1086
  366MOL0     H49401   5.307   5.415   0.266  0.5677  0.6515  0.3459
  366MOL0     H49402   5.515   5.461   0.121 -0.6730 -0.8009  0.8972
  366MOL0     H49403   5.413   5.487  -0.012 -5.5355 -0.0796  0.7068
  366MOL0     H49404   5.432   5.236   0.165  2.8844  0.2545  0.4982
  366MOL0     H49405   5.349   5.218   0.015 -0.4289 -1.6789  0.6662
  366MOL0     H49406   5.767   5.230  -0.087 -0.9371 -1.8851 -3.4573
  366MOL0     H49407   5.352   5.876   0.190 -1.9166 -0.4600 -1.1281
  366MOL0     H49408   5.413   6.170   0.221 -1.8472  1.7778  0.5383
  366MOL0     H49409   5.320   6.093   0.095  1.3309 -0.3727  0.3319
  366MOL0     H49410   5.248   6.231   0.194  2.5557  2.9869 -0.2702
  367MOL0     O49411   3.976   7.165   3.069 -0.5439  0.9962  0.0401
  367MOL0     C49412   3.953   7.119   2.962  0.4389  0.0454 -0.2142
  367MOL0     O49413   3.831   7.122   2.892  0.5293 -0.0181 -0.0457
  367MOL0     C49414   3.726   7.154   2.974  0.1206 -0.7010  0.1946
  367MOL0     C49415   3.684   7.085   3.088 -0.3820  0.5159 -0.0196
  367MOL0     C49416   3.553   7.104   3.136 -0.3928 -0.1790  0.3300
  367MOL0     C49417   3.475   7.213   3.102 -0.1499 -0.2029 -0.0568
  367MOL0     O49418   3.354   7.219   3.168 -0.7573 -0.9213 -0.6180
  367MOL0     C49419   3.276   7.337   3.138 -0.0554  0.0637 -0.0427
  367MOL0     C49420   3.166   7.367   3.234  1.0705  0.7734 -0.3166
  367MOL0     C49421   3.064   7.251   3.242 -0.1976 -0.5899 -1.2334
  367MOL0     C49422   2.949   7.282   3.342 -0.2552  0.0226 -0.2683
  367MOL0     C49423   2.822   7.202   3.325  0.1132 -0.1794  0.5983
  367MOL0     C49424   2.716   7.223   3.426 -0.2223 -0.7804 -0.1188
  367MOL0     C49425   2.582   7.154   3.396  0.2050 -0.0643  0.6829
  367MOL0     C49426   2.598   7.007   3.448  0.4959 -0.6921 -0.2097
  367MOL0     N49427   2.490   6.913   3.435 -0.3638  0.2843 -0.2239
  367MOL0     C49428   2.366   6.940   3.477  0.9520 -0.0801  0.0051
  367MOL0     C49429   2.281   6.843   3.429 -0.2209  1.0362 -0.1679
  367MOL0     C49430   2.129   6.852   3.412 -1.0973 -0.5056 -0.3551
  367MOL0     C49431   2.064   6.761   3.522  0.1508  1.6698 -0.0598
  367MOL0     C49432   2.045   6.830   3.662  0.4131  1.2169  0.3513
  367MOL0     C49433   1.988   6.735   3.765 -0.5078 -0.6052  0.0007
  367MOL0     O49434   2.059   6.621   3.768 -0.5164  1.2533 -0.2319
  367MOL0     C49435   2.013   6.511   3.835  0.8793 -0.1320 -1.1871
  367MOL0     C49436   1.908   6.509   3.932  0.3620 -0.2217  0.7371
  367MOL0     C49437   1.867   6.378   3.982 -0.1699 -0.1453 -0.4650
  367MOL0     C49438   1.915   6.253   3.939 -0.8827 -2.0648 -0.1804
  367MOL0     C49439   1.867   6.122   3.979 -0.3989 -0.4869  0.3189
  367MOL0     O49440   1.741   6.109   4.033  0.1532 -0.9359  0.3517
  367MOL0     C49441   1.700   5.998   4.109 -0.1609  0.6000 -0.6249
  367MOL0     C49442   1.785   5.895   4.154  0.3847  0.2789 -0.5721
  367MOL0     C49443   1.735   5.782   4.219 -0.2171 -0.4750  0.1750
  367MOL0     C49444   1.600   5.765   4.247  0.5529  0.2825  0.0595
  367MOL0     O49445   1.547   5.649   4.297 -0.2944 -0.0586 -0.4189
  367MOL0     C49446   1.617   5.526   4.280  0.2510  0.9169  0.3370
  367MOL0     C49447   1.664   5.477   4.421  0.1105 -0.1895  0.1591
  367MOL0     C49448   1.541   5.465   4.513  0.2807 -0.3150 -0.2551
  367MOL0     C49449   1.554   5.349   4.606  0.1611  0.9972 -0.0137
  367MOL0     C49450   1.478   5.234   4.563 -0.7414  0.7800  0.0736
  367MOL0     C49451   1.522   5.178   4.435 -0.7427  0.0910  0.9284
  367MOL0     C49452   1.440   5.046   4.408  0.5766  0.2847 -0.2934
  367MOL0     C49453   1.424   4.942   4.521  0.7481  0.0661 -0.0629
  367MOL0    Cl49454   1.575   4.883   4.578 -0.1376 -0.1481 -0.2501
  367MOL0     C49455   1.517   5.872   4.212 -0.0072  0.0220  1.5469
  367MOL0     C49456   1.560   5.985   4.144  0.2608 -0.8382  0.3382
  367MOL0     O49457   1.939   6.032   3.947 -0.3146 -0.7939 -0.0395
  367MOL0     C49458   2.027   6.268   3.843  0.3703  1.0713  0.2571
  367MOL0     C49459   2.071   6.390   3.796 -0.8272 -0.1181 -0.0463
  367MOL0     N49460   2.362   6.754   3.353 -0.1201 -0.4211  0.7309
  367MOL0     N49461   2.489   6.794   3.359  1.1478 -0.1852 -0.0146
  367MOL0     C49462   3.526   7.299   3.004 -0.9734 -0.6587 -0.2136
  367MOL0     C49463   3.649   7.274   2.936 -1.1907  0.4068 -0.0634
  367MOL0     C49464   4.069   7.071   2.877  0.5744  0.2820  1.0705
  367MOL0     C49465   4.095   6.932   2.882 -1.0958  0.3127  0.1982
  367MOL0     C49466   4.204   6.879   2.807  0.3806  0.1135  0.6522
  367MOL0     C49467   4.273   6.953   2.716  0.6214  0.3713  0.2910
  367MOL0     O49468   4.385   6.914   2.640  0.3213 -0.0764  0.5063
  367MOL0     C49469   4.485   6.840   2.709  0.5310 -1.1537  0.3903
  367MOL0     C49470   4.549   6.919   2.821  0.8145 -0.1837 -0.1785
  367MOL0     C49471   4.624   7.040   2.769  0.4251  1.1687 -0.3201
  367MOL0     C49472   4.664   7.132   2.885 -0.0964  0.5841 -0.0276
  367MOL0     C49473   4.760   7.236   2.843 -1.0133  0.7289  0.2123
  367MOL0     C49474   4.846   7.325   2.812  0.0757  0.3149  0.3022
  367MOL0     C49475   4.243   7.090   2.713 -0.4644 -0.3345  0.4120
  367MOL0     C49476   4.149   7.146   2.792  1.0268 -0.0026  0.0393
  367MOL0     C49477   4.129   7.293   2.783  0.4184 -0.0156  0.3443
  367MOL0     H49478   3.754   7.017   3.138 -1.4019 -0.3272  0.3092
  367MOL0     H49479   3.513   7.045   3.217 -0.9812 -0.1501  0.0677
  367MOL0     H49480   3.335   7.428   3.141  0.6923 -0.3769 -0.8951
  367MOL0     H49481   3.230   7.323   3.039 -3.5964 -0.9631  1.5878
  367MOL0     H49482   3.107   7.452   3.201 -2.2722 -1.5558 -0.8586
  367MOL0     H49483   3.211   7.375   3.333 -0.3532  0.5454  0.3697
  367MOL0     H49484   3.127   7.168   3.276 -0.8931 -1.0854 -1.1286
  367MOL0     H49485   3.019   7.246   3.143  0.7422  2.1902 -1.8943
  367MOL0     H49486   2.997   7.251   3.435 -0.6876 -0.8027 -0.3043
  367MOL0     H49487   2.924   7.388   3.342  0.0025  0.1049  1.3481
  367MOL0     H49488   2.781   7.233   3.229 -0.1032  0.8054  0.9972
  367MOL0     H49489   2.834   7.098   3.292  1.5065  1.2058 -3.8880
  367MOL0     H49490   2.746   7.210   3.530 -0.7594 -2.3096 -0.1369
  367MOL0     H49491   2.696   7.331   3.426 -3.1109 -1.2209 -0.4169
  367MOL0     H49492   2.569   7.156   3.288  0.6264 -1.3800  0.6003
  367MOL0     H49493   2.506   7.209   3.452  0.3591  2.1997 -1.1708
  367MOL0     H49494   2.683   6.956   3.401  0.3725  0.9165 -2.3177
  367MOL0     H49495   2.633   7.015   3.552  2.1342  2.9935 -0.9076
  367MOL0     H49496   2.338   7.030   3.532  0.4809 -0.4369  0.3598
  367MOL0     H49497   2.093   6.955   3.410  3.4654  1.3221 -0.3310
  367MOL0     H49498   2.121   6.825   3.306 -1.3373  3.2789 -1.4675
  367MOL0     H49499   1.965   6.736   3.482  1.3928 -1.5185 -1.5023
  367MOL0     H49500   2.126   6.671   3.520  1.2398  2.4119 -1.9475
  367MOL0     H49501   1.981   6.919   3.666 -1.9445 -0.2671 -1.3405
  367MOL0     H49502   2.143   6.865   3.693  1.9826 -1.8229 -0.7327
  367MOL0     H49503   1.888   6.707   3.733  0.1995 -1.6324 -1.4573
  367MOL0     H49504   1.982   6.794   3.857  1.1536  1.7016 -1.2478
  367MOL0     H49505   1.860   6.606   3.946  0.6336  0.4281 -2.1975
  367MOL0     H49506   1.788   6.390   4.055  3.0792 -1.4729  3.6416
  367MOL0     H49507   1.893   5.904   4.146  0.6350  0.4470  2.0922
  367MOL0     H49508   1.809   5.709   4.249  2.0008  1.5191 -0.0772
  367MOL0     H49509   1.536   5.462   4.244 -0.0815  1.0795  0.7995
  367MOL0     H49510   1.689   5.524   4.197 -0.9766  1.9516 -0.7959
  367MOL0     H49511   1.714   5.380   4.407 -2.9888 -1.7079 -1.5975
  367MOL0     H49512   1.731   5.553   4.461  1.4766  0.8901 -3.7482
  367MOL0     H49513   1.534   5.561   4.565 -5.1394  1.0536 -2.8524
  367MOL0     H49514   1.447   5.472   4.458  1.3189 -0.3696 -2.0973
  367MOL0     H49515   1.529   5.382   4.707 -0.0113 -1.4602  0.8234
  367MOL0     H49516   1.655   5.307   4.602 -0.8013 -1.5316 -4.3098
  367MOL0     H49517   1.382   5.282   4.544 -0.3683  1.6876  0.3790
  367MOL0     H49518   1.461   5.155   4.636  0.0529 -1.3423 -1.9262
  367MOL0     H49519   1.512   5.251   4.355 -0.5877 -1.6055 -0.7287
  367MOL0     H49520   1.629   5.154   4.439 -0.7877  0.0392  2.2199
  367MOL0     H49521   1.485   4.993   4.323  1.1705  0.9909 -0.4295
  367MOL0     H49522   1.340   5.084   4.389  0.8141  0.1073 -2.1418
  367MOL0     H49523   1.353   4.982   4.594  1.3925 -0.0403  0.6388
  367MOL0     H49524   1.377   4.861   4.465  0.6271 -0.8263  1.2732
  367MOL0     H49525   1.413   5.862   4.242 -0.3094 -2.6667 -0.1687
  367MOL0     H49526   1.489   6.063   4.117  2.7838  1.4394 -0.1387
  367MOL0     H49527   2.066   6.177   3.798 -1.1730 -0.3986  1.7390
  367MOL0     H49528   2.155   6.394   3.727 -1.2456  0.7420 -0.5180
  367MOL0     H49529   3.474   7.391   2.981  1.2935  1.5308  2.5945
  367MOL0     H49530   3.692   7.349   2.871  1.4502  3.5504  4.6907
  367MOL0     H49531   4.036   6.870   2.949 -1.2810 -2.9001 -2.6257
  367MOL0     H49532   4.216   6.771   2.811  1.3762  0.2602  3.1220
  367MOL0     H49533   4.562   6.809   2.638  0.1262 -1.5901  0.1313
  367MOL0     H49534   4.449   6.748   2.757  1.4716 -1.6455  0.1811
  367MOL0     H49535   4.616   6.849   2.873  0.2648  0.1647  1.0258
  367MOL0     H49536   4.471   6.948   2.892  0.9461 -0.4909  0.0972
  367MOL0     H49537   4.565   7.089   2.691  0.9111  1.1411 -0.7141
  367MOL0     H49538   4.715   7.019   2.712  0.6520  4.4091 -1.3638
  367MOL0     H49539   4.577   7.184   2.927  1.1095  2.4266  0.3102
  367MOL0     H49540   4.706   7.072   2.966 -0.4416  0.6434  0.1986
  367MOL0     H49541   4.920   7.402   2.814  0.6773 -0.1951  3.5137
  367MOL0     H49542   4.292   7.149   2.637 -3.6740  0.9449 -0.8406
  367MOL0     H49543   4.207   7.358   2.825  0.0756  0.2082  0.6453
  367MOL0     H49544   4.103   7.333   2.684 -1.7341  0.6394  1.1182
  367MOL0     H49545   4.031   7.320   2.824 -0.7230 -2.7369 -0.3894
  368MOL0     O49546   2.358  10.877   9.259  0.4106 -0.6587  0.5651
  368MOL0     C49547   2.435  10.831   9.174 -0.0141 -0.1504  0.2013
  368MOL0     O49548   2.440  10.846   9.035  0.2030  0.6686  0.2697
  368MOL0     C49549   2.328  10.878   8.972 -0.2328  0.0923 -0.2547
  368MOL0     C49550   2.337  10.975   8.869 -0.0114 -0.1828 -0.6884
  368MOL0     C49551   2.219  11.021   8.802 -1.3628  0.4037  0.4181
  368MOL0     C49552   2.097  10.966   8.822 -0.0533 -0.6834 -1.2286
  368MOL0     O49553   1.986  11.018   8.760 -0.5295  0.7701 -0.0084
  368MOL0     C49554   1.856  10.995   8.817 -0.8635  0.2615 -0.4043
  368MOL0     C49555   1.747  11.063   8.729  0.4373 -0.8401  1.1036
  368MOL0     C49556   1.594  11.041   8.762 -0.4579  0.8805  0.4130
  368MOL0     C49557   1.564  11.061   8.914 -0.5372 -0.4446  0.4118
  368MOL0     C49558   1.413  11.051   8.942  0.6981 -0.0830 -0.5669
  368MOL0     C49559   1.350  11.163   9.023  0.2021 -0.5099  0.2368
  368MOL0     C49560   1.207  11.131   9.057 -0.4919 -0.0586 -0.7515
  368MOL0     C49561   1.200  11.086   9.210 -1.0258 -0.0261 -0.6735
  368MOL0     N49562   1.069  11.041   9.268  0.2042  0.8746 -0.3861
  368MOL0     C49563   1.019  10.910   9.248 -0.0018 -0.2730  0.4291
  368MOL0     C49564   0.916  10.896   9.331  0.9237  0.5973  0.1381
  368MOL0     C49565   0.842  10.771   9.360 -0.9919  0.5315 -0.1191
  368MOL0     C49566   0.700  10.786   9.305  0.2693  0.1411  0.4691
  368MOL0     C49567   0.686  10.834   9.157 -0.1124  0.6380 -0.6077
  368MOL0     C49568   0.558  10.768   9.088 -0.6066 -0.3010  0.0773
  368MOL0     O49569   0.564  10.800   8.949 -0.4237 -0.6179  0.1330
  368MOL0     C49570   0.457  10.790   8.856  0.6351  0.2544  0.4088
  368MOL0     C49571   0.489  10.811   8.716 -0.8916 -0.5937 -1.2235
  368MOL0     C49572   0.385  10.807   8.622 -0.6156 -0.1294  0.3733
  368MOL0     C49573   0.254  10.803   8.658 -0.0676 -0.1761  0.4520
  368MOL0     C49574   0.142  10.832   8.559 -0.5046  0.5062  0.0852
  368MOL0     O49575   0.181  10.843   8.428  0.0492  0.2212  0.7672
  368MOL0     C49576   0.118  10.896   8.326 -0.8633 -1.0880 -0.5769
  368MOL0     C49577   0.157  10.846   8.200  0.2529  0.7019 -0.7226
  368MOL0     C49578   0.105  10.878   8.078 -0.6875  0.8912 -0.1828
  368MOL0     C49579   0.006  10.978   8.083  0.0160  0.1842  0.1618
  368MOL0     O49580  -0.052  11.023   7.967  0.3612  0.6001  0.0539
  368MOL0     C49581   0.038  11.055   7.857 -0.0525 -0.6377  0.6094
  368MOL0     C49582  -0.024  11.187   7.813  0.2469 -0.2678  0.2489
  368MOL0     C49583  -0.041  11.297   7.926 -0.1052  0.6589  0.0055
  368MOL0     C49584  -0.069  11.432   7.867 -0.2915  0.6502 -0.0433
  368MOL0     C49585  -0.148  11.505   7.981 -0.3606 -0.5356  0.7147
  368MOL0     C49586  -0.159  11.660   7.929  0.6121  0.6659 -0.6761
  368MOL0     C49587  -0.226  11.684   7.793 -0.6007  0.2461  0.2043
  368MOL0     C49588  -0.374  11.636   7.789  0.0718 -0.2934  0.2563
  368MOL0    Cl49589  -0.448  11.741   7.660 -0.2784  0.3186 -0.3290
  368MOL0     C49590  -0.038  11.038   8.201  0.6025  0.0745 -0.7266
  368MOL0     C49591   0.011  10.988   8.322  0.2792 -0.7614  0.6949
  368MOL0     O49592   0.028  10.861   8.602  0.1580  0.3876  1.0002
  368MOL0     C49593   0.220  10.789   8.790  0.2922  0.3949  0.0579
  368MOL0     C49594   0.316  10.780   8.893 -0.5076 -0.1525 -0.6831
  368MOL0     N49595   0.895  11.025   9.379 -0.1065  1.0991  0.3568
  368MOL0     N49596   0.976  11.110   9.340  0.5529 -0.0196 -0.2312
  368MOL0     C49597   2.094  10.850   8.913 -0.1630  0.1861  0.0626
  368MOL0     C49598   2.205  10.811   8.990  0.0953 -0.0602 -0.3085
  368MOL0     C49599   2.542  10.741   9.230 -0.2891  0.1948  0.1445
  368MOL0     C49600   2.663  10.738   9.158  0.2767 -0.3423 -0.0899
  368MOL0     C49601   2.774  10.674   9.216 -0.6144 -0.1512  0.4534
  368MOL0     C49602   2.769  10.594   9.341 -0.7643 -0.5579 -0.1110
  368MOL0     O49603   2.858  10.517   9.406 -0.9931  0.2572  0.3663
  368MOL0     C49604   2.984  10.502   9.331  1.0667 -0.1215  0.5186
  368MOL0     C49605   3.106  10.474   9.435  0.3363 -0.3533 -1.5953
  368MOL0     C49606   3.056  10.360   9.519 -0.0761  0.3411 -0.1766
  368MOL0     C49607   3.170  10.245   9.560 -0.0933 -0.0872  1.2008
  368MOL0     C49608   3.118  10.149   9.658 -0.0752  0.0891  0.4400
  368MOL0     C49609   3.077  10.059   9.727  0.6865  0.0075 -0.3083
  368MOL0     C49610   2.649  10.602   9.401 -0.0981 -0.5254 -1.0093
  368MOL0     C49611   2.533  10.662   9.345  0.9146 -0.5420 -0.5998
  368MOL0     C49612   2.415  10.638   9.427  0.7534 -0.6789 -0.1156
  368MOL0     H49613   2.435  11.014   8.841  0.4723 -0.6040  0.3570
  368MOL0     H49614   2.218  11.098   8.725 -2.1706  0.7770  0.7838
  368MOL0     H49615   1.822  10.891   8.815  1.3743 -0.5068 -1.2127
  368MOL0     H49616   1.846  11.036   8.918 -0.3922 -2.3305  0.7776
  368MOL0     H49617   1.755  11.024   8.627 -1.8832  2.1689 -0.3868
  368MOL0     H49618   1.772  11.169   8.718 -3.0608  0.0550  0.6828
  368MOL0     H49619   1.573  10.938   8.731 -6.0669  1.7873  0.2649
  368MOL0     H49620   1.532  11.107   8.701 -2.7725  1.5468  3.2705
  368MOL0     H49621   1.620  10.996   8.981 -0.5151  0.5005  1.3393
  368MOL0     H49622   1.606  11.159   8.941 -2.0174  0.3928 -0.1965
  368MOL0     H49623   1.366  11.033   8.845  0.6894  0.8649 -0.7442
  368MOL0     H49624   1.398  10.955   8.993  1.6210 -0.3306 -0.7354
  368MOL0     H49625   1.410  11.177   9.113  0.6327 -2.1699  0.2445
  368MOL0     H49626   1.356  11.244   8.950  0.0102 -1.9795 -1.4808
  368MOL0     H49627   1.164  11.057   8.989  0.5207 -2.0748  0.7026
  368MOL0     H49628   1.144  11.221   9.049  0.2046  0.7123  1.6757
  368MOL0     H49629   1.274  11.006   9.224  2.2224  2.6678 -1.0784
  368MOL0     H49630   1.252  11.158   9.274  1.6880 -2.6175  0.3000
  368MOL0     H49631   1.071  10.831   9.194  1.9621  0.7057  0.7879
  368MOL0     H49632   0.906  10.688   9.328 -0.1962  0.7466  0.8527
  368MOL0     H49633   0.836  10.752   9.468  2.2110 -2.5511 -0.2845
  368MOL0     H49634   0.645  10.692   9.309  0.3350 -0.2097 -3.4151
  368MOL0     H49635   0.642  10.857   9.366 -1.4606  1.0344 -2.0628
  368MOL0     H49636   0.774  10.806   9.099  0.5848 -1.3760  1.2859
  368MOL0     H49637   0.681  10.943   9.151  1.6455  0.6707 -3.7378
  368MOL0     H49638   0.475  10.819   9.137  0.3922  2.1873 -0.5965
  368MOL0     H49639   0.562  10.663   9.115 -2.0865  0.3611  3.3566
  368MOL0     H49640   0.594  10.812   8.688 -0.9886  0.7279 -1.5682
  368MOL0     H49641   0.415  10.808   8.518 -0.5022  1.1382  0.3990
  368MOL0     H49642   0.236  10.771   8.199  0.6435  1.1111 -0.6869
  368MOL0     H49643   0.137  10.826   7.989 -2.2645 -0.2099 -0.1669
  368MOL0     H49644   0.143  11.070   7.884  0.2517  1.5244 -1.5035
  368MOL0     H49645   0.028  10.987   7.772  1.3450  0.0388 -0.1181
  368MOL0     H49646   0.039  11.224   7.731 -0.1833 -4.5131 -2.3005
  368MOL0     H49647  -0.116  11.174   7.756  0.5318  0.4159 -0.3781
  368MOL0     H49648  -0.127  11.272   7.989 -2.7650  1.5015 -2.9851
  368MOL0     H49649   0.047  11.303   7.990  0.2135 -1.4198 -0.1697
  368MOL0     H49650  -0.133  11.436   7.779 -0.4790  0.1816  0.0656
  368MOL0     H49651   0.023  11.480   7.832 -1.2769  0.2349 -3.5711
  368MOL0     H49652  -0.102  11.504   8.080  2.8257 -0.0552 -0.6239
  368MOL0     H49653  -0.249  11.465   7.992 -1.2956  0.8318 -1.8711
  368MOL0     H49654  -0.226  11.708   8.000  1.5173 -2.0264  2.2225
  368MOL0     H49655  -0.057  11.701   7.927  0.5092  1.0805  1.2006
  368MOL0     H49656  -0.171  11.629   7.716  0.0307 -1.6731  1.9496
  368MOL0     H49657  -0.226  11.791   7.770 -0.7426  0.2154  0.0604
  368MOL0     H49658  -0.371  11.526   7.783  1.4846 -0.3411  1.3842
  368MOL0     H49659  -0.423  11.645   7.887 -0.8666 -1.5013 -0.0696
  368MOL0     H49660  -0.106  11.122   8.190 -0.2037 -0.1178  1.8931
  368MOL0     H49661  -0.012  11.049   8.408 -0.2109  0.8628 -0.5452
  368MOL0     H49662   0.116  10.798   8.818  0.5235  2.7874  0.3281
  368MOL0     H49663   0.277  10.774   8.994 -0.0587 -0.4167 -0.5208
  368MOL0     H49664   2.003  10.793   8.927  1.6511 -2.8848  0.3087
  368MOL0     H49665   2.200  10.729   9.061 -1.0207  0.0592 -0.2303
  368MOL0     H49666   2.669  10.795   9.066 -0.4022 -0.1284 -0.0103
  368MOL0     H49667   2.871  10.692   9.171  0.8033  1.2605  3.7766
  368MOL0     H49668   2.997  10.602   9.288  0.4083  0.9268  2.5997
  368MOL0     H49669   2.971  10.424   9.256  0.0233  0.8445 -0.3278
  368MOL0     H49670   3.138  10.559   9.496 -3.7043 -0.9056  1.7215
  368MOL0     H49671   3.183  10.421   9.378  0.0911 -3.4924  0.6980
  368MOL0     H49672   2.978  10.314   9.458  1.6250  0.3356 -2.4772
  368MOL0     H49673   3.016  10.406   9.609  1.9147  1.8576  0.0032
  368MOL0     H49674   3.184  10.189   9.467  2.7428 -1.6939  2.4667
  368MOL0     H49675   3.263  10.296   9.585 -0.8987  2.1179 -0.0996
  368MOL0     H49676   3.045   9.988   9.801  2.1999 -1.8996 -1.3769
  368MOL0     H49677   2.654  10.552   9.497  3.9796 -0.1535 -0.8359
  368MOL0     H49678   2.434  10.707   9.509 -2.3611  3.3917 -2.4303
  368MOL0     H49679   2.323  10.668   9.376  0.5217  1.4747  1.4475
  368MOL0     H49680   2.407  10.543   9.480 -1.4053  0.7863  2.4094
  369MOL0     O49681   4.065   1.739   7.995  0.4898  0.1326  0.4339
  369MOL0     C49682   3.967   1.727   7.924 -1.2326  1.2134  0.0623
  369MOL0     O49683   3.975   1.708   7.784 -0.0106 -0.4039 -0.0481
  369MOL0     C49684   4.091   1.682   7.710 -0.0389 -0.1875 -0.3565
  369MOL0     C49685   4.147   1.549   7.704 -0.1450 -0.9205 -0.2001
  369MOL0     C49686   4.268   1.518   7.641 -0.4310 -0.0730  0.5559
  369MOL0     C49687   4.328   1.622   7.559  0.6657 -0.9624 -0.7029
  369MOL0     O49688   4.434   1.618   7.473  1.1143  0.1957  0.6743
  369MOL0     C49689   4.501   1.495   7.447 -0.6618  0.1410  0.4374
  369MOL0     C49690   4.605   1.464   7.557 -0.4626 -0.4876  0.4161
  369MOL0     C49691   4.733   1.536   7.534 -0.9581  0.1855  0.0517
  369MOL0     C49692   4.755   1.653   7.636  0.4626  0.9687 -0.1098
  369MOL0     C49693   4.856   1.760   7.601  0.4519  0.7016 -0.3305
  369MOL0     C49694   4.839   1.826   7.466  0.3482 -0.1773 -0.0274
  369MOL0     C49695   4.715   1.906   7.457  0.3857  0.2768 -0.1393
  369MOL0     C49696   4.720   1.979   7.319  0.6713 -0.4881  0.1601
  369MOL0     N49697   4.585   2.029   7.289  0.7059  0.0279  0.6333
  369MOL0     C49698   4.475   1.948   7.255 -1.3476 -0.3325  0.7182
  369MOL0     C49699   4.374   2.042   7.247 -0.1772 -0.3580 -0.1406
  369MOL0     C49700   4.221   2.012   7.230  0.8454  0.4035 -0.1248
  369MOL0     C49701   4.177   1.936   7.098 -0.6649 -0.5628  0.8750
  369MOL0     C49702   4.229   1.799   7.092 -0.0462  1.0267  0.2787
  369MOL0     C49703   4.162   1.715   7.193  0.2084  0.5101 -0.7251
  369MOL0     O49704   4.028   1.706   7.168  0.2751  0.2187  0.0840
  369MOL0     C49705   3.948   1.661   7.263  0.5819 -0.5458 -0.1987
  369MOL0     C49706   3.808   1.660   7.227 -0.3830  0.7659 -0.1701
  369MOL0     C49707   3.722   1.589   7.312 -0.6440 -0.3751  0.1341
  369MOL0     C49708   3.763   1.532   7.431  0.7554  0.4394 -0.2196
  369MOL0     C49709   3.673   1.443   7.506  1.4768 -0.2609  0.6058
  369MOL0     O49710   3.721   1.379   7.618  0.0309 -0.3539 -0.2817
  369MOL0     C49711   3.647   1.278   7.670  1.0164 -0.9245 -0.2975
  369MOL0     C49712   3.653   1.154   7.613  0.3636 -0.5905  0.3785
  369MOL0     C49713   3.562   1.053   7.660 -0.1995  1.2070  0.2960
  369MOL0     C49714   3.496   1.070   7.776 -0.5732  0.2185 -0.4210
  369MOL0     O49715   3.413   0.971   7.821  0.0808  0.4346  0.7530
  369MOL0     C49716   3.323   0.895   7.734 -0.5281 -0.7611  0.5138
  369MOL0     C49717   3.249   0.984   7.635  0.8437 -0.3403 -0.5241
  369MOL0     C49718   3.171   1.108   7.683 -0.3387  0.8926 -0.4975
  369MOL0     C49719   3.033   1.140   7.614  0.3448  0.0022  0.2143
  369MOL0     C49720   2.952   1.240   7.693 -0.2901  1.0752 -0.3445
  369MOL0     C49721   2.894   1.186   7.819 -0.2855 -0.8184  0.4462
  369MOL0     C49722   2.796   1.285   7.892 -0.0818 -0.3733  0.2454
  369MOL0     C49723   2.661   1.279   7.828  0.1201  0.6188  0.0550
  369MOL0    Cl49724   2.561   1.400   7.895  0.0031  0.0341  0.0246
  369MOL0     C49725   3.489   1.192   7.838 -0.4070 -0.4917  0.2796
  369MOL0     C49726   3.561   1.299   7.774 -0.0107  1.4605 -0.1051
  369MOL0     O49727   3.576   1.402   7.438  0.2001 -0.2044  0.9375
  369MOL0     C49728   3.897   1.557   7.478  0.5673  0.2490  0.1476
  369MOL0     C49729   3.989   1.618   7.387 -0.4147  0.2004 -0.6920
  369MOL0     N49730   4.413   2.172   7.278 -0.1106 -0.6234 -0.1749
  369MOL0     N49731   4.546   2.160   7.299  0.3811 -0.1585 -0.6560
  369MOL0     C49732   4.270   1.754   7.566 -0.9383  0.2526 -0.2536
  369MOL0     C49733   4.159   1.777   7.642 -0.7421 -0.4917 -0.5016
  369MOL0     C49734   3.835   1.711   7.999 -0.8127  0.0114 -0.1065
  369MOL0     C49735   3.721   1.706   7.920 -0.3325  0.3495 -0.1189
  369MOL0     C49736   3.593   1.706   7.972 -0.4483  0.9007  0.4296
  369MOL0     C49737   3.570   1.729   8.104 -0.4924  0.3564 -0.3048
  369MOL0     O49738   3.447   1.749   8.170 -0.3706  0.1505  0.3692
  369MOL0     C49739   3.332   1.758   8.083 -0.1759  0.2043  0.8513
  369MOL0     C49740   3.199   1.729   8.154  0.2105 -0.7185 -0.8531
  369MOL0     C49741   3.176   1.578   8.166 -0.1001  0.1837 -0.6157
  369MOL0     C49742   3.082   1.514   8.067 -0.0625  0.4632  0.4356
  369MOL0     C49743   3.158   1.475   7.950  0.1413 -0.2798 -0.2182
  369MOL0     C49744   3.228   1.444   7.856  0.5650 -0.0816  0.4375
  369MOL0     C49745   3.687   1.726   8.192  0.4620 -0.3732 -0.4337
  369MOL0     C49746   3.816   1.713   8.138 -0.5955  0.2507  0.1927
  369MOL0     C49747   3.929   1.726   8.243  0.0097  0.5938  0.1043
  369MOL0     H49748   4.096   1.462   7.743 -0.0624 -1.9429 -2.2539
  369MOL0     H49749   4.291   1.414   7.624 -0.1634 -0.2340  1.8199
  369MOL0     H49750   4.422   1.420   7.440  1.6122 -2.4591  1.1739
  369MOL0     H49751   4.553   1.497   7.351  1.4680 -0.7906  1.5083
  369MOL0     H49752   4.630   1.359   7.571  1.3887  0.0622  1.4748
  369MOL0     H49753   4.557   1.490   7.652 -0.2097 -1.1324  0.7252
  369MOL0     H49754   4.736   1.573   7.431  0.6583  0.3803  0.1465
  369MOL0     H49755   4.820   1.472   7.549 -1.5692 -0.9343 -0.9833
  369MOL0     H49756   4.659   1.697   7.663 -1.4392 -1.4981 -2.3002
  369MOL0     H49757   4.791   1.604   7.727  1.6845 -2.4879 -2.2591
  369MOL0     H49758   4.858   1.842   7.673 -0.8289  1.6704 -1.3631
  369MOL0     H49759   4.959   1.722   7.603  0.7105  1.3930 -0.1211
  369MOL0     H49760   4.921   1.897   7.450  0.5931 -0.5353 -0.3827
  369MOL0     H49761   4.839   1.748   7.390 -2.3102  0.2234 -0.5163
  369MOL0     H49762   4.713   1.966   7.549  2.4678  1.1101 -0.5784
  369MOL0     H49763   4.633   1.834   7.461  0.2031  0.5232  0.8464
  369MOL0     H49764   4.794   2.058   7.316 -0.3071  0.4853  0.8516
  369MOL0     H49765   4.741   1.902   7.243 -0.2304 -0.4577 -0.1296
  369MOL0     H49766   4.489   1.840   7.247  3.7762  0.1981 -0.8195
  369MOL0     H49767   4.195   1.946   7.313 -2.0728 -1.9164 -2.6425
  369MOL0     H49768   4.170   2.108   7.235 -0.2613 -0.1952  0.7304
  369MOL0     H49769   4.067   1.942   7.100 -0.6438 -0.2281  2.6390
  369MOL0     H49770   4.207   1.992   7.010 -3.5069  0.2581  0.3227
  369MOL0     H49771   4.338   1.787   7.096 -0.3113 -1.8505  1.8936
  369MOL0     H49772   4.203   1.741   7.003 -3.0859  0.5003  1.3793
  369MOL0     H49773   4.188   1.752   7.293 -1.6887 -1.6901  0.6669
  369MOL0     H49774   4.214   1.619   7.190  1.7860  1.3175 -0.2604
  369MOL0     H49775   3.766   1.707   7.139 -2.4451  0.1391  0.4266
  369MOL0     H49776   3.621   1.588   7.274 -0.4857  1.3371 -0.3886
  369MOL0     H49777   3.725   1.127   7.537  0.5691 -1.9948  1.0385
  369MOL0     H49778   3.569   0.957   7.611  4.0846  0.5133  1.8308
  369MOL0     H49779   3.386   0.818   7.688 -2.0251 -1.0607 -1.1519
  369MOL0     H49780   3.239   0.853   7.790 -0.7029 -0.8341  0.1993
  369MOL0     H49781   3.321   1.037   7.572  1.0122  0.7589  0.5449
  369MOL0     H49782   3.178   0.926   7.577  0.2915  0.4874 -0.6832
  369MOL0     H49783   3.157   1.108   7.792 -3.0732 -0.0877 -0.7750
  369MOL0     H49784   3.235   1.194   7.659 -0.7754  1.0330 -1.1652
  369MOL0     H49785   2.970   1.051   7.611 -2.4997  1.8964 -0.3994
  369MOL0     H49786   3.051   1.175   7.512  0.6669  1.9767  0.8989
  369MOL0     H49787   2.872   1.278   7.628 -2.5192 -0.2227  1.4952
  369MOL0     H49788   3.021   1.322   7.713  2.3708 -1.1708  0.3503
  369MOL0     H49789   2.826   1.103   7.795 -0.0158 -1.4283  1.6743
  369MOL0     H49790   2.967   1.142   7.888  2.1689  1.5010 -0.4997
  369MOL0     H49791   2.833   1.388   7.892 -2.4908  0.6009  2.1393
  369MOL0     H49792   2.780   1.254   7.995  3.3432  2.4467  1.8399
  369MOL0     H49793   2.671   1.291   7.720 -1.5343  0.2554 -0.1647
  369MOL0     H49794   2.610   1.184   7.847 -1.9705  1.9470  1.5576
  369MOL0     H49795   3.437   1.199   7.933 -2.9822 -2.0541 -0.9079
  369MOL0     H49796   3.582   1.395   7.819 -0.1226  2.2533 -1.6889
  369MOL0     H49797   3.919   1.532   7.581 -0.0419  3.8677  1.2822
  369MOL0     H49798   4.092   1.614   7.422 -1.3582  1.9220  2.7460
  369MOL0     H49799   4.324   1.829   7.510  1.7358  1.0688  3.1225
  369MOL0     H49800   4.107   1.871   7.642 -1.5647 -0.9365 -0.1088
  369MOL0     H49801   3.725   1.692   7.813 -2.0126  1.3763 -0.3516
  369MOL0     H49802   3.514   1.689   7.899  2.3034 -0.9573 -2.3991
  369MOL0     H49803   3.330   1.693   7.994 -1.2572  1.2192  0.0961
  369MOL0     H49804   3.337   1.860   8.044  2.7086 -0.9627 -2.3506
  369MOL0     H49805   3.114   1.771   8.101 -1.7401 -0.1217  2.4400
  369MOL0     H49806   3.197   1.784   8.249 -3.0602  0.3495 -1.4296
  369MOL0     H49807   3.140   1.545   8.264 -2.3744  1.6355 -0.8696
  369MOL0     H49808   3.273   1.530   8.156  0.7388  1.1515  1.9702
  369MOL0     H49809   3.039   1.419   8.101 -0.8449 -0.1197 -2.0071
  369MOL0     H49810   2.999   1.582   8.046 -2.2240 -1.2949  2.6133
  369MOL0     H49811   3.298   1.407   7.783 -1.2972 -1.3973 -0.7918
  369MOL0     H49812   3.690   1.737   8.300  1.8199 -0.1381 -0.4864
  369MOL0     H49813   3.883   1.722   8.342 -2.0413  1.2356 -0.7674
  369MOL0     H49814   4.000   1.643   8.245 -0.5164  0.1494  0.7095
  369MOL0     H49815   3.984   1.820   8.233  2.3591 -0.8519 -1.7358
  370MOL0     O49816   4.143   9.261   8.947  0.7140 -0.1494 -0.4642
  370MOL0     C49817   4.185   9.324   8.845 -0.2165 -0.5445 -0.1503
  370MOL0     O49818   4.193   9.270   8.720  1.2078  0.2519 -0.5370
  370MOL0     C49819   4.261   9.145   8.721  0.0188 -0.9190  0.6201
  370MOL0     C49820   4.401   9.152   8.712 -1.0081  0.4570  0.6005
  370MOL0     C49821   4.469   9.035   8.682 -0.4156  0.0417 -0.4108
  370MOL0     C49822   4.400   8.919   8.672 -0.2386  0.6231  0.0395
  370MOL0     O49823   4.473   8.807   8.642  0.1115 -0.2529 -0.1297
  370MOL0     C49824   4.483   8.720   8.758  0.8549 -0.7306  0.9286
  370MOL0     C49825   4.607   8.631   8.739 -0.1388 -1.3529 -0.5965
  370MOL0     C49826   4.639   8.543   8.860 -0.0999  0.5868 -0.4345
  370MOL0     C49827   4.558   8.422   8.876  0.2525  1.0424  0.1005
  370MOL0     C49828   4.609   8.328   8.979 -0.4806  0.6560  0.0237
  370MOL0     C49829   4.758   8.293   8.975 -0.4322 -0.2477  0.4104
  370MOL0     C49830   4.802   8.171   9.062 -0.1617  0.1892 -0.8127
  370MOL0     C49831   4.953   8.147   9.062 -0.8071  0.4339  0.5972
  370MOL0     N49832   5.009   8.124   8.925 -0.8438 -0.2500  0.1983
  370MOL0     C49833   4.948   8.056   8.824  0.2289  0.5412  0.1085
  370MOL0     C49834   5.001   8.100   8.711 -0.5572  0.3993  0.7231
  370MOL0     C49835   4.947   8.068   8.567 -0.1847  0.7317 -0.1666
  370MOL0     C49836   4.926   7.917   8.537 -0.1203  0.7076 -0.4257
  370MOL0     C49837   4.814   7.910   8.432 -0.0922  1.3717 -0.0885
  370MOL0     C49838   4.838   7.767   8.370  0.7162 -0.0024  1.2050
  370MOL0     O49839   4.910   7.786   8.245  0.8082  0.3000  0.4957
  370MOL0     C49840   4.955   7.672   8.185  0.2734  0.0123 -0.6019
  370MOL0     C49841   5.006   7.675   8.057 -0.9007 -1.1087 -0.3134
  370MOL0     C49842   5.038   7.558   7.984  0.8081 -0.0688 -0.4109
  370MOL0     C49843   5.029   7.439   8.033 -0.2757  0.1437 -0.5172
  370MOL0     C49844   5.066   7.322   7.947  0.6510  0.2255 -0.6360
  370MOL0     O49845   5.022   7.199   7.997  0.1274  0.0212  0.4980
  370MOL0     C49846   5.039   7.108   7.904 -0.4463  0.5942  0.6017
  370MOL0     C49847   5.148   7.036   7.876 -1.0458  0.6847 -0.2241
  370MOL0     C49848   5.142   6.940   7.783 -0.8934 -0.2733  1.7237
  370MOL0     C49849   5.034   6.915   7.701  0.1576 -0.0046  0.1746
  370MOL0     O49850   5.040   6.818   7.601  1.1032  0.5797  0.2457
  370MOL0     C49851   4.942   6.713   7.600 -0.7930  0.8245 -0.1786
  370MOL0     C49852   5.024   6.596   7.583  0.3759 -0.4604  0.2165
  370MOL0     C49853   4.932   6.466   7.569  0.6299  0.1724  0.0612
  370MOL0     C49854   5.008   6.332   7.581  0.4320 -0.3334 -0.0874
  370MOL0     C49855   4.913   6.218   7.532 -0.8508  0.6878 -0.2071
  370MOL0     C49856   4.998   6.090   7.544 -0.6430 -0.2502 -0.7951
  370MOL0     C49857   4.981   6.032   7.687 -0.1960 -0.7267 -0.0477
  370MOL0     C49858   5.017   5.883   7.692 -0.3918 -0.0831 -0.8352
  370MOL0    Cl49859   4.900   5.779   7.605 -0.5157 -0.2393 -0.1249
  370MOL0     C49860   4.916   6.982   7.729  0.1492  0.0599 -0.4500
  370MOL0     C49861   4.922   7.081   7.822  0.5322 -0.3953 -0.2343
  370MOL0     O49862   5.126   7.340   7.837 -0.1493 -0.3457  0.3670
  370MOL0     C49863   4.967   7.422   8.154 -0.3577  0.0647 -0.2592
  370MOL0     C49864   4.935   7.538   8.230 -0.1704 -0.2520  0.1368
  370MOL0     N49865   5.104   8.179   8.735  0.2986  0.5134 -0.1300
  370MOL0     N49866   5.103   8.210   8.867  0.4239  0.9609 -0.7040
  370MOL0     C49867   4.261   8.912   8.679  0.4856 -0.3528 -0.4133
  370MOL0     C49868   4.185   9.031   8.694  1.0035  0.3462 -0.0652
  370MOL0     C49869   4.177   9.478   8.843 -0.3750 -0.0992 -0.0822
  370MOL0     C49870   4.175   9.547   8.720 -0.5312  0.6193  0.0688
  370MOL0     C49871   4.145   9.680   8.699 -0.2252  0.2575  0.4743
  370MOL0     C49872   4.142   9.765   8.808  0.9081  0.2038 -0.0086
  370MOL0     O49873   4.140   9.899   8.782 -0.3718  1.5032 -0.6129
  370MOL0     C49874   4.116   9.992   8.887  0.2290 -0.0334  0.0140
  370MOL0     C49875   4.107  10.130   8.828  0.2504  0.1415  0.2148
  370MOL0     C49876   3.974  10.160   8.755  0.0705 -0.7281 -0.2226
  370MOL0     C49877   3.969  10.112   8.606 -0.1356  0.2081  0.9283
  370MOL0     C49878   3.990  10.225   8.511 -0.0595 -0.7984  0.2847
  370MOL0     C49879   4.009  10.310   8.423 -0.6609  0.1534  0.9179
  370MOL0     C49880   4.155   9.703   8.937  0.2572  0.6730  0.2089
  370MOL0     C49881   4.171   9.562   8.958 -0.0811  0.5190  0.1963
  370MOL0     C49882   4.147   9.500   9.098 -0.1429 -0.4545  0.8520
  370MOL0     H49883   4.450   9.247   8.732 -2.4781  1.3249  0.2363
  370MOL0     H49884   4.574   9.043   8.655 -0.5704  2.5915 -0.5127
  370MOL0     H49885   4.489   8.774   8.853  1.4915  0.8534  0.0342
  370MOL0     H49886   4.407   8.642   8.767  2.3934 -2.2194  1.5721
  370MOL0     H49887   4.699   8.686   8.719 -1.1938 -0.2280 -2.8075
  370MOL0     H49888   4.593   8.567   8.651 -2.9989  1.1471 -2.1607
  370MOL0     H49889   4.634   8.591   8.959  1.5798 -2.3691  1.2213
  370MOL0     H49890   4.746   8.521   8.858 -0.0189 -0.2452  3.8519
  370MOL0     H49891   4.450   8.440   8.873 -0.5296 -2.6973 -3.4774
  370MOL0     H49892   4.568   8.356   8.789 -0.3282 -2.6384  2.5987
  370MOL0     H49893   4.583   8.364   9.079 -3.7789  1.5359 -1.0488
  370MOL0     H49894   4.557   8.232   8.975  2.1977 -0.9340  0.2621
  370MOL0     H49895   4.785   8.279   8.870  1.1750 -1.5471  0.9592
  370MOL0     H49896   4.811   8.378   9.019 -1.6208 -0.7007  2.8379
  370MOL0     H49897   4.750   8.084   9.022 -4.6035  0.5976  3.1545
  370MOL0     H49898   4.771   8.191   9.165  0.1220 -2.1796 -0.2233
  370MOL0     H49899   4.984   8.243   9.104 -1.6863  0.6095  0.8707
  370MOL0     H49900   4.989   8.073   9.134  3.0931  0.9041 -0.6864
  370MOL0     H49901   4.860   7.992   8.823  0.0061  0.8401  0.3265
  370MOL0     H49902   4.855   8.126   8.571 -0.4395  0.3402 -0.3112
  370MOL0     H49903   5.016   8.108   8.491  1.0042  3.7662  2.2667
  370MOL0     H49904   5.016   7.866   8.501  0.2124 -0.6349  2.0903
  370MOL0     H49905   4.895   7.865   8.628  1.5896  0.7271  0.1848
  370MOL0     H49906   4.822   7.989   8.357 -1.4912 -2.2963 -4.5802
  370MOL0     H49907   4.712   7.917   8.470  1.2881  0.9333  4.3299
  370MOL0     H49908   4.738   7.723   8.365 -0.2832  2.1871  1.1335
  370MOL0     H49909   4.888   7.705   8.446 -0.5608 -1.5750  0.8130
  370MOL0     H49910   5.014   7.771   8.007  2.6533 -0.1038  1.7826
  370MOL0     H49911   5.060   7.565   7.878 -0.1072 -3.3612 -0.9311
  370MOL0     H49912   5.233   7.056   7.940 -0.2397 -2.3449 -0.1625
  370MOL0     H49913   5.230   6.884   7.754 -1.6005 -0.1848 -0.8951
  370MOL0     H49914   4.871   6.713   7.683 -1.2723 -2.6144 -0.4525
  370MOL0     H49915   4.869   6.703   7.519  0.4558 -2.2873 -1.0714
  370MOL0     H49916   5.071   6.606   7.485 -2.5548 -2.5418 -1.5614
  370MOL0     H49917   5.104   6.589   7.657  1.1068  1.5754 -0.2945
  370MOL0     H49918   4.856   6.469   7.648  0.3630  2.8480 -0.2152
  370MOL0     H49919   4.882   6.471   7.472 -2.5713 -1.6311  1.4651
  370MOL0     H49920   5.047   6.318   7.683 -1.8442 -0.3957  0.8184
  370MOL0     H49921   5.094   6.331   7.513 -1.2825  0.6152 -2.4059
  370MOL0     H49922   4.867   6.238   7.434 -1.0282 -0.4196 -0.3541
  370MOL0     H49923   4.821   6.211   7.591 -1.8270 -0.2160 -1.7770
  370MOL0     H49924   4.961   6.016   7.473 -0.2125 -0.2537 -1.0213
  370MOL0     H49925   5.104   6.112   7.525 -0.7590  0.6926 -0.3873
  370MOL0     H49926   4.873   6.033   7.707 -0.2697  3.9164  0.3034
  370MOL0     H49927   5.035   6.092   7.761 -0.6892  1.5517 -1.4210
  370MOL0     H49928   5.120   5.868   7.658 -0.8525 -0.5399 -2.1108
  370MOL0     H49929   5.032   5.850   7.795  2.5593  4.2687  0.4205
  370MOL0     H49930   4.823   6.966   7.676  0.1881 -1.6309 -0.0543
  370MOL0     H49931   4.834   7.136   7.852  0.0042 -2.0008  1.2813
  370MOL0     H49932   4.950   7.328   8.205 -0.7077  1.6215  2.7518
  370MOL0     H49933   4.887   7.524   8.327 -1.0329  3.2439  0.3601
  370MOL0     H49934   4.226   8.811   8.658  1.6924  0.0401 -5.8422
  370MOL0     H49935   4.077   9.018   8.697  1.1426 -1.2782 -0.9294
  370MOL0     H49936   4.190   9.479   8.636 -1.4081  1.5590 -0.8951
  370MOL0     H49937   4.149   9.716   8.596 -1.2265  2.0959  1.0197
  370MOL0     H49938   4.201   9.991   8.956  0.1626  1.1055  0.1269
  370MOL0     H49939   4.029   9.976   8.951 -2.7796  1.2475 -3.4159
  370MOL0     H49940   4.203  10.141   8.777  1.9237 -1.9902  2.6440
  370MOL0     H49941   4.117  10.209   8.904  0.3861  1.7213 -1.3939
  370MOL0     H49942   3.957  10.268   8.744  0.1309 -0.9299 -2.8488
  370MOL0     H49943   3.888  10.115   8.805  0.1206  0.1366  0.6696
  370MOL0     H49944   4.040  10.031   8.587 -1.6603 -0.9351 -0.1494
  370MOL0     H49945   3.864  10.081   8.593  0.2627  0.0607 -3.3253
  370MOL0     H49946   4.029  10.389   8.354  0.7660 -0.5287  0.5200
  370MOL0     H49947   4.175   9.758   9.028  1.9941  1.0888 -0.3884
  370MOL0     H49948   4.137   9.573   9.179 -1.0905  0.0999  0.2573
  370MOL0     H49949   4.057   9.438   9.100 -1.9492  1.9449 -0.4370
  370MOL0     H49950   4.227   9.428   9.120 -0.9338 -1.2447  1.1818
  371MOL0     O49951  10.797   7.458   6.503  0.2205  0.1226 -0.8150
  371MOL0     C49952  10.815   7.338   6.534  0.0134 -0.2856  1.3006
  371MOL0     O49953  10.819   7.236   6.449  0.3491  0.2216  0.0450
  371MOL0     C49954  10.817   7.231   6.311  0.5903  0.0945  0.0489
  371MOL0     C49955  10.820   7.345   6.219  0.2854 -0.7753 -1.3648
  371MOL0     C49956  10.815   7.317   6.081 -0.3352  0.3402  1.0182
  371MOL0     C49957  10.797   7.184   6.031  0.4828 -0.2946 -0.0359
  371MOL0     O49958  10.787   7.166   5.898 -0.4788 -0.6607 -0.5299
  371MOL0     C49959  10.712   7.057   5.850  0.8887 -0.7935 -1.1895
  371MOL0     C49960  10.679   7.082   5.699  0.5325  0.3743  0.8154
  371MOL0     C49961  10.611   6.953   5.651 -0.2209 -0.3661  0.1691
  371MOL0     C49962  10.465   6.943   5.705 -0.6292 -0.3386  0.4989
  371MOL0     C49963  10.385   6.827   5.641  0.3596  0.6545 -0.0041
  371MOL0     C49964  10.422   6.696   5.715  0.3355 -0.1203 -0.3126
  371MOL0     C49965  10.345   6.689   5.854 -0.2525  0.5703  0.1747
  371MOL0     C49966  10.345   6.544   5.915  0.0194  1.2652 -0.7578
  371MOL0     N49967  10.260   6.524   6.033 -1.2016  0.1405 -0.2601
  371MOL0     C49968  10.286   6.579   6.159 -0.1893  0.7033  0.1623
  371MOL0     C49969  10.229   6.492   6.243 -0.1326 -0.0981 -0.2398
  371MOL0     C49970  10.217   6.517   6.395 -0.5548  0.0424 -0.3532
  371MOL0     C49971  10.161   6.393   6.471 -0.8654  0.6061 -0.3842
  371MOL0     C49972  10.005   6.379   6.475  0.0439  0.0770 -0.2197
  371MOL0     C49973   9.963   6.247   6.523 -0.7279 -0.7805  0.0134
  371MOL0     O49974  10.027   6.210   6.645  0.2484 -1.3048 -0.2038
  371MOL0     C49975   9.964   6.117   6.716  0.9419  0.6217 -0.9766
  371MOL0     C49976   9.846   6.041   6.688  0.3315 -0.4893 -0.2387
  371MOL0     C49977   9.778   5.960   6.774  0.3943  0.6438  0.2888
  371MOL0     C49978   9.845   5.937   6.893  0.0942  0.8245 -0.2940
  371MOL0     C49979   9.773   5.855   6.991  1.0307 -1.5092 -0.6975
  371MOL0     O49980   9.649   5.819   6.965  0.0386 -0.3337 -0.2405
  371MOL0     C49981   9.570   5.753   7.051  0.2765  0.6100 -0.7878
  371MOL0     C49982   9.513   5.626   7.015 -0.1706 -1.2457  0.5804
  371MOL0     C49983   9.434   5.556   7.107 -0.3156 -0.5540  0.2526
  371MOL0     C49984   9.399   5.611   7.231  1.6862 -0.6688  0.5275
  371MOL0     O49985   9.325   5.527   7.321 -1.0798 -0.8880 -0.3376
  371MOL0     C49986   9.217   5.602   7.381  0.0477  0.0461 -0.0255
  371MOL0     C49987   9.088   5.596   7.293  0.2412  0.1738  0.3462
  371MOL0     C49988   9.044   5.447   7.285  0.0058  0.3287  0.4671
  371MOL0     C49989   8.929   5.420   7.385 -0.7530  0.1512  0.6271
  371MOL0     C49990   8.885   5.271   7.355  0.3535 -0.4215  0.4392
  371MOL0     C49991   8.744   5.234   7.409 -0.1305 -0.3408  0.4963
  371MOL0     C49992   8.688   5.105   7.340 -0.0670  0.1919  0.7006
  371MOL0     C49993   8.777   4.984   7.351  0.8351  0.4921 -0.4446
  371MOL0    Cl49994   8.846   4.922   7.199 -0.3272  0.0972 -0.2145
  371MOL0     C49995   9.460   5.733   7.275 -0.2992  0.0031 -0.1899
  371MOL0     C49996   9.543   5.806   7.181 -0.5180  0.7868  0.1062
  371MOL0     O49997   9.837   5.824   7.093 -0.1147  0.7771  0.1358
  371MOL0     C49998   9.969   5.996   6.931 -0.7063  0.3252 -0.3968
  371MOL0     C49999  10.024   6.085   6.842 -0.3324  0.2422  1.6600
  371MOL0     N50000  10.171   6.389   6.169  0.1374  0.2960 -1.2716
  371MOL0     N50001  10.182   6.409   6.049 -0.0712 -0.0793 -0.9991
  371MOL0     C50002  10.791   7.076   6.117  0.0289 -0.6803 -0.1463
  371MOL0     C50003  10.801   7.104   6.253  0.2182 -0.3018 -0.7692
  371MOL0     C50004  10.840   7.309   6.675 -0.4808  0.2464  0.0756
  371MOL0     C50005  10.901   7.179   6.701  0.3709  0.4642  0.0225
  371MOL0     C50006  10.938   7.147   6.837 -0.7677 -0.8045  0.4201
  371MOL0     C50007  10.936   7.256   6.934 -0.3981  0.6610 -0.1143
  371MOL0     O50008  10.966   7.237   7.074 -1.2741 -0.1514  1.0598
  371MOL0     C50009  10.955   7.107   7.134  0.0609 -0.5269  0.4842
  371MOL0     C50010  11.091   7.030   7.132  0.5556 -0.1221  0.3833
  371MOL0     C50011  11.077   6.888   7.187 -0.2022  1.0261  0.2891
  371MOL0     C50012  11.189   6.806   7.129 -0.6232  0.1120  0.2649
  371MOL0     C50013  11.172   6.672   7.177 -0.3473  1.2268 -0.1463
  371MOL0     C50014  11.153   6.548   7.219 -0.3922 -1.2604 -0.1461
  371MOL0     C50015  10.866   7.376   6.912 -1.0781  0.2111 -0.1103
  371MOL0     C50016  10.815   7.403   6.778 -0.7746 -0.7667  0.3809
  371MOL0     C50017  10.754   7.538   6.763 -0.4153 -0.1761  0.3599
  371MOL0     H50018  10.834   7.448   6.249 -1.2368 -0.7003 -0.8249
  371MOL0     H50019  10.815   7.398   6.009  0.5536  2.1413  2.9156
  371MOL0     H50020  10.762   6.960   5.860 -0.4680 -1.3127  1.6549
  371MOL0     H50021  10.621   7.052   5.911  1.2505 -0.0951 -0.5750
  371MOL0     H50022  10.775   7.079   5.647 -0.7437 -1.4498 -1.6529
  371MOL0     H50023  10.617   7.169   5.672 -0.2045 -0.2287  0.5201
  371MOL0     H50024  10.679   6.874   5.682  2.4963  1.7997  0.1905
  371MOL0     H50025  10.592   6.949   5.543 -1.1478 -2.7040  0.3654
  371MOL0     H50026  10.469   6.920   5.812 -1.4689  2.8621  1.3114
  371MOL0     H50027  10.407   7.036   5.713  1.6247  0.9987  2.8147
  371MOL0     H50028  10.278   6.844   5.654  0.1514 -0.1329 -0.6288
  371MOL0     H50029  10.410   6.810   5.536  0.7801 -0.2753  0.2352
  371MOL0     H50030  10.378   6.618   5.652 -4.0013  0.5433  1.5633
  371MOL0     H50031  10.530   6.687   5.731  0.4263 -0.9823 -1.2876
  371MOL0     H50032  10.242   6.725   5.857 -0.4931 -0.1671  1.6918
  371MOL0     H50033  10.389   6.747   5.935  1.6562  1.6338 -1.5143
  371MOL0     H50034  10.301   6.477   5.840 -1.0585 -1.1810  1.9025
  371MOL0     H50035  10.447   6.516   5.943 -1.1448 -2.4093  0.4420
  371MOL0     H50036  10.328   6.677   6.180 -0.5078  1.1436 -1.1538
  371MOL0     H50037  10.316   6.530   6.438 -1.7842  1.6094  2.2964
  371MOL0     H50038  10.176   6.613   6.429 -0.3494  0.7120 -1.8766
  371MOL0     H50039  10.196   6.311   6.408 -2.0864  0.3532 -0.7517
  371MOL0     H50040  10.209   6.383   6.568  1.7000 -4.0706 -1.8472
  371MOL0     H50041   9.973   6.398   6.372 -0.2725  1.4750  0.1126
  371MOL0     H50042   9.968   6.457   6.544  2.4863  1.9331 -0.8635
  371MOL0     H50043   9.983   6.166   6.452 -1.0599 -1.8797  1.1420
  371MOL0     H50044   9.854   6.239   6.530 -0.8750 -5.8518 -2.7505
  371MOL0     H50045   9.812   6.044   6.585 -1.8495 -2.2266  0.3446
  371MOL0     H50046   9.686   5.911   6.746 -0.7347  2.2638  0.9994
  371MOL0     H50047   9.540   5.586   6.917 -1.3697 -3.1847  1.0036
  371MOL0     H50048   9.391   5.459   7.087  1.1977 -0.9177 -1.4568
  371MOL0     H50049   9.204   5.562   7.482  0.8860 -2.1991 -0.7547
  371MOL0     H50050   9.254   5.702   7.406 -1.0671  0.9390 -1.7048
  371MOL0     H50051   9.014   5.658   7.345 -2.2272 -2.3040 -0.0015
  371MOL0     H50052   9.106   5.627   7.190 -2.3096  0.1254 -0.1801
  371MOL0     H50053   9.015   5.423   7.182  0.8401  0.2219  0.2516
  371MOL0     H50054   9.128   5.377   7.298  0.5980  0.3188 -2.6356
  371MOL0     H50055   8.845   5.486   7.364 -2.7611 -2.4019  0.0916
  371MOL0     H50056   8.964   5.439   7.487 -2.5545 -0.5557  1.4229
  371MOL0     H50057   8.947   5.193   7.399 -1.6617 -2.8174 -0.7242
  371MOL0     H50058   8.876   5.249   7.248  0.4994 -2.4620  0.8011
  371MOL0     H50059   8.736   5.226   7.518  2.2989 -1.0320  0.6811
  371MOL0     H50060   8.683   5.321   7.382 -0.9398 -1.6874 -2.5051
  371MOL0     H50061   8.679   5.111   7.232  0.5133 -2.6539  0.4152
  371MOL0     H50062   8.588   5.092   7.383  1.2424  0.8076  4.2912
  371MOL0     H50063   8.856   5.006   7.424  2.4813 -0.1505 -1.9701
  371MOL0     H50064   8.712   4.905   7.390  0.9896 -0.5232 -2.1443
  371MOL0     H50065   9.450   5.763   7.378 -1.0779 -4.9630  1.4574
  371MOL0     H50066   9.592   5.891   7.226 -2.0953  1.9749 -0.3319
  371MOL0     H50067  10.013   5.976   7.028 -2.3934  0.2994  0.3936
  371MOL0     H50068  10.110   6.141   6.876 -0.1073  0.1048  1.3237
  371MOL0     H50069  10.778   6.973   6.086 -5.2264 -0.0344 -1.0701
  371MOL0     H50070  10.795   7.010   6.307 -1.6481  0.5810  0.7198
  371MOL0     H50071  10.911   7.108   6.620  0.5729  0.6559 -0.1212
  371MOL0     H50072  10.969   7.046   6.864  2.2714  0.7724  3.7906
  371MOL0     H50073  10.884   7.053   7.071  0.8200 -0.2554 -0.6353
  371MOL0     H50074  10.910   7.111   7.234 -1.4872  0.8377 -0.2056
  371MOL0     H50075  11.171   7.082   7.185  0.5718 -0.2449  0.4805
  371MOL0     H50076  11.125   7.024   7.028  1.1410 -0.5784  0.5950
  371MOL0     H50077  10.978   6.864   7.148 -0.1553  0.5928  0.4229
  371MOL0     H50078  11.086   6.875   7.296  0.3646 -4.2846 -0.0990
  371MOL0     H50079  11.185   6.806   7.020  0.6170 -2.1480  0.1629
  371MOL0     H50080  11.285   6.847   7.162 -0.6166  0.8075 -0.5794
  371MOL0     H50081  11.159   6.444   7.243 -0.7324 -1.8564 -2.4384
  371MOL0     H50082  10.842   7.437   6.999 -4.7759  2.1671 -2.2462
  371MOL0     H50083  10.665   7.550   6.701  0.4034 -1.7902 -1.2441
  371MOL0     H50084  10.727   7.577   6.861 -0.5513 -1.5926  0.9199
  371MOL0     H50085  10.837   7.594   6.719 -1.4030 -0.7803 -2.5029
  372MOL0     O50086   3.207   9.060   0.023  0.7001 -0.2485 -0.2719
  372MOL0     C50087   3.215   9.117  -0.095  0.5354  0.2405 -0.0856
  372MOL0     O50088   3.247   9.247  -0.124  0.3933  0.0408  0.1442
  372MOL0     C50089   3.240   9.338  -0.027 -0.1677 -0.5459  1.1750
  372MOL0     C50090   3.302   9.326   0.100  0.0156 -0.5655 -0.5708
  372MOL0     C50091   3.286   9.433   0.204 -0.2854  0.3589  0.6514
  372MOL0     C50092   3.216   9.550   0.169 -1.1902 -0.0888  0.3132
  372MOL0     O50093   3.200   9.637   0.276 -0.3821  0.0635 -0.0267
  372MOL0     C50094   3.161   9.776   0.260 -0.4210 -0.9373  0.0696
  372MOL0     C50095   3.256   9.859   0.179  0.2479  0.7527  0.7734
  372MOL0     C50096   3.388   9.891   0.262 -0.0167  0.2006  0.8985
  372MOL0     C50097   3.483   9.983   0.180 -0.4366 -0.4537 -0.4287
  372MOL0     C50098   3.413  10.117   0.147  0.2966 -0.1661  0.4995
  372MOL0     C50099   3.378  10.222   0.262  0.3190  0.8538  0.0633
  372MOL0     C50100   3.261  10.315   0.214 -0.4297  0.7186  0.1583
  372MOL0     C50101   3.127  10.274   0.242  0.5275 -1.4777  0.1178
  372MOL0     N50102   3.106  10.198   0.364  0.6995  0.0536  0.3844
  372MOL0     C50103   3.114  10.240   0.485 -0.6764 -0.4047 -0.7871
  372MOL0     C50104   3.075  10.140   0.562 -0.3660  1.1942  0.9131
  372MOL0     C50105   3.093  10.112   0.720 -0.9231  0.5365  0.4943
  372MOL0     C50106   3.187   9.993   0.747 -0.2189  0.4641  0.5119
  372MOL0     C50107   3.108   9.868   0.808 -0.1622 -0.6628  0.6931
  372MOL0     C50108   3.019   9.794   0.713 -0.3616 -0.5633 -0.0712
  372MOL0     O50109   2.951   9.676   0.760  0.4816 -0.6681 -0.9306
  372MOL0     C50110   2.890   9.594   0.660  0.3417  0.7675 -1.0466
  372MOL0     C50111   2.928   9.594   0.529 -0.0833 -0.1459  0.6369
  372MOL0     C50112   2.885   9.508   0.436  0.6055 -0.0162 -0.1508
  372MOL0     C50113   2.794   9.413   0.465  0.5512  0.2147 -0.0126
  372MOL0     C50114   2.752   9.304   0.369  0.6555 -0.4479 -0.0761
  372MOL0     O50115   2.841   9.278   0.272 -0.2065  0.2845 -0.1216
  372MOL0     C50116   2.837   9.152   0.210 -0.0919 -0.4327 -0.0065
  372MOL0     C50117   2.718   9.116   0.136  0.5912  0.0397 -1.0217
  372MOL0     C50118   2.713   8.986   0.080  0.3663 -0.4252  0.2232
  372MOL0     C50119   2.818   8.899   0.087 -0.0843  0.2489 -0.5382
  372MOL0     O50120   2.794   8.773   0.036 -0.6127  0.0752 -0.2650
  372MOL0     C50121   2.790   8.676   0.146 -0.2901  0.0518 -0.0825
  372MOL0     C50122   2.822   8.539   0.088 -0.2865  0.4513  0.0529
  372MOL0     C50123   2.833   8.434   0.202  0.1453 -0.0584  0.6422
  372MOL0     C50124   2.860   8.292   0.147 -1.4282  0.1461 -0.4899
  372MOL0     C50125   2.950   8.219   0.246 -0.8633 -0.6652 -0.4311
  372MOL0     C50126   2.979   8.071   0.209 -0.7321  0.6333 -0.4824
  372MOL0     C50127   3.111   8.053   0.132 -0.4675 -0.5504  0.1054
  372MOL0     C50128   3.110   7.912   0.084 -0.5753 -0.2777  0.2168
  372MOL0    Cl50129   3.270   7.860   0.040  0.3777 -0.1103 -0.4370
  372MOL0     C50130   2.937   8.948   0.138  0.2004 -0.9615  0.8116
  372MOL0     C50131   2.951   9.070   0.206  0.1063 -0.0925  0.4565
  372MOL0     O50132   2.662   9.229   0.404  0.6734 -0.5976  0.0976
  372MOL0     C50133   2.740   9.414   0.603  0.2653  0.5591  1.0037
  372MOL0     C50134   2.791   9.504   0.695 -0.4253  0.1988  0.2151
  372MOL0     N50135   3.047  10.032   0.479 -0.0260 -0.4340  0.0875
  372MOL0     N50136   3.062  10.065   0.356 -0.4081 -0.4866  0.5431
  372MOL0     C50137   3.145   9.550   0.053 -0.2202  0.3292 -0.6087
  372MOL0     C50138   3.146   9.444  -0.034  0.3091 -0.1886 -0.3527
  372MOL0     C50139   3.196   9.032  -0.213 -0.7391 -0.1848  0.6202
  372MOL0     C50140   3.123   9.082  -0.319  0.7073 -0.1821 -0.5518
  372MOL0     C50141   3.125   9.000  -0.439  0.6118  0.7969 -0.6365
  372MOL0     C50142   3.189   8.874  -0.445 -0.1901  0.5035 -0.1805
  372MOL0     O50143   3.194   8.808  -0.566 -0.1251  0.5098  0.0906
  372MOL0     C50144   3.087   8.817  -0.668 -0.7506 -0.5396  0.3651
  372MOL0     C50145   3.145   8.734  -0.790  0.3539 -0.2250  0.0013
  372MOL0     C50146   3.151   8.588  -0.774 -0.0579  1.2660  0.0417
  372MOL0     C50147   3.015   8.531  -0.759 -0.4142 -0.4332  0.2065
  372MOL0     C50148   3.006   8.402  -0.705  0.1572  0.3040  0.4965
  372MOL0     C50149   2.991   8.291  -0.655  0.5629  0.3205 -0.0304
  372MOL0     C50150   3.244   8.821  -0.328 -0.2963  0.1518  0.0680
  372MOL0     C50151   3.256   8.902  -0.213  0.0542 -0.6040 -0.1058
  372MOL0     C50152   3.360   8.870  -0.105  0.1244 -0.6112  0.3547
  372MOL0     H50153   3.355   9.232   0.117  0.2608 -0.3809 -0.2960
  372MOL0     H50154   3.335   9.425   0.300  0.9721  3.3542  0.3496
  372MOL0     H50155   3.063   9.776   0.212 -0.7873 -3.0131  0.7025
  372MOL0     H50156   3.146   9.818   0.360  2.4315  1.1532 -0.2789
  372MOL0     H50157   3.204   9.953   0.160  0.8765  0.7801 -1.0126
  372MOL0     H50158   3.282   9.814   0.083  0.3514  3.2120 -0.4231
  372MOL0     H50159   3.435   9.794   0.277 -2.9951 -1.7172 -0.9493
  372MOL0     H50160   3.366   9.954   0.349  2.6971  2.3465  0.1592
  372MOL0     H50161   3.568  10.009   0.244 -0.8050 -1.6151  0.6019
  372MOL0     H50162   3.525   9.930   0.094  0.5142 -1.0203  0.3574
  372MOL0     H50163   3.493  10.169   0.094 -0.4118 -2.0151 -2.6534
  372MOL0     H50164   3.338  10.087   0.073 -0.5742 -0.8636  1.6339
  372MOL0     H50165   3.342  10.185   0.358 -4.2862  1.0338 -1.3626
  372MOL0     H50166   3.467  10.280   0.288  0.6050  0.0824  0.8731
  372MOL0     H50167   3.262  10.325   0.105 -2.8747  3.3296  0.2306
  372MOL0     H50168   3.272  10.415   0.258 -0.8982 -0.4097  3.0888
  372MOL0     H50169   3.058  10.358   0.230  4.7689  2.5355  0.7325
  372MOL0     H50170   3.100  10.211   0.157  0.0408 -1.0444 -0.0592
  372MOL0     H50171   3.160  10.329   0.526  1.2198 -1.3157 -0.7961
  372MOL0     H50172   3.125  10.203   0.772 -0.1824  0.0119  0.9820
  372MOL0     H50173   2.996  10.086   0.765 -1.8028 -0.3355 -1.7750
  372MOL0     H50174   3.232   9.954   0.656 -2.0467 -2.9219  0.9107
  372MOL0     H50175   3.263  10.028   0.818  0.3119  2.4494 -0.9478
  372MOL0     H50176   3.042   9.896   0.891  1.1978 -1.4520  2.0851
  372MOL0     H50177   3.189   9.805   0.846  2.0688  1.4196 -0.2603
  372MOL0     H50178   3.077   9.774   0.622  0.9082 -0.0940  0.6185
  372MOL0     H50179   2.941   9.868   0.692 -1.5916 -1.4581  1.1544
  372MOL0     H50180   3.010   9.657   0.495 -1.6782  0.7354 -1.8541
  372MOL0     H50181   2.925   9.519   0.336  0.1513 -1.3167 -0.4945
  372MOL0     H50182   2.621   9.164   0.137 -0.5102 -1.8176  2.7876
  372MOL0     H50183   2.632   8.967   0.010  0.1837 -0.8107  0.5397
  372MOL0     H50184   2.857   8.701   0.229 -0.3807 -1.8695  0.6291
  372MOL0     H50185   2.686   8.682   0.180  0.1596  1.7088  1.0738
  372MOL0     H50186   2.761   8.503   0.005  1.1910  1.0029 -1.3316
  372MOL0     H50187   2.922   8.542   0.043 -1.7558 -2.8592 -4.0866
  372MOL0     H50188   2.913   8.471   0.266  0.7546  1.5082 -0.9283
  372MOL0     H50189   2.733   8.448   0.245 -0.2984  1.5314 -0.7810
  372MOL0     H50190   2.928   8.304   0.062 -0.8294  0.3195  0.0093
  372MOL0     H50191   2.772   8.232   0.120 -0.0224 -1.1863 -2.3485
  372MOL0     H50192   2.897   8.209   0.342 -0.7351 -0.2335 -0.3117
  372MOL0     H50193   3.044   8.271   0.264  2.7909 -5.8797 -2.0877
  372MOL0     H50194   2.993   8.016   0.303 -1.9059  3.2158  1.3019
  372MOL0     H50195   2.896   8.021   0.159 -1.5258 -1.8854  2.9845
  372MOL0     H50196   3.196   8.075   0.197 -1.4099  0.6148  0.9907
  372MOL0     H50197   3.114   8.127   0.052 -1.9684 -0.0932  0.4429
  372MOL0     H50198   3.083   7.843   0.165  0.7714 -0.7999  0.2537
  372MOL0     H50199   3.047   7.916  -0.005  0.3922  1.8637 -0.4515
  372MOL0     H50200   3.027   8.886   0.142  0.7357 -0.1486  2.8770
  372MOL0     H50201   3.042   9.109   0.250  1.5300  0.4479 -2.6657
  372MOL0     H50202   2.666   9.339   0.626  0.4533  0.2408  0.5915
  372MOL0     H50203   2.767   9.489   0.800  2.3311  1.3684  1.0883
  372MOL0     H50204   3.082   9.635   0.028 -1.3729 -0.9685 -2.2811
  372MOL0     H50205   3.092   9.447  -0.129  2.7831 -2.5526 -2.0162
  372MOL0     H50206   3.071   9.177  -0.308 -2.6656 -2.1866  3.5312
  372MOL0     H50207   3.078   9.036  -0.531 -2.0976 -2.5589 -0.7760
  372MOL0     H50208   3.079   8.915  -0.716  1.2662  0.1328  1.2996
  372MOL0     H50209   2.989   8.792  -0.626 -0.1424 -0.9293  1.5927
  372MOL0     H50210   3.236   8.780  -0.830 -0.4425  1.6134  0.2199
  372MOL0     H50211   3.075   8.754  -0.872  1.1111 -1.6358 -1.0364
  372MOL0     H50212   3.197   8.570  -0.676 -0.6051  1.5611  0.3542
  372MOL0     H50213   3.199   8.520  -0.845  0.7565 -0.1520  1.8442
  372MOL0     H50214   2.960   8.597  -0.692 -2.2723 -4.7424  3.3699
  372MOL0     H50215   2.962   8.528  -0.855  2.2373 -0.8994 -1.3732
  372MOL0     H50216   2.973   8.188  -0.632  2.6163 -0.7792 -2.7669
  372MOL0     H50217   3.300   8.729  -0.336  0.7240  0.3550  3.3524
  372MOL0     H50218   3.315   8.827  -0.015  2.6990  0.6668  2.3549
  372MOL0     H50219   3.418   8.799  -0.165 -0.8769  0.3677 -1.8872
  372MOL0     H50220   3.429   8.949  -0.076 -1.3376  1.1135 -0.6419
  373MOL0     O50221   7.707   1.450   6.501 -0.0488  0.1272 -0.4851
  373MOL0     C50222   7.744   1.538   6.576 -0.2305 -0.1067 -0.5658
  373MOL0     O50223   7.853   1.536   6.661 -0.2571 -0.3683 -0.0127
  373MOL0     C50224   7.980   1.509   6.610  0.3227  0.1545 -0.8929
  373MOL0     C50225   8.021   1.474   6.478  1.0682  0.5414 -0.0596
  373MOL0     C50226   8.165   1.458   6.459 -0.6765 -0.5890 -0.3057
  373MOL0     C50227   8.262   1.479   6.558 -1.0316  1.0146 -0.3809
  373MOL0     O50228   8.393   1.441   6.527  0.8856  0.3620 -0.2783
  373MOL0     C50229   8.483   1.402   6.625 -0.1323 -0.5715 -0.1120
  373MOL0     C50230   8.606   1.348   6.541 -0.0789  0.2494  0.0307
  373MOL0     C50231   8.716   1.313   6.643  0.0153 -1.2470  0.3626
  373MOL0     C50232   8.847   1.250   6.577  0.9552 -0.2618 -0.5884
  373MOL0     C50233   8.949   1.208   6.689  1.2396 -0.0701  0.0534
  373MOL0     C50234   9.044   1.097   6.642 -0.1644 -0.5492  0.4844
  373MOL0     C50235   9.187   1.113   6.688  0.3787  0.1604  0.3093
  373MOL0     C50236   9.283   0.997   6.667  0.3068  0.0540 -0.4088
  373MOL0     N50237   9.265   0.898   6.774  0.5092 -0.0219 -0.5819
  373MOL0     C50238   9.358   0.812   6.816 -0.4766 -0.3830 -0.7293
  373MOL0     C50239   9.301   0.703   6.874  0.9352 -1.3163 -0.8029
  373MOL0     C50240   9.379   0.587   6.911  0.7960 -0.8547  1.2166
  373MOL0     C50241   9.360   0.547   7.063  0.6135 -0.5168 -0.6712
  373MOL0     C50242   9.421   0.647   7.149  0.0819  0.1570 -0.3468
  373MOL0     C50243   9.568   0.645   7.172 -1.0430  0.3728 -0.0593
  373MOL0     O50244   9.628   0.517   7.195  0.7253 -0.0788  0.2551
  373MOL0     C50245   9.764   0.506   7.203  0.9295  0.0701  0.1394
  373MOL0     C50246   9.822   0.379   7.232 -0.0891 -0.6433 -0.2926
  373MOL0     C50247   9.965   0.364   7.250 -0.0254  0.0092  0.6224
  373MOL0     C50248  10.048   0.464   7.212  0.2583  0.0248 -0.3930
  373MOL0     C50249  10.189   0.441   7.184  0.6196  0.1117 -0.1184
  373MOL0     O50250  10.250   0.535   7.104  0.4457 -0.7935  0.1364
  373MOL0     C50251  10.385   0.555   7.103 -0.1881 -0.7446 -0.5708
  373MOL0     C50252  10.460   0.573   6.986  0.5403  0.1447 -0.4814
  373MOL0     C50253  10.596   0.611   6.989 -0.7518  0.3878  0.0603
  373MOL0     C50254  10.671   0.625   7.108  0.4172 -0.7190 -0.0503
  373MOL0     O50255  10.802   0.657   7.101  0.4307 -0.7458  0.5055
  373MOL0     C50256  10.901   0.557   7.137 -0.9444 -0.7046 -0.2029
  373MOL0     C50257  11.035   0.632   7.156  0.1951 -0.0724  0.5384
  373MOL0     C50258  11.142   0.546   7.213  0.1408  0.3398  1.1407
  373MOL0     C50259  11.273   0.630   7.238 -0.1134 -0.2343  0.2800
  373MOL0     C50260  11.396   0.537   7.252  0.2898  0.1441  0.3228
  373MOL0     C50261  11.385   0.439   7.370  0.0022  0.0675  1.4360
  373MOL0     C50262  11.532   0.394   7.415  0.1170 -0.2457  0.1338
  373MOL0     C50263  11.534   0.269   7.505  0.9259 -0.5571  0.6283
  373MOL0    Cl50264  11.516   0.113   7.408  0.2345  0.0485 -0.2301
  373MOL0     C50265  10.605   0.594   7.228 -0.1074 -1.1994  0.4766
  373MOL0     C50266  10.460   0.569   7.228  0.0180  0.2655 -0.1979
  373MOL0     O50267  10.247   0.347   7.248  0.9285  0.7001 -0.1299
  373MOL0     C50268   9.992   0.579   7.167  0.0832 -0.6418  0.7978
  373MOL0     C50269   9.860   0.606   7.171  0.6912  0.2753 -0.7967
  373MOL0     N50270   9.165   0.730   6.874  0.5402 -0.2760 -0.0072
  373MOL0     N50271   9.144   0.848   6.814 -0.2956  0.3921 -0.2637
  373MOL0     C50272   8.225   1.510   6.689  0.8818 -0.1018 -0.8330
  373MOL0     C50273   8.081   1.521   6.714 -1.3598 -0.0281 -0.2692
  373MOL0     C50274   7.653   1.663   6.585 -0.9244  0.1762  0.1041
  373MOL0     C50275   7.714   1.778   6.650  0.7975  0.0142  0.5152
  373MOL0     C50276   7.640   1.901   6.650  0.8966  0.3226  0.4986
  373MOL0     C50277   7.504   1.907   6.618 -0.5887  0.0968  0.6111
  373MOL0     O50278   7.433   2.015   6.644  0.8543 -0.0665  0.5332
  373MOL0     C50279   7.405   2.018   6.788  0.5839  0.3565 -0.8744
  373MOL0     C50280   7.310   2.128   6.835 -0.3915  0.0808  0.6682
  373MOL0     C50281   7.367   2.269   6.834  0.4490  0.2902  0.0834
  373MOL0     C50282   7.279   2.368   6.900 -0.2283 -0.1464 -0.1416
  373MOL0     C50283   7.265   2.353   7.041  0.5720  0.2645  0.5865
  373MOL0     C50284   7.260   2.325   7.158 -0.2732 -0.1859  0.5966
  373MOL0     C50285   7.448   1.797   6.553  0.5287  0.1533 -0.4073
  373MOL0     C50286   7.526   1.687   6.529 -0.7794  0.7596 -0.4347
  373MOL0     C50287   7.453   1.582   6.454 -0.1074 -0.5955  0.2148
  373MOL0     H50288   7.954   1.454   6.395 -1.0344  0.7341  1.5028
  373MOL0     H50289   8.190   1.438   6.355 -1.2497 -0.3398 -0.4959
  373MOL0     H50290   8.508   1.494   6.679  0.2784  0.1808 -1.5538
  373MOL0     H50291   8.441   1.323   6.689 -4.9597  0.5343 -1.5022
  373MOL0     H50292   8.647   1.428   6.478 -0.3134  1.2253  1.0933
  373MOL0     H50293   8.591   1.254   6.487  1.5213 -0.4765  0.8033
  373MOL0     H50294   8.677   1.235   6.708 -1.8243 -0.8468 -0.2134
  373MOL0     H50295   8.739   1.396   6.711 -2.8340 -0.5081  0.5254
  373MOL0     H50296   8.816   1.163   6.518 -0.0631  1.0075 -2.0036
  373MOL0     H50297   8.901   1.313   6.506 -0.3638 -1.5935 -2.9050
  373MOL0     H50298   8.996   1.306   6.698 -0.3473  0.8491 -1.1775
  373MOL0     H50299   8.894   1.184   6.781 -0.0279 -2.4479 -1.2061
  373MOL0     H50300   9.007   1.006   6.689  0.4177 -2.4366 -2.4427
  373MOL0     H50301   9.067   1.091   6.536 -0.1104 -0.8043  0.5113
  373MOL0     H50302   9.179   1.115   6.797 -4.8648  0.8763  0.1499
  373MOL0     H50303   9.229   1.202   6.640 -2.9460  1.2000 -0.9042
  373MOL0     H50304   9.274   0.944   6.572  2.8862 -1.4352  0.0848
  373MOL0     H50305   9.387   1.027   6.661  1.2111 -1.9999  2.5504
  373MOL0     H50306   9.464   0.831   6.807 -0.4766  2.5547  2.8754
  373MOL0     H50307   9.351   0.509   6.840 -1.1894  0.9766 -0.1221
  373MOL0     H50308   9.483   0.609   6.886  0.4834  1.8493  2.0048
  373MOL0     H50309   9.251   0.542   7.070  0.4699 -0.4964 -2.4369
  373MOL0     H50310   9.415   0.454   7.082  1.7036  0.0215 -1.1277
  373MOL0     H50311   9.379   0.606   7.241 -0.1741 -0.6562 -0.8144
  373MOL0     H50312   9.378   0.747   7.137  0.5539  0.2496 -1.3606
  373MOL0     H50313   9.596   0.707   7.258 -1.1078  3.3380 -2.0184
  373MOL0     H50314   9.621   0.699   7.093  0.1086  1.9888  1.7357
  373MOL0     H50315   9.776   0.281   7.245  1.7125 -1.3331  1.4310
  373MOL0     H50316   9.999   0.270   7.291 -0.5378 -0.5558 -0.1856
  373MOL0     H50317  10.406   0.579   6.892 -0.3410 -1.0997 -0.0884
  373MOL0     H50318  10.637   0.620   6.889  1.1221  0.8896  0.8297
  373MOL0     H50319  10.883   0.509   7.233 -1.0493  2.7571  1.6829
  373MOL0     H50320  10.919   0.489   7.053  4.0303 -1.6124  1.3177
  373MOL0     H50321  11.065   0.676   7.061 -0.5890 -1.3622 -0.3343
  373MOL0     H50322  11.014   0.717   7.221 -2.1908  0.7759 -1.2413
  373MOL0     H50323  11.106   0.512   7.311  1.1049  2.0513  2.1264
  373MOL0     H50324  11.175   0.457   7.158 -1.9440  0.0542  0.2514
  373MOL0     H50325  11.269   0.686   7.331 -0.4067  1.4035 -0.6953
  373MOL0     H50326  11.293   0.700   7.157 -0.9202  0.8855  1.0204
  373MOL0     H50327  11.482   0.598   7.282  1.1542 -0.8246 -0.1208
  373MOL0     H50328  11.412   0.487   7.156 -0.6651 -0.2010  0.3379
  373MOL0     H50329  11.339   0.487   7.457 -1.0540 -1.0235  1.5130
  373MOL0     H50330  11.331   0.352   7.334 -2.5774  1.3991  1.8327
  373MOL0     H50331  11.584   0.478   7.462  2.7706 -0.2599 -2.5009
  373MOL0     H50332  11.588   0.376   7.323 -1.0364  1.8579 -1.0818
  373MOL0     H50333  11.636   0.258   7.542  0.8406  1.2829  1.5012
  373MOL0     H50334  11.461   0.283   7.585  1.0003 -2.7487  1.1561
  373MOL0     H50335  10.670   0.595   7.314 -1.1554 -0.8247  1.2949
  373MOL0     H50336  10.410   0.540   7.320 -1.5469 -0.6751 -1.2943
  373MOL0     H50337  10.060   0.658   7.135  1.1213 -1.0021  2.0114
  373MOL0     H50338   9.832   0.708   7.148  1.5242  1.8159  3.8898
  373MOL0     H50339   8.296   1.503   6.770 -0.1201 -0.7489  0.0137
  373MOL0     H50340   8.059   1.541   6.818  2.7995  0.5431  0.6691
  373MOL0     H50341   7.811   1.776   6.700  2.4403  1.1694 -2.3397
  373MOL0     H50342   7.675   1.987   6.707  1.5970 -0.6586  1.6066
  373MOL0     H50343   7.498   2.020   6.846  0.9423  1.8957 -1.4729
  373MOL0     H50344   7.363   1.924   6.827  0.4429  1.7439  2.7371
  373MOL0     H50345   7.275   2.108   6.937 -0.0577  2.5159  1.3324
  373MOL0     H50346   7.218   2.125   6.775 -0.7179 -0.9200  1.2078
  373MOL0     H50347   7.385   2.301   6.732  0.5562  0.1782  0.0666
  373MOL0     H50348   7.460   2.269   6.891  2.4356 -0.5687 -2.9221
  373MOL0     H50349   7.331   2.461   6.875 -0.1195 -0.0377  0.4883
  373MOL0     H50350   7.180   2.370   6.855 -0.0243 -0.1184 -0.5989
  373MOL0     H50351   7.261   2.310   7.265  0.4301  0.6343  0.7135
  373MOL0     H50352   7.347   1.809   6.513  0.7476 -0.6677 -1.2410
  373MOL0     H50353   7.367   1.624   6.400  0.7155 -0.2909 -0.8847
  373MOL0     H50354   7.513   1.532   6.377 -0.3018  3.2051 -2.7080
  373MOL0     H50355   7.416   1.514   6.531 -4.6679  2.6525  1.3651
  374MOL0     O50356   2.702   7.925   6.587 -0.0449  0.1344 -0.1177
  374MOL0     C50357   2.804   7.905   6.516  0.7012 -0.2012  0.3731
  374MOL0     O50358   2.834   7.971   6.402 -0.0662  0.4293  0.3044
  374MOL0     C50359   2.787   8.098   6.373 -1.2362  0.4853  0.4388
  374MOL0     C50360   2.713   8.189   6.454  0.7993 -0.4185  0.3351
  374MOL0     C50361   2.669   8.311   6.402 -0.0918 -0.0701 -0.6268
  374MOL0     C50362   2.683   8.349   6.273  0.0248  0.3282  0.4945
  374MOL0     O50363   2.645   8.461   6.211  0.8536  0.2425 -0.8463
  374MOL0     C50364   2.596   8.580   6.286  0.3846  0.1224 -0.4352
  374MOL0     C50365   2.719   8.666   6.345  0.2829 -0.1647 -0.2847
  374MOL0     C50366   2.668   8.782   6.430 -0.1077 -0.1897  0.6315
  374MOL0     C50367   2.770   8.867   6.488 -0.1474 -0.0584 -0.0990
  374MOL0     C50368   2.792   9.006   6.433 -0.1378  0.6311  0.0411
  374MOL0     C50369   2.875   9.002   6.299 -0.1809  0.5732 -0.3049
  374MOL0     C50370   3.017   8.932   6.294  0.2421  0.0808 -0.2150
  374MOL0     C50371   3.088   8.916   6.160 -0.7869 -0.7808  0.4786
  374MOL0     N50372   3.123   9.032   6.078 -0.3415  0.4428  0.3267
  374MOL0     C50373   3.226   9.114   6.100 -0.6724 -0.1920  0.5507
  374MOL0     C50374   3.194   9.225   6.030  1.0069 -0.6160 -0.8623
  374MOL0     C50375   3.279   9.350   6.006 -0.4648  0.0047 -0.2996
  374MOL0     C50376   3.411   9.323   5.930  0.4351 -0.0985  0.9527
  374MOL0     C50377   3.517   9.436   5.949  0.2094 -0.9519 -0.6301
  374MOL0     C50378   3.495   9.558   5.860 -0.3946 -0.2401 -0.1201
  374MOL0     O50379   3.384   9.632   5.898  0.7784  0.0722 -0.0382
  374MOL0     C50380   3.345   9.728   5.812 -0.1222 -0.3351  0.1222
  374MOL0     C50381   3.417   9.779   5.703 -0.9215  0.1020 -0.5100
  374MOL0     C50382   3.359   9.880   5.628  0.0927  0.2115  0.5893
  374MOL0     C50383   3.232   9.935   5.648  0.3525  0.8534  0.6453
  374MOL0     C50384   3.182  10.057   5.573  0.2182  0.0114  0.6544
  374MOL0     O50385   3.139  10.164   5.640 -0.3512  0.6699  0.1061
  374MOL0     C50386   3.115  10.275   5.578  0.6155 -0.5224  0.5960
  374MOL0     C50387   2.986  10.306   5.527  0.5311  0.3114 -0.1321
  374MOL0     C50388   2.955  10.426   5.482  1.0631 -0.3485  0.5694
  374MOL0     C50389   3.057  10.516   5.455 -1.4245  0.2662 -0.2092
  374MOL0     O50390   3.022  10.634   5.401  0.4744 -0.7817  0.4387
  374MOL0     C50391   3.067  10.761   5.458  0.1890  0.4237 -0.3719
  374MOL0     C50392   2.971  10.801   5.571 -0.9185  0.4316  0.5207
  374MOL0     C50393   3.017  10.947   5.608  0.1897 -0.1578 -1.8643
  374MOL0     C50394   2.943  10.975   5.737  0.2644 -0.0305 -0.7810
  374MOL0     C50395   2.945  11.122   5.793  0.4644  0.9315 -0.0259
  374MOL0     C50396   2.878  11.152   5.929 -0.1872  0.2023 -0.5157
  374MOL0     C50397   2.732  11.096   5.946 -0.3506  0.0715  0.4034
  374MOL0     C50398   2.643  11.182   6.045 -0.0003 -0.1280 -0.4411
  374MOL0    Cl50399   2.707  11.217   6.210  0.0573 -0.1553  0.1469
  374MOL0     C50400   3.194  10.479   5.481 -0.4481  0.0343 -1.1256
  374MOL0     C50401   3.219  10.361   5.545 -0.3568  0.9612 -0.0285
  374MOL0     O50402   3.188  10.052   5.450  0.1861  0.0337 -0.3945
  374MOL0     C50403   3.150   9.881   5.748  1.0088  0.7016  0.0383
  374MOL0     C50404   3.216   9.794   5.834 -0.1043 -0.1752 -0.3052
  374MOL0     N50405   3.070   9.218   5.973 -0.3425 -0.0984  0.1163
  374MOL0     N50406   3.040   9.095   5.995  0.0503 -0.0147 -0.1352
  374MOL0     C50407   2.765   8.261   6.195 -0.8458  1.3474 -0.3140
  374MOL0     C50408   2.807   8.140   6.240  0.7151 -1.1154  0.7439
  374MOL0     C50409   2.890   7.797   6.552 -0.2715  0.0598  0.0502
  374MOL0     C50410   2.957   7.729   6.443 -0.7053  0.4484 -0.5217
  374MOL0     C50411   3.052   7.639   6.480  0.0191 -0.2127  0.5720
  374MOL0     C50412   3.087   7.592   6.606  0.3005  0.2126 -1.0289
  374MOL0     O50413   3.154   7.474   6.606 -0.0301  0.2230 -0.6963
  374MOL0     C50414   3.220   7.431   6.724 -0.7247 -0.6026 -0.6691
  374MOL0     C50415   3.373   7.466   6.716 -0.4610 -1.0911 -0.8649
  374MOL0     C50416   3.398   7.603   6.789 -0.0692  0.0579 -0.0038
  374MOL0     C50417   3.530   7.656   6.762 -0.1059  0.5418 -0.4069
  374MOL0     C50418   3.550   7.704   6.634  0.0916  0.9589  0.1089
  374MOL0     C50419   3.569   7.756   6.528  0.3679  0.1212 -0.5687
  374MOL0     C50420   3.015   7.642   6.722 -0.0124 -0.7164  0.1804
  374MOL0     C50421   2.923   7.753   6.692 -0.4225 -0.1111 -0.8042
  374MOL0     C50422   2.861   7.819   6.816  0.2218  0.5140  0.2091
  374MOL0     H50423   2.703   8.176   6.561 -0.2689  2.0114  0.6031
  374MOL0     H50424   2.634   8.370   6.486 -3.4635 -2.1822 -0.3799
  374MOL0     H50425   2.548   8.650   6.217  1.9702 -0.2981 -2.0580
  374MOL0     H50426   2.520   8.561   6.362 -0.3420  0.9651 -0.9243
  374MOL0     H50427   2.794   8.705   6.276  0.6062  5.0860  2.5390
  374MOL0     H50428   2.763   8.599   6.420 -1.7672 -3.1155 -1.5091
  374MOL0     H50429   2.605   8.741   6.510  0.9929  0.4942  1.8875
  374MOL0     H50430   2.612   8.850   6.365 -0.0447 -2.7222 -2.3144
  374MOL0     H50431   2.726   8.884   6.587 -3.2163  0.2403 -1.3989
  374MOL0     H50432   2.864   8.811   6.495 -1.3806 -2.0570  2.4450
  374MOL0     H50433   2.708   9.076   6.438  1.0156  2.0000  1.4760
  374MOL0     H50434   2.871   9.052   6.494 -1.2940 -2.3794  4.2214
  374MOL0     H50435   2.808   8.961   6.222 -2.2710  1.2912  1.0406
  374MOL0     H50436   2.897   9.106   6.272 -0.4356  1.2655  1.9184
  374MOL0     H50437   2.998   8.834   6.338 -0.9818  1.3299  2.2344
  374MOL0     H50438   3.066   8.998   6.366 -1.2750  1.3783 -0.3153
  374MOL0     H50439   3.181   8.863   6.185 -0.1510  0.9522  1.9854
  374MOL0     H50440   3.034   8.848   6.094 -0.7494  1.0504 -1.5580
  374MOL0     H50441   3.317   9.084   6.151 -0.5439 -0.5316  0.1248
  374MOL0     H50442   3.228   9.430   5.953  0.0139  0.6576  0.2151
  374MOL0     H50443   3.312   9.393   6.101  2.3046  0.3821 -1.3589
  374MOL0     H50444   3.464   9.232   5.962 -1.3754 -0.6759  2.4620
  374MOL0     H50445   3.380   9.312   5.825  2.0118  1.9307  0.2074
  374MOL0     H50446   3.611   9.383   5.930 -0.2108 -2.2124  0.6607
  374MOL0     H50447   3.514   9.478   6.050  3.9430 -0.0280 -0.7340
  374MOL0     H50448   3.500   9.522   5.756  1.0060 -1.7433  0.4281
  374MOL0     H50449   3.580   9.625   5.875 -1.4171  1.9108 -2.9929
  374MOL0     H50450   3.521   9.755   5.683 -1.0191  0.2660 -1.2665
  374MOL0     H50451   3.419   9.925   5.549 -2.4299 -1.1649 -2.3347
  374MOL0     H50452   2.901  10.246   5.557  2.5341 -1.3384  2.7335
  374MOL0     H50453   2.851  10.449   5.457  1.8432  2.8166 -0.2052
  374MOL0     H50454   3.172  10.750   5.487 -0.3636 -1.9149  0.9678
  374MOL0     H50455   3.060  10.834   5.377 -1.5582  0.5343 -0.1521
  374MOL0     H50456   2.869  10.805   5.533 -0.4653  1.3001 -0.6987
  374MOL0     H50457   2.975  10.740   5.661  0.1962 -1.4938 -0.7457
  374MOL0     H50458   3.124  10.960   5.621 -0.0516  0.0429  0.2648
  374MOL0     H50459   2.988  11.023   5.534 -0.1537 -1.4729 -3.1255
  374MOL0     H50460   2.959  10.889   5.802 -2.8321 -2.1788 -2.5907
  374MOL0     H50461   2.838  10.960   5.710  1.1286  0.4631 -4.9914
  374MOL0     H50462   2.902  11.186   5.715  0.2353  0.6406 -0.1409
  374MOL0     H50463   3.050  11.150   5.804  0.4417  1.1811 -0.4154
  374MOL0     H50464   2.939  11.106   6.007 -0.2446  2.4088  0.9152
  374MOL0     H50465   2.880  11.260   5.944  0.8993  0.2227 -0.6862
  374MOL0     H50466   2.736  10.992   5.979 -0.7866 -0.2008 -0.3645
  374MOL0     H50467   2.668  11.092   5.858 -2.6085  2.7683  1.7400
  374MOL0     H50468   2.627  11.277   5.993 -1.4265  0.7516  1.5096
  374MOL0     H50469   2.547  11.134   6.066  1.3537 -3.0044 -0.3169
  374MOL0     H50470   3.266  10.548   5.440 -0.4338 -0.9652 -2.8962
  374MOL0     H50471   3.320  10.325   5.565 -1.3709 -1.9468  0.4560
  374MOL0     H50472   3.055   9.932   5.762 -0.0437 -0.7061 -1.4940
  374MOL0     H50473   3.136   9.765   5.901 -0.3796  1.5913  0.1775
  374MOL0     H50474   2.795   8.294   6.096  2.9643  2.5116  1.0272
  374MOL0     H50475   2.869   8.080   6.174  3.0796  1.3162  0.5693
  374MOL0     H50476   2.934   7.756   6.340  1.9160  1.4617 -0.9361
  374MOL0     H50477   3.103   7.597   6.394 -1.2459  1.1101 -0.8732
  374MOL0     H50478   3.212   7.322   6.728 -1.7326 -0.5123  1.1046
  374MOL0     H50479   3.188   7.467   6.822 -0.2420  0.0980 -0.7610
  374MOL0     H50480   3.418   7.455   6.617  1.0453 -4.6403  0.0444
  374MOL0     H50481   3.426   7.385   6.766 -1.6471 -0.3712  1.7651
  374MOL0     H50482   3.388   7.590   6.897  2.2148  0.3826  0.2960
  374MOL0     H50483   3.329   7.680   6.755 -0.3273 -0.8752 -1.7225
  374MOL0     H50484   3.554   7.737   6.833  0.8531 -1.1582  1.3112
  374MOL0     H50485   3.602   7.580   6.793 -1.1222 -0.0872  0.4688
  374MOL0     H50486   3.576   7.788   6.425 -5.6257 -0.5557 -1.4933
  374MOL0     H50487   3.022   7.592   6.818  1.4219  4.1517  2.9957
  374MOL0     H50488   2.932   7.834   6.898 -1.4690  1.6428  1.5432
  374MOL0     H50489   2.822   7.917   6.789  2.3418  1.7215  1.2272
  374MOL0     H50490   2.785   7.756   6.863  3.8828 -2.6084  2.5973
  375MOL0     O50491   5.923   9.440   7.838 -0.3318 -0.4913  0.2603
  375MOL0     C50492   6.025   9.405   7.898  0.4517 -0.8931 -0.0353
  375MOL0     O50493   6.037   9.360   8.035 -0.7915 -0.6976 -0.2364
  375MOL0     C50494   5.920   9.349   8.101  0.1013 -0.0374 -1.2706
  375MOL0     C50495   5.865   9.435   8.200 -0.3448 -0.0549 -0.3951
  375MOL0     C50496   5.743   9.406   8.264 -0.0463  0.2835  0.1468
  375MOL0     C50497   5.661   9.299   8.218 -0.2314  0.0801  0.2858
  375MOL0     O50498   5.531   9.279   8.252 -0.2976 -0.0165  0.2956
  375MOL0     C50499   5.488   9.326   8.376  0.3628  0.5687 -0.4139
  375MOL0     C50500   5.378   9.229   8.422 -0.4515  0.5633  0.4934
  375MOL0     C50501   5.431   9.124   8.505 -0.1218  0.3457  0.4174
  375MOL0     C50502   5.529   9.028   8.449 -0.6776 -0.7509 -0.3999
  375MOL0     C50503   5.552   8.896   8.532  0.4695 -0.2050 -0.7397
  375MOL0     C50504   5.660   8.815   8.476  0.1045 -1.2822 -0.8391
  375MOL0     C50505   5.633   8.736   8.352 -0.8886  1.1697 -0.4005
  375MOL0     C50506   5.755   8.665   8.277  0.0343  0.0487 -0.2661
  375MOL0     N50507   5.818   8.759   8.196  0.5291  0.9415  0.8392
  375MOL0     C50508   5.959   8.800   8.200  0.6889 -0.6935 -0.4900
  375MOL0     C50509   5.973   8.889   8.102  0.7992  0.1807  0.5514
  375MOL0     C50510   6.106   8.951   8.050  0.3517  0.0094  0.0927
  375MOL0     C50511   6.172   9.031   8.173 -0.8128  0.0796 -0.4031
  375MOL0     C50512   6.308   9.082   8.139  0.6585 -0.1032  0.5593
  375MOL0     C50513   6.375   9.168   8.247 -0.2972  0.0729 -0.1520
  375MOL0     O50514   6.502   9.231   8.220  0.1065  1.1952 -0.0783
  375MOL0     C50515   6.615   9.144   8.219 -0.7296  0.3385 -0.4225
  375MOL0     C50516   6.620   9.014   8.266 -0.6617  0.8999 -0.5534
  375MOL0     C50517   6.743   8.943   8.256  0.1423 -0.9602 -0.4210
  375MOL0     C50518   6.867   9.003   8.216 -0.1844 -1.1857 -0.6911
  375MOL0     C50519   6.992   8.932   8.218  0.3809  0.8459 -0.5491
  375MOL0     O50520   7.112   9.002   8.184  0.2940 -0.2585  0.1554
  375MOL0     C50521   7.220   8.914   8.173  0.2419 -0.6662 -0.5784
  375MOL0     C50522   7.300   8.903   8.283  0.5859 -0.1717  0.8497
  375MOL0     C50523   7.425   8.829   8.278  0.0211 -0.2161 -0.5256
  375MOL0     C50524   7.468   8.762   8.157  0.6557 -0.0419  0.5849
  375MOL0     O50525   7.589   8.698   8.148 -0.3117 -0.0914  0.2363
  375MOL0     C50526   7.650   8.733   8.018  0.0393 -0.4718  0.7548
  375MOL0     C50527   7.805   8.754   8.019 -0.4155  0.2593 -0.1819
  375MOL0     C50528   7.881   8.626   8.067 -0.0143 -0.2127 -0.6686
  375MOL0     C50529   7.996   8.583   7.967  0.1958  0.0680 -0.1525
  375MOL0     C50530   8.059   8.453   8.004  0.2360 -0.4216 -0.6402
  375MOL0     C50531   8.155   8.395   7.896 -0.0309  0.7496  0.5116
  375MOL0     C50532   8.304   8.400   7.932  0.0377 -0.4865 -0.3596
  375MOL0     C50533   8.402   8.336   7.838 -0.2696  0.0524  0.2530
  375MOL0    Cl50534   8.567   8.389   7.860  0.4174  0.3826 -0.1983
  375MOL0     C50535   7.380   8.771   8.045 -0.4715  0.0941 -0.1833
  375MOL0     C50536   7.247   8.839   8.055 -0.3045  0.2402  0.0934
  375MOL0     O50537   6.989   8.813   8.242 -0.2215 -0.5114 -0.5158
  375MOL0     C50538   6.861   9.140   8.177 -0.5351  0.2149  0.0668
  375MOL0     C50539   6.732   9.201   8.166 -0.0187 -0.3946  0.9940
  375MOL0     N50540   5.856   8.891   8.035  0.3464  0.7854  0.1482
  375MOL0     N50541   5.762   8.828   8.093 -0.5598 -0.5233  0.2406
  375MOL0     C50542   5.716   9.211   8.134 -0.2708  0.4670  0.1697
  375MOL0     C50543   5.853   9.227   8.084  0.0781 -1.4697 -0.1822
  375MOL0     C50544   6.153   9.419   7.825  0.5236  0.0700 -0.5051
  375MOL0     C50545   6.267   9.409   7.908 -0.8665  0.4036 -0.0013
  375MOL0     C50546   6.388   9.411   7.843 -0.6993  0.1483  0.7395
  375MOL0     C50547   6.404   9.455   7.711  0.4392  0.1820  0.4262
  375MOL0     O50548   6.524   9.483   7.661  0.1265 -0.1155  0.5170
  375MOL0     C50549   6.540   9.542   7.528 -0.3886 -0.6191  0.4585
  375MOL0     C50550   6.667   9.620   7.531  0.9122 -0.8541  0.0843
  375MOL0     C50551   6.792   9.538   7.547  0.0287 -0.6901  0.5822
  375MOL0     C50552   6.814   9.454   7.412  0.1871  0.4192  0.7362
  375MOL0     C50553   6.869   9.530   7.298 -0.5855  0.4352  0.4550
  375MOL0     C50554   6.899   9.607   7.204  0.6985  0.6812 -0.7653
  375MOL0     C50555   6.289   9.462   7.634  0.4081  0.9885 -0.5150
  375MOL0     C50556   6.159   9.439   7.687 -0.2530 -1.0068  0.5993
  375MOL0     C50557   6.047   9.463   7.591  0.8859  0.4081  0.7556
  375MOL0     H50558   5.924   9.519   8.237 -2.9678  0.2923  3.5925
  375MOL0     H50559   5.700   9.473   8.337  2.3137  1.4294  0.5875
  375MOL0     H50560   5.567   9.339   8.450 -1.3567  3.0802  1.1382
  375MOL0     H50561   5.434   9.421   8.371 -1.8241 -0.4698  1.6232
  375MOL0     H50562   5.326   9.178   8.340  2.5331  0.6361 -1.5878
  375MOL0     H50563   5.303   9.290   8.473 -0.2156  2.7004 -1.5169
  375MOL0     H50564   5.343   9.063   8.524  0.3774 -1.2238 -1.9270
  375MOL0     H50565   5.472   9.167   8.597 -0.5634  1.4577  0.1221
  375MOL0     H50566   5.497   8.985   8.354 -1.3840 -1.8162  0.2923
  375MOL0     H50567   5.625   9.081   8.443 -2.2212  2.3942  0.2747
  375MOL0     H50568   5.581   8.918   8.635 -2.2263  0.7529 -0.0982
  375MOL0     H50569   5.458   8.841   8.537  0.3547 -0.1521 -1.9407
  375MOL0     H50570   5.747   8.878   8.452  2.5226 -3.2737  1.8703
  375MOL0     H50571   5.701   8.754   8.557 -1.2323 -0.4319  0.5319
  375MOL0     H50572   5.585   8.785   8.266 -0.1436 -0.9503 -2.1331
  375MOL0     H50573   5.560   8.663   8.389 -2.1443  3.5607  2.2093
  375MOL0     H50574   5.820   8.616   8.350 -2.9466 -3.6732  0.1761
  375MOL0     H50575   5.715   8.586   8.213  5.4900 -2.6573 -0.9677
  375MOL0     H50576   6.039   8.757   8.259 -0.6795 -1.2318  1.0600
  375MOL0     H50577   6.177   8.878   8.010  2.1521  2.4360 -1.4850
  375MOL0     H50578   6.086   9.019   7.967  0.7763 -1.4209 -1.2174
  375MOL0     H50579   6.112   9.111   8.216  0.9086  2.0348 -1.4266
  375MOL0     H50580   6.186   8.953   8.248  0.4762  0.1476 -0.5507
  375MOL0     H50581   6.301   9.142   8.047 -0.5899  1.5760  1.7054
  375MOL0     H50582   6.387   9.009   8.119  3.1512  1.3819  4.0852
  375MOL0     H50583   6.384   9.109   8.338  3.2542 -0.6063 -0.7752
  375MOL0     H50584   6.306   9.248   8.274  4.0120  3.7493  1.1721
  375MOL0     H50585   6.529   8.967   8.303  0.9585 -0.6062  1.7880
  375MOL0     H50586   6.750   8.845   8.303  2.7216 -0.2854  0.7907
  375MOL0     H50587   7.268   8.957   8.371 -1.0931  0.4385 -0.0831
  375MOL0     H50588   7.475   8.825   8.374 -1.4602 -2.8845  0.2573
  375MOL0     H50589   7.625   8.669   7.933  3.1982  1.5229 -1.9373
  375MOL0     H50590   7.626   8.836   7.991  1.5461 -0.9315 -2.8976
  375MOL0     H50591   7.833   8.778   7.916  1.3550 -0.8922 -0.0145
  375MOL0     H50592   7.833   8.846   8.072  4.6970 -1.1298  0.0404
  375MOL0     H50593   7.910   8.642   8.171 -2.4090  1.1691 -0.1267
  375MOL0     H50594   7.813   8.541   8.058  0.1215 -0.2803 -1.1110
  375MOL0     H50595   8.080   8.652   7.956  2.6650 -2.7414 -0.0221
  375MOL0     H50596   7.949   8.578   7.868 -1.5074  4.6590  0.1548
  375MOL0     H50597   7.978   8.382   8.019  1.4221 -1.5134  0.9480
  375MOL0     H50598   8.116   8.460   8.097  0.3872  0.3539 -0.7848
  375MOL0     H50599   8.127   8.290   7.901  2.5244  0.0711  2.8623
  375MOL0     H50600   8.150   8.436   7.795 -1.2114 -2.6447 -0.9621
  375MOL0     H50601   8.319   8.358   8.032  1.4367 -1.2409 -0.8630
  375MOL0     H50602   8.335   8.503   7.951 -0.3996 -0.9107  3.5679
  375MOL0     H50603   8.407   8.227   7.835  2.8834  0.0608  1.4883
  375MOL0     H50604   8.368   8.362   7.738  1.1271 -0.9342 -0.4981
  375MOL0     H50605   7.421   8.746   7.948  1.0644  4.2535 -0.8240
  375MOL0     H50606   7.178   8.852   7.973  2.4404 -3.6811 -3.2451
  375MOL0     H50607   6.943   9.207   8.150 -1.1775  1.2546  0.6317
  375MOL0     H50608   6.715   9.308   8.157  0.9112 -0.0314  2.9815
  375MOL0     H50609   5.665   9.121   8.101  4.1280 -2.2421 -0.0909
  375MOL0     H50610   5.882   9.142   8.023 -2.3628 -1.4704 -1.4924
  375MOL0     H50611   6.263   9.392   8.015  1.5940  1.8634  0.3897
  375MOL0     H50612   6.478   9.379   7.893  0.5637 -1.4306 -2.2645
  375MOL0     H50613   6.452   9.606   7.515 -0.7758 -1.3854 -0.8955
  375MOL0     H50614   6.531   9.465   7.451 -5.8895 -0.3126  0.4157
  375MOL0     H50615   6.655   9.675   7.625 -3.6870 -0.8994 -0.2420
  375MOL0     H50616   6.665   9.687   7.444 -4.1336 -2.3870 -1.3758
  375MOL0     H50617   6.798   9.471   7.633  1.2458 -1.5266 -0.1218
  375MOL0     H50618   6.880   9.599   7.567  1.0559 -1.3774 -1.5199
  375MOL0     H50619   6.887   9.374   7.426  1.2520  1.3872  0.8474
  375MOL0     H50620   6.723   9.399   7.386  1.4090 -1.2859 -0.1650
  375MOL0     H50621   6.927   9.669   7.121 -0.3108  0.8034 -1.0355
  375MOL0     H50622   6.297   9.491   7.530 -0.4395  3.6540  0.0899
  375MOL0     H50623   5.973   9.384   7.575 -3.1024  3.8797  0.2702
  375MOL0     H50624   5.992   9.553   7.619  1.4372  0.7251  0.8367
  375MOL0     H50625   6.093   9.481   7.493 -0.1860 -4.1632 -0.8422
  376MOL0     O50626  10.930  10.172   2.209 -0.1038 -0.5488  0.4835
  376MOL0     C50627  11.024  10.251   2.187 -1.0370  0.9494  0.9050
  376MOL0     O50628  11.155  10.210   2.181 -0.4593 -0.3617  0.3157
  376MOL0     C50629  11.180  10.081   2.142  0.3718 -0.4278  0.2038
  376MOL0     C50630  11.088   9.980   2.092 -0.7441 -0.3562 -0.5532
  376MOL0     C50631  11.138   9.857   2.064 -0.3812  0.6528  0.0741
  376MOL0     C50632  11.267   9.826   2.077 -1.4188  0.9036  0.3408
  376MOL0     O50633  11.316   9.700   2.049  0.1460  0.6069  0.0666
  376MOL0     C50634  11.370   9.695   1.908 -0.4093 -0.7436  0.2788
  376MOL0     C50635  11.537   9.684   1.904  1.5127 -0.0029  0.5591
  376MOL0     C50636  11.593   9.761   1.782 -0.3311  0.4361 -0.4683
  376MOL0     C50637  11.552   9.722   1.637 -0.5313  0.0363 -0.6839
  376MOL0     C50638  11.584   9.817   1.528 -0.3489  0.6007  0.7194
  376MOL0     C50639  11.735   9.815   1.499  0.2101  0.2368 -0.6104
  376MOL0     C50640  11.759   9.881   1.359 -0.6721  1.1334 -0.4785
  376MOL0     C50641  11.775  10.030   1.356  0.4678  0.1348  0.0524
  376MOL0     N50642  11.650  10.095   1.382 -0.2874 -0.7660 -1.2473
  376MOL0     C50643  11.554  10.127   1.294 -0.1316  1.5871  0.5756
  376MOL0     C50644  11.461  10.203   1.355 -0.4500  0.3745  0.4791
  376MOL0     C50645  11.337  10.250   1.303 -0.4528 -0.0669  0.6149
  376MOL0     C50646  11.339  10.374   1.200  1.2571 -0.2603 -1.2727
  376MOL0     C50647  11.196  10.421   1.151 -0.7862  0.0268 -0.0215
  376MOL0     C50648  11.097  10.438   1.258 -0.3813 -0.2285 -0.5841
  376MOL0     O50649  10.996  10.536   1.224  0.3477 -0.1838  0.4550
  376MOL0     C50650  10.883  10.501   1.173  0.0651  0.8615 -0.9923
  376MOL0     C50651  10.851  10.391   1.084 -0.7097  0.0789 -0.8661
  376MOL0     C50652  10.726  10.385   1.023  0.0047 -0.1436 -0.5906
  376MOL0     C50653  10.629  10.481   1.053 -0.3264 -0.7711 -0.4364
  376MOL0     C50654  10.501  10.494   0.978  0.7177 -0.4661 -0.2441
  376MOL0     O50655  10.417  10.593   1.027 -0.0150  0.2397  1.0035
  376MOL0     C50656  10.283  10.603   0.985  1.1519  0.8001  0.0456
  376MOL0     C50657  10.237  10.736   0.978 -0.3879  0.6115 -0.7241
  376MOL0     C50658  10.107  10.751   0.961  0.3051  0.0278 -0.4385
  376MOL0     C50659  10.022  10.655   0.918 -0.3699  0.4287 -0.6800
  376MOL0     O50660   9.896  10.699   0.888 -0.3088 -0.4989 -0.0935
  376MOL0     C50661   9.832  10.647   0.777  1.0889 -1.2223  0.0565
  376MOL0     C50662   9.673  10.641   0.801  0.2187 -0.3576 -0.4869
  376MOL0     C50663   9.614  10.785   0.812  0.3643  1.2722 -0.7059
  376MOL0     C50664   9.475  10.769   0.874 -0.2568  0.2619 -0.6249
  376MOL0     C50665   9.414  10.917   0.873  0.1991  0.0109  0.1448
  376MOL0     C50666   9.348  10.965   0.744  0.8250 -0.4257 -0.0116
  376MOL0     C50667   9.207  10.905   0.714 -0.0769  0.6296  0.6530
  376MOL0     C50668   9.174  10.901   0.563 -0.1198  0.1356 -0.1396
  376MOL0    Cl50669   9.303  10.831   0.471  0.3288  0.1567  0.1028
  376MOL0     C50670  10.063  10.520   0.913 -0.2575  0.6196 -0.1794
  376MOL0     C50671  10.196  10.498   0.954 -0.0413  0.8374 -0.4736
  376MOL0     O50672  10.485  10.429   0.874  0.4466 -0.5118 -0.0086
  376MOL0     C50673  10.647  10.569   1.163  0.0636 -0.5503 -0.7349
  376MOL0     C50674  10.775  10.581   1.213  0.9052  0.5793  0.3776
  376MOL0     N50675  11.504  10.215   1.488 -0.1485 -0.2341  0.7732
  376MOL0     N50676  11.627  10.167   1.495  0.2026  0.6739 -0.5295
  376MOL0     C50677  11.353   9.909   2.145 -0.0786  0.2313  0.7417
  376MOL0     C50678  11.314  10.040   2.173  0.7075  0.1308  0.0169
  376MOL0     C50679  10.983  10.392   2.175 -0.0214 -0.3928  0.0701
  376MOL0     C50680  10.886  10.445   2.271 -0.5283 -0.7039 -0.2128
  376MOL0     C50681  10.851  10.581   2.270  0.5065 -0.1507  0.1477
  376MOL0     C50682  10.895  10.661   2.164 -0.1778 -0.2730  0.4829
  376MOL0     O50683  10.848  10.791   2.135 -0.2197  0.1901  0.6723
  376MOL0     C50684  10.826  10.876   2.252 -1.5596 -0.2027  0.4531
  376MOL0     C50685  10.679  10.932   2.263  0.7322 -0.3117 -0.2196
  376MOL0     C50686  10.582  10.823   2.304 -0.2292  0.5181  0.6205
  376MOL0     C50687  10.433  10.865   2.309 -0.1809  0.1903  0.5196
  376MOL0     C50688  10.346  10.753   2.354 -0.3070 -0.1382  0.2938
  376MOL0     C50689  10.276  10.662   2.386  0.4298 -1.0660  0.4445
  376MOL0     C50690  10.991  10.608   2.074  0.1266 -0.2404 -0.7631
  376MOL0     C50691  11.044  10.481   2.081 -0.1495 -0.2183 -0.0613
  376MOL0     C50692  11.158  10.440   1.992  0.3889 -0.3186 -0.3074
  376MOL0     H50693  10.987  10.001   2.060 -0.0908  0.9987 -1.8564
  376MOL0     H50694  11.083   9.778   2.014  1.8111 -1.1348  0.3320
  376MOL0     H50695  11.332   9.598   1.876 -2.4120  0.7807 -2.4771
  376MOL0     H50696  11.327   9.782   1.856 -0.9800 -1.1907 -0.0026
  376MOL0     H50697  11.565   9.579   1.896  0.7521 -0.2323  0.9205
  376MOL0     H50698  11.578   9.742   1.987  0.0152  1.8439  0.0732
  376MOL0     H50699  11.701   9.755   1.799 -0.8863 -2.9597  3.6425
  376MOL0     H50700  11.560   9.865   1.792 -0.3996  0.2880  1.1627
  376MOL0     H50701  11.604   9.627   1.619 -1.5750 -0.4459 -1.2620
  376MOL0     H50702  11.444   9.708   1.631 -0.4027 -1.3440 -0.0517
  376MOL0     H50703  11.535   9.793   1.434 -3.9017  4.6843  1.2145
  376MOL0     H50704  11.557   9.920   1.554  0.9215  0.4159  3.0912
  376MOL0     H50705  11.795   9.865   1.575  0.4369  0.7062 -1.0870
  376MOL0     H50706  11.782   9.716   1.497 -0.1247  0.0743 -0.4730
  376MOL0     H50707  11.681   9.855   1.287 -1.2719  0.6900  0.3280
  376MOL0     H50708  11.842   9.834   1.305 -0.8712 -1.3633  1.2577
  376MOL0     H50709  11.851  10.042   1.434  0.8577 -1.8553  0.0315
  376MOL0     H50710  11.812  10.059   1.257  1.3719  2.1273  0.9127
  376MOL0     H50711  11.553  10.086   1.193 -1.3540 -0.6764  1.4426
  376MOL0     H50712  11.280  10.165   1.264 -1.0422 -0.1087  1.5238
  376MOL0     H50713  11.288  10.291   1.391  2.2417 -0.5865  2.4760
  376MOL0     H50714  11.398  10.450   1.250  1.1602 -0.5845 -0.6500
  376MOL0     H50715  11.401  10.349   1.114  3.6645  1.6667 -0.2190
  376MOL0     H50716  11.146  10.358   1.078 -4.7284 -0.7693  2.9905
  376MOL0     H50717  11.215  10.518   1.106 -1.8382  1.2715  2.0468
  376MOL0     H50718  11.153  10.474   1.345 -1.1917 -1.9057  0.6889
  376MOL0     H50719  11.045  10.344   1.282  0.5614 -0.3326  1.2652
  376MOL0     H50720  10.932  10.322   1.062 -0.2474 -0.7903  2.9292
  376MOL0     H50721  10.695  10.317   0.944 -1.4979  0.0680 -0.2011
  376MOL0     H50722  10.301  10.823   0.995  0.8427 -0.6817  1.8166
  376MOL0     H50723  10.067  10.852   0.958 -2.2706 -0.7577  2.2274
  376MOL0     H50724   9.851  10.703   0.686  1.1385  0.8671  1.2926
  376MOL0     H50725   9.862  10.545   0.752  1.3231 -0.6455 -2.2608
  376MOL0     H50726   9.621  10.582   0.725 -1.3268  0.2032  0.0957
  376MOL0     H50727   9.664  10.591   0.898  0.6930  0.0558 -0.2265
  376MOL0     H50728   9.691  10.841   0.865  1.3057 -0.7702  0.1960
  376MOL0     H50729   9.592  10.831   0.715 -1.7473  1.5260 -0.1661
  376MOL0     H50730   9.493  10.730   0.975 -0.7075  1.1531 -0.1816
  376MOL0     H50731   9.415  10.705   0.810 -1.2014  1.4242 -0.9351
  376MOL0     H50732   9.482  10.990   0.919 -0.9814  1.8674 -0.9599
  376MOL0     H50733   9.338  10.908   0.951  1.9386 -0.0834  1.9273
  376MOL0     H50734   9.341  11.074   0.735  1.2727 -0.4122 -0.2335
  376MOL0     H50735   9.418  10.947   0.661  2.8341  4.8991  0.1079
  376MOL0     H50736   9.135  10.972   0.762  1.5380  2.9568 -0.0313
  376MOL0     H50737   9.200  10.807   0.763 -2.1566 -1.2249 -2.9562
  376MOL0     H50738   9.083  10.841   0.550  0.8816 -1.6652  0.7589
  376MOL0     H50739   9.157  10.999   0.517  1.2605  0.5265  0.1462
  376MOL0     H50740   9.992  10.447   0.875  0.0390  1.1105 -1.7755
  376MOL0     H50741  10.233  10.396   0.949 -2.1166  0.0540 -0.7384
  376MOL0     H50742  10.567  10.629   1.205 -2.5832 -2.1912 -3.0372
  376MOL0     H50743  10.801  10.656   1.287 -1.6530  0.9903  0.9434
  376MOL0     H50744  11.445   9.883   2.195  1.1620  2.8777  0.0414
  376MOL0     H50745  11.381  10.107   2.226  1.6347  0.5256 -1.5848
  376MOL0     H50746  10.851  10.373   2.345 -0.5985  0.4445  0.8951
  376MOL0     H50747  10.782  10.631   2.337  1.7442  3.2898 -0.9004
  376MOL0     H50748  10.901  10.955   2.236 -1.9336  0.0273 -0.1881
  376MOL0     H50749  10.858  10.839   2.350  0.2388  1.2106  0.4582
  376MOL0     H50750  10.659  10.972   2.163  4.8969  2.3496 -0.2469
  376MOL0     H50751  10.686  11.014   2.335 -4.5695  1.5448 -1.3926
  376MOL0     H50752  10.604  10.774   2.399 -0.7798 -0.7255  0.1262
  376MOL0     H50753  10.598  10.752   2.223 -1.2242  2.8349 -1.7460
  376MOL0     H50754  10.422  10.951   2.376 -1.5956 -1.0799  2.0196
  376MOL0     H50755  10.394  10.893   2.211  1.5574 -2.5099 -1.0579
  376MOL0     H50756  10.218  10.581   2.425 -0.1777 -0.7113  0.2897
  376MOL0     H50757  11.024  10.666   1.988  0.8274  3.2564  1.6610
  376MOL0     H50758  11.254  10.443   2.045 -1.1308 -1.8411  2.7851
  376MOL0     H50759  11.145  10.337   1.955 -1.4599 -0.4958  0.7128
  376MOL0     H50760  11.157  10.501   1.901 -0.3913 -2.7853 -2.0624
  377MOL0     O50761   6.748   7.306   2.875 -0.7426 -0.2553 -0.4940
  377MOL0     C50762   6.873   7.287   2.879  0.0466  0.0421 -0.6161
  377MOL0     O50763   6.964   7.370   2.944  0.0507 -0.0956 -0.7494
  377MOL0     C50764   6.901   7.472   3.010 -0.7099  0.3127  0.1234
  377MOL0     C50765   6.887   7.609   2.971 -0.5174  0.1867  0.4563
  377MOL0     C50766   6.818   7.700   3.057 -0.0386 -0.3781  0.1385
  377MOL0     C50767   6.798   7.664   3.186 -0.9059  0.0455 -0.1314
  377MOL0     O50768   6.743   7.758   3.270  0.2746  0.1020 -0.8589
  377MOL0     C50769   6.685   7.717   3.403 -0.0848  0.1745  0.1317
  377MOL0     C50770   6.603   7.828   3.441 -0.4201 -0.6487 -0.5246
  377MOL0     C50771   6.495   7.782   3.552  0.6837 -0.5952  0.2249
  377MOL0     C50772   6.398   7.902   3.582  1.2258 -0.1509 -0.0290
  377MOL0     C50773   6.304   7.887   3.711  0.7189 -0.1436  0.1896
  377MOL0     C50774   6.209   8.001   3.718  1.0385 -0.7323  0.1460
  377MOL0     C50775   6.125   8.005   3.844  0.6883  0.1887 -0.2443
  377MOL0     C50776   6.038   8.131   3.836  0.1961  0.8356  0.9360
  377MOL0     N50777   5.901   8.095   3.876 -0.2095 -0.3617  0.2839
  377MOL0     C50778   5.823   7.997   3.816 -0.5536 -0.4903 -1.2276
  377MOL0     C50779   5.712   7.985   3.888 -0.1237 -0.4483 -0.0328
  377MOL0     C50780   5.595   7.894   3.850  0.1528  0.5784 -0.3113
  377MOL0     C50781   5.528   7.936   3.716  0.0159  0.8591 -1.1474
  377MOL0     C50782   5.411   7.841   3.704 -0.0747  0.2949 -0.6687
  377MOL0     C50783   5.297   7.889   3.617  0.1268  0.7843 -0.6355
  377MOL0     O50784   5.189   7.791   3.612  0.5688 -0.6367  0.3863
  377MOL0     C50785   5.077   7.836   3.553 -0.2634 -0.9655 -0.4267
  377MOL0     C50786   4.968   7.753   3.539 -0.6050 -0.1478 -0.8432
  377MOL0     C50787   4.850   7.787   3.480 -0.9857 -0.2676 -0.2265
  377MOL0     C50788   4.834   7.901   3.416 -0.5004 -0.6611  0.4130
  377MOL0     C50789   4.715   7.936   3.340  0.2899 -0.5014  0.4821
  377MOL0     O50790   4.657   7.828   3.280  0.1965  0.7734 -1.3041
  377MOL0     C50791   4.541   7.844   3.207  0.1431 -0.0754 -0.9367
  377MOL0     C50792   4.438   7.950   3.224  0.3470  0.4504 -0.0270
  377MOL0     C50793   4.316   7.937   3.158  0.1002  0.2563  0.5339
  377MOL0     C50794   4.302   7.821   3.079  0.0607  0.8791  0.4473
  377MOL0     O50795   4.183   7.808   2.999 -0.1795  0.0369  0.2249
  377MOL0     C50796   4.097   7.693   3.013  0.0122  0.3627  0.4599
  377MOL0     C50797   3.996   7.710   3.117 -0.6238 -0.0610  0.1978
  377MOL0     C50798   3.908   7.581   3.136  0.1158 -0.7233  0.1980
  377MOL0     C50799   3.790   7.613   3.227 -0.2053 -0.8177  0.7447
  377MOL0     C50800   3.701   7.488   3.242 -0.7573 -0.6180 -0.2801
  377MOL0     C50801   3.562   7.520   3.304 -0.0858  0.1509  0.6468
  377MOL0     C50802   3.559   7.553   3.457 -0.0637 -0.5077 -1.1329
  377MOL0     C50803   3.416   7.562   3.508 -0.2172  0.3096 -0.2013
  377MOL0    Cl50804   3.325   7.705   3.456  0.0420 -0.0813 -0.5740
  377MOL0     C50805   4.395   7.716   3.066 -0.5882 -0.5400 -1.1880
  377MOL0     C50806   4.521   7.737   3.115  0.4613 -0.4391 -0.1996
  377MOL0     O50807   4.684   8.053   3.311  0.1223 -0.1001  0.6231
  377MOL0     C50808   4.940   7.993   3.430  0.3011 -0.2675 -0.9366
  377MOL0     C50809   5.056   7.968   3.494  0.3618  0.3572 -0.7354
  377MOL0     N50810   5.723   8.086   3.989  0.4201 -0.6693 -0.4164
  377MOL0     N50811   5.842   8.142   3.988 -0.0709  0.4048 -0.2740
  377MOL0     C50812   6.813   7.538   3.221 -0.0903  0.3047 -0.9280
  377MOL0     C50813   6.864   7.435   3.134  0.7620 -0.5242 -0.8969
  377MOL0     C50814   6.937   7.160   2.837 -0.2750 -0.3138 -0.0717
  377MOL0     C50815   7.042   7.109   2.920 -0.9222  1.0703 -0.3965
  377MOL0     C50816   7.099   6.988   2.889 -0.8368 -0.0631 -1.2329
  377MOL0     C50817   7.067   6.908   2.784  0.3598  0.1879  0.2289
  377MOL0     O50818   7.111   6.782   2.781  0.2846  0.4981  0.0697
  377MOL0     C50819   7.026   6.676   2.810  0.4391  0.2647  1.1455
  377MOL0     C50820   6.982   6.681   2.956  0.0736  0.1482 -0.3263
  377MOL0     C50821   7.106   6.642   3.049 -0.0518 -0.0984 -0.8107
  377MOL0     C50822   7.062   6.684   3.186 -0.4411 -0.6585 -0.4095
  377MOL0     C50823   6.964   6.589   3.239  0.4848  0.3755 -0.0867
  377MOL0     C50824   6.890   6.508   3.298 -0.0104  0.4017  0.1942
  377MOL0     C50825   6.961   6.952   2.700 -0.5624  0.0483  0.2144
  377MOL0     C50826   6.899   7.080   2.718 -0.9523  1.3958 -0.1074
  377MOL0     C50827   6.796   7.122   2.620 -0.2010 -0.3958 -0.4201
  377MOL0     H50828   6.924   7.645   2.875 -3.0393  5.0051  0.9557
  377MOL0     H50829   6.780   7.797   3.027  2.5038  1.6281  2.7043
  377MOL0     H50830   6.626   7.628   3.379 -0.2246  0.6990 -1.6347
  377MOL0     H50831   6.755   7.691   3.484 -3.0274 -1.6619  2.2672
  377MOL0     H50832   6.555   7.871   3.353  2.6605  0.0221 -2.0071
  377MOL0     H50833   6.669   7.903   3.485 -2.4129  0.8470  0.0555
  377MOL0     H50834   6.554   7.777   3.644  0.5998  3.1136  0.6329
  377MOL0     H50835   6.445   7.687   3.531 -0.4001 -0.1334  0.6549
  377MOL0     H50836   6.449   7.997   3.593 -2.0788  1.5300  3.1848
  377MOL0     H50837   6.333   7.903   3.493  0.2966 -0.2455  0.6297
  377MOL0     H50838   6.256   7.790   3.696  1.1998  0.0537 -3.7477
  377MOL0     H50839   6.365   7.877   3.801  1.7569 -0.4187 -0.5266
  377MOL0     H50840   6.274   8.089   3.717  0.6734 -0.4199 -2.1296
  377MOL0     H50841   6.140   7.998   3.633  1.1246 -1.9615  0.1001
  377MOL0     H50842   6.194   8.004   3.929 -0.5112  1.1363  0.7724
  377MOL0     H50843   6.065   7.914   3.837  1.9409 -0.7244  0.4411
  377MOL0     H50844   6.077   8.211   3.901 -0.0241  2.3931 -0.7530
  377MOL0     H50845   6.046   8.161   3.731  1.7926 -0.5492  0.6337
  377MOL0     H50846   5.854   7.926   3.741  2.8761  1.7854 -2.2036
  377MOL0     H50847   5.642   7.796   3.843 -0.2233  0.3040  0.8021
  377MOL0     H50848   5.525   7.898   3.934  2.1938 -0.3243  1.5342
  377MOL0     H50849   5.512   8.045   3.719  1.0860  1.1400 -3.4436
  377MOL0     H50850   5.590   7.937   3.626  0.1482  3.9159 -1.1455
  377MOL0     H50851   5.365   7.827   3.802  0.2816  0.3231 -0.4963
  377MOL0     H50852   5.444   7.745   3.664  1.8921  1.4851 -2.1592
  377MOL0     H50853   5.339   7.896   3.516  1.7450 -2.2978 -0.2944
  377MOL0     H50854   5.259   7.985   3.654 -0.2910  0.4731 -0.2542
  377MOL0     H50855   4.975   7.650   3.572  1.7237 -0.0249 -0.8182
  377MOL0     H50856   4.771   7.714   3.463  0.8195 -1.7975 -2.7874
  377MOL0     H50857   4.450   8.039   3.285  0.6208  0.9290 -0.7536
  377MOL0     H50858   4.228   8.002   3.162  1.1100  1.7797 -0.6869
  377MOL0     H50859   4.048   7.685   2.916 -0.8043 -1.4576  0.9709
  377MOL0     H50860   4.165   7.610   3.037  0.0825 -0.3885 -2.0917
  377MOL0     H50861   4.050   7.719   3.211 -0.8411 -1.5421  0.5019
  377MOL0     H50862   3.943   7.803   3.092  2.8007  1.5951 -1.5610
  377MOL0     H50863   3.869   7.546   3.040 -0.1683 -1.1860  0.4803
  377MOL0     H50864   3.982   7.513   3.179  2.2682  2.8148  2.6601
  377MOL0     H50865   3.734   7.700   3.193 -2.8408 -1.3806  3.2627
  377MOL0     H50866   3.832   7.637   3.325  1.6101 -1.9151  0.2858
  377MOL0     H50867   3.761   7.420   3.303 -0.9301 -0.6384 -0.1320
  377MOL0     H50868   3.692   7.431   3.148  0.0509  3.0097 -2.7714
  377MOL0     H50869   3.519   7.607   3.254  0.4509  0.2125  0.2767
  377MOL0     H50870   3.504   7.429   3.287 -1.9455  1.3736  0.1777
  377MOL0     H50871   3.608   7.650   3.467 -0.1875 -0.4319 -1.2576
  377MOL0     H50872   3.608   7.479   3.521 -2.4326 -0.6993  0.5789
  377MOL0     H50873   3.359   7.470   3.490  0.7406 -0.6768  1.5956
  377MOL0     H50874   3.417   7.560   3.617  0.8113 -1.3993 -0.2029
  377MOL0     H50875   4.370   7.635   2.998  0.8581  0.3953 -2.9231
  377MOL0     H50876   4.595   7.660   3.096 -0.2864 -0.9365 -1.1932
  377MOL0     H50877   4.929   8.086   3.374 -0.2226 -0.4930 -1.2152
  377MOL0     H50878   5.131   8.045   3.490  0.5695  0.1828 -0.2756
  377MOL0     H50879   6.791   7.506   3.323  0.2082  0.4272 -0.8213
  377MOL0     H50880   6.877   7.337   3.179  0.9717 -0.5897 -1.0959
  377MOL0     H50881   7.079   7.172   3.000  1.0857 -0.6524  0.1257
  377MOL0     H50882   7.173   6.952   2.960 -0.2585  3.8545  0.4667
  377MOL0     H50883   7.073   6.578   2.797 -0.9931 -0.5107  1.5178
  377MOL0     H50884   6.937   6.686   2.747 -0.4902 -0.4401  2.2994
  377MOL0     H50885   6.898   6.611   2.966  1.4631 -1.7692 -1.3221
  377MOL0     H50886   6.969   6.786   2.981  1.3246 -0.3906  3.0003
  377MOL0     H50887   7.202   6.690   3.027  1.3729 -2.7010 -0.6269
  377MOL0     H50888   7.111   6.533   3.058  1.0654  0.1234  2.6772
  377MOL0     H50889   7.149   6.687   3.252 -0.3267 -3.2180 -0.3534
  377MOL0     H50890   7.023   6.786   3.175 -0.7710 -0.8637 -1.2203
  377MOL0     H50891   6.834   6.433   3.351 -0.5364 -0.0986 -1.0379
  377MOL0     H50892   6.911   6.887   2.630  0.0435  1.5170 -1.6642
  377MOL0     H50893   6.836   7.165   2.528  1.1741  2.6888  1.4739
  377MOL0     H50894   6.737   7.031   2.600 -0.6493 -0.7687  2.2407
  377MOL0     H50895   6.723   7.194   2.657 -0.4725 -0.0317 -1.6208
  378MOL0     O50896   4.474   2.346   2.538 -0.1108  0.3594  0.0526
  378MOL0     C50897   4.412   2.378   2.433 -0.8626  0.5140  0.2067
  378MOL0     O50898   4.281   2.375   2.409  0.1925 -0.1426  0.2528
  378MOL0     C50899   4.189   2.340   2.504 -0.3940 -0.5490 -0.9044
  378MOL0     C50900   4.185   2.209   2.558  0.5043  1.2280  0.1114
  378MOL0     C50901   4.101   2.169   2.665  0.0495 -0.2465  0.1462
  378MOL0     C50902   4.009   2.270   2.714 -0.4828 -0.1619 -0.3353
  378MOL0     O50903   3.918   2.227   2.801 -0.0935  0.6030 -0.0951
  378MOL0     C50904   3.789   2.276   2.798  0.4237  0.0641  0.2622
  378MOL0     C50905   3.713   2.190   2.887 -0.3703 -0.9024 -0.5096
  378MOL0     C50906   3.713   2.041   2.843  0.3058 -0.1918 -0.6260
  378MOL0     C50907   3.578   1.981   2.887  0.1120 -0.2823  0.0941
  378MOL0     C50908   3.583   1.824   2.882 -0.6003  0.1289  0.5323
  378MOL0     C50909   3.455   1.740   2.866 -0.0021  1.1241 -0.1256
  378MOL0     C50910   3.495   1.597   2.877 -0.1447  0.1970 -0.2124
  378MOL0     C50911   3.383   1.520   2.837  0.0674  0.7558 -0.3397
  378MOL0     N50912   3.324   1.454   2.956  0.6466  0.6798 -1.1050
  378MOL0     C50913   3.381   1.336   3.009  0.4984  0.6109  0.2369
  378MOL0     C50914   3.324   1.309   3.135 -0.4678 -0.7422  1.0912
  378MOL0     C50915   3.348   1.197   3.220  0.5013 -0.2697 -1.0145
  378MOL0     C50916   3.220   1.105   3.221  0.5899  0.8890  0.5660
  378MOL0     C50917   3.220   0.978   3.324  0.1806  0.1027 -0.5190
  378MOL0     C50918   3.244   1.005   3.467 -0.4546 -0.1236  0.0687
  378MOL0     O50919   3.250   0.870   3.527 -0.0674  0.2218 -0.2419
  378MOL0     C50920   3.271   0.865   3.658 -0.1223  0.1884  0.1902
  378MOL0     C50921   3.266   0.971   3.747 -0.8937  0.8138 -0.5113
  378MOL0     C50922   3.296   0.947   3.889  0.4185 -0.5991 -0.3516
  378MOL0     C50923   3.324   0.814   3.939 -0.5185 -0.0368  0.5342
  378MOL0     C50924   3.357   0.796   4.085  0.7389  0.0423  0.1230
  378MOL0     O50925   3.328   0.676   4.152  0.9496 -0.0980 -0.1545
  378MOL0     C50926   3.376   0.653   4.279 -0.5706 -0.4916  0.1951
  378MOL0     C50927   3.507   0.682   4.323 -0.2094 -0.4532  0.1077
  378MOL0     C50928   3.553   0.656   4.450 -0.6805  0.8682 -0.5755
  378MOL0     C50929   3.478   0.588   4.547  0.5918  0.4542  0.0431
  378MOL0     O50930   3.511   0.562   4.676  0.4938 -0.0106 -0.0430
  378MOL0     C50931   3.610   0.653   4.738  0.5110  0.2549 -0.0624
  378MOL0     C50932   3.646   0.634   4.882 -0.8833 -0.5678  0.4296
  378MOL0     C50933   3.737   0.511   4.912  0.5395 -0.3168  0.2432
  378MOL0     C50934   3.782   0.506   5.061 -0.7819  0.3085 -0.1829
  378MOL0     C50935   3.827   0.353   5.091  0.3567 -0.4091  0.2784
  378MOL0     C50936   3.881   0.345   5.232  0.2009  0.6324  0.2356
  378MOL0     C50937   3.977   0.229   5.253 -0.3982  0.3294  0.0987
  378MOL0     C50938   3.936   0.092   5.202  0.3488 -0.0262 -0.7948
  378MOL0    Cl50939   4.088  -0.002   5.151  0.3644 -0.0433 -0.0711
  378MOL0     C50940   3.351   0.580   4.509 -0.0081  1.6113 -0.1931
  378MOL0     C50941   3.298   0.589   4.378  0.3749  0.8045 -1.2050
  378MOL0     O50942   3.392   0.895   4.139  0.3312 -0.2182  0.0915
  378MOL0     C50943   3.323   0.709   3.846 -0.0697 -0.5381  0.2507
  378MOL0     C50944   3.302   0.738   3.711  1.3017  0.1533  0.3674
  378MOL0     N50945   3.227   1.411   3.148  0.2529 -0.0763 -0.2097
  378MOL0     N50946   3.231   1.497   3.046 -0.2036 -0.1089 -0.5025
  378MOL0     C50947   4.011   2.394   2.657 -0.1667 -1.0379 -0.6619
  378MOL0     C50948   4.106   2.438   2.559 -0.0516 -0.6848 -0.7439
  378MOL0     C50949   4.494   2.435   2.330  0.9587 -0.0608 -0.4042
  378MOL0     C50950   4.426   2.522   2.242 -0.2441 -0.1699  0.4134
  378MOL0     C50951   4.490   2.587   2.136 -0.6949  0.6668 -1.1086
  378MOL0     C50952   4.632   2.564   2.117 -0.3296 -0.2297  0.0193
  378MOL0     O50953   4.706   2.616   2.016  0.8745  0.0677 -0.4749
  378MOL0     C50954   4.741   2.751   2.033 -0.7660  0.2816  0.6827
  378MOL0     C50955   4.777   2.821   1.904  0.8132  0.3435  0.7278
  378MOL0     C50956   4.814   2.973   1.900  0.2706 -1.1686  0.4175
  378MOL0     C50957   4.793   3.062   2.029  0.4351 -0.1059 -0.1287
  378MOL0     C50958   4.888   3.036   2.143  0.1333  0.0076  0.2979
  378MOL0     C50959   4.971   3.035   2.235  0.8817 -0.4194 -0.7346
  378MOL0     C50960   4.697   2.475   2.209  0.4985 -0.9161 -0.0539
  378MOL0     C50961   4.634   2.407   2.317 -0.1761 -1.8408 -0.5932
  378MOL0     C50962   4.716   2.314   2.405  0.1962 -0.4419  0.5512
  378MOL0     H50963   4.238   2.130   2.506  0.4889  1.0080  0.4296
  378MOL0     H50964   4.103   2.068   2.705 -4.3445 -1.2014 -1.4836
  378MOL0     H50965   3.779   2.376   2.840 -1.5329 -0.1744  0.4671
  378MOL0     H50966   3.754   2.279   2.694 -0.3821 -1.4997  0.4525
  378MOL0     H50967   3.611   2.231   2.887  0.6127  1.7320 -1.7157
  378MOL0     H50968   3.746   2.197   2.991 -0.8569  0.7753 -0.4368
  378MOL0     H50969   3.797   1.994   2.894 -0.5097 -0.2511  0.6952
  378MOL0     H50970   3.726   2.031   2.734 -1.3569 -3.5912 -0.6331
  378MOL0     H50971   3.560   2.001   2.993 -1.3068 -1.6746  0.1494
  378MOL0     H50972   3.490   2.023   2.837  0.0328 -2.8073 -2.0946
  378MOL0     H50973   3.650   1.799   2.799 -1.4084 -1.2008  0.2561
  378MOL0     H50974   3.632   1.797   2.976  0.2227  0.4331  0.2025
  378MOL0     H50975   3.391   1.757   2.953 -0.7530 -1.9208  0.0249
  378MOL0     H50976   3.405   1.771   2.774 -0.6140 -0.1226 -0.2350
  378MOL0     H50977   3.524   1.583   2.981  0.8467  0.7136 -0.3970
  378MOL0     H50978   3.588   1.573   2.823  0.2354  2.2101 -0.5784
  378MOL0     H50979   3.300   1.568   2.783 -3.6433 -1.9128  2.4453
  378MOL0     H50980   3.425   1.442   2.773  3.7061 -0.0373  2.6710
  378MOL0     H50981   3.446   1.274   2.948  0.2169  0.6987 -0.1584
  378MOL0     H50982   3.445   1.153   3.196  0.6713  0.3937 -1.5682
  378MOL0     H50983   3.368   1.231   3.323 -5.3530 -0.7061  0.6286
  378MOL0     H50984   3.131   1.164   3.243 -0.8688  0.1131 -2.5922
  378MOL0     H50985   3.193   1.071   3.120  2.4045  3.3865 -0.8773
  378MOL0     H50986   3.297   0.914   3.281  2.8383  1.5107  1.8811
  378MOL0     H50987   3.124   0.925   3.326  0.4262 -0.4855 -2.1624
  378MOL0     H50988   3.164   1.067   3.510  0.9981  2.4541 -0.6847
  378MOL0     H50989   3.341   1.049   3.492 -0.1371 -1.7516  1.9678
  378MOL0     H50990   3.246   1.076   3.723 -0.3271  1.5990  2.1802
  378MOL0     H50991   3.299   1.037   3.950 -0.2902 -1.7030  1.3971
  378MOL0     H50992   3.570   0.732   4.249  3.9347 -1.4149  2.6470
  378MOL0     H50993   3.645   0.700   4.485 -0.6997 -0.4418  1.3493
  378MOL0     H50994   3.704   0.651   4.681  0.5689 -1.4061  0.0292
  378MOL0     H50995   3.571   0.753   4.720 -0.3540 -0.3994 -2.2896
  378MOL0     H50996   3.696   0.722   4.924  0.4921 -0.1537 -1.9160
  378MOL0     H50997   3.547   0.629   4.928 -2.3780  0.8154 -2.3948
  378MOL0     H50998   3.670   0.426   4.904  0.2081 -0.0747  0.4344
  378MOL0     H50999   3.817   0.510   4.837 -0.9237 -0.6797 -1.3674
  378MOL0     H51000   3.689   0.526   5.116 -0.8687 -1.7167  0.4897
  378MOL0     H51001   3.865   0.577   5.071  1.8197 -2.5471  0.0550
  378MOL0     H51002   3.904   0.310   5.026 -0.6729 -1.0139 -0.5798
  378MOL0     H51003   3.736   0.293   5.090  0.4915 -0.6176  0.4478
  378MOL0     H51004   3.938   0.437   5.249  1.2934  0.1079 -0.4647
  378MOL0     H51005   3.803   0.352   5.308 -0.2697  6.1400 -0.3104
  378MOL0     H51006   4.025   0.230   5.351  2.5894 -1.8377 -1.1617
  378MOL0     H51007   4.062   0.267   5.196  1.4590  0.1435  2.5714
  378MOL0     H51008   3.908   0.030   5.287  2.3467  0.2792  0.1604
  378MOL0     H51009   3.851   0.099   5.133  0.2002 -0.3116 -0.6412
  378MOL0     H51010   3.285   0.524   4.575  2.9110  0.0296  1.5776
  378MOL0     H51011   3.196   0.556   4.365  0.8563 -1.4346  0.2082
  378MOL0     H51012   3.362   0.612   3.872 -2.4082 -1.6958 -0.2372
  378MOL0     H51013   3.314   0.648   3.650 -0.3677  0.7734 -0.9428
  378MOL0     H51014   3.933   2.464   2.686  1.3307  1.2847 -1.9835
  378MOL0     H51015   4.115   2.543   2.531 -0.3540 -0.2570  0.6669
  378MOL0     H51016   4.321   2.544   2.260 -0.7776 -0.8827 -1.6057
  378MOL0     H51017   4.424   2.648   2.076 -1.3073  1.4529  0.3186
  378MOL0     H51018   4.819   2.753   2.110 -0.4282  2.8432  0.3573
  378MOL0     H51019   4.663   2.813   2.078  0.6696  0.6677  2.8297
  378MOL0     H51020   4.699   2.800   1.830 -0.2115  2.7093  1.0281
  378MOL0     H51021   4.854   2.760   1.855 -0.9573 -1.0025 -0.5550
  378MOL0     H51022   4.742   3.017   1.830  0.3576 -2.3976 -0.4794
  378MOL0     H51023   4.916   3.001   1.870 -0.6618  0.5771 -1.3406
  378MOL0     H51024   4.822   3.163   1.998  1.0897  0.2321  1.4550
  378MOL0     H51025   4.689   3.081   2.058  1.2514  2.0697  1.7252
  378MOL0     H51026   5.050   3.035   2.307 -0.0536 -0.6520  0.3253
  378MOL0     H51027   4.804   2.471   2.191  0.4161  0.6257 -1.0690
  378MOL0     H51028   4.792   2.272   2.340 -0.7335 -2.0048  0.4182
  378MOL0     H51029   4.756   2.363   2.495  0.3520  0.0138  0.2364
  378MOL0     H51030   4.646   2.236   2.436 -1.1400  1.1902  1.8673
  379MOL0     O51031   5.415  10.392   1.106  0.2456 -0.3230  0.3591
  379MOL0     C51032   5.442  10.453   1.206  0.0105  0.7464 -0.2738
  379MOL0     O51033   5.455  10.389   1.329 -0.1908 -0.2440  0.3510
  379MOL0     C51034   5.428  10.256   1.325 -0.4078  0.5805 -0.3165
  379MOL0     C51035   5.298  10.208   1.302 -0.7870  0.4003  0.5577
  379MOL0     C51036   5.275  10.070   1.276  0.6920 -1.3626 -0.8508
  379MOL0     C51037   5.375   9.979   1.280  0.1060 -0.1145  0.6336
  379MOL0     O51038   5.353   9.844   1.255  0.2605  0.7597  0.4446
  379MOL0     C51039   5.236   9.786   1.196  0.5777  0.7102  0.2074
  379MOL0     C51040   5.214   9.825   1.055 -0.5689 -0.1415  0.3381
  379MOL0     C51041   5.125   9.732   0.972 -0.5299 -0.0077 -1.0397
  379MOL0     C51042   5.041   9.798   0.871  0.0918  0.3405  0.4977
  379MOL0     C51043   4.956   9.911   0.925 -0.8945  0.6960  1.0180
  379MOL0     C51044   4.859   9.887   1.042 -0.0634 -0.1126  0.1625
  379MOL0     C51045   4.757  10.001   1.033 -0.1502 -0.2369  0.2762
  379MOL0     C51046   4.698  10.033   1.168 -0.3339  0.2828 -0.4758
  379MOL0     N51047   4.809  10.051   1.271 -0.7231  0.1558  0.1436
  379MOL0     C51048   4.849   9.949   1.360 -0.7862  0.5171  1.0365
  379MOL0     C51049   4.947  10.002   1.433  0.0040  0.1662  1.3429
  379MOL0     C51050   5.004   9.945   1.551 -0.2513  0.6843 -0.4028
  379MOL0     C51051   5.134  10.006   1.610  0.2105  0.9478  0.1563
  379MOL0     C51052   5.113  10.114   1.720 -0.1396 -0.0158 -1.6584
  379MOL0     C51053   5.063  10.244   1.666 -0.3893 -0.3523  0.2294
  379MOL0     O51054   5.088  10.363   1.743  0.6088  0.4413 -0.2919
  379MOL0     C51055   5.032  10.470   1.688 -0.0972  0.0940 -0.7533
  379MOL0     C51056   5.099  10.538   1.583 -0.7769 -0.9732 -1.2836
  379MOL0     C51057   5.064  10.665   1.548 -0.0808  0.6231 -0.0678
  379MOL0     C51058   4.937  10.719   1.591 -0.6291 -1.3431  0.7013
  379MOL0     C51059   4.885  10.845   1.539 -0.5343  1.1257  0.0282
  379MOL0     O51060   4.964  10.913   1.455 -0.1916  1.1956 -0.6669
  379MOL0     C51061   4.934  11.047   1.447  0.6290 -0.1956  0.7395
  379MOL0     C51062   4.964  11.143   1.551 -0.6377  0.8914  0.5838
  379MOL0     C51063   4.941  11.276   1.521  0.6044 -0.5594 -0.1131
  379MOL0     C51064   4.882  11.316   1.405 -0.8260 -0.1169 -0.5836
  379MOL0     O51065   4.839  11.443   1.365 -0.3629 -0.2647  0.0176
  379MOL0     C51066   4.900  11.550   1.435 -0.3126  0.5664  0.1867
  379MOL0     C51067   4.902  11.669   1.339 -1.0691  0.4472 -0.4612
  379MOL0     C51068   4.977  11.629   1.210  0.3804 -0.3179  0.5462
  379MOL0     C51069   4.887  11.619   1.081 -0.1001  0.4144 -0.2020
  379MOL0     C51070   4.940  11.526   0.973 -0.4483 -0.4365  0.3714
  379MOL0     C51071   4.886  11.560   0.836 -0.1765 -0.1703 -0.4185
  379MOL0     C51072   4.938  11.457   0.731  0.2664  0.6338 -0.4228
  379MOL0     C51073   4.938  11.526   0.593 -0.3282 -0.7537  0.1848
  379MOL0    Cl51074   5.077  11.645   0.578 -0.2000 -0.1046  0.6253
  379MOL0     C51075   4.838  11.224   1.317 -0.2262  1.0386  0.4876
  379MOL0     C51076   4.860  11.093   1.338 -0.2368  0.0489 -0.3192
  379MOL0     O51077   4.768  10.877   1.568  0.0374  0.2108  0.0482
  379MOL0     C51078   4.867  10.653   1.691  0.3189  0.9283 -0.4402
  379MOL0     C51079   4.917  10.533   1.749 -0.4855 -1.0107 -0.3500
  379MOL0     N51080   4.970  10.128   1.387  0.9252 -0.8170 -0.6144
  379MOL0     N51081   4.906  10.152   1.286  0.1411 -0.3463 -0.3473
  379MOL0     C51082   5.500  10.012   1.340 -0.1261  0.1952 -0.1814
  379MOL0     C51083   5.526  10.147   1.350 -0.2180 -0.0026 -0.1274
  379MOL0     C51084   5.463  10.603   1.208 -0.1420 -0.3301  0.0514
  379MOL0     C51085   5.522  10.666   1.319  0.8575  0.6516 -0.6281
  379MOL0     C51086   5.561  10.800   1.314 -0.9875 -0.7786  0.4002
  379MOL0     C51087   5.549  10.867   1.193 -0.5891 -0.2187  0.0646
  379MOL0     O51088   5.610  10.995   1.182 -0.1306 -0.7237  0.1968
  379MOL0     C51089   5.739  10.980   1.118 -0.0691  0.1468 -0.5142
  379MOL0     C51090   5.785  11.120   1.095 -0.3410 -0.0627  0.4119
  379MOL0     C51091   5.936  11.121   1.068  0.0360 -0.4218  0.2271
  379MOL0     C51092   6.010  11.252   1.058  0.3040  0.4579 -0.6076
  379MOL0     C51093   6.147  11.227   1.091 -0.9725 -0.5583 -0.1323
  379MOL0     C51094   6.265  11.233   1.101 -0.3508 -0.2676  1.3905
  379MOL0     C51095   5.493  10.808   1.077 -0.5528  0.3966 -0.1437
  379MOL0     C51096   5.440  10.681   1.087 -0.0028  0.4129 -0.1281
  379MOL0     C51097   5.395  10.623   0.953 -0.1483  0.6405 -0.2706
  379MOL0     H51098   5.222  10.285   1.292 -2.6518 -1.5824 -1.7380
  379MOL0     H51099   5.175  10.047   1.240  1.2529 -1.0446 -2.7525
  379MOL0     H51100   5.241   9.680   1.219 -1.0109  1.1186  2.8037
  379MOL0     H51101   5.144   9.819   1.247 -0.6109 -3.1458  0.8525
  379MOL0     H51102   5.308   9.811   1.001  1.2388 -0.6412  3.4044
  379MOL0     H51103   5.178   9.928   1.052 -1.8542 -0.5316 -4.0827
  379MOL0     H51104   5.053   9.685   1.039 -0.1642  1.8726  0.7634
  379MOL0     H51105   5.190   9.653   0.933 -2.3349 -0.7738 -2.7045
  379MOL0     H51106   5.108   9.832   0.791  0.4506 -2.8815 -0.7167
  379MOL0     H51107   4.970   9.726   0.828 -0.3332  1.3017 -0.4772
  379MOL0     H51108   5.024   9.994   0.945  0.3332 -0.5876  2.3765
  379MOL0     H51109   4.900   9.938   0.834  0.7387 -5.2290 -2.2680
  379MOL0     H51110   4.821   9.785   1.033  1.6641 -0.6341 -1.7519
  379MOL0     H51111   4.928   9.900   1.125  1.5139  1.6090 -1.3202
  379MOL0     H51112   4.679   9.969   0.963 -2.6419  3.3194  1.1033
  379MOL0     H51113   4.804  10.094   0.998 -0.2365 -0.5971 -0.8338
  379MOL0     H51114   4.625  10.113   1.156 -0.8792  0.0296  0.9724
  379MOL0     H51115   4.637   9.949   1.201  0.8422  0.3974  2.2599
  379MOL0     H51116   4.807   9.850   1.374  1.6543 -0.5235  1.4878
  379MOL0     H51117   4.934   9.925   1.633  0.4107 -4.8005 -0.7947
  379MOL0     H51118   5.023   9.840   1.527  3.0263  0.9764  0.4111
  379MOL0     H51119   5.198   9.927   1.653  3.6976  2.2604 -2.1891
  379MOL0     H51120   5.186  10.046   1.523  0.4933 -4.4568 -2.5559
  379MOL0     H51121   5.202  10.130   1.780 -2.1829  0.4631  1.5026
  379MOL0     H51122   5.043  10.065   1.790 -0.4408 -0.8203 -2.4948
  379MOL0     H51123   4.955  10.228   1.660 -0.2940 -0.4808 -1.6746
  379MOL0     H51124   5.107  10.259   1.567 -1.0866 -1.8125 -0.3416
  379MOL0     H51125   5.195  10.514   1.538  0.2881  4.0615 -2.4162
  379MOL0     H51126   5.119  10.717   1.471  1.2931  3.1138  2.4333
  379MOL0     H51127   5.016  11.112   1.641 -0.1642 -3.5339 -0.9748
  379MOL0     H51128   4.981  11.347   1.592  0.7459  0.1794 -0.9211
  379MOL0     H51129   4.846  11.591   1.521 -1.0383  2.1046 -0.9363
  379MOL0     H51130   5.004  11.529   1.458  0.0024  0.6722 -1.0537
  379MOL0     H51131   4.801  11.690   1.304 -1.5716 -2.9999 -1.4872
  379MOL0     H51132   4.937  11.762   1.385 -0.0875 -0.0581 -0.1534
  379MOL0     H51133   5.059  11.696   1.186  1.0066 -1.3359 -0.2237
  379MOL0     H51134   5.033  11.535   1.207 -0.7957 -1.0815 -3.1741
  379MOL0     H51135   4.871  11.714   1.029  4.5033  1.7339  0.3774
  379MOL0     H51136   4.790  11.571   1.099 -0.4083 -0.5319 -3.5903
  379MOL0     H51137   4.918  11.421   0.993 -2.0095 -0.9774 -3.2329
  379MOL0     H51138   5.049  11.538   0.974 -0.5111  0.6849 -1.3492
  379MOL0     H51139   4.776  11.560   0.837 -0.2519 -3.0678 -1.0112
  379MOL0     H51140   4.929  11.653   0.797  3.4673 -1.8907 -0.8229
  379MOL0     H51141   4.893  11.357   0.722  2.6821 -0.3937 -2.0551
  379MOL0     H51142   5.043  11.438   0.754 -0.1984 -2.2272 -0.2688
  379MOL0     H51143   4.958  11.452   0.516  5.1259  0.6454 -0.1697
  379MOL0     H51144   4.844  11.577   0.571  1.2772  1.6040 -1.7161
  379MOL0     H51145   4.788  11.252   1.225  0.7520 -2.2110 -1.1846
  379MOL0     H51146   4.822  11.030   1.258  3.0528 -0.4607 -1.6510
  379MOL0     H51147   4.775  10.699   1.725  0.3556  0.1500  0.7933
  379MOL0     H51148   4.862  10.483   1.828 -3.0090  1.9370 -0.0591
  379MOL0     H51149   5.557   9.922   1.363 -2.3909 -1.2504  0.1586
  379MOL0     H51150   5.622  10.182   1.387  0.2646 -0.8119 -0.5990
  379MOL0     H51151   5.557  10.610   1.406  0.9082 -2.1614 -2.3256
  379MOL0     H51152   5.625  10.844   1.390 -1.5222 -1.2815  1.1444
  379MOL0     H51153   5.743  10.933   1.019  4.5012  0.3372 -0.6340
  379MOL0     H51154   5.797  10.922   1.190 -1.3840 -0.9259 -0.2641
  379MOL0     H51155   5.760  11.189   1.177 -1.6249  1.2834 -1.0332
  379MOL0     H51156   5.760  11.166   0.999  1.2043  0.2147  0.1055
  379MOL0     H51157   5.956  11.063   0.978  0.3928 -2.5868  1.6168
  379MOL0     H51158   5.994  11.057   1.135  3.3446 -0.4821 -2.4225
  379MOL0     H51159   6.005  11.306   0.963  1.6000  1.5143 -0.1189
  379MOL0     H51160   5.972  11.318   1.137  1.8290 -1.5283  1.9474
  379MOL0     H51161   6.370  11.253   1.097 -0.4586  0.6522 -3.7013
  379MOL0     H51162   5.505  10.874   0.992 -0.1008  4.0083  2.4816
  379MOL0     H51163   5.311  10.553   0.964 -0.9504  1.3444 -1.6823
  379MOL0     H51164   5.352  10.705   0.895 -2.3889  0.7319  1.3527
  379MOL0     H51165   5.484  10.582   0.906  0.2469  0.3135  0.7475
  380MOL0     O51166   2.691   8.469   1.582  0.1410 -0.7066 -0.3093
  380MOL0     C51167   2.616   8.417   1.669 -0.5975 -0.6909  0.5098
  380MOL0     O51168   2.525   8.318   1.647  0.2205  0.3410  1.2129
  380MOL0     C51169   2.511   8.269   1.520  0.1061  0.3249  0.0526
  380MOL0     C51170   2.376   8.230   1.489 -0.4912  0.3019 -1.0571
  380MOL0     C51171   2.348   8.194   1.355  0.5798  0.4323 -0.0484
  380MOL0     C51172   2.442   8.166   1.259 -0.3510  0.4098 -0.6285
  380MOL0     O51173   2.410   8.105   1.143  0.7719  0.2592 -1.0292
  380MOL0     C51174   2.446   8.181   1.022  0.5381  0.0295 -0.3548
  380MOL0     C51175   2.355   8.167   0.901  0.1409  0.0703  0.8290
  380MOL0     C51176   2.403   8.052   0.802  1.0676 -0.4459  0.8077
  380MOL0     C51177   2.280   8.018   0.711 -0.2409 -0.4936  0.2450
  380MOL0     C51178   2.321   7.905   0.610 -0.9406  0.2938 -0.0103
  380MOL0     C51179   2.199   7.858   0.527 -0.4177 -0.7219 -0.4374
  380MOL0     C51180   2.142   7.969   0.435 -0.5484  0.6961  0.2787
  380MOL0     C51181   2.023   7.920   0.364  0.4907 -0.4681 -0.5921
  380MOL0     N51182   2.056   7.828   0.253  0.3287  0.2178  0.3500
  380MOL0     C51183   2.015   7.696   0.261  0.4353  0.1987 -0.4994
  380MOL0     C51184   2.041   7.641   0.136 -0.8729 -0.1923 -0.3195
  380MOL0     C51185   1.990   7.510   0.092 -0.1450 -0.2394 -0.3335
  380MOL0     C51186   2.084   7.451  -0.011 -0.2052  0.6073  1.0474
  380MOL0     C51187   2.027   7.319  -0.066 -0.2867  0.4705 -0.4822
  380MOL0     C51188   2.128   7.252  -0.148  0.0306  0.4173 -0.3594
  380MOL0     O51189   2.103   7.108  -0.137  0.6910  0.3034 -0.3543
  380MOL0     C51190   2.170   7.033  -0.227  0.4590  0.7677  0.6115
  380MOL0     C51191   2.271   7.080  -0.312 -0.7829 -0.2998 -0.5041
  380MOL0     C51192   2.321   7.004  -0.415 -0.5992  0.2684 -0.6017
  380MOL0     C51193   2.267   6.875  -0.439 -0.0801 -0.2651 -0.5684
  380MOL0     C51194   2.315   6.787  -0.546 -0.3230  0.0162  0.0681
  380MOL0     O51195   2.372   6.855  -0.645 -0.0646 -0.3061 -0.3446
  380MOL0     C51196   2.418   6.800  -0.764  0.0292  0.3386 -0.3070
  380MOL0     C51197   2.483   6.677  -0.784 -0.6136 -0.1959 -0.0533
  380MOL0     C51198   2.560   6.653  -0.904  0.4719  1.2913  1.1953
  380MOL0     C51199   2.569   6.748  -1.002  0.5731  0.1481  0.9769
  380MOL0     O51200   2.635   6.747  -1.121  0.0369  0.4148  0.0421
  380MOL0     C51201   2.698   6.627  -1.166 -0.2742  0.1921 -0.6864
  380MOL0     C51202   2.708   6.633  -1.314  0.4922  0.2311  0.7116
  380MOL0     C51203   2.780   6.748  -1.383  0.5655 -0.0287  0.0295
  380MOL0     C51204   2.921   6.778  -1.325  0.0175  0.2442  0.3608
  380MOL0     C51205   2.989   6.882  -1.419  0.4089 -0.2582  1.2482
  380MOL0     C51206   3.000   6.824  -1.560 -0.2441 -0.8464  0.5060
  380MOL0     C51207   3.098   6.908  -1.646 -0.0983 -0.5796 -0.6820
  380MOL0     C51208   3.040   7.021  -1.730 -0.5832  0.4847 -0.1139
  380MOL0    Cl51209   2.945   6.967  -1.867  0.2214 -0.2161 -0.6088
  380MOL0     C51210   2.491   6.868  -0.992 -0.2390  0.2562 -0.6447
  380MOL0     C51211   2.424   6.893  -0.870 -0.9538  0.5346 -1.1848
  380MOL0     O51212   2.318   6.666  -0.543  0.4832 -0.3958 -0.3025
  380MOL0     C51213   2.158   6.824  -0.360  0.2763 -1.7070 -0.2460
  380MOL0     C51214   2.115   6.910  -0.255 -0.2535 -0.3859  0.2939
  380MOL0     N51215   2.075   7.743   0.049  0.1356 -0.3804 -0.2046
  380MOL0     N51216   2.089   7.855   0.118 -0.4429  0.3577 -0.1951
  380MOL0     C51217   2.584   8.186   1.298  0.9622  0.3180  1.1436
  380MOL0     C51218   2.614   8.253   1.416  0.2473  0.2350  0.3125
  380MOL0     C51219   2.663   8.444   1.801 -0.6913 -0.1647  0.0277
  380MOL0     C51220   2.803   8.442   1.837 -0.2645  0.3226  1.3140
  380MOL0     C51221   2.841   8.481   1.963  0.8354 -0.1106  0.6435
  380MOL0     C51222   2.747   8.509   2.057  0.0071 -0.0302 -0.6004
  380MOL0     O51223   2.778   8.541   2.188  0.0377 -0.1945  0.4574
  380MOL0     C51224   2.846   8.663   2.181  0.4116 -0.6828 -0.8522
  380MOL0     C51225   2.816   8.729   2.312  0.0096 -0.1683 -0.4710
  380MOL0     C51226   2.851   8.649   2.435  0.3221  0.1741  0.0772
  380MOL0     C51227   2.876   8.730   2.559 -0.7832  0.3427 -0.6866
  380MOL0     C51228   2.768   8.812   2.593  1.2739  0.5557 -0.0309
  380MOL0     C51229   2.666   8.880   2.613  0.4796 -0.2016  1.1750
  380MOL0     C51230   2.613   8.503   2.028 -0.9146  0.5074 -0.1700
  380MOL0     C51231   2.570   8.475   1.898  0.2500  0.0426 -0.7939
  380MOL0     C51232   2.421   8.477   1.881 -0.6605  0.5353 -0.3751
  380MOL0     H51233   2.307   8.226   1.573 -1.9249  0.0091 -2.2228
  380MOL0     H51234   2.245   8.165   1.340  1.0830  0.1763 -4.0480
  380MOL0     H51235   2.447   8.287   1.050 -2.5218 -0.2163  0.9981
  380MOL0     H51236   2.551   8.157   1.001  0.4228 -2.2512  1.3297
  380MOL0     H51237   2.352   8.262   0.846  0.3655 -0.0362  0.6310
  380MOL0     H51238   2.257   8.149   0.945  1.3552 -1.4520  3.1169
  380MOL0     H51239   2.422   7.956   0.850 -2.7818 -1.1791  1.2473
  380MOL0     H51240   2.494   8.088   0.753  0.4088  4.7284  2.6615
  380MOL0     H51241   2.192   7.992   0.772  0.0612 -0.0334  0.8917
  380MOL0     H51242   2.246   8.106   0.656 -5.7305 -0.7985  2.4896
  380MOL0     H51243   2.396   7.946   0.541 -1.7428  1.0084 -0.4665
  380MOL0     H51244   2.349   7.817   0.669  0.4584 -0.0912 -1.1744
  380MOL0     H51245   2.210   7.773   0.459 -0.6757 -1.2701  0.2040
  380MOL0     H51246   2.123   7.825   0.598 -1.4211  4.2886  1.1997
  380MOL0     H51247   2.221   7.989   0.362 -2.8952  2.9530 -1.8459
  380MOL0     H51248   2.119   8.056   0.498 -3.5882 -0.6019  1.1045
  380MOL0     H51249   1.953   7.887   0.441  0.0323  2.7603  0.5573
  380MOL0     H51250   1.991   8.014   0.317 -1.1596  0.9553  2.9973
  380MOL0     H51251   1.984   7.645   0.352 -1.0421  0.9005 -0.5822
  380MOL0     H51252   1.998   7.442   0.177  1.1791  1.8526  1.3209
  380MOL0     H51253   1.887   7.502   0.057  0.0622  1.9563 -1.6669
  380MOL0     H51254   2.106   7.524  -0.089 -0.4175  0.6344  1.0109
  380MOL0     H51255   2.183   7.435   0.032  1.0771  0.0353 -1.8792
  380MOL0     H51256   1.938   7.337  -0.126 -1.0572  1.6567  0.9275
  380MOL0     H51257   2.009   7.261   0.025 -0.3622  0.1035 -0.7331
  380MOL0     H51258   2.222   7.292  -0.110  0.1329  1.4074 -1.6011
  380MOL0     H51259   2.103   7.287  -0.249 -0.6837  2.3182  0.4238
  380MOL0     H51260   2.309   7.181  -0.297  0.6813 -1.1109  1.9607
  380MOL0     H51261   2.414   7.034  -0.463  0.3917 -1.3348  0.1886
  380MOL0     H51262   2.495   6.615  -0.696 -0.9260  2.4575  1.9673
  380MOL0     H51263   2.624   6.565  -0.911 -0.5370  0.3206  3.1743
  380MOL0     H51264   2.798   6.647  -1.126 -0.9587  1.2346  0.5637
  380MOL0     H51265   2.653   6.531  -1.139  0.2831 -0.9284 -3.3651
  380MOL0     H51266   2.766   6.541  -1.330  4.5419  2.5066  0.8445
  380MOL0     H51267   2.611   6.621  -1.363 -0.0769  1.4351  1.5050
  380MOL0     H51268   2.769   6.727  -1.490 -0.5555 -0.0334  0.1303
  380MOL0     H51269   2.730   6.845  -1.373  2.9932  1.1627  1.2872
  380MOL0     H51270   2.981   6.692  -1.295  1.8794  1.6498  0.8216
  380MOL0     H51271   2.909   6.842  -1.236  1.0793 -0.4006  0.9817
  380MOL0     H51272   3.090   6.904  -1.383  2.1064 -0.5506 -2.7461
  380MOL0     H51273   2.941   6.981  -1.416 -0.0797 -0.5071  1.8720
  380MOL0     H51274   3.033   6.722  -1.540 -1.5289 -0.8794  2.8653
  380MOL0     H51275   2.901   6.827  -1.608  0.1713 -1.7778 -0.4359
  380MOL0     H51276   3.132   6.839  -1.723  0.4748 -1.2485  0.1482
  380MOL0     H51277   3.188   6.940  -1.592  1.2002 -2.3019 -1.7031
  380MOL0     H51278   2.981   7.092  -1.670  4.2703  2.8566  2.4635
  380MOL0     H51279   3.125   7.077  -1.770 -0.1478 -0.3118 -0.3339
  380MOL0     H51280   2.485   6.928  -1.083 -1.0005 -1.9351 -2.1269
  380MOL0     H51281   2.386   6.993  -0.849  2.9335  1.5837  2.1750
  380MOL0     H51282   2.108   6.728  -0.367  0.2066 -1.5528 -2.6120
  380MOL0     H51283   2.029   6.866  -0.204 -0.8607  0.5033  0.0708
  380MOL0     H51284   2.665   8.161   1.230  0.0955 -0.1712  0.2641
  380MOL0     H51285   2.720   8.271   1.432  0.1848  0.0542  0.9621
  380MOL0     H51286   2.885   8.438   1.766 -0.2742 -0.4690  1.3402
  380MOL0     H51287   2.947   8.476   1.982  0.8701 -3.3381  0.1179
  380MOL0     H51288   2.807   8.727   2.101 -1.0246 -0.1337  0.2424
  380MOL0     H51289   2.954   8.653   2.165  0.8746  3.5086 -1.6561
  380MOL0     H51290   2.711   8.753   2.329  0.7027  1.2328  2.3514
  380MOL0     H51291   2.867   8.825   2.318  0.9043 -0.5243 -1.9094
  380MOL0     H51292   2.943   8.595   2.414  0.6792  1.0055 -0.5578
  380MOL0     H51293   2.773   8.578   2.465  1.5312  0.2821  4.0892
  380MOL0     H51294   2.898   8.663   2.643 -0.8608  0.6007 -0.4562
  380MOL0     H51295   2.962   8.797   2.557 -0.2297 -0.2598  0.9465
  380MOL0     H51296   2.570   8.924   2.630 -0.3722 -1.6563  0.3445
  380MOL0     H51297   2.538   8.533   2.100  0.8166  3.4336  0.5693
  380MOL0     H51298   2.389   8.375   1.858  0.5098 -0.4503  1.9826
  380MOL0     H51299   2.360   8.505   1.967 -0.0420 -3.4952  1.5900
  380MOL0     H51300   2.394   8.546   1.800  3.0187  1.9344 -0.6359
  381MOL0     O51301   2.600   9.723   1.936 -0.1568 -0.3480  0.1654
  381MOL0     C51302   2.493   9.773   1.967 -0.5820  0.7872  1.1842
  381MOL0     O51303   2.396   9.826   1.875  0.1020  0.0961  0.1384
  381MOL0     C51304   2.402   9.803   1.739 -0.2306 -0.9801  0.1330
  381MOL0     C51305   2.511   9.833   1.646  0.4127 -0.6116  0.0936
  381MOL0     C51306   2.493   9.816   1.509 -0.3279 -0.3448  0.2091
  381MOL0     C51307   2.375   9.774   1.461 -0.3286 -0.4450  0.0959
  381MOL0     O51308   2.361   9.776   1.322 -0.3545  0.5283  0.5069
  381MOL0     C51309   2.242   9.733   1.257  1.1941 -0.7593  0.5467
  381MOL0     C51310   2.127   9.839   1.255 -1.1499 -0.0395  0.6631
  381MOL0     C51311   2.164   9.939   1.138  0.0651 -0.1945 -0.8288
  381MOL0     C51312   2.060  10.047   1.134  0.7622 -0.0437 -0.2331
  381MOL0     C51313   2.076  10.149   1.021  0.3089 -0.6966  0.2753
  381MOL0     C51314   2.009  10.098   0.895 -0.3262  0.2061  0.0708
  381MOL0     C51315   1.994  10.205   0.786 -0.7861  0.2381 -0.0898
  381MOL0     C51316   2.123  10.242   0.713  0.5552  0.6482 -0.5258
  381MOL0     N51317   2.099  10.335   0.602 -0.2662  0.8786 -0.1973
  381MOL0     C51318   2.021  10.301   0.494  0.1002 -0.0833 -0.0198
  381MOL0     C51319   2.006  10.413   0.419 -0.5702  0.0413 -0.1593
  381MOL0     C51320   1.917  10.438   0.295  1.4432  0.5750 -0.4734
  381MOL0     C51321   2.002  10.448   0.168  0.7609  0.4632  0.3755
  381MOL0     C51322   1.898  10.468   0.056 -0.1449 -0.1711  0.0425
  381MOL0     C51323   1.972  10.528  -0.061  0.5562  0.7986  0.4664
  381MOL0     O51324   2.056  10.424  -0.114  0.3407 -0.4463 -0.6919
  381MOL0     C51325   2.122  10.451  -0.228 -1.0413 -0.7520 -0.5235
  381MOL0     C51326   2.110  10.567  -0.308  0.2032 -0.5993 -1.1620
  381MOL0     C51327   2.175  10.583  -0.422 -0.1743  0.1932  1.1252
  381MOL0     C51328   2.253  10.484  -0.480  0.3432 -0.1125  0.7307
  381MOL0     C51329   2.317  10.485  -0.613  0.3518 -0.3604 -0.2033
  381MOL0     O51330   2.285  10.598  -0.691 -0.2928  0.4243 -0.1464
  381MOL0     C51331   2.323  10.617  -0.820 -0.0797  0.8443  0.3136
  381MOL0     C51332   2.315  10.746  -0.870  0.6402 -0.2836  0.6539
  381MOL0     C51333   2.347  10.780  -1.001 -0.3221 -0.2793 -0.0063
  381MOL0     C51334   2.379  10.674  -1.087  0.0190  0.4025 -0.1812
  381MOL0     O51335   2.423  10.701  -1.212 -0.2302 -0.8120  0.0081
  381MOL0     C51336   2.465  10.836  -1.246 -0.0958 -0.4602  1.1342
  381MOL0     C51337   2.494  10.846  -1.400 -0.2368 -0.5697  0.8816
  381MOL0     C51338   2.557  10.983  -1.431 -1.1819 -0.3068  1.3363
  381MOL0     C51339   2.576  11.012  -1.580  0.3277 -0.0462 -0.4872
  381MOL0     C51340   2.646  11.150  -1.612 -0.1860  0.1712  0.2091
  381MOL0     C51341   2.644  11.185  -1.759  0.4668  0.3176  0.2093
  381MOL0     C51342   2.719  11.320  -1.791 -0.0261  0.3414 -0.1492
  381MOL0     C51343   2.699  11.356  -1.935  0.2565  0.5483  0.5223
  381MOL0    Cl51344   2.798  11.493  -1.980 -0.0714  0.2806  0.2154
  381MOL0     C51345   2.393  10.543  -1.034  0.2405  0.2973  0.3380
  381MOL0     C51346   2.360  10.516  -0.901  0.2855  0.2433  0.7311
  381MOL0     O51347   2.401  10.402  -0.642  1.4327  0.9067  0.1404
  381MOL0     C51348   2.263  10.367  -0.404  0.1858 -0.5163 -0.0287
  381MOL0     C51349   2.200  10.355  -0.283 -0.3604 -0.0704 -0.1842
  381MOL0     N51350   2.077  10.518   0.481 -0.9445  0.2486 -0.1241
  381MOL0     N51351   2.134  10.469   0.588 -0.0785  0.4548 -0.2010
  381MOL0     C51352   2.267   9.752   1.548  0.6663  0.0185 -0.7507
  381MOL0     C51353   2.284   9.770   1.683  0.6226 -1.1947 -0.0675
  381MOL0     C51354   2.465   9.782   2.111 -0.1331 -0.4660  0.3265
  381MOL0     C51355   2.430   9.911   2.162 -0.3650  0.2961  0.5673
  381MOL0     C51356   2.390   9.923   2.297 -0.2808  1.1121 -0.3471
  381MOL0     C51357   2.416   9.810   2.387  0.0846 -0.1163  0.2783
  381MOL0     O51358   2.402   9.822   2.520 -0.3625 -0.7409  0.0335
  381MOL0     C51359   2.506   9.788   2.618  0.7920  0.4810  0.0636
  381MOL0     C51360   2.645   9.842   2.593  0.3716  0.0087  0.6979
  381MOL0     C51361   2.652  10.002   2.592 -0.8117  0.5365 -0.8431
  381MOL0     C51362   2.808  10.058   2.601  0.9983 -0.7237  0.0468
  381MOL0     C51363   2.797  10.190   2.657 -0.8159 -1.1422 -0.8208
  381MOL0     C51364   2.795  10.303   2.700  0.2465  0.3630 -0.3680
  381MOL0     C51365   2.444   9.690   2.325  0.0964  0.6870 -0.0316
  381MOL0     C51366   2.462   9.665   2.193  0.6893  0.6313 -0.1412
  381MOL0     C51367   2.489   9.524   2.136 -1.1373 -0.1969 -0.0673
  381MOL0     H51368   2.606   9.868   1.685  1.6157 -3.3894 -0.1039
  381MOL0     H51369   2.576   9.838   1.443 -1.6220  1.1848 -1.0036
  381MOL0     H51370   2.263   9.691   1.158 -0.5750  2.1310 -1.1988
  381MOL0     H51371   2.208   9.648   1.317  0.3805  0.7904  2.3855
  381MOL0     H51372   2.115   9.888   1.352  0.1295 -1.3098  1.5186
  381MOL0     H51373   2.034   9.782   1.249 -2.3793  2.0111 -1.0648
  381MOL0     H51374   2.166   9.890   1.040  1.2016  0.8816 -1.3693
  381MOL0     H51375   2.259   9.986   1.163  0.0332 -0.9475  0.8217
  381MOL0     H51376   1.959  10.007   1.124  0.7943 -0.8673  2.1315
  381MOL0     H51377   2.070  10.103   1.228  1.8309 -2.9393  1.4894
  381MOL0     H51378   2.023  10.238   1.057  2.3614 -0.9110  4.4924
  381MOL0     H51379   2.179  10.171   0.994 -0.1538 -0.5003 -1.4013
  381MOL0     H51380   2.053  10.014   0.840 -4.1140 -1.4074 -0.8028
  381MOL0     H51381   1.910  10.056   0.916 -0.4819 -1.8767 -3.7164
  381MOL0     H51382   1.959  10.299   0.829  2.3378  2.0696 -1.2689
  381MOL0     H51383   1.912  10.188   0.715 -3.2340  1.6682  2.2109
  381MOL0     H51384   2.206  10.279   0.774  0.0479 -2.4322  2.3733
  381MOL0     H51385   2.162  10.157   0.656 -1.5955  0.8802 -2.4913
  381MOL0     H51386   1.975  10.204   0.482 -0.6107  0.3460 -0.8865
  381MOL0     H51387   1.841  10.360   0.291 -0.0509  1.4182  4.4375
  381MOL0     H51388   1.858  10.523   0.330  0.5052 -0.7799  1.4287
  381MOL0     H51389   2.068  10.534   0.174 -0.2824  1.2754  0.5011
  381MOL0     H51390   2.068  10.363   0.150  0.0919  0.3649 -2.0003
  381MOL0     H51391   1.813  10.526   0.092 -2.2203 -4.0911  2.1886
  381MOL0     H51392   1.850  10.372   0.031  0.4996 -0.7071  0.8012
  381MOL0     H51393   2.030  10.615  -0.031 -1.8831  1.2875  4.5738
  381MOL0     H51394   1.893  10.554  -0.132 -1.1689 -1.8762  1.2074
  381MOL0     H51395   2.053  10.649  -0.265 -0.6184 -2.0438  0.6414
  381MOL0     H51396   2.156  10.683  -0.460 -2.6975 -0.2157  1.1832
  381MOL0     H51397   2.278  10.828  -0.809 -0.7519 -2.4633  2.9104
  381MOL0     H51398   2.346  10.886  -1.022 -4.9749 -0.4881 -2.1646
  381MOL0     H51399   2.389  10.913  -1.233 -1.3839 -1.9384  2.8214
  381MOL0     H51400   2.552  10.865  -1.187 -0.2411 -0.6866  1.4623
  381MOL0     H51401   2.559  10.766  -1.435 -0.7082 -1.1592  1.3236
  381MOL0     H51402   2.405  10.840  -1.464 -0.6973 -0.9240  1.5463
  381MOL0     H51403   2.501  11.069  -1.392  0.4546  2.9657 -2.7515
  381MOL0     H51404   2.649  10.974  -1.373 -1.5141 -1.9418  1.6460
  381MOL0     H51405   2.474  11.007  -1.621  0.3644 -1.6449 -0.4436
  381MOL0     H51406   2.636  10.934  -1.626  2.9626  0.7373  1.4053
  381MOL0     H51407   2.752  11.146  -1.586 -0.1500  0.9503  0.2126
  381MOL0     H51408   2.595  11.222  -1.548  0.0914  2.3908 -1.9336
  381MOL0     H51409   2.701  11.107  -1.809  0.2201 -0.2943  0.8548
  381MOL0     H51410   2.544  11.196  -1.804  0.0982 -0.9275  0.6880
  381MOL0     H51411   2.826  11.299  -1.785 -0.6469 -2.7859  3.3828
  381MOL0     H51412   2.690  11.399  -1.721  0.3423 -0.5059  0.9936
  381MOL0     H51413   2.732  11.261  -1.978  0.5556  0.0419  1.8510
  381MOL0     H51414   2.591  11.372  -1.938  0.4269  2.7377  2.5500
  381MOL0     H51415   2.432  10.461  -1.094 -0.3851  1.1601 -1.3093
  381MOL0     H51416   2.370  10.411  -0.874 -0.1456 -0.4831 -1.6578
  381MOL0     H51417   2.318  10.289  -0.455 -2.5438 -1.9802 -0.9689
  381MOL0     H51418   2.218  10.262  -0.230 -1.3474  1.6659  3.5520
  381MOL0     H51419   2.166   9.729   1.516  1.1428 -0.3581 -2.0676
  381MOL0     H51420   2.202   9.759   1.753 -0.6860  0.6098 -1.2485
  381MOL0     H51421   2.421   9.989   2.087 -0.4467 -0.6382 -0.4223
  381MOL0     H51422   2.353  10.012   2.347 -1.3109 -0.9589  2.8437
  381MOL0     H51423   2.516   9.680   2.631 -2.8232 -0.0503 -0.6296
  381MOL0     H51424   2.481   9.836   2.713 -0.3810 -0.9412  0.4967
  381MOL0     H51425   2.664   9.803   2.492 -3.6623  2.5316 -1.3060
  381MOL0     H51426   2.724   9.798   2.654 -1.3815 -1.7436  1.8399
  381MOL0     H51427   2.598  10.034   2.682 -0.9841  1.1868 -1.1808
  381MOL0     H51428   2.596  10.047   2.509 -0.8868 -0.9957 -1.6615
  381MOL0     H51429   2.873   9.999   2.666 -1.8774 -2.4746  1.5789
  381MOL0     H51430   2.852  10.065   2.501  0.6638  2.3304  0.0188
  381MOL0     H51431   2.800  10.403   2.737  2.1576 -0.9234  3.3832
  381MOL0     H51432   2.458   9.598   2.380 -0.0840 -0.2401 -1.4635
  381MOL0     H51433   2.566   9.505   2.061 -0.8218 -5.3433  1.1575
  381MOL0     H51434   2.510   9.454   2.218  0.2594 -2.0686 -1.9383
  381MOL0     H51435   2.398   9.484   2.090 -1.6193 -1.7420  2.0711
  382MOL0     O51436   9.717   8.282   2.255  0.0459 -0.6936 -0.5362
  382MOL0     C51437   9.828   8.253   2.236 -0.8805 -0.0759 -0.1504
  382MOL0     O51438   9.910   8.320   2.151 -0.2034  0.2518 -0.1094
  382MOL0     C51439   9.852   8.430   2.100 -0.4645 -0.2993 -0.7890
  382MOL0     C51440   9.800   8.536   2.170 -0.3986 -1.3605  0.1488
  382MOL0     C51441   9.717   8.636   2.112  0.1890 -0.1166  0.6255
  382MOL0     C51442   9.714   8.632   1.974 -0.4083 -0.2769 -0.3043
  382MOL0     O51443   9.655   8.738   1.901  0.0197  0.5789 -0.0049
  382MOL0     C51444   9.604   8.844   1.982  0.2359  0.0281  0.1314
  382MOL0     C51445   9.564   8.963   1.889 -0.2049  1.0365 -0.3162
  382MOL0     C51446   9.670   9.056   1.828  0.2528  0.4446  0.1324
  382MOL0     C51447   9.635   9.127   1.696  0.0983  0.2718  0.2437
  382MOL0     C51448   9.534   9.238   1.703 -0.7854 -0.2444 -0.5845
  382MOL0     C51449   9.396   9.184   1.672  0.8084  1.0771  0.2953
  382MOL0     C51450   9.275   9.257   1.739  0.5126  0.0835 -0.0780
  382MOL0     C51451   9.149   9.172   1.718  0.6592 -0.0105 -0.3299
  382MOL0     N51452   9.145   9.054   1.807 -0.4324 -1.1065  0.6324
  382MOL0     C51453   9.133   8.921   1.780 -0.6221 -0.2087 -0.1627
  382MOL0     C51454   9.139   8.858   1.895 -0.1522 -0.6360 -0.5324
  382MOL0     C51455   9.073   8.728   1.927 -0.6899 -0.0520  1.5624
  382MOL0     C51456   9.126   8.608   1.846  0.6303 -0.0341  0.3378
  382MOL0     C51457   9.279   8.589   1.864 -0.3421 -0.1523  0.2445
  382MOL0     C51458   9.321   8.510   1.982 -0.0727 -0.5683 -0.7562
  382MOL0     O51459   9.300   8.371   1.948 -0.1718  0.4480 -0.1118
  382MOL0     C51460   9.351   8.286   2.040  0.1056  0.2049  0.6065
  382MOL0     C51461   9.258   8.213   2.122 -0.3965 -0.7695 -1.2696
  382MOL0     C51462   9.302   8.100   2.187 -0.4670  0.8587  0.3150
  382MOL0     C51463   9.437   8.057   2.175  0.1635  0.1345  0.1902
  382MOL0     C51464   9.470   7.943   2.262 -0.4805  0.7507 -1.1618
  382MOL0     O51465   9.382   7.908   2.358 -0.0136  0.1465 -0.1692
  382MOL0     C51466   9.388   7.781   2.410  0.7436 -0.6296  1.1380
  382MOL0     C51467   9.369   7.782   2.552 -0.3727  0.7635  0.0619
  382MOL0     C51468   9.388   7.653   2.615 -0.3369 -0.0512  0.2282
  382MOL0     C51469   9.415   7.541   2.539 -0.3655 -0.0179 -0.1915
  382MOL0     O51470   9.435   7.426   2.618  0.0529  0.0694  0.1718
  382MOL0     C51471   9.533   7.321   2.566 -0.7021 -0.0668  1.1262
  382MOL0     C51472   9.653   7.315   2.662  1.1780 -0.5096  0.3940
  382MOL0     C51473   9.626   7.220   2.785 -0.8018  0.8150  1.0205
  382MOL0     C51474   9.617   7.070   2.759 -0.9053 -0.0605 -1.0030
  382MOL0     C51475   9.743   7.017   2.688 -0.2553 -0.4955 -0.0352
  382MOL0     C51476   9.786   6.874   2.715 -0.3636 -0.5133  0.0940
  382MOL0     C51477   9.669   6.764   2.717  1.6464  0.2447  0.6345
  382MOL0     C51478   9.592   6.734   2.588  0.0927 -0.2293 -0.2049
  382MOL0    Cl51479   9.699   6.665   2.463  0.2023  0.2857  0.3767
  382MOL0     C51480   9.423   7.545   2.393  0.0411  0.3653  0.3841
  382MOL0     C51481   9.414   7.668   2.337 -0.2604 -0.6044  0.3838
  382MOL0     O51482   9.561   7.866   2.220 -0.3973  0.0234  0.3376
  382MOL0     C51483   9.522   8.128   2.091  0.3486 -0.1040  0.5787
  382MOL0     C51484   9.476   8.236   2.011  0.2828  0.5297 -0.7915
  382MOL0     N51485   9.149   8.956   1.995  0.1146 -0.0599  0.3043
  382MOL0     N51486   9.171   9.076   1.941  0.3199  0.5195  0.1791
  382MOL0     C51487   9.782   8.536   1.902  0.1748  0.5312  0.6626
  382MOL0     C51488   9.851   8.436   1.961  0.7078 -0.7567 -0.0682
  382MOL0     C51489   9.884   8.133   2.298 -0.6704 -0.9455 -0.1696
  382MOL0     C51490   9.851   8.018   2.246  0.2707  0.9874  0.2843
  382MOL0     C51491   9.881   7.898   2.315  0.1701  1.2799  0.0177
  382MOL0     C51492   9.963   7.903   2.430 -0.0475  0.7582  1.6176
  382MOL0     O51493   9.991   7.783   2.496 -0.1323 -0.0562  0.2806
  382MOL0     C51494  10.019   7.671   2.411  0.4704  0.0404 -0.2657
  382MOL0     C51495  10.079   7.560   2.494 -0.3754  0.5382 -0.0916
  382MOL0     C51496   9.957   7.471   2.563  0.3143 -0.0451 -0.0181
  382MOL0     C51497  10.018   7.358   2.648 -1.4626 -0.3859 -0.8060
  382MOL0     C51498  10.053   7.234   2.575 -0.5524 -0.4742 -0.6134
  382MOL0     C51499  10.067   7.122   2.534 -0.3057 -0.2841 -0.2673
  382MOL0     C51500  10.008   8.028   2.474  0.3144 -0.2406 -0.6401
  382MOL0     C51501   9.971   8.146   2.410  0.2234 -0.3384  0.2928
  382MOL0     C51502  10.025   8.280   2.465  0.5202  0.1672  0.1391
  382MOL0     H51503   9.823   8.558   2.274  1.8156  0.8619 -0.7025
  382MOL0     H51504   9.681   8.710   2.184  0.9367  2.4226 -1.4577
  382MOL0     H51505   9.522   8.816   2.048 -0.2086  0.6920 -0.1290
  382MOL0     H51506   9.689   8.884   2.037  2.3212  2.5727 -4.3666
  382MOL0     H51507   9.498   9.032   1.943  0.4449  0.3992  1.3631
  382MOL0     H51508   9.496   8.924   1.814  0.4372 -2.0149  0.5783
  382MOL0     H51509   9.756   8.998   1.791  0.9557 -0.4455  2.9181
  382MOL0     H51510   9.703   9.122   1.909 -1.6852  3.6701 -1.5413
  382MOL0     H51511   9.732   9.172   1.673 -0.1180  1.1090  0.9103
  382MOL0     H51512   9.608   9.061   1.613 -0.5926  1.1403 -0.2473
  382MOL0     H51513   9.527   9.278   1.804 -1.4679 -2.8443  0.4944
  382MOL0     H51514   9.563   9.320   1.638  0.0834  0.5101  0.7119
  382MOL0     H51515   9.380   9.193   1.564  0.9234  5.6734  0.4766
  382MOL0     H51516   9.393   9.079   1.703 -0.1035  1.8478  3.0759
  382MOL0     H51517   9.273   9.351   1.682  4.4497 -0.0835 -0.7905
  382MOL0     H51518   9.299   9.287   1.841 -1.8164  2.9298 -0.2326
  382MOL0     H51519   9.060   9.233   1.733  0.3526 -0.6752  0.6473
  382MOL0     H51520   9.135   9.154   1.611  1.5231  3.0063 -1.0352
  382MOL0     H51521   9.107   8.879   1.684 -1.5488 -1.0001  0.4225
  382MOL0     H51522   9.086   8.701   2.032  2.4925 -0.1260  1.2513
  382MOL0     H51523   8.965   8.737   1.913 -0.5475  0.0647  0.4245
  382MOL0     H51524   9.087   8.515   1.888  0.1898  0.2211  0.4968
  382MOL0     H51525   9.103   8.605   1.739  3.3094  0.7541 -0.3467
  382MOL0     H51526   9.337   8.681   1.851 -1.1660  0.1775 -1.4397
  382MOL0     H51527   9.316   8.535   1.776  4.8772  1.0435  1.3365
  382MOL0     H51528   9.267   8.539   2.072 -1.6496  1.2046 -2.1857
  382MOL0     H51529   9.428   8.517   2.003 -0.3744 -1.9607  1.5784
  382MOL0     H51530   9.155   8.242   2.137 -0.2972 -1.7228  2.4372
  382MOL0     H51531   9.235   8.052   2.257  1.2327 -0.6979  0.9607
  382MOL0     H51532   9.370   7.879   2.600  0.6479 -0.0491  1.7871
  382MOL0     H51533   9.377   7.646   2.722 -0.2616 -1.3558  0.1663
  382MOL0     H51534   9.497   7.218   2.555 -1.8343  0.5892 -4.1372
  382MOL0     H51535   9.580   7.350   2.471  2.9264 -3.4544  1.6428
  382MOL0     H51536   9.748   7.292   2.613  1.9882  2.0910  0.5781
  382MOL0     H51537   9.664   7.413   2.711 -3.2099 -0.5810  2.0040
  382MOL0     H51538   9.712   7.238   2.850 -0.8473 -0.1734  1.3607
  382MOL0     H51539   9.539   7.261   2.838 -0.5727 -1.1528  3.0715
  382MOL0     H51540   9.523   7.037   2.716 -0.4700 -1.7325 -0.7398
  382MOL0     H51541   9.630   7.023   2.857 -1.2938 -0.1417 -0.9906
  382MOL0     H51542   9.824   7.082   2.723 -2.1738  0.2017  3.5808
  382MOL0     H51543   9.710   7.019   2.583 -1.5907 -2.1059  0.3149
  382MOL0     H51544   9.858   6.845   2.637 -1.1837 -0.1684 -0.8132
  382MOL0     H51545   9.841   6.880   2.809  0.0080  1.9091 -0.2120
  382MOL0     H51546   9.599   6.783   2.799  0.0646  2.4536 -1.0927
  382MOL0     H51547   9.724   6.673   2.743 -1.2389 -0.5062  5.0521
  382MOL0     H51548   9.508   6.672   2.620  0.3974 -0.3008  0.4864
  382MOL0     H51549   9.554   6.830   2.553 -0.1704  0.8360  2.6961
  382MOL0     H51550   9.447   7.453   2.340  1.3697  2.0526 -2.1499
  382MOL0     H51551   9.396   7.678   2.230 -1.7417 -1.9432  0.4693
  382MOL0     H51552   9.623   8.102   2.062  0.0697  1.6136 -2.2992
  382MOL0     H51553   9.541   8.272   1.932 -0.2934  0.1134 -1.4749
  382MOL0     H51554   9.783   8.532   1.794 -2.3652 -0.8711  0.6041
  382MOL0     H51555   9.874   8.344   1.906  4.2718  0.4028 -0.7989
  382MOL0     H51556   9.792   8.018   2.155  2.0538 -2.4202 -1.0768
  382MOL0     H51557   9.865   7.802   2.267  0.6943  1.5869 -0.7944
  382MOL0     H51558  10.090   7.702   2.333  0.9834  1.1840  0.6150
  382MOL0     H51559   9.924   7.637   2.369 -0.0242  1.3219 -0.2384
  382MOL0     H51560  10.143   7.602   2.572 -1.1675 -1.7707  1.9501
  382MOL0     H51561  10.126   7.482   2.433 -2.0611  0.6830 -1.6560
  382MOL0     H51562   9.888   7.433   2.487 -1.0134  1.8629  0.1704
  382MOL0     H51563   9.906   7.537   2.633  1.7561  1.8629 -0.6437
  382MOL0     H51564  10.102   7.405   2.701 -1.9070  0.9520 -1.2457
  382MOL0     H51565   9.944   7.331   2.724  1.0396 -3.2067  0.8663
  382MOL0     H51566  10.076   7.021   2.502  2.1496 -0.5168  0.9225
  382MOL0     H51567  10.062   8.041   2.568 -2.5369  1.4159  0.9064
  382MOL0     H51568   9.961   8.364   2.436 -3.2539 -1.5214  2.7218
  382MOL0     H51569  10.035   8.265   2.572 -1.0790 -0.8732  0.1719
  382MOL0     H51570  10.131   8.289   2.438  1.9516 -1.4886  4.4521
  383MOL0     O51571   7.369   8.493   4.642 -0.0191 -0.1658  0.3486
  383MOL0     C51572   7.381   8.511   4.523 -0.1293 -0.1915 -0.3027
  383MOL0     O51573   7.497   8.504   4.448  0.0265 -0.2600  0.6921
  383MOL0     C51574   7.631   8.479   4.487  0.8247  0.1655 -0.1114
  383MOL0     C51575   7.668   8.463   4.626 -1.1820 -0.3299 -0.0372
  383MOL0     C51576   7.801   8.463   4.665 -0.1776  0.1696 -0.3816
  383MOL0     C51577   7.900   8.461   4.574  0.7000 -0.6746  0.5550
  383MOL0     O51578   8.025   8.462   4.639  0.1614 -0.1901 -0.7525
  383MOL0     C51579   8.120   8.385   4.571  0.5611  0.0287 -0.7259
  383MOL0     C51580   8.238   8.352   4.657  0.8286 -0.3361 -0.4121
  383MOL0     C51581   8.202   8.273   4.785 -0.6266  0.1200 -1.2199
  383MOL0     C51582   8.320   8.258   4.876 -0.1249  0.2406  0.6705
  383MOL0     C51583   8.293   8.189   5.013  0.0487  0.7899 -0.5606
  383MOL0     C51584   8.337   8.038   5.018  0.0119 -0.1697 -0.4084
  383MOL0     C51585   8.273   7.964   5.138 -0.3571 -0.3387  0.4223
  383MOL0     C51586   8.155   7.873   5.105  0.0324 -1.5161  0.3363
  383MOL0     N51587   8.195   7.754   5.028  0.3901 -0.1155  0.5861
  383MOL0     C51588   8.298   7.735   4.942 -0.4138 -0.2247 -0.6344
  383MOL0     C51589   8.291   7.601   4.907  0.8493 -0.3233 -0.2081
  383MOL0     C51590   8.357   7.548   4.786 -0.1015  0.8725  0.6069
  383MOL0     C51591   8.265   7.536   4.663  0.5274 -0.8828  0.6695
  383MOL0     C51592   8.328   7.505   4.522 -0.3759  0.8273  0.3355
  383MOL0     C51593   8.411   7.373   4.539 -0.5585 -0.0985  1.1310
  383MOL0     O51594   8.334   7.257   4.569 -0.0845  0.3905 -0.0029
  383MOL0     C51595   8.396   7.137   4.607  0.0675 -0.7505  0.1360
  383MOL0     C51596   8.305   7.041   4.629 -0.2645 -0.2248 -0.2919
  383MOL0     C51597   8.350   6.914   4.664 -0.2245  0.3499  0.4839
  383MOL0     C51598   8.486   6.884   4.668 -0.0821 -1.1993  0.0446
  383MOL0     C51599   8.534   6.746   4.693 -0.0072 -1.0376  0.4844
  383MOL0     O51600   8.442   6.645   4.688  0.0712 -0.3435  0.7115
  383MOL0     C51601   8.460   6.511   4.712 -0.4210 -1.1022  0.0565
  383MOL0     C51602   8.350   6.426   4.704  0.1137  0.5096  0.0228
  383MOL0     C51603   8.350   6.289   4.729 -0.0731 -0.3528  0.0444
  383MOL0     C51604   8.479   6.232   4.760 -0.3929  0.7562  0.1388
  383MOL0     O51605   8.495   6.099   4.775 -0.3667  0.1294  0.2430
  383MOL0     C51606   8.440   6.015   4.672 -0.7720 -0.4804  0.3032
  383MOL0     C51607   8.520   5.885   4.657  0.2876 -0.3443  0.3084
  383MOL0     C51608   8.529   5.796   4.782  0.0619  0.0292 -0.2101
  383MOL0     C51609   8.640   5.690   4.756  0.9838 -0.2094 -0.7421
  383MOL0     C51610   8.628   5.597   4.872  0.2300 -0.4543  0.2028
  383MOL0     C51611   8.755   5.508   4.873  0.4440 -0.2793  0.4406
  383MOL0     C51612   8.766   5.431   5.004 -0.1753  0.5330 -0.2156
  383MOL0     C51613   8.888   5.348   5.011  0.3238  0.2637 -0.3757
  383MOL0    Cl51614   9.048   5.419   4.969  0.0786  0.0232 -0.4302
  383MOL0     C51615   8.592   6.317   4.781 -0.5196  0.7377  0.8633
  383MOL0     C51616   8.576   6.453   4.766  0.3728 -0.3417 -0.4517
  383MOL0     O51617   8.655   6.731   4.717 -0.2444 -1.1831 -0.5809
  383MOL0     C51618   8.576   6.982   4.634 -0.2683  0.1977 -1.0417
  383MOL0     C51619   8.529   7.110   4.612 -0.8730  0.2409 -1.0639
  383MOL0     N51620   8.185   7.548   4.982 -0.7748  0.7390  0.3359
  383MOL0     N51621   8.121   7.642   5.042 -1.2524 -0.0923  0.2700
  383MOL0     C51622   7.871   8.481   4.433 -0.4689 -0.1538  0.1084
  383MOL0     C51623   7.741   8.498   4.395  0.3836 -0.5108 -1.3289
  383MOL0     C51624   7.243   8.534   4.457 -0.0654 -0.1416 -0.3476
  383MOL0     C51625   7.132   8.548   4.543 -0.1830  0.3400 -0.0629
  383MOL0     C51626   7.009   8.591   4.491 -0.3261  0.7509 -0.0242
  383MOL0     C51627   6.999   8.631   4.361  1.1337  0.7187 -1.0246
  383MOL0     O51628   6.881   8.688   4.320  0.2603 -0.5205  0.3577
  383MOL0     C51629   6.781   8.598   4.261 -0.2479  0.6124  0.1589
  383MOL0     C51630   6.799   8.590   4.103 -0.3806  0.6718 -0.0889
  383MOL0     C51631   6.718   8.689   4.023 -0.1238  0.1280  0.2357
  383MOL0     C51632   6.705   8.639   3.878 -0.4492  1.2432  0.9088
  383MOL0     C51633   6.829   8.577   3.820  0.4181 -0.4787  0.4292
  383MOL0     C51634   6.934   8.530   3.777  0.0021 -0.1631 -0.7756
  383MOL0     C51635   7.110   8.632   4.276  0.2164 -0.3119 -0.3570
  383MOL0     C51636   7.225   8.573   4.322  0.2156  0.0346  0.7107
  383MOL0     C51637   7.337   8.581   4.213 -0.0188 -0.4986  0.1544
  383MOL0     H51638   7.604   8.479   4.713 -0.1063 -1.6131  1.0430
  383MOL0     H51639   7.817   8.455   4.772  2.3757  0.6816 -0.6705
  383MOL0     H51640   8.080   8.286   4.546 -0.3622 -0.0144  0.8061
  383MOL0     H51641   8.141   8.443   4.481 -4.0615  2.6245 -0.4291
  383MOL0     H51642   8.267   8.451   4.693  0.5156  0.2021 -1.6002
  383MOL0     H51643   8.324   8.312   4.602 -0.6563 -0.3860 -2.8191
  383MOL0     H51644   8.178   8.168   4.767  3.7728 -1.9049  2.5451
  383MOL0     H51645   8.127   8.332   4.837  2.4266  1.2864  2.3145
  383MOL0     H51646   8.403   8.213   4.822 -1.1591  2.6756 -3.3970
  383MOL0     H51647   8.366   8.355   4.897  0.7884  0.5127 -2.1089
  383MOL0     H51648   8.350   8.243   5.090 -0.4500 -0.5909  0.8207
  383MOL0     H51649   8.189   8.192   5.047  0.1229  1.8867 -0.3922
  383MOL0     H51650   8.294   7.990   4.930 -0.1561  0.8577 -0.9005
  383MOL0     H51651   8.445   8.020   5.022  0.1452  0.7330  0.4918
  383MOL0     H51652   8.258   8.036   5.219  0.7656 -1.0265  1.2730
  383MOL0     H51653   8.345   7.902   5.192  0.0733  1.4908  2.0474
  383MOL0     H51654   8.099   7.849   5.196 -3.7501  2.4809 -0.6024
  383MOL0     H51655   8.091   7.926   5.034  2.8101  1.3584 -0.2311
  383MOL0     H51656   8.368   7.804   4.895  2.2091 -1.0436  1.7434
  383MOL0     H51657   8.436   7.622   4.769 -0.6824  1.5910  0.9315
  383MOL0     H51658   8.413   7.459   4.815  0.5473  1.2818  0.6215
  383MOL0     H51659   8.182   7.468   4.684 -1.4735 -1.0313 -5.6896
  383MOL0     H51660   8.220   7.634   4.647 -0.3359 -1.2620  0.7209
  383MOL0     H51661   8.402   7.583   4.499  2.0616 -1.9306 -2.1014
  383MOL0     H51662   8.250   7.506   4.446  1.1455  1.2880 -1.2768
  383MOL0     H51663   8.493   7.391   4.609  0.7413 -0.7346 -0.1750
  383MOL0     H51664   8.456   7.366   4.440  3.4034  2.6404  2.4917
  383MOL0     H51665   8.197   7.042   4.633 -0.2212  0.5092  1.0213
  383MOL0     H51666   8.282   6.832   4.685  1.1044 -0.1828  3.0474
  383MOL0     H51667   8.254   6.462   4.670 -1.4173 -2.7589  0.4787
  383MOL0     H51668   8.257   6.239   4.703 -0.4468  0.2687  0.1712
  383MOL0     H51669   8.339   5.983   4.699 -0.6552 -4.0087 -2.6700
  383MOL0     H51670   8.448   6.078   4.583 -0.6053  0.5409  1.0243
  383MOL0     H51671   8.479   5.816   4.582  0.8466 -0.2300 -0.1082
  383MOL0     H51672   8.619   5.904   4.614  0.3456  2.4336  1.5216
  383MOL0     H51673   8.536   5.852   4.876  0.8781 -1.9798  0.9886
  383MOL0     H51674   8.432   5.744   4.784  1.5480 -2.9596  1.6884
  383MOL0     H51675   8.740   5.734   4.750  0.7590  0.3115 -0.7183
  383MOL0     H51676   8.621   5.634   4.664  2.2042 -3.0324  0.6034
  383MOL0     H51677   8.539   5.538   4.848  0.1625 -0.0134 -0.6916
  383MOL0     H51678   8.617   5.651   4.966 -1.1949  0.8350 -0.6657
  383MOL0     H51679   8.748   5.436   4.791  1.4776 -0.8899  0.8720
  383MOL0     H51680   8.844   5.571   4.860  1.2747 -1.6951 -1.3988
  383MOL0     H51681   8.683   5.361   5.016  0.3079  0.1586  1.1069
  383MOL0     H51682   8.754   5.504   5.085 -0.0694 -0.7542  1.0021
  383MOL0     H51683   8.883   5.316   5.116  1.4177  0.7716 -0.1510
  383MOL0     H51684   8.882   5.258   4.949  0.6607 -2.2056  2.8966
  383MOL0     H51685   8.686   6.280   4.819 -0.1170  1.4564  0.5956
  383MOL0     H51686   8.668   6.509   4.775  1.2757 -2.0446  1.9248
  383MOL0     H51687   8.680   6.952   4.632  0.1318  1.2048  1.5477
  383MOL0     H51688   8.603   7.187   4.592  0.9398 -1.1395  0.0051
  383MOL0     H51689   7.952   8.492   4.361 -1.9763 -4.6053 -2.6593
  383MOL0     H51690   7.710   8.508   4.291 -0.4087  3.4308 -0.8702
  383MOL0     H51691   7.131   8.530   4.650  1.6542  0.9435  0.0896
  383MOL0     H51692   6.914   8.597   4.542 -1.3575 -1.0628 -1.6152
  383MOL0     H51693   6.681   8.638   4.279 -0.0891  1.6860 -1.2215
  383MOL0     H51694   6.797   8.495   4.294  1.7052 -0.2062 -2.8838
  383MOL0     H51695   6.761   8.492   4.073 -0.4622  0.7230 -0.1509
  383MOL0     H51696   6.901   8.595   4.062 -0.3145  0.1368 -0.0110
  383MOL0     H51697   6.761   8.789   4.036 -1.5897  0.3900  5.1834
  383MOL0     H51698   6.622   8.706   4.072  0.2525 -0.6348  1.2723
  383MOL0     H51699   6.630   8.560   3.869  1.3482 -0.3672 -0.9436
  383MOL0     H51700   6.672   8.709   3.800 -1.7453 -3.6155 -3.5352
  383MOL0     H51701   7.024   8.483   3.744  0.0267 -0.5031 -0.2299
  383MOL0     H51702   7.101   8.679   4.179 -0.7310  0.1521 -0.0583
  383MOL0     H51703   7.293   8.613   4.118 -1.7317 -1.7604  0.4686
  383MOL0     H51704   7.412   8.658   4.233  1.1838 -1.7821  0.7816
  383MOL0     H51705   7.386   8.483   4.207  0.0639 -0.6602  2.4877
  384MOL0     O51706   4.415   4.556   2.509  0.1989 -0.6477 -0.2177
  384MOL0     C51707   4.467   4.495   2.603  0.5170 -0.7894  0.1707
  384MOL0     O51708   4.391   4.428   2.695  0.3696 -0.2099 -1.0885
  384MOL0     C51709   4.259   4.429   2.689  0.0128 -0.4312  0.4277
  384MOL0     C51710   4.186   4.551   2.692 -0.9785 -0.0882 -0.4069
  384MOL0     C51711   4.050   4.546   2.692  0.5932 -1.6396  0.3223
  384MOL0     C51712   3.978   4.429   2.682  0.1100 -0.5472  0.2114
  384MOL0     O51713   3.834   4.437   2.691  0.1865 -0.8440 -0.2211
  384MOL0     C51714   3.778   4.348   2.782  0.2987  0.7259  0.1093
  384MOL0     C51715   3.733   4.447   2.888 -0.3817 -0.5442 -0.6384
  384MOL0     C51716   3.827   4.494   3.007  0.2431 -0.8644  0.4727
  384MOL0     C51717   3.792   4.631   3.058  0.6207 -0.1437 -0.3199
  384MOL0     C51718   3.861   4.641   3.195 -0.2700  0.5792 -0.2336
  384MOL0     C51719   3.848   4.798   3.245 -0.1503  0.5630 -0.3349
  384MOL0     C51720   3.937   4.839   3.362 -1.8437 -0.5182  0.3387
  384MOL0     C51721   3.946   4.744   3.477  0.8943  0.7934 -0.0933
  384MOL0     N51722   3.827   4.739   3.553  0.5076  0.9471  0.1135
  384MOL0     C51723   3.814   4.770   3.680 -0.4916  0.6349  0.0742
  384MOL0     C51724   3.695   4.743   3.716  0.4059  0.9217  0.3471
  384MOL0     C51725   3.650   4.757   3.850  0.5639  0.4881  0.1421
  384MOL0     C51726   3.705   4.645   3.946  0.5261 -0.8552  1.1843
  384MOL0     C51727   3.681   4.679   4.092  0.4988  0.1451 -0.4470
  384MOL0     C51728   3.776   4.785   4.147 -0.0205 -0.8128 -0.2890
  384MOL0     O51729   3.747   4.787   4.290 -0.1611  0.0657 -0.0952
  384MOL0     C51730   3.835   4.750   4.387 -1.2083  0.4836 -0.2333
  384MOL0     C51731   3.822   4.806   4.506  0.4632 -0.7583  0.4141
  384MOL0     C51732   3.907   4.783   4.610  0.2843  0.8494 -0.2003
  384MOL0     C51733   3.987   4.667   4.599 -0.2129  0.4109  0.2723
  384MOL0     C51734   4.070   4.639   4.718  0.2501  0.1740 -0.3693
  384MOL0     O51735   4.076   4.728   4.817 -0.5677  0.6961  0.1161
  384MOL0     C51736   4.132   4.702   4.940  0.3043 -0.5868  0.9155
  384MOL0     C51737   4.114   4.820   5.015 -0.4310 -0.2625  0.2810
  384MOL0     C51738   4.146   4.826   5.150  0.5777  0.2368 -1.0204
  384MOL0     C51739   4.209   4.718   5.214 -0.1318  0.6965 -0.0093
  384MOL0     O51740   4.228   4.706   5.347 -0.7823 -0.0096 -0.3836
  384MOL0     C51741   4.289   4.820   5.407 -0.0907 -0.3386  0.7600
  384MOL0     C51742   4.362   4.767   5.526 -0.0037 -0.3976 -0.1826
  384MOL0     C51743   4.479   4.676   5.485 -0.7254  0.9781 -0.7995
  384MOL0     C51744   4.546   4.593   5.601 -0.8975 -0.0695  0.0163
  384MOL0     C51745   4.451   4.514   5.690 -0.0197  0.0512  0.5807
  384MOL0     C51746   4.383   4.404   5.599 -1.4989  0.8288  0.4164
  384MOL0     C51747   4.257   4.346   5.660  0.4031 -0.5916 -0.3295
  384MOL0     C51748   4.155   4.461   5.678 -0.1785  0.4733 -0.1473
  384MOL0    Cl51749   4.014   4.351   5.724  0.0480  0.5450  0.2258
  384MOL0     C51750   4.223   4.594   5.140 -0.7319 -0.3025  0.2496
  384MOL0     C51751   4.187   4.591   5.004 -0.4896  0.0652 -0.3086
  384MOL0     O51752   4.115   4.526   4.726  0.2135  0.4738  0.8559
  384MOL0     C51753   4.002   4.597   4.481  0.0406 -0.1932  0.4785
  384MOL0     C51754   3.930   4.646   4.373  0.2132 -0.8481  0.9208
  384MOL0     N51755   3.619   4.694   3.609 -0.2681  0.4389  0.1433
  384MOL0     N51756   3.703   4.687   3.513 -0.0691  0.0103 -0.7061
  384MOL0     C51757   4.044   4.308   2.669  0.0397  1.2239  0.8643
  384MOL0     C51758   4.187   4.313   2.671  0.4093  0.0107 -1.2176
  384MOL0     C51759   4.613   4.485   2.590 -0.0849 -1.0185  0.6165
  384MOL0     C51760   4.694   4.595   2.548 -0.5417 -0.0836  0.1884
  384MOL0     C51761   4.828   4.590   2.517 -0.7471  0.7709  0.2042
  384MOL0     C51762   4.896   4.471   2.536  1.2209  0.3189 -0.2946
  384MOL0     O51763   5.021   4.435   2.497 -0.7616 -1.4527 -0.1667
  384MOL0     C51764   5.092   4.533   2.413  0.5847 -1.2055  0.4017
  384MOL0     C51765   5.214   4.476   2.335 -0.6663  0.5467  0.5721
  384MOL0     C51766   5.308   4.575   2.258 -0.4564 -0.1692  0.4753
  384MOL0     C51767   5.235   4.673   2.174  0.2012 -0.6041  0.5576
  384MOL0     C51768   5.192   4.787   2.260  0.1806 -0.5371  0.0586
  384MOL0     C51769   5.158   4.868   2.351  0.3167 -0.6003 -1.2426
  384MOL0     C51770   4.817   4.361   2.584 -0.7824 -0.2067  0.8267
  384MOL0     C51771   4.682   4.363   2.617  0.0773 -1.7155 -0.3089
  384MOL0     C51772   4.628   4.232   2.658 -0.4005  0.5399 -1.1635
  384MOL0     H51773   4.238   4.646   2.701  0.5762 -0.8916 -0.5423
  384MOL0     H51774   3.996   4.640   2.697 -0.8184 -2.2305 -1.9090
  384MOL0     H51775   3.678   4.330   2.741 -1.0648  1.9401  2.6525
  384MOL0     H51776   3.837   4.262   2.815  1.9588  1.7154 -0.1736
  384MOL0     H51777   3.657   4.400   2.950  2.3433 -0.6067  2.9455
  384MOL0     H51778   3.679   4.520   2.826  0.9067  0.7359 -0.3210
  384MOL0     H51779   3.930   4.519   2.976  0.1218  1.5798  1.7611
  384MOL0     H51780   3.815   4.425   3.091  1.6498 -0.6962  0.8397
  384MOL0     H51781   3.815   4.707   2.983  1.9888 -0.8764 -0.6775
  384MOL0     H51782   3.685   4.637   3.077  0.7146 -2.0378  1.0439
  384MOL0     H51783   3.813   4.572   3.264 -1.7535 -1.7048 -3.2696
  384MOL0     H51784   3.966   4.612   3.192 -0.3122  0.0858  1.9120
  384MOL0     H51785   3.864   4.875   3.168 -2.0060  1.1278 -0.1966
  384MOL0     H51786   3.741   4.810   3.261 -0.8829 -2.8196 -1.6966
  384MOL0     H51787   3.916   4.944   3.384 -0.2935  0.8315 -3.6401
  384MOL0     H51788   4.037   4.861   3.322 -1.8102  3.4009  2.1515
  384MOL0     H51789   3.973   4.645   3.439 -1.0156  1.0563 -2.3808
  384MOL0     H51790   4.032   4.756   3.543  0.3009 -2.0335  1.3507
  384MOL0     H51791   3.892   4.783   3.754 -1.5897 -3.4898  2.2554
  384MOL0     H51792   3.682   4.853   3.892  1.7125 -0.8043  2.4905
  384MOL0     H51793   3.542   4.749   3.841  0.4843  1.3590  0.2348
  384MOL0     H51794   3.661   4.549   3.919  1.4638 -1.9593  3.3486
  384MOL0     H51795   3.813   4.634   3.935  0.5991 -2.3275  2.9891
  384MOL0     H51796   3.699   4.596   4.161 -3.1022 -0.2211  0.2091
  384MOL0     H51797   3.578   4.700   4.120  0.4916 -1.2194  0.6300
  384MOL0     H51798   3.747   4.883   4.108 -3.4025 -0.8718  1.7134
  384MOL0     H51799   3.880   4.769   4.119  0.0318 -2.7795  0.8465
  384MOL0     H51800   3.748   4.881   4.533  0.5639 -1.5000  2.9536
  384MOL0     H51801   3.914   4.844   4.700  0.3802 -1.9095  1.7997
  384MOL0     H51802   4.075   4.908   4.964 -0.5830 -1.4470 -1.7336
  384MOL0     H51803   4.129   4.923   5.197  1.4412 -0.4117  0.7310
  384MOL0     H51804   4.357   4.870   5.338 -3.8168  2.7276 -1.0475
  384MOL0     H51805   4.216   4.894   5.440  0.1834  0.4859 -0.4334
  384MOL0     H51806   4.409   4.848   5.582  0.6153 -0.5091 -0.5276
  384MOL0     H51807   4.288   4.723   5.593 -1.6921  1.5323 -0.6723
  384MOL0     H51808   4.445   4.610   5.404 -3.4584 -2.1619  2.5985
  384MOL0     H51809   4.553   4.734   5.429  0.1562  0.9323  0.2965
  384MOL0     H51810   4.591   4.671   5.663 -3.1768  2.0614 -0.8593
  384MOL0     H51811   4.628   4.526   5.573  1.5877  2.2529  1.2877
  384MOL0     H51812   4.379   4.589   5.725  1.0040  1.3560 -0.0091
  384MOL0     H51813   4.501   4.462   5.772 -0.1841  0.9800  1.2980
  384MOL0     H51814   4.364   4.434   5.496  1.3618 -0.7620 -0.6775
  384MOL0     H51815   4.457   4.326   5.583 -1.7248  0.6888  0.0400
  384MOL0     H51816   4.284   4.300   5.756 -0.2706  0.9581  0.6553
  384MOL0     H51817   4.216   4.263   5.603 -4.1097 -0.6271  2.4607
  384MOL0     H51818   4.170   4.522   5.769 -1.3423  0.6252 -0.0427
  384MOL0     H51819   4.131   4.528   5.595  0.7085  2.0528  0.8038
  384MOL0     H51820   4.266   4.511   5.193 -0.6920  0.8465  2.1029
  384MOL0     H51821   4.186   4.502   4.942  0.8854  1.3081 -2.2424
  384MOL0     H51822   4.078   4.521   4.479  0.1276 -0.0938 -0.8103
  384MOL0     H51823   3.946   4.605   4.274  0.5878 -0.1768  0.6971
  384MOL0     H51824   3.979   4.221   2.662  0.0436  1.1758  1.3932
  384MOL0     H51825   4.253   4.227   2.678  1.0821  0.5904 -0.2922
  384MOL0     H51826   4.646   4.692   2.559  0.0204  0.1449  0.6639
  384MOL0     H51827   4.878   4.681   2.485 -0.0951  0.4577  0.3308
  384MOL0     H51828   5.140   4.602   2.483 -0.5656  1.2515 -1.0815
  384MOL0     H51829   5.030   4.587   2.340  1.5106 -2.4442 -1.3836
  384MOL0     H51830   5.182   4.395   2.269  3.3541 -2.0546  1.4098
  384MOL0     H51831   5.284   4.421   2.399  1.3445  0.4719 -1.5782
  384MOL0     H51832   5.380   4.517   2.199  0.7111  1.1004  0.6147
  384MOL0     H51833   5.372   4.631   2.327 -1.1113  2.4472 -0.9083
  384MOL0     H51834   5.307   4.713   2.102 -0.4390  0.8323  0.6945
  384MOL0     H51835   5.149   4.627   2.124 -0.0865 -0.1436  0.6242
  384MOL0     H51836   5.112   4.931   2.424 -3.1611 -2.1707 -1.8916
  384MOL0     H51837   4.877   4.270   2.590 -1.6307 -0.7686  0.9454
  384MOL0     H51838   4.698   4.152   2.638 -0.9017 -1.1601  2.8173
  384MOL0     H51839   4.616   4.226   2.767  2.6392 -1.3414 -0.8216
  384MOL0     H51840   4.535   4.211   2.605 -0.2228 -3.5663 -0.1939
  385MOL0     O51841   9.346  11.210   3.759 -0.6109 -0.6895  0.0115
  385MOL0     C51842   9.386  11.326   3.737 -0.3488  0.2699  1.0035
  385MOL0     O51843   9.310  11.431   3.693 -0.2972  0.5517  0.3497
  385MOL0     C51844   9.184  11.417   3.656 -0.0713  0.4506 -0.4383
  385MOL0     C51845   9.156  11.417   3.517  0.2481 -0.6253 -0.4280
  385MOL0     C51846   9.027  11.386   3.477 -0.2201 -0.2919 -0.6197
  385MOL0     C51847   8.920  11.385   3.574  0.7201 -0.5848 -0.7115
  385MOL0     O51848   8.792  11.365   3.535  0.1017  0.1071 -0.2754
  385MOL0     C51849   8.753  11.389   3.407 -1.0469 -0.9933  0.4388
  385MOL0     C51850   8.599  11.401   3.403 -0.3648 -0.0257 -0.5208
  385MOL0     C51851   8.542  11.513   3.490  0.8752 -0.2145 -0.2424
  385MOL0     C51852   8.625  11.651   3.472  0.0107 -0.8076  0.9797
  385MOL0     C51853   8.542  11.780   3.495  0.4902 -0.9356  0.0298
  385MOL0     C51854   8.627  11.897   3.450 -0.5680  0.0898 -0.1207
  385MOL0     C51855   8.569  12.033   3.497 -0.0316  0.9429 -0.2939
  385MOL0     C51856   8.636  12.158   3.419  0.4251  0.0248  0.6668
  385MOL0     N51857   8.546  12.196   3.313 -0.3736 -0.8123 -0.1994
  385MOL0     C51858   8.438  12.284   3.330  0.4857 -0.4808  0.4022
  385MOL0     C51859   8.400  12.306   3.196 -0.0112  0.9723  0.2230
  385MOL0     C51860   8.295  12.402   3.158 -0.1751 -0.5595 -0.0429
  385MOL0     C51861   8.165  12.359   3.084  0.2130 -0.4818  1.3671
  385MOL0     C51862   8.065  12.474   3.031 -0.0363  0.4067 -0.6095
  385MOL0     C51863   7.973  12.415   2.926  0.2630  0.5552  0.3051
  385MOL0     O51864   7.874  12.522   2.904  0.7723  0.8247 -0.0221
  385MOL0     C51865   7.872  12.594   2.782  0.6146 -1.0310  0.4973
  385MOL0     C51866   7.974  12.629   2.693  0.9889 -0.7262  0.0149
  385MOL0     C51867   7.953  12.713   2.586  0.5362  0.4375 -0.5111
  385MOL0     C51868   7.822  12.749   2.557  0.9345  0.0409  1.0588
  385MOL0     C51869   7.789  12.831   2.439  0.1323  0.4455  1.0653
  385MOL0     O51870   7.669  12.828   2.385  0.4863 -0.6153  0.3711
  385MOL0     C51871   7.647  12.883   2.254 -0.3227 -0.2014  0.3262
  385MOL0     C51872   7.631  13.021   2.225  0.8519  0.0394 -0.2090
  385MOL0     C51873   7.619  13.058   2.093 -1.1203  0.1694  0.6405
  385MOL0     C51874   7.622  12.964   1.988 -0.6263 -0.0538  0.1582
  385MOL0     O51875   7.616  13.007   1.858 -0.3496  0.6401  0.0683
  385MOL0     C51876   7.733  13.072   1.815 -0.8628  0.2345 -0.1921
  385MOL0     C51877   7.737  13.066   1.665 -0.5245  0.3909 -0.1407
  385MOL0     C51878   7.776  12.930   1.611  0.2142 -0.5435 -0.2892
  385MOL0     C51879   7.910  12.907   1.548 -0.5363  0.5236 -0.0982
  385MOL0     C51880   7.923  12.765   1.479 -0.2851  0.0736  0.4555
  385MOL0     C51881   8.056  12.744   1.413 -0.5380 -0.3297 -1.2637
  385MOL0     C51882   8.051  12.648   1.290 -0.7970 -0.3245 -0.0411
  385MOL0     C51883   8.187  12.585   1.260 -0.2222  0.5201  0.2360
  385MOL0    Cl51884   8.190  12.545   1.089 -0.3920 -0.2334  0.0579
  385MOL0     C51885   7.611  12.830   2.026  1.2139  1.1143 -0.5826
  385MOL0     C51886   7.639  12.791   2.162 -0.2410 -1.0202  0.1223
  385MOL0     O51887   7.891  12.889   2.388  0.6600 -0.1950 -0.9942
  385MOL0     C51888   7.710  12.702   2.635  0.2161  0.1883 -0.1748
  385MOL0     C51889   7.742  12.623   2.742 -0.3101  0.5239 -0.7124
  385MOL0     N51890   8.494  12.239   3.109  0.5832  0.7930 -0.3926
  385MOL0     N51891   8.571  12.163   3.184  0.1370  0.4385 -0.7183
  385MOL0     C51892   8.949  11.391   3.709 -0.2869 -0.0945  0.1115
  385MOL0     C51893   9.075  11.410   3.748 -0.6517  1.0019 -0.0768
  385MOL0     C51894   9.521  11.370   3.765 -1.2296  0.3205 -0.3638
  385MOL0     C51895   9.578  11.464   3.679 -0.2881  0.1991 -0.9257
  385MOL0     C51896   9.711  11.511   3.698  0.5921  0.0461 -0.0148
  385MOL0     C51897   9.788  11.467   3.807  0.5335 -0.4939 -0.0229
  385MOL0     O51898   9.906  11.537   3.835 -0.2442 -0.0887 -0.0759
  385MOL0     C51899   9.994  11.487   3.939 -0.2239  0.9053 -0.1265
  385MOL0     C51900  10.124  11.563   3.917  0.5786  0.0401  0.2803
  385MOL0     C51901  10.228  11.533   4.028 -0.1269 -0.2058 -0.2384
  385MOL0     C51902  10.356  11.624   4.009  1.6497 -0.4522 -0.4024
  385MOL0     C51903  10.440  11.571   3.901 -0.4929  1.0046 -0.1672
  385MOL0     C51904  10.501  11.526   3.801 -0.0184 -0.0497  0.1227
  385MOL0     C51905   9.734  11.361   3.884  0.4350  0.7776 -0.2495
  385MOL0     C51906   9.606  11.300   3.851  0.6308 -1.0138 -0.2584
  385MOL0     C51907   9.559  11.197   3.953 -0.2107 -0.1439  0.6640
  385MOL0     H51908   9.239  11.427   3.448  0.3197  3.4973  0.0152
  385MOL0     H51909   8.998  11.371   3.374 -0.3950  1.0432 -0.7829
  385MOL0     H51910   8.797  11.478   3.360 -2.6079  0.6188  1.8844
  385MOL0     H51911   8.772  11.304   3.341  3.2484  0.5023 -0.5759
  385MOL0     H51912   8.546  11.313   3.440 -1.9995 -0.2323 -3.1254
  385MOL0     H51913   8.572  11.418   3.298  3.6627  3.9273 -1.2317
  385MOL0     H51914   8.537  11.479   3.594 -2.2596  1.8278  0.4042
  385MOL0     H51915   8.435  11.520   3.468  0.2933 -0.6143  2.1988
  385MOL0     H51916   8.721  11.647   3.523  0.6017 -2.7882 -0.1862
  385MOL0     H51917   8.639  11.662   3.364  2.6254  4.3245  1.5161
  385MOL0     H51918   8.457  11.780   3.427 -0.5988  2.0734  1.2214
  385MOL0     H51919   8.505  11.779   3.598 -0.0604  0.8023 -0.1112
  385MOL0     H51920   8.724  11.885   3.499  0.2160 -2.7980 -2.1163
  385MOL0     H51921   8.644  11.894   3.342  2.1258 -2.9738  0.2381
  385MOL0     H51922   8.593  12.038   3.603 -0.4722 -0.4580 -0.0995
  385MOL0     H51923   8.460  12.029   3.500  0.0030 -2.5457  2.3822
  385MOL0     H51924   8.640  12.241   3.491 -0.4976  1.2924 -0.6837
  385MOL0     H51925   8.732  12.140   3.370 -0.5618  1.1955 -1.8966
  385MOL0     H51926   8.406  12.324   3.425  1.8019 -1.3224  1.2211
  385MOL0     H51927   8.269  12.466   3.242  0.4418  1.5845 -1.4045
  385MOL0     H51928   8.343  12.475   3.093 -3.9296 -0.5478 -3.1517
  385MOL0     H51929   8.199  12.301   2.998 -2.7989  0.3125 -0.5308
  385MOL0     H51930   8.099  12.291   3.139 -1.0510 -1.8147 -1.5824
  385MOL0     H51931   8.123  12.563   3.003 -1.0359  1.2514 -0.0680
  385MOL0     H51932   8.001  12.507   3.113 -0.9048 -0.5905 -0.8722
  385MOL0     H51933   7.914  12.333   2.966 -2.9263  2.0883 -0.9171
  385MOL0     H51934   8.022  12.385   2.833 -0.5172 -0.6316  0.2590
  385MOL0     H51935   8.075  12.609   2.725  0.2907  0.1578  3.0949
  385MOL0     H51936   8.045  12.745   2.538  0.5791 -0.3640 -0.9747
  385MOL0     H51937   7.630  13.091   2.308  0.9990 -0.0148 -0.1621
  385MOL0     H51938   7.622  13.164   2.067  0.2423 -0.1989 -0.8282
  385MOL0     H51939   7.723  13.179   1.838  0.9308  0.9237 -2.2214
  385MOL0     H51940   7.825  13.030   1.857 -1.3282 -2.1714 -1.4178
  385MOL0     H51941   7.647  13.102   1.614  1.7001  1.2755 -3.7682
  385MOL0     H51942   7.808  13.143   1.635 -2.7339  3.3685  1.6647
  385MOL0     H51943   7.762  12.851   1.686  1.2093 -0.1452  0.3412
  385MOL0     H51944   7.715  12.899   1.526  0.2095 -0.0976 -0.4514
  385MOL0     H51945   7.987  12.909   1.627 -2.5880  3.2842  2.0165
  385MOL0     H51946   7.928  12.985   1.474 -0.0260  1.4973  1.0096
  385MOL0     H51947   7.848  12.758   1.400  1.1345 -0.8557 -0.8582
  385MOL0     H51948   7.901  12.703   1.566 -0.2268 -2.3860 -1.1928
  385MOL0     H51949   8.095  12.841   1.379 -0.0369  0.3461  1.0707
  385MOL0     H51950   8.104  12.690   1.495 -2.2691  0.3546  0.2824
  385MOL0     H51951   8.017  12.705   1.203 -1.6075 -0.3043  0.2858
  385MOL0     H51952   7.978  12.567   1.297 -0.7811 -0.4969 -1.5615
  385MOL0     H51953   8.274  12.647   1.282  0.1891  0.4639 -1.1260
  385MOL0     H51954   8.195  12.497   1.325  1.0299 -0.5091 -1.2620
  385MOL0     H51955   7.593  12.750   1.956  2.5619 -0.6350  0.9720
  385MOL0     H51956   7.653  12.686   2.184  1.7482 -0.8123  0.0615
  385MOL0     H51957   7.606  12.723   2.611 -0.7960 -5.0441 -1.6493
  385MOL0     H51958   7.669  12.593   2.817  1.5812  3.3271  2.5540
  385MOL0     H51959   8.882  11.391   3.794  3.0678 -2.5219  3.0677
  385MOL0     H51960   9.086  11.406   3.856 -2.0430 -1.4821  0.0510
  385MOL0     H51961   9.517  11.511   3.603 -0.1625 -0.0855 -1.2085
  385MOL0     H51962   9.749  11.593   3.637  0.7027 -0.2015 -0.2802
  385MOL0     H51963  10.003  11.378   3.945 -0.1863  0.9576  1.3180
  385MOL0     H51964   9.946  11.517   4.033  0.1268 -2.8693  1.4578
  385MOL0     H51965  10.120  11.671   3.901 -2.7493 -0.1716 -1.1143
  385MOL0     H51966  10.160  11.530   3.819  1.9695  2.9039 -0.2798
  385MOL0     H51967  10.258  11.428   4.019  0.0165 -0.6646  3.5825
  385MOL0     H51968  10.191  11.556   4.129  3.8336 -0.4358  1.4799
  385MOL0     H51969  10.328  11.727   3.985 -0.8843 -1.3850 -1.8127
  385MOL0     H51970  10.408  11.616   4.105 -1.7379 -0.3913  1.6138
  385MOL0     H51971  10.552  11.515   3.708 -3.4040 -2.4827 -1.6629
  385MOL0     H51972   9.796  11.312   3.958 -0.7468  2.1564  1.7734
  385MOL0     H51973   9.493  11.237   4.030 -1.2609 -2.7057  1.2009
  385MOL0     H51974   9.515  11.111   3.902 -0.5840  0.8887 -0.8081
  385MOL0     H51975   9.646  11.157   4.007 -0.9508  0.1253  2.0874
  386MOL0     O51976   7.186  10.745   5.230  0.2649  0.6751  0.0214
  386MOL0     C51977   7.217  10.861   5.236  0.1413 -0.0216 -1.0081
  386MOL0     O51978   7.245  10.932   5.352 -0.1636 -0.0054 -0.3173
  386MOL0     C51979   7.240  10.866   5.478  0.6851 -1.3404 -0.7359
  386MOL0     C51980   7.147  10.780   5.525  0.8651  0.1156 -0.5349
  386MOL0     C51981   7.153  10.713   5.646  0.2736  0.5853  0.4534
  386MOL0     C51982   7.264  10.737   5.734  0.0246  0.0564 -0.0305
  386MOL0     O51983   7.292  10.670   5.850 -0.0028  0.2952  0.0382
  386MOL0     C51984   7.189  10.586   5.913 -0.5289 -0.2657  0.0838
  386MOL0     C51985   7.242  10.532   6.050  0.3707 -0.6552 -0.5382
  386MOL0     C51986   7.380  10.465   6.033  1.0297 -0.1849 -0.3473
  386MOL0     C51987   7.425  10.407   6.158  0.4525  0.5686  0.8435
  386MOL0     C51988   7.327  10.291   6.195  0.5860  0.1037 -1.0014
  386MOL0     C51989   7.387  10.168   6.251 -1.0879  0.3225  0.2555
  386MOL0     C51990   7.449  10.099   6.126  1.0842 -0.9213 -0.2439
  386MOL0     C51991   7.528   9.971   6.161 -1.1069  0.1060  0.5127
  386MOL0     N51992   7.590   9.898   6.048 -0.4974  0.9112  0.6748
  386MOL0     C51993   7.633   9.945   5.924 -0.2343  0.5403  0.6465
  386MOL0     C51994   7.714   9.851   5.876 -0.9100  0.6624  0.8908
  386MOL0     C51995   7.802   9.856   5.754  0.0232  0.6308  0.6777
  386MOL0     C51996   7.877   9.991   5.748 -0.7057  1.1503  0.1999
  386MOL0     C51997   7.967   9.998   5.611  0.1513 -0.1575 -0.0639
  386MOL0     C51998   7.872  10.035   5.496  0.4403  0.6217 -0.5654
  386MOL0     O51999   7.938  10.019   5.373 -0.2607  0.0384  0.0693
  386MOL0     C52000   7.956   9.896   5.310 -0.0382 -0.0891  0.4083
  386MOL0     C52001   7.919   9.770   5.365 -0.2261  0.8413 -0.9283
  386MOL0     C52002   7.938   9.653   5.291  0.7861  0.2309  0.2602
  386MOL0     C52003   7.995   9.652   5.160 -0.5337  0.6046  0.7216
  386MOL0     C52004   8.010   9.525   5.087 -0.7548  0.4259  0.7960
  386MOL0     O52005   7.974   9.411   5.145  1.1348 -0.3006 -0.6134
  386MOL0     C52006   7.985   9.292   5.077  0.2288  0.5436  0.0571
  386MOL0     C52007   8.004   9.182   5.161  0.1145  0.0903 -0.0832
  386MOL0     C52008   8.034   9.057   5.122  0.1421  1.2574 -0.9071
  386MOL0     C52009   8.044   9.033   4.983 -0.7010  1.1322 -0.2580
  386MOL0     O52010   8.100   8.911   4.939 -0.4300  0.3710 -0.2564
  386MOL0     C52011   8.133   8.877   4.801  1.3905 -0.1495  1.0919
  386MOL0     C52012   8.021   8.802   4.733  0.3720 -0.4797  0.4550
  386MOL0     C52013   7.912   8.890   4.682  0.2138 -0.2670 -0.1862
  386MOL0     C52014   7.799   8.808   4.613 -0.2460 -1.3712  0.0798
  386MOL0     C52015   7.699   8.901   4.554  1.3208  0.1148  1.3383
  386MOL0     C52016   7.598   8.968   4.650 -0.8821  0.4346  1.4833
  386MOL0     C52017   7.494   8.859   4.682  1.2674 -0.3447 -0.1687
  386MOL0     C52018   7.381   8.910   4.767  0.2689 -0.3677 -0.0397
  386MOL0    Cl52019   7.257   8.772   4.777 -0.1361  0.0727 -0.0231
  386MOL0     C52020   8.018   9.134   4.897  0.3574 -0.0811  1.0860
  386MOL0     C52021   7.995   9.264   4.942  0.1843 -0.5916 -0.3483
  386MOL0     O52022   8.058   9.536   4.976 -0.2782  0.5056 -0.2546
  386MOL0     C52023   8.040   9.774   5.113  0.5419 -0.2003 -0.2110
  386MOL0     C52024   8.021   9.895   5.187 -1.4213  0.2048  0.7624
  386MOL0     N52025   7.713   9.745   5.961 -0.1025 -0.3658  0.2907
  386MOL0     N52026   7.640   9.768   6.063  0.3017 -0.3368  0.9073
  386MOL0     C52027   7.358  10.835   5.693 -0.8195 -0.5397 -0.0673
  386MOL0     C52028   7.346  10.904   5.570 -0.2824  0.1281 -0.4512
  386MOL0     C52029   7.225  10.949   5.120  0.9896 -0.2113 -0.0531
  386MOL0     C52030   7.347  11.015   5.096  0.8399 -0.0225  0.2361
  386MOL0     C52031   7.367  11.094   4.974  1.0214  0.0361 -1.5598
  386MOL0     C52032   7.243  11.146   4.922 -0.2895  1.1357  0.6349
  386MOL0     O52033   7.268  11.242   4.834  0.7467  0.2135  0.0538
  386MOL0     C52034   7.154  11.319   4.781  1.3761  0.2435  0.9292
  386MOL0     C52035   7.194  11.466   4.738  1.2724 -0.3247 -0.0126
  386MOL0     C52036   7.284  11.539   4.830 -0.4380  0.7944 -1.0920
  386MOL0     C52037   7.297  11.687   4.792 -1.1209  0.7716  0.3440
  386MOL0     C52038   7.371  11.689   4.671 -0.0272 -0.2335  0.1679
  386MOL0     C52039   7.429  11.701   4.571 -0.7624  0.4908 -0.0455
  386MOL0     C52040   7.117  11.088   4.951  0.6409 -0.3059 -0.5696
  386MOL0     C52041   7.107  10.985   5.044  0.3045  0.2832 -0.3803
  386MOL0     C52042   6.970  10.915   5.059 -0.8893 -0.2734 -0.3100
  386MOL0     H52043   7.067  10.765   5.455  1.7222 -1.9773 -1.1512
  386MOL0     H52044   7.081  10.643   5.686 -0.4920  1.7374  1.1485
  386MOL0     H52045   7.110  10.660   5.931  0.3231  0.8077 -0.4306
  386MOL0     H52046   7.165  10.506   5.842  0.4051 -0.8914  0.4533
  386MOL0     H52047   7.164  10.473   6.101  0.2851  0.8157  1.1232
  386MOL0     H52048   7.244  10.619   6.115 -0.4207 -0.8009 -0.3052
  386MOL0     H52049   7.454  10.541   6.005 -0.6579  1.6814  0.0573
  386MOL0     H52050   7.379  10.394   5.950  1.1298  0.3865 -0.8440
  386MOL0     H52051   7.525  10.367   6.139  1.2101  1.5076  2.6819
  386MOL0     H52052   7.432  10.479   6.240 -3.8756  2.2628 -0.0098
  386MOL0     H52053   7.271  10.318   6.285 -1.4431 -3.6694 -0.9029
  386MOL0     H52054   7.252  10.260   6.122  1.0507 -7.6159  0.8855
  386MOL0     H52055   7.447  10.209   6.333 -5.8784  3.2419  2.7194
  386MOL0     H52056   7.320  10.101   6.306 -0.5948  0.0686  0.5538
  386MOL0     H52057   7.518  10.170   6.078 -1.1924  1.8260  0.3007
  386MOL0     H52058   7.367  10.069   6.060 -0.7369  1.8019  0.6386
  386MOL0     H52059   7.610   9.985   6.232 -1.2523 -0.0910  0.7223
  386MOL0     H52060   7.460   9.896   6.203 -1.2913  1.2568  2.3963
  386MOL0     H52061   7.610  10.040   5.878  0.5538  0.2536 -0.3638
  386MOL0     H52062   7.874   9.773   5.760  2.8058  2.9245  1.0746
  386MOL0     H52063   7.735   9.843   5.669 -1.5437  0.4972  1.8885
  386MOL0     H52064   7.809  10.077   5.755 -2.7366 -0.4682  1.5830
  386MOL0     H52065   7.953   9.998   5.827  1.3122  1.0026 -1.6386
  386MOL0     H52066   8.026   9.906   5.599  2.0935  1.1309 -0.8949
  386MOL0     H52067   8.040  10.078   5.625 -1.0717  0.8098  0.9499
  386MOL0     H52068   7.842  10.139   5.510 -1.8019  0.0124 -0.5735
  386MOL0     H52069   7.781   9.974   5.498 -1.3432  3.0104 -2.5990
  386MOL0     H52070   7.878   9.766   5.465  1.1770  0.6160 -0.3304
  386MOL0     H52071   7.914   9.559   5.339  1.4486  0.4255  1.0057
  386MOL0     H52072   7.997   9.203   5.268 -1.2024  2.9814 -0.6191
  386MOL0     H52073   8.076   8.988   5.195 -0.0746  1.6038 -0.4526
  386MOL0     H52074   8.159   8.967   4.745 -4.4718  1.4795  0.2493
  386MOL0     H52075   8.213   8.805   4.785  0.8265 -0.4712 -0.5190
  386MOL0     H52076   8.065   8.742   4.653  1.2292 -0.4877  0.9206
  386MOL0     H52077   7.985   8.730   4.807  0.8904 -0.4530  0.7424
  386MOL0     H52078   7.860   8.950   4.757 -2.7852 -0.8048 -1.6698
  386MOL0     H52079   7.956   8.958   4.609 -0.2406  1.4263  1.0601
  386MOL0     H52080   7.754   8.753   4.696  0.1668  2.6590  3.2893
  386MOL0     H52081   7.836   8.733   4.542 -2.2176 -2.9539  0.6237
  386MOL0     H52082   7.654   8.852   4.467 -1.5099  2.1710  1.4719
  386MOL0     H52083   7.753   8.984   4.507 -0.2034 -0.0251 -0.8249
  386MOL0     H52084   7.637   9.022   4.737 -1.1194  0.3699  1.6298
  386MOL0     H52085   7.553   9.048   4.590 -0.4542 -1.7292 -1.9794
  386MOL0     H52086   7.541   8.784   4.747 -1.9969 -1.0255  1.6314
  386MOL0     H52087   7.449   8.810   4.595 -2.4114 -2.8934  2.8349
  386MOL0     H52088   7.420   8.945   4.863 -1.0575 -0.3395  0.5200
  386MOL0     H52089   7.332   8.999   4.728 -0.7076  0.0159  1.8986
  386MOL0     H52090   8.016   9.118   4.790  0.7476  1.4060  0.8306
  386MOL0     H52091   7.989   9.333   4.859 -1.5188  0.1137  0.3249
  386MOL0     H52092   8.097   9.778   5.021 -1.9541 -3.0561 -2.0856
  386MOL0     H52093   8.067   9.985   5.148  2.2124 -2.0991 -0.8441
  386MOL0     H52094   7.439  10.865   5.760  0.0841  1.3773 -1.9164
  386MOL0     H52095   7.430  10.962   5.535  0.9001 -1.1134  0.2407
  386MOL0     H52096   7.428  10.972   5.154  0.2422 -2.7401 -0.7789
  386MOL0     H52097   7.465  11.139   4.959 -0.3775  3.5674 -1.1541
  386MOL0     H52098   7.067  11.331   4.847  0.0494 -1.0306 -0.4789
  386MOL0     H52099   7.112  11.266   4.694  2.4198  1.6017 -0.4494
  386MOL0     H52100   7.104  11.527   4.726  1.4551 -0.3954 -2.1288
  386MOL0     H52101   7.243  11.462   4.640  0.0727  1.5991 -0.7497
  386MOL0     H52102   7.384  11.495   4.824 -0.2882  0.7047  1.2627
  386MOL0     H52103   7.251  11.525   4.933  0.9212 -1.0221 -0.8450
  386MOL0     H52104   7.209  11.750   4.773 -1.4667  0.6613  1.4890
  386MOL0     H52105   7.360  11.733   4.869 -1.9270  0.1259  1.4225
  386MOL0     H52106   7.481  11.696   4.477 -2.1069 -4.4346 -0.8396
  386MOL0     H52107   7.027  11.119   4.899 -0.3600 -0.7456  0.8256
  386MOL0     H52108   6.891  10.984   5.028 -1.3925 -0.4188  0.6199
  386MOL0     H52109   6.971  10.826   4.997 -3.3345 -0.7699  0.2519
  386MOL0     H52110   6.960  10.883   5.163 -0.3866  0.8393  0.1055
  387MOL0     O52111   0.720   4.783   9.422  0.0307  0.0115 -0.1831
  387MOL0     C52112   0.762   4.671   9.393 -0.0972 -0.4877  1.1825
  387MOL0     O52113   0.830   4.586   9.476 -0.7239  0.4714  0.2750
  387MOL0     C52114   0.824   4.608   9.612 -0.1813 -0.3618  0.7244
  387MOL0     C52115   0.717   4.572   9.691 -0.2942  0.7545 -0.7627
  387MOL0     C52116   0.736   4.577   9.827 -0.0541 -0.1930  0.7176
  387MOL0     C52117   0.842   4.630   9.892  1.1145 -0.3251 -0.0319
  387MOL0     O52118   0.825   4.655  10.027 -0.5599  0.4661 -0.9206
  387MOL0     C52119   0.854   4.780  10.072 -0.5517 -0.2434 -0.7079
  387MOL0     C52120   0.795   4.785  10.205  0.5945  0.1245 -1.4644
  387MOL0     C52121   0.788   4.936  10.262 -0.3045  1.1413 -0.8385
  387MOL0     C52122   0.919   4.993  10.337  0.1012  0.7446 -0.2994
  387MOL0     C52123   0.887   5.089  10.447  0.2725  0.6395  0.0458
  387MOL0     C52124   0.795   5.208  10.397  0.2122 -0.8533  0.3045
  387MOL0     C52125   0.847   5.278  10.273  0.1120 -0.1014  0.2776
  387MOL0     C52126   0.755   5.391  10.226  0.6728  0.4475 -0.2815
  387MOL0     N52127   0.623   5.329  10.185 -0.5461 -0.6400 -0.5279
  387MOL0     C52128   0.607   5.231  10.086  1.2441 -0.1765 -0.9986
  387MOL0     C52129   0.476   5.194  10.090  0.9350  0.1120 -0.1121
  387MOL0     C52130   0.401   5.090  10.015 -0.0518 -0.0957  1.1837
  387MOL0     C52131   0.453   4.950  10.046  0.4266  0.7473 -0.5641
  387MOL0     C52132   0.363   4.837   9.990 -1.1408 -0.4548 -0.4366
  387MOL0     C52133   0.214   4.863   9.945 -0.0975 -0.0297  0.3385
  387MOL0     O52134   0.120   4.886  10.052 -0.4178  0.0807 -0.5037
  387MOL0     C52135   0.083   4.780  10.119  0.6207 -0.0113  0.1407
  387MOL0     C52136  -0.003   4.797  10.231  0.3881 -0.1453  0.8631
  387MOL0     C52137  -0.071   4.691  10.299 -0.0791 -0.3699 -0.3405
  387MOL0     C52138  -0.054   4.557  10.247 -0.7657 -0.0031 -0.3545
  387MOL0     C52139  -0.110   4.443  10.313  0.1759 -0.0190  0.4444
  387MOL0     O52140  -0.110   4.323  10.242 -0.0232  0.0384 -0.8744
  387MOL0     C52141  -0.116   4.195  10.302 -0.2817 -0.8841  0.7545
  387MOL0     C52142  -0.136   4.164  10.441 -0.2415 -0.0671  0.2928
  387MOL0     C52143  -0.123   4.035  10.489  0.9587  0.3756 -0.4101
  387MOL0     C52144  -0.100   3.929  10.400  0.4206  0.5771  0.3920
  387MOL0     O52145  -0.084   3.802  10.454 -0.2125  0.3298  0.0584
  387MOL0     C52146   0.001   3.701  10.398 -1.2330 -0.8953  0.3737
  387MOL0     C52147   0.149   3.737  10.389 -0.3134  0.5546  0.6047
  387MOL0     C52148   0.220   3.707  10.518  0.0574  0.6337 -0.6822
  387MOL0     C52149   0.199   3.833  10.616  0.1057 -0.0619 -0.3555
  387MOL0     C52150   0.240   3.790  10.754  0.7249  0.1463  0.3169
  387MOL0     C52151   0.163   3.862  10.873 -0.0953 -0.6134 -0.5670
  387MOL0     C52152   0.038   3.800  10.896 -0.6474  0.4272  0.7209
  387MOL0     C52153  -0.051   3.873  11.000  0.0851 -0.6425  0.3705
  387MOL0    Cl52154  -0.166   3.986  10.905  0.0379  0.2910 -0.1544
  387MOL0     C52155  -0.083   3.956  10.268 -0.1797 -0.6266  0.1821
  387MOL0     C52156  -0.093   4.088  10.219 -0.2365 -0.4225  0.3139
  387MOL0     O52157  -0.154   4.454  10.427  0.7796  0.4135  0.0953
  387MOL0     C52158   0.041   4.540  10.142 -0.0110 -0.6654  0.7562
  387MOL0     C52159   0.113   4.647  10.080  0.1951 -0.1428 -0.1305
  387MOL0     N52160   0.413   5.280  10.181 -0.6414  0.5657  0.2622
  387MOL0     N52161   0.496   5.358  10.236 -0.3486  0.0704 -0.4084
  387MOL0     C52162   0.948   4.668   9.821 -0.5509 -0.8336 -0.0018
  387MOL0     C52163   0.937   4.668   9.680 -0.4244  0.9011  0.5456
  387MOL0     C52164   0.770   4.635   9.244  0.5477  0.6022 -0.6543
  387MOL0     C52165   0.665   4.681   9.168  0.6810 -0.1651  0.2192
  387MOL0     C52166   0.655   4.655   9.034  0.4939 -0.3524  0.5552
  387MOL0     C52167   0.750   4.572   8.978  0.9466 -0.4205 -0.1415
  387MOL0     O52168   0.741   4.511   8.858  0.3200  0.7315 -0.1488
  387MOL0     C52169   0.665   4.579   8.756 -0.0941 -0.5467  0.0526
  387MOL0     C52170   0.693   4.496   8.625  0.1301 -0.6288  0.8192
  387MOL0     C52171   0.626   4.364   8.630  0.0388 -0.1883 -0.0138
  387MOL0     C52172   0.644   4.279   8.499  0.0874 -0.1047 -0.3991
  387MOL0     C52173   0.630   4.136   8.526 -0.7103  0.2216 -0.8406
  387MOL0     C52174   0.614   4.018   8.547  0.2897 -0.0139  0.1886
  387MOL0     C52175   0.864   4.519   9.052  0.8803 -0.4497 -0.3515
  387MOL0     C52176   0.872   4.557   9.186  0.9516  0.7117  0.4750
  387MOL0     C52177   0.990   4.509   9.262 -1.3416 -0.5507  0.7635
  387MOL0     H52178   0.631   4.516   9.654 -0.4154 -1.0624  2.0200
  387MOL0     H52179   0.656   4.534   9.885 -1.3022  0.6135 -0.3351
  387MOL0     H52180   0.959   4.800  10.093 -0.9516 -0.9017  2.3695
  387MOL0     H52181   0.823   4.860  10.004  1.8768  1.1003 -0.3112
  387MOL0     H52182   0.851   4.714  10.266  0.1248  1.7900  1.0521
  387MOL0     H52183   0.693   4.748  10.190  0.2244  0.5681 -0.2178
  387MOL0     H52184   0.717   4.927  10.345 -0.0250  0.6220 -0.6459
  387MOL0     H52185   0.752   5.000  10.181  0.1961  2.6765  0.1030
  387MOL0     H52186   0.973   4.906  10.377  2.1731  1.6541 -0.9987
  387MOL0     H52187   0.991   5.035  10.267  1.1907  0.0751  0.3842
  387MOL0     H52188   0.836   5.031  10.524 -2.1883  1.9981 -0.4533
  387MOL0     H52189   0.984   5.123  10.482 -0.1739  2.5645 -0.4831
  387MOL0     H52190   0.687   5.193  10.389 -0.8086  3.8413  2.3155
  387MOL0     H52191   0.793   5.277  10.481  0.0782  1.6812 -1.6575
  387MOL0     H52192   0.864   5.210  10.188 -1.1296  1.0075 -0.9085
  387MOL0     H52193   0.945   5.311  10.308  1.3945 -2.7846 -0.5179
  387MOL0     H52194   0.743   5.464  10.306 -0.4659 -0.6312  0.5732
  387MOL0     H52195   0.799   5.446  10.142  2.0258  3.5488  2.2500
  387MOL0     H52196   0.684   5.204  10.014 -0.5624 -0.5675 -2.8855
  387MOL0     H52197   0.292   5.086  10.020  0.0178 -2.8892  1.8946
  387MOL0     H52198   0.425   5.098   9.909 -2.4537 -1.5538  0.4506
  387MOL0     H52199   0.550   4.937   9.998  0.5828  1.2985 -0.4027
  387MOL0     H52200   0.444   4.952  10.155 -3.3228  0.8308 -0.7335
  387MOL0     H52201   0.360   4.759  10.066  0.4716  1.4888  1.7743
  387MOL0     H52202   0.429   4.808   9.907 -0.9859  2.2274 -1.3415
  387MOL0     H52203   0.179   4.785   9.877 -0.8840  1.9620 -1.6893
  387MOL0     H52204   0.228   4.944   9.873  0.2996 -0.6412 -0.2821
  387MOL0     H52205  -0.010   4.899  10.266 -1.3346 -0.7085  2.3387
  387MOL0     H52206  -0.122   4.707  10.394  0.1324  2.3384 -0.6122
  387MOL0     H52207  -0.162   4.233  10.521  0.2114  1.6828 -1.0181
  387MOL0     H52208  -0.146   3.996  10.588 -1.0296  0.2831 -0.8722
  387MOL0     H52209  -0.008   3.612  10.461  3.5000  0.4345  3.5103
  387MOL0     H52210  -0.042   3.674  10.301  3.7552 -0.7471 -2.1936
  387MOL0     H52211   0.187   3.674  10.309 -1.1512  2.3749 -1.3061
  387MOL0     H52212   0.150   3.840  10.353 -2.3052  0.2877 -0.3390
  387MOL0     H52213   0.191   3.616  10.571 -0.8624  1.5357  0.4370
  387MOL0     H52214   0.323   3.693  10.486 -0.7698 -0.1709 -3.2277
  387MOL0     H52215   0.094   3.862  10.605  0.0257  0.6236  1.7559
  387MOL0     H52216   0.267   3.915  10.592  3.7155 -2.7765 -0.3052
  387MOL0     H52217   0.348   3.806  10.761  0.6406  0.7846  0.2275
  387MOL0     H52218   0.212   3.686  10.775 -2.7767  1.3674  2.6498
  387MOL0     H52219   0.222   3.854  10.964 -1.5366  0.9428  0.5728
  387MOL0     H52220   0.156   3.970  10.854  0.1818 -0.3377  0.7995
  387MOL0     H52221   0.062   3.703  10.941  0.5815  1.2515  1.9113
  387MOL0     H52222  -0.027   3.804  10.808 -2.9271  2.0445  2.3635
  387MOL0     H52223  -0.104   3.797  11.057  0.4677 -1.3373 -0.1846
  387MOL0     H52224   0.010   3.927  11.072  1.4862 -1.3142 -0.2773
  387MOL0     H52225  -0.060   3.875  10.199 -1.1112 -1.1840  0.5067
  387MOL0     H52226  -0.083   4.100  10.112  1.8741 -5.1688 -0.2616
  387MOL0     H52227   0.066   4.440  10.110 -0.5021 -0.5557 -0.0106
  387MOL0     H52228   0.163   4.618   9.988 -2.2606  1.7177 -2.2149
  387MOL0     H52229   1.039   4.704   9.868 -0.6575  0.1099 -0.5009
  387MOL0     H52230   1.023   4.697   9.622  0.9036  2.0656  2.9561
  387MOL0     H52231   0.593   4.756   9.200  1.3754  0.9473 -0.7235
  387MOL0     H52232   0.568   4.680   8.974  1.4806  1.0784 -0.3120
  387MOL0     H52233   0.715   4.675   8.740  5.0108 -3.0415 -0.8671
  387MOL0     H52234   0.560   4.581   8.789  0.9573 -0.6892  3.8893
  387MOL0     H52235   0.801   4.483   8.619 -0.1899 -3.2905 -0.6656
  387MOL0     H52236   0.655   4.555   8.540 -0.9870  0.2441  1.8791
  387MOL0     H52237   0.519   4.371   8.647  0.2993 -1.2424  2.5792
  387MOL0     H52238   0.662   4.311   8.719 -4.0581  1.5458  3.0309
  387MOL0     H52239   0.574   4.316   8.423  0.8508  1.7747 -0.2406
  387MOL0     H52240   0.747   4.294   8.463  1.2890 -3.7153  1.0215
  387MOL0     H52241   0.596   3.918   8.581  0.8111  0.6773  2.6767
  387MOL0     H52242   0.931   4.445   9.008 -0.1792 -0.9154 -1.2126
  387MOL0     H52243   0.957   4.436   9.337 -0.8943 -0.6368  0.8841
  387MOL0     H52244   1.042   4.437   9.198 -1.7796 -2.7530  2.7239
  387MOL0     H52245   1.067   4.582   9.290 -1.0869  0.2295 -1.7412
  388MOL0     O52246   0.489   8.801   5.735  0.1735  0.7922 -0.7193
  388MOL0     C52247   0.369   8.796   5.700 -0.1103 -1.9266  0.9743
  388MOL0     O52248   0.276   8.889   5.741 -0.0243 -0.4240  0.7171
  388MOL0     C52249   0.304   8.960   5.854 -0.9391 -0.1704  0.2992
  388MOL0     C52250   0.363   8.914   5.966 -1.0289 -0.0725 -1.8230
  388MOL0     C52251   0.376   8.998   6.080 -0.2496  0.0639  0.8287
  388MOL0     C52252   0.311   9.125   6.089  0.4557  0.2853 -0.5440
  388MOL0     O52253   0.304   9.192   6.211  0.6280  0.1179 -0.1311
  388MOL0     C52254   0.388   9.147   6.318 -0.4037 -0.7255  0.3709
  388MOL0     C52255   0.376   9.217   6.452  0.9266 -0.0772  0.3008
  388MOL0     C52256   0.230   9.266   6.475  0.7189  1.1403  0.7112
  388MOL0     C52257   0.215   9.309   6.627 -0.8551 -0.6272 -0.5901
  388MOL0     C52258   0.074   9.321   6.685 -0.4195 -0.1511  0.5137
  388MOL0     C52259   0.074   9.328   6.844  0.0217  0.6574  0.7948
  388MOL0     C52260   0.111   9.468   6.905  0.1598  0.0027  0.6369
  388MOL0     C52261   0.075   9.482   7.052  0.3313  0.8660 -0.0460
  388MOL0     N52262   0.151   9.588   7.122 -0.7864 -0.2518 -0.5029
  388MOL0     C52263   0.129   9.725   7.103  0.7657  0.9710 -0.1264
  388MOL0     C52264   0.196   9.779   7.204  0.4735 -0.3056 -0.7837
  388MOL0     C52265   0.194   9.928   7.224  0.0016  1.3684 -0.2387
  388MOL0     C52266   0.339   9.977   7.249  0.1160 -0.2389  0.8004
  388MOL0     C52267   0.333  10.095   7.348 -0.4440 -1.3272 -0.5748
  388MOL0     C52268   0.247  10.207   7.289  1.0303  0.1584 -0.0628
  388MOL0     O52269   0.293  10.329   7.345 -0.6224  0.6365  0.6106
  388MOL0     C52270   0.200  10.419   7.384 -0.0720  0.3546 -0.9304
  388MOL0     C52271   0.097  10.460   7.293 -0.1008 -0.7044  0.0306
  388MOL0     C52272   0.004  10.564   7.334  0.4827 -0.3499 -0.8298
  388MOL0     C52273   0.024  10.626   7.463  0.0524 -0.2617  0.6461
  388MOL0     C52274  -0.058  10.747   7.493  0.6857 -0.3528 -0.0484
  388MOL0     O52275  -0.105  10.754   7.615  0.6706 -0.3530  0.2448
  388MOL0     C52276  -0.186  10.858   7.655 -0.7836 -0.8123 -0.2690
  388MOL0     C52277  -0.224  10.846   7.784 -0.3508 -0.2288 -0.4750
  388MOL0     C52278  -0.326  10.922   7.840 -0.2033 -0.0712  0.0115
  388MOL0     C52279  -0.380  11.031   7.771 -1.0262  1.0260 -0.6413
  388MOL0     O52280  -0.483  11.105   7.824 -1.0089  0.9534 -0.6858
  388MOL0     C52281  -0.466  11.182   7.936  0.1388  1.0309 -0.3043
  388MOL0     C52282  -0.594  11.227   8.014  0.0982  0.0825  0.7320
  388MOL0     C52283  -0.666  11.342   7.948 -0.7062  0.9834  0.6263
  388MOL0     C52284  -0.787  11.391   8.016 -0.2895 -0.6891 -0.0594
  388MOL0     C52285  -0.772  11.488   8.127  0.2989  1.2837 -0.1794
  388MOL0     C52286  -0.733  11.422   8.264  0.0800  0.5453 -0.8028
  388MOL0     C52287  -0.750  11.519   8.382 -0.6386 -0.4221  0.7501
  388MOL0     C52288  -0.741  11.449   8.509  0.1709  0.0548  0.1436
  388MOL0    Cl52289  -0.703  11.569   8.636 -0.2005  0.4984 -0.4471
  388MOL0     C52290  -0.324  11.066   7.648 -0.1958  0.1686 -0.4358
  388MOL0     C52291  -0.239  10.972   7.582  0.3509  0.0699 -0.7603
  388MOL0     O52292  -0.070  10.835   7.411 -0.8820  0.2388 -0.9861
  388MOL0     C52293   0.121  10.582   7.554 -0.2851 -0.5647 -0.5361
  388MOL0     C52294   0.204  10.478   7.516 -0.7300  0.9190 -0.8180
  388MOL0     N52295   0.220   9.687   7.303  0.0481  0.4301  0.6456
  388MOL0     N52296   0.200   9.563   7.252  0.5014 -0.2210  0.1354
  388MOL0     C52297   0.250   9.172   5.974  0.1011 -0.1999 -0.2260
  388MOL0     C52298   0.252   9.086   5.865 -0.4356 -0.4493  0.3367
  388MOL0     C52299   0.322   8.700   5.603 -0.3672  0.0905 -0.9607
  388MOL0     C52300   0.211   8.628   5.637  0.2819  0.0993  0.3327
  388MOL0     C52301   0.169   8.536   5.549 -0.9932  0.8235 -0.0416
  388MOL0     C52302   0.224   8.503   5.422  0.2463 -0.2510  0.4682
  388MOL0     O52303   0.180   8.408   5.330 -0.6069 -0.9546  0.1141
  388MOL0     C52304   0.125   8.288   5.382 -0.1985 -0.1024 -0.1461
  388MOL0     C52305   0.154   8.176   5.298  0.3283 -0.1893  0.8043
  388MOL0     C52306   0.089   8.048   5.357 -0.4606  0.2084 -0.1521
  388MOL0     C52307   0.064   7.930   5.267 -0.5454  0.0656 -1.0653
  388MOL0     C52308   0.179   7.854   5.233 -0.6116  0.2274  0.2296
  388MOL0     C52309   0.271   7.797   5.189 -0.2004  0.5221 -0.3291
  388MOL0     C52310   0.342   8.578   5.399 -0.3276 -0.3263 -0.4495
  388MOL0     C52311   0.401   8.670   5.493  0.0895 -0.0441  0.4709
  388MOL0     C52312   0.545   8.722   5.472 -0.6244 -0.5898 -0.2872
  388MOL0     H52313   0.395   8.812   5.985  0.6292  0.4598 -1.5455
  388MOL0     H52314   0.437   8.960   6.162  0.3662  0.7798  0.7133
  388MOL0     H52315   0.370   9.043   6.349 -2.1386 -0.6438 -0.2581
  388MOL0     H52316   0.492   9.155   6.283 -0.9043 -2.7431 -1.8318
  388MOL0     H52317   0.438   9.307   6.447 -2.2712  2.2913 -0.5926
  388MOL0     H52318   0.421   9.160   6.534  0.7871 -0.5807  0.0280
  388MOL0     H52319   0.163   9.181   6.461  0.1806  1.9228 -1.9847
  388MOL0     H52320   0.205   9.342   6.401 -0.1477  0.3936  0.2175
  388MOL0     H52321   0.271   9.240   6.690  0.4258  1.6791  0.9465
  388MOL0     H52322   0.269   9.403   6.640 -2.0049  0.2324 -1.7653
  388MOL0     H52323   0.038   9.413   6.637  1.4897  0.7303  0.7041
  388MOL0     H52324   0.002   9.248   6.645  0.4154 -0.2810 -0.7879
  388MOL0     H52325  -0.019   9.285   6.880 -1.5006  0.7903 -2.5870
  388MOL0     H52326   0.164   9.280   6.885  1.0278  2.5972  0.9909
  388MOL0     H52327   0.062   9.550   6.850 -2.7140 -2.8376 -1.3812
  388MOL0     H52328   0.217   9.485   6.883 -0.0567  1.9564  0.8525
  388MOL0     H52329  -0.031   9.511   7.048 -0.1659 -0.8323 -3.8748
  388MOL0     H52330   0.073   9.386   7.104  0.0381  1.4258  0.9905
  388MOL0     H52331   0.072   9.766   7.020 -1.2714 -1.5437 -0.0601
  388MOL0     H52332   0.159   9.964   7.127  1.0911 -1.1871 -1.6807
  388MOL0     H52333   0.125   9.948   7.307 -0.8866 -0.1716 -0.5713
  388MOL0     H52334   0.387   9.888   7.292  0.0271 -1.1206 -0.8165
  388MOL0     H52335   0.394   9.994   7.155  1.4087  3.0049  2.0328
  388MOL0     H52336   0.428  10.145   7.329 -1.7278  0.2373 -3.7062
  388MOL0     H52337   0.313  10.074   7.453 -0.4820  0.9337 -0.0827
  388MOL0     H52338   0.142  10.196   7.317  0.8635  2.8310  0.6248
  388MOL0     H52339   0.239  10.215   7.180  1.2507  0.3215 -0.0664
  388MOL0     H52340   0.079  10.427   7.191 -2.2450  1.7689 -0.5109
  388MOL0     H52341  -0.084  10.593   7.278 -1.8791 -1.3534  2.1345
  388MOL0     H52342  -0.183  10.763   7.840  2.3298  0.9904 -0.5129
  388MOL0     H52343  -0.362  10.902   7.940  1.1302  1.9245  0.9500
  388MOL0     H52344  -0.405  11.122   8.004 -0.7817  0.6047  0.1519
  388MOL0     H52345  -0.407  11.270   7.906 -0.9586  1.5134 -1.1312
  388MOL0     H52346  -0.646  11.131   8.009  1.4748 -0.6462 -2.0757
  388MOL0     H52347  -0.569  11.253   8.117  2.4891 -2.2184  0.8404
  388MOL0     H52348  -0.601  11.428   7.932  1.6592 -0.4540  1.9200
  388MOL0     H52349  -0.694  11.312   7.847  1.0798  0.5293  0.2290
  388MOL0     H52350  -0.834  11.294   8.035 -0.2137 -0.8029 -0.4368
  388MOL0     H52351  -0.850  11.440   7.940 -0.5289 -0.9753 -0.0471
  388MOL0     H52352  -0.871  11.531   8.142 -2.1595 -2.9553 -2.5232
  388MOL0     H52353  -0.717  11.580   8.102  2.0931  1.5416  3.8655
  388MOL0     H52354  -0.793  11.331   8.275  3.7335 -2.0491 -0.5946
  388MOL0     H52355  -0.627  11.396   8.265  1.0345  4.0159 -1.1031
  388MOL0     H52356  -0.846  11.569   8.372 -1.6892 -2.2279  1.3762
  388MOL0     H52357  -0.670  11.593   8.386  2.5055 -3.5962  1.9626
  388MOL0     H52358  -0.829  11.386   8.524 -2.3857  2.6447 -2.5546
  388MOL0     H52359  -0.646  11.395   8.495  0.5573  0.1979  2.0480
  388MOL0     H52360  -0.357  11.161   7.607 -0.1810  0.3680  0.0023
  388MOL0     H52361  -0.201  11.001   7.484  2.6541  0.7642  0.2435
  388MOL0     H52362   0.139  10.634   7.648  0.0875  2.6543 -2.2333
  388MOL0     H52363   0.288  10.459   7.583  0.8415 -1.0273 -3.1475
  388MOL0     H52364   0.194   9.266   5.974 -0.0440 -0.1740  2.6489
  388MOL0     H52365   0.211   9.119   5.770  1.8889  1.9974  0.0679
  388MOL0     H52366   0.157   8.652   5.728  0.7839  0.2076  0.6004
  388MOL0     H52367   0.078   8.485   5.581 -0.0261 -0.8380  0.1783
  388MOL0     H52368   0.016   8.297   5.389 -0.4462  0.7644 -3.3271
  388MOL0     H52369   0.171   8.266   5.479 -2.2293 -0.2922  0.8247
  388MOL0     H52370   0.261   8.158   5.286  0.2643  0.6343 -1.6502
  388MOL0     H52371   0.107   8.192   5.200 -0.3202  0.2181  1.1715
  388MOL0     H52372  -0.003   8.070   5.411 -0.0898  0.2529  0.4797
  388MOL0     H52373   0.161   8.018   5.435 -1.1400 -0.6253  0.1651
  388MOL0     H52374  -0.006   7.869   5.324 -0.9270 -0.4342 -2.0562
  388MOL0     H52375   0.012   7.974   5.181  0.4186 -2.3139 -2.9753
  388MOL0     H52376   0.346   7.737   5.140 -0.4245 -1.9111  2.0427
  388MOL0     H52377   0.408   8.548   5.318 -0.0424  1.0322 -0.7435
  388MOL0     H52378   0.607   8.654   5.532 -1.4799 -0.1359  1.1656
  388MOL0     H52379   0.576   8.727   5.367 -3.9556  1.3669 -1.3393
  388MOL0     H52380   0.545   8.826   5.504 -1.4791  0.7608 -4.1190
  389MOL0     O52381   2.714  10.563   1.063  0.2195  0.2105 -0.4333
  389MOL0     C52382   2.739  10.450   1.095 -0.7481  0.4465 -0.6372
  389MOL0     O52383   2.813  10.364   1.026  0.2663  0.4577 -0.3351
  389MOL0     C52384   2.871  10.412   0.911 -0.2232 -0.2641  0.0089
  389MOL0     C52385   2.983  10.497   0.920 -0.5095 -0.2599  0.2846
  389MOL0     C52386   3.042  10.538   0.792 -0.5912 -0.8336 -0.3534
  389MOL0     C52387   2.985  10.502   0.665 -0.0818 -0.7302 -1.3045
  389MOL0     O52388   3.050  10.561   0.559  0.8299  0.5751 -0.2814
  389MOL0     C52389   2.983  10.575   0.430  0.1881 -1.3661  0.3256
  389MOL0     C52390   3.070  10.672   0.334 -0.6296 -0.0856 -1.0821
  389MOL0     C52391   2.982  10.725   0.218  0.0329  0.6766  0.0743
  389MOL0     C52392   2.995  10.638   0.099  0.7236  0.8878  0.4715
  389MOL0     C52393   3.010  10.731  -0.029 -0.7750  0.0694  0.0194
  389MOL0     C52394   3.030  10.665  -0.170  0.3867 -0.4472 -0.2758
  389MOL0     C52395   3.078  10.522  -0.167 -0.2405  0.0347 -0.2481
  389MOL0     C52396   3.135  10.482  -0.296 -0.0932  0.4786 -0.4672
  389MOL0     N52397   3.029  10.479  -0.404 -0.2320  0.7501  0.1188
  389MOL0     C52398   3.005  10.578  -0.497 -0.4990  0.9523 -1.1251
  389MOL0     C52399   2.947  10.511  -0.597 -0.3562 -0.2115  0.6614
  389MOL0     C52400   2.893  10.585  -0.722  0.9240  0.0617 -0.0636
  389MOL0     C52401   2.773  10.683  -0.678  0.4771 -0.6054 -0.0489
  389MOL0     C52402   2.679  10.719  -0.789  0.4324  0.6129  0.5854
  389MOL0     C52403   2.725  10.818  -0.895 -0.1419 -1.0326  0.0166
  389MOL0     O52404   2.772  10.947  -0.842 -0.0577  1.2354  0.4499
  389MOL0     C52405   2.774  11.049  -0.925 -0.2821  0.6147  0.3524
  389MOL0     C52406   2.762  11.173  -0.866  1.2605 -1.1191  1.0897
  389MOL0     C52407   2.771  11.288  -0.943 -2.0540 -0.7483 -1.1436
  389MOL0     C52408   2.791  11.283  -1.080 -0.1777  0.5449  0.0296
  389MOL0     C52409   2.807  11.402  -1.162 -0.2376  0.5670  0.4721
  389MOL0     O52410   2.750  11.416  -1.287  0.4357 -0.0712 -0.2648
  389MOL0     C52411   2.817  11.489  -1.377 -0.5986 -0.3359 -0.0614
  389MOL0     C52412   2.936  11.452  -1.446 -0.3591  0.2203 -0.0520
  389MOL0     C52413   3.006  11.542  -1.525 -0.4476 -0.1500  0.1169
  389MOL0     C52414   2.955  11.667  -1.544 -0.2383 -0.5097  1.2929
  389MOL0     O52415   3.020  11.761  -1.623 -0.3542 -0.1136 -0.4125
  389MOL0     C52416   3.161  11.794  -1.582 -0.4678  0.4371  0.0570
  389MOL0     C52417   3.248  11.741  -1.701  0.1403  0.3960  0.2940
  389MOL0     C52418   3.210  11.800  -1.843 -0.4501 -0.0593  0.9461
  389MOL0     C52419   3.282  11.929  -1.880  0.4799 -1.2940 -0.9334
  389MOL0     C52420   3.207  12.057  -1.850  0.3812  0.4506 -0.8752
  389MOL0     C52421   3.300  12.171  -1.827  0.0610 -0.8697 -0.0806
  389MOL0     C52422   3.227  12.289  -1.776  0.4233  0.0077 -0.0543
  389MOL0     C52423   3.326  12.416  -1.764  0.2511  0.0366  0.0401
  389MOL0    Cl52424   3.375  12.469  -1.933 -0.4206  0.4494 -0.6562
  389MOL0     C52425   2.834  11.706  -1.485  0.7830 -0.4621 -0.0031
  389MOL0     C52426   2.773  11.623  -1.391  0.4966 -0.6994  0.1025
  389MOL0     O52427   2.863  11.490  -1.101 -0.6910 -0.0590  0.2927
  389MOL0     C52428   2.785  11.152  -1.137  0.4337 -0.4488  0.1120
  389MOL0     C52429   2.784  11.029  -1.061  0.0653 -0.1696 -0.4846
  389MOL0     N52430   2.935  10.378  -0.566  0.0902  0.3997  0.6175
  389MOL0     N52431   2.990  10.356  -0.445 -0.3586  0.8107 -0.3519
  389MOL0     C52432   2.878  10.420   0.658 -0.1526 -0.5006 -0.0477
  389MOL0     C52433   2.829  10.368   0.786  0.1882 -0.6299 -0.8934
  389MOL0     C52434   2.689  10.391   1.224 -0.6455  0.2283 -0.0682
  389MOL0     C52435   2.699  10.242   1.236  0.3805 -0.2839 -0.1133
  389MOL0     C52436   2.645  10.182   1.357 -0.0038  0.5186  1.1097
  389MOL0     C52437   2.576  10.254   1.454 -0.0328 -0.2531  1.1246
  389MOL0     O52438   2.527  10.201   1.566  0.3839 -0.2228 -0.7618
  389MOL0     C52439   2.394  10.238   1.630  0.6677  0.0350  1.3017
  389MOL0     C52440   2.275  10.165   1.561  0.2895 -1.1683 -0.3276
  389MOL0     C52441   2.136  10.194   1.628 -0.7947 -1.1626  0.4047
  389MOL0     C52442   2.021  10.107   1.564 -1.0066  0.0729 -0.0347
  389MOL0     C52443   1.927  10.072   1.662 -0.0979 -0.2967 -0.9285
  389MOL0     C52444   1.849  10.054   1.753 -0.6355  0.5481 -0.0427
  389MOL0     C52445   2.561  10.396   1.436  0.3860  0.9261 -0.4603
  389MOL0     C52446   2.622  10.465   1.329  0.4983 -0.2670  0.0140
  389MOL0     C52447   2.626  10.607   1.334  0.7489 -0.3930  0.2298
  389MOL0     H52448   3.016  10.536   1.016 -3.4042  0.9970  0.8557
  389MOL0     H52449   3.130  10.602   0.791 -1.5449  0.5469 -2.4125
  389MOL0     H52450   2.982  10.476   0.383 -1.0606 -0.7455 -1.0146
  389MOL0     H52451   2.878  10.603   0.448 -1.1236 -4.7806 -1.0752
  389MOL0     H52452   3.162  10.619   0.308  1.2524  2.1569  0.5897
  389MOL0     H52453   3.107  10.766   0.376 -3.3472  1.6809 -2.3150
  389MOL0     H52454   3.017  10.826   0.194  0.8584  0.1736 -0.8738
  389MOL0     H52455   2.876  10.728   0.246  0.0168  0.7156  0.0079
  389MOL0     H52456   3.091  10.587   0.111  0.1840  0.1317  1.8836
  389MOL0     H52457   2.914  10.566   0.083  0.1830  1.4855  0.4981
  389MOL0     H52458   2.916  10.785  -0.018 -0.9138 -0.5027  2.1256
  389MOL0     H52459   3.093  10.803  -0.026  1.3807 -2.2332 -0.4583
  389MOL0     H52460   2.925  10.652  -0.199  0.1644 -0.7657  0.6617
  389MOL0     H52461   3.081  10.736  -0.236  0.9922 -0.2102  0.4343
  389MOL0     H52462   2.998  10.451  -0.146  0.3554 -1.0064 -1.3812
  389MOL0     H52463   3.153  10.506  -0.088  0.3430  0.8687 -0.6234
  389MOL0     H52464   3.211  10.556  -0.323  1.1651  0.9260  3.6794
  389MOL0     H52465   3.172  10.379  -0.294 -0.0730  0.4697  2.6555
  389MOL0     H52466   3.042  10.680  -0.494  0.5601  0.6205  2.9399
  389MOL0     H52467   2.978  10.638  -0.766 -0.2253  0.1578 -2.2900
  389MOL0     H52468   2.847  10.503  -0.776 -0.1405  1.3747 -1.2303
  389MOL0     H52469   2.731  10.624  -0.597  1.1739 -0.6200  0.3080
  389MOL0     H52470   2.819  10.779  -0.654 -0.6933  0.5345 -2.0268
  389MOL0     H52471   2.588  10.762  -0.746 -0.4845  0.4212 -1.0786
  389MOL0     H52472   2.652  10.622  -0.832  1.0385  0.1912  1.1492
  389MOL0     H52473   2.635  10.841  -0.953 -3.3498 -3.1047  3.7209
  389MOL0     H52474   2.799  10.764  -0.954 -1.2088  0.7344 -3.1628
  389MOL0     H52475   2.743  11.182  -0.760 -2.6598 -2.4952  0.6640
  389MOL0     H52476   2.771  11.388  -0.901  0.5889 -1.0355 -0.2570
  389MOL0     H52477   2.984  11.356  -1.428 -0.1689  0.8201  3.1487
  389MOL0     H52478   3.100  11.512  -1.570 -1.3469 -1.8493 -0.7241
  389MOL0     H52479   3.188  11.898  -1.561  1.3689  0.2683 -1.1919
  389MOL0     H52480   3.182  11.729  -1.497 -2.9205  0.2291  0.5714
  389MOL0     H52481   3.352  11.759  -1.670 -0.3977  0.7837  1.9903
  389MOL0     H52482   3.238  11.633  -1.704 -0.3701  0.4309  0.6013
  389MOL0     H52483   3.242  11.735  -1.925  2.5658  4.4528 -1.9553
  389MOL0     H52484   3.101  11.804  -1.849 -0.3946  0.1353 -0.4078
  389MOL0     H52485   3.293  11.933  -1.989  0.5991 -0.8677 -0.9061
  389MOL0     H52486   3.384  11.929  -1.842 -0.2426  0.5068  1.2389
  389MOL0     H52487   3.152  12.051  -1.755  0.8970 -0.3105 -0.6190
  389MOL0     H52488   3.140  12.079  -1.934  1.4455  1.7061 -1.4283
  389MOL0     H52489   3.377  12.144  -1.754  0.7820 -3.0096 -1.5428
  389MOL0     H52490   3.352  12.198  -1.919  3.2192 -0.7010  1.5999
  389MOL0     H52491   3.195  12.273  -1.672  4.6330 -1.1922  1.2379
  389MOL0     H52492   3.137  12.331  -1.824  1.1668  2.8883  0.8385
  389MOL0     H52493   3.269  12.496  -1.717  2.2408  1.7046 -0.2373
  389MOL0     H52494   3.410  12.389  -1.700 -1.7701 -2.6152  1.8002
  389MOL0     H52495   2.800  11.808  -1.500 -1.3119 -1.4670 -2.9125
  389MOL0     H52496   2.684  11.648  -1.333 -1.5780 -1.5929 -2.4990
  389MOL0     H52497   2.804  11.124  -1.241 -0.7546 -0.1991 -0.1886
  389MOL0     H52498   2.801  10.930  -1.101  1.5077  0.1571 -0.7397
  389MOL0     H52499   2.827  10.394   0.566  0.0193 -1.8041  0.2063
  389MOL0     H52500   2.748  10.299   0.766  0.0432 -1.4258  1.9955
  389MOL0     H52501   2.756  10.182   1.165 -0.7760  0.8613 -2.1000
  389MOL0     H52502   2.643  10.075   1.376  2.5219  0.4883  1.5804
  389MOL0     H52503   2.372  10.345   1.634  0.4410 -0.0256  1.8067
  389MOL0     H52504   2.405  10.220   1.738  1.7186 -1.7681  0.9442
  389MOL0     H52505   2.310  10.062   1.576  1.5057 -1.1289 -2.3989
  389MOL0     H52506   2.276  10.194   1.455  0.2421  0.8398  0.1777
  389MOL0     H52507   2.111  10.299   1.607  2.1581 -1.0325 -3.5453
  389MOL0     H52508   2.142  10.174   1.735 -1.0152 -3.9350 -0.0368
  389MOL0     H52509   1.958  10.158   1.491 -4.2718 -2.0824  1.0359
  389MOL0     H52510   2.065  10.016   1.522 -0.3313  1.1672 -1.7944
  389MOL0     H52511   1.791  10.063   1.843  0.4709  3.5540  0.5001
  389MOL0     H52512   2.522  10.461   1.514  1.9911  0.6045  0.6530
  389MOL0     H52513   2.552  10.632   1.257  2.4557 -0.3894 -1.4792
  389MOL0     H52514   2.604  10.652   1.431 -2.8346  1.0620 -1.1084
  389MOL0     H52515   2.727  10.635   1.302  0.8959 -0.2957  0.7634
  390MOL0     O52516   4.270   1.980   4.465  0.1419 -0.2724  1.0477
  390MOL0     C52517   4.340   1.910   4.388  0.8967 -0.1919 -0.2346
  390MOL0     O52518   4.324   1.898   4.262 -0.2800 -0.3968  0.5231
  390MOL0     C52519   4.286   1.998   4.171  0.7389  0.4376  0.1405
  390MOL0     C52520   4.298   1.972   4.035 -0.6337  0.1506 -0.0110
  390MOL0     C52521   4.237   2.049   3.939 -0.6556 -0.2651 -0.3914
  390MOL0     C52522   4.179   2.176   3.970 -0.4747 -0.4767 -0.3367
  390MOL0     O52523   4.121   2.254   3.870  0.6947 -0.0422  0.0311
  390MOL0     C52524   4.005   2.333   3.907 -0.6842  0.0257 -0.8308
  390MOL0     C52525   3.956   2.411   3.786 -1.7641  0.5493 -0.0510
  390MOL0     C52526   3.857   2.510   3.819  0.5953 -0.4230 -0.4576
  390MOL0     C52527   3.757   2.532   3.708  0.4507 -0.8740  0.1490
  390MOL0     C52528   3.664   2.647   3.719 -1.1149  0.4170  0.1033
  390MOL0     C52529   3.594   2.684   3.593 -0.4908 -0.1957 -0.0425
  390MOL0     C52530   3.460   2.772   3.583 -0.2772 -0.3878 -0.3395
  390MOL0     C52531   3.349   2.703   3.654  0.6243  0.4445  0.5078
  390MOL0     N52532   3.225   2.697   3.569 -0.9946  0.7538 -0.5066
  390MOL0     C52533   3.214   2.652   3.443 -0.4861  0.0077 -0.4324
  390MOL0     C52534   3.079   2.667   3.427 -0.0420 -0.1540  0.4924
  390MOL0     C52535   3.015   2.665   3.285 -0.0886 -0.0407  0.5051
  390MOL0     C52536   3.042   2.809   3.218  0.9083 -0.2347 -1.2542
  390MOL0     C52537   2.956   2.914   3.287  0.8559 -0.1677  0.3971
  390MOL0     C52538   3.023   3.039   3.344  0.8102  1.0377 -0.0291
  390MOL0     O52539   2.925   3.143   3.381  0.3890 -0.3337 -0.3958
  390MOL0     C52540   2.896   3.149   3.518  1.2990  0.3539  0.3632
  390MOL0     C52541   2.892   3.044   3.612 -0.0525 -0.7097  0.6880
  390MOL0     C52542   2.845   3.066   3.735  0.2513  0.3315 -0.9959
  390MOL0     C52543   2.801   3.185   3.789  1.2240  0.5933  0.3973
  390MOL0     C52544   2.751   3.198   3.922 -0.1733 -0.1076  0.4668
  390MOL0     O52545   2.756   3.320   3.976  0.0758  0.0350 -0.5811
  390MOL0     C52546   2.689   3.372   4.085 -0.8966  0.2037 -0.2857
  390MOL0     C52547   2.635   3.499   4.086 -0.5096 -0.0716 -0.5002
  390MOL0     C52548   2.598   3.562   4.206  0.7514  0.1183  0.0851
  390MOL0     C52549   2.598   3.500   4.333 -0.6884  0.5348  0.0179
  390MOL0     O52550   2.555   3.567   4.452 -0.7734 -0.0711  0.2723
  390MOL0     C52551   2.588   3.707   4.471  0.3337 -0.3910 -0.2001
  390MOL0     C52552   2.488   3.765   4.577  0.1408  0.6146 -1.1596
  390MOL0     C52553   2.519   3.916   4.603  0.1662  0.8043 -0.6653
  390MOL0     C52554   2.662   3.933   4.660  0.1198 -0.9922  0.6756
  390MOL0     C52555   2.667   4.054   4.755 -0.8042  0.0839  0.7060
  390MOL0     C52556   2.820   4.105   4.767  0.3127  0.8110  0.2681
  390MOL0     C52557   2.821   4.190   4.896 -0.0714  0.0288 -0.1711
  390MOL0     C52558   2.760   4.324   4.868 -0.8462  0.3780  0.1426
  390MOL0    Cl52559   2.759   4.437   5.009  0.0446  0.0904 -0.5120
  390MOL0     C52560   2.660   3.375   4.335  0.0356  0.2734  0.7939
  390MOL0     C52561   2.692   3.311   4.211 -0.0765  0.0258 -0.3004
  390MOL0     O52562   2.708   3.093   3.974 -0.0246 -0.7298 -0.3078
  390MOL0     C52563   2.822   3.289   3.699  0.2820 -0.0947  0.6117
  390MOL0     C52564   2.879   3.275   3.569  0.5122 -0.1080  0.1550
  390MOL0     N52565   3.015   2.701   3.544 -0.4587  0.3168  0.0085
  390MOL0     N52566   3.104   2.700   3.629  0.7378 -0.3891  0.5529
  390MOL0     C52567   4.180   2.203   4.106  1.0147  0.0688  0.0959
  390MOL0     C52568   4.227   2.116   4.212 -0.4583  0.7039  0.2375
  390MOL0     C52569   4.442   1.820   4.449 -0.3981 -0.5578 -0.4980
  390MOL0     C52570   4.560   1.806   4.376 -0.5934 -0.7088 -0.8907
  390MOL0     C52571   4.659   1.714   4.409 -0.2943  0.7401 -0.1083
  390MOL0     C52572   4.658   1.654   4.541  0.6216  0.1232  0.0594
  390MOL0     O52573   4.757   1.574   4.601 -1.1593  0.4209 -0.7204
  390MOL0     C52574   4.846   1.506   4.513 -0.3369 -0.1650 -0.0988
  390MOL0     C52575   4.912   1.387   4.596  0.9307 -0.4482  0.3385
  390MOL0     C52576   5.001   1.301   4.508 -0.0560 -0.1238  1.1128
  390MOL0     C52577   5.093   1.214   4.597 -0.1186  0.1067  0.2527
  390MOL0     C52578   5.148   1.101   4.521  0.0644 -0.8391  0.3125
  390MOL0     C52579   5.186   1.009   4.448  0.4223 -0.0179 -0.2687
  390MOL0     C52580   4.540   1.674   4.620  0.8129 -0.2768  0.4515
  390MOL0     C52581   4.431   1.756   4.574 -0.8604  1.3897  0.2948
  390MOL0     C52582   4.327   1.774   4.678  0.0165  0.2060 -0.2837
  390MOL0     H52583   4.342   1.877   4.004 -0.9106  0.7236 -2.3302
  390MOL0     H52584   4.240   2.007   3.839 -0.7980 -1.1870 -0.0161
  390MOL0     H52585   3.928   2.268   3.949  1.1352 -1.4023  0.4093
  390MOL0     H52586   4.045   2.406   3.978 -0.3008 -2.5423  1.7278
  390MOL0     H52587   3.903   2.339   3.723  3.4641 -1.8500 -2.2620
  390MOL0     H52588   4.037   2.460   3.731 -3.0616  2.8231 -0.0515
  390MOL0     H52589   3.907   2.606   3.836  0.2027 -0.8566  4.4467
  390MOL0     H52590   3.797   2.472   3.902 -0.5232 -1.5576 -1.7291
  390MOL0     H52591   3.807   2.539   3.611  1.6938  2.7512  0.8986
  390MOL0     H52592   3.687   2.448   3.719 -1.5271  0.9956  4.5062
  390MOL0     H52593   3.595   2.626   3.802 -4.9308  1.7476 -2.4252
  390MOL0     H52594   3.733   2.728   3.744  0.6741 -0.9625 -0.1615
  390MOL0     H52595   3.668   2.723   3.522  1.2337 -0.3737  1.5653
  390MOL0     H52596   3.568   2.586   3.554 -1.9294 -0.1547  0.7630
  390MOL0     H52597   3.450   2.787   3.475 -1.3913 -2.1523 -0.5274
  390MOL0     H52598   3.479   2.863   3.641  0.3008 -1.0644  0.5516
  390MOL0     H52599   3.390   2.604   3.677  3.0112  0.9583 -1.2072
  390MOL0     H52600   3.331   2.755   3.748  3.1278  2.3211  0.0621
  390MOL0     H52601   3.290   2.632   3.368  0.2842  1.5654 -0.1098
  390MOL0     H52602   3.078   2.591   3.234 -1.5393 -0.4081 -0.8327
  390MOL0     H52603   2.913   2.628   3.275  0.0709 -0.0496 -1.5106
  390MOL0     H52604   3.147   2.833   3.199  1.0829 -1.3466 -1.7254
  390MOL0     H52605   2.988   2.792   3.125 -1.6269 -0.4856  0.1790
  390MOL0     H52606   2.905   2.866   3.371 -0.1325 -3.6750 -2.0086
  390MOL0     H52607   2.885   2.946   3.210  0.6078 -3.3209 -0.8294
  390MOL0     H52608   3.087   3.084   3.268 -3.7270  0.4119 -4.7929
  390MOL0     H52609   3.076   2.998   3.430 -1.8817  1.7888  2.1477
  390MOL0     H52610   2.923   2.940   3.602 -0.4009 -0.6926 -0.9112
  390MOL0     H52611   2.851   2.979   3.800  1.6237  1.7228  0.8875
  390MOL0     H52612   2.624   3.549   3.990  4.8156  3.3198  0.2383
  390MOL0     H52613   2.556   3.660   4.185  0.3979 -0.4910 -2.2849
  390MOL0     H52614   2.687   3.714   4.519 -0.5978 -1.0855  1.9517
  390MOL0     H52615   2.586   3.766   4.380 -1.5694 -2.3282 -1.5036
  390MOL0     H52616   2.385   3.765   4.538 -1.1458  1.3286  1.9617
  390MOL0     H52617   2.496   3.697   4.662  0.2456 -0.1642 -1.7789
  390MOL0     H52618   2.494   3.969   4.511  1.2224  0.2509 -1.2881
  390MOL0     H52619   2.454   3.948   4.685  2.0478  0.9709  0.8275
  390MOL0     H52620   2.728   3.952   4.575 -2.8460  0.5574 -1.4853
  390MOL0     H52621   2.695   3.844   4.713 -1.0542 -3.7765 -2.8443
  390MOL0     H52622   2.632   4.019   4.853  6.1438 -5.4096  1.9910
  390MOL0     H52623   2.602   4.138   4.727 -0.3618 -0.3829 -1.9195
  390MOL0     H52624   2.878   4.012   4.774  0.0538  0.4775 -1.5007
  390MOL0     H52625   2.855   4.155   4.676  0.3415  1.4449  0.6214
  390MOL0     H52626   2.927   4.209   4.917  0.0632 -0.6638 -0.2078
  390MOL0     H52627   2.779   4.143   4.985 -3.0018 -1.3263 -2.1296
  390MOL0     H52628   2.815   4.370   4.785  0.5736 -0.7336  0.4226
  390MOL0     H52629   2.655   4.322   4.838 -0.9315  1.7645  0.3074
  390MOL0     H52630   2.685   3.327   4.429  0.2882  0.4932  0.8399
  390MOL0     H52631   2.738   3.213   4.219  1.8801  0.6159 -2.8433
  390MOL0     H52632   2.796   3.391   3.726 -3.0375 -0.4262 -0.7740
  390MOL0     H52633   2.905   3.359   3.505  1.6461 -1.1441 -0.8067
  390MOL0     H52634   4.138   2.298   4.135 -1.8211 -0.9497 -0.2987
  390MOL0     H52635   4.247   2.157   4.310 -1.2064 -0.8841  1.0861
  390MOL0     H52636   4.578   1.860   4.283  3.5436 -2.4489 -1.3441
  390MOL0     H52637   4.738   1.696   4.337  0.7048  3.8769  0.0608
  390MOL0     H52638   4.927   1.572   4.483 -0.2275 -0.5678 -0.7042
  390MOL0     H52639   4.784   1.474   4.429 -1.4448 -1.0940  1.0415
  390MOL0     H52640   4.836   1.330   4.652 -2.5101  3.0465 -0.3719
  390MOL0     H52641   4.968   1.437   4.675 -0.8392 -3.2911  3.7140
  390MOL0     H52642   5.072   1.363   4.452 -1.6478 -0.1056 -0.9947
  390MOL0     H52643   4.960   1.240   4.427  4.2315 -2.0139  0.0856
  390MOL0     H52644   5.170   1.287   4.621 -0.0165  1.8849 -4.4594
  390MOL0     H52645   5.040   1.166   4.680 -0.7482 -0.9065 -0.7074
  390MOL0     H52646   5.206   0.935   4.373  1.8097  2.3175 -2.3715
  390MOL0     H52647   4.568   1.624   4.712  2.4648 -0.6613 -0.2136
  390MOL0     H52648   4.342   1.844   4.760  0.9612  1.5289 -1.5349
  390MOL0     H52649   4.228   1.802   4.639 -1.8990 -3.0650  1.7689
  390MOL0     H52650   4.313   1.675   4.723 -0.1453 -1.1099 -3.0190
  391MOL0     O52651   2.677   0.113   0.134 -0.5374  0.0728  0.3517
  391MOL0     C52652   2.736   0.008   0.158 -0.1608 -0.2326 -0.1903
  391MOL0     O52653   2.778  -0.086   0.069 -0.2373  0.5215 -0.7183
  391MOL0     C52654   2.780  -0.040  -0.060  0.3287 -0.6267 -1.5089
  391MOL0     C52655   2.863   0.060  -0.103  0.5293 -0.1514 -0.7853
  391MOL0     C52656   2.848   0.095  -0.237  0.3147 -0.4561  0.6615
  391MOL0     C52657   2.746   0.056  -0.328  0.6705 -0.1862 -0.2948
  391MOL0     O52658   2.719   0.098  -0.456  0.4808 -0.3284  0.7744
  391MOL0     C52659   2.818   0.177  -0.522  0.9878  0.1592 -0.3250
  391MOL0     C52660   2.785   0.232  -0.656  0.4409 -0.8725 -0.3745
  391MOL0     C52661   2.895   0.241  -0.759 -0.6942 -0.1866 -0.3003
  391MOL0     C52662   2.847   0.324  -0.873 -0.1139 -0.0255 -1.0736
  391MOL0     C52663   2.720   0.259  -0.936 -0.5936 -0.6868  0.5842
  391MOL0     C52664   2.706   0.309  -1.087  0.0295 -0.1053  0.4071
  391MOL0     C52665   2.720   0.466  -1.113  0.6999  0.4856 -1.2199
  391MOL0     C52666   2.846   0.518  -1.169  0.2600 -1.0195  0.1198
  391MOL0     N52667   2.833   0.671  -1.170  0.6469 -0.3894 -0.6348
  391MOL0     C52668   2.820   0.753  -1.057  0.9507  0.0346  0.3976
  391MOL0     C52669   2.818   0.881  -1.107  0.4638  0.4614 -0.4086
  391MOL0     C52670   2.811   1.012  -1.030  0.0528  0.1691 -0.1820
  391MOL0     C52671   2.669   1.061  -1.003 -0.4057  0.1545 -1.4050
  391MOL0     C52672   2.592   0.967  -0.910 -0.1903  0.2951 -0.7600
  391MOL0     C52673   2.457   1.035  -0.864 -0.1303  0.3259 -0.1383
  391MOL0     O52674   2.373   0.962  -0.773  0.2252 -0.2482 -0.2417
  391MOL0     C52675   2.326   0.840  -0.809  0.3278 -0.0983  1.1987
  391MOL0     C52676   2.312   0.744  -0.714 -0.0066  0.8903 -1.4616
  391MOL0     C52677   2.301   0.611  -0.742 -0.3042  1.6796  0.1703
  391MOL0     C52678   2.309   0.565  -0.871  0.5911  0.2095 -0.4140
  391MOL0     C52679   2.322   0.415  -0.891 -0.1056  0.0404  0.4889
  391MOL0     O52680   2.337   0.332  -0.781 -0.2150  0.1882 -0.5247
  391MOL0     C52681   2.368   0.193  -0.789 -0.6905  0.1526 -0.2591
  391MOL0     C52682   2.394   0.137  -0.659 -0.3260 -1.0370  0.5239
  391MOL0     C52683   2.423   0.003  -0.641 -0.2791 -0.1821  0.2846
  391MOL0     C52684   2.417  -0.086  -0.753 -0.2037 -0.5457 -0.1045
  391MOL0     O52685   2.441  -0.225  -0.726  0.9329 -0.1226  0.1667
  391MOL0     C52686   2.421  -0.311  -0.834  0.3815 -0.4245 -0.2441
  391MOL0     C52687   2.279  -0.362  -0.859  0.1434  0.6952 -0.4596
  391MOL0     C52688   2.232  -0.427  -0.729  0.0262  0.4313  0.4541
  391MOL0     C52689   2.080  -0.465  -0.743 -0.5985  0.0522 -0.6585
  391MOL0     C52690   2.044  -0.562  -0.638 -0.8000 -0.2439  0.9560
  391MOL0     C52691   1.896  -0.587  -0.653 -1.4809 -0.6627  0.4736
  391MOL0     C52692   1.856  -0.674  -0.533  0.3248  0.7100  0.7511
  391MOL0     C52693   1.703  -0.690  -0.522 -0.0583  0.4082  0.3349
  391MOL0    Cl52694   1.641  -0.795  -0.649  0.2123  0.3046 -0.1397
  391MOL0     C52695   2.392  -0.024  -0.883  0.6464  0.5786  0.3233
  391MOL0     C52696   2.366   0.112  -0.898 -0.1323 -0.6820 -0.3344
  391MOL0     O52697   2.319   0.379  -1.013 -0.3325 -0.2610 -0.5542
  391MOL0     C52698   2.315   0.655  -0.976 -0.0395  0.9059  1.1854
  391MOL0     C52699   2.320   0.793  -0.944 -0.5522  0.6013  0.3621
  391MOL0     N52700   2.844   0.876  -1.242 -0.3979 -0.2330  0.2716
  391MOL0     N52701   2.849   0.750  -1.277  0.7229  0.1665 -1.0812
  391MOL0     C52702   2.664  -0.045  -0.274 -0.2945 -0.5127 -0.1127
  391MOL0     C52703   2.689  -0.100  -0.144  0.5103  0.2420 -0.1855
  391MOL0     C52704   2.756  -0.036   0.305  0.1907  0.2218 -0.2149
  391MOL0     C52705   2.780  -0.179   0.328  0.3338 -0.0402 -0.1083
  391MOL0     C52706   2.789  -0.225   0.459 -0.7936  0.2381 -0.2901
  391MOL0     C52707   2.777  -0.135   0.570 -0.3635  0.2766  0.2838
  391MOL0     O52708   2.792  -0.187   0.694 -1.3942  0.0673  0.6121
  391MOL0     C52709   2.897  -0.142   0.778  0.2510 -0.4757  0.0515
  391MOL0     C52710   2.954  -0.240   0.885 -0.4314  1.3347  0.5726
  391MOL0     C52711   3.004  -0.388   0.835 -0.4590  0.1097 -0.7456
  391MOL0     C52712   3.130  -0.377   0.753 -0.1507 -0.0760  0.1932
  391MOL0     C52713   3.159  -0.500   0.693 -0.2533  0.5394  0.8171
  391MOL0     C52714   3.192  -0.588   0.620 -0.6286  0.0643 -0.0656
  391MOL0     C52715   2.746  -0.007   0.541 -0.4018  0.1561 -0.1646
  391MOL0     C52716   2.738   0.050   0.418 -0.0345 -0.3459 -0.4049
  391MOL0     C52717   2.707   0.206   0.406 -0.4718  0.1170  0.3095
  391MOL0     H52718   2.949   0.099  -0.050  0.7784 -0.2406 -1.1256
  391MOL0     H52719   2.913   0.173  -0.276  0.6218 -1.5685 -1.1773
  391MOL0     H52720   2.850   0.263  -0.463  1.1631  0.1004 -0.3365
  391MOL0     H52721   2.898   0.107  -0.543  3.6318  3.5643 -2.7234
  391MOL0     H52722   2.727   0.324  -0.646 -1.1415 -1.9964  1.2092
  391MOL0     H52723   2.711   0.164  -0.701 -0.7462  1.6372 -2.4814
  391MOL0     H52724   2.920   0.145  -0.805 -0.5178  0.3588 -1.3999
  391MOL0     H52725   2.986   0.289  -0.722  1.5051 -2.5302 -2.2904
  391MOL0     H52726   2.816   0.420  -0.829  3.6166 -0.3168  2.7724
  391MOL0     H52727   2.929   0.343  -0.943 -1.5383 -2.8095 -3.7118
  391MOL0     H52728   2.728   0.151  -0.927  0.0959 -0.8083 -1.1085
  391MOL0     H52729   2.637   0.294  -0.874  0.9667  0.3691  2.1632
  391MOL0     H52730   2.779   0.256  -1.149 -0.2899 -0.6143  0.4549
  391MOL0     H52731   2.611   0.264  -1.119  0.7299 -1.7621  0.5651
  391MOL0     H52732   2.693   0.523  -1.024  0.9739 -0.9917 -0.1475
  391MOL0     H52733   2.634   0.486  -1.178 -0.5634  1.5591  0.7047
  391MOL0     H52734   2.926   0.498  -1.097 -1.0151 -2.0956  1.2951
  391MOL0     H52735   2.883   0.481  -1.265  0.6050  0.5558 -0.3821
  391MOL0     H52736   2.811   0.709  -0.958  1.7595 -2.8908 -0.7107
  391MOL0     H52737   2.858   0.998  -0.933  0.6088 -0.0171 -0.4717
  391MOL0     H52738   2.862   1.096  -1.078  0.0035 -0.1192 -0.7453
  391MOL0     H52739   2.667   1.159  -0.953 -3.0498  0.2720 -1.5732
  391MOL0     H52740   2.622   1.088  -1.098 -1.7449  3.7384  0.0677
  391MOL0     H52741   2.657   0.936  -0.828  0.0387  0.9533 -0.6824
  391MOL0     H52742   2.577   0.870  -0.957  2.7514  0.5819 -2.5250
  391MOL0     H52743   2.405   1.073  -0.953 -1.9796  0.8897  1.1431
  391MOL0     H52744   2.474   1.127  -0.807 -3.2505 -0.1361  1.7400
  391MOL0     H52745   2.314   0.765  -0.607 -4.7372 -0.0714 -0.9413
  391MOL0     H52746   2.316   0.541  -0.660  1.0549 -4.6099 -4.5919
  391MOL0     H52747   2.402   0.195  -0.567  0.3020 -2.8405  1.6673
  391MOL0     H52748   2.474  -0.050  -0.561  2.1056 -0.5964 -1.3979
  391MOL0     H52749   2.459  -0.281  -0.932  1.0116  0.1503  0.1666
  391MOL0     H52750   2.476  -0.403  -0.810  0.3620 -0.9915 -2.1852
  391MOL0     H52751   2.206  -0.289  -0.893  0.0461 -0.4358 -2.8859
  391MOL0     H52752   2.282  -0.437  -0.939  0.8045  1.8791 -1.5831
  391MOL0     H52753   2.295  -0.514  -0.707  2.5971  2.0007 -0.2792
  391MOL0     H52754   2.266  -0.373  -0.640  2.6290 -2.8366  1.7014
  391MOL0     H52755   2.064  -0.510  -0.841 -0.6567  1.5295 -1.3390
  391MOL0     H52756   2.026  -0.370  -0.733  2.4478  2.6075 -5.1088
  391MOL0     H52757   2.068  -0.517  -0.542 -2.0050  0.1113  1.1046
  391MOL0     H52758   2.101  -0.655  -0.650  1.7254  1.3812 -0.3817
  391MOL0     H52759   1.852  -0.487  -0.656 -0.1529 -0.0504 -2.3797
  391MOL0     H52760   1.877  -0.639  -0.748 -0.3809  0.6809 -0.5125
  391MOL0     H52761   1.898  -0.633  -0.441  0.0448 -0.4739  1.4279
  391MOL0     H52762   1.906  -0.768  -0.558 -0.6898  0.3179  0.0912
  391MOL0     H52763   1.690  -0.743  -0.427  2.3861 -2.3359 -0.6818
  391MOL0     H52764   1.648  -0.596  -0.533 -2.0918 -0.6949  0.6368
  391MOL0     H52765   2.390  -0.084  -0.973  0.1443  0.0120  0.7130
  391MOL0     H52766   2.365   0.152  -0.998 -0.4789 -0.6743 -0.3304
  391MOL0     H52767   2.318   0.636  -1.083 -1.8500  1.8699  0.9145
  391MOL0     H52768   2.327   0.859  -1.029 -1.0059  1.8678  1.2798
  391MOL0     H52769   2.574  -0.091  -0.316 -0.4078  0.9357 -1.5543
  391MOL0     H52770   2.611  -0.167  -0.109  1.0582 -1.0004 -1.2810
  391MOL0     H52771   2.782  -0.238   0.237  1.3916 -0.6658  0.2859
  391MOL0     H52772   2.800  -0.333   0.461 -2.4216  0.0614  1.4474
  391MOL0     H52773   2.858  -0.052   0.825  1.3195 -0.0398  0.1272
  391MOL0     H52774   2.985  -0.100   0.729  0.7442 -1.1050  0.3856
  391MOL0     H52775   2.874  -0.261   0.957 -1.6428  0.8606 -0.8528
  391MOL0     H52776   3.041  -0.192   0.930  0.2088 -0.2280  1.0860
  391MOL0     H52777   2.925  -0.436   0.776  0.6935 -2.6391 -0.1965
  391MOL0     H52778   3.030  -0.457   0.916  2.7915  2.0926  0.0694
  391MOL0     H52779   3.117  -0.303   0.673  1.3682 -1.8795 -1.8634
  391MOL0     H52780   3.218  -0.354   0.814 -0.0296  2.7433 -0.8879
  391MOL0     H52781   3.197  -0.667   0.548 -1.4589  0.3968 -0.5051
  391MOL0     H52782   2.736   0.043   0.637 -0.4564 -1.2678  0.5952
  391MOL0     H52783   2.625   0.221   0.335  0.4789 -1.5347 -1.2229
  391MOL0     H52784   2.691   0.261   0.499 -1.6439  1.5592 -0.7153
  391MOL0     H52785   2.797   0.257   0.371 -0.3173 -0.0930  0.3938
  392MOL0     O52786   5.326   7.359   6.376 -1.3374 -0.6033  0.8318
  392MOL0     C52787   5.261   7.262   6.396  0.5317  0.3645  0.7287
  392MOL0     O52788   5.305   7.137   6.371  0.0137 -0.7883  0.6685
  392MOL0     C52789   5.431   7.125   6.322  0.0755 -0.3297 -0.9124
  392MOL0     C52790   5.537   7.092   6.406 -0.0581  0.0633 -0.1155
  392MOL0     C52791   5.665   7.046   6.358  0.5658 -0.3694 -0.3007
  392MOL0     C52792   5.686   7.059   6.217 -0.6103 -0.7155 -0.7161
  392MOL0     O52793   5.801   7.031   6.149 -0.0021  0.4148  0.1005
  392MOL0     C52794   5.887   6.934   6.217 -0.3143 -0.1032 -0.3776
  392MOL0     C52795   6.007   6.896   6.115  0.3438  0.3114 -0.5609
  392MOL0     C52796   6.125   6.987   6.135  0.7212  0.3251  0.2445
  392MOL0     C52797   6.116   7.115   6.045 -0.4122 -0.2409  0.2368
  392MOL0     C52798   6.221   7.213   6.093  0.6880  0.2180 -0.8091
  392MOL0     C52799   6.191   7.273   6.238 -0.2782  1.0178  0.2584
  392MOL0     C52800   6.321   7.276   6.331 -0.3391 -0.1463 -1.2052
  392MOL0     C52801   6.373   7.130   6.371 -0.0836  0.0570 -1.5496
  392MOL0     N52802   6.494   7.120   6.456 -0.5755 -0.4817 -0.1566
  392MOL0     C52803   6.517   7.180   6.576 -1.3289  0.0998  0.4349
  392MOL0     C52804   6.621   7.111   6.621 -0.7783 -0.5888 -0.4533
  392MOL0     C52805   6.682   7.138   6.757 -0.6410 -0.8248 -1.2733
  392MOL0     C52806   6.793   7.246   6.745 -1.0590 -1.2004 -0.2879
  392MOL0     C52807   6.936   7.198   6.790  0.2624 -0.5204 -0.4877
  392MOL0     C52808   6.985   7.078   6.717  1.2017 -0.0194  0.8524
  392MOL0     O52809   7.121   7.068   6.730 -0.3966 -0.1144 -0.6613
  392MOL0     C52810   7.187   6.978   6.655 -0.3479  0.4842  1.0600
  392MOL0     C52811   7.130   6.885   6.568 -0.0086 -0.0628  0.7616
  392MOL0     C52812   7.208   6.801   6.485 -0.2168  0.3049 -0.3156
  392MOL0     C52813   7.349   6.800   6.491 -0.3519  0.1418 -0.6538
  392MOL0     C52814   7.426   6.707   6.405  0.2444 -0.7797 -0.0997
  392MOL0     O52815   7.356   6.656   6.294  0.1670  0.0790  0.4242
  392MOL0     C52816   7.431   6.572   6.228 -0.8161 -0.1264  0.3442
  392MOL0     C52817   7.493   6.623   6.111 -0.5449  0.2121 -0.6562
  392MOL0     C52818   7.571   6.535   6.022  0.3716 -0.2183 -0.1226
  392MOL0     C52819   7.585   6.407   6.064 -0.1252  0.0144 -0.5332
  392MOL0     O52820   7.653   6.331   5.978  0.6635  0.6420  0.2970
  392MOL0     C52821   7.575   6.303   5.858 -0.4098  0.4495 -0.8189
  392MOL0     C52822   7.678   6.261   5.738 -0.5049 -1.4260 -1.0479
  392MOL0     C52823   7.733   6.132   5.765  0.2768  0.7979 -0.4763
  392MOL0     C52824   7.880   6.103   5.709 -0.1741  0.0129 -0.0636
  392MOL0     C52825   7.912   5.960   5.697  0.6724  0.2868 -0.1975
  392MOL0     C52826   8.055   5.944   5.647  0.7689  0.4893 -0.4200
  392MOL0     C52827   8.113   5.807   5.705  0.2223  0.1601  1.1178
  392MOL0     C52828   8.199   5.722   5.614  0.2932  0.1469 -0.3464
  392MOL0    Cl52829   8.091   5.645   5.492 -0.2010  0.2762 -0.4120
  392MOL0     C52830   7.509   6.352   6.176 -0.1152  1.1259  1.1386
  392MOL0     C52831   7.432   6.440   6.255 -0.1902 -0.4962  0.4082
  392MOL0     O52832   7.543   6.684   6.446 -0.0275 -0.8492 -0.0045
  392MOL0     C52833   7.404   6.878   6.601  0.1861  0.1857  0.2696
  392MOL0     C52834   7.319   6.961   6.673 -0.6518  0.2835  0.4369
  392MOL0     N52835   6.662   7.013   6.540 -0.0925  0.2591  0.1691
  392MOL0     N52836   6.585   7.023   6.438 -0.0080  0.1509 -0.3118
  392MOL0     C52837   5.584   7.109   6.129 -0.6060 -0.7598 -0.5650
  392MOL0     C52838   5.459   7.145   6.185  0.9912 -0.5970 -0.3408
  392MOL0     C52839   5.142   7.282   6.474  0.6736 -0.2377 -0.0458
  392MOL0     C52840   5.143   7.364   6.583  0.3609  0.4105 -0.2483
  392MOL0     C52841   5.027   7.385   6.659  0.2878  0.8729  0.2782
  392MOL0     C52842   4.911   7.317   6.635 -0.0278 -0.1057  0.7746
  392MOL0     O52843   4.805   7.347   6.709 -0.3216  0.2019 -0.7056
  392MOL0     C52844   4.680   7.284   6.701  0.0872 -0.6508 -0.4040
  392MOL0     C52845   4.602   7.350   6.818  0.6057  0.2904 -0.3213
  392MOL0     C52846   4.555   7.493   6.785 -0.7790  0.7141  0.3265
  392MOL0     C52847   4.445   7.547   6.883 -0.0311  0.2049 -1.1184
  392MOL0     C52848   4.412   7.681   6.842  0.3893  0.0907  0.0679
  392MOL0     C52849   4.386   7.792   6.821  0.4603 -0.8891  0.4670
  392MOL0     C52850   4.917   7.230   6.531  0.5744  0.0008  0.2500
  392MOL0     C52851   5.028   7.207   6.453  0.4100 -0.4143  0.7600
  392MOL0     C52852   5.016   7.094   6.357 -0.5699 -1.1322  1.0889
  392MOL0     H52853   5.504   7.079   6.509  2.0287  0.5833  0.6596
  392MOL0     H52854   5.723   6.999   6.436 -1.6679  0.5246  2.0404
  392MOL0     H52855   5.926   6.962   6.315 -1.3692  1.3915 -0.3447
  392MOL0     H52856   5.833   6.838   6.219  1.8768 -1.5034 -2.4931
  392MOL0     H52857   5.964   6.900   6.014  0.3075 -3.4688 -0.8554
  392MOL0     H52858   6.038   6.791   6.125  0.4607  0.1917 -1.9086
  392MOL0     H52859   6.204   6.922   6.097 -2.1262 -2.3701 -1.5879
  392MOL0     H52860   6.126   7.002   6.243 -2.8159 -0.3870  0.5036
  392MOL0     H52861   6.151   7.097   5.943  1.0995 -2.4388  1.0504
  392MOL0     H52862   6.017   7.162   6.043 -0.1365  0.4008 -2.8325
  392MOL0     H52863   6.314   7.155   6.091 -0.3473 -1.4889 -1.2123
  392MOL0     H52864   6.230   7.302   6.030 -0.5189  2.7001  2.2438
  392MOL0     H52865   6.163   7.376   6.216  0.5805  1.3272  0.5420
  392MOL0     H52866   6.102   7.239   6.290 -0.7488  1.8600  0.0169
  392MOL0     H52867   6.303   7.344   6.414  0.6689 -0.4613 -0.7047
  392MOL0     H52868   6.406   7.313   6.273  0.5182 -1.6891 -0.9909
  392MOL0     H52869   6.299   7.083   6.436  1.3057  1.7770  1.5067
  392MOL0     H52870   6.394   7.069   6.282 -0.2663 -3.8225  0.8480
  392MOL0     H52871   6.462   7.258   6.630 -1.3601 -0.6861  1.5870
  392MOL0     H52872   6.603   7.164   6.828 -0.0787 -1.9567 -0.1812
  392MOL0     H52873   6.736   7.051   6.797  1.6048  2.1562  3.0829
  392MOL0     H52874   6.794   7.296   6.647 -0.3707  1.0291  0.8038
  392MOL0     H52875   6.771   7.327   6.815  3.1401 -1.5468  1.7487
  392MOL0     H52876   6.938   7.193   6.900  1.2507  1.3060 -0.3838
  392MOL0     H52877   7.015   7.270   6.769 -0.0487 -0.5675 -1.8744
  392MOL0     H52878   6.964   7.088   6.610 -0.1102 -0.3073  1.0695
  392MOL0     H52879   6.943   6.984   6.756  1.9951 -1.8657 -2.3295
  392MOL0     H52880   7.023   6.866   6.567 -0.0730  0.3286  0.1890
  392MOL0     H52881   7.151   6.736   6.419  1.6950 -1.0039 -0.7478
  392MOL0     H52882   7.507   6.730   6.098  1.5727 -0.0932 -1.2973
  392MOL0     H52883   7.612   6.566   5.926 -0.4985  1.2103 -0.0609
  392MOL0     H52884   7.499   6.224   5.873 -1.0252  0.8183 -1.8919
  392MOL0     H52885   7.516   6.387   5.821 -1.9848  0.0807  0.7170
  392MOL0     H52886   7.632   6.268   5.638  1.3604 -1.1200 -1.9171
  392MOL0     H52887   7.755   6.338   5.745 -3.7784  2.0386  1.2871
  392MOL0     H52888   7.742   6.099   5.869  1.9057 -1.4452 -1.2512
  392MOL0     H52889   7.667   6.058   5.719  1.6429 -1.5357  1.0859
  392MOL0     H52890   7.952   6.148   5.778  0.4186 -1.0263  0.0164
  392MOL0     H52891   7.877   6.147   5.609 -2.0594  2.3819  0.9361
  392MOL0     H52892   7.844   5.900   5.636  2.0489 -3.1476  1.4178
  392MOL0     H52893   7.909   5.914   5.796 -3.5447  0.1248 -0.2395
  392MOL0     H52894   8.045   5.944   5.538 -3.3999 -1.0480 -0.2073
  392MOL0     H52895   8.115   6.034   5.662 -0.2825  1.2803 -0.8190
  392MOL0     H52896   8.032   5.743   5.742  0.2462 -0.2770  0.4394
  392MOL0     H52897   8.172   5.838   5.791  2.1656 -2.2065  0.7566
  392MOL0     H52898   8.265   5.785   5.554  0.9770  1.5736  1.7592
  392MOL0     H52899   8.263   5.650   5.665  0.3769 -0.6682 -1.5759
  392MOL0     H52900   7.525   6.246   6.193 -1.0647  0.7684 -0.0534
  392MOL0     H52901   7.389   6.398   6.345 -0.5000 -1.4804 -0.1959
  392MOL0     H52902   7.508   6.885   6.629 -0.0556 -0.1438  1.3112
  392MOL0     H52903   7.366   7.023   6.750 -2.5353 -0.5893  2.3892
  392MOL0     H52904   5.617   7.104   6.025 -0.2172  1.3932 -0.5977
  392MOL0     H52905   5.381   7.203   6.135  0.4520 -1.6233 -0.7163
  392MOL0     H52906   5.225   7.429   6.613 -2.3901  3.0732  2.1407
  392MOL0     H52907   5.010   7.460   6.736 -3.6697  0.3620  0.1196
  392MOL0     H52908   4.696   7.180   6.729 -0.7850 -0.6131  0.2945
  392MOL0     H52909   4.632   7.282   6.602  1.3911 -2.5477 -1.0336
  392MOL0     H52910   4.665   7.343   6.907 -2.6073  2.1661  2.3316
  392MOL0     H52911   4.512   7.288   6.826 -0.4995  1.6368 -1.7512
  392MOL0     H52912   4.519   7.492   6.681 -2.8776 -0.5924  1.0054
  392MOL0     H52913   4.648   7.550   6.776 -1.7031  2.3114  0.5390
  392MOL0     H52914   4.362   7.477   6.870  1.0555 -1.7988  1.6205
  392MOL0     H52915   4.482   7.542   6.986 -1.1417  0.0625 -0.7206
  392MOL0     H52916   4.367   7.897   6.811  2.0421 -0.6274 -0.1768
  392MOL0     H52917   4.832   7.169   6.504  0.4645 -0.3232  1.3103
  392MOL0     H52918   4.913   7.078   6.325 -0.1446 -2.1744  0.1912
  392MOL0     H52919   5.064   7.108   6.259 -1.7563  2.2952  0.8406
  392MOL0     H52920   5.060   7.005   6.403  0.3465 -1.6716 -0.7468
  393MOL0     O52921  11.424   6.530   9.858  0.3471 -0.2629 -0.2469
  393MOL0     C52922  11.459   6.428   9.793  0.2129 -0.8791 -0.4530
  393MOL0     O52923  11.377   6.362   9.707  0.7436 -1.0375 -0.0686
  393MOL0     C52924  11.252   6.415   9.683 -0.2219 -0.2027  0.7868
  393MOL0     C52925  11.231   6.528   9.603 -0.2167 -0.0994  0.2135
  393MOL0     C52926  11.099   6.572   9.594 -0.4227  0.0156 -0.8135
  393MOL0     C52927  10.990   6.516   9.667 -0.3968 -0.4554  0.3550
  393MOL0     O52928  10.861   6.565   9.661  0.2299  0.6874  0.2861
  393MOL0     C52929  10.761   6.461   9.662  0.4788 -0.1672 -0.1271
  393MOL0     C52930  10.641   6.496   9.587 -0.1644 -0.4591 -0.8824
  393MOL0     C52931  10.659   6.510   9.442  0.6405 -0.2469  0.0866
  393MOL0     C52932  10.546   6.569   9.358  0.7015  0.4165 -0.8305
  393MOL0     C52933  10.405   6.499   9.371 -1.2086  1.0270 -0.1014
  393MOL0     C52934  10.402   6.358   9.315 -0.3733 -0.5561  0.2660
  393MOL0     C52935  10.258   6.301   9.332 -1.5439  0.0120  0.6535
  393MOL0     C52936  10.145   6.373   9.262 -0.2850 -1.3560 -0.1017
  393MOL0     N52937  10.025   6.290   9.248  0.4449 -0.1112 -0.1385
  393MOL0     C52938   9.905   6.347   9.230 -0.7016 -1.0626 -0.2042
  393MOL0     C52939   9.823   6.246   9.181 -0.4498 -0.7568  0.1921
  393MOL0     C52940   9.686   6.280   9.118  0.0030  0.0336 -0.5037
  393MOL0     C52941   9.718   6.396   9.027  1.0654  0.0228  0.1021
  393MOL0     C52942   9.836   6.396   8.924  0.7390  0.8079  0.2157
  393MOL0     C52943   9.816   6.280   8.814  0.3546 -0.6335  0.4567
  393MOL0     O52944   9.682   6.257   8.773  0.9121  0.4560 -1.2148
  393MOL0     C52945   9.651   6.161   8.679 -0.7307  0.6788 -0.5936
  393MOL0     C52946   9.735   6.057   8.646  0.6179 -0.3082 -0.2310
  393MOL0     C52947   9.691   5.969   8.541 -0.8148  0.9153 -0.8053
  393MOL0     C52948   9.573   5.987   8.466 -0.7437 -0.9147  0.5140
  393MOL0     C52949   9.528   5.891   8.359 -1.1128 -0.2142  0.2112
  393MOL0     O52950   9.607   5.780   8.334  0.1177 -0.4841  0.5518
  393MOL0     C52951   9.589   5.699   8.221 -0.1181 -0.5600 -0.2226
  393MOL0     C52952   9.655   5.572   8.230 -0.4566 -0.0402 -0.9101
  393MOL0     C52953   9.637   5.467   8.144 -0.1452  0.1863 -1.1040
  393MOL0     C52954   9.562   5.488   8.026  0.2141  0.1792  0.4122
  393MOL0     O52955   9.540   5.393   7.932  0.3204 -0.0329  0.1113
  393MOL0     C52956   9.574   5.256   7.964 -0.4421 -0.3203 -0.0904
  393MOL0     C52957   9.511   5.157   7.859 -0.0328  0.8776 -0.3612
  393MOL0     C52958   9.358   5.157   7.872 -0.0819 -0.2267 -0.5722
  393MOL0     C52959   9.282   5.066   7.776 -0.1973 -0.3784 -0.6486
  393MOL0     C52960   9.135   5.044   7.828  0.4708 -0.2921 -0.5069
  393MOL0     C52961   9.052   5.166   7.788 -0.7090 -0.2083 -0.5191
  393MOL0     C52962   8.907   5.139   7.829 -1.6391  0.2786 -0.3648
  393MOL0     C52963   8.828   5.269   7.797  0.3269  0.1464 -0.3700
  393MOL0    Cl52964   8.667   5.263   7.846  0.3133 -0.1159  0.4782
  393MOL0     C52965   9.500   5.615   8.013  0.6032  0.3239 -0.2278
  393MOL0     C52966   9.518   5.718   8.108  0.4797  0.1292  0.4141
  393MOL0     O52967   9.417   5.912   8.308  0.7122  0.2308 -0.1505
  393MOL0     C52968   9.490   6.095   8.509  0.2427 -0.1299  0.0494
  393MOL0     C52969   9.532   6.170   8.620  0.5903 -0.2423  0.1099
  393MOL0     N52970   9.889   6.130   9.195 -0.0940  1.2847 -0.1962
  393MOL0     N52971  10.011   6.160   9.211 -0.4736  0.1365 -0.2928
  393MOL0     C52972  11.024   6.406   9.747 -1.4480  0.4470 -0.2006
  393MOL0     C52973  11.150   6.359   9.739  1.0700  0.3307  0.6456
  393MOL0     C52974  11.609   6.400   9.787 -0.6495 -0.3247  0.3512
  393MOL0     C52975  11.664   6.362   9.662 -0.1588  0.2998  1.1807
  393MOL0     C52976  11.809   6.350   9.649 -0.0739 -0.3513  0.0726
  393MOL0     C52977  11.888   6.356   9.759 -0.4621 -0.7486  0.2109
  393MOL0     O52978  12.017   6.346   9.734 -0.4414  0.8725  0.1131
  393MOL0     C52979  12.097   6.302   9.843  0.2727  0.6330  0.3800
  393MOL0     C52980  12.222   6.244   9.794  0.1408 -0.6465 -0.3962
  393MOL0     C52981  12.303   6.153   9.890  0.2434  0.6651  0.6496
  393MOL0     C52982  12.349   6.196  10.031  0.2978 -0.4202 -0.7677
  393MOL0     C52983  12.237   6.254  10.111  0.6475  0.2487 -0.9578
  393MOL0     C52984  12.150   6.289  10.186  0.8596  1.0123 -0.3733
  393MOL0     C52985  11.829   6.399   9.878  0.1378  0.4461 -0.7077
  393MOL0     C52986  11.693   6.421   9.899 -0.8232 -0.0754  0.7966
  393MOL0     C52987  11.644   6.434  10.037  0.2759 -0.0342 -0.7164
  393MOL0     H52988  11.307   6.569   9.537 -0.4584  0.8740  0.5306
  393MOL0     H52989  11.075   6.658   9.533 -3.9856  2.3532  3.3283
  393MOL0     H52990  10.801   6.364   9.629  3.2287 -0.8719  4.3810
  393MOL0     H52991  10.732   6.440   9.766 -2.5530  2.4686 -0.3093
  393MOL0     H52992  10.603   6.589   9.629  1.0509 -0.1363 -0.4429
  393MOL0     H52993  10.574   6.412   9.607 -2.7378  1.6997  0.0388
  393MOL0     H52994  10.689   6.407   9.418  0.8529 -0.6237  1.8053
  393MOL0     H52995  10.747   6.574   9.428 -1.4606  2.4696 -1.6046
  393MOL0     H52996  10.534   6.673   9.391  2.0873  0.3226  0.0248
  393MOL0     H52997  10.578   6.559   9.253  1.1919 -1.0206 -0.5642
  393MOL0     H52998  10.360   6.491   9.471  1.0134  4.6281  1.4013
  393MOL0     H52999  10.336   6.563   9.316 -1.9636 -0.8616 -1.4560
  393MOL0     H53000  10.428   6.379   9.211  1.3055  0.8705  0.9332
  393MOL0     H53001  10.477   6.291   9.358  0.5454  0.7256  0.7112
  393MOL0     H53002  10.244   6.305   9.441 -1.1938  0.2759  0.6899
  393MOL0     H53003  10.262   6.196   9.302  2.3126  0.1214  0.2939
  393MOL0     H53004  10.126   6.475   9.298  3.9559  0.4606 -2.3186
  393MOL0     H53005  10.188   6.388   9.162  0.8277 -1.8313  0.2896
  393MOL0     H53006   9.900   6.453   9.252 -0.1278 -1.7128  3.7167
  393MOL0     H53007   9.655   6.191   9.063  0.7150 -0.5180 -0.0311
  393MOL0     H53008   9.605   6.297   9.190 -1.7201 -2.0187 -1.8373
  393MOL0     H53009   9.634   6.399   8.957 -0.5060 -3.4792  1.6021
  393MOL0     H53010   9.718   6.484   9.092  3.8771  1.1647 -1.2566
  393MOL0     H53011   9.932   6.395   8.977  1.0109  1.2422 -0.2606
  393MOL0     H53012   9.829   6.486   8.863  4.0741  1.0629  0.0096
  393MOL0     H53013   9.839   6.183   8.860 -4.5526 -2.6174 -0.5515
  393MOL0     H53014   9.869   6.300   8.721 -1.3885  1.1759 -0.2336
  393MOL0     H53015   9.819   6.030   8.710  0.4845 -0.5570 -0.1567
  393MOL0     H53016   9.755   5.885   8.517  0.1806  1.5564 -0.4443
  393MOL0     H53017   9.711   5.552   8.321 -2.4477 -0.3445  0.3146
  393MOL0     H53018   9.683   5.369   8.152 -3.8984 -1.6412  0.5726
  393MOL0     H53019   9.681   5.250   7.945 -0.7615 -1.1779 -1.8451
  393MOL0     H53020   9.536   5.236   8.064  1.7268 -1.0128  0.6287
  393MOL0     H53021   9.548   5.180   7.759 -0.1111  0.2719 -0.5306
  393MOL0     H53022   9.552   5.058   7.881  1.8582  0.8942 -3.2616
  393MOL0     H53023   9.342   5.117   7.973 -0.8588 -0.2432 -0.6965
  393MOL0     H53024   9.311   5.255   7.861 -1.2178 -0.7969 -0.9539
  393MOL0     H53025   9.338   4.972   7.779  2.8315  1.2142 -1.9493
  393MOL0     H53026   9.293   5.094   7.671  0.4064 -2.3145 -1.1377
  393MOL0     H53027   9.120   5.032   7.936 -0.4292  3.7215 -0.0146
  393MOL0     H53028   9.098   4.950   7.786  1.2799 -0.5406 -0.6688
  393MOL0     H53029   9.092   5.257   7.835 -0.5502 -1.3311  1.6713
  393MOL0     H53030   9.060   5.174   7.680  3.7177  0.4369 -0.3134
  393MOL0     H53031   8.890   5.126   7.936 -0.1929 -1.2768 -0.2819
  393MOL0     H53032   8.868   5.055   7.772  0.9456 -0.8510 -0.5783
  393MOL0     H53033   8.876   5.351   7.852 -1.7802  0.1168  1.6691
  393MOL0     H53034   8.842   5.294   7.691  0.4238  0.1536 -0.3559
  393MOL0     H53035   9.439   5.638   7.927  3.9940  1.9055 -2.4557
  393MOL0     H53036   9.471   5.814   8.089  3.0463  1.4891  0.4942
  393MOL0     H53037   9.395   6.126   8.467 -0.1896  1.7362  2.2076
  393MOL0     H53038   9.471   6.256   8.644 -1.1315 -1.6092  0.8495
  393MOL0     H53039  10.962   6.333   9.797  1.5104  0.4053  3.9001
  393MOL0     H53040  11.183   6.269   9.789  0.6312  0.1707  0.6499
  393MOL0     H53041  11.598   6.349   9.576  1.8859  0.5922 -0.5162
  393MOL0     H53042  11.847   6.336   9.548 -0.9421 -1.7622 -0.0814
  393MOL0     H53043  12.040   6.230   9.903 -2.6670  3.3319  1.0837
  393MOL0     H53044  12.121   6.392   9.901 -1.3848  0.5760  1.2145
  393MOL0     H53045  12.279   6.333   9.767  0.2302  0.5554  3.2441
  393MOL0     H53046  12.201   6.179   9.708 -3.8065 -1.5565  1.0827
  393MOL0     H53047  12.390   6.124   9.830 -1.6273  0.7736 -2.3453
  393MOL0     H53048  12.258   6.055   9.911  0.7107  0.5042  0.9311
  393MOL0     H53049  12.398   6.113  10.082 -1.5205 -0.1236  1.6709
  393MOL0     H53050  12.427   6.272  10.019  1.0986 -1.4801 -2.6485
  393MOL0     H53051  12.080   6.338  10.250  1.2854  0.4352  0.5623
  393MOL0     H53052  11.896   6.401   9.963  0.0061 -1.2861 -0.5234
  393MOL0     H53053  11.724   6.418  10.109 -2.4689 -1.3346  2.2573
  393MOL0     H53054  11.602   6.535  10.047 -3.8277 -1.3000 -2.8124
  393MOL0     H53055  11.565   6.362  10.058  0.1082  0.3820  0.1357
  394MOL0     O53056   4.460   8.653   0.874 -0.1270 -0.2787 -0.0710
  394MOL0     C53057   4.488   8.653   0.756  0.3439 -0.2033 -0.3253
  394MOL0     O53058   4.477   8.764   0.680 -0.6670  0.0137  0.1882
  394MOL0     C53059   4.505   8.897   0.715 -0.1179 -0.2794 -0.6674
  394MOL0     C53060   4.576   8.936   0.825 -0.6598  1.3041 -0.8895
  394MOL0     C53061   4.601   9.071   0.860  0.2236 -0.1758  0.5582
  394MOL0     C53062   4.555   9.175   0.774  0.0645 -0.5483 -0.4025
  394MOL0     O53063   4.557   9.312   0.815 -0.3905 -0.0925  0.7515
  394MOL0     C53064   4.662   9.354   0.896 -0.1536 -0.0942  0.5359
  394MOL0     C53065   4.686   9.505   0.905 -0.1329 -0.1345 -0.0240
  394MOL0     C53066   4.630   9.582   0.779 -0.0519 -0.6023  0.2979
  394MOL0     C53067   4.696   9.561   0.644  0.3359  0.5168 -0.5916
  394MOL0     C53068   4.623   9.601   0.520  0.0838 -0.2901 -0.5376
  394MOL0     C53069   4.729   9.661   0.419 -0.5876  0.4002 -0.0517
  394MOL0     C53070   4.814   9.551   0.360 -1.2011  0.1290  0.0894
  394MOL0     C53071   4.950   9.604   0.300  0.2828 -0.6280  0.3084
  394MOL0     N53072   5.013   9.502   0.212 -0.4134 -0.1337 -0.0552
  394MOL0     C53073   4.960   9.399   0.138  0.1091  0.0005  0.6458
  394MOL0     C53074   5.046   9.371   0.043  0.7525 -0.4021  0.2018
  394MOL0     C53075   5.038   9.250  -0.050 -0.3780 -0.6701 -0.5779
  394MOL0     C53076   5.087   9.283  -0.194  0.5511  0.1130  1.2471
  394MOL0     C53077   5.008   9.194  -0.306 -0.8922  0.1573 -0.1332
  394MOL0     C53078   5.058   9.045  -0.318 -0.9012  0.5818 -0.6729
  394MOL0     O53079   5.195   9.031  -0.345  0.5779  0.1886 -0.3497
  394MOL0     C53080   5.243   9.046  -0.470 -0.1496 -0.6847  1.2291
  394MOL0     C53081   5.151   9.049  -0.583  0.8394 -0.4330 -0.4814
  394MOL0     C53082   5.199   9.069  -0.710  0.3975 -0.9939  0.5062
  394MOL0     C53083   5.339   9.071  -0.740 -0.2035 -0.7352  0.0362
  394MOL0     C53084   5.390   9.089  -0.876  0.7329  1.0308  0.8222
  394MOL0     O53085   5.300   9.095  -0.972  0.6385 -0.6453 -0.2888
  394MOL0     C53086   5.328   9.112  -1.108  0.0951 -0.5507  0.4861
  394MOL0     C53087   5.232   9.063  -1.197 -0.0361 -0.5333  0.0490
  394MOL0     C53088   5.247   9.063  -1.331  0.7825 -0.0266 -0.7380
  394MOL0     C53089   5.361   9.112  -1.389 -0.3155  0.6920  0.3196
  394MOL0     O53090   5.356   9.109  -1.525 -0.1629  0.0982  0.6121
  394MOL0     C53091   5.475   9.179  -1.587  0.1865 -0.8285 -0.4141
  394MOL0     C53092   5.575   9.079  -1.598 -0.1850  0.5932 -0.8920
  394MOL0     C53093   5.576   8.979  -1.718 -0.5880  0.0097 -0.1346
  394MOL0     C53094   5.466   8.876  -1.719  0.6372  0.5151 -0.5835
  394MOL0     C53095   5.510   8.763  -1.626  0.2016  0.1732 -0.1052
  394MOL0     C53096   5.450   8.625  -1.665  0.0180 -0.6384 -0.2093
  394MOL0     C53097   5.293   8.620  -1.652  0.3529  0.1924  0.3101
  394MOL0     C53098   5.229   8.651  -1.511  0.7055 -0.0252  0.7797
  394MOL0    Cl53099   5.046   8.663  -1.532 -0.4467 -0.1297  0.0001
  394MOL0     C53100   5.456   9.156  -1.297 -0.4472  0.0680 -0.4262
  394MOL0     C53101   5.445   9.168  -1.162  0.4754  0.7229  0.1207
  394MOL0     O53102   5.509   9.098  -0.897 -0.4002  0.3221  0.9849
  394MOL0     C53103   5.420   9.059  -0.628  0.0612  1.2937  0.3435
  394MOL0     C53104   5.374   9.042  -0.498 -0.7548 -1.1125  0.6937
  394MOL0     N53105   5.161   9.446   0.077  0.3706  0.5959  0.3739
  394MOL0     N53106   5.137   9.527   0.174  0.2551 -0.9703  0.5797
  394MOL0     C53107   4.484   9.140   0.663  1.0247 -0.3088 -0.6403
  394MOL0     C53108   4.462   9.003   0.635 -0.7376 -0.2036  0.3346
  394MOL0     C53109   4.513   8.519   0.679 -0.7088 -0.1059  0.3486
  394MOL0     C53110   4.486   8.524   0.543 -0.2505  0.6536  0.8052
  394MOL0     C53111   4.509   8.406   0.471 -0.5738  0.1496  0.3229
  394MOL0     C53112   4.569   8.286   0.521 -0.3302 -0.8093 -0.6416
  394MOL0     O53113   4.597   8.179   0.442 -0.5628 -0.1931 -0.3122
  394MOL0     C53114   4.703   8.084   0.477  0.6292 -0.5115  0.2617
  394MOL0     C53115   4.761   8.042   0.334 -0.0051 -0.0781 -0.4593
  394MOL0     C53116   4.672   7.940   0.267 -0.0233 -0.4290  0.2262
  394MOL0     C53117   4.694   7.925   0.111 -0.1993  0.9653  1.0526
  394MOL0     C53118   4.815   7.854   0.083 -1.2116 -0.4476 -0.4731
  394MOL0     C53119   4.916   7.797   0.054 -0.0054 -0.2291  0.1851
  394MOL0     C53120   4.599   8.290   0.659  0.3047 -0.4784 -1.0285
  394MOL0     C53121   4.574   8.405   0.737  0.1557 -0.7251  0.5751
  394MOL0     C53122   4.601   8.400   0.887 -0.1724  0.0099 -0.2727
  394MOL0     H53123   4.587   8.865   0.906 -1.7761 -1.7652 -3.2110
  394MOL0     H53124   4.659   9.084   0.951  3.8453 -0.7683 -1.4527
  394MOL0     H53125   4.640   9.318   0.996 -2.4156 -0.8356 -0.1637
  394MOL0     H53126   4.746   9.310   0.840 -0.8503 -0.1275 -0.5002
  394MOL0     H53127   4.792   9.523   0.924 -0.3880  3.3351 -1.2643
  394MOL0     H53128   4.633   9.543   0.993  2.4605 -0.0892  1.6181
  394MOL0     H53129   4.644   9.686   0.810 -1.6301 -0.5973  1.0853
  394MOL0     H53130   4.521   9.580   0.773 -0.4234  3.2656  2.4428
  394MOL0     H53131   4.795   9.608   0.650  0.7010 -0.3446  0.5950
  394MOL0     H53132   4.708   9.453   0.635  2.1550  0.4593  1.5486
  394MOL0     H53133   4.567   9.519   0.475 -4.9203  2.9270 -0.9683
  394MOL0     H53134   4.558   9.689   0.531  0.0796 -0.0364 -2.3398
  394MOL0     H53135   4.676   9.716   0.341 -1.2783  0.8831  0.7520
  394MOL0     H53136   4.800   9.732   0.462  0.1092  0.0621 -0.6191
  394MOL0     H53137   4.757   9.497   0.284  1.4986  2.3005 -3.8196
  394MOL0     H53138   4.845   9.479   0.437  0.5195  2.0735  1.3205
  394MOL0     H53139   4.912   9.682   0.233  0.4601 -1.2485 -0.5314
  394MOL0     H53140   5.012   9.647   0.378 -0.2112  2.3946 -0.8328
  394MOL0     H53141   4.867   9.342   0.134  0.8191 -1.1844 -3.1392
  394MOL0     H53142   5.112   9.181  -0.008 -0.9937 -0.3150  1.1553
  394MOL0     H53143   4.937   9.209  -0.052 -0.4702 -0.5107  0.3418
  394MOL0     H53144   5.083   9.390  -0.218  0.0913 -0.1527  0.0523
  394MOL0     H53145   5.191   9.249  -0.199  0.9581  1.2018  1.9858
  394MOL0     H53146   5.015   9.246  -0.402 -5.1100  0.1547 -0.6457
  394MOL0     H53147   4.900   9.190  -0.289 -1.3356 -1.0333 -2.7546
  394MOL0     H53148   4.999   8.971  -0.372 -2.7597 -0.2869  2.2944
  394MOL0     H53149   5.045   8.995  -0.222 -0.7791 -0.4700 -1.1889
  394MOL0     H53150   5.043   9.046  -0.577  0.8865  0.3457  3.0853
  394MOL0     H53151   5.129   9.070  -0.793  1.9173  2.5186 -0.9520
  394MOL0     H53152   5.147   9.020  -1.145  0.5587  1.2267  2.6874
  394MOL0     H53153   5.179   9.017  -1.402  0.9393  1.3668 -1.8485
  394MOL0     H53154   5.455   9.209  -1.690 -1.0549  2.6007  0.6755
  394MOL0     H53155   5.499   9.272  -1.535  0.6047 -0.6508 -0.9191
  394MOL0     H53156   5.672   9.130  -1.604  0.2667  0.2104  2.0728
  394MOL0     H53157   5.566   9.009  -1.515 -0.7711  0.1454 -1.3240
  394MOL0     H53158   5.582   9.034  -1.813  2.8769  0.4765  0.2374
  394MOL0     H53159   5.675   8.933  -1.713 -0.6494 -0.3595 -1.7695
  394MOL0     H53160   5.477   8.831  -1.818  1.5957  1.8220 -1.1024
  394MOL0     H53161   5.364   8.915  -1.708  0.4260  0.4284 -2.0611
  394MOL0     H53162   5.475   8.795  -1.528 -0.4032 -0.1013 -0.2235
  394MOL0     H53163   5.619   8.754  -1.622  0.0796 -3.6019 -1.0860
  394MOL0     H53164   5.492   8.603  -1.763  2.2464  1.1101  0.2551
  394MOL0     H53165   5.475   8.553  -1.586  1.1555  1.9651  1.9972
  394MOL0     H53166   5.268   8.522  -1.692 -1.7865  1.1071 -0.7497
  394MOL0     H53167   5.254   8.700  -1.715 -3.5701  0.1822  2.4327
  394MOL0     H53168   5.259   8.568  -1.445  2.6710  0.5701  0.6824
  394MOL0     H53169   5.255   8.749  -1.469 -1.7063  0.4882  1.2210
  394MOL0     H53170   5.545   9.203  -1.336 -0.0998 -0.3565 -0.1580
  394MOL0     H53171   5.525   9.209  -1.102  1.3872  0.4128 -0.8668
  394MOL0     H53172   5.526   9.041  -0.645 -0.5919 -0.2641 -2.8481
  394MOL0     H53173   5.449   9.023  -0.422 -1.6081 -0.8919  1.6184
  394MOL0     H53174   4.458   9.216   0.591  1.5939 -1.1390 -1.7562
  394MOL0     H53175   4.409   8.969   0.547  1.7085 -2.8363 -0.2421
  394MOL0     H53176   4.448   8.605   0.482 -0.8878 -0.8198 -0.8660
  394MOL0     H53177   4.490   8.426   0.366  0.2590 -0.0747  0.1250
  394MOL0     H53178   4.664   8.000   0.534 -0.1477  1.4497  2.8023
  394MOL0     H53179   4.785   8.137   0.525  0.4984 -0.7713  0.7745
  394MOL0     H53180   4.862   8.001   0.337  0.4501  1.0530  1.3183
  394MOL0     H53181   4.768   8.124   0.262  2.5455 -2.1134 -2.7529
  394MOL0     H53182   4.563   7.955   0.260  0.2085  0.6947 -1.8572
  394MOL0     H53183   4.681   7.843   0.317 -1.0252  0.1687  1.6358
  394MOL0     H53184   4.614   7.879   0.053  0.2762 -0.5853  1.5742
  394MOL0     H53185   4.712   8.020   0.060  0.7321 -0.9447 -2.5234
  394MOL0     H53186   5.008   7.755   0.019 -0.0478 -0.2795  0.1352
  394MOL0     H53187   4.634   8.193   0.692  2.8298  0.0380 -1.9476
  394MOL0     H53188   4.687   8.460   0.917  0.1173 -1.6164  2.4719
  394MOL0     H53189   4.519   8.437   0.950  0.5399  1.8458 -0.3647
  394MOL0     H53190   4.617   8.296   0.917  2.0720  0.8689  1.8803
  395MOL0     O53191   4.161   3.763   0.192  0.0186 -0.0212  0.0004
  395MOL0     C53192   4.190   3.760   0.310 -0.0224  0.3104 -0.2181
  395MOL0     O53193   4.106   3.802   0.418  0.1642 -0.6443  0.2422
  395MOL0     C53194   4.019   3.907   0.406  0.1116 -1.1512  0.6519
  395MOL0     C53195   3.961   3.944   0.527  1.0117  0.4988 -0.9615
  395MOL0     C53196   3.867   4.051   0.547 -0.2953 -0.7007  1.0236
  395MOL0     C53197   3.832   4.129   0.429 -0.1078 -0.2388 -0.1106
  395MOL0     O53198   3.729   4.226   0.447 -0.8745 -1.0270  0.1806
  395MOL0     C53199   3.619   4.215   0.358  0.0953 -0.3073  0.2602
  395MOL0     C53200   3.547   4.351   0.336 -0.5062  0.3060 -0.5931
  395MOL0     C53201   3.626   4.440   0.239  0.3570  0.3953  0.1628
  395MOL0     C53202   3.745   4.508   0.301  0.3764 -0.9926  0.8982
  395MOL0     C53203   3.801   4.628   0.209  0.9739 -0.2148  0.6904
  395MOL0     C53204   3.687   4.729   0.168  0.6206 -0.8701 -1.4348
  395MOL0     C53205   3.612   4.794   0.293 -0.0240  0.9200 -1.0785
  395MOL0     C53206   3.484   4.859   0.248  0.1234 -1.0213 -0.9007
  395MOL0     N53207   3.418   4.938   0.361 -0.3637 -0.2402 -0.2253
  395MOL0     C53208   3.293   4.893   0.409  0.4745 -0.7380 -1.5057
  395MOL0     C53209   3.260   4.997   0.495  0.4471 -0.6805  1.1554
  395MOL0     C53210   3.122   5.025   0.537  0.2952 -0.4979 -0.2132
  395MOL0     C53211   3.046   5.138   0.452 -1.4157  0.6453 -1.0263
  395MOL0     C53212   2.966   5.238   0.527  0.0810  0.4989 -0.0787
  395MOL0     C53213   2.895   5.342   0.435  0.2989  0.8415  0.9681
  395MOL0     O53214   2.823   5.278   0.326 -0.3887  0.3122  0.3933
  395MOL0     C53215   2.693   5.268   0.353  0.3935  0.2817  0.8124
  395MOL0     C53216   2.605   5.347   0.291  0.3389  1.0229  0.6001
  395MOL0     C53217   2.468   5.338   0.328  1.4870 -0.0386  0.1203
  395MOL0     C53218   2.418   5.252   0.430 -0.6133  0.5983  0.0819
  395MOL0     C53219   2.280   5.248   0.454 -0.6614 -0.3201 -0.2584
  395MOL0     O53220   2.199   5.328   0.380  0.5531 -0.4621 -0.2974
  395MOL0     C53221   2.064   5.293   0.390 -0.7812 -0.0407  0.2338
  395MOL0     C53222   2.019   5.176   0.334  0.0577  0.0138 -0.5419
  395MOL0     C53223   1.879   5.142   0.328  0.0676  0.9234  0.1839
  395MOL0     C53224   1.792   5.236   0.378  0.3579  0.8237  0.1761
  395MOL0     O53225   1.657   5.200   0.400  0.0516 -0.5073  0.6052
  395MOL0     C53226   1.582   5.181   0.279 -0.4439 -0.3532  0.8243
  395MOL0     C53227   1.430   5.195   0.311  0.2448 -0.1791  1.0614
  395MOL0     C53228   1.374   5.111   0.423 -1.0302 -0.6006 -0.2291
  395MOL0     C53229   1.227   5.133   0.462 -0.0442  0.2132 -0.3594
  395MOL0     C53230   1.186   5.059   0.598 -0.1104  0.0123  0.1823
  395MOL0     C53231   1.042   5.090   0.651  0.9022 -1.3854 -0.3769
  395MOL0     C53232   0.993   4.985   0.760  0.9981  0.0670  0.0995
  395MOL0     C53233   0.892   5.051   0.857  0.1472  0.2283  0.9340
  395MOL0    Cl53234   0.848   4.948   0.992 -0.2220  0.4653  0.1165
  395MOL0     C53235   1.830   5.349   0.444 -0.0363  0.7208  0.6216
  395MOL0     C53236   1.964   5.375   0.437  0.0946  0.2319  0.7083
  395MOL0     O53237   2.234   5.170   0.535 -0.2325  0.5253 -0.2935
  395MOL0     C53238   2.513   5.170   0.495 -0.5603 -0.5835  1.1128
  395MOL0     C53239   2.647   5.180   0.453 -0.1386 -0.0664  1.3123
  395MOL0     N53240   3.363   5.095   0.493  0.6486  1.0247  0.2458
  395MOL0     N53241   3.455   5.059   0.423 -0.1270  0.0076  0.0822
  395MOL0     C53242   3.891   4.093   0.307  0.3293  0.9507  0.5178
  395MOL0     C53243   3.977   3.983   0.289 -0.5109 -0.0180  0.7725
  395MOL0     C53244   4.319   3.700   0.356  0.1401  0.3146 -0.1472
  395MOL0     C53245   4.308   3.618   0.473  0.3906 -0.2274  0.6212
  395MOL0     C53246   4.414   3.530   0.497 -0.2495  0.4263  0.0482
  395MOL0     C53247   4.530   3.525   0.424  0.5797  0.4130  0.5908
  395MOL0     O53248   4.644   3.447   0.440  0.2399  0.6357  0.4399
  395MOL0     C53249   4.618   3.342   0.538 -0.0106 -1.2161 -0.0693
  395MOL0     C53250   4.718   3.227   0.496 -0.2464  1.1754 -0.6774
  395MOL0     C53251   4.662   3.134   0.385 -0.1477  0.6904  0.8935
  395MOL0     C53252   4.677   3.182   0.241 -0.5173 -0.8479 -0.0018
  395MOL0     C53253   4.623   3.083   0.143 -0.5357 -0.0521  0.3286
  395MOL0     C53254   4.574   3.027   0.049  0.4271 -0.8264 -0.0780
  395MOL0     C53255   4.539   3.621   0.320  0.9314  0.6516 -0.7468
  395MOL0     C53256   4.438   3.714   0.292 -0.2975  0.2643 -0.3706
  395MOL0     C53257   4.458   3.806   0.174  0.4184  0.1505  0.0351
  395MOL0     H53258   3.979   3.879   0.611 -1.3277 -1.5718 -1.9390
  395MOL0     H53259   3.808   4.063   0.638 -3.8100 -2.4964 -0.7955
  395MOL0     H53260   3.652   4.185   0.258  1.4119  3.2882 -0.5355
  395MOL0     H53261   3.545   4.142   0.391 -4.1081  3.6557  0.6018
  395MOL0     H53262   3.530   4.410   0.426  1.4998 -0.1153  0.1225
  395MOL0     H53263   3.444   4.329   0.306 -0.6097  1.0397 -0.7917
  395MOL0     H53264   3.563   4.518   0.196  3.1199  2.8324  0.2419
  395MOL0     H53265   3.660   4.377   0.156 -1.9426  0.6994 -1.1196
  395MOL0     H53266   3.716   4.558   0.394  1.0656  2.7788 -0.7452
  395MOL0     H53267   3.824   4.437   0.327 -0.2548 -2.2099 -0.3368
  395MOL0     H53268   3.875   4.687   0.263  0.2509  1.3290  0.0458
  395MOL0     H53269   3.857   4.578   0.129  0.1657 -1.8272  1.0862
  395MOL0     H53270   3.730   4.807   0.104 -2.4596  0.4020 -2.1274
  395MOL0     H53271   3.614   4.689   0.097 -0.8118  0.2008 -0.6180
  395MOL0     H53272   3.676   4.874   0.330  1.1996 -0.1547 -0.7716
  395MOL0     H53273   3.584   4.718   0.366  1.7476  0.4854 -0.7997
  395MOL0     H53274   3.497   4.930   0.166  1.5986  0.0462  0.2022
  395MOL0     H53275   3.430   4.775   0.205  2.4319 -3.7509  1.1008
  395MOL0     H53276   3.239   4.807   0.371  0.1095 -0.8119 -0.8360
  395MOL0     H53277   3.065   4.931   0.535 -2.9368  1.2305  1.6968
  395MOL0     H53278   3.122   5.063   0.640  2.1416  0.2985 -0.4697
  395MOL0     H53279   3.123   5.199   0.404 -0.1889  0.4265  0.5800
  395MOL0     H53280   2.985   5.079   0.382 -2.0874 -2.9253  2.2254
  395MOL0     H53281   3.037   5.298   0.584  0.3481  1.4547 -1.3777
  395MOL0     H53282   2.895   5.196   0.599  0.4624  0.9634  0.5817
  395MOL0     H53283   2.969   5.391   0.372 -1.3501 -2.1706 -3.8816
  395MOL0     H53284   2.844   5.417   0.495  2.0547  3.0869 -0.1940
  395MOL0     H53285   2.637   5.413   0.211  1.0663  0.5011  0.4513
  395MOL0     H53286   2.402   5.406   0.275  3.6039  0.5095 -1.9576
  395MOL0     H53287   2.101   5.112   0.302  1.3278  1.8081 -1.0317
  395MOL0     H53288   1.863   5.044   0.286  1.3631  0.1084  1.5167
  395MOL0     H53289   1.620   5.256   0.209  2.4726 -0.0647  2.5293
  395MOL0     H53290   1.612   5.080   0.249 -3.6315 -0.3896 -2.9125
  395MOL0     H53291   1.410   5.301   0.331  0.7638  0.5435 -1.7565
  395MOL0     H53292   1.372   5.183   0.219  2.6306  1.0571 -0.7073
  395MOL0     H53293   1.385   5.008   0.386 -0.2075 -1.2126  1.6281
  395MOL0     H53294   1.430   5.125   0.516  2.4253  1.4619 -2.3887
  395MOL0     H53295   1.151   5.110   0.387 -3.6000  3.3616  1.9112
  395MOL0     H53296   1.203   5.238   0.483  0.4584 -0.1813  2.7714
  395MOL0     H53297   1.262   5.081   0.674 -0.9740  1.3634  0.6861
  395MOL0     H53298   1.182   4.954   0.567  1.9094  0.3676 -1.4689
  395MOL0     H53299   1.057   5.190   0.693 -1.6544 -1.7851  1.7426
  395MOL0     H53300   0.972   5.098   0.567  0.8704  1.4659 -0.1803
  395MOL0     H53301   1.075   4.932   0.811  0.6985  0.0954  0.6185
  395MOL0     H53302   0.947   4.903   0.704  2.7447 -1.1871  0.4111
  395MOL0     H53303   0.933   5.142   0.902 -1.8284  2.1804 -0.9554
  395MOL0     H53304   0.805   5.066   0.791  0.1004 -1.6473  0.5032
  395MOL0     H53305   1.757   5.420   0.482 -0.5143 -1.1485  3.4796
  395MOL0     H53306   1.999   5.464   0.489  0.3207 -0.2283  1.3592
  395MOL0     H53307   2.486   5.112   0.582 -0.9695 -0.2813  1.1924
  395MOL0     H53308   2.721   5.124   0.508  1.4615  0.6642 -0.0127
  395MOL0     H53309   3.859   4.161   0.229 -0.9623  1.4768  1.4669
  395MOL0     H53310   4.019   3.960   0.191 -1.6945  0.4305  0.1305
  395MOL0     H53311   4.216   3.630   0.529  1.4965  2.9974  1.9679
  395MOL0     H53312   4.404   3.468   0.585  2.4839 -1.8788 -1.0933
  395MOL0     H53313   4.518   3.298   0.538  0.4990 -2.8800 -4.5136
  395MOL0     H53314   4.639   3.388   0.635  0.9830 -0.7645 -0.4902
  395MOL0     H53315   4.751   3.177   0.588  2.2768  1.2903 -1.4551
  395MOL0     H53316   4.812   3.275   0.467 -0.3651  0.9196 -1.5128
  395MOL0     H53317   4.568   3.083   0.409  1.0717 -2.1975 -0.0233
  395MOL0     H53318   4.726   3.046   0.386 -0.7943  0.2114  0.7700
  395MOL0     H53319   4.627   3.279   0.230  1.8379  0.3462 -0.8602
  395MOL0     H53320   4.786   3.194   0.235 -0.7778  3.2423  0.4544
  395MOL0     H53321   4.529   2.986  -0.039  1.2485  0.0790 -0.9487
  395MOL0     H53322   4.629   3.620   0.258  1.0176  0.2815 -0.6168
  395MOL0     H53323   4.448   3.747   0.083 -2.7294 -1.3335  1.2049
  395MOL0     H53324   4.374   3.877   0.173 -0.5618 -0.9394  1.1431
  395MOL0     H53325   4.548   3.869   0.175  0.4863  0.0481  0.5706
  396MOL0     O53326   2.379   3.841   3.342  0.4899 -0.3390  0.2954
  396MOL0     C53327   2.477   3.776   3.363 -1.1550 -0.5813  0.3060
  396MOL0     O53328   2.526   3.676   3.280  1.1271 -0.6651  0.5514
  396MOL0     C53329   2.457   3.659   3.161  0.2982 -0.2179 -0.1596
  396MOL0     C53330   2.514   3.690   3.038 -0.0959  0.5729  0.0409
  396MOL0     C53331   2.446   3.672   2.921  0.2833  0.2160  0.1358
  396MOL0     C53332   2.311   3.632   2.916 -0.7748 -0.7629 -0.2568
  396MOL0     O53333   2.250   3.628   2.793 -0.3554  0.3101 -0.3204
  396MOL0     C53334   2.114   3.596   2.772  0.2065 -0.0436  0.4281
  396MOL0     C53335   2.068   3.610   2.622 -0.7397  0.1007 -0.3829
  396MOL0     C53336   2.162   3.517   2.544  0.5010  0.1399  0.7736
  396MOL0     C53337   2.132   3.366   2.573 -0.3036  0.0320 -0.0091
  396MOL0     C53338   2.187   3.276   2.458  0.2158 -0.4949  0.0834
  396MOL0     C53339   2.180   3.128   2.510 -0.2435 -0.2407  0.1287
  396MOL0     C53340   2.247   3.031   2.413 -0.1781  0.9838  0.1866
  396MOL0     C53341   2.388   2.983   2.447  0.0165 -0.0309 -0.1159
  396MOL0     N53342   2.443   2.855   2.395  0.0394  0.0682 -1.1582
  396MOL0     C53343   2.379   2.785   2.296  0.2885 -0.8301 -0.6135
  396MOL0     C53344   2.481   2.699   2.267 -0.3223  0.0883 -0.2735
  396MOL0     C53345   2.483   2.596   2.154  0.1892 -0.0328  1.2362
  396MOL0     C53346   2.378   2.497   2.178 -0.8201  0.2157  0.0429
  396MOL0     C53347   2.390   2.370   2.092  0.2427 -0.6094  0.4335
  396MOL0     C53348   2.258   2.281   2.091 -0.5202 -0.9621 -1.4854
  396MOL0     O53349   2.256   2.213   2.217  0.3675  0.4230  0.1891
  396MOL0     C53350   2.142   2.152   2.266 -0.7571 -0.2895  0.3696
  396MOL0     C53351   2.149   2.108   2.392 -0.5596 -0.6952  0.0025
  396MOL0     C53352   2.051   2.016   2.440 -0.3477 -0.3182  0.1169
  396MOL0     C53353   1.947   1.980   2.360  0.6146  0.5001 -0.5802
  396MOL0     C53354   1.847   1.887   2.413  0.1799 -0.3316 -0.3153
  396MOL0     O53355   1.720   1.898   2.370 -0.0896  0.0777 -0.0602
  396MOL0     C53356   1.627   1.816   2.416  0.4916  0.1175 -1.0809
  396MOL0     C53357   1.598   1.697   2.351  0.2258  0.6996  0.4908
  396MOL0     C53358   1.488   1.611   2.395 -0.5594  0.2793  0.0514
  396MOL0     C53359   1.410   1.651   2.505 -0.6390  0.3459 -0.1262
  396MOL0     O53360   1.320   1.567   2.549  0.4224  0.5261 -0.7124
  396MOL0     C53361   1.327   1.503   2.675  0.3502 -0.4023 -0.7801
  396MOL0     C53362   1.377   1.361   2.654 -0.0025  0.0781  0.4832
  396MOL0     C53363   1.304   1.287   2.548 -1.0439  0.6711 -0.1926
  396MOL0     C53364   1.341   1.142   2.539 -0.5231 -0.6164 -0.4841
  396MOL0     C53365   1.274   1.060   2.428 -0.6679  1.1190  0.8462
  396MOL0     C53366   1.290   0.910   2.466  0.0637  0.9005  0.4150
  396MOL0     C53367   1.413   0.830   2.446  0.2838 -1.0687 -0.6278
  396MOL0     C53368   1.431   0.816   2.292 -0.6231  0.2205  0.2567
  396MOL0    Cl53369   1.583   0.726   2.265 -0.3804  0.2137  0.4908
  396MOL0     C53370   1.442   1.765   2.569  0.3307 -0.2000  0.1131
  396MOL0     C53371   1.539   1.859   2.522 -0.4698  0.0077  0.1546
  396MOL0     O53372   1.886   1.799   2.495 -0.0246 -0.5680  0.3245
  396MOL0     C53373   1.934   2.033   2.233 -1.3172  0.2375  0.2225
  396MOL0     C53374   2.035   2.116   2.186 -0.7065  0.9249  0.4423
  396MOL0     N53375   2.593   2.709   2.349  0.5260  0.3341  0.4721
  396MOL0     N53376   2.567   2.804   2.427 -0.3232 -0.1478  0.6884
  396MOL0     C53377   2.256   3.598   3.038  0.6709  0.4955 -0.0445
  396MOL0     C53378   2.318   3.607   3.161  0.0606 -0.4288 -0.6724
  396MOL0     C53379   2.552   3.811   3.484  0.2013 -0.8484 -0.0851
  396MOL0     C53380   2.638   3.707   3.530  1.2619  0.0114  0.5445
  396MOL0     C53381   2.699   3.712   3.658  0.5739 -0.0597  0.5613
  396MOL0     C53382   2.694   3.830   3.726 -0.1275 -0.4278 -1.7515
  396MOL0     O53383   2.752   3.825   3.854  0.2664 -0.3668  0.0042
  396MOL0     C53384   2.783   3.941   3.922  0.4656  0.3623 -0.0810
  396MOL0     C53385   2.726   3.953   4.061  1.2655 -0.3343  0.7860
  396MOL0     C53386   2.772   4.086   4.120  0.6250  0.5451  0.3069
  396MOL0     C53387   2.735   4.091   4.269  1.1127 -0.1297 -0.4515
  396MOL0     C53388   2.811   4.193   4.335 -0.6201 -0.4095 -0.4681
  396MOL0     C53389   2.875   4.282   4.386  0.4408 -0.2172  0.2555
  396MOL0     C53390   2.621   3.936   3.673  0.8520 -0.7564  0.0839
  396MOL0     C53391   2.555   3.930   3.557 -0.0410 -0.4848  0.5957
  396MOL0     C53392   2.490   4.053   3.496  0.5862  0.3885 -0.2983
  396MOL0     H53393   2.615   3.729   3.037 -0.4398  1.6643  2.1123
  396MOL0     H53394   2.487   3.698   2.824 -1.2058  0.2386 -0.5279
  396MOL0     H53395   2.083   3.497   2.806 -0.8806 -0.3973 -1.4247
  396MOL0     H53396   2.047   3.652   2.838  0.5206 -0.0810  0.7826
  396MOL0     H53397   2.072   3.715   2.593  0.8365 -0.0633 -0.8570
  396MOL0     H53398   1.960   3.596   2.610 -0.7413 -0.6227  0.3934
  396MOL0     H53399   2.268   3.528   2.565  0.6266  1.3928 -0.4119
  396MOL0     H53400   2.144   3.550   2.442 -4.5184  0.7118  1.5558
  396MOL0     H53401   2.183   3.332   2.665 -3.0918  1.2669  2.1391
  396MOL0     H53402   2.028   3.343   2.596 -0.0010 -1.4838 -0.0712
  396MOL0     H53403   2.131   3.294   2.366 -0.4179  4.2283  1.1133
  396MOL0     H53404   2.291   3.300   2.433 -0.4972  1.7479 -0.9748
  396MOL0     H53405   2.226   3.116   2.608 -0.2659 -1.8951 -0.0321
  396MOL0     H53406   2.075   3.095   2.516 -0.7487 -0.2763 -4.9197
  396MOL0     H53407   2.225   3.048   2.307  0.4934 -3.6106 -0.9267
  396MOL0     H53408   2.188   2.940   2.431  0.5525  0.4201 -0.2290
  396MOL0     H53409   2.452   3.063   2.407  1.9894 -1.1166  0.7326
  396MOL0     H53410   2.403   2.971   2.554  0.5690 -1.2235 -0.3176
  396MOL0     H53411   2.291   2.801   2.235 -0.3371 -1.4716  0.1033
  396MOL0     H53412   2.463   2.659   2.066  0.4613  0.0128  1.2030
  396MOL0     H53413   2.577   2.544   2.135 -0.2550 -0.7922  1.0913
  396MOL0     H53414   2.365   2.470   2.283  2.0393 -0.6331  0.2351
  396MOL0     H53415   2.282   2.546   2.156 -0.4527  0.1836 -1.7886
  396MOL0     H53416   2.475   2.312   2.128  1.1060  2.5509  4.1072
  396MOL0     H53417   2.407   2.407   1.990 -0.3696 -1.6606 -0.0691
  396MOL0     H53418   2.256   2.206   2.012  1.3788 -0.3586 -2.1697
  396MOL0     H53419   2.171   2.347   2.090  1.2653  1.9268  2.8344
  396MOL0     H53420   2.237   2.138   2.447  0.0230 -0.7812 -0.8492
  396MOL0     H53421   2.064   1.981   2.542  2.2430 -2.8499 -0.9506
  396MOL0     H53422   1.664   1.670   2.269  0.0420 -0.3349  0.6792
  396MOL0     H53423   1.456   1.518   2.349  2.2983 -0.6454 -0.2796
  396MOL0     H53424   1.385   1.561   2.747  0.1509 -2.4993  1.1777
  396MOL0     H53425   1.228   1.508   2.722  0.7454 -1.4322  0.2099
  396MOL0     H53426   1.484   1.352   2.636  0.2113  2.3437  0.4181
  396MOL0     H53427   1.357   1.312   2.750 -2.7074  3.2652  1.7295
  396MOL0     H53428   1.196   1.307   2.557 -0.8169  1.2564  1.6138
  396MOL0     H53429   1.349   1.324   2.456  1.7147 -1.6377  0.0912
  396MOL0     H53430   1.325   1.102   2.640 -1.3036  1.7701  0.4269
  396MOL0     H53431   1.449   1.129   2.534  0.0839  1.0802  3.8737
  396MOL0     H53432   1.316   1.076   2.329 -0.8697 -0.3347  0.4968
  396MOL0     H53433   1.167   1.080   2.416 -0.9349 -0.4294  0.4735
  396MOL0     H53434   1.271   0.906   2.574  0.1973 -0.0876  0.4122
  396MOL0     H53435   1.203   0.865   2.418 -0.3750  2.0297  0.1314
  396MOL0     H53436   1.382   0.738   2.497  1.1976 -0.4241  1.1714
  396MOL0     H53437   1.502   0.869   2.495 -1.0257  2.4628 -0.7798
  396MOL0     H53438   1.346   0.758   2.254 -1.4032  1.9647 -0.7719
  396MOL0     H53439   1.436   0.911   2.239 -1.9286 -0.2010 -0.6830
  396MOL0     H53440   1.385   1.803   2.653  0.1968  2.5102 -1.0874
  396MOL0     H53441   1.555   1.958   2.565 -3.4932  2.3173 -3.3479
  396MOL0     H53442   1.852   2.005   2.167 -0.4719 -1.1288 -0.2795
  396MOL0     H53443   2.019   2.145   2.083 -4.3336  3.3230  1.4825
  396MOL0     H53444   2.155   3.557   3.035  0.6848  0.4428  0.2187
  396MOL0     H53445   2.273   3.579   3.255 -3.2017 -4.4854 -3.1047
  396MOL0     H53446   2.658   3.608   3.490 -3.8894 -2.0456  2.3032
  396MOL0     H53447   2.770   3.635   3.690  3.5587  2.0580 -0.4788
  396MOL0     H53448   2.754   4.035   3.873 -3.3695  1.0287  2.9653
  396MOL0     H53449   2.890   3.937   3.941  0.3333 -1.9035  0.4505
  396MOL0     H53450   2.769   3.867   4.114  0.7888 -2.3152 -1.8168
  396MOL0     H53451   2.619   3.956   4.041  1.6922  1.3220 -1.6309
  396MOL0     H53452   2.717   4.172   4.080  1.5977  2.4828  2.8700
  396MOL0     H53453   2.879   4.093   4.100  0.4038 -1.8406 -2.4862
  396MOL0     H53454   2.631   4.122   4.280  1.1256 -0.9788  4.4160
  396MOL0     H53455   2.755   3.998   4.324  1.0807  0.9979  1.5612
  396MOL0     H53456   2.935   4.359   4.431 -2.3783  2.1801  0.1911
  396MOL0     H53457   2.626   4.032   3.723 -1.5110 -0.2194 -0.5724
  396MOL0     H53458   2.381   4.052   3.496  0.4670 -2.0441  2.5464
  396MOL0     H53459   2.520   4.145   3.546 -0.3297  0.8110 -0.5023
  396MOL0     H53460   2.515   4.056   3.389 -2.1263 -0.2060 -1.0317
  397MOL0     O53461   9.582   7.870  10.481  0.0856  0.3268 -0.8932
  397MOL0     C53462   9.678   7.795  10.451  0.9088  0.1410  0.0340
  397MOL0     O53463   9.673   7.664  10.434 -0.6670 -0.0728 -0.1675
  397MOL0     C53464   9.560   7.589  10.458 -0.0885  1.0175  0.2108
  397MOL0     C53465   9.481   7.589  10.575 -0.8446 -0.0537  1.0124
  397MOL0     C53466   9.369   7.514  10.596 -0.0585 -0.0744 -0.0607
  397MOL0     C53467   9.340   7.407  10.499 -0.2215  0.7865 -0.9776
  397MOL0     O53468   9.229   7.327  10.515  0.5995  0.2143 -0.3236
  397MOL0     C53469   9.204   7.209  10.431  0.1787 -0.1266  0.3613
  397MOL0     C53470   9.055   7.184  10.404 -0.6047 -0.0267 -0.0335
  397MOL0     C53471   9.038   7.057  10.315 -0.4450 -0.0220 -0.5597
  397MOL0     C53472   8.995   6.935  10.397  0.6730  0.2834  0.2469
  397MOL0     C53473   8.932   6.835  10.307 -0.3913 -0.0894  0.0547
  397MOL0     C53474   8.778   6.858  10.298 -0.1257 -0.1205  0.5398
  397MOL0     C53475   8.708   6.746  10.211  0.1442 -0.3427 -1.5743
  397MOL0     C53476   8.561   6.732  10.255 -1.0029  1.2985  0.0448
  397MOL0     N53477   8.488   6.666  10.154  0.2933  0.2507  0.5901
  397MOL0     C53478   8.394   6.738  10.077  0.3217  0.3639 -0.5113
  397MOL0     C53479   8.322   6.631  10.020  0.0251 -0.9615  0.3613
  397MOL0     C53480   8.230   6.661   9.903  1.2349  1.0129  0.0939
  397MOL0     C53481   8.291   6.626   9.764 -0.0444  0.2323 -0.4187
  397MOL0     C53482   8.189   6.675   9.654 -0.3094  0.5876 -0.4504
  397MOL0     C53483   8.096   6.558   9.620 -0.3815 -0.7390 -0.0279
  397MOL0     O53484   7.968   6.610   9.593 -0.7299 -0.0058 -0.0122
  397MOL0     C53485   7.919   6.630   9.464 -0.1581  0.1871  0.0648
  397MOL0     C53486   7.992   6.620   9.343  0.0299  0.8535 -0.6750
  397MOL0     C53487   7.944   6.666   9.220  1.4751  0.4695 -0.3498
  397MOL0     C53488   7.807   6.705   9.213 -0.1530 -0.2136  0.0078
  397MOL0     C53489   7.734   6.737   9.084  0.3304  0.2603 -0.2575
  397MOL0     O53490   7.600   6.733   9.083  0.0392  0.4642  0.2617
  397MOL0     C53491   7.529   6.770   8.971  0.1610 -0.7967 -0.7002
  397MOL0     C53492   7.423   6.687   8.944  0.6053  0.4383  0.3542
  397MOL0     C53493   7.349   6.699   8.832  0.2069  0.2222  0.3361
  397MOL0     C53494   7.363   6.806   8.739  0.9171  0.3856  1.2131
  397MOL0     O53495   7.265   6.808   8.639  1.0857  0.3609  0.7075
  397MOL0     C53496   7.316   6.862   8.519  0.1026  1.1006 -0.5254
  397MOL0     C53497   7.261   6.778   8.404 -0.0243  0.0732 -0.6471
  397MOL0     C53498   7.321   6.828   8.259 -1.5141 -0.3852  0.1727
  397MOL0     C53499   7.281   6.978   8.244 -0.5504 -0.5309 -0.5385
  397MOL0     C53500   7.403   7.080   8.237  0.4564  1.1049 -0.0623
  397MOL0     C53501   7.458   7.080   8.093  0.5396  0.9652 -0.2820
  397MOL0     C53502   7.609   7.091   8.089 -1.1967 -0.2068  0.3096
  397MOL0     C53503   7.648   7.098   7.938 -0.2766  0.4493 -0.3706
  397MOL0    Cl53504   7.595   7.242   7.850 -0.5092  0.2981 -0.1865
  397MOL0     C53505   7.481   6.889   8.766  0.4354 -0.2517  0.6442
  397MOL0     C53506   7.557   6.870   8.881  0.4763 -1.1707  0.3272
  397MOL0     O53507   7.800   6.766   8.989  0.1451 -0.3129 -0.0812
  397MOL0     C53508   7.732   6.686   9.324 -0.3766  0.5077  0.1263
  397MOL0     C53509   7.785   6.645   9.454  1.4152  0.2139 -0.0237
  397MOL0     N53510   8.367   6.509  10.059 -0.6244  0.5900 -0.2774
  397MOL0     N53511   8.465   6.531  10.143  0.2500 -0.3185 -0.2365
  397MOL0     C53512   9.412   7.409  10.375 -0.0668  0.0629 -0.2640
  397MOL0     C53513   9.527   7.492  10.361 -0.0350 -0.1167  0.1221
  397MOL0     C53514   9.821   7.857  10.443  0.6119  1.0215  0.5977
  397MOL0     C53515   9.940   7.776  10.416 -0.1865  0.2805 -0.1770
  397MOL0     C53516  10.062   7.823  10.412 -0.3730 -0.1762  0.4791
  397MOL0     C53517  10.084   7.963  10.416 -0.0172 -0.7925  0.1929
  397MOL0     O53518  10.210   8.011  10.392 -0.8799  0.0773 -0.1269
  397MOL0     C53519  10.242   8.152  10.391 -0.4456  0.2269 -0.2889
  397MOL0     C53520  10.387   8.170  10.367 -0.6214  0.6916  0.0912
  397MOL0     C53521  10.430   8.135  10.225 -0.0525  0.1764  0.8579
  397MOL0     C53522  10.400   8.248  10.125  0.1597 -0.3116 -1.1418
  397MOL0     C53523  10.458   8.222   9.990 -0.2135 -1.5517  0.3461
  397MOL0     C53524  10.496   8.235   9.875  0.8059 -0.2147 -0.3015
  397MOL0     C53525   9.972   8.048  10.435 -0.3461 -0.3191 -0.6637
  397MOL0     C53526   9.847   7.993  10.453 -0.0811 -0.4745  0.6874
  397MOL0     C53527   9.748   8.105  10.490  0.8902 -0.2146  0.1529
  397MOL0     H53528   9.497   7.659  10.657  2.2649  0.1090  0.4096
  397MOL0     H53529   9.322   7.529  10.693  0.6908  2.9910 -0.0897
  397MOL0     H53530   9.263   7.219  10.340 -2.9542  0.1645 -1.7644
  397MOL0     H53531   9.232   7.115  10.480 -0.7033 -1.6849 -1.9614
  397MOL0     H53532   9.015   7.273  10.356  3.8187  3.6661  2.3064
  397MOL0     H53533   9.018   7.168  10.506  1.4938  0.8941  0.9364
  397MOL0     H53534   9.128   7.024  10.262  1.2813  0.8283  1.7322
  397MOL0     H53535   8.981   7.091  10.227  1.8530  3.2288 -0.9452
  397MOL0     H53536   9.093   6.900  10.431  0.6811  0.0351 -0.0385
  397MOL0     H53537   8.941   6.960  10.490  0.9092 -1.6907  0.9639
  397MOL0     H53538   8.978   6.836  10.208  3.5597  0.5402  1.6735
  397MOL0     H53539   8.954   6.737  10.351  0.1454 -0.6585 -1.4059
  397MOL0     H53540   8.735   6.855  10.398  2.8122 -0.1508  1.8932
  397MOL0     H53541   8.760   6.958  10.257 -2.3182 -0.0681  1.4986
  397MOL0     H53542   8.763   6.651  10.212  4.2386  1.8168  0.4575
  397MOL0     H53543   8.715   6.775  10.106 -0.3029  1.2869 -1.1709
  397MOL0     H53544   8.566   6.690  10.356 -3.8615 -0.7361 -0.5137
  397MOL0     H53545   8.500   6.822  10.262 -3.3756 -0.1648 -0.6110
  397MOL0     H53546   8.366   6.843  10.073 -2.4289 -0.1834  1.1346
  397MOL0     H53547   8.150   6.588   9.917  1.7521  0.7079  1.7843
  397MOL0     H53548   8.187   6.761   9.904 -0.1221  0.4449  1.1097
  397MOL0     H53549   8.393   6.661   9.747  1.0679 -1.7074  1.7382
  397MOL0     H53550   8.307   6.518   9.766 -0.5415  0.1641  0.8650
  397MOL0     H53551   8.247   6.682   9.562 -1.7068  0.6937 -1.3498
  397MOL0     H53552   8.136   6.769   9.673 -1.3137 -0.4846  2.7092
  397MOL0     H53553   8.099   6.476   9.693 -1.4774 -2.7846 -2.1202
  397MOL0     H53554   8.138   6.515   9.528  2.4142  3.5396 -1.0534
  397MOL0     H53555   8.099   6.605   9.346  0.0293  1.0345  0.3588
  397MOL0     H53556   8.012   6.686   9.138 -1.4228  3.9485 -2.1760
  397MOL0     H53557   7.413   6.602   9.011 -1.3164 -1.4687 -2.1329
  397MOL0     H53558   7.267   6.627   8.837 -0.2673  0.5052 -2.2183
  397MOL0     H53559   7.305   6.971   8.517  1.1143  1.2050 -2.3020
  397MOL0     H53560   7.424   6.847   8.512  0.9147  6.1489 -4.0261
  397MOL0     H53561   7.307   6.679   8.416 -1.1263 -0.9091 -3.7466
  397MOL0     H53562   7.153   6.768   8.418  0.3052  0.2202  3.0636
  397MOL0     H53563   7.428   6.815   8.245 -0.9804 -1.1239  3.9728
  397MOL0     H53564   7.282   6.758   8.184 -0.9132 -0.7583  0.2000
  397MOL0     H53565   7.210   7.021   8.315 -0.7883  2.7207 -2.5260
  397MOL0     H53566   7.237   6.991   8.144 -1.6343 -0.2663 -0.0485
  397MOL0     H53567   7.475   7.065   8.318 -1.7868  0.9462  2.0295
  397MOL0     H53568   7.361   7.177   8.268 -1.5772  0.6060 -1.0428
  397MOL0     H53569   7.439   6.980   8.053  0.5206 -0.8539  3.8234
  397MOL0     H53570   7.402   7.154   8.036  2.2051  2.0779 -0.5433
  397MOL0     H53571   7.656   7.003   8.133 -2.0032 -0.3213  0.9642
  397MOL0     H53572   7.639   7.177   8.149 -0.6790 -1.3731  1.7784
  397MOL0     H53573   7.756   7.080   7.948  0.0995  1.5236 -2.0726
  397MOL0     H53574   7.605   7.020   7.874 -1.9826  0.7578  0.3656
  397MOL0     H53575   7.492   6.976   8.701 -1.9250 -0.2890  0.0673
  397MOL0     H53576   7.630   6.948   8.903 -0.7966  0.9720 -2.4292
  397MOL0     H53577   7.625   6.705   9.323 -0.6134 -0.7203  0.4656
  397MOL0     H53578   7.711   6.651   9.533  1.5276 -1.2770  0.2381
  397MOL0     H53579   9.412   7.347  10.286  0.2001  1.5242 -1.3045
  397MOL0     H53580   9.582   7.500  10.267 -1.6809 -0.2094 -0.8825
  397MOL0     H53581   9.925   7.669  10.406 -0.4425  0.2319  0.6422
  397MOL0     H53582  10.152   7.764  10.398 -0.0685  0.0994  1.2524
  397MOL0     H53583  10.216   8.185  10.492  0.0521  1.5114 -0.5661
  397MOL0     H53584  10.172   8.198  10.322 -2.5272  0.1414  1.6568
  397MOL0     H53585  10.450   8.110  10.434  0.1062  0.7918 -0.4841
  397MOL0     H53586  10.424   8.272  10.383  1.8072 -0.2049  0.5729
  397MOL0     H53587  10.387   8.042  10.187  1.3450 -1.2780  2.6249
  397MOL0     H53588  10.539   8.123  10.229  0.1990  0.9648 -1.7637
  397MOL0     H53589  10.292   8.268  10.116  0.5570  1.6586 -2.2342
  397MOL0     H53590  10.455   8.337  10.157 -3.0833  1.5716 -0.3414
  397MOL0     H53591  10.506   8.234   9.768 -4.4469 -0.7122 -1.0209
  397MOL0     H53592   9.992   8.154  10.431  1.7221 -0.7061 -2.3559
  397MOL0     H53593   9.656   8.099  10.431 -0.8061 -0.2427  2.6730
  397MOL0     H53594   9.712   8.088  10.592  1.1860  0.4375  0.3714
  397MOL0     H53595   9.786   8.207  10.480  0.2022  0.3815  2.9657
  398MOL0     O53596   8.137   1.222   6.890 -0.6397  0.0269 -0.4607
  398MOL0     C53597   8.027   1.194   6.853 -0.5443  0.2197 -0.2707
  398MOL0     O53598   7.909   1.214   6.928 -0.4382 -0.1391  0.3359
  398MOL0     C53599   7.903   1.267   7.055 -0.5432  0.2689  0.2595
  398MOL0     C53600   7.916   1.183   7.161  0.3983 -0.8088 -0.6414
  398MOL0     C53601   7.895   1.227   7.289  0.6603 -0.7519 -0.6303
  398MOL0     C53602   7.861   1.362   7.308  0.0225  0.1902 -0.0210
  398MOL0     O53603   7.827   1.400   7.436  0.4345  0.0396 -0.0549
  398MOL0     C53604   7.725   1.504   7.460  0.1573  0.1575 -0.0123
  398MOL0     C53605   7.786   1.641   7.487 -0.9278 -0.8457 -0.2695
  398MOL0     C53606   7.687   1.744   7.543  0.2504 -0.0558  0.2718
  398MOL0     C53607   7.763   1.847   7.614  0.2990 -0.0591 -0.3675
  398MOL0     C53608   7.699   1.895   7.745 -0.1793 -0.4494 -0.0111
  398MOL0     C53609   7.561   1.956   7.720 -0.8587 -1.0845  0.8174
  398MOL0     C53610   7.505   2.020   7.848 -0.8278 -0.7945 -1.3988
  398MOL0     C53611   7.462   1.930   7.968  0.4609 -0.4403  0.1879
  398MOL0     N53612   7.372   1.823   7.916 -0.1859  0.3867  0.2195
  398MOL0     C53613   7.250   1.844   7.853  0.0463 -0.0078 -0.5077
  398MOL0     C53614   7.193   1.720   7.853 -0.0527 -0.0118  0.7163
  398MOL0     C53615   7.057   1.678   7.787 -0.4369  0.9700  0.8868
  398MOL0     C53616   7.077   1.620   7.644  0.1081 -0.0909  0.3718
  398MOL0     C53617   7.022   1.475   7.636  0.6058 -0.8553  0.2205
  398MOL0     C53618   7.101   1.382   7.730 -0.2160  1.1134 -0.1530
  398MOL0     O53619   7.070   1.244   7.697  1.3465  0.3624  0.1914
  398MOL0     C53620   7.132   1.137   7.760  0.2052  0.5864 -0.5449
  398MOL0     C53621   7.253   1.139   7.839  0.8487  0.0150 -0.3336
  398MOL0     C53622   7.308   1.019   7.891 -1.2012 -0.3074  1.2436
  398MOL0     C53623   7.259   0.892   7.853  1.1233  0.5678 -0.0654
  398MOL0     C53624   7.312   0.768   7.906  0.0522 -0.1158  0.6834
  398MOL0     O53625   7.235   0.659   7.920 -0.5727 -0.9917 -0.1184
  398MOL0     C53626   7.286   0.560   7.997 -0.2450  0.0926 -0.7678
  398MOL0     C53627   7.332   0.577   8.133  1.3413  0.3447  1.0889
  398MOL0     C53628   7.415   0.475   8.183  0.0699  0.6074  0.5699
  398MOL0     C53629   7.417   0.345   8.134  1.1186  0.3166 -1.1233
  398MOL0     O53630   7.479   0.239   8.195  0.4457 -0.0103  0.5158
  398MOL0     C53631   7.433   0.220   8.322  0.0692 -0.2673  0.6443
  398MOL0     C53632   7.529   0.124   8.397 -1.0880  0.1250  0.9071
  398MOL0     C53633   7.490  -0.019   8.345  0.1153 -0.5886  0.6390
  398MOL0     C53634   7.543  -0.134   8.441  0.9395  0.3023  0.7786
  398MOL0     C53635   7.438  -0.209   8.518  0.3734  0.5922  0.0118
  398MOL0     C53636   7.493  -0.295   8.627  0.4369 -0.1454  0.8122
  398MOL0     C53637   7.373  -0.326   8.729 -0.0088  0.2564  0.6906
  398MOL0     C53638   7.435  -0.355   8.865  0.2915  0.4295 -0.4108
  398MOL0    Cl53639   7.303  -0.383   8.981 -0.1388 -0.0833 -0.1303
  398MOL0     C53640   7.362   0.332   8.004  0.1042  0.4447  0.3136
  398MOL0     C53641   7.310   0.434   7.927 -0.5983  0.0056 -0.6999
  398MOL0     O53642   7.430   0.774   7.937 -0.6889 -0.7310  0.1195
  398MOL0     C53643   7.149   0.896   7.773 -0.5813  0.5138 -0.0649
  398MOL0     C53644   7.086   1.012   7.725  0.2698 -0.3768 -0.3991
  398MOL0     N53645   7.287   1.630   7.900  0.5032  0.2715  1.0782
  398MOL0     N53646   7.392   1.689   7.944  0.4942 -0.0565 -0.3109
  398MOL0     C53647   7.854   1.449   7.209  0.5572 -0.6020 -0.6923
  398MOL0     C53648   7.871   1.407   7.074  0.5293  0.4821 -0.0285
  398MOL0     C53649   8.012   1.139   6.712 -0.5704  0.9123 -0.4330
  398MOL0     C53650   7.887   1.157   6.658 -0.5744  1.0925  0.5365
  398MOL0     C53651   7.859   1.133   6.526 -0.3418  0.2941 -0.2785
  398MOL0     C53652   7.958   1.085   6.437  0.1510 -0.6993 -0.1780
  398MOL0     O53653   7.934   1.080   6.301 -0.1344 -0.2109 -0.1402
  398MOL0     C53654   7.881   1.185   6.222 -0.3083  0.0502  0.1972
  398MOL0     C53655   7.934   1.187   6.084  0.4283 -0.1622 -0.0243
  398MOL0     C53656   8.088   1.213   6.101 -0.1626 -0.4147 -0.1200
  398MOL0     C53657   8.154   1.212   5.968 -0.5116  0.2067  0.6704
  398MOL0     C53658   8.188   1.076   5.924 -0.7982  0.1486 -0.3382
  398MOL0     C53659   8.233   0.974   5.883  0.4173  0.1926 -0.1223
  398MOL0     C53660   8.083   1.058   6.487  0.1467  0.4346  0.0184
  398MOL0     C53661   8.114   1.088   6.621 -0.0348  0.2353 -0.1302
  398MOL0     C53662   8.268   1.092   6.659 -0.7802  0.4189  0.2447
  398MOL0     H53663   7.934   1.078   7.140 -1.2420 -1.8789  2.5899
  398MOL0     H53664   7.899   1.179   7.387 -0.7198 -0.9627 -0.6436
  398MOL0     H53665   7.648   1.510   7.383  1.2893  3.3789 -1.0218
  398MOL0     H53666   7.666   1.495   7.553  1.5867  6.0183  1.8951
  398MOL0     H53667   7.831   1.669   7.391 -0.7078 -1.9273 -0.4972
  398MOL0     H53668   7.873   1.630   7.552 -1.5284  0.0284  0.7150
  398MOL0     H53669   7.621   1.703   7.621 -2.1323  1.1634 -1.0096
  398MOL0     H53670   7.637   1.779   7.453 -1.3226  0.9507  1.4697
  398MOL0     H53671   7.866   1.816   7.631  0.0579 -2.1996 -2.2595
  398MOL0     H53672   7.772   1.924   7.536  1.8523  0.4136  0.2413
  398MOL0     H53673   7.693   1.817   7.821  1.8117 -0.7803 -0.1387
  398MOL0     H53674   7.762   1.976   7.784  0.3488 -0.5200 -0.6983
  398MOL0     H53675   7.573   2.024   7.635 -1.4642 -0.9089  0.8713
  398MOL0     H53676   7.498   1.876   7.680 -0.3065 -1.3461  0.4675
  398MOL0     H53677   7.419   2.077   7.811 -0.5396  1.4610  1.0889
  398MOL0     H53678   7.582   2.089   7.883 -0.2945 -1.9437 -0.2340
  398MOL0     H53679   7.547   1.879   8.015  0.8755  0.2802  0.2447
  398MOL0     H53680   7.409   1.984   8.046 -1.3494  1.0961 -1.9666
  398MOL0     H53681   7.210   1.938   7.815 -0.2426 -0.1859 -0.6408
  398MOL0     H53682   7.003   1.608   7.850 -0.4549 -0.9409 -1.1412
  398MOL0     H53683   6.995   1.766   7.768  0.0460  0.6496 -2.9255
  398MOL0     H53684   7.035   1.689   7.570 -1.6852 -0.4808  0.9864
  398MOL0     H53685   7.184   1.614   7.622 -0.3284  0.8372 -2.4153
  398MOL0     H53686   7.043   1.440   7.535  1.5652  3.6420 -1.3789
  398MOL0     H53687   6.914   1.469   7.651  0.2949  3.4838  1.2231
  398MOL0     H53688   7.074   1.414   7.832 -0.6161  0.2354  0.0243
  398MOL0     H53689   7.208   1.394   7.713 -0.0060  0.3503  0.5926
  398MOL0     H53690   7.298   1.231   7.876 -2.8325  2.0048 -0.3898
  398MOL0     H53691   7.386   1.039   7.965  1.6153 -0.0806 -1.5821
  398MOL0     H53692   7.334   0.678   8.172  0.6550  0.2524  1.3775
  398MOL0     H53693   7.458   0.502   8.279 -0.3576  1.4141  0.5430
  398MOL0     H53694   7.435   0.310   8.383  0.2549  1.6631 -2.0544
  398MOL0     H53695   7.332   0.182   8.308  0.5607 -0.4719 -3.5346
  398MOL0     H53696   7.629   0.158   8.371 -0.8989 -0.4708  0.8300
  398MOL0     H53697   7.526   0.126   8.506  2.4038  2.4073  1.0933
  398MOL0     H53698   7.382  -0.033   8.341 -0.1617  0.2204  3.2378
  398MOL0     H53699   7.530  -0.037   8.245 -0.9116  0.8869 -0.0563
  398MOL0     H53700   7.627  -0.102   8.504  0.1395 -0.5545  2.3114
  398MOL0     H53701   7.588  -0.203   8.369 -2.3764  2.0010 -3.3371
  398MOL0     H53702   7.364  -0.264   8.458  0.2686 -1.6618  2.0121
  398MOL0     H53703   7.376  -0.131   8.562 -0.1832 -0.9999  2.2944
  398MOL0     H53704   7.524  -0.390   8.584  2.0543  1.0916 -0.9080
  398MOL0     H53705   7.578  -0.261   8.687 -1.7210  0.0910  4.0041
  398MOL0     H53706   7.317  -0.411   8.689  1.8140 -0.3041 -0.8145
  398MOL0     H53707   7.297  -0.247   8.729 -2.8188 -2.2613  2.3068
  398MOL0     H53708   7.498  -0.443   8.850 -3.4977 -2.0911 -3.3851
  398MOL0     H53709   7.492  -0.267   8.896 -0.4342  0.7170  0.1603
  398MOL0     H53710   7.374   0.232   7.963  0.1769  0.7753 -0.5081
  398MOL0     H53711   7.273   0.431   7.825  0.8849  3.1590 -1.4610
  398MOL0     H53712   7.112   0.800   7.739 -1.1188  1.3429 -1.9155
  398MOL0     H53713   6.993   1.000   7.670 -0.2825  1.0856  0.1706
  398MOL0     H53714   7.829   1.555   7.214  1.9094 -0.3213  1.9240
  398MOL0     H53715   7.855   1.475   6.991  0.2989 -1.1214 -1.3728
  398MOL0     H53716   7.806   1.185   6.725  2.0577  1.5005  3.8416
  398MOL0     H53717   7.760   1.166   6.495  0.1710  1.2913 -0.9133
  398MOL0     H53718   7.897   1.286   6.263 -0.2264 -0.2532  0.9392
  398MOL0     H53719   7.775   1.159   6.212 -0.2194  0.3543 -2.1081
  398MOL0     H53720   7.884   1.270   6.034 -2.5029  0.1727  3.0656
  398MOL0     H53721   7.907   1.096   6.030 -2.5255  0.2920  0.5274
  398MOL0     H53722   8.143   1.154   6.175 -1.2526  3.0680  3.9099
  398MOL0     H53723   8.107   1.315   6.136  2.5271 -0.5807 -0.8718
  398MOL0     H53724   8.085   1.254   5.894  0.3563  1.2685  0.4461
  398MOL0     H53725   8.241   1.277   5.958  0.6434 -1.5239 -1.4000
  398MOL0     H53726   8.252   0.883   5.831  3.2090  1.2147 -1.0642
  398MOL0     H53727   8.150   1.016   6.412  2.1374 -1.0634  2.4369
  398MOL0     H53728   8.300   1.197   6.656  1.4542 -0.2062  0.7550
  398MOL0     H53729   8.292   1.048   6.756  0.5562 -0.4901 -0.4717
  398MOL0     H53730   8.326   1.039   6.582  0.8998 -0.2582  1.9058
  399MOL0     O53731  11.184   2.262   3.555  1.1451 -0.2482  0.4294
  399MOL0     C53732  11.231   2.302   3.447  0.1620  0.2965  0.7535
  399MOL0     O53733  11.346   2.374   3.437 -0.0677  0.1217 -0.9588
  399MOL0     C53734  11.422   2.399   3.553 -0.7692  0.4606 -0.4495
  399MOL0     C53735  11.552   2.346   3.562  0.9530  1.2387  0.4913
  399MOL0     C53736  11.636   2.393   3.668 -0.3016  0.5053  0.2247
  399MOL0     C53737  11.599   2.483   3.763 -0.0481  0.2089  0.3219
  399MOL0     O53738  11.694   2.512   3.856 -0.2378 -0.5458  0.7905
  399MOL0     C53739  11.666   2.479   3.994 -0.0759 -0.7274  0.2749
  399MOL0     C53740  11.615   2.596   4.075 -1.5767 -0.1824  0.4248
  399MOL0     C53741  11.705   2.696   4.152 -0.3039  0.9451 -0.9887
  399MOL0     C53742  11.813   2.764   4.073 -0.3734 -0.0729  0.4037
  399MOL0     C53743  11.895   2.877   4.134  0.3604 -0.0839  0.3787
  399MOL0     C53744  11.996   2.947   4.032  0.6233  0.2195 -0.7778
  399MOL0     C53745  12.084   3.043   4.109 -0.0105 -0.1451  1.4089
  399MOL0     C53746  12.211   2.964   4.142 -0.9728 -0.8595  0.3657
  399MOL0     N53747  12.300   3.050   4.215  0.6452 -0.3091 -0.2384
  399MOL0     C53748  12.333   3.057   4.353 -0.1047  0.6939  0.9978
  399MOL0     C53749  12.436   3.145   4.359  0.7975  0.2869 -0.0347
  399MOL0     C53750  12.516   3.201   4.482  0.2497  0.1187 -0.4158
  399MOL0     C53751  12.629   3.104   4.504  1.1966 -0.4679  0.1849
  399MOL0     C53752  12.726   3.058   4.388 -0.4439 -0.0277 -0.2225
  399MOL0     C53753  12.792   3.186   4.329 -0.5643  0.0343 -1.5061
  399MOL0     O53754  12.852   3.152   4.210 -0.0638  0.5553  0.4051
  399MOL0     C53755  12.928   3.247   4.145 -0.1242 -0.1347 -0.2418
  399MOL0     C53756  12.950   3.383   4.180 -0.1336  0.3263 -0.2096
  399MOL0     C53757  13.041   3.467   4.113  0.9832 -0.4638  0.1898
  399MOL0     C53758  13.099   3.433   3.996  0.8196  0.2802  0.4815
  399MOL0     C53759  13.161   3.527   3.904  0.0944  0.5573  0.4406
  399MOL0     O53760  13.202   3.486   3.781 -0.2595  0.0664  0.8970
  399MOL0     C53761  13.225   3.581   3.676 -0.1681  0.1057 -1.0565
  399MOL0     C53762  13.338   3.564   3.597  0.2693  0.8305 -0.1908
  399MOL0     C53763  13.356   3.636   3.487 -0.4775 -0.2062  0.2646
  399MOL0     C53764  13.264   3.732   3.444 -0.7393 -0.9079 -0.1000
  399MOL0     O53765  13.282   3.804   3.325 -0.3449  0.1174  0.0896
  399MOL0     C53766  13.290   3.719   3.204  0.1630  0.2528  0.0095
  399MOL0     C53767  13.433   3.708   3.150 -0.4454  0.8937 -0.5815
  399MOL0     C53768  13.512   3.826   3.153 -0.0453 -1.1220 -0.2995
  399MOL0     C53769  13.439   3.946   3.081  0.4770  0.6796 -0.5067
  399MOL0     C53770  13.546   4.047   3.034 -0.2894  1.3410  0.0199
  399MOL0     C53771  13.625   4.003   2.912  0.5585  0.5014 -0.8009
  399MOL0     C53772  13.771   4.047   2.921  0.9080  0.4978 -0.0131
  399MOL0     C53773  13.854   4.001   3.040 -0.4614 -0.2931  1.2284
  399MOL0    Cl53774  14.030   4.033   2.990 -0.2784  0.2808 -0.4610
  399MOL0     C53775  13.149   3.758   3.521  0.3439  0.4395 -0.1123
  399MOL0     C53776  13.133   3.681   3.641 -0.0220 -0.8153 -0.0800
  399MOL0     O53777  13.169   3.642   3.942 -0.4470 -1.2278  0.3954
  399MOL0     C53778  13.088   3.298   3.960 -0.5862  0.8481  0.2555
  399MOL0     C53779  13.005   3.214   4.031  0.4667  0.0803  0.0335
  399MOL0     N53780  12.461   3.198   4.236  0.3509 -0.3959 -0.8441
  399MOL0     N53781  12.382   3.139   4.153 -1.2333  0.2180  0.2990
  399MOL0     C53782  11.463   2.521   3.754 -0.2322 -0.8373 -1.0654
  399MOL0     C53783  11.370   2.485   3.657  0.1017 -0.6859 -0.3307
  399MOL0     C53784  11.150   2.265   3.322 -0.5838 -0.5021 -1.0620
  399MOL0     C53785  11.027   2.215   3.343  0.1912  0.0570 -0.3729
  399MOL0     C53786  10.942   2.190   3.228 -0.7053 -0.4373 -0.5908
  399MOL0     C53787  10.991   2.216   3.098  0.3888 -1.3412  0.1965
  399MOL0     O53788  10.920   2.198   2.984  0.1348 -0.2173  0.4886
  399MOL0     C53789  10.795   2.127   2.987  0.3584  0.2956  0.5415
  399MOL0     C53790  10.768   2.066   2.851 -0.4334  0.5043  0.2577
  399MOL0     C53791  10.821   2.145   2.737  0.8601 -0.6986 -0.1954
  399MOL0     C53792  10.713   2.170   2.632 -0.7367  0.0747  0.4083
  399MOL0     C53793  10.626   2.284   2.669 -0.5272  0.5031 -0.8240
  399MOL0     C53794  10.560   2.361   2.721 -0.5590  0.0316  0.4837
  399MOL0     C53795  11.121   2.257   3.090  0.4860  0.6666  0.5614
  399MOL0     C53796  11.197   2.293   3.195  0.3684 -0.3689  0.1275
  399MOL0     C53797  11.335   2.344   3.153 -0.8179 -0.0754 -0.0524
  399MOL0     H53798  11.588   2.265   3.499 -2.8228  1.8967 -2.9459
  399MOL0     H53799  11.737   2.353   3.673 -1.1495 -1.7479  0.4792
  399MOL0     H53800  11.602   2.392   4.008 -2.5583  1.3831  3.6147
  399MOL0     H53801  11.765   2.446   4.028 -0.2688 -2.0421 -0.3567
  399MOL0     H53802  11.549   2.551   4.150  0.0844  2.0477  3.4378
  399MOL0     H53803  11.548   2.649   4.007  1.1275 -0.4420 -2.6761
  399MOL0     H53804  11.765   2.634   4.219 -0.0099 -0.3731 -2.4047
  399MOL0     H53805  11.642   2.774   4.195 -0.6928  2.1222 -3.5057
  399MOL0     H53806  11.890   2.687   4.064 -0.5539 -0.3546  1.1852
  399MOL0     H53807  11.774   2.785   3.973  1.7950 -1.8053 -0.8957
  399MOL0     H53808  11.820   2.945   4.175 -0.7780 -1.8460  1.3277
  399MOL0     H53809  11.949   2.834   4.219  0.3242 -0.1175  0.3852
  399MOL0     H53810  12.032   2.864   3.971 -1.5935 -0.1841 -1.6232
  399MOL0     H53811  11.944   2.999   3.951 -0.8779 -0.0150 -0.0010
  399MOL0     H53812  12.031   3.080   4.197  1.9795  2.4977  1.6087
  399MOL0     H53813  12.122   3.133   4.060 -0.0277  0.6353  2.7770
  399MOL0     H53814  12.179   2.871   4.189 -0.7570 -0.6779  0.8733
  399MOL0     H53815  12.254   2.943   4.043 -1.5710  0.2127 -0.1493
  399MOL0     H53816  12.295   2.995   4.433 -0.4638 -2.2891 -1.2991
  399MOL0     H53817  12.567   3.296   4.459  1.8982 -0.8036 -0.7562
  399MOL0     H53818  12.448   3.219   4.565  1.1019  2.7362 -0.1693
  399MOL0     H53819  12.687   3.157   4.579 -0.7270  0.9973  0.7008
  399MOL0     H53820  12.590   3.011   4.546 -2.9274  0.5783 -0.8791
  399MOL0     H53821  12.675   3.008   4.304  0.7031 -1.0097 -0.3680
  399MOL0     H53822  12.801   2.987   4.425  1.1771  0.7128 -1.9185
  399MOL0     H53823  12.856   3.225   4.408 -0.0642  1.1758 -2.4364
  399MOL0     H53824  12.715   3.255   4.294 -0.6652 -1.0200 -3.5426
  399MOL0     H53825  12.903   3.419   4.271  2.0884  2.3173  0.2366
  399MOL0     H53826  13.042   3.565   4.160 -5.3649 -0.2771  0.8181
  399MOL0     H53827  13.416   3.493   3.622 -0.2783  0.2835 -0.0064
  399MOL0     H53828  13.455   3.636   3.442 -1.2053 -1.1835 -1.4454
  399MOL0     H53829  13.255   3.615   3.206  3.2015 -1.0612 -3.3763
  399MOL0     H53830  13.229   3.760   3.123 -1.7437  0.0456  1.2731
  399MOL0     H53831  13.492   3.640   3.212  0.7432  3.4803  1.3252
  399MOL0     H53832  13.418   3.671   3.048 -1.4971 -1.2189  0.2824
  399MOL0     H53833  13.531   3.865   3.253  1.3351  2.1145 -1.6656
  399MOL0     H53834  13.616   3.808   3.122  0.1318 -0.7954  0.0842
  399MOL0     H53835  13.373   3.999   3.151  1.6969  4.1259 -1.7354
  399MOL0     H53836  13.392   3.908   2.989  2.0207  0.6151 -1.2896
  399MOL0     H53837  13.616   4.070   3.115  0.8100  2.0486 -1.0860
  399MOL0     H53838  13.490   4.138   3.015 -1.0124  1.1120  0.9759
  399MOL0     H53839  13.619   3.894   2.901  3.1902  0.3948 -1.8532
  399MOL0     H53840  13.570   4.051   2.830 -0.8592  1.9903  0.9234
  399MOL0     H53841  13.777   4.156   2.915 -0.6845  0.6962  1.3074
  399MOL0     H53842  13.806   4.005   2.827  5.3570  2.0085  0.7571
  399MOL0     H53843  13.844   4.063   3.130 -0.9167  1.1992  0.1735
  399MOL0     H53844  13.835   3.896   3.062 -1.8639 -0.5369 -0.8999
  399MOL0     H53845  13.077   3.825   3.477  0.0300  0.0858 -0.1390
  399MOL0     H53846  13.053   3.693   3.713 -0.2119 -0.5973 -0.3271
  399MOL0     H53847  13.129   3.254   3.870 -2.6701 -2.4627  0.7469
  399MOL0     H53848  12.993   3.113   3.992  0.6732  0.3413 -0.7223
  399MOL0     H53849  11.420   2.590   3.825 -0.7518 -1.4671 -0.7624
  399MOL0     H53850  11.268   2.523   3.652  0.0544 -0.3131  2.0485
  399MOL0     H53851  10.993   2.206   3.446  3.8284  0.5119  1.0467
  399MOL0     H53852  10.845   2.146   3.249 -1.8868  2.9057  1.8715
  399MOL0     H53853  10.725   2.201   3.028  0.7557 -0.1062  2.0239
  399MOL0     H53854  10.790   2.050   3.065 -0.4178  0.4065  0.6099
  399MOL0     H53855  10.661   2.044   2.840 -0.2190 -0.1260 -0.7517
  399MOL0     H53856  10.824   1.972   2.845  1.8476  1.8274 -0.2058
  399MOL0     H53857  10.917   2.105   2.702  2.4184  1.8163  0.9397
  399MOL0     H53858  10.838   2.248   2.771 -0.9213 -1.3686  3.1676
  399MOL0     H53859  10.762   2.181   2.535 -1.3441 -0.7527  0.0008
  399MOL0     H53860  10.656   2.078   2.618 -1.0141  0.5009 -1.4517
  399MOL0     H53861  10.506   2.441   2.767 -1.6232 -1.2708  1.5918
  399MOL0     H53862  11.154   2.277   2.988  3.3271 -0.5735  1.1355
  399MOL0     H53863  11.338   2.449   3.184 -1.1922  0.0355 -0.3895
  399MOL0     H53864  11.417   2.290   3.202 -2.0789 -0.2398  1.9871
  399MOL0     H53865  11.353   2.341   3.045 -0.7232  0.7875 -0.0629
  400MOL0     O53866   9.456   9.562   4.411 -0.1849 -0.1230 -0.1243
  400MOL0     C53867   9.415   9.474   4.331 -0.5274  0.5670 -0.8827
  400MOL0     O53868   9.496   9.389   4.253  0.0966  0.0202 -0.1816
  400MOL0     C53869   9.618   9.441   4.219  0.3603  0.4023  0.5267
  400MOL0     C53870   9.648   9.574   4.183  0.1063 -0.7790  0.6758
  400MOL0     C53871   9.779   9.612   4.152  0.2773  0.0380 -0.0832
  400MOL0     C53872   9.878   9.508   4.145  0.8228  1.2214 -0.5005
  400MOL0     O53873  10.007   9.533   4.109  0.0118  0.7692  0.7231
  400MOL0     C53874  10.040   9.481   3.983  0.0241  0.3137  0.0910
  400MOL0     C53875  10.161   9.386   3.982 -0.0693 -0.1217 -0.2292
  400MOL0     C53876  10.287   9.450   4.062  0.6275 -0.4078  0.6281
  400MOL0     C53877  10.401   9.354   4.061 -0.2846 -0.3552 -0.3748
  400MOL0     C53878  10.406   9.251   4.176 -0.4960  0.4857  0.8568
  400MOL0     C53879  10.545   9.181   4.156  0.2919 -0.3980 -0.1664
  400MOL0     C53880  10.552   9.054   4.232  0.7274  0.4951 -0.0909
  400MOL0     C53881  10.540   9.068   4.382  0.3780 -0.2465 -0.0046
  400MOL0     N53882  10.547   8.949   4.472  0.1563 -0.3297  0.2081
  400MOL0     C53883  10.625   8.831   4.459 -0.2077 -0.8709 -0.2161
  400MOL0     C53884  10.605   8.767   4.583  0.3306  0.4298 -0.1759
  400MOL0     C53885  10.673   8.651   4.635  0.2611  0.0276 -0.1874
  400MOL0     C53886  10.646   8.535   4.533  1.2471 -0.2917  0.1048
  400MOL0     C53887  10.707   8.402   4.552 -0.1553  0.4099 -0.1103
  400MOL0     C53888  10.858   8.405   4.554  0.3223  0.1714 -0.5982
  400MOL0     O53889  10.905   8.276   4.595 -0.7968 -0.6196 -0.3978
  400MOL0     C53890  11.043   8.257   4.598  1.3595  0.1732 -0.5424
  400MOL0     C53891  11.100   8.294   4.716  0.0549  0.3509 -0.4212
  400MOL0     C53892  11.242   8.282   4.737  0.2627  0.3220  0.6518
  400MOL0     C53893  11.324   8.248   4.626 -0.0751 -0.0161  0.0763
  400MOL0     C53894  11.473   8.233   4.652  0.0527 -0.7987 -0.2690
  400MOL0     O53895  11.503   8.200   4.782 -1.0200  0.2159  0.1764
  400MOL0     C53896  11.635   8.182   4.827  0.2698 -0.9344  0.6995
  400MOL0     C53897  11.690   8.274   4.919  0.1191 -0.5547 -0.8231
  400MOL0     C53898  11.825   8.263   4.955 -0.3438  0.2272  0.1061
  400MOL0     C53899  11.902   8.153   4.913 -0.1017 -0.1799  0.4791
  400MOL0     O53900  12.026   8.132   4.968 -0.1909 -0.2423 -0.0327
  400MOL0     C53901  12.073   8.004   5.005  0.1544  0.5920  0.6175
  400MOL0     C53902  12.174   7.961   4.888 -1.2408  0.1344 -0.2095
  400MOL0     C53903  12.303   8.046   4.910 -2.0882  0.2832 -0.5422
  400MOL0     C53904  12.418   8.021   4.805  0.1184 -0.0320  0.2335
  400MOL0     C53905  12.534   8.108   4.829  0.1759  0.4222 -0.6206
  400MOL0     C53906  12.660   8.028   4.819 -1.2484  1.2375 -0.5568
  400MOL0     C53907  12.793   8.093   4.821 -1.2248  1.0483 -0.7534
  400MOL0     C53908  12.830   8.174   4.943  0.1138 -0.5868 -0.3355
  400MOL0    Cl53909  12.993   8.237   4.910  0.4231  0.7254  0.1747
  400MOL0     C53910  11.843   8.069   4.812  0.4046  0.3091  0.0571
  400MOL0     C53911  11.711   8.080   4.774  0.0588  0.6937  0.4476
  400MOL0     O53912  11.549   8.255   4.558  0.6693 -0.1538  0.3831
  400MOL0     C53913  11.259   8.206   4.507  0.1158 -0.4168  0.4244
  400MOL0     C53914  11.116   8.212   4.493  0.0119  0.4969  0.3883
  400MOL0     N53915  10.518   8.836   4.658 -0.1010 -0.7094  0.5185
  400MOL0     N53916  10.485   8.945   4.594  0.1173  0.5830  0.4592
  400MOL0     C53917   9.842   9.372   4.172 -0.1688 -0.3444 -0.4920
  400MOL0     C53918   9.723   9.348   4.228 -0.7621  0.1406  1.1939
  400MOL0     C53919   9.283   9.435   4.350 -0.3941  0.5263 -0.9256
  400MOL0     C53920   9.254   9.305   4.309  0.4132 -0.2864  0.3043
  400MOL0     C53921   9.117   9.265   4.312  0.6429  0.4458  0.0566
  400MOL0     C53922   9.014   9.338   4.369  0.8389  1.8551  0.2924
  400MOL0     O53923   8.886   9.279   4.369 -0.3214 -0.0514  0.2956
  400MOL0     C53924   8.767   9.367   4.382  0.2192 -0.8441 -0.7575
  400MOL0     C53925   8.660   9.285   4.464  0.2792 -0.1446 -0.5089
  400MOL0     C53926   8.696   9.268   4.617 -0.2599 -0.0237  0.0885
  400MOL0     C53927   8.575   9.231   4.706 -0.7774  0.3381  0.7127
  400MOL0     C53928   8.533   9.091   4.662 -0.5905 -0.0049 -0.5941
  400MOL0     C53929   8.515   8.977   4.636 -0.9913 -0.9134  0.9000
  400MOL0     C53930   9.054   9.463   4.411  1.3278 -0.4784 -0.6496
  400MOL0     C53931   9.179   9.519   4.403  0.7334  0.2476 -0.5605
  400MOL0     C53932   9.186   9.670   4.433 -0.4028 -0.0032 -0.3971
  400MOL0     H53933   9.568   9.647   4.179  0.3784 -0.5037 -2.7258
  400MOL0     H53934   9.815   9.713   4.135 -1.1191  0.5369 -0.2014
  400MOL0     H53935   9.952   9.434   3.939  0.4370 -0.8687  0.4997
  400MOL0     H53936  10.056   9.573   3.926 -2.4423  0.0982 -1.0820
  400MOL0     H53937  10.212   9.381   3.885 -0.0235  2.8030 -0.4383
  400MOL0     H53938  10.133   9.284   4.010 -0.2027 -0.7312 -2.3450
  400MOL0     H53939  10.258   9.482   4.162 -0.2122  1.0014 -0.0361
  400MOL0     H53940  10.319   9.521   3.984  0.6054 -4.2347 -3.2582
  400MOL0     H53941  10.420   9.296   3.971  0.4451 -2.0333  0.8081
  400MOL0     H53942  10.489   9.418   4.066  0.2893 -1.0191 -1.6794
  400MOL0     H53943  10.408   9.303   4.273  3.2510 -0.7502  1.6084
  400MOL0     H53944  10.321   9.183   4.167  0.1453 -0.7564  3.2739
  400MOL0     H53945  10.570   9.154   4.052 -2.1726  1.7972 -1.4454
  400MOL0     H53946  10.624   9.254   4.174 -0.0439  0.3709 -1.6388
  400MOL0     H53947  10.647   9.002   4.217  1.4265  0.6113  3.1187
  400MOL0     H53948  10.479   8.983   4.193 -0.9664 -0.2815  3.9262
  400MOL0     H53949  10.607   9.150   4.411 -2.7075  2.9936 -1.2263
  400MOL0     H53950  10.435   9.096   4.394 -0.3389 -2.6271 -0.3712
  400MOL0     H53951  10.699   8.809   4.383 -0.0941 -0.4697 -0.2275
  400MOL0     H53952  10.776   8.686   4.648 -0.5551  1.6304  2.8297
  400MOL0     H53953  10.627   8.620   4.729  0.3851 -1.4272 -0.5905
  400MOL0     H53954  10.537   8.525   4.536  1.2303 -0.0070  0.7778
  400MOL0     H53955  10.668   8.564   4.430 -1.6130 -1.2268 -0.8580
  400MOL0     H53956  10.665   8.333   4.478 -0.2337 -0.1943  0.4923
  400MOL0     H53957  10.666   8.367   4.647 -2.3734  0.0403 -1.1394
  400MOL0     H53958  10.890   8.478   4.629 -0.5951 -3.2816  3.5152
  400MOL0     H53959  10.877   8.444   4.453 -1.2427  0.6179 -0.7560
  400MOL0     H53960  11.035   8.336   4.792 -0.6180  1.6233 -1.6441
  400MOL0     H53961  11.286   8.310   4.832 -0.8475 -2.4214  2.0846
  400MOL0     H53962  11.642   8.357   4.970  1.0493  0.1353 -1.0332
  400MOL0     H53963  11.875   8.330   5.023  0.3028 -0.4872  0.3467
  400MOL0     H53964  12.122   7.997   5.102  0.4616 -2.3420  0.3388
  400MOL0     H53965  11.996   7.928   5.019  2.2823 -1.2054  3.6975
  400MOL0     H53966  12.201   7.855   4.896 -2.3318 -0.0445  2.1128
  400MOL0     H53967  12.118   7.968   4.794 -1.9452  2.5367  0.3287
  400MOL0     H53968  12.293   8.154   4.919  2.4051  0.7403  1.8733
  400MOL0     H53969  12.352   8.007   5.000  0.5857  0.2784 -1.8957
  400MOL0     H53970  12.385   8.031   4.701  0.5578  0.3692  0.1267
  400MOL0     H53971  12.446   7.916   4.813  1.5379  0.2833 -0.2797
  400MOL0     H53972  12.543   8.154   4.928 -0.6561 -0.6654 -0.0143
  400MOL0     H53973  12.532   8.182   4.749 -1.6340  0.9603 -0.1095
  400MOL0     H53974  12.659   7.962   4.906  2.2979  0.0366 -1.2496
  400MOL0     H53975  12.659   7.949   4.743 -0.8603  0.1215  0.5671
  400MOL0     H53976  12.790   8.163   4.737 -0.8763 -0.6454 -2.2593
  400MOL0     H53977  12.863   8.010   4.815 -0.7599  1.2406  1.4091
  400MOL0     H53978  12.748   8.244   4.961  0.6023 -0.7787  3.2208
  400MOL0     H53979  12.813   8.118   5.035 -1.0388 -1.3575 -0.9909
  400MOL0     H53980  11.891   7.974   4.789 -0.0729 -0.3295  1.5639
  400MOL0     H53981  11.673   8.008   4.702 -0.3857  1.6941 -0.3531
  400MOL0     H53982  11.318   8.178   4.420  0.3490 -3.4464  1.4314
  400MOL0     H53983  11.058   8.191   4.404 -1.5288 -2.7475  1.9905
  400MOL0     H53984   9.923   9.302   4.156 -0.1773 -1.0088  1.9642
  400MOL0     H53985   9.698   9.250   4.267  0.9935 -1.3204 -1.0965
  400MOL0     H53986   9.328   9.242   4.260  2.3962  1.6577  0.6259
  400MOL0     H53987   9.089   9.173   4.263  3.5761  0.1836 -1.3209
  400MOL0     H53988   8.727   9.386   4.283  1.2005  0.0172 -1.0057
  400MOL0     H53989   8.787   9.461   4.434  0.6214 -1.0964 -0.4450
  400MOL0     H53990   8.665   9.189   4.412  0.2799  1.8948 -4.6179
  400MOL0     H53991   8.560   9.330   4.458 -1.6108 -3.8213  0.2601
  400MOL0     H53992   8.729   9.365   4.654  1.2084 -0.8643  1.1028
  400MOL0     H53993   8.776   9.196   4.635  4.2294  4.0636 -1.3902
  400MOL0     H53994   8.603   9.226   4.812  0.1840  0.0334  0.4600
  400MOL0     H53995   8.501   9.309   4.690 -2.3041 -1.6585 -3.3521
  400MOL0     H53996   8.487   8.875   4.616 -3.4118 -0.0142 -0.7129
  400MOL0     H53997   8.976   9.535   4.434  2.2759  0.3263  0.1236
  400MOL0     H53998   9.284   9.717   4.430 -0.9185  1.3509  1.6819
  400MOL0     H53999   9.123   9.731   4.367  3.4369  2.3805 -2.1719
  400MOL0     H54000   9.152   9.688   4.536  1.6081 -1.1386  0.5078
  401MOL0     O54001  10.130   8.529   2.654  0.0958 -0.2911  0.4206
  401MOL0     C54002  10.141   8.649   2.651 -0.0941 -0.4183  0.7123
  401MOL0     O54003  10.218   8.722   2.727  0.0168  0.0757 -0.9147
  401MOL0     C54004  10.264   8.665   2.842  1.6173  0.3926  0.6219
  401MOL0     C54005  10.388   8.600   2.843  0.1492 -1.1758  0.1683
  401MOL0     C54006  10.424   8.542   2.963 -0.8470  0.4048 -0.7441
  401MOL0     C54007  10.337   8.525   3.081 -0.2900 -0.4071  0.8323
  401MOL0     O54008  10.378   8.462   3.200  0.0847 -0.0234  0.3486
  401MOL0     C54009  10.500   8.393   3.184  0.2234  0.6467  0.1646
  401MOL0     C54010  10.533   8.298   3.296  0.0366 -0.5647  0.4644
  401MOL0     C54011  10.427   8.182   3.310  0.5456  0.7941 -0.0027
  401MOL0     C54012  10.300   8.229   3.370  0.4228 -0.0496  0.1077
  401MOL0     C54013  10.210   8.107   3.398 -0.1448  0.4392  0.3962
  401MOL0     C54014  10.098   8.142   3.494 -0.5933  0.9481 -0.0771
  401MOL0     C54015   9.994   8.233   3.442  0.6256 -0.3966  0.8264
  401MOL0     C54016   9.917   8.322   3.549 -0.7013  0.4700  0.9037
  401MOL0     N54017   9.815   8.254   3.636  0.2126  0.5844  0.0321
  401MOL0     C54018   9.699   8.302   3.696 -0.3982  0.3368  0.1038
  401MOL0     C54019   9.633   8.202   3.752 -0.4630  0.5040  0.3758
  401MOL0     C54020   9.491   8.210   3.811 -0.2532  0.0022 -0.8443
  401MOL0     C54021   9.395   8.309   3.739  0.5890  0.2166  0.4098
  401MOL0     C54022   9.249   8.298   3.793  0.2597  0.7483  0.3783
  401MOL0     C54023   9.157   8.416   3.749  0.4482 -0.2364  0.1536
  401MOL0     O54024   9.196   8.527   3.821 -0.3630 -0.3435 -0.9712
  401MOL0     C54025   9.111   8.633   3.805 -1.1345  0.1683 -0.4204
  401MOL0     C54026   9.060   8.678   3.678  1.2104  0.5286 -0.1187
  401MOL0     C54027   8.968   8.781   3.671  0.2114 -0.0767 -0.7540
  401MOL0     C54028   8.940   8.854   3.781  0.0390  0.2540 -0.1539
  401MOL0     C54029   8.868   8.987   3.770  0.2983  0.5728 -0.8495
  401MOL0     O54030   8.835   9.041   3.893 -0.2123 -0.0602  0.6861
  401MOL0     C54031   8.757   9.155   3.904 -0.2392  0.4393  0.5969
  401MOL0     C54032   8.745   9.259   3.804 -0.9494  1.0871 -0.7918
  401MOL0     C54033   8.657   9.368   3.817  0.0193  0.3994 -0.7045
  401MOL0     C54034   8.572   9.369   3.931  0.4294  1.4314  0.0937
  401MOL0     O54035   8.487   9.471   3.960  0.4509 -0.5841  0.7471
  401MOL0     C54036   8.400   9.449   4.069 -0.7794  0.2169 -0.5665
  401MOL0     C54037   8.316   9.580   4.089  0.5554  0.3070  0.2060
  401MOL0     C54038   8.400   9.689   4.174  0.5932  0.1168  0.0691
  401MOL0     C54039   8.525   9.729   4.114  0.1340  0.1023 -0.1286
  401MOL0     C54040   8.582   9.853   4.191  0.0428  0.1634  0.0759
  401MOL0     C54041   8.728   9.869   4.158 -0.0608  0.2794 -0.1238
  401MOL0     C54042   8.814   9.778   4.243 -1.0350  1.4287  0.3878
  401MOL0     C54043   8.898   9.682   4.155  0.0277 -0.3857 -0.2009
  401MOL0    Cl54044   9.048   9.781   4.104  0.0626  0.0485  0.1049
  401MOL0     C54045   8.597   9.269   4.033  0.1601  0.0550 -0.1574
  401MOL0     C54046   8.677   9.160   4.021  1.0555  0.3931  0.5767
  401MOL0     O54047   8.842   9.027   3.662 -0.1636 -0.0738  0.0251
  401MOL0     C54048   8.994   8.823   3.905 -0.6014  0.0450  0.0717
  401MOL0     C54049   9.073   8.706   3.917  0.6275 -0.7485 -0.1235
  401MOL0     N54050   9.707   8.083   3.743  0.2854 -0.7320 -0.9582
  401MOL0     N54051   9.807   8.116   3.664 -0.3258 -0.2308  0.7508
  401MOL0     C54052  10.213   8.593   3.075 -0.4275 -0.7453 -0.1325
  401MOL0     C54053  10.182   8.667   2.951 -0.1374  0.1116  0.5918
  401MOL0     C54054  10.056   8.721   2.553  0.3132  0.7584 -0.4595
  401MOL0     C54055  10.112   8.803   2.451  0.8795 -0.4687  0.2037
  401MOL0     C54056  10.025   8.871   2.369 -0.4638 -0.3717  0.0790
  401MOL0     C54057   9.890   8.863   2.371 -0.1454  0.0727  0.8651
  401MOL0     O54058   9.812   8.936   2.287 -0.4788 -0.3529 -0.8563
  401MOL0     C54059   9.739   9.031   2.367  0.2172  0.5033 -0.1727
  401MOL0     C54060   9.807   9.167   2.367  0.5166  0.2668  0.2019
  401MOL0     C54061   9.820   9.231   2.220 -0.8261  0.4767  0.1727
  401MOL0     C54062   9.922   9.160   2.143  0.5023 -0.5694  0.0433
  401MOL0     C54063   9.945   9.222   2.009 -1.1553 -0.5898  0.6415
  401MOL0     C54064   9.990   9.270   1.905  0.5792  0.7505 -0.7452
  401MOL0     C54065   9.838   8.773   2.460 -0.4591  0.3556  0.9163
  401MOL0     C54066   9.912   8.694   2.549 -0.6326  0.1254  0.1961
  401MOL0     C54067   9.831   8.591   2.635 -0.8293 -0.0609 -0.8531
  401MOL0     H54068  10.456   8.594   2.759  2.2436 -0.6463  1.7371
  401MOL0     H54069  10.523   8.496   2.962 -0.6457  0.7768  0.3886
  401MOL0     H54070  10.499   8.334   3.092  0.1255 -2.0369  1.8065
  401MOL0     H54071  10.581   8.463   3.159  2.6521 -2.1447 -0.2450
  401MOL0     H54072  10.522   8.358   3.387 -0.9679  1.3195 -0.8154
  401MOL0     H54073  10.632   8.251   3.294  1.5182  2.2571  1.2991
  401MOL0     H54074  10.464   8.103   3.375 -0.8709  0.3247  0.2795
  401MOL0     H54075  10.416   8.147   3.207 -0.9252  0.4214  0.2534
  401MOL0     H54076  10.307   8.279   3.466 -0.4511 -1.9132  1.1982
  401MOL0     H54077  10.245   8.287   3.296 -3.1162 -3.4369 -0.2711
  401MOL0     H54078  10.169   8.071   3.303 -3.1230  0.2799  1.6356
  401MOL0     H54079  10.279   8.035   3.444  0.3500  0.9980  0.5437
  401MOL0     H54080  10.048   8.045   3.509 -0.9005  0.7835 -1.9337
  401MOL0     H54081  10.141   8.155   3.594  2.3829 -0.3386 -1.0862
  401MOL0     H54082   9.913   8.191   3.381  0.6959  2.3398 -1.3354
  401MOL0     H54083  10.039   8.303   3.372 -3.2076 -0.4941 -2.0348
  401MOL0     H54084   9.990   8.362   3.620 -1.9506 -0.4517  2.8001
  401MOL0     H54085   9.873   8.400   3.487  0.8948 -0.8338 -2.0939
  401MOL0     H54086   9.653   8.399   3.683 -0.9575  0.3677  2.0141
  401MOL0     H54087   9.430   8.120   3.812 -3.2221  1.8331  1.4397
  401MOL0     H54088   9.503   8.234   3.917 -0.4717 -2.0384 -0.3208
  401MOL0     H54089   9.428   8.409   3.767  2.8366 -0.7621  1.5113
  401MOL0     H54090   9.395   8.307   3.630 -1.5490  2.2754  0.2910
  401MOL0     H54091   9.250   8.300   3.903  2.0927  3.3145  0.4248
  401MOL0     H54092   9.212   8.200   3.765  0.4079  0.6214  0.6189
  401MOL0     H54093   9.052   8.392   3.769 -0.3883  2.4271 -0.5699
  401MOL0     H54094   9.162   8.426   3.640 -2.4810 -3.8192 -0.5081
  401MOL0     H54095   9.069   8.622   3.585  1.4964  1.0482 -0.4126
  401MOL0     H54096   8.913   8.807   3.581 -1.4075  1.8589  0.7075
  401MOL0     H54097   8.820   9.264   3.725 -1.3837  1.0299 -1.2101
  401MOL0     H54098   8.653   9.453   3.751  3.2042  1.3079  0.1186
  401MOL0     H54099   8.337   9.361   4.057  0.5018 -0.6433 -1.1952
  401MOL0     H54100   8.447   9.435   4.167  2.6753  1.5280 -1.8754
  401MOL0     H54101   8.273   9.626   3.999 -0.8193  1.3193  1.3462
  401MOL0     H54102   8.224   9.555   4.141  0.1000  0.4202 -0.5253
  401MOL0     H54103   8.336   9.777   4.185 -0.5803 -0.7317  0.1817
  401MOL0     H54104   8.426   9.644   4.270  2.0725 -0.3173 -0.5035
  401MOL0     H54105   8.514   9.768   4.012 -1.3968  2.0627  0.7233
  401MOL0     H54106   8.592   9.643   4.121  0.0510  0.1665  2.3758
  401MOL0     H54107   8.570   9.838   4.299 -0.6486 -0.5757 -0.0979
  401MOL0     H54108   8.533   9.947   4.165  0.1703 -0.1512 -1.3726
  401MOL0     H54109   8.734   9.846   4.052  1.2722 -2.9764  0.5527
  401MOL0     H54110   8.758   9.974   4.162  1.8170 -0.0325 -2.9947
  401MOL0     H54111   8.750   9.709   4.298  1.3620 -1.4363 -0.1977
  401MOL0     H54112   8.887   9.835   4.301  2.0519 -1.0531 -0.7855
  401MOL0     H54113   8.935   9.603   4.221 -1.4064 -3.3848 -2.7108
  401MOL0     H54114   8.839   9.636   4.075  0.0565  1.5124 -1.3934
  401MOL0     H54115   8.530   9.269   4.118 -1.9345  2.9127 -1.6588
  401MOL0     H54116   8.676   9.091   4.104 -2.6384  1.2286  1.3745
  401MOL0     H54117   8.978   8.869   4.003  3.2862 -1.2060  1.4772
  401MOL0     H54118   9.125   8.685   4.011 -1.9829 -0.7328  1.4164
  401MOL0     H54119  10.149   8.575   3.161  0.8663 -0.6854  0.8741
  401MOL0     H54120  10.098   8.734   2.932 -0.9928 -0.9692  0.4041
  401MOL0     H54121  10.218   8.823   2.453  1.7344 -4.2198  1.6804
  401MOL0     H54122  10.081   8.948   2.316  2.5562 -0.4759  2.7613
  401MOL0     H54123   9.722   9.015   2.474  2.1298  0.7981  0.2212
  401MOL0     H54124   9.641   9.041   2.320  0.5178  0.7133 -0.7673
  401MOL0     H54125   9.890   9.177   2.438 -2.0005  0.6878  3.3361
  401MOL0     H54126   9.737   9.238   2.413 -3.3322 -0.9121 -3.2552
  401MOL0     H54127   9.850   9.335   2.230 -1.7939  0.6024  2.6166
  401MOL0     H54128   9.735   9.223   2.152  1.3931  3.2267 -3.2747
  401MOL0     H54129  10.010   9.129   2.200  1.0597 -0.5604 -0.7824
  401MOL0     H54130   9.874   9.071   2.103 -1.6880  1.3530 -1.9029
  401MOL0     H54131  10.009   9.321   1.813 -1.7316 -1.6481 -2.7369
  401MOL0     H54132   9.730   8.770   2.473 -0.8847  2.2157 -1.5478
  401MOL0     H54133   9.726   8.620   2.651 -0.1321  1.0495  2.2891
  401MOL0     H54134   9.837   8.496   2.581 -1.2958 -0.2540 -0.5709
  401MOL0     H54135   9.866   8.573   2.736 -2.6883  0.3962 -0.0865
  402MOL0     O54136   8.928   7.316   7.994  0.2843  0.0600  0.2838
  402MOL0     C54137   8.993   7.426   7.991  1.1822  0.1717 -0.3740
  402MOL0     O54138   9.133   7.427   7.983  1.3911 -0.5719  0.1058
  402MOL0     C54139   9.196   7.307   7.997 -0.0579 -0.0647 -0.8619
  402MOL0     C54140   9.294   7.293   8.103  0.2140 -0.4704 -0.4810
  402MOL0     C54141   9.367   7.182   8.118  0.5172  0.6578 -0.1497
  402MOL0     C54142   9.351   7.081   8.018 -1.0837 -0.1130 -0.1309
  402MOL0     O54143   9.465   6.993   8.027  0.6792 -0.3207 -0.4642
  402MOL0     C54144   9.458   6.879   7.945  0.5301 -0.2192  0.2465
  402MOL0     C54145   9.563   6.782   8.002  0.4727  0.6194  0.0198
  402MOL0     C54146   9.564   6.644   7.930  0.4293  0.9317  0.2983
  402MOL0     C54147   9.466   6.546   7.991 -0.3636  0.0302  0.6121
  402MOL0     C54148   9.490   6.402   7.950 -0.8254  0.1404  0.4351
  402MOL0     C54149   9.505   6.386   7.796 -0.2529  0.2582 -0.8731
  402MOL0     C54150   9.541   6.239   7.760 -0.5815 -0.5180  0.0505
  402MOL0     C54151   9.425   6.127   7.792 -0.1176 -0.0223 -0.0260
  402MOL0     N54152   9.449   6.007   7.720 -0.5056  0.3933 -0.1773
  402MOL0     C54153   9.552   5.909   7.737 -0.5780 -0.0638 -0.0815
  402MOL0     C54154   9.521   5.821   7.641 -0.0473  0.0445 -0.7395
  402MOL0     C54155   9.579   5.683   7.625  0.4623 -0.5677  0.4653
  402MOL0     C54156   9.706   5.676   7.529  1.0651  0.9092  0.2423
  402MOL0     C54157   9.811   5.776   7.561 -0.2925 -0.4794 -0.2197
  402MOL0     C54158   9.940   5.761   7.473 -0.0853  0.2065  0.2997
  402MOL0     O54159  10.014   5.648   7.520  0.0656  0.4586  0.0782
  402MOL0     C54160  10.139   5.622   7.470 -0.0947 -0.6331  0.4373
  402MOL0     C54161  10.209   5.711   7.386  0.7812  0.0288 -1.2051
  402MOL0     C54162  10.338   5.683   7.343  1.3078  0.5445  0.4229
  402MOL0     C54163  10.408   5.563   7.376  0.0574  0.4919  0.0482
  402MOL0     C54164  10.556   5.540   7.348  0.2911  0.9479 -0.5125
  402MOL0     O54165  10.599   5.423   7.376 -0.3005 -0.3714 -0.0750
  402MOL0     C54166  10.728   5.377   7.351  0.0074  0.3337 -0.0331
  402MOL0     C54167  10.835   5.442   7.285  0.1036  0.7184 -0.0161
  402MOL0     C54168  10.949   5.369   7.252 -0.1969 -0.6481 -0.4816
  402MOL0     C54169  10.965   5.243   7.306  0.3413 -0.6634 -1.2700
  402MOL0     O54170  11.082   5.171   7.294  0.2543 -0.0976 -0.4573
  402MOL0     C54171  11.205   5.212   7.236 -0.0222 -1.2766  0.4661
  402MOL0     C54172  11.302   5.096   7.198  0.1089  0.7966  0.1334
  402MOL0     C54173  11.341   5.006   7.316 -0.4494  1.2968 -0.9205
  402MOL0     C54174  11.403   4.885   7.255  1.1592  0.7414 -0.1914
  402MOL0     C54175  11.411   4.760   7.348  0.4111  0.0698  0.0044
  402MOL0     C54176  11.457   4.782   7.490  0.2261 -0.3680 -0.5307
  402MOL0     C54177  11.453   4.657   7.587  0.3241 -0.0144 -0.5155
  402MOL0     C54178  11.530   4.534   7.533  0.6883 -0.7267 -0.4843
  402MOL0    Cl54179  11.509   4.407   7.644 -0.3834  0.5686  0.1524
  402MOL0     C54180  10.865   5.186   7.389  0.1801  0.3047  1.0660
  402MOL0     C54181  10.740   5.245   7.399  0.1105  0.8286  0.4916
  402MOL0     O54182  10.608   5.628   7.291  0.0621  0.3871  0.3627
  402MOL0     C54183  10.343   5.480   7.462 -0.4361  0.3369 -0.7770
  402MOL0     C54184  10.212   5.505   7.507  0.5258  0.5995 -0.3187
  402MOL0     N54185   9.401   5.845   7.581  0.5204 -0.1666  0.3213
  402MOL0     N54186   9.365   5.958   7.629  0.7731 -0.3764  0.1492
  402MOL0     C54187   9.257   7.089   7.917  0.4607  0.5847  0.4383
  402MOL0     C54188   9.179   7.205   7.907 -1.0118 -0.7808 -0.1101
  402MOL0     C54189   8.917   7.551   7.998  0.7621  0.6913  1.8276
  402MOL0     C54190   8.777   7.542   7.983 -0.0117  0.2071  0.4265
  402MOL0     C54191   8.680   7.634   7.996 -1.0272 -0.9380  0.4287
  402MOL0     C54192   8.737   7.764   8.019 -0.0938  0.0036 -0.3454
  402MOL0     O54193   8.658   7.877   8.019  0.1138 -0.1650  0.2889
  402MOL0     C54194   8.527   7.881   7.983  0.5288  0.0224 -0.4579
  402MOL0     C54195   8.483   7.854   7.835 -0.6282 -0.1130  0.0073
  402MOL0     C54196   8.331   7.867   7.818  0.8801  0.7074  0.3537
  402MOL0     C54197   8.303   7.794   7.690 -0.0840 -0.1434 -0.4597
  402MOL0     C54198   8.276   7.651   7.713 -0.5956 -0.1663  0.7709
  402MOL0     C54199   8.264   7.525   7.706  0.3588  0.6549  0.4680
  402MOL0     C54200   8.878   7.787   8.026 -0.5138  0.5019  0.1547
  402MOL0     C54201   8.966   7.683   8.025  0.8937 -0.1314  0.1000
  402MOL0     C54202   9.108   7.725   8.056 -0.6836 -0.1757 -0.6232
  402MOL0     H54203   9.289   7.371   8.179 -1.2161 -1.1213  0.1470
  402MOL0     H54204   9.450   7.163   8.186  3.4407  0.5951 -3.4800
  402MOL0     H54205   9.365   6.822   7.944  0.6835 -0.4573 -0.6393
  402MOL0     H54206   9.484   6.913   7.844 -2.2125 -0.5037 -0.6180
  402MOL0     H54207   9.542   6.772   8.109 -0.1591  0.6929 -0.0936
  402MOL0     H54208   9.661   6.824   7.977  1.4309 -1.0059  0.8655
  402MOL0     H54209   9.667   6.606   7.932 -0.0194 -0.3301  0.4271
  402MOL0     H54210   9.552   6.648   7.821  3.7775  0.0065 -0.2139
  402MOL0     H54211   9.472   6.545   8.100 -0.0888  0.6387  0.6083
  402MOL0     H54212   9.362   6.573   7.974  0.2438  1.2956 -1.5900
  402MOL0     H54213   9.586   6.355   7.973  0.3141  1.4371 -1.3958
  402MOL0     H54214   9.418   6.331   7.994  4.3130 -4.2173  2.9895
  402MOL0     H54215   9.411   6.411   7.745 -0.4901 -1.4903 -1.3788
  402MOL0     H54216   9.590   6.443   7.758  1.4033  0.6040  2.8754
  402MOL0     H54217   9.631   6.212   7.817  0.3854  2.6605  0.1811
  402MOL0     H54218   9.559   6.224   7.653 -2.0421 -0.2822 -0.2447
  402MOL0     H54219   9.422   6.102   7.899  2.9709 -1.4018 -0.1553
  402MOL0     H54220   9.325   6.169   7.777 -0.7762 -0.2749  2.9119
  402MOL0     H54221   9.638   5.921   7.802 -0.0020  1.5143 -1.0847
  402MOL0     H54222   9.606   5.626   7.714 -0.2577 -0.3378  0.8359
  402MOL0     H54223   9.494   5.630   7.582 -1.4793  1.7465  1.2330
  402MOL0     H54224   9.753   5.577   7.532 -1.7970 -0.5661 -0.0741
  402MOL0     H54225   9.673   5.673   7.425  1.5299  3.5850 -0.0568
  402MOL0     H54226   9.851   5.766   7.662  0.8923  0.5791 -0.5461
  402MOL0     H54227   9.771   5.874   7.533  3.4890  0.6297 -2.6282
  402MOL0     H54228   9.997   5.855   7.478 -0.2700  0.4531 -1.4558
  402MOL0     H54229   9.903   5.737   7.372  0.7663 -2.7522  0.6072
  402MOL0     H54230  10.157   5.799   7.350 -3.6669 -2.5218 -1.6666
  402MOL0     H54231  10.385   5.759   7.282 -1.6436 -0.1175 -3.0518
  402MOL0     H54232  10.829   5.548   7.261  0.2759  0.8792  0.6216
  402MOL0     H54233  11.032   5.422   7.205  0.1568 -0.4486  0.3537
  402MOL0     H54234  11.200   5.261   7.138 -2.6938  0.1633  1.2503
  402MOL0     H54235  11.255   5.274   7.310 -0.9214 -1.1109  0.9401
  402MOL0     H54236  11.259   5.036   7.118 -0.6835  2.9204 -1.1109
  402MOL0     H54237  11.396   5.138   7.159  0.4799  1.3551  1.5612
  402MOL0     H54238  11.417   5.049   7.382  1.8183 -3.2300 -0.1701
  402MOL0     H54239  11.249   4.987   7.373  1.5378 -1.2519  1.7209
  402MOL0     H54240  11.499   4.932   7.231  0.1825  2.3763 -1.0792
  402MOL0     H54241  11.345   4.845   7.171 -0.0503  0.5263  0.7382
  402MOL0     H54242  11.489   4.693   7.310 -1.4051 -1.7466 -0.7072
  402MOL0     H54243  11.319   4.701   7.346  0.5236 -0.1352  0.7093
  402MOL0     H54244  11.564   4.806   7.480  1.0953 -2.3707  2.4239
  402MOL0     H54245  11.400   4.863   7.536  0.0414 -0.6600 -0.2477
  402MOL0     H54246  11.349   4.630   7.605 -0.2485  2.4574  0.2835
  402MOL0     H54247  11.494   4.682   7.685  2.6152  0.3127 -1.4957
  402MOL0     H54248  11.500   4.507   7.432  0.2049 -1.0163 -0.2625
  402MOL0     H54249  11.636   4.564   7.531  0.3331  0.5628 -2.2605
  402MOL0     H54250  10.891   5.090   7.432  3.4677 -0.3545 -1.9585
  402MOL0     H54251  10.670   5.206   7.472  1.2669 -2.3348  0.0855
  402MOL0     H54252  10.394   5.387   7.487 -0.1427  0.9545  1.0423
  402MOL0     H54253  10.160   5.431   7.568  3.7716 -1.4684  0.2371
  402MOL0     H54254   9.248   7.013   7.840  0.0750 -0.3143  1.3377
  402MOL0     H54255   9.095   7.213   7.839  0.1598 -2.9740 -1.9246
  402MOL0     H54256   8.715   7.454   7.975 -2.0820  1.7246 -1.8364
  402MOL0     H54257   8.572   7.630   7.995 -0.9960 -2.4046 -0.5810
  402MOL0     H54258   8.486   7.981   8.002  0.4833  0.0460 -0.6796
  402MOL0     H54259   8.475   7.814   8.052  1.1431 -2.0252 -1.9126
  402MOL0     H54260   8.534   7.765   7.799  2.1041  1.8210 -1.2338
  402MOL0     H54261   8.532   7.935   7.780  2.6779 -1.8327  0.1767
  402MOL0     H54262   8.318   7.975   7.805  3.3780  1.0325  0.2399
  402MOL0     H54263   8.271   7.841   7.905 -0.7488  1.1929 -0.5656
  402MOL0     H54264   8.217   7.845   7.645  0.0079 -0.8523 -1.4593
  402MOL0     H54265   8.389   7.808   7.624  0.2693  1.3584  0.2697
  402MOL0     H54266   8.259   7.419   7.716  2.4590  0.4418 -0.1883
  402MOL0     H54267   8.907   7.889   8.048  0.4018 -0.2080  2.4661
  402MOL0     H54268   9.109   7.825   8.101  0.4858 -0.6533  0.4935
  402MOL0     H54269   9.156   7.660   8.130  1.3450  0.9852 -0.8402
  402MOL0     H54270   9.176   7.724   7.970 -1.9783  2.8722 -1.8407
  403MOL0     O54271   5.981   0.418   9.262 -0.4253 -0.8853  0.6433
  403MOL0     C54272   5.871   0.464   9.277  0.5097  0.6593 -0.3453
  403MOL0     O54273   5.762   0.391   9.319  0.2956  0.4306 -0.1818
  403MOL0     C54274   5.786   0.263   9.362  0.2097  0.6363  1.3083
  403MOL0     C54275   5.749   0.144   9.301  0.8675  0.1501  1.0988
  403MOL0     C54276   5.786   0.018   9.346 -0.5422  0.2534 -0.0044
  403MOL0     C54277   5.871   0.003   9.457 -1.5760  0.3671 -0.0576
  403MOL0     O54278   5.926  -0.122   9.490  0.1081  0.0907  0.3106
  403MOL0     C54279   5.979  -0.194   9.380 -0.3577 -0.5269 -0.9659
  403MOL0     C54280   6.037  -0.320   9.439 -0.0070 -1.6524  0.0560
  403MOL0     C54281   6.094  -0.412   9.329  0.4358  0.5129  0.5926
  403MOL0     C54282   6.093  -0.551   9.382 -1.1583 -0.2179 -0.5808
  403MOL0     C54283   6.157  -0.662   9.289  0.5240  0.0676  0.8672
  403MOL0     C54284   6.057  -0.688   9.169 -0.3957  0.3968 -0.6729
  403MOL0     C54285   6.097  -0.793   9.069 -0.0324  0.5941 -0.8308
  403MOL0     C54286   5.994  -0.782   8.958 -0.0354  0.8841 -0.6682
  403MOL0     N54287   6.041  -0.682   8.869 -0.0970 -0.4226 -0.3092
  403MOL0     C54288   6.139  -0.690   8.780 -0.0918 -0.0110  0.3683
  403MOL0     C54289   6.129  -0.577   8.695  0.8934  0.1931 -0.9477
  403MOL0     C54290   6.201  -0.565   8.560  0.3810  0.2174 -0.3888
  403MOL0     C54291   6.154  -0.464   8.468 -0.9724 -0.4353  0.5130
  403MOL0     C54292   6.251  -0.447   8.345  1.2046 -0.1582 -0.6013
  403MOL0     C54293   6.239  -0.551   8.237 -0.3479  0.6387  0.7566
  403MOL0     O54294   6.128  -0.532   8.150 -0.4834 -0.5982 -0.1632
  403MOL0     C54295   6.147  -0.561   8.021  0.0889  0.6472  0.1955
  403MOL0     C54296   6.173  -0.694   7.975  0.1084  0.2728  0.4255
  403MOL0     C54297   6.188  -0.722   7.841  0.6366  0.2154 -0.1440
  403MOL0     C54298   6.179  -0.617   7.744 -0.1068  0.6148  0.3432
  403MOL0     C54299   6.176  -0.663   7.601  0.0408  0.0450  0.2133
  403MOL0     O54300   6.170  -0.798   7.574 -0.2651 -0.2405  0.4910
  403MOL0     C54301   6.157  -0.838   7.443 -0.4809 -0.5149 -0.1848
  403MOL0     C54302   6.030  -0.883   7.402 -0.1692  1.1004  0.0175
  403MOL0     C54303   6.012  -0.933   7.273 -1.1809 -0.5685  0.3276
  403MOL0     C54304   6.127  -0.940   7.180  0.5834  1.2483 -0.1193
  403MOL0     O54305   6.109  -0.983   7.053  0.3600  0.4386  0.2886
  403MOL0     C54306   5.984  -1.050   7.023 -0.1719  0.1589  0.7556
  403MOL0     C54307   5.977  -1.093   6.868  0.9825  0.0141 -0.1521
  403MOL0     C54308   5.835  -1.136   6.836 -0.3675  0.4318 -0.5213
  403MOL0     C54309   5.828  -1.175   6.691 -0.8015  0.4525 -0.8915
  403MOL0     C54310   5.901  -1.305   6.654  0.4066  0.3636 -0.5551
  403MOL0     C54311   5.871  -1.339   6.504  0.1338  0.3206 -0.3562
  403MOL0     C54312   5.954  -1.255   6.409 -0.2113  0.1099  0.7613
  403MOL0     C54313   5.873  -1.192   6.286 -0.0590 -0.1461 -0.3699
  403MOL0    Cl54314   5.802  -1.324   6.176  0.2059 -0.7560 -0.4509
  403MOL0     C54315   6.249  -0.891   7.223 -0.5418 -0.3128 -0.7762
  403MOL0     C54316   6.271  -0.844   7.352  0.6214 -0.3098 -0.7484
  403MOL0     O54317   6.191  -0.572   7.523 -1.0963  0.5462 -0.1097
  403MOL0     C54318   6.170  -0.488   7.784 -0.7164 -0.7627 -1.0129
  403MOL0     C54319   6.158  -0.457   7.922  0.5146  0.2523 -0.5462
  403MOL0     N54320   6.032  -0.497   8.757  0.0038  0.7993  0.9819
  403MOL0     N54321   5.986  -0.558   8.862 -0.3477 -0.8820 -0.4776
  403MOL0     C54322   5.897   0.120   9.530  0.5385 -0.2180 -0.5398
  403MOL0     C54323   5.855   0.244   9.481  0.6625  0.1871  0.5559
  403MOL0     C54324   5.857   0.613   9.259 -0.0840 -0.3424  0.6529
  403MOL0     C54325   5.727   0.664   9.269  0.4523 -0.6591 -0.0438
  403MOL0     C54326   5.702   0.803   9.267  0.0973  0.2979  0.2535
  403MOL0     C54327   5.799   0.899   9.248  1.1831  0.5357 -0.1229
  403MOL0     O54328   5.775   1.036   9.250  0.3006  0.0648  0.8337
  403MOL0     C54329   5.886   1.122   9.287  0.4402  0.7263  0.4823
  403MOL0     C54330   5.948   1.096   9.424  0.2669  0.6969 -1.5153
  403MOL0     C54331   5.836   1.091   9.526 -0.1260  0.5395  0.2237
  403MOL0     C54332   5.839   1.203   9.633 -0.3164 -0.2472  0.2933
  403MOL0     C54333   5.705   1.218   9.704 -0.1064 -0.6017 -0.1162
  403MOL0     C54334   5.601   1.213   9.771 -0.6622 -0.3319 -0.1909
  403MOL0     C54335   5.930   0.849   9.215  0.5484  0.3523 -0.4284
  403MOL0     C54336   5.958   0.713   9.228  0.5442  0.4548 -0.4275
  403MOL0     C54337   6.105   0.675   9.201  1.0720 -0.5558 -0.0026
  403MOL0     H54338   5.692   0.148   9.209 -0.1699 -1.2458  1.6597
  403MOL0     H54339   5.755  -0.070   9.291 -0.9072 -0.8258  1.8429
  403MOL0     H54340   5.905  -0.212   9.301 -0.2073 -0.7256 -1.0627
  403MOL0     H54341   6.059  -0.134   9.335 -0.8069 -0.1666 -1.2950
  403MOL0     H54342   5.964  -0.380   9.494 -2.6237  2.5546  1.6329
  403MOL0     H54343   6.128  -0.300   9.497  1.2592 -2.2892 -1.6290
  403MOL0     H54344   6.200  -0.391   9.313  0.7173 -1.8955 -1.4009
  403MOL0     H54345   6.059  -0.413   9.225 -1.4889 -0.2985  1.1947
  403MOL0     H54346   6.166  -0.552   9.463  1.1310 -4.4885 -2.3559
  403MOL0     H54347   5.999  -0.585   9.425 -1.0904  0.9840  0.5891
  403MOL0     H54348   6.244  -0.611   9.246  1.0441 -0.8762  0.7685
  403MOL0     H54349   6.184  -0.755   9.338  2.0875  0.5012  0.8930
  403MOL0     H54350   5.973  -0.724   9.229  1.3095 -0.4034  1.3706
  403MOL0     H54351   6.031  -0.597   9.115 -0.4066 -0.8215 -2.8850
  403MOL0     H54352   6.097  -0.890   9.119 -1.9370  1.6987  1.5176
  403MOL0     H54353   6.199  -0.769   9.040  0.3151 -1.4359 -1.4685
  403MOL0     H54354   6.001  -0.876   8.902  1.1550  1.6056 -1.7679
  403MOL0     H54355   5.887  -0.781   8.984  0.2961 -2.4722  1.4584
  403MOL0     H54356   6.210  -0.769   8.755 -1.7034 -1.2716 -0.4229
  403MOL0     H54357   6.308  -0.552   8.579  0.2993  0.3557  0.0035
  403MOL0     H54358   6.199  -0.665   8.516  1.4840  0.6717 -1.5273
  403MOL0     H54359   6.053  -0.487   8.431 -1.5212 -0.1985  1.8035
  403MOL0     H54360   6.128  -0.379   8.531  0.3820 -1.2715  2.2608
  403MOL0     H54361   6.353  -0.463   8.381  1.0033 -2.2670 -0.8290
  403MOL0     H54362   6.242  -0.346   8.304  0.5337 -0.3986 -1.0608
  403MOL0     H54363   6.238  -0.646   8.291  3.0476  0.1316  0.1096
  403MOL0     H54364   6.333  -0.554   8.182 -0.7698  2.9261 -0.1764
  403MOL0     H54365   6.161  -0.777   8.045 -0.3995 -1.1805 -1.3187
  403MOL0     H54366   6.197  -0.826   7.809  0.4778 -0.0990  0.8000
  403MOL0     H54367   5.948  -0.880   7.472  0.8990  5.3744  1.4284
  403MOL0     H54368   5.913  -0.971   7.249 -1.1230  0.1225 -1.0711
  403MOL0     H54369   5.986  -1.145   7.078  4.0864 -2.2018 -2.8405
  403MOL0     H54370   5.895  -0.994   7.052 -2.4839 -1.9723 -1.6207
  403MOL0     H54371   6.011  -1.003   6.816  1.5420 -1.7202 -2.9641
  403MOL0     H54372   6.038  -1.179   6.843  0.1774 -0.6084 -0.0240
  403MOL0     H54373   5.808  -1.218   6.903 -0.7288  0.5589 -0.5133
  403MOL0     H54374   5.761  -1.061   6.861  0.4773  0.7779  1.0585
  403MOL0     H54375   5.856  -1.087   6.632  1.5776  0.3664  0.0255
  403MOL0     H54376   5.720  -1.187   6.679 -1.0404  0.6603  0.8385
  403MOL0     H54377   5.868  -1.396   6.706  0.0353  0.5699 -0.4287
  403MOL0     H54378   6.010  -1.295   6.662  0.2146  1.7301  0.7973
  403MOL0     H54379   5.889  -1.444   6.481  1.2096 -0.5677  3.8441
  403MOL0     H54380   5.767  -1.308   6.493 -0.2523 -0.4126  1.0605
  403MOL0     H54381   6.039  -1.315   6.376  0.9347 -0.0489  3.6860
  403MOL0     H54382   6.000  -1.174   6.467 -2.2400 -1.3748  4.8491
  403MOL0     H54383   5.797  -1.127   6.330 -0.3945 -0.5161 -0.4110
  403MOL0     H54384   5.953  -1.140   6.231  0.4130 -2.4121 -1.9351
  403MOL0     H54385   6.334  -0.881   7.157 -0.2250 -1.3194 -0.5278
  403MOL0     H54386   6.373  -0.814   7.373  0.0452  0.0305  2.0335
  403MOL0     H54387   6.163  -0.411   7.709  2.3362 -1.7459 -2.4360
  403MOL0     H54388   6.152  -0.351   7.945  2.7399 -0.1025  2.1354
  403MOL0     H54389   5.950   0.122   9.624 -0.9122  4.8033  0.4662
  403MOL0     H54390   5.871   0.328   9.548 -5.4108 -0.4576  3.5130
  403MOL0     H54391   5.649   0.588   9.278  1.3209 -1.3047  3.2592
  403MOL0     H54392   5.595   0.823   9.263  0.2150  0.6908 -1.8994
  403MOL0     H54393   5.847   1.224   9.281 -0.5629  0.2663 -1.8711
  403MOL0     H54394   5.962   1.125   9.208 -0.7959 -1.1156 -0.8862
  403MOL0     H54395   6.020   1.173   9.450  1.7033 -0.9067 -0.5327
  403MOL0     H54396   5.995   0.999   9.445 -1.1610  0.5989  1.7601
  403MOL0     H54397   5.831   0.991   9.570  3.2180  0.5045  0.8177
  403MOL0     H54398   5.743   1.097   9.470  0.8226 -0.1980 -1.4839
  403MOL0     H54399   5.925   1.197   9.701  1.5018 -1.2756 -1.9669
  403MOL0     H54400   5.877   1.293   9.585  1.8404 -0.7622  0.9234
  403MOL0     H54401   5.523   1.215   9.845 -0.3171 -2.1300  0.2559
  403MOL0     H54402   6.002   0.927   9.195  1.7225 -0.5557  0.1352
  403MOL0     H54403   6.144   0.761   9.145  1.5026  1.3776  3.0606
  403MOL0     H54404   6.163   0.657   9.292 -0.8448 -0.0923  1.3459
  403MOL0     H54405   6.105   0.587   9.135 -2.9670 -2.1129  1.7963
  404MOL0     O54406  10.531   3.360   9.794 -0.5661 -0.0318 -0.3991
  404MOL0     C54407  10.532   3.380   9.920 -0.2738 -1.3031 -0.2418
  404MOL0     O54408  10.514   3.282  10.006  0.2021 -0.4757  0.2063
  404MOL0     C54409  10.505   3.163   9.959 -0.2422 -0.3282  0.5275
  404MOL0     C54410  10.386   3.092   9.978  0.2919 -0.9921  0.0713
  404MOL0     C54411  10.373   2.958   9.947  0.2394  0.0546 -0.6997
  404MOL0     C54412  10.479   2.891   9.887 -1.0150  0.0711  0.7219
  404MOL0     O54413  10.450   2.759   9.854 -0.4052 -0.0952  0.3342
  404MOL0     C54414  10.569   2.678   9.827  0.3275  0.6752 -0.0471
  404MOL0     C54415  10.538   2.542   9.855 -0.1000  0.7051  0.3877
  404MOL0     C54416  10.484   2.516  10.007  0.0471 -0.0456  0.5727
  404MOL0     C54417  10.432   2.373  10.033 -0.3083  0.4087 -0.1322
  404MOL0     C54418  10.376   2.344  10.177 -1.2929  0.5485  0.2721
  404MOL0     C54419  10.373   2.197  10.210  0.5909 -0.5180  0.4372
  404MOL0     C54420  10.386   2.154  10.354 -0.4705  0.7499 -0.4565
  404MOL0     C54421  10.429   2.009  10.376 -0.1502 -0.9133  0.2318
  404MOL0     N54422  10.412   1.962  10.511 -0.4370 -0.2838 -0.1925
  404MOL0     C54423  10.439   1.829  10.552  0.6993 -0.6377  0.3931
  404MOL0     C54424  10.455   1.834  10.687  0.4329 -0.1717 -0.5934
  404MOL0     C54425  10.491   1.711  10.771  0.2244 -0.2671  0.5971
  404MOL0     C54426  10.648   1.697  10.778 -0.6528  0.8722  1.0094
  404MOL0     C54427  10.692   1.561  10.719 -0.3973  0.3628  0.4913
  404MOL0     C54428  10.827   1.567  10.643 -0.4895 -1.1076  0.3405
  404MOL0     O54429  10.940   1.569  10.733  0.0519 -0.1491 -0.7746
  404MOL0     C54430  11.030   1.471  10.717  0.4819  0.2033 -1.0226
  404MOL0     C54431  11.148   1.494  10.650  0.2315  0.9212  0.0745
  404MOL0     C54432  11.224   1.381  10.631  0.4572  0.3035  0.0534
  404MOL0     C54433  11.199   1.248  10.663  1.1768 -0.6157  0.4220
  404MOL0     C54434  11.295   1.137  10.652 -0.4053  0.7013  0.5225
  404MOL0     O54435  11.234   1.008  10.670 -0.8971 -0.2282  0.4419
  404MOL0     C54436  11.292   0.887  10.649  0.4738 -0.0186  0.2596
  404MOL0     C54437  11.214   0.773  10.679  0.2692  0.1081 -0.6324
  404MOL0     C54438  11.265   0.642  10.684 -0.2735 -0.5658  0.1048
  404MOL0     C54439  11.387   0.612  10.646 -0.4157  1.2469  0.4043
  404MOL0     O54440  11.414   0.477  10.642  1.3898  0.3882  0.9738
  404MOL0     C54441  11.545   0.440  10.682  0.5001  1.0057 -0.4692
  404MOL0     C54442  11.609   0.332  10.596  0.0281 -0.5361  0.3946
  404MOL0     C54443  11.533   0.203  10.612  0.8102 -0.2946  0.3823
  404MOL0     C54444  11.608   0.071  10.552  0.2444  0.6093 -0.6759
  404MOL0     C54445  11.571  -0.056  10.635  1.1443 -0.1516  0.6006
  404MOL0     C54446  11.426  -0.061  10.642 -0.1669 -0.2326 -0.0922
  404MOL0     C54447  11.370  -0.198  10.678  0.0987 -0.2375  0.4910
  404MOL0     C54448  11.217  -0.182  10.677 -0.6999 -0.1487 -0.5308
  404MOL0    Cl54449  11.163  -0.334  10.760 -0.0011 -0.0454 -0.0310
  404MOL0     C54450  11.468   0.725  10.604 -0.8221  0.3941 -0.0556
  404MOL0     C54451  11.428   0.856  10.626  0.6617  0.0987  1.2941
  404MOL0     O54452  11.419   1.150  10.612  0.1364  0.0705 -0.4376
  404MOL0     C54453  11.067   1.231  10.716  0.4251 -0.4579 -0.3977
  404MOL0     C54454  10.987   1.343  10.753 -0.4386 -0.3769 -0.6992
  404MOL0     N54455  10.427   1.967  10.727 -1.0509 -0.5708  0.2959
  404MOL0     N54456  10.413   2.036  10.625  0.2368  0.6580 -0.4097
  404MOL0     C54457  10.597   2.971   9.846 -0.0210 -0.1347 -0.5097
  404MOL0     C54458  10.610   3.109   9.886 -0.2502  1.1337 -0.1725
  404MOL0     C54459  10.572   3.514   9.983 -0.4142  0.2270  1.0609
  404MOL0     C54460  10.504   3.634   9.943 -0.0850 -0.4816  0.4297
  404MOL0     C54461  10.542   3.761   9.990 -0.3364  0.7162 -0.1326
  404MOL0     C54462  10.651   3.775  10.076 -0.4259 -0.9434 -0.4699
  404MOL0     O54463  10.676   3.899  10.125 -0.9475 -0.2335 -0.4287
  404MOL0     C54464  10.811   3.932  10.150  0.5088  0.3063  0.8773
  404MOL0     C54465  10.838   4.079  10.202  0.9036  0.2714  0.4145
  404MOL0     C54466  10.791   4.089  10.346  0.4031  0.1712  0.0670
  404MOL0     C54467  10.845   4.218  10.413  0.6320  0.1520  0.2754
  404MOL0     C54468  10.770   4.248  10.538  0.5957 -0.8627  1.4494
  404MOL0     C54469  10.701   4.269  10.632  0.0815 -0.7267 -0.1744
  404MOL0     C54470  10.721   3.657  10.100 -0.4751 -0.1473 -0.2943
  404MOL0     C54471  10.692   3.529  10.057  0.1695  0.5778 -0.2375
  404MOL0     C54472  10.762   3.408  10.115 -0.2519  0.6562  1.0129
  404MOL0     H54473  10.302   3.150  10.014  0.3971 -0.5137 -0.4434
  404MOL0     H54474  10.281   2.904   9.967  1.1308 -0.4388  2.6493
  404MOL0     H54475  10.619   2.687   9.730 -0.9017  3.3899 -0.5161
  404MOL0     H54476  10.641   2.713   9.902  1.8706  1.0321 -1.6163
  404MOL0     H54477  10.628   2.483   9.837  0.9820  1.7508  2.0889
  404MOL0     H54478  10.456   2.500   9.795 -0.1644 -1.9241  2.1126
  404MOL0     H54479  10.394   2.577  10.022  0.1386 -0.5033  3.5782
  404MOL0     H54480  10.559   2.563  10.071  0.5848  4.3327 -2.8182
  404MOL0     H54481  10.368   2.335   9.953 -0.1451 -1.6484  0.6574
  404MOL0     H54482  10.528   2.323  10.022  1.2003  3.1637 -0.5543
  404MOL0     H54483  10.442   2.399  10.245  0.7479 -0.5955 -0.6900
  404MOL0     H54484  10.272   2.378  10.184 -0.6980  3.1776 -2.2098
  404MOL0     H54485  10.275   2.162  10.176 -1.4621  3.0980  2.1398
  404MOL0     H54486  10.451   2.148  10.151  0.1871  0.6671 -1.1559
  404MOL0     H54487  10.288   2.166  10.401 -1.2649  2.6655 -2.4275
  404MOL0     H54488  10.465   2.212  10.402 -0.1484  2.2105 -2.6159
  404MOL0     H54489  10.381   1.935  10.313 -0.3093 -0.3239 -0.3518
  404MOL0     H54490  10.535   1.999  10.351 -1.3682 -2.1768 -5.8250
  404MOL0     H54491  10.447   1.746  10.483 -1.0738  0.7246 -1.5402
  404MOL0     H54492  10.449   1.712  10.872  1.1828 -0.9846  1.0273
  404MOL0     H54493  10.449   1.621  10.725 -0.3840  0.3960 -0.1726
  404MOL0     H54494  10.681   1.767  10.700  1.9243  0.2949  1.4906
  404MOL0     H54495  10.691   1.719  10.876 -0.1419 -1.1167  1.2780
  404MOL0     H54496  10.619   1.518  10.649  0.7728 -0.2751 -0.3722
  404MOL0     H54497  10.707   1.489  10.800  3.7740  1.2475  0.7117
  404MOL0     H54498  10.833   1.666  10.596  5.0499 -1.3622 -0.0931
  404MOL0     H54499  10.837   1.489  10.566  4.1837 -2.5747  2.0948
  404MOL0     H54500  11.194   1.591  10.634  3.1428 -0.1542  1.2371
  404MOL0     H54501  11.324   1.402  10.595  0.9787 -1.2457  0.5000
  404MOL0     H54502  11.114   0.794  10.714 -0.1297  2.0528 -2.6954
  404MOL0     H54503  11.205   0.562  10.727 -2.4423 -0.1846 -1.9433
  404MOL0     H54504  11.612   0.526  10.686 -0.5921  1.8310  2.0876
  404MOL0     H54505  11.531   0.404  10.784 -1.7654  0.5470 -0.8774
  404MOL0     H54506  11.603   0.367  10.493  0.7815 -0.5374  0.3415
  404MOL0     H54507  11.715   0.316  10.621  0.0868 -0.6101  0.0935
  404MOL0     H54508  11.509   0.183  10.717 -1.9424  0.6525  0.0142
  404MOL0     H54509  11.440   0.207  10.555  0.5176  1.8015  0.8966
  404MOL0     H54510  11.716   0.088  10.544  0.2468 -0.3338 -3.5793
  404MOL0     H54511  11.575   0.055  10.450  2.8576 -0.3051 -1.4597
  404MOL0     H54512  11.608  -0.058  10.738  0.7500 -1.2565  0.7335
  404MOL0     H54513  11.616  -0.143  10.586 -1.8321 -1.1771 -0.5596
  404MOL0     H54514  11.378   0.005  10.714 -1.8507 -0.5905 -0.8300
  404MOL0     H54515  11.374  -0.036  10.549  0.4797  2.6568  0.2181
  404MOL0     H54516  11.400  -0.230  10.778 -0.8722  1.5862  1.4292
  404MOL0     H54517  11.398  -0.278  10.609  1.9451  1.2903 -0.6322
  404MOL0     H54518  11.188  -0.095  10.735  0.3200  0.5843 -1.0991
  404MOL0     H54519  11.189  -0.166  10.573  0.8794 -2.9738 -1.5105
  404MOL0     H54520  11.563   0.700  10.557 -1.6689  0.7329 -2.0613
  404MOL0     H54521  11.492   0.936  10.588  0.0571  0.3077  0.6807
  404MOL0     H54522  11.036   1.129  10.738  2.9950 -1.0104  1.2020
  404MOL0     H54523  10.891   1.324  10.801 -0.5025  0.6416 -0.4018
  404MOL0     H54524  10.677   2.927   9.787  1.2069  0.8843  0.3259
  404MOL0     H54525  10.699   3.164   9.854  2.5265 -3.9183 -2.3441
  404MOL0     H54526  10.423   3.633   9.872  2.0226  1.6652 -2.2226
  404MOL0     H54527  10.484   3.849   9.966  0.7363  0.8101 -2.6820
  404MOL0     H54528  10.875   3.924  10.062 -0.1272  2.4164  0.1639
  404MOL0     H54529  10.851   3.860  10.222  1.0587 -0.1257  0.1536
  404MOL0     H54530  10.783   4.154  10.144  0.8293  0.7937  1.1380
  404MOL0     H54531  10.946   4.100  10.197  0.8022  2.3895  3.7332
  404MOL0     H54532  10.833   4.000  10.396  2.4219  0.4481 -1.0228
  404MOL0     H54533  10.683   4.090  10.363  0.5146  1.6886  0.8636
  404MOL0     H54534  10.953   4.225  10.431  0.5726  0.9909  0.3377
  404MOL0     H54535  10.815   4.302  10.350  2.2020  0.1985 -0.4429
  404MOL0     H54536  10.632   4.301  10.708  0.0854  1.9100 -1.1471
  404MOL0     H54537  10.811   3.662  10.162 -1.7457  1.5161  1.5412
  404MOL0     H54538  10.802   3.346  10.034 -0.3310  1.7131  0.1419
  404MOL0     H54539  10.849   3.431  10.178  0.2068 -0.2096  0.7040
  404MOL0     H54540  10.695   3.346  10.175  0.9216 -1.6001  0.1271
  405MOL0     O54541   4.242   2.646   6.322 -0.5447 -0.0166 -1.1475
  405MOL0     C54542   4.349   2.704   6.352  0.9047 -1.8049  0.5748
  405MOL0     O54543   4.379   2.825   6.301  0.5062  1.0076  0.0623
  405MOL0     C54544   4.282   2.908   6.248  1.0047  0.2817 -0.5718
  405MOL0     C54545   4.149   2.909   6.308 -0.2134 -0.3933  0.0494
  405MOL0     C54546   4.061   2.994   6.241  0.3294  0.6803 -0.3042
  405MOL0     C54547   4.091   3.081   6.135  0.2747 -0.4082  0.0315
  405MOL0     O54548   4.002   3.176   6.084  0.5917  0.1261 -0.0047
  405MOL0     C54549   3.890   3.199   6.170 -1.2649 -0.8450 -0.9595
  405MOL0     C54550   3.828   3.342   6.151  0.1794  0.7398  0.5633
  405MOL0     C54551   3.723   3.347   6.034 -1.2685  0.7828 -0.0857
  405MOL0     C54552   3.594   3.286   6.071 -0.0901 -0.2111  0.1635
  405MOL0     C54553   3.505   3.348   6.181  0.2955  1.1783  0.1915
  405MOL0     C54554   3.481   3.505   6.168 -0.2651 -0.0011 -0.8110
  405MOL0     C54555   3.402   3.544   6.043  0.9514  0.2960  0.4972
  405MOL0     C54556   3.250   3.517   6.058  0.2945  0.6682 -0.4434
  405MOL0     N54557   3.199   3.400   5.995  0.4138  0.1097  0.1717
  405MOL0     C54558   3.068   3.362   5.994 -0.8327  0.0308 -0.6044
  405MOL0     C54559   3.063   3.239   5.952  0.5040 -1.0352  0.1127
  405MOL0     C54560   2.929   3.168   5.933  0.0753  0.6356 -0.8443
  405MOL0     C54561   2.873   3.175   5.792 -1.3205 -0.3176 -0.2300
  405MOL0     C54562   2.757   3.073   5.766 -0.5375  0.9078 -0.9615
  405MOL0     C54563   2.666   3.142   5.668 -0.4535  0.3511 -0.1089
  405MOL0     O54564   2.592   3.258   5.729  1.1432 -0.0226  0.4383
  405MOL0     C54565   2.457   3.220   5.755 -0.1564 -1.0920 -0.2525
  405MOL0     C54566   2.423   3.100   5.819  0.1681  0.9590  0.4263
  405MOL0     C54567   2.288   3.063   5.857  1.6337 -0.4555 -0.2813
  405MOL0     C54568   2.185   3.137   5.801 -0.3953  0.0223  0.6810
  405MOL0     C54569   2.041   3.111   5.826  0.0037 -0.1734  0.5414
  405MOL0     O54570   2.013   3.074   5.953 -1.1760  0.2996  0.6213
  405MOL0     C54571   1.897   3.009   5.959  0.5308  0.6569 -0.0650
  405MOL0     C54572   1.897   2.867   5.987  0.3363 -0.1656 -1.3700
  405MOL0     C54573   1.773   2.800   5.995  0.3350 -0.6589  0.3779
  405MOL0     C54574   1.652   2.872   5.983 -0.0704  0.0388 -0.1970
  405MOL0     O54575   1.523   2.822   5.974 -0.0232  0.5671 -0.9533
  405MOL0     C54576   1.486   2.708   6.055 -0.9653  0.4712 -0.2672
  405MOL0     C54577   1.340   2.704   6.098 -1.4657 -0.1338  0.7200
  405MOL0     C54578   1.239   2.633   5.998 -0.2189  0.2948 -0.9357
  405MOL0     C54579   1.186   2.743   5.904 -0.7864 -0.0668 -0.6623
  405MOL0     C54580   1.097   2.671   5.805 -0.6439 -0.6668 -0.0239
  405MOL0     C54581   1.078   2.762   5.691  0.1916  0.1944 -0.0358
  405MOL0     C54582   0.994   2.696   5.574  0.7134 -0.2910 -0.4929
  405MOL0     C54583   0.980   2.799   5.456  0.7003 -1.1422 -1.7748
  405MOL0    Cl54584   0.878   2.936   5.510 -0.0816  0.0355 -0.0103
  405MOL0     C54585   1.658   3.009   5.969  1.1960  0.7125 -0.8033
  405MOL0     C54586   1.780   3.076   5.951 -1.3510  0.0928 -0.4957
  405MOL0     O54587   1.965   3.125   5.728  0.4281 -0.4022  0.4288
  405MOL0     C54588   2.217   3.256   5.729 -0.5086  0.3956 -0.5120
  405MOL0     C54589   2.349   3.297   5.707  0.2770  0.2962 -0.0924
  405MOL0     N54590   3.185   3.204   5.918 -0.3808  1.0463  0.6158
  405MOL0     N54591   3.269   3.298   5.940  1.0075 -0.4471 -0.7849
  405MOL0     C54592   4.210   3.068   6.077 -0.8649 -0.0455  0.1465
  405MOL0     C54593   4.303   2.978   6.129 -0.5826  0.1710  0.1298
  405MOL0     C54594   4.444   2.648   6.445 -1.9052 -0.5986 -0.0691
  405MOL0     C54595   4.530   2.727   6.519 -1.0479  0.4653 -0.4321
  405MOL0     C54596   4.618   2.662   6.608  0.4631  0.2397 -0.4988
  405MOL0     C54597   4.624   2.528   6.636 -0.2039  0.7941 -0.1006
  405MOL0     O54598   4.698   2.466   6.737 -0.4809 -0.3749 -0.3734
  405MOL0     C54599   4.684   2.519   6.867 -0.9985  0.6057 -0.2578
  405MOL0     C54600   4.573   2.466   6.947  0.9807 -0.2769 -0.4266
  405MOL0     C54601   4.584   2.321   6.971  0.2811 -0.2479 -0.0048
  405MOL0     C54602   4.514   2.242   6.853 -0.2200 -0.3036  0.1397
  405MOL0     C54603   4.506   2.097   6.887 -0.1336 -0.6367 -0.2171
  405MOL0     C54604   4.487   1.983   6.920 -0.7564  0.6036 -0.6137
  405MOL0     C54605   4.544   2.447   6.550  0.1929 -0.5278 -0.6766
  405MOL0     C54606   4.466   2.506   6.453  0.0116  0.1680  0.3307
  405MOL0     C54607   4.403   2.409   6.361  0.7671 -0.1180  0.1917
  405MOL0     H54608   4.111   2.846   6.388  1.7397  2.1585  3.2479
  405MOL0     H54609   3.959   2.967   6.267  0.7742 -0.0490  0.7911
  405MOL0     H54610   3.816   3.119   6.159 -0.5479 -1.6858  0.0870
  405MOL0     H54611   3.923   3.210   6.274  0.4612 -1.1431 -1.4570
  405MOL0     H54612   3.912   3.406   6.122  0.5684 -0.4171 -0.9900
  405MOL0     H54613   3.785   3.357   6.251 -3.2009  0.3243 -0.6866
  405MOL0     H54614   3.753   3.272   5.960 -0.0310  1.5403 -0.3629
  405MOL0     H54615   3.712   3.441   5.980  0.2964  0.0533 -1.7589
  405MOL0     H54616   3.534   3.281   5.979  1.7208 -0.1810 -1.0636
  405MOL0     H54617   3.620   3.187   6.108  1.6030  1.6896  4.7245
  405MOL0     H54618   3.407   3.304   6.198 -0.3848  2.4362 -0.3246
  405MOL0     H54619   3.554   3.341   6.279 -1.7373  2.8704  1.4022
  405MOL0     H54620   3.431   3.550   6.255 -2.8410 -2.6220 -0.7800
  405MOL0     H54621   3.585   3.538   6.173  0.0871 -1.2533  2.0167
  405MOL0     H54622   3.442   3.487   5.959  2.0327  1.4610  0.1964
  405MOL0     H54623   3.423   3.649   6.023  2.5752 -0.0465  0.2529
  405MOL0     H54624   3.227   3.530   6.164  1.4550 -2.4991  0.3068
  405MOL0     H54625   3.209   3.606   6.010 -5.3598 -1.5447 -0.5820
  405MOL0     H54626   2.997   3.417   6.054 -2.8527 -3.3103  0.3310
  405MOL0     H54627   2.947   3.061   5.947 -1.8392  0.3715 -0.1050
  405MOL0     H54628   2.851   3.183   6.007  1.1201 -3.3722  1.3384
  405MOL0     H54629   2.839   3.279   5.786 -0.4979 -0.0769 -0.9169
  405MOL0     H54630   2.948   3.151   5.717 -0.0183 -0.1373  0.9656
  405MOL0     H54631   2.709   3.030   5.854  1.2631  0.4414 -0.1715
  405MOL0     H54632   2.794   2.986   5.711  3.2965  2.4870 -1.1579
  405MOL0     H54633   2.599   3.079   5.609  0.0897  0.8525 -1.2889
  405MOL0     H54634   2.732   3.198   5.601 -0.0463 -0.0015 -0.0107
  405MOL0     H54635   2.499   3.036   5.862  0.2999  0.6555 -0.2503
  405MOL0     H54636   2.256   2.975   5.913 -2.0575  1.7676  1.4695
  405MOL0     H54637   1.994   2.823   6.006 -0.5002 -1.6553 -0.4092
  405MOL0     H54638   1.777   2.694   6.020  2.2882  0.3358  5.5126
  405MOL0     H54639   1.508   2.618   5.997 -1.0350  0.7543 -0.7396
  405MOL0     H54640   1.544   2.722   6.147  2.7166  0.3860 -2.3480
  405MOL0     H54641   1.348   2.648   6.191  2.4487 -0.3973  0.4132
  405MOL0     H54642   1.299   2.801   6.127  0.9922  1.5507 -1.0149
  405MOL0     H54643   1.292   2.556   5.941  2.4094  2.0356 -1.0112
  405MOL0     H54644   1.158   2.591   6.058 -0.8284  0.6006 -1.5325
  405MOL0     H54645   1.274   2.792   5.861 -1.1288  2.0517  0.8658
  405MOL0     H54646   1.131   2.821   5.957  1.1678  1.0406 -0.1328
  405MOL0     H54647   0.999   2.645   5.848 -1.1045 -0.7177 -1.0733
  405MOL0     H54648   1.141   2.574   5.779 -0.3744 -0.9251  1.3076
  405MOL0     H54649   1.038   2.857   5.726 -0.3560 -0.7657  2.0913
  405MOL0     H54650   1.172   2.790   5.642 -0.3155 -1.6252 -2.2663
  405MOL0     H54651   0.895   2.666   5.609  0.5792 -0.3658 -0.9317
  405MOL0     H54652   1.051   2.613   5.531  1.9523  0.8251 -1.0712
  405MOL0     H54653   1.080   2.840   5.436 -0.1630  1.2503 -1.5401
  405MOL0     H54654   0.939   2.741   5.373 -3.0574  1.8066 -2.2174
  405MOL0     H54655   1.569   3.069   5.974  1.5308  1.2810 -1.4659
  405MOL0     H54656   1.799   3.182   5.957 -0.8625  0.0353 -0.9323
  405MOL0     H54657   2.139   3.323   5.696  0.5714  1.3233 -1.2439
  405MOL0     H54658   2.374   3.384   5.648 -0.5873 -0.1697 -1.2127
  405MOL0     H54659   4.223   3.121   5.983 -0.9516 -1.5361 -0.7594
  405MOL0     H54660   4.406   2.975   6.094  0.7171  1.2729  3.4471
  405MOL0     H54661   4.542   2.829   6.484  0.3567 -0.3848 -2.6939
  405MOL0     H54662   4.681   2.733   6.661  3.5407 -3.9969  2.2157
  405MOL0     H54663   4.667   2.627   6.858  2.4993  1.1526 -1.9526
  405MOL0     H54664   4.772   2.500   6.929 -2.2640 -0.5427  1.2774
  405MOL0     H54665   4.481   2.493   6.893  0.4928 -0.4304  0.3118
  405MOL0     H54666   4.553   2.515   7.043  0.4597 -1.1548 -0.0668
  405MOL0     H54667   4.530   2.304   7.064 -1.3371 -0.3216 -0.9146
  405MOL0     H54668   4.688   2.290   6.985  1.9967  3.5853 -2.3914
  405MOL0     H54669   4.411   2.273   6.832 -0.2753  0.3405  1.2744
  405MOL0     H54670   4.573   2.246   6.761 -2.4503 -1.7425 -1.4347
  405MOL0     H54671   4.502   1.880   6.947 -0.9482  0.3106 -1.5959
  405MOL0     H54672   4.546   2.340   6.569 -1.8209 -0.2550  1.5093
  405MOL0     H54673   4.450   2.311   6.356  2.6189  0.7693 -0.8605
  405MOL0     H54674   4.301   2.399   6.401 -0.0461  0.3864 -1.6209
  405MOL0     H54675   4.406   2.451   6.260  1.2792 -0.3300  0.1211
  406MOL0     O54676   2.206  11.166  10.380  0.6150  0.2526 -0.1870
  406MOL0     C54677   2.181  11.143  10.258  0.4289  0.9608  0.4750
  406MOL0     O54678   2.123  11.021  10.215 -0.9166 -0.6626 -0.4389
  406MOL0     C54679   2.084  10.924  10.298 -0.4859  0.6611  0.2776
  406MOL0     C54680   2.008  10.939  10.415 -0.0075 -0.0745  0.5237
  406MOL0     C54681   1.964  10.829  10.484  0.7126 -0.3988  0.2265
  406MOL0     C54682   2.001  10.703  10.446  0.0235 -0.3901  0.0203
  406MOL0     O54683   1.958  10.583  10.498 -0.0017 -0.4500  0.3538
  406MOL0     C54684   1.937  10.585  10.638 -0.3921  0.0131 -0.0127
  406MOL0     C54685   1.912  10.434  10.680  0.2155 -0.2571  0.0849
  406MOL0     C54686   2.048  10.356  10.667  0.5878  0.9416  0.1911
  406MOL0     C54687   2.020  10.205  10.699 -0.1573  0.6312  0.1912
  406MOL0     C54688   2.158  10.142  10.701 -0.4946  0.2629  0.3009
  406MOL0     C54689   2.210  10.121  10.564  0.4251  0.3926 -0.7374
  406MOL0     C54690   2.357  10.092  10.564  0.3525  0.8218  0.1808
  406MOL0     C54691   2.389   9.993  10.450  0.0941 -0.1854 -1.0247
  406MOL0     N54692   2.375  10.071  10.326  0.4491  0.4338 -0.2778
  406MOL0     C54693   2.464  10.163  10.282 -0.8268  0.0372 -0.7762
  406MOL0     C54694   2.411  10.206  10.169  0.0924 -0.7206  0.5395
  406MOL0     C54695   2.466  10.314  10.083  0.4564  0.5676  1.3575
  406MOL0     C54696   2.369  10.362   9.974 -0.2672  0.1301 -0.3347
  406MOL0     C54697   2.280  10.468  10.035 -0.2101 -0.4661 -0.0886
  406MOL0     C54698   2.191  10.533   9.929  0.8404  0.6425 -1.0096
  406MOL0     O54699   2.289  10.593   9.843  0.5431  0.6936 -0.0303
  406MOL0     C54700   2.261  10.713   9.778  0.4413  0.4718 -0.4525
  406MOL0     C54701   2.377  10.798   9.757  0.0452  0.3118  0.7447
  406MOL0     C54702   2.361  10.913   9.682 -0.4364  0.5643 -0.6797
  406MOL0     C54703   2.244  10.960   9.638 -0.6418 -0.2003 -0.7809
  406MOL0     C54704   2.247  11.092   9.575 -0.2765 -0.7695  0.5691
  406MOL0     O54705   2.368  11.135   9.540 -0.4769  0.0218  0.2603
  406MOL0     C54706   2.393  11.255   9.482  0.6556 -0.6254  0.8957
  406MOL0     C54707   2.501  11.251   9.396  0.2588  0.7936  0.3174
  406MOL0     C54708   2.543  11.364   9.323 -0.0034  0.3099  0.0173
  406MOL0     C54709   2.474  11.488   9.335 -0.0616  0.2352 -0.4804
  406MOL0     O54710   2.492  11.600   9.258 -0.7286  0.2294  0.2546
  406MOL0     C54711   2.629  11.623   9.217 -0.8429 -0.0571  0.5053
  406MOL0     C54712   2.654  11.577   9.072 -0.0865  0.4702 -0.6634
  406MOL0     C54713   2.784  11.628   9.017  0.3546  0.4084 -0.2699
  406MOL0     C54714   2.796  11.609   8.857 -0.4097  0.5609  0.0443
  406MOL0     C54715   2.793  11.453   8.817 -0.2473  0.3379 -0.0904
  406MOL0     C54716   2.923  11.377   8.879  0.4431 -0.6189  0.1523
  406MOL0     C54717   3.054  11.444   8.833 -0.8580 -0.5815  0.2511
  406MOL0     C54718   3.162  11.346   8.852 -0.8072 -0.3807  0.4084
  406MOL0    Cl54719   3.303  11.438   8.809 -0.1567  0.2646  0.2335
  406MOL0     C54720   2.360  11.496   9.410  0.5497  0.6356 -0.2681
  406MOL0     C54721   2.320  11.379   9.479  0.6416 -0.4649  0.9098
  406MOL0     O54722   2.145  11.159   9.583 -0.1157  0.4306  0.7988
  406MOL0     C54723   2.125  10.885   9.668  0.5334 -0.9729  0.9069
  406MOL0     C54724   2.143  10.752   9.727  0.1284 -0.3954 -0.4029
  406MOL0     N54725   2.296  10.132  10.144  0.5340  0.5589 -0.1097
  406MOL0     N54726   2.274  10.050  10.243  0.1098  0.1004 -0.2213
  406MOL0     C54727   2.085  10.691  10.333 -0.9362  0.6045  0.7651
  406MOL0     C54728   2.119  10.797  10.249 -0.1657 -0.7197  0.4739
  406MOL0     C54729   2.218  11.244  10.171 -0.6962  0.2429 -0.6242
  406MOL0     C54730   2.310  11.346  10.219 -0.5755 -0.3218 -0.0439
  406MOL0     C54731   2.367  11.447  10.138  0.1431 -0.0720  0.5157
  406MOL0     C54732   2.341  11.432  10.005  0.8438 -0.7635  0.7269
  406MOL0     O54733   2.399  11.525   9.924 -0.1054 -0.3416  0.4681
  406MOL0     C54734   2.316  11.606   9.841  0.1654 -1.3157 -0.3721
  406MOL0     C54735   2.407  11.697   9.768  0.7015 -0.2677  1.0614
  406MOL0     C54736   2.336  11.771   9.649  0.9102 -0.4021 -0.8964
  406MOL0     C54737   2.437  11.793   9.537 -1.1072 -0.2513  0.5410
  406MOL0     C54738   2.367  11.864   9.425  0.1521 -0.3881 -0.0611
  406MOL0     C54739   2.284  11.918   9.346 -1.1762 -0.3861  0.4573
  406MOL0     C54740   2.259  11.333   9.952 -0.2499  0.1177  0.0515
  406MOL0     C54741   2.197  11.240  10.034  0.3383 -0.1997 -0.0057
  406MOL0     C54742   2.091  11.152   9.962 -0.2761  0.1705 -0.3516
  406MOL0     H54743   1.978  11.035  10.457 -0.6623  1.4980 -3.1670
  406MOL0     H54744   1.900  10.838  10.571 -1.2432 -5.4739 -0.3340
  406MOL0     H54745   2.022  10.633  10.686 -0.7800 -0.0516  0.7617
  406MOL0     H54746   1.844  10.640  10.656  0.0820  1.5137 -1.7682
  406MOL0     H54747   1.841  10.390  10.609 -1.6144  5.0713 -1.8643
  406MOL0     H54748   1.862  10.418  10.776 -3.1577 -2.5743 -1.8598
  406MOL0     H54749   2.109  10.398  10.748  3.2972 -0.8023 -0.8179
  406MOL0     H54750   2.102  10.370  10.573 -0.5838  1.9329 -0.3646
  406MOL0     H54751   1.973  10.206  10.798  3.1259  4.0244  1.9593
  406MOL0     H54752   1.957  10.153  10.626  1.9125 -1.3848 -0.2894
  406MOL0     H54753   2.228  10.211  10.748  0.8511  1.1699 -2.7999
  406MOL0     H54754   2.152  10.053  10.764 -0.2324  2.6077  3.9004
  406MOL0     H54755   2.155  10.036  10.522 -0.4003  0.5189  0.0714
  406MOL0     H54756   2.196  10.204  10.494 -1.8945 -0.2022 -1.0720
  406MOL0     H54757   2.376  10.044  10.660  2.3993 -1.7292 -1.3628
  406MOL0     H54758   2.405  10.190  10.554  0.2342  0.8600 -0.0051
  406MOL0     H54759   2.490   9.950  10.460 -1.8027 -4.7314  2.1238
  406MOL0     H54760   2.326   9.904  10.452  0.2800 -0.3819  2.4808
  406MOL0     H54761   2.553  10.205  10.327  0.1745  1.0002 -3.4739
  406MOL0     H54762   2.492  10.403  10.142 -0.5313  2.0921 -0.4234
  406MOL0     H54763   2.551  10.274  10.026  0.1310 -0.0986  1.3277
  406MOL0     H54764   2.426  10.404   9.890  2.1352 -1.3974  0.4229
  406MOL0     H54765   2.317  10.276   9.931 -1.6946 -0.0989  1.7350
  406MOL0     H54766   2.337  10.553  10.072 -0.4959 -1.4161  2.7625
  406MOL0     H54767   2.230  10.426  10.122  3.4974 -2.4778  1.2911
  406MOL0     H54768   2.124  10.602   9.980 -0.0517 -1.7271  1.2674
  406MOL0     H54769   2.140  10.454   9.873  0.6728  0.7532 -1.0131
  406MOL0     H54770   2.473  10.754   9.782 -0.0162 -0.1972  0.0950
  406MOL0     H54771   2.452  10.970   9.668 -0.1310  1.0421  2.4986
  406MOL0     H54772   2.555  11.158   9.381  0.1258  0.6599  0.6393
  406MOL0     H54773   2.632  11.363   9.261 -0.6357  2.1938 -0.9840
  406MOL0     H54774   2.645  11.731   9.214  0.2937 -0.1174  2.3734
  406MOL0     H54775   2.703  11.578   9.284  0.6123  0.4221 -0.7249
  406MOL0     H54776   2.664  11.468   9.071 -2.8017  0.1358 -1.8606
  406MOL0     H54777   2.574  11.610   9.005 -0.0183 -1.0113 -1.5266
  406MOL0     H54778   2.784  11.737   9.025 -5.2799  0.5788  1.4528
  406MOL0     H54779   2.859  11.569   9.071 -0.3279 -0.7878 -0.5978
  406MOL0     H54780   2.893  11.653   8.836  0.5044 -0.6011  1.6291
  406MOL0     H54781   2.723  11.672   8.805 -1.2124  0.5915  1.1599
  406MOL0     H54782   2.796  11.460   8.708 -1.7834 -1.3192 -0.2879
  406MOL0     H54783   2.704  11.400   8.854 -0.8696  1.6305  0.3406
  406MOL0     H54784   2.905  11.385   8.986 -0.8917  2.3969 -0.1832
  406MOL0     H54785   2.920  11.272   8.850 -0.6830 -0.7857  0.8212
  406MOL0     H54786   3.077  11.537   8.886  2.7700 -2.1389  1.7461
  406MOL0     H54787   3.041  11.464   8.726 -1.4984  1.1229  0.6061
  406MOL0     H54788   3.178  11.313   8.955  2.3941  0.1073  0.1559
  406MOL0     H54789   3.153  11.272   8.773  3.1732  0.0625 -0.6680
  406MOL0     H54790   2.307  11.591   9.412  1.6741  1.2710  0.2212
  406MOL0     H54791   2.232  11.402   9.538 -0.8163 -0.5228 -1.1285
  406MOL0     H54792   2.031  10.921   9.627  0.1377 -1.8622  1.0124
  406MOL0     H54793   2.049  10.699   9.734  0.7841 -2.0859 -2.9788
  406MOL0     H54794   2.128  10.592  10.318 -1.6754  0.6018 -1.9561
  406MOL0     H54795   2.173  10.775  10.158  1.1436 -1.3780  1.3783
  406MOL0     H54796   2.336  11.356  10.323 -0.2936  0.4805 -0.1868
  406MOL0     H54797   2.422  11.530  10.180 -0.1240 -0.2248  1.1761
  406MOL0     H54798   2.250  11.666   9.905  1.4792  0.8198 -0.8909
  406MOL0     H54799   2.259  11.539   9.776  0.6258 -1.5993 -0.4845
  406MOL0     H54800   2.489  11.631   9.736  0.6297 -0.7155  1.7802
  406MOL0     H54801   2.466  11.759   9.836  1.3515 -0.7255  0.9248
  406MOL0     H54802   2.324  11.874   9.684  1.4954 -0.2149 -1.2550
  406MOL0     H54803   2.240  11.722   9.626  0.5652 -1.8049  2.7747
  406MOL0     H54804   2.499  11.873   9.578 -0.8850  0.8970 -1.8276
  406MOL0     H54805   2.493  11.709   9.496  0.6977  2.0204 -2.0296
  406MOL0     H54806   2.225  11.960   9.267  1.7172 -0.2361 -1.7729
  406MOL0     H54807   2.246  11.311   9.846 -0.8853 -0.5218  0.2547
  406MOL0     H54808   2.107  11.141   9.855  3.4967  1.1545 -0.0073
  406MOL0     H54809   2.102  11.048   9.992 -1.6600  0.2914  0.6908
  406MOL0     H54810   1.988  11.187   9.980 -0.7894 -0.9803 -0.9941
  407MOL0     O54811   4.722  10.722   9.918 -0.0933 -0.5368 -0.4995
  407MOL0     C54812   4.750  10.631   9.845 -0.3342  0.1467 -0.1807
  407MOL0     O54813   4.719  10.626   9.705  0.6182 -0.1805 -0.5738
  407MOL0     C54814   4.639  10.705   9.627 -0.2410 -0.8466  0.9551
  407MOL0     C54815   4.558  10.818   9.681  0.0399  0.3870  0.2876
  407MOL0     C54816   4.471  10.891   9.598 -0.5596 -0.3593 -0.0395
  407MOL0     C54817   4.452  10.857   9.465 -0.3316 -0.0594  0.3280
  407MOL0     O54818   4.369  10.923   9.379 -0.2117 -0.2059  0.2065
  407MOL0     C54819   4.365  11.062   9.377 -0.8328 -0.2140  1.0344
  407MOL0     C54820   4.468  11.105   9.275 -1.6498  0.0124  0.2643
  407MOL0     C54821   4.432  11.074   9.121  0.0988  1.2077 -0.5007
  407MOL0     C54822   4.435  11.191   9.024  0.0273 -0.4989  1.0229
  407MOL0     C54823   4.352  11.158   8.897  0.3042 -0.5136 -0.9358
  407MOL0     C54824   4.306  11.266   8.808  0.6113 -0.6545  0.1555
  407MOL0     C54825   4.279  11.235   8.658 -0.0580 -0.0490 -0.5384
  407MOL0     C54826   4.209  11.352   8.571 -0.3918 -0.1855 -0.2133
  407MOL0     N54827   4.140  11.297   8.455  0.5041 -0.3151  0.4571
  407MOL0     C54828   4.083  11.385   8.364  0.1518 -0.4493 -0.1415
  407MOL0     C54829   4.031  11.297   8.276 -0.1491 -0.8757  0.1916
  407MOL0     C54830   3.971  11.330   8.141 -0.7881 -1.1531 -0.2223
  407MOL0     C54831   3.835  11.404   8.163  0.6331 -0.2388  0.3443
  407MOL0     C54832   3.777  11.462   8.031  0.1327 -0.9848  0.0633
  407MOL0     C54833   3.625  11.444   8.012 -0.3597 -0.3090  0.4604
  407MOL0     O54834   3.567  11.555   7.937  0.7794  0.5254 -0.2895
  407MOL0     C54835   3.430  11.571   7.936 -0.1475  0.3240 -0.2532
  407MOL0     C54836   3.337  11.480   7.978  0.1466 -0.4764 -0.8653
  407MOL0     C54837   3.202  11.489   7.955  0.0010  0.0073  0.3867
  407MOL0     C54838   3.157  11.589   7.865 -0.0105  0.4395  0.1643
  407MOL0     C54839   3.019  11.597   7.824  0.6284 -0.0007 -0.0019
  407MOL0     O54840   2.980  11.705   7.749  0.3553  0.0971  0.3753
  407MOL0     C54841   2.870  11.695   7.672 -0.2240 -0.0946  0.0298
  407MOL0     C54842   2.806  11.578   7.614  0.0273  0.6630  0.2361
  407MOL0     C54843   2.695  11.590   7.529  0.4147  0.3138 -0.6785
  407MOL0     C54844   2.651  11.710   7.503  0.5917  0.1413  0.2990
  407MOL0     O54845   2.547  11.704   7.410  0.1020  1.1792 -0.3933
  407MOL0     C54846   2.449  11.803   7.408 -0.9933  0.5208 -0.1546
  407MOL0     C54847   2.331  11.761   7.318  0.2768 -0.6753  0.7962
  407MOL0     C54848   2.246  11.671   7.396  0.5249  1.0060  0.3003
  407MOL0     C54849   2.139  11.614   7.295 -0.0710 -1.0552  0.7166
  407MOL0     C54850   2.069  11.501   7.360 -0.1755  0.4014  0.0249
  407MOL0     C54851   1.957  11.452   7.268 -0.5739  0.2202 -1.3460
  407MOL0     C54852   1.909  11.308   7.285  0.9455  0.0512 -1.4519
  407MOL0     C54853   1.757  11.313   7.340  0.6430  0.2037  0.2985
  407MOL0    Cl54854   1.696  11.142   7.308 -0.0441 -0.0636  0.3585
  407MOL0     C54855   2.705  11.828   7.555 -0.6555  0.1901 -0.4505
  407MOL0     C54856   2.814  11.821   7.639 -0.2199 -0.4116 -0.2527
  407MOL0     O54857   2.947  11.508   7.850 -0.2058  0.0604 -0.0012
  407MOL0     C54858   3.249  11.677   7.817 -1.1416 -0.6900  0.5297
  407MOL0     C54859   3.384  11.670   7.859  0.7446  0.7229 -0.3836
  407MOL0     N54860   4.067  11.168   8.309  0.6507 -0.2049 -0.1229
  407MOL0     N54861   4.124  11.171   8.421 -0.4536  0.0874 -0.3189
  407MOL0     C54862   4.526  10.739   9.417  0.3844 -0.5979 -1.5359
  407MOL0     C54863   4.625  10.677   9.494  0.2104 -0.3482  0.2588
  407MOL0     C54864   4.830  10.520   9.898 -0.5104  0.7439  0.2183
  407MOL0     C54865   4.895  10.426   9.814 -0.2354 -1.0788 -0.0779
  407MOL0     C54866   4.974  10.320   9.870 -0.0029  0.1548 -1.0201
  407MOL0     C54867   4.983  10.301  10.005 -0.1311 -0.1855 -0.2878
  407MOL0     O54868   5.057  10.197  10.067 -0.5892 -0.1740 -0.2991
  407MOL0     C54869   5.141  10.112   9.981  0.8380  0.0959  0.9039
  407MOL0     C54870   5.271  10.180   9.963 -0.2694  0.0515  0.5033
  407MOL0     C54871   5.356  10.180  10.091  0.0273  0.5700 -0.7384
  407MOL0     C54872   5.516  10.191  10.083 -0.6170  0.8294 -0.3784
  407MOL0     C54873   5.578  10.068  10.013 -0.8601  0.3971  0.5278
  407MOL0     C54874   5.628   9.974   9.958 -0.8742 -0.0848  0.2543
  407MOL0     C54875   4.920  10.396  10.086  0.1161 -0.5388 -0.7509
  407MOL0     C54876   4.833  10.498  10.044 -0.6856  0.1278  0.6086
  407MOL0     C54877   4.755  10.577  10.148 -0.5149 -0.1408 -0.2322
  407MOL0     H54878   4.559  10.850   9.785  3.6414  0.2509  0.4286
  407MOL0     H54879   4.405  10.970   9.632 -0.8968  1.3447 -4.0960
  407MOL0     H54880   4.262  11.086   9.353 -0.7463  2.9076  3.2744
  407MOL0     H54881   4.386  11.111   9.473  0.2653 -2.7058  2.1717
  407MOL0     H54882   4.562  11.061   9.308 -0.7809  3.0880  2.3038
  407MOL0     H54883   4.498  11.210   9.274  2.8007 -1.0092 -1.6881
  407MOL0     H54884   4.332  11.031   9.107 -0.9763  3.2693  0.4856
  407MOL0     H54885   4.495  10.989   9.091  0.8979  0.3166  3.2539
  407MOL0     H54886   4.401  11.289   9.059  1.9740  0.7300 -0.3289
  407MOL0     H54887   4.539  11.222   9.012  0.7896 -2.0561  3.0473
  407MOL0     H54888   4.419  11.101   8.832  3.1758  1.3688  0.1845
  407MOL0     H54889   4.263  11.101   8.926  0.4153 -1.0026 -1.5445
  407MOL0     H54890   4.218  11.316   8.850  0.7213 -0.8435  0.6255
  407MOL0     H54891   4.385  11.343   8.807  1.7449 -1.7873  0.2529
  407MOL0     H54892   4.210  11.150   8.651 -1.1378  0.6499  1.0998
  407MOL0     H54893   4.374  11.214   8.608  0.4338 -0.5154  0.5521
  407MOL0     H54894   4.134  11.404   8.632 -0.7279 -1.1923  0.2711
  407MOL0     H54895   4.273  11.437   8.550 -0.3437  0.3904  1.9803
  407MOL0     H54896   4.094  11.492   8.370  0.6607 -0.4952 -0.1972
  407MOL0     H54897   4.037  11.397   8.084 -0.6867 -0.3308  0.8262
  407MOL0     H54898   3.957  11.237   8.087  0.6182 -1.0268 -0.8524
  407MOL0     H54899   3.757  11.337   8.198  0.5675 -1.2619 -1.6367
  407MOL0     H54900   3.839  11.482   8.240 -1.4133  2.5442 -2.1265
  407MOL0     H54901   3.829  11.420   7.945 -0.9912 -3.1778  0.3762
  407MOL0     H54902   3.804  11.568   8.035 -1.6634 -0.4669 -0.4223
  407MOL0     H54903   3.582  11.433   8.112  0.5985  0.8437  1.0247
  407MOL0     H54904   3.602  11.354   7.954 -1.6601 -0.8725  1.7923
  407MOL0     H54905   3.371  11.402   8.045 -1.1462  0.8467  1.4731
  407MOL0     H54906   3.136  11.420   8.006 -0.9453 -0.3436 -1.2687
  407MOL0     H54907   2.837  11.475   7.626 -0.6269  0.4286 -0.0353
  407MOL0     H54908   2.644  11.503   7.488  2.0076 -1.9509  1.8290
  407MOL0     H54909   2.401  11.820   7.505 -0.7296 -0.1161  0.0888
  407MOL0     H54910   2.486  11.898   7.370 -1.9465 -0.0141 -2.6054
  407MOL0     H54911   2.282  11.854   7.287  0.3400 -0.2111  2.0366
  407MOL0     H54912   2.369  11.721   7.224  4.6622  0.1316  1.9799
  407MOL0     H54913   2.300  11.588   7.441 -1.3375 -1.2204 -1.3139
  407MOL0     H54914   2.187  11.724   7.471  0.2086  1.8977 -0.5548
  407MOL0     H54915   2.182  11.587   7.198  0.3556 -1.1686  0.9361
  407MOL0     H54916   2.067  11.694   7.275 -0.1844 -0.9727  1.4244
  407MOL0     H54917   2.032  11.501   7.462  1.8719 -3.9799  1.0224
  407MOL0     H54918   2.144  11.422   7.373  0.4744  0.8937 -0.6000
  407MOL0     H54919   1.875  11.524   7.280 -0.8354 -0.1973 -0.5226
  407MOL0     H54920   1.997  11.463   7.168  1.9227  0.7411 -0.3539
  407MOL0     H54921   1.971  11.240   7.344 -1.1539 -3.3153 -2.8257
  407MOL0     H54922   1.897  11.274   7.182 -2.9659  2.2751 -1.9536
  407MOL0     H54923   1.768  11.346   7.443  4.1692  3.4502 -0.8710
  407MOL0     H54924   1.695  11.389   7.291 -0.2979  1.1385  2.7788
  407MOL0     H54925   2.649  11.918   7.532 -0.0884  0.3977 -1.0401
  407MOL0     H54926   2.866  11.910   7.674 -1.3864  0.2268 -0.0841
  407MOL0     H54927   3.223  11.756   7.747  3.7175  0.6732 -0.1648
  407MOL0     H54928   3.452  11.744   7.820 -0.6634  2.6258  0.5899
  407MOL0     H54929   4.530  10.700   9.316  1.0069 -0.7189 -1.4715
  407MOL0     H54930   4.688  10.600   9.452  1.2379  0.8650 -0.4993
  407MOL0     H54931   4.896  10.444   9.707 -5.3904 -0.6344 -0.2832
  407MOL0     H54932   5.009  10.243   9.803  0.8448  1.0115 -1.5996
  407MOL0     H54933   5.096  10.089   9.883  0.1699 -0.9505  1.4379
  407MOL0     H54934   5.133  10.015  10.030 -0.2327 -1.6078 -2.3186
  407MOL0     H54935   5.258  10.280   9.921  3.7273 -0.2127 -1.9046
  407MOL0     H54936   5.333  10.124   9.892  0.5782  2.2318 -0.5733
  407MOL0     H54937   5.341  10.088  10.148  2.2710  2.7824  4.0221
  407MOL0     H54938   5.319  10.260  10.157  0.7146 -0.0399  0.4172
  407MOL0     H54939   5.557  10.283  10.040  1.2595 -0.8449 -2.4130
  407MOL0     H54940   5.561  10.196  10.182  0.5830 -1.3092 -0.7568
  407MOL0     H54941   5.675   9.894   9.904  1.0678  2.7346 -2.6223
  407MOL0     H54942   4.942  10.390  10.192 -0.4788  2.8854 -0.3295
  407MOL0     H54943   4.810  10.671  10.154 -0.4622 -0.2499  1.5183
  407MOL0     H54944   4.652  10.596  10.115 -0.3909 -1.4711 -1.4945
  407MOL0     H54945   4.755  10.538  10.250  3.9316 -0.9026 -0.3521
  408MOL0     O54946  11.127   1.540  10.320  0.1889  0.3251  0.0810
  408MOL0     C54947  11.163   1.646  10.274 -0.1782  0.0569  0.5164
  408MOL0     O54948  11.278   1.658  10.204  0.3646 -0.1628 -0.3348
  408MOL0     C54949  11.364   1.557  10.187 -0.2326  0.9678 -1.0190
  408MOL0     C54950  11.420   1.487  10.295  0.9063 -0.0611 -0.6120
  408MOL0     C54951  11.479   1.368  10.276  0.0317  0.8009  0.7343
  408MOL0     C54952  11.489   1.312  10.147 -0.3808 -0.5236 -0.4697
  408MOL0     O54953  11.525   1.183  10.115 -0.5912  0.5107 -0.5330
  408MOL0     C54954  11.531   1.078  10.206  0.0496 -0.7797 -0.1493
  408MOL0     C54955  11.548   0.960  10.119  0.2810  0.4317 -0.9466
  408MOL0     C54956  11.449   0.941  10.002 -0.5451  0.3573 -0.6449
  408MOL0     C54957  11.445   0.802   9.940 -0.3236  0.2850 -0.4962
  408MOL0     C54958  11.352   0.808   9.823  0.4594  0.0760  0.9459
  408MOL0     C54959  11.334   0.660   9.781 -0.3849 -0.0658 -0.9555
  408MOL0     C54960  11.262   0.647   9.647 -0.9467 -0.2739  0.5306
  408MOL0     C54961  11.232   0.515   9.614  0.3515  0.0929  0.2016
  408MOL0     N54962  11.359   0.439   9.571 -0.1293 -0.3312 -0.0159
  408MOL0     C54963  11.424   0.344   9.646  0.2499  0.0375  0.0986
  408MOL0     C54964  11.538   0.326   9.591 -1.3879 -1.0436  0.3085
  408MOL0     C54965  11.639   0.235   9.649 -0.0047  0.3379 -0.5221
  408MOL0     C54966  11.733   0.165   9.544 -0.0957 -0.4840  0.1945
  408MOL0     C54967  11.853   0.090   9.602 -0.5095  0.2837  0.5332
  408MOL0     C54968  11.967   0.186   9.643 -0.1013  0.1289 -1.0545
  408MOL0     O54969  12.063   0.089   9.712  0.4296 -0.1616 -0.2568
  408MOL0     C54970  12.142   0.121   9.817 -0.0181  0.2661  0.3337
  408MOL0     C54971  12.163   0.255   9.862  0.3317  0.6585  0.8339
  408MOL0     C54972  12.245   0.272   9.975  0.3779  0.3716 -0.7790
  408MOL0     C54973  12.310   0.163  10.039 -0.0444  0.7653 -0.3499
  408MOL0     C54974  12.410   0.183  10.139 -0.0269  0.0441  0.2105
  408MOL0     O54975  12.428   0.093  10.243  0.3050 -0.1155  0.3432
  408MOL0     C54976  12.550   0.084  10.311 -0.5477 -0.9042 -0.2973
  408MOL0     C54977  12.543   0.012  10.429  0.0424  0.1838 -0.3598
  408MOL0     C54978  12.659  -0.024  10.506 -0.1425 -0.2527 -0.1113
  408MOL0     C54979  12.784   0.025  10.472 -0.2554 -0.2808 -0.1921
  408MOL0     O54980  12.889  -0.036  10.541 -0.9856 -0.9814  0.2540
  408MOL0     C54981  13.020   0.028  10.536 -0.7069  0.1583 -0.8733
  408MOL0     C54982  13.030   0.155  10.622  0.3594 -0.7687 -0.7302
  408MOL0     C54983  13.015   0.113  10.771 -0.8278  0.9812 -0.3084
  408MOL0     C54984  13.051   0.235  10.849 -0.5978  0.3728  0.7579
  408MOL0     C54985  12.994   0.221  10.994  0.6717 -0.1297 -0.5360
  408MOL0     C54986  12.839   0.258  11.010 -0.8845  1.0626 -0.1090
  408MOL0     C54987  12.788   0.257  11.159 -0.0096  0.0404 -0.4267
  408MOL0     C54988  12.641   0.301  11.173 -0.2007  0.2152  0.5103
  408MOL0    Cl54989  12.617   0.478  11.154 -0.6958 -0.3149  0.7577
  408MOL0     C54990  12.795   0.104  10.356 -0.6884  0.3792 -0.8106
  408MOL0     C54991  12.678   0.124  10.272 -0.6761  0.7353  0.8182
  408MOL0     O54992  12.479   0.286  10.123 -0.4609  0.4307 -0.6337
  408MOL0     C54993  12.278   0.034   9.996 -0.5289 -0.4083  0.3558
  408MOL0     C54994  12.196   0.014   9.887 -0.5544 -0.5287  0.1807
  408MOL0     N54995  11.532   0.385   9.467  0.2628  1.0623  0.5421
  408MOL0     N54996  11.429   0.448   9.456 -0.5985 -0.1466  1.1625
  408MOL0     C54997  11.453   1.398  10.043  0.2514  0.4874 -0.3921
  408MOL0     C54998  11.385   1.514  10.057  0.1077 -1.1618 -0.2266
  408MOL0     C54999  11.073   1.762  10.295  0.1341  0.0139  0.4141
  408MOL0     C55000  10.940   1.735  10.335 -0.2309  0.1304  0.2068
  408MOL0     C55001  10.865   1.834  10.393 -0.3126 -0.0277 -1.1162
  408MOL0     C55002  10.908   1.965  10.390 -0.0324 -0.0247 -0.3263
  408MOL0     O55003  10.821   2.065  10.430 -0.7134  0.1046 -0.7667
  408MOL0     C55004  10.858   2.126  10.553 -0.0831 -0.1220  0.9542
  408MOL0     C55005  10.743   2.144  10.655 -0.3990  0.3077 -0.0882
  408MOL0     C55006  10.777   2.233  10.769 -0.1481 -0.0472 -0.1347
  408MOL0     C55007  10.829   2.368  10.740 -0.5355  0.5432 -0.2221
  408MOL0     C55008  10.809   2.454  10.856 -0.2455  0.7469 -1.3522
  408MOL0     C55009  10.782   2.524  10.952  0.6175 -0.7267  1.3381
  408MOL0     C55010  11.035   1.992  10.353  0.7307 -0.3243  1.0072
  408MOL0     C55011  11.119   1.893  10.292  0.7159 -0.2300 -0.4016
  408MOL0     C55012  11.257   1.936  10.252  0.0669  0.6417  0.5489
  408MOL0     H55013  11.405   1.533  10.392  0.1573  1.2926 -1.3386
  408MOL0     H55014  11.514   1.305  10.357 -3.4043  0.8173  2.3955
  408MOL0     H55015  11.605   1.097  10.284 -1.0033  1.1144  0.4722
  408MOL0     H55016  11.437   1.085  10.263 -0.4770  0.8571 -1.1346
  408MOL0     H55017  11.556   0.875  10.187  1.4043  0.2680 -1.2575
  408MOL0     H55018  11.652   0.964  10.084 -0.5271  0.7041 -3.5528
  408MOL0     H55019  11.464   1.019   9.926  1.3164  1.1423  0.4407
  408MOL0     H55020  11.347   0.967  10.032 -0.3918 -0.1435  0.3624
  408MOL0     H55021  11.547   0.769   9.919 -0.6940 -0.2638 -1.4858
  408MOL0     H55022  11.396   0.742  10.017 -2.2527  4.4847  1.9277
  408MOL0     H55023  11.251   0.845   9.843 -0.9911 -2.2072 -1.4846
  408MOL0     H55024  11.400   0.863   9.741  2.8057  0.6331  2.5861
  408MOL0     H55025  11.432   0.612   9.783 -0.1555  0.4022 -0.6780
  408MOL0     H55026  11.274   0.613   9.859 -0.4046 -2.0733 -2.1193
  408MOL0     H55027  11.328   0.678   9.566 -2.2808  3.0209  0.5707
  408MOL0     H55028  11.166   0.699   9.645 -2.1268 -2.3521 -0.8555
  408MOL0     H55029  11.192   0.461   9.700 -2.3842  1.0391 -0.3664
  408MOL0     H55030  11.164   0.507   9.528  1.5918 -1.7140 -0.6834
  408MOL0     H55031  11.392   0.298   9.738  0.3191  1.1868  0.7231
  408MOL0     H55032  11.692   0.297   9.721 -1.1481  1.1820 -0.3797
  408MOL0     H55033  11.592   0.156   9.710 -0.0295 -1.0872 -2.2973
  408MOL0     H55034  11.660   0.102   9.493 -1.0712 -0.3855  1.4183
  408MOL0     H55035  11.777   0.236   9.473 -1.4412  0.3196  0.1241
  408MOL0     H55036  11.875   0.015   9.525 -0.0722 -1.8475  2.6179
  408MOL0     H55037  11.818   0.028   9.686  0.6356 -0.6667  0.3276
  408MOL0     H55038  11.927   0.266   9.706 -0.2380  0.3923 -1.4679
  408MOL0     H55039  12.011   0.222   9.549  1.9092  2.5198  0.6793
  408MOL0     H55040  12.136   0.352   9.820  0.5681  1.3713  2.2685
  408MOL0     H55041  12.263   0.374  10.008  0.9252 -0.1623  0.6224
  408MOL0     H55042  12.444  -0.024  10.453  0.0314 -0.4557 -1.2883
  408MOL0     H55043  12.657  -0.078  10.601  1.0432 -0.0920  0.0157
  408MOL0     H55044  13.097  -0.039  10.575 -0.6554  0.3462 -0.6460
  408MOL0     H55045  13.043   0.056  10.433 -1.2293  0.6005 -0.8770
  408MOL0     H55046  13.113   0.223  10.600 -2.3819  3.5392  1.1636
  408MOL0     H55047  12.943   0.213  10.592  0.1304 -0.8948 -0.3160
  408MOL0     H55048  12.910   0.101  10.799 -0.9692  2.3124 -0.1733
  408MOL0     H55049  13.074   0.022  10.785  0.1033  1.4562 -1.0167
  408MOL0     H55050  13.003   0.323  10.805 -1.6693  0.9469  2.9180
  408MOL0     H55051  13.160   0.241  10.843 -0.3328 -1.6521  2.4850
  408MOL0     H55052  13.052   0.288  11.059  0.9888 -0.1525 -0.7914
  408MOL0     H55053  13.007   0.116  11.021  1.5012  0.1310  0.1526
  408MOL0     H55054  12.831   0.359  10.969  0.9555 -0.1410 -3.8945
  408MOL0     H55055  12.786   0.182  10.953  1.2175  0.3206 -1.1610
  408MOL0     H55056  12.852   0.330  11.208 -0.4031 -0.4389  0.8720
  408MOL0     H55057  12.798   0.160  11.209 -1.5443  1.2818  2.5901
  408MOL0     H55058  12.587   0.243  11.098 -1.5186 -0.3346  1.8266
  408MOL0     H55059  12.607   0.261  11.269  1.3777 -1.6880  0.3535
  408MOL0     H55060  12.885   0.136  10.303  0.9117 -1.1425  0.8289
  408MOL0     H55061  12.686   0.173  10.175  0.1304  0.1696  0.5841
  408MOL0     H55062  12.323  -0.051  10.047 -4.8465 -2.1930  1.6929
  408MOL0     H55063  12.158  -0.085   9.865  1.2278 -1.2121  0.0052
  408MOL0     H55064  11.477   1.361   9.944 -1.3885 -3.4003  0.4620
  408MOL0     H55065  11.338   1.564   9.973 -0.3962 -2.6620 -0.8741
  408MOL0     H55066  10.909   1.631  10.336  0.7762 -0.1893  0.0801
  408MOL0     H55067  10.768   1.788  10.412  0.9830 -3.2644 -1.5964
  408MOL0     H55068  10.910   2.219  10.528  2.1882 -1.5983 -0.1389
  408MOL0     H55069  10.933   2.070  10.610  1.9959  1.5689  0.0434
  408MOL0     H55070  10.717   2.043  10.689 -0.0471 -0.7682 -2.7770
  408MOL0     H55071  10.652   2.178  10.604  0.2836  2.7845  0.2177
  408MOL0     H55072  10.852   2.174  10.822 -3.5157 -5.7889 -0.9058
  408MOL0     H55073  10.682   2.242  10.823 -0.4843 -0.2852 -0.6721
  408MOL0     H55074  10.934   2.366  10.708  0.0078  0.9705  1.4132
  408MOL0     H55075  10.782   2.411  10.651  0.7232  0.5702 -0.8936
  408MOL0     H55076  10.758   2.569  11.046 -0.8378 -0.1044  0.6914
  408MOL0     H55077  11.059   2.098  10.356 -0.2984 -0.0935  3.2015
  408MOL0     H55078  11.272   2.044  10.255 -0.2333  0.7594 -1.2752
  408MOL0     H55079  11.329   1.885  10.317 -0.8203 -2.8024 -0.9078
  408MOL0     H55080  11.289   1.915  10.149  0.2595  2.3140  0.2368
  409MOL0     O55081   5.393  10.535   7.734  0.3802  0.6531  0.5816
  409MOL0     C55082   5.506  10.541   7.695 -0.5304 -0.7242 -1.0375
  409MOL0     O55083   5.558  10.524   7.562  0.4315 -0.4224 -1.0561
  409MOL0     C55084   5.498  10.569   7.446  0.4622  0.4441 -1.1105
  409MOL0     C55085   5.547  10.525   7.323 -0.4867 -0.3835  0.0357
  409MOL0     C55086   5.479  10.555   7.198  0.3218  0.2317  0.4729
  409MOL0     C55087   5.379  10.649   7.194 -0.5964  0.6230  0.5150
  409MOL0     O55088   5.334  10.681   7.069  1.2035  0.2418  0.2819
  409MOL0     C55089   5.244  10.791   7.048 -0.1670  0.2904 -0.1140
  409MOL0     C55090   5.215  10.805   6.896 -0.4111  0.5496  0.2862
  409MOL0     C55091   5.184  10.957   6.857 -0.1557 -0.0101 -0.7753
  409MOL0     C55092   5.221  10.983   6.716  0.6076 -0.2330 -0.3692
  409MOL0     C55093   5.130  10.925   6.607 -0.0508  0.2773 -0.6249
  409MOL0     C55094   5.197  10.924   6.473 -0.7423 -0.3033  1.2990
  409MOL0     C55095   5.318  10.833   6.454  0.3407 -0.1067  1.3856
  409MOL0     C55096   5.374  10.830   6.308  0.5490 -0.4963  0.2214
  409MOL0     N55097   5.321  10.718   6.243  0.5407  0.3136 -1.1628
  409MOL0     C55098   5.185  10.685   6.211  0.2229  0.8274 -0.4412
  409MOL0     C55099   5.190  10.568   6.141 -0.1746  0.2733  0.1441
  409MOL0     C55100   5.101  10.470   6.076 -0.3250 -0.2229 -0.7860
  409MOL0     C55101   5.051  10.513   5.935 -0.1555 -0.0922 -0.7381
  409MOL0     C55102   5.146  10.494   5.820  0.9854  0.9749  0.1613
  409MOL0     C55103   5.093  10.529   5.683 -0.8446 -0.0946 -0.0744
  409MOL0     O55104   5.033  10.657   5.665 -0.6897  0.4669 -0.3979
  409MOL0     C55105   5.109  10.760   5.628 -0.2629 -0.9586 -0.7653
  409MOL0     C55106   5.052  10.878   5.592  0.0323 -1.4840 -0.6703
  409MOL0     C55107   5.117  11.006   5.564 -0.5492  0.5366 -0.3576
  409MOL0     C55108   5.256  11.007   5.550  0.0895  0.2028 -0.8481
  409MOL0     C55109   5.337  11.125   5.525 -1.4867 -0.5373  0.1431
  409MOL0     O55110   5.470  11.107   5.483 -0.3385  0.4860  0.3230
  409MOL0     C55111   5.550  11.204   5.435  0.6679 -0.4133 -0.9755
  409MOL0     C55112   5.527  11.341   5.456  0.1542  1.1080 -0.2344
  409MOL0     C55113   5.605  11.441   5.386 -0.6371  0.1145  0.3212
  409MOL0     C55114   5.720  11.406   5.328 -0.1519 -0.2417  0.5238
  409MOL0     O55115   5.794  11.497   5.260  0.0006  0.2077  0.4717
  409MOL0     C55116   5.790  11.478   5.117 -0.7459  0.2912  0.2971
  409MOL0     C55117   5.885  11.592   5.070  0.1810 -0.9670 -0.0694
  409MOL0     C55118   5.922  11.590   4.921 -0.3185 -0.2260  1.1117
  409MOL0     C55119   5.975  11.720   4.868 -0.6691  0.3258  0.7334
  409MOL0     C55120   5.993  11.727   4.708 -0.2423  0.5072  0.1030
  409MOL0     C55121   6.037  11.868   4.670  0.2756  0.3970  0.8217
  409MOL0     C55122   5.922  11.976   4.662 -0.6128 -0.0801 -0.7666
  409MOL0     C55123   5.975  12.109   4.641 -0.4696 -0.2814 -0.8806
  409MOL0    Cl55124   6.077  12.117   4.487  0.2025  0.6372  0.1218
  409MOL0     C55125   5.757  11.276   5.336  0.1343  0.7227  0.9982
  409MOL0     C55126   5.665  11.174   5.372 -0.0096  0.3046  0.5402
  409MOL0     O55127   5.279  11.238   5.531 -0.1622  0.2726 -0.2721
  409MOL0     C55128   5.324  10.889   5.576  0.4323 -0.3934  0.5326
  409MOL0     C55129   5.252  10.766   5.611 -1.5839  0.3364 -0.1015
  409MOL0     N55130   5.333  10.541   6.134  0.4867  0.1472 -0.8383
  409MOL0     N55131   5.406  10.633   6.178 -0.7280  0.2504  0.3088
  409MOL0     C55132   5.323  10.690   7.319  0.1943 -0.8581 -0.6964
  409MOL0     C55133   5.379  10.652   7.438  0.5967  0.3050 -0.4243
  409MOL0     C55134   5.610  10.567   7.798 -0.4548  0.3514 -0.2973
  409MOL0     C55135   5.737  10.615   7.754 -1.1656  0.4776 -0.0376
  409MOL0     C55136   5.831  10.663   7.842  0.4828 -1.2097 -0.1536
  409MOL0     C55137   5.810  10.637   7.983 -0.2832  0.2951 -0.0258
  409MOL0     O55138   5.907  10.670   8.081  0.3982 -0.0438 -0.2249
  409MOL0     C55139   5.876  10.776   8.172 -1.1907 -0.1768 -0.1964
  409MOL0     C55140   5.950  10.765   8.307  0.3634 -0.8121  0.7963
  409MOL0     C55141   5.907  10.642   8.396 -0.4737  0.4179 -0.4300
  409MOL0     C55142   5.987  10.670   8.524  1.3601  0.4176 -0.4047
  409MOL0     C55143   5.933  10.591   8.633 -0.0436  0.3210  0.1659
  409MOL0     C55144   5.896  10.510   8.723 -0.5586 -0.7331  0.0870
  409MOL0     C55145   5.689  10.577   8.026  0.2606  0.2200  1.2593
  409MOL0     C55146   5.588  10.537   7.935 -0.0394 -0.1572  0.0601
  409MOL0     C55147   5.465  10.479   7.999 -0.5713  0.2167 -0.2474
  409MOL0     H55148   5.625  10.450   7.315 -0.4719 -0.1262 -3.8998
  409MOL0     H55149   5.512  10.503   7.109 -0.9312 -2.4208  1.4471
  409MOL0     H55150   5.154  10.756   7.098 -0.6859  2.2055  0.3331
  409MOL0     H55151   5.293  10.875   7.098  0.6898 -0.8476  1.0472
  409MOL0     H55152   5.130  10.741   6.871 -0.0612 -0.4396  1.5288
  409MOL0     H55153   5.301  10.758   6.846 -3.3464 -2.8317 -2.0349
  409MOL0     H55154   5.234  11.033   6.918  0.2333  0.2207 -1.3673
  409MOL0     H55155   5.081  10.987   6.879  0.0589 -0.3284  0.7525
  409MOL0     H55156   5.206  11.089   6.698  2.8534  0.1347 -0.2819
  409MOL0     H55157   5.327  10.963   6.697  0.3351 -1.1267 -1.0256
  409MOL0     H55158   5.099  10.823   6.632 -1.1410  0.7829  0.1885
  409MOL0     H55159   5.035  10.978   6.607 -0.8793 -1.1283  0.2808
  409MOL0     H55160   5.134  10.896   6.388  4.8223 -1.0997 -3.2725
  409MOL0     H55161   5.241  11.021   6.450  3.1305 -2.1332  0.0161
  409MOL0     H55162   5.296  10.732   6.492 -4.3293 -0.2042 -0.9422
  409MOL0     H55163   5.391  10.872   6.525 -2.0027  2.9557  2.2921
  409MOL0     H55164   5.336  10.923   6.265 -0.3631 -0.0013  2.0018
  409MOL0     H55165   5.483  10.820   6.318  0.3571 -4.6066  0.1699
  409MOL0     H55166   5.095  10.732   6.250  2.6372  3.9452  1.8694
  409MOL0     H55167   5.155  10.375   6.077 -1.1595 -0.7248  0.5412
  409MOL0     H55168   5.015  10.462   6.144 -0.8356  1.8050 -1.1263
  409MOL0     H55169   4.963  10.457   5.902 -2.7332  4.4862 -2.4658
  409MOL0     H55170   5.022  10.618   5.934 -0.4345 -0.1094  1.3326
  409MOL0     H55171   5.179  10.389   5.818  1.0223  1.0003 -0.9028
  409MOL0     H55172   5.237  10.553   5.838  2.7212 -1.7527  1.0528
  409MOL0     H55173   5.016  10.457   5.656 -2.3986  1.9434 -1.3426
  409MOL0     H55174   5.161  10.509   5.599 -1.5888  1.7555 -1.1694
  409MOL0     H55175   4.945  10.868   5.577 -0.1029  1.6934 -2.9386
  409MOL0     H55176   5.061  11.098   5.553 -0.2069  1.4424  3.6156
  409MOL0     H55177   5.457  11.392   5.522  1.0412 -2.6213  4.0325
  409MOL0     H55178   5.571  11.544   5.395  1.7229  1.0255 -0.5367
  409MOL0     H55179   5.825  11.378   5.090  0.5089  0.8103 -0.0775
  409MOL0     H55180   5.695  11.495   5.065 -0.6105 -0.3618 -0.1798
  409MOL0     H55181   5.835  11.686   5.096 -1.8288 -2.1080  0.4828
  409MOL0     H55182   5.972  11.573   5.133  0.0561  2.2798  1.2678
  409MOL0     H55183   5.990  11.506   4.912 -0.7978 -1.1323  4.4028
  409MOL0     H55184   5.836  11.566   4.859 -3.0863  3.7112  2.9395
  409MOL0     H55185   6.076  11.741   4.904  1.3368  0.8834 -4.2877
  409MOL0     H55186   5.905  11.802   4.883  0.0222  1.0141  0.2721
  409MOL0     H55187   5.902  11.694   4.656 -2.6648  3.7550  1.9059
  409MOL0     H55188   6.074  11.655   4.694  0.0046  0.4990  1.4273
  409MOL0     H55189   6.113  11.896   4.743 -2.0400  2.0367  2.7884
  409MOL0     H55190   6.080  11.867   4.570  0.3473  5.4520  0.5491
  409MOL0     H55191   5.882  11.985   4.764  0.3357 -1.0812 -0.2767
  409MOL0     H55192   5.841  11.952   4.593 -1.0677 -1.2186  0.1228
  409MOL0     H55193   5.894  12.180   4.626 -0.2082  0.6516  1.7079
  409MOL0     H55194   6.040  12.136   4.724 -0.4599 -1.6331 -0.4256
  409MOL0     H55195   5.852  11.260   5.286  0.1414  0.5185  1.0754
  409MOL0     H55196   5.687  11.068   5.384 -1.9770 -0.0489  1.4147
  409MOL0     H55197   5.432  10.882   5.565  0.7614  1.2175  2.2788
  409MOL0     H55198   5.306  10.672   5.614  1.3371  1.9411  0.3969
  409MOL0     H55199   5.240  10.759   7.323  0.9118  0.1464 -2.2104
  409MOL0     H55200   5.338  10.697   7.528  1.6258  1.3494 -0.4464
  409MOL0     H55201   5.756  10.626   7.648 -0.8745 -3.5359 -0.5401
  409MOL0     H55202   5.924  10.708   7.808  0.7703 -0.3746  1.6098
  409MOL0     H55203   5.769  10.780   8.194 -1.0229  2.3228  0.5530
  409MOL0     H55204   5.899  10.877   8.135 -1.4789  1.3788  3.3895
  409MOL0     H55205   5.927  10.855   8.365  0.5062  0.8773 -1.6626
  409MOL0     H55206   6.059  10.765   8.310  0.3676  0.8249  3.2043
  409MOL0     H55207   5.909  10.541   8.356 -3.3845  0.5962 -1.2652
  409MOL0     H55208   5.800  10.658   8.411 -0.6003  0.6798 -1.5138
  409MOL0     H55209   6.095  10.656   8.519  1.3227 -0.5946  0.9729
  409MOL0     H55210   5.980  10.774   8.557 -0.3412 -0.2538  1.6065
  409MOL0     H55211   5.859  10.457   8.808 -0.9980  0.6619  0.8060
  409MOL0     H55212   5.683  10.563   8.134  1.3555 -1.8729  1.1201
  409MOL0     H55213   5.491  10.477   8.106  3.2122 -0.8882 -1.0160
  409MOL0     H55214   5.379  10.543   7.979  0.4713  1.5645 -0.5760
  409MOL0     H55215   5.441  10.376   7.971  0.3454 -0.6813  2.0176
  410MOL0     O55216   6.849  11.154   6.960  0.5073 -0.4847  0.1290
  410MOL0     C55217   6.931  11.187   6.874  0.4209  0.6320 -0.5885
  410MOL0     O55218   7.059  11.216   6.893  0.1658  0.1224  0.4777
  410MOL0     C55219   7.121  11.211   7.022  0.1375 -0.3634  0.2909
  410MOL0     C55220   7.074  11.160   7.140  0.7903  0.4322 -0.5228
  410MOL0     C55221   7.151  11.175   7.254  0.3941  0.2450 -0.6113
  410MOL0     C55222   7.269  11.249   7.260 -0.1086 -0.2855  0.3361
  410MOL0     O55223   7.325  11.245   7.380  0.3647 -0.2706 -1.1385
  410MOL0     C55224   7.444  11.319   7.415 -0.4057  0.3064 -0.7422
  410MOL0     C55225   7.580  11.244   7.379  0.9861  0.4704 -0.2790
  410MOL0     C55226   7.578  11.099   7.429  0.6425 -0.2904 -0.0214
  410MOL0     C55227   7.518  10.987   7.346  0.1554 -0.7283 -0.4031
  410MOL0     C55228   7.445  10.885   7.437  0.5010 -0.6205 -0.2019
  410MOL0     C55229   7.308  10.937   7.476  0.1387 -0.0313  0.0828
  410MOL0     C55230   7.249  10.858   7.598 -0.3383 -0.0441 -0.4836
  410MOL0     C55231   7.105  10.913   7.620 -0.3547  0.1178 -0.1839
  410MOL0     N55232   7.063  10.853   7.752  0.2711 -0.8745 -0.2610
  410MOL0     C55233   7.018  10.718   7.772 -0.2992  0.1966  0.6778
  410MOL0     C55234   7.004  10.701   7.898  0.5803  0.1266  0.2498
  410MOL0     C55235   6.955  10.565   7.949  0.2090  0.6609  0.4919
  410MOL0     C55236   6.935  10.545   8.096  0.5154 -0.4870 -0.6662
  410MOL0     C55237   7.063  10.485   8.159  0.0927  0.2557 -0.2335
  410MOL0     C55238   7.037  10.389   8.278 -0.0851  0.8014 -1.2881
  410MOL0     O55239   6.958  10.459   8.370  0.4585  0.3975  0.1669
  410MOL0     C55240   6.912  10.384   8.472  0.6103 -1.2093 -0.2639
  410MOL0     C55241   6.988  10.281   8.536  1.5137  0.1080  0.1846
  410MOL0     C55242   6.934  10.205   8.639 -0.6546 -0.6991 -0.4368
  410MOL0     C55243   6.811  10.247   8.695 -0.1193  0.8067  1.5622
  410MOL0     C55244   6.738  10.175   8.794 -0.3123  0.6288  0.4793
  410MOL0     O55245   6.813  10.100   8.880  0.1070  0.0917 -0.2509
  410MOL0     C55246   6.749  10.056   8.993 -0.1214  0.2709  0.4592
  410MOL0     C55247   6.649  10.131   9.070  0.0321  0.4270  0.5088
  410MOL0     C55248   6.579  10.063   9.175  0.7352  0.3533 -0.6636
  410MOL0     C55249   6.606   9.928   9.206 -0.3166 -0.4151 -0.9697
  410MOL0     O55250   6.539   9.857   9.302  0.4512 -0.5380  0.7237
  410MOL0     C55251   6.459   9.933   9.391 -1.2447 -0.3203  0.5133
  410MOL0     C55252   6.409   9.842   9.503 -0.9762  0.1007 -0.1762
  410MOL0     C55253   6.513   9.784   9.601  1.1395 -0.2150  0.9106
  410MOL0     C55254   6.440   9.735   9.726 -0.0509 -0.7375  0.4505
  410MOL0     C55255   6.532   9.722   9.849  0.4401 -0.2262  0.3881
  410MOL0     C55256   6.655   9.627   9.833 -0.9293 -0.5903  0.0171
  410MOL0     C55257   6.728   9.648   9.972 -0.4228 -0.0956  0.2820
  410MOL0     C55258   6.855   9.563   9.959  0.8556 -0.6345 -1.1604
  410MOL0    Cl55259   6.946   9.566  10.102 -0.2898 -0.2928  0.4477
  410MOL0     C55260   6.716   9.869   9.144 -0.1453  0.7987 -0.3439
  410MOL0     C55261   6.778   9.930   9.034 -0.3919 -0.0832 -0.1479
  410MOL0     O55262   6.609  10.188   8.797  0.1179 -0.1405  0.2234
  410MOL0     C55263   6.743  10.365   8.651 -0.5303  0.7013  0.4800
  410MOL0     C55264   6.790  10.423   8.534 -0.5323  0.1966  0.7877
  410MOL0     N55265   7.046  10.815   7.963 -0.1054 -0.1500 -0.5645
  410MOL0     N55266   7.071  10.905   7.878  0.1476  0.1381  0.4879
  410MOL0     C55267   7.326  11.290   7.139  0.3605  0.4944 -0.4832
  410MOL0     C55268   7.243  11.273   7.022 -0.1314  0.4534  0.9251
  410MOL0     C55269   6.893  11.193   6.740  0.6395  0.0019 -1.0340
  410MOL0     C55270   6.823  11.088   6.679 -0.4346 -0.0449 -0.7850
  410MOL0     C55271   6.768  11.100   6.554  0.2270 -0.4975 -0.3076
  410MOL0     C55272   6.815  11.197   6.462  0.1234 -1.0122 -1.0635
  410MOL0     O55273   6.768  11.220   6.334 -0.6383  0.0290 -1.2124
  410MOL0     C55274   6.646  11.178   6.277  1.1290  0.1864  1.0612
  410MOL0     C55275   6.630  11.249   6.146  0.9536  0.0013  0.3811
  410MOL0     C55276   6.515  11.212   6.060 -0.3171 -0.7374  0.2162
  410MOL0     C55277   6.529  11.266   5.916 -0.2073 -0.3170 -0.7441
  410MOL0     C55278   6.577  11.399   5.901 -0.6633  0.0436 -0.3012
  410MOL0     C55279   6.626  11.507   5.891  1.3242  0.9950  0.0591
  410MOL0     C55280   6.898  11.289   6.517 -0.1267  0.6771 -0.2581
  410MOL0     C55281   6.919  11.302   6.652  0.8851  0.8416  0.9135
  410MOL0     C55282   6.991  11.419   6.689  0.7017 -0.1556  0.7938
  410MOL0     H55283   6.982  11.103   7.149 -0.5602  2.0556 -2.9267
  410MOL0     H55284   7.106  11.151   7.350  0.4445 -1.2028 -0.9204
  410MOL0     H55285   7.453  11.413   7.358  0.7787 -0.1868 -1.4221
  410MOL0     H55286   7.436  11.339   7.522 -0.6419  0.9154 -0.8660
  410MOL0     H55287   7.657  11.312   7.416 -2.7952  2.5608  4.9714
  410MOL0     H55288   7.581  11.223   7.272 -1.1302  1.6702 -0.5836
  410MOL0     H55289   7.531  11.109   7.527  1.5787  1.3758  0.2877
  410MOL0     H55290   7.684  11.075   7.442  1.2057 -0.0739 -3.3879
  410MOL0     H55291   7.443  11.023   7.275  2.6451  0.4391 -2.6242
  410MOL0     H55292   7.595  10.942   7.283  0.5190 -0.8577  0.1282
  410MOL0     H55293   7.432  10.786   7.393 -0.3123 -0.0442 -1.3193
  410MOL0     H55294   7.508  10.868   7.525  1.5410  3.0057 -0.0790
  410MOL0     H55295   7.322  11.035   7.522  0.9813 -0.5301  0.9354
  410MOL0     H55296   7.235  10.938   7.395 -0.5607  2.7380  0.6755
  410MOL0     H55297   7.301  10.896   7.686 -1.4140  0.6712 -0.1313
  410MOL0     H55298   7.244  10.750   7.584  1.6318  0.0483 -2.3554
  410MOL0     H55299   7.095  11.022   7.622 -3.3839 -0.0667  2.4159
  410MOL0     H55300   7.049  10.881   7.532  4.1007 -0.3523 -3.2113
  410MOL0     H55301   7.010  10.654   7.685  3.0495  1.3681 -0.6654
  410MOL0     H55302   6.858  10.535   7.910 -1.6603  2.0635  3.6425
  410MOL0     H55303   7.027  10.491   7.913  0.9013  1.8583 -0.7091
  410MOL0     H55304   6.923  10.644   8.142 -0.3915 -1.1903  0.6687
  410MOL0     H55305   6.849  10.488   8.130 -0.9190 -0.3824 -3.7563
  410MOL0     H55306   7.128  10.562   8.199  3.5405 -3.5295  2.2390
  410MOL0     H55307   7.106  10.432   8.073 -1.9057  2.9918 -3.1391
  410MOL0     H55308   7.131  10.358   8.324  1.3629 -0.1475 -4.5969
  410MOL0     H55309   6.984  10.302   8.239 -1.2440  0.3260  1.1248
  410MOL0     H55310   7.082  10.249   8.493  0.6913 -4.0607  1.1180
  410MOL0     H55311   6.987  10.117   8.674  0.8947  0.7871  1.1374
  410MOL0     H55312   6.617  10.233   9.053 -0.0698  0.5904  1.6204
  410MOL0     H55313   6.499  10.116   9.225  0.4829 -0.6243  0.0058
  410MOL0     H55314   6.517  10.017   9.431  2.7059 -0.5319 -3.9298
  410MOL0     H55315   6.379   9.980   9.334 -0.7709  1.1155  0.9826
  410MOL0     H55316   6.328   9.898   9.551 -0.9750 -1.9197  2.3685
  410MOL0     H55317   6.372   9.756   9.447 -1.1828 -1.2363  1.9124
  410MOL0     H55318   6.567   9.701   9.555  0.8141 -1.3687  2.5179
  410MOL0     H55319   6.579   9.869   9.621 -2.0861  2.5931  0.6504
  410MOL0     H55320   6.407   9.634   9.700  0.1322 -0.2383 -1.9451
  410MOL0     H55321   6.355   9.800   9.747 -1.1260 -1.8741 -0.2541
  410MOL0     H55322   6.460   9.681   9.920  0.3344  0.5031  0.7186
  410MOL0     H55323   6.558   9.822   9.887 -1.8991 -0.0495  1.6928
  410MOL0     H55324   6.620   9.523   9.833  1.5185 -1.4850  0.3116
  410MOL0     H55325   6.716   9.639   9.743 -0.1648  1.2298  0.7360
  410MOL0     H55326   6.670   9.616  10.060 -0.0786 -0.8711  0.2384
  410MOL0     H55327   6.760   9.751   9.990 -0.5249 -0.3398  2.0553
  410MOL0     H55328   6.822   9.460   9.940  1.2927 -0.4727 -2.9325
  410MOL0     H55329   6.906   9.598   9.869 -1.8234 -1.6698 -3.2467
  410MOL0     H55330   6.741   9.768   9.175  0.3147  0.2756 -2.2352
  410MOL0     H55331   6.867   9.880   8.997 -0.8326  1.0796 -2.9801
  410MOL0     H55332   6.662  10.405   8.712  2.3000  0.8839  4.5579
  410MOL0     H55333   6.734  10.509   8.500  1.5877  2.1309  1.9140
  410MOL0     H55334   7.419  11.346   7.137  0.0968  0.9645 -0.1113
  410MOL0     H55335   7.292  11.311   6.933 -0.8830 -0.6624  0.0115
  410MOL0     H55336   6.803  11.008   6.750 -2.7335  1.2166  0.1044
  410MOL0     H55337   6.712  11.015   6.516 -0.0709 -0.3785 -0.1444
  410MOL0     H55338   6.555  11.189   6.338  0.5605 -1.2104  0.5107
  410MOL0     H55339   6.655  11.071   6.254  1.4836  0.7650 -1.7634
  410MOL0     H55340   6.727  11.230   6.099  1.8101  0.8383  1.7461
  410MOL0     H55341   6.620  11.355   6.173 -2.5088 -0.0631 -0.1681
  410MOL0     H55342   6.430  11.261   6.108  0.3899  0.7134  0.0467
  410MOL0     H55343   6.510  11.103   6.050 -0.2945 -0.5339 -3.2817
  410MOL0     H55344   6.591  11.194   5.861  1.3547  0.8659 -0.5996
  410MOL0     H55345   6.423  11.268   5.888 -0.6833  2.6657  0.9206
  410MOL0     H55346   6.666  11.602   5.861  0.5219  1.2322 -0.2817
  410MOL0     H55347   6.948  11.354   6.446 -0.8763 -1.7538 -3.2627
  410MOL0     H55348   7.093  11.423   6.648  1.3578  2.6656  2.4660
  410MOL0     H55349   6.940  11.507   6.651 -1.5488 -2.6682 -2.5784
  410MOL0     H55350   6.996  11.445   6.795 -4.0681 -1.2114  1.5081
  411MOL0     O55351   9.718   4.741  11.465  0.1044  0.1745  0.6476
  411MOL0     C55352   9.625   4.697  11.396  0.2858  0.1797 -0.8763
  411MOL0     O55353   9.567   4.584  11.430  0.3041  0.0394 -0.4143
  411MOL0     C55354   9.526   4.477  11.346 -1.1211  0.1816 -0.2280
  411MOL0     C55355   9.526   4.479  11.209  0.6862  0.4287  0.1515
  411MOL0     C55356   9.474   4.375  11.136  0.9411 -0.1152 -0.3341
  411MOL0     C55357   9.436   4.253  11.186 -0.7425  0.5208 -0.1094
  411MOL0     O55358   9.376   4.157  11.108 -0.9582  0.2348  0.2535
  411MOL0     C55359   9.328   4.031  11.167 -1.7914 -0.6107  0.1971
  411MOL0     C55360   9.224   3.957  11.087 -0.4218 -0.3329 -0.1100
  411MOL0     C55361   9.199   3.806  11.129  0.1110 -0.7510  0.3524
  411MOL0     C55362   9.310   3.731  11.205 -0.6031 -0.9250  0.9905
  411MOL0     C55363   9.281   3.578  11.235  0.4612  0.5973  0.2599
  411MOL0     C55364   9.153   3.560  11.329  0.1937 -0.4144  0.7829
  411MOL0     C55365   9.176   3.616  11.465 -0.4631 -0.3828 -0.1761
  411MOL0     C55366   9.117   3.540  11.590  0.2638  0.3013  0.1656
  411MOL0     N55367   8.976   3.582  11.608  0.0129  0.6383 -0.1315
  411MOL0     C55368   8.909   3.583  11.731  0.4193  0.5152 -0.3021
  411MOL0     C55369   8.773   3.601  11.707 -0.7037 -1.0322  0.2483
  411MOL0     C55370   8.660   3.588  11.805  0.2767 -0.4202  0.2598
  411MOL0     C55371   8.615   3.442  11.841  0.2438 -0.4536  0.3563
  411MOL0     C55372   8.466   3.425  11.876 -0.0805  0.0415  0.3080
  411MOL0     C55373   8.353   3.465  11.781 -0.3334 -0.6252  0.8575
  411MOL0     O55374   8.229   3.427  11.836 -0.0512  0.4697  0.3649
  411MOL0     C55375   8.118   3.423  11.751  0.4886 -0.0770  0.2070
  411MOL0     C55376   8.007   3.330  11.784 -0.4093 -0.7219  0.2448
  411MOL0     C55377   7.902   3.321  11.694  0.6157  0.3014  0.1706
  411MOL0     C55378   7.896   3.408  11.579 -0.0240 -0.0841  0.1427
  411MOL0     C55379   7.787   3.395  11.490  0.5634 -0.0859 -0.2880
  411MOL0     O55380   7.724   3.275  11.487  0.2036 -0.3895 -0.2409
  411MOL0     C55381   7.639   3.252  11.384  0.2308 -0.1962 -0.0843
  411MOL0     C55382   7.669   3.148  11.295 -1.0556 -0.2943 -0.3787
  411MOL0     C55383   7.582   3.107  11.194 -1.1262  0.2543 -1.3595
  411MOL0     C55384   7.457   3.171  11.179 -0.7507  0.6112  0.0453
  411MOL0     O55385   7.380   3.124  11.074 -0.0644 -0.4680  0.8073
  411MOL0     C55386   7.307   3.220  10.993 -0.1153  0.5040 -0.0824
  411MOL0     C55387   7.251   3.163  10.860  0.4570 -0.1111  0.0275
  411MOL0     C55388   7.351   3.085  10.772 -0.2298  0.5836 -0.7400
  411MOL0     C55389   7.281   3.047  10.641  0.3434 -0.3632 -0.1803
  411MOL0     C55390   7.387   3.038  10.525 -0.2869  0.4327  0.7693
  411MOL0     C55391   7.473   2.903  10.545  0.4450  0.1816 -0.5535
  411MOL0     C55392   7.605   2.934  10.497 -0.2688  0.1975 -0.3341
  411MOL0     C55393   7.717   2.832  10.481 -0.1083 -1.0997 -0.0497
  411MOL0    Cl55394   7.840   2.898  10.371 -0.3987  0.1398 -0.1142
  411MOL0     C55395   7.425   3.281  11.263  0.6677  0.4226  0.1482
  411MOL0     C55396   7.515   3.317  11.362  0.5388 -0.1946  0.3183
  411MOL0     O55397   7.761   3.491  11.416  0.2117  0.4418 -0.3714
  411MOL0     C55398   7.999   3.506  11.560 -0.4783  1.0214  1.1111
  411MOL0     C55399   8.108   3.508  11.640  0.0078 -0.0277 -0.7832
  411MOL0     N55400   8.758   3.602  11.574 -0.6132 -0.3779  0.4512
  411MOL0     N55401   8.876   3.576  11.517 -0.4486  0.7037 -0.7479
  411MOL0     C55402   9.444   4.249  11.333  0.5003 -0.3230 -0.5809
  411MOL0     C55403   9.491   4.361  11.411  0.4980  0.2768  0.9299
  411MOL0     C55404   9.572   4.776  11.289 -1.0274 -0.1269  0.8229
  411MOL0     C55405   9.437   4.808  11.278 -0.2020 -0.2486 -0.0364
  411MOL0     C55406   9.386   4.875  11.164  0.5152  0.6533  0.3408
  411MOL0     C55407   9.472   4.917  11.064 -0.1616  0.8343 -0.3971
  411MOL0     O55408   9.443   4.991  10.951 -0.1264  0.4368  1.0430
  411MOL0     C55409   9.310   5.018  10.905  0.8568  0.0608  0.1341
  411MOL0     C55410   9.299   5.086  10.769  0.2112 -0.9909 -0.2698
  411MOL0     C55411   9.342   4.993  10.649  0.1404 -0.6104 -0.1892
  411MOL0     C55412   9.495   4.985  10.623  0.1111 -0.2857 -0.0818
  411MOL0     C55413   9.545   5.073  10.512  0.6599  0.2020  0.2283
  411MOL0     C55414   9.580   5.133  10.412 -0.1876  0.3079 -0.0723
  411MOL0     C55415   9.607   4.887  11.071 -0.5710 -0.1132  0.3234
  411MOL0     C55416   9.663   4.816  11.178 -0.7915  0.2550 -0.9348
  411MOL0     C55417   9.803   4.780  11.187 -0.1904  0.5277  0.3708
  411MOL0     H55418   9.542   4.571  11.155 -2.4384  1.4813  0.8346
  411MOL0     H55419   9.459   4.394  11.030  0.3342  1.5248  0.0098
  411MOL0     H55420   9.413   3.970  11.199 -1.4588  0.7178  1.9994
  411MOL0     H55421   9.276   4.046  11.261 -1.5299 -2.2358  0.6373
  411MOL0     H55422   9.257   3.949  10.983 -0.2446 -0.3619 -0.0529
  411MOL0     H55423   9.127   4.006  11.093 -1.0704 -1.6483  0.4442
  411MOL0     H55424   9.159   3.752  11.043 -2.0429  1.0853  0.0816
  411MOL0     H55425   9.109   3.819  11.190 -0.8272 -0.5673 -1.0009
  411MOL0     H55426   9.390   3.735  11.131  0.3779 -0.5916  2.0484
  411MOL0     H55427   9.339   3.776  11.300  0.0433 -1.9100  1.2734
  411MOL0     H55428   9.247   3.534  11.141 -2.3477 -3.0560  2.6954
  411MOL0     H55429   9.363   3.523  11.281  0.5570  1.0517  0.6388
  411MOL0     H55430   9.071   3.606  11.273  2.6716  3.4010 -0.1510
  411MOL0     H55431   9.134   3.453  11.339 -1.4617 -0.0726  1.4886
  411MOL0     H55432   9.142   3.720  11.462 -2.1942 -0.9378 -0.9963
  411MOL0     H55433   9.283   3.618  11.487 -0.5459 -0.4227  0.2384
  411MOL0     H55434   9.124   3.432  11.577  1.0284  0.1465  1.6996
  411MOL0     H55435   9.170   3.561  11.683  2.4638 -3.2406 -0.0943
  411MOL0     H55436   8.936   3.589  11.836 -1.7165  2.5135  0.2170
  411MOL0     H55437   8.701   3.630  11.897 -2.0367 -1.6993  1.9855
  411MOL0     H55438   8.577   3.650  11.769 -0.4827 -0.9482  1.0659
  411MOL0     H55439   8.636   3.378  11.755  0.5087  2.2275 -1.6974
  411MOL0     H55440   8.674   3.405  11.926  0.3211  0.3942  0.6818
  411MOL0     H55441   8.443   3.467  11.975  0.0667 -1.1810  0.8834
  411MOL0     H55442   8.459   3.316  11.885  2.4697 -0.1422  0.8485
  411MOL0     H55443   8.355   3.426  11.679 -0.3414 -0.3255  0.7422
  411MOL0     H55444   8.356   3.574  11.771  0.4533 -0.8574 -4.4381
  411MOL0     H55445   8.006   3.269  11.874 -1.8600 -0.9528  0.0920
  411MOL0     H55446   7.819   3.252  11.708  2.5388 -3.1922 -3.5404
  411MOL0     H55447   7.759   3.087  11.295 -2.3332 -2.3763 -2.7708
  411MOL0     H55448   7.616   3.024  11.132 -1.2921 -0.4848 -0.4857
  411MOL0     H55449   7.215   3.257  11.040 -0.6336 -0.2918 -0.4413
  411MOL0     H55450   7.374   3.303  10.971  0.5704  0.5929  2.0577
  411MOL0     H55451   7.175   3.090  10.890  0.7480 -0.8057 -0.9033
  411MOL0     H55452   7.199   3.245  10.810  0.1326  0.3043  1.0097
  411MOL0     H55453   7.435   3.150  10.744  1.2852 -0.6655  0.6611
  411MOL0     H55454   7.401   3.008  10.832  3.4272  3.2351  0.0152
  411MOL0     H55455   7.207   3.123  10.614  2.1210  0.5545 -2.9441
  411MOL0     H55456   7.235   2.949  10.650 -0.8070 -0.1044 -2.4643
  411MOL0     H55457   7.452   3.127  10.522  3.0924 -1.8017 -3.2716
  411MOL0     H55458   7.336   3.031  10.429  0.8517  0.1726  0.1587
  411MOL0     H55459   7.482   2.875  10.651  1.3932 -3.4913 -1.4376
  411MOL0     H55460   7.428   2.821  10.488  0.0886 -0.5128  0.6750
  411MOL0     H55461   7.639   3.018  10.558  0.2591 -0.6362  0.5674
  411MOL0     H55462   7.570   2.962  10.398 -2.4240 -1.0179  0.0108
  411MOL0     H55463   7.764   2.800  10.574 -2.0654 -1.7728  0.7605
  411MOL0     H55464   7.680   2.739  10.435 -0.8637 -1.8438  1.9739
  411MOL0     H55465   7.330   3.332  11.250  1.6714  2.6779  1.1898
  411MOL0     H55466   7.476   3.391  11.431 -2.5381 -0.7011 -0.7151
  411MOL0     H55467   7.988   3.563  11.468 -0.4789  1.1876  1.2131
  411MOL0     H55468   8.180   3.586  11.617  0.4129 -0.1292  0.0696
  411MOL0     H55469   9.411   4.155  11.377  3.0475 -2.5030 -2.8530
  411MOL0     H55470   9.495   4.377  11.518 -2.8726  3.3657  0.7689
  411MOL0     H55471   9.362   4.766  11.344 -3.0563 -0.7254 -3.2500
  411MOL0     H55472   9.279   4.885  11.152 -0.0330 -1.2521  2.7882
  411MOL0     H55473   9.260   5.090  10.970 -0.7097 -0.2687 -0.6576
  411MOL0     H55474   9.255   4.923  10.906 -2.1231  1.6378 -0.8594
  411MOL0     H55475   9.339   5.188  10.763 -1.9970 -0.0635 -0.2223
  411MOL0     H55476   9.193   5.111  10.759 -0.0835 -2.3574 -0.7332
  411MOL0     H55477   9.290   5.023  10.558  0.5250 -1.0857 -0.5728
  411MOL0     H55478   9.308   4.892  10.670  1.0957 -0.5731  1.8589
  411MOL0     H55479   9.541   5.023  10.715  2.3931  1.6797 -1.8730
  411MOL0     H55480   9.522   4.880  10.609  1.4283 -0.0758  0.6791
  411MOL0     H55481   9.619   5.182  10.325 -0.4622 -1.6821 -1.3892
  411MOL0     H55482   9.664   4.921  10.985 -1.2098 -2.2694 -1.0220
  411MOL0     H55483   9.817   4.683  11.237 -1.0734  0.0715 -0.2337
  411MOL0     H55484   9.853   4.753  11.093  3.8597  3.0250  1.5412
  411MOL0     H55485   9.866   4.856  11.234 -0.2625  0.2228  0.9778
  412MOL0     O55486   0.828  11.239   5.329 -0.1193 -0.1084  0.4340
  412MOL0     C55487   0.844  11.147   5.410 -0.8280 -0.4842 -0.2793
  412MOL0     O55488   0.966  11.084   5.440  0.0718 -0.1946 -0.3535
  412MOL0     C55489   1.054  11.087   5.336 -0.1717  1.0443  0.5767
  412MOL0     C55490   1.104  10.964   5.293  0.3249 -1.0197 -0.9408
  412MOL0     C55491   1.195  10.949   5.193 -0.1637  0.0456 -0.7811
  412MOL0     C55492   1.250  11.060   5.125 -0.0898  0.5625 -0.8610
  412MOL0     O55493   1.343  11.043   5.030  0.4057 -0.6642  0.1150
  412MOL0     C55494   1.333  10.918   4.952 -0.6766  0.4507 -0.2317
  412MOL0     C55495   1.432  10.809   4.998 -0.2315  0.1648 -0.7071
  412MOL0     C55496   1.390  10.664   4.945 -0.5682 -0.2590 -0.3172
  412MOL0     C55497   1.473  10.556   5.024 -0.3810  0.7865  0.8247
  412MOL0     C55498   1.469  10.416   4.959  0.6773 -0.0043 -0.3452
  412MOL0     C55499   1.331  10.351   4.950 -0.9251  0.5645  0.8064
  412MOL0     C55500   1.349  10.207   4.890 -0.8136  0.2249 -0.2016
  412MOL0     C55501   1.239  10.170   4.792 -0.4740  1.1655  0.7267
  412MOL0     N55502   1.104  10.214   4.840 -0.2408 -0.5255  0.1876
  412MOL0     C55503   1.045  10.190   4.954  0.0937 -0.9425 -0.0021
  412MOL0     C55504   0.919  10.237   4.940 -0.1043 -0.6045  0.0965
  412MOL0     C55505   0.810  10.217   5.045  0.3401 -0.3489 -0.0693
  412MOL0     C55506   0.735  10.090   5.003  0.2206 -0.1443 -0.3789
  412MOL0     C55507   0.602  10.065   5.091  0.5042  0.5345 -0.3727
  412MOL0     C55508   0.641  10.016   5.227  0.6160  0.0234  0.1309
  412MOL0     O55509   0.538   9.954   5.302 -0.1464 -0.5236  0.6341
  412MOL0     C55510   0.442  10.046   5.341  0.3711  0.7567 -0.2263
  412MOL0     C55511   0.330  10.089   5.272 -0.5316 -0.0154  0.5281
  412MOL0     C55512   0.222  10.162   5.321 -0.1855 -0.3734  0.3949
  412MOL0     C55513   0.223  10.181   5.465  0.3630 -0.0220 -0.1552
  412MOL0     C55514   0.113  10.247   5.538  0.8769 -0.2528 -0.5074
  412MOL0     O55515   0.113  10.246   5.677  0.0184 -0.2435  0.4087
  412MOL0     C55516  -0.003  10.271   5.746  0.2871 -0.1275 -0.8225
  412MOL0     C55517  -0.019  10.389   5.820  0.7429  0.3366  0.5813
  412MOL0     C55518  -0.139  10.422   5.885 -0.2269  0.0091 -0.6959
  412MOL0     C55519  -0.237  10.323   5.912  0.4136  0.3577  0.5325
  412MOL0     O55520  -0.346  10.372   5.976  0.5640 -0.0932 -0.1628
  412MOL0     C55521  -0.470  10.360   5.907 -0.5816 -0.8340 -0.5781
  412MOL0     C55522  -0.582  10.407   5.990  0.8581 -0.4196  0.2184
  412MOL0     C55523  -0.582  10.556   6.012 -0.3009 -0.0243 -0.2343
  412MOL0     C55524  -0.696  10.600   6.107 -0.7358 -0.6098 -0.1115
  412MOL0     C55525  -0.732  10.741   6.082  0.1053 -0.0933 -0.4869
  412MOL0     C55526  -0.816  10.752   5.947  0.4561 -0.2428  0.3640
  412MOL0     C55527  -0.947  10.816   5.989 -0.3120  1.1239 -0.2312
  412MOL0     C55528  -1.031  10.865   5.871 -0.3603  0.0693 -0.0863
  412MOL0    Cl55529  -0.948  10.987   5.779 -0.5437 -0.0587  0.1004
  412MOL0     C55530  -0.225  10.200   5.840  0.2941  0.1560  0.2256
  412MOL0     C55531  -0.107  10.179   5.762  0.4260 -0.7752 -0.3798
  412MOL0     O55532   0.018  10.287   5.469 -0.6077  0.4447 -0.3654
  412MOL0     C55533   0.338  10.141   5.536  0.6205  0.2864 -0.2791
  412MOL0     C55534   0.437  10.072   5.477 -0.2543  0.5539 -0.3371
  412MOL0     N55535   0.915  10.302   4.818  0.3270  0.1789  0.0793
  412MOL0     N55536   1.022  10.275   4.753  0.0851  0.1637  0.9184
  412MOL0     C55537   1.202  11.187   5.175 -0.1166 -0.7915  0.9072
  412MOL0     C55538   1.113  11.196   5.279  0.5593  0.3770 -0.5969
  412MOL0     C55539   0.728  11.114   5.495 -0.2135 -0.1781 -0.6711
  412MOL0     C55540   0.683  11.208   5.594  0.3042  0.8205  0.4332
  412MOL0     C55541   0.588  11.170   5.693 -0.7695  0.2177  0.7386
  412MOL0     C55542   0.537  11.035   5.697 -0.3816  0.0265 -0.3889
  412MOL0     O55543   0.460  10.995   5.803 -0.2693  0.2899 -0.2469
  412MOL0     C55544   0.379  10.880   5.774  0.3311 -0.4624 -0.3503
  412MOL0     C55545   0.286  10.889   5.890 -0.3913  0.0291 -0.3409
  412MOL0     C55546   0.205  10.756   5.903 -0.3680 -0.1694  0.3585
  412MOL0     C55547   0.143  10.735   6.048  0.2831 -0.1591 -0.4047
  412MOL0     C55548   0.062  10.833   6.107 -0.4543  0.3315  0.0560
  412MOL0     C55549   0.015  10.940   6.133 -0.3009 -0.9351  0.2374
  412MOL0     C55550   0.572  10.949   5.597 -0.6476  0.4519 -0.2110
  412MOL0     C55551   0.668  10.989   5.494  0.5277  0.8608 -0.1737
  412MOL0     C55552   0.694  10.905   5.375  0.0244 -0.5581 -0.7924
  412MOL0     H55553   1.088  10.868   5.341 -0.9657  0.4443  1.8026
  412MOL0     H55554   1.195  10.845   5.160  0.6853 -1.6550  3.8735
  412MOL0     H55555   1.228  10.888   4.950 -0.6512  0.4284 -1.5007
  412MOL0     H55556   1.359  10.944   4.849  1.9872  0.0827  0.2712
  412MOL0     H55557   1.433  10.815   5.107  1.2984  1.7346 -0.7577
  412MOL0     H55558   1.535  10.834   4.968  0.4796 -0.4831  1.0624
  412MOL0     H55559   1.418  10.658   4.840 -0.2950 -0.1088 -0.2529
  412MOL0     H55560   1.283  10.644   4.960 -0.8292  0.7481 -0.7597
  412MOL0     H55561   1.577  10.591   5.025 -0.0664  0.3786 -2.8165
  412MOL0     H55562   1.453  10.558   5.131  0.8584 -1.0416  1.1471
  412MOL0     H55563   1.508  10.424   4.857 -1.9466  4.4856 -1.2933
  412MOL0     H55564   1.531  10.355   5.025  1.2230 -1.9965 -2.5584
  412MOL0     H55565   1.278  10.341   5.045 -1.8551  0.9477  0.3453
  412MOL0     H55566   1.266  10.413   4.886  0.3159  0.3269 -0.7508
  412MOL0     H55567   1.359  10.136   4.972  1.9715  1.3799  0.5733
  412MOL0     H55568   1.439  10.196   4.830 -1.0208 -5.0579  0.0074
  412MOL0     H55569   1.253  10.224   4.698  0.8002 -1.4344 -0.6818
  412MOL0     H55570   1.254  10.063   4.779 -0.4681  1.1075  1.1744
  412MOL0     H55571   1.080  10.145   5.047  1.6751 -1.2249 -0.6949
  412MOL0     H55572   0.868  10.208   5.137  0.9408  3.7138  0.0927
  412MOL0     H55573   0.739  10.299   5.056  2.2628  1.3687 -0.0229
  412MOL0     H55574   0.707  10.109   4.899 -2.7895  0.9864  0.5300
  412MOL0     H55575   0.806  10.007   4.999  0.8772  0.4077 -0.3803
  412MOL0     H55576   0.555   9.980   5.041  2.5303 -1.8901  1.5668
  412MOL0     H55577   0.533  10.150   5.094  0.4873  0.4931  0.9003
  412MOL0     H55578   0.676  10.101   5.286 -2.0266  0.5116  1.1202
  412MOL0     H55579   0.728   9.949   5.228 -0.4137 -1.5133 -2.2992
  412MOL0     H55580   0.322  10.068   5.166 -2.9251 -2.1823  1.0510
  412MOL0     H55581   0.146  10.199   5.253 -2.3515 -1.9656  1.8101
  412MOL0     H55582   0.056  10.467   5.826  0.5352  0.4696  1.5329
  412MOL0     H55583  -0.162  10.512   5.943 -1.7799 -0.3449 -0.7135
  412MOL0     H55584  -0.461  10.415   5.812 -2.0189 -0.7214 -0.6651
  412MOL0     H55585  -0.481  10.252   5.892  1.2542 -1.0105 -0.9009
  412MOL0     H55586  -0.671  10.393   5.928  0.9134 -0.0493  0.0524
  412MOL0     H55587  -0.585  10.349   6.082 -0.5846 -1.6167 -0.5499
  412MOL0     H55588  -0.492  10.596   6.059  0.4334  0.5754 -2.0645
  412MOL0     H55589  -0.588  10.603   5.914 -0.7677 -0.3609 -0.3705
  412MOL0     H55590  -0.659  10.586   6.209 -1.7295 -1.2694  0.1795
  412MOL0     H55591  -0.785  10.535   6.105 -1.0411 -0.2074 -2.4709
  412MOL0     H55592  -0.638  10.794   6.063  0.5816 -0.0636  1.6560
  412MOL0     H55593  -0.775  10.790   6.170  1.2659  1.4318 -0.7291
  412MOL0     H55594  -0.758  10.820   5.883 -1.1625  1.3861  0.5633
  412MOL0     H55595  -0.837  10.655   5.901 -3.0076 -0.1993  1.6249
  412MOL0     H55596  -0.948  10.895   6.064 -0.8716 -0.9896  2.1031
  412MOL0     H55597  -1.001  10.730   6.028  1.6323 -1.0610 -2.0253
  412MOL0     H55598  -1.051  10.779   5.806 -0.5274  2.0360 -2.8333
  412MOL0     H55599  -1.129  10.892   5.912 -0.1138 -2.5084  2.5336
  412MOL0     H55600  -0.287  10.110   5.838  2.3960 -1.4294 -3.6620
  412MOL0     H55601  -0.088  10.082   5.715  2.6304 -0.1461 -0.9172
  412MOL0     H55602   0.345  10.153   5.643 -1.6032  0.0806 -0.0597
  412MOL0     H55603   0.510  10.028   5.544 -2.4473 -0.0760  1.7627
  412MOL0     H55604   1.247  11.276   5.131 -0.5414 -1.1401 -0.2597
  412MOL0     H55605   1.081  11.294   5.313 -0.1800 -0.0155 -0.1304
  412MOL0     H55606   0.712  11.312   5.600  4.0978 -0.1705  5.3297
  412MOL0     H55607   0.573  11.239   5.775 -1.5002 -2.0318  2.6005
  412MOL0     H55608   0.435  10.786   5.779  0.0777 -0.5818  0.4486
  412MOL0     H55609   0.327  10.892   5.679 -0.0098  1.9857  0.0715
  412MOL0     H55610   0.226  10.979   5.876 -0.5480  0.7481  3.7923
  412MOL0     H55611   0.348  10.892   5.980 -0.3363  1.6592 -0.3958
  412MOL0     H55612   0.272  10.673   5.883 -3.1752 -2.4279 -0.3574
  412MOL0     H55613   0.122  10.760   5.832  1.1069  0.0249 -1.4228
  412MOL0     H55614   0.080  10.646   6.038  1.8490 -1.1845 -1.6284
  412MOL0     H55615   0.218  10.708   6.122 -1.2656  1.5237  1.9168
  412MOL0     H55616  -0.040  11.026   6.166 -0.0695 -1.1379  1.1934
  412MOL0     H55617   0.530  10.849   5.600 -0.2884  0.3282  2.6940
  412MOL0     H55618   0.784  10.848   5.398  0.0116  0.1116  1.0578
  412MOL0     H55619   0.617  10.835   5.343 -0.0796 -0.2159 -1.3101
  412MOL0     H55620   0.703  10.973   5.289  1.0246  0.1706 -0.1331
  413MOL0     O55621   8.874   7.458   0.917  0.7814  0.7025  0.4128
  413MOL0     C55622   8.953   7.541   0.952 -0.1979 -0.2278 -0.6400
  413MOL0     O55623   9.012   7.627   0.866  0.0661 -0.0714  0.3098
  413MOL0     C55624   8.960   7.629   0.741 -0.3601  1.1473 -0.3041
  413MOL0     C55625   8.846   7.698   0.711 -0.6912  0.2360  0.4259
  413MOL0     C55626   8.792   7.692   0.578 -0.0749 -0.2440  0.5282
  413MOL0     C55627   8.858   7.609   0.478 -0.5504 -0.1921 -0.7619
  413MOL0     O55628   8.825   7.585   0.343  0.3340 -0.7413 -0.3612
  413MOL0     C55629   8.727   7.672   0.294  0.6742  0.5916 -1.2305
  413MOL0     C55630   8.590   7.621   0.326  0.1928  0.1173 -0.7496
  413MOL0     C55631   8.482   7.691   0.238 -0.0122 -0.9971 -1.3069
  413MOL0     C55632   8.344   7.653   0.301 -0.4898  0.2691 -0.6604
  413MOL0     C55633   8.224   7.699   0.214 -0.5425 -0.3191 -0.2805
  413MOL0     C55634   8.193   7.633   0.081  0.9138  1.0383  0.0604
  413MOL0     C55635   8.114   7.490   0.091 -0.1605  0.3977  0.0782
  413MOL0     C55636   8.100   7.420  -0.047  0.0710 -0.2455 -0.1940
  413MOL0     N55637   8.026   7.508  -0.140 -0.7404  0.2617 -0.3720
  413MOL0     C55638   7.890   7.515  -0.144 -0.8873 -0.9122 -0.6819
  413MOL0     C55639   7.863   7.614  -0.234  0.3303  0.2341  0.4392
  413MOL0     C55640   7.721   7.652  -0.286 -0.3129  0.3896 -0.5376
  413MOL0     C55641   7.691   7.799  -0.245  0.6206  0.2424  0.1425
  413MOL0     C55642   7.731   7.896  -0.343 -0.4279 -0.6092  0.2034
  413MOL0     C55643   7.675   7.897  -0.492 -0.1713 -0.4341  0.4815
  413MOL0     O55644   7.533   7.881  -0.483  0.4375 -0.2582  0.5917
  413MOL0     C55645   7.447   7.987  -0.464  1.0333  0.6706  0.5836
  413MOL0     C55646   7.445   8.114  -0.526 -0.1037 -0.0681  0.7013
  413MOL0     C55647   7.345   8.201  -0.523 -0.6346  0.0869  0.1968
  413MOL0     C55648   7.243   8.178  -0.432  0.0673 -0.3513  0.7800
  413MOL0     C55649   7.120   8.269  -0.425 -0.0676 -0.0290  0.0826
  413MOL0     O55650   7.028   8.240  -0.323 -0.0323  0.0128 -0.5255
  413MOL0     C55651   6.912   8.305  -0.298  0.6464 -0.3974 -0.1985
  413MOL0     C55652   6.848   8.412  -0.354  0.0889 -0.0231 -0.5464
  413MOL0     C55653   6.732   8.461  -0.287 -0.3485  0.7800 -0.5981
  413MOL0     C55654   6.685   8.422  -0.167 -0.0575  0.1691 -0.2511
  413MOL0     O55655   6.570   8.479  -0.118 -0.6999 -0.0559 -0.0489
  413MOL0     C55656   6.517   8.412  -0.005 -0.0010 -0.4135  0.6143
  413MOL0     C55657   6.401   8.509   0.034 -0.7174  0.5955 -0.5479
  413MOL0     C55658   6.331   8.458   0.161 -0.3895 -0.0594 -0.6039
  413MOL0     C55659   6.193   8.524   0.177 -0.0108  0.1753 -0.7443
  413MOL0     C55660   6.166   8.526   0.328  1.3146 -1.1074  0.2704
  413MOL0     C55661   6.015   8.578   0.341 -0.2035 -0.8980 -1.4803
  413MOL0     C55662   5.969   8.572   0.492  0.1223  0.3846 -0.4225
  413MOL0     C55663   6.077   8.612   0.588  0.0508 -0.8490 -0.4651
  413MOL0    Cl55664   6.002   8.683   0.726 -0.0153 -0.0073  0.3534
  413MOL0     C55665   6.750   8.311  -0.109  0.1074  0.0080  0.3979
  413MOL0     C55666   6.862   8.257  -0.176 -0.6692 -1.0452  0.3103
  413MOL0     O55667   7.105   8.350  -0.514  0.7299 -0.6889  0.6786
  413MOL0     C55668   7.247   8.061  -0.350 -0.3073  0.2034 -0.2954
  413MOL0     C55669   7.343   7.966  -0.376  0.3941 -0.7454 -0.2823
  413MOL0     N55670   7.979   7.663  -0.279 -0.5831 -0.1176 -0.1873
  413MOL0     N55671   8.078   7.601  -0.220 -0.2870  0.0125 -0.7808
  413MOL0     C55672   8.975   7.545   0.513  0.2484  0.1282  0.6674
  413MOL0     C55673   9.032   7.558   0.641 -0.3245  0.4587 -0.3143
  413MOL0     C55674   8.982   7.564   1.096  0.8065  0.8412  0.2506
  413MOL0     C55675   9.113   7.599   1.135 -0.4820  0.2479 -0.8088
  413MOL0     C55676   9.153   7.628   1.265 -0.5038 -0.2137  0.5181
  413MOL0     C55677   9.059   7.614   1.374  0.1614 -0.5280  0.4002
  413MOL0     O55678   9.089   7.640   1.504 -0.0594  0.4464  0.1332
  413MOL0     C55679   9.225   7.693   1.532 -0.0224  0.9300  0.4005
  413MOL0     C55680   9.269   7.695   1.677 -0.0606 -0.2437  0.8159
  413MOL0     C55681   9.242   7.814   1.767  0.6892  0.2641 -0.0066
  413MOL0     C55682   9.299   7.791   1.913  0.1733 -0.1771 -1.5246
  413MOL0     C55683   9.190   7.806   2.012 -0.4264 -0.4987 -0.0189
  413MOL0     C55684   9.089   7.800   2.091 -1.6306  0.4507  0.5394
  413MOL0     C55685   8.929   7.569   1.342 -0.0375 -1.0118 -0.6031
  413MOL0     C55686   8.887   7.544   1.206  0.5847  0.6921  0.2291
  413MOL0     C55687   8.745   7.503   1.187  0.2515  0.8939  0.4780
  413MOL0     H55688   8.792   7.750   0.789 -1.4054  1.4087 -0.8051
  413MOL0     H55689   8.703   7.751   0.563  0.3045  0.5570  1.3583
  413MOL0     H55690   8.731   7.775   0.328  4.3613  1.1180 -2.7888
  413MOL0     H55691   8.736   7.676   0.185  2.3633 -0.7260 -1.1887
  413MOL0     H55692   8.574   7.643   0.432  1.1929 -1.3542 -0.2696
  413MOL0     H55693   8.574   7.513   0.321  0.3819  0.1108 -1.3297
  413MOL0     H55694   8.492   7.670   0.131  1.1967 -3.1975 -0.8302
  413MOL0     H55695   8.492   7.799   0.253 -0.1731 -1.2558  0.9999
  413MOL0     H55696   8.348   7.547   0.325  0.0610  1.0558  3.4674
  413MOL0     H55697   8.335   7.698   0.401 -2.3546  0.8506 -1.0473
  413MOL0     H55698   8.134   7.697   0.276  2.1780  1.6395  4.1946
  413MOL0     H55699   8.233   7.806   0.192 -1.7485 -0.3118 -0.8325
  413MOL0     H55700   8.128   7.696   0.020  0.4201  0.4422 -0.0380
  413MOL0     H55701   8.279   7.618   0.014 -1.4191  1.1798 -3.2375
  413MOL0     H55702   8.018   7.513   0.140 -0.8361 -0.1038 -0.9747
  413MOL0     H55703   8.186   7.430   0.147  2.6782  0.9541 -2.6876
  413MOL0     H55704   8.202   7.406  -0.084  0.4327  1.8952 -0.1010
  413MOL0     H55705   8.053   7.321  -0.039  0.1768 -0.3847 -1.2337
  413MOL0     H55706   7.816   7.456  -0.090  0.8432 -0.6912  2.0913
  413MOL0     H55707   7.710   7.638  -0.394 -2.4996  2.3349 -0.6403
  413MOL0     H55708   7.659   7.579  -0.232 -0.0320  0.6845  0.1989
  413MOL0     H55709   7.582   7.813  -0.251  0.4520  0.0803  2.1087
  413MOL0     H55710   7.713   7.809  -0.138 -0.0861  0.7334  0.2513
  413MOL0     H55711   7.841   7.893  -0.348 -0.5026 -0.5883 -2.0283
  413MOL0     H55712   7.697   7.988  -0.294 -1.0539 -0.5667 -0.3016
  413MOL0     H55713   7.709   7.805  -0.541 -3.3809 -1.3532 -0.2720
  413MOL0     H55714   7.713   7.976  -0.557  0.4716 -1.4522 -0.4226
  413MOL0     H55715   7.524   8.132  -0.598  0.3441 -0.6381  1.0349
  413MOL0     H55716   7.338   8.291  -0.583 -0.7449 -0.9129 -1.3260
  413MOL0     H55717   6.882   8.443  -0.452  0.0224 -1.3273 -0.9982
  413MOL0     H55718   6.675   8.539  -0.337  2.0810  3.2100  0.1311
  413MOL0     H55719   6.480   8.313  -0.030  0.2579  0.0362 -1.7434
  413MOL0     H55720   6.591   8.411   0.075 -0.2824  2.2933  1.0337
  413MOL0     H55721   6.435   8.612   0.051  2.9472 -0.6494  0.4900
  413MOL0     H55722   6.333   8.507  -0.052 -1.5506  2.6443 -0.0118
  413MOL0     H55723   6.314   8.351   0.147  1.9886 -1.0678  2.7592
  413MOL0     H55724   6.395   8.467   0.249  1.0944  0.5971 -1.7006
  413MOL0     H55725   6.119   8.474   0.114 -1.3512  1.8683 -0.5934
  413MOL0     H55726   6.206   8.629   0.149  2.0927  1.9735  5.3776
  413MOL0     H55727   6.237   8.588   0.383  0.0206  2.0044 -1.3311
  413MOL0     H55728   6.179   8.424   0.366  2.5290 -1.4412 -0.9814
  413MOL0     H55729   6.007   8.683   0.312  1.5813 -0.5903 -0.9762
  413MOL0     H55730   5.948   8.513   0.284  0.2699 -1.5955 -1.2598
  413MOL0     H55731   5.930   8.471   0.508 -1.0410  0.9511  0.4740
  413MOL0     H55732   5.890   8.643   0.516  0.9667  0.0210  4.4498
  413MOL0     H55733   6.124   8.517   0.614  1.2063 -0.0021  0.6795
  413MOL0     H55734   6.148   8.691   0.561  0.3432 -0.2328  1.8899
  413MOL0     H55735   6.718   8.258  -0.020 -1.5959  0.4225  0.0700
  413MOL0     H55736   6.920   8.182  -0.123 -1.4000 -0.3229  2.1941
  413MOL0     H55737   7.171   8.044  -0.275  1.2467 -3.7409  0.6220
  413MOL0     H55738   7.345   7.872  -0.320 -1.1206 -1.2183 -0.9666
  413MOL0     H55739   9.028   7.491   0.435 -0.0523  0.5895  0.1397
  413MOL0     H55740   9.120   7.504   0.674 -2.5751 -2.5772  1.1385
  413MOL0     H55741   9.192   7.616   1.062  1.2591  4.1317  1.6589
  413MOL0     H55742   9.260   7.630   1.282 -0.6617 -2.8025  2.4993
  413MOL0     H55743   9.231   7.790   1.481 -3.9248  2.0728  1.7724
  413MOL0     H55744   9.305   7.634   1.485  0.5195  1.2340  0.9150
  413MOL0     H55745   9.378   7.697   1.681  0.1164 -0.6234 -1.8980
  413MOL0     H55746   9.252   7.597   1.723 -1.7161  0.3422  1.5322
  413MOL0     H55747   9.133   7.826   1.769  0.7338  0.7624  2.2806
  413MOL0     H55748   9.275   7.911   1.731  0.7095  0.8284  1.4617
  413MOL0     H55749   9.359   7.701   1.928 -0.5156 -0.8811 -2.8247
  413MOL0     H55750   9.366   7.875   1.936  0.2090 -1.1889  2.9915
  413MOL0     H55751   8.999   7.795   2.149 -2.4712 -0.7695 -0.7793
  413MOL0     H55752   8.858   7.566   1.424  1.3740  0.8037  0.7464
  413MOL0     H55753   8.707   7.544   1.092 -2.0643 -0.5904  0.6679
  413MOL0     H55754   8.740   7.394   1.193  2.9357  0.7823  2.3635
  413MOL0     H55755   8.677   7.554   1.256 -0.0280  0.1663  0.7573
  414MOL0     O55756  11.158   7.386   8.383 -0.7048 -0.1173  0.0568
  414MOL0     C55757  11.267   7.374   8.330  0.0088 -0.6458 -0.4574
  414MOL0     O55758  11.287   7.362   8.189  0.6475  0.5994 -1.1549
  414MOL0     C55759  11.171   7.364   8.121  0.1691  0.4073 -0.4683
  414MOL0     C55760  11.099   7.250   8.100 -0.3746 -0.8197 -0.5813
  414MOL0     C55761  10.976   7.258   8.031 -0.8719  0.4915  0.1174
  414MOL0     C55762  10.927   7.384   7.980  0.3341  1.4862 -0.9042
  414MOL0     O55763  10.801   7.400   7.930 -0.5761  0.8021 -0.0611
  414MOL0     C55764  10.727   7.519   7.932 -0.0267 -0.4654  0.2284
  414MOL0     C55765  10.665   7.559   8.065  1.5199  0.1350 -0.1256
  414MOL0     C55766  10.586   7.690   8.046  0.2936  0.0254 -0.2692
  414MOL0     C55767  10.541   7.761   8.172 -0.1030  0.1157 -0.0016
  414MOL0     C55768  10.436   7.865   8.123 -0.6642 -0.2878 -1.0284
  414MOL0     C55769  10.387   7.961   8.233 -0.7312  0.1058  0.8033
  414MOL0     C55770  10.309   8.069   8.179 -0.5183 -0.1258  0.5422
  414MOL0     C55771  10.398   8.188   8.123  0.9153 -0.9481 -0.0801
  414MOL0     N55772  10.320   8.312   8.133 -0.3247 -0.5133  0.1461
  414MOL0     C55773  10.298   8.378   8.247 -0.0762 -0.8069 -1.3033
  414MOL0     C55774  10.213   8.484   8.215 -0.1779  0.2222  0.1087
  414MOL0     C55775  10.174   8.586   8.321 -0.4176  0.0605  0.0577
  414MOL0     C55776  10.224   8.725   8.286 -0.0430  0.2443  0.1141
  414MOL0     C55777  10.253   8.802   8.411 -0.1226 -0.1259 -1.1406
  414MOL0     C55778  10.275   8.945   8.360  0.2348 -0.7539 -0.4267
  414MOL0     O55779  10.286   9.032   8.477  0.0508  0.6095  0.4376
  414MOL0     C55780  10.322   9.167   8.452  0.4469  0.6338  0.4195
  414MOL0     C55781  10.435   9.226   8.507  0.3559  0.6541  0.7981
  414MOL0     C55782  10.467   9.354   8.485  0.5365 -0.7008 -0.4155
  414MOL0     C55783  10.380   9.438   8.409  0.7047  0.0195  0.3477
  414MOL0     C55784  10.408   9.576   8.381 -0.5537  0.0577 -0.8678
  414MOL0     O55785  10.320   9.639   8.300 -0.5585  0.1795 -0.1622
  414MOL0     C55786  10.331   9.761   8.252 -0.1380 -0.7523 -0.8902
  414MOL0     C55787  10.384   9.869   8.327  0.1016  0.0605 -0.1969
  414MOL0     C55788  10.419   9.983   8.258  0.3006 -0.5059 -0.3355
  414MOL0     C55789  10.376  10.007   8.129 -0.1351  0.0665  0.5244
  414MOL0     O55790  10.395  10.114   8.047  0.0584 -0.0007  0.5407
  414MOL0     C55791  10.476  10.224   8.088 -0.5993  0.3055 -1.1533
  414MOL0     C55792  10.402  10.333   8.173  0.2874  0.1036  0.1169
  414MOL0     C55793  10.296  10.414   8.094 -0.6735  0.2492 -0.8784
  414MOL0     C55794  10.258  10.535   8.182 -0.2042 -0.1791  0.5462
  414MOL0     C55795  10.148  10.615   8.110 -0.5345  0.1327 -0.8312
  414MOL0     C55796  10.115  10.746   8.186  0.2861  0.5327  0.0704
  414MOL0     C55797  10.039  10.723   8.317 -0.3694 -0.4410  0.0734
  414MOL0     C55798   9.897  10.663   8.292 -0.6055 -1.0000  1.1955
  414MOL0    Cl55799   9.777  10.691   8.429 -0.4501  0.0570  0.2951
  414MOL0     C55800  10.310   9.913   8.061 -0.7006  0.0233  0.2979
  414MOL0     C55801  10.280   9.796   8.127 -0.1121 -0.2716 -0.5442
  414MOL0     O55802  10.509   9.631   8.431  0.2360 -0.1005  0.8137
  414MOL0     C55803  10.268   9.383   8.344 -0.5542  1.2752  1.4230
  414MOL0     C55804  10.241   9.249   8.370 -0.7659 -0.3629 -0.5820
  414MOL0     N55805  10.195   8.491   8.080  0.2874  0.8158  0.1666
  414MOL0     N55806  10.271   8.389   8.037  0.2709  0.8641  0.1392
  414MOL0     C55807  11.007   7.492   8.005  0.3244 -0.1003  0.1445
  414MOL0     C55808  11.126   7.485   8.080 -0.0110 -0.5249  0.4729
  414MOL0     C55809  11.380   7.338   8.424  0.5653  0.1032  1.0529
  414MOL0     C55810  11.471   7.237   8.379  0.4428  0.4482 -0.4122
  414MOL0     C55811  11.561   7.173   8.466  0.2559 -0.5476  0.1553
  414MOL0     C55812  11.582   7.225   8.593  0.2559 -0.4016 -1.2457
  414MOL0     O55813  11.667   7.153   8.666  0.2165  0.2663  0.0675
  414MOL0     C55814  11.750   7.250   8.734 -0.1279  1.1193 -0.1296
  414MOL0     C55815  11.831   7.182   8.849  0.5595 -0.4975 -1.2824
  414MOL0     C55816  11.977   7.195   8.828 -0.3725 -0.4260  0.2176
  414MOL0     C55817  12.024   7.338   8.847  1.4554  0.4578 -0.3238
  414MOL0     C55818  12.164   7.361   8.826 -0.7863  0.1693 -0.4957
  414MOL0     C55819  12.284   7.390   8.823 -0.1771  0.3991  0.1455
  414MOL0     C55820  11.505   7.335   8.633  0.1216  0.1560 -0.2975
  414MOL0     C55821  11.399   7.388   8.554  0.2430  0.4479 -0.3029
  414MOL0     C55822  11.325   7.513   8.610  0.2544 -0.2982  0.5296
  414MOL0     H55823  11.126   7.151   8.135  0.6669  0.3000  2.0241
  414MOL0     H55824  10.921   7.166   8.011 -0.1077 -0.2946  1.4875
  414MOL0     H55825  10.790   7.601   7.897  0.3963  0.1159  2.2545
  414MOL0     H55826  10.638   7.521   7.869  0.2304  4.1838 -0.3142
  414MOL0     H55827  10.755   7.573   8.126  2.2294 -0.4709 -1.0046
  414MOL0     H55828  10.609   7.472   8.099 -0.4883  1.9748  1.6058
  414MOL0     H55829  10.498   7.669   7.983  1.1479  3.1696 -2.8317
  414MOL0     H55830  10.643   7.766   7.991  1.2600 -1.0740 -0.8190
  414MOL0     H55831  10.494   7.698   8.248 -1.5622 -2.8892 -3.1047
  414MOL0     H55832  10.634   7.802   8.212  0.8942 -1.4645 -0.6150
  414MOL0     H55833  10.489   7.931   8.054 -1.1706 -0.7529 -1.8730
  414MOL0     H55834  10.359   7.815   8.065 -0.3956 -0.2568 -1.4150
  414MOL0     H55835  10.330   7.909   8.310 -0.0795  0.0134  1.2365
  414MOL0     H55836  10.481   7.990   8.282  1.3861 -5.1455  0.5199
  414MOL0     H55837  10.251   8.105   8.264  1.4198 -1.7229  2.6528
  414MOL0     H55838  10.241   8.041   8.098  1.6118  0.6680 -1.6672
  414MOL0     H55839  10.489   8.197   8.183  0.1746 -0.4180  1.0035
  414MOL0     H55840  10.433   8.195   8.020 -2.7782  2.2402 -1.3664
  414MOL0     H55841  10.324   8.362   8.352 -1.2545 -1.4290 -1.0860
  414MOL0     H55842  10.066   8.579   8.334 -0.3631  1.9713  1.9658
  414MOL0     H55843  10.217   8.558   8.418  1.6988  3.6272  0.3138
  414MOL0     H55844  10.325   8.705   8.249  0.0504  0.0116  0.4869
  414MOL0     H55845  10.148   8.773   8.224  0.5720  0.9091 -0.1449
  414MOL0     H55846  10.351   8.775   8.452 -0.6093  0.8134  0.7903
  414MOL0     H55847  10.180   8.805   8.492  1.6031 -0.0123  0.4827
  414MOL0     H55848  10.194   8.975   8.293 -1.0438 -3.7655 -0.3999
  414MOL0     H55849  10.374   8.962   8.317  0.4991  4.3237  1.5300
  414MOL0     H55850  10.503   9.169   8.569  1.5930  2.4525  1.1557
  414MOL0     H55851  10.563   9.386   8.523  1.8659 -1.9016 -2.5665
  414MOL0     H55852  10.416   9.868   8.431  0.8066  0.0257 -0.4103
  414MOL0     H55853  10.476  10.064   8.301  1.3797  1.1823 -4.4551
  414MOL0     H55854  10.567  10.194   8.141 -1.6712 -0.1323  0.5290
  414MOL0     H55855  10.515  10.265   7.995 -1.1949  0.8168 -1.1873
  414MOL0     H55856  10.350  10.284   8.256 -0.3385 -1.7672 -1.3245
  414MOL0     H55857  10.480  10.390   8.226  1.9972 -3.9170  2.4174
  414MOL0     H55858  10.347  10.447   8.002  1.5317 -0.5079 -0.0067
  414MOL0     H55859  10.211  10.349   8.069 -2.0187 -0.4095  4.3233
  414MOL0     H55860  10.346  10.590   8.216  0.2848  0.3356 -1.4149
  414MOL0     H55861  10.211  10.487   8.268  1.2870 -2.9917 -0.0935
  414MOL0     H55862  10.054  10.560   8.096  0.6981 -2.3527 -0.0968
  414MOL0     H55863  10.184  10.653   8.014 -1.6031  1.3646 -0.7683
  414MOL0     H55864  10.207  10.803   8.197  1.9349 -0.9492 -4.0038
  414MOL0     H55865  10.054  10.806   8.118  0.7101  0.0433 -0.7616
  414MOL0     H55866  10.031  10.825   8.356  2.7126  0.0229 -0.2887
  414MOL0     H55867  10.106  10.664   8.380  0.5162 -1.5739 -1.8569
  414MOL0     H55868   9.856  10.709   8.202 -2.0908  0.0287  2.3513
  414MOL0     H55869   9.914  10.557   8.270  1.4880 -0.3993 -0.4588
  414MOL0     H55870  10.282   9.915   7.956 -1.4997  1.4611  0.5144
  414MOL0     H55871  10.234   9.715   8.072 -2.5833  0.8400 -0.2574
  414MOL0     H55872  10.196   9.440   8.288 -1.0352 -0.3456  0.3027
  414MOL0     H55873  10.155   9.202   8.323 -3.7486  3.8574  0.1396
  414MOL0     H55874  10.983   7.589   7.961  3.5043  0.3309 -0.9673
  414MOL0     H55875  11.194   7.564   8.110  0.1550 -0.4020 -0.2215
  414MOL0     H55876  11.456   7.198   8.279 -4.7940  0.6319  0.0146
  414MOL0     H55877  11.617   7.090   8.424  2.1521  0.0363  1.4274
  414MOL0     H55878  11.691   7.323   8.790  0.2162  1.7587 -0.5854
  414MOL0     H55879  11.812   7.308   8.664  0.5818 -0.0951 -0.5373
  414MOL0     H55880  11.809   7.075   8.854 -0.3355 -0.3278  2.9606
  414MOL0     H55881  11.800   7.221   8.947  3.5438 -0.6014 -0.2012
  414MOL0     H55882  12.003   7.160   8.728 -2.7484  0.8918 -0.9521
  414MOL0     H55883  12.025   7.129   8.901  2.1400 -0.5870 -1.4622
  414MOL0     H55884  11.973   7.402   8.774 -1.8407  1.0617  2.2611
  414MOL0     H55885  11.997   7.382   8.944 -0.1868  1.9723 -1.4034
  414MOL0     H55886  12.375   7.439   8.796  0.2468 -0.2627  0.3384
  414MOL0     H55887  11.514   7.377   8.733  0.8942 -1.8367  0.5158
  414MOL0     H55888  11.310   7.573   8.520  0.6775  0.5583  1.0205
  414MOL0     H55889  11.234   7.484   8.663 -0.4816  0.0624 -0.4963
  414MOL0     H55890  11.387   7.566   8.682 -1.3872  2.2772  0.1562
  415MOL0     O55891  11.023   9.877   3.138  0.8412 -0.1015 -0.6429
  415MOL0     C55892  10.972   9.771   3.105  0.9499 -0.5679 -0.0038
  415MOL0     O55893  10.846   9.728   3.146  0.4206 -1.1673  0.5802
  415MOL0     C55894  10.755   9.829   3.165  0.5113  0.4486  0.0451
  415MOL0     C55895  10.730   9.931   3.068  0.4224 -0.7958  0.1081
  415MOL0     C55896  10.616  10.006   3.079  0.1666 -0.0980 -0.6669
  415MOL0     C55897  10.508   9.979   3.169 -1.1979  0.4939  0.7961
  415MOL0     O55898  10.393  10.047   3.156  0.2198 -0.5883  0.1102
  415MOL0     C55899  10.274  10.003   3.228  0.0636  0.2899 -0.4236
  415MOL0     C55900  10.157  10.095   3.202 -0.6360 -0.1792 -0.7533
  415MOL0     C55901  10.033  10.054   3.272 -0.0808  0.2227  0.2650
  415MOL0     C55902   9.920  10.158   3.234 -0.3614 -0.5068  0.3029
  415MOL0     C55903   9.776  10.120   3.270 -0.7697  0.4182  0.1475
  415MOL0     C55904   9.683  10.225   3.207 -0.3672 -0.1802 -0.1663
  415MOL0     C55905   9.698  10.370   3.257 -1.0551  0.4099 -0.4514
  415MOL0     C55906   9.574  10.454   3.258 -1.0056  0.0963  0.4473
  415MOL0     N55907   9.566  10.531   3.131 -0.9748 -0.0847  0.2597
  415MOL0     C55908   9.576  10.673   3.143 -0.4896  0.4808 -0.0694
  415MOL0     C55909   9.554  10.724   3.024  0.8777 -0.9966  1.4500
  415MOL0     C55910   9.530  10.870   2.980  0.4546 -0.3836 -0.3399
  415MOL0     C55911   9.598  10.911   2.847  0.1667  0.4982 -0.1975
  415MOL0     C55912   9.582  10.814   2.724 -0.1836  0.3627 -0.3003
  415MOL0     C55913   9.555  10.856   2.583 -0.3958 -0.9139 -0.0914
  415MOL0     O55914   9.448  10.956   2.575 -0.6661 -0.7018 -0.1462
  415MOL0     C55915   9.453  11.054   2.486  0.2358 -0.0949 -0.2904
  415MOL0     C55916   9.370  11.167   2.507 -0.1533 -1.2646  0.8416
  415MOL0     C55917   9.353  11.276   2.418  0.6880  0.9077  1.0346
  415MOL0     C55918   9.414  11.255   2.288 -0.1715  1.1243 -0.7253
  415MOL0     C55919   9.412  11.363   2.187 -0.4443  0.3931  0.1992
  415MOL0     O55920   9.346  11.474   2.227 -0.0950  0.3180  0.2610
  415MOL0     C55921   9.348  11.580   2.143 -0.1298  0.3011  0.2268
  415MOL0     C55922   9.238  11.655   2.145 -0.6291 -0.0498 -0.9140
  415MOL0     C55923   9.211  11.756   2.051 -0.9123  0.5757 -0.3349
  415MOL0     C55924   9.308  11.788   1.954  0.2300 -0.3913 -0.4720
  415MOL0     O55925   9.268  11.882   1.868 -0.2679 -1.1471 -0.2468
  415MOL0     C55926   9.344  11.882   1.742  0.3075  1.5204 -0.4693
  415MOL0     C55927   9.451  11.990   1.734 -0.0994 -0.1005 -0.2902
  415MOL0     C55928   9.428  12.127   1.801 -0.5138  0.0131 -0.6981
  415MOL0     C55929   9.538  12.222   1.763  0.2069 -0.0910  0.2785
  415MOL0     C55930   9.513  12.304   1.640  0.2698  0.1607  0.6591
  415MOL0     C55931   9.510  12.226   1.496  0.2032 -0.7413  0.0635
  415MOL0     C55932   9.530  12.324   1.370 -0.7780 -1.1599  0.4493
  415MOL0     C55933   9.682  12.352   1.362 -0.0551  0.4223 -0.9728
  415MOL0    Cl55934   9.752  12.418   1.210 -0.1313  0.3269 -0.2698
  415MOL0     C55935   9.432  11.721   1.959 -0.0992 -0.1185  0.4748
  415MOL0     C55936   9.452  11.613   2.053  0.1711  0.3447  1.0104
  415MOL0     O55937   9.468  11.340   2.072 -0.1435 -1.1955  0.4424
  415MOL0     C55938   9.485  11.141   2.264 -0.1814  0.0548 -0.7160
  415MOL0     C55939   9.503  11.039   2.357  0.0299 -1.0948 -0.4232
  415MOL0     N55940   9.526  10.611   2.940  0.5991 -0.2601  0.2211
  415MOL0     N55941   9.544  10.496   3.002 -0.0285  0.7672  0.2444
  415MOL0     C55942  10.529   9.878   3.261 -0.2374  0.1429 -0.1628
  415MOL0     C55943  10.651   9.805   3.257 -0.2778 -0.7387  0.1302
  415MOL0     C55944  11.038   9.685   3.006  0.0180  0.2827  0.1765
  415MOL0     C55945  11.003   9.546   3.003  0.1659 -1.1050 -0.1764
  415MOL0     C55946  11.064   9.460   2.907  0.3767  0.3853  0.2236
  415MOL0     C55947  11.151   9.498   2.813  0.1082  0.9081  0.2655
  415MOL0     O55948  11.198   9.412   2.713  0.6161 -0.6585  0.2382
  415MOL0     C55949  11.281   9.458   2.613  0.1366  0.2336  0.2265
  415MOL0     C55950  11.205   9.477   2.484 -0.8953  0.1459 -0.5243
  415MOL0     C55951  11.300   9.480   2.364 -0.0024  0.2636 -0.3644
  415MOL0     C55952  11.213   9.462   2.238  0.4903 -0.2978 -0.5545
  415MOL0     C55953  11.134   9.334   2.224  0.1514  0.1055 -0.7327
  415MOL0     C55954  11.060   9.234   2.207  0.1237 -0.2647 -0.5749
  415MOL0     C55955  11.178   9.635   2.818 -0.5944  0.5241  0.5744
  415MOL0     C55956  11.127   9.731   2.904 -0.9453  0.0263  0.0915
  415MOL0     C55957  11.177   9.865   2.882  0.1378 -0.1945 -0.9055
  415MOL0     H55958  10.801   9.939   2.987 -2.8241  0.5763 -2.8640
  415MOL0     H55959  10.592  10.085   3.008 -1.0288 -1.1682 -1.5078
  415MOL0     H55960  10.255   9.896   3.211 -1.7264  0.5409 -0.1414
  415MOL0     H55961  10.289  10.009   3.336 -0.2462 -0.6531 -0.3193
  415MOL0     H55962  10.143  10.098   3.093 -0.8103 -0.1932 -0.7321
  415MOL0     H55963  10.185  10.199   3.220 -0.1546 -0.6434  1.4268
  415MOL0     H55964  10.061  10.068   3.377  0.1052 -1.2308  0.4340
  415MOL0     H55965   9.993   9.954   3.251 -1.9457  1.2511 -1.4239
  415MOL0     H55966   9.948  10.249   3.288  0.3132 -0.1733 -0.5855
  415MOL0     H55967   9.934  10.177   3.127  1.6254  2.8161  1.0108
  415MOL0     H55968   9.755  10.018   3.237 -1.4253  0.1067  1.4408
  415MOL0     H55969   9.758  10.113   3.378  0.5966  1.3790  0.4703
  415MOL0     H55970   9.694  10.221   3.099 -2.8673  2.7372 -0.6548
  415MOL0     H55971   9.583  10.185   3.227 -0.4481  0.1990  0.2061
  415MOL0     H55972   9.787  10.419   3.216  1.0423 -3.3722 -0.8864
  415MOL0     H55973   9.721  10.354   3.363 -3.1494 -0.1429 -0.0230
  415MOL0     H55974   9.491  10.382   3.259 -0.8972 -0.3418 -3.8596
  415MOL0     H55975   9.582  10.514   3.350  2.5286 -0.4772  0.6371
  415MOL0     H55976   9.615  10.734   3.224  3.0174 -2.8683  1.0302
  415MOL0     H55977   9.422  10.888   2.983  0.2348 -1.5762 -0.4505
  415MOL0     H55978   9.578  10.927   3.061 -1.5492 -0.6220  1.0947
  415MOL0     H55979   9.567  11.011   2.812 -1.7423 -0.6036 -1.9255
  415MOL0     H55980   9.703  10.933   2.869 -0.1951  1.1979  0.8971
  415MOL0     H55981   9.509  10.739   2.756  0.2862 -0.7831 -1.7868
  415MOL0     H55982   9.676  10.758   2.723 -0.2972  0.1812 -0.7929
  415MOL0     H55983   9.517  10.769   2.529 -0.9013 -0.3832 -0.6011
  415MOL0     H55984   9.647  10.884   2.531 -0.7233  1.9892  0.7109
  415MOL0     H55985   9.316  11.167   2.601  0.0838  1.5827  1.0602
  415MOL0     H55986   9.304  11.366   2.452  1.5527  1.1742  1.6031
  415MOL0     H55987   9.151  11.624   2.202 -2.4064  1.5939 -2.5532
  415MOL0     H55988   9.124  11.821   2.046 -1.6995 -0.4385 -0.2325
  415MOL0     H55989   9.369  11.784   1.702 -2.9578  1.7877 -3.7461
  415MOL0     H55990   9.268  11.899   1.664 -3.7478 -2.0713  2.2227
  415MOL0     H55991   9.537  11.952   1.788 -1.3867 -1.0493  1.1713
  415MOL0     H55992   9.477  12.002   1.628 -3.5606  3.6365 -0.9885
  415MOL0     H55993   9.328  12.163   1.776 -0.6359  0.5770  0.5522
  415MOL0     H55994   9.422  12.108   1.909 -1.1104  0.4239 -0.6559
  415MOL0     H55995   9.623  12.163   1.727  2.1033  3.2713 -1.2735
  415MOL0     H55996   9.552  12.281   1.854  0.9879  0.8969 -0.4648
  415MOL0     H55997   9.593  12.379   1.634 -0.3871  0.7712 -2.2062
  415MOL0     H55998   9.431  12.373   1.664  0.4279  0.0482  1.5417
  415MOL0     H55999   9.591  12.152   1.493  1.7067  0.8452 -0.4419
  415MOL0     H56000   9.411  12.182   1.484 -0.9247  0.9596  2.3925
  415MOL0     H56001   9.471  12.409   1.406  4.2006  0.4560  6.6787
  415MOL0     H56002   9.491  12.278   1.279 -1.5748 -0.7415  0.5710
  415MOL0     H56003   9.724  12.408   1.446  0.7659  0.0754 -1.1388
  415MOL0     H56004   9.736  12.257   1.367  1.4942  0.8940 -5.0872
  415MOL0     H56005   9.514  11.733   1.890  0.0980 -4.3201 -0.3046
  415MOL0     H56006   9.544  11.555   2.058 -1.1734 -2.0749 -0.5980
  415MOL0     H56007   9.539  11.137   2.170  3.5954 -2.8170  1.2949
  415MOL0     H56008   9.554  10.946   2.336 -0.6884 -1.5016 -0.4168
  415MOL0     H56009  10.455   9.869   3.340 -2.9620  1.3780 -2.3519
  415MOL0     H56010  10.656   9.736   3.341 -1.1581 -2.6883 -1.3327
  415MOL0     H56011  10.925   9.507   3.067 -0.7543  1.2690  0.2585
  415MOL0     H56012  11.038   9.355   2.920  0.4393 -0.2589 -3.6913
  415MOL0     H56013  11.336   9.364   2.598  0.0766 -0.0913  1.8779
  415MOL0     H56014  11.356   9.535   2.631  0.0607  1.2857 -3.2500
  415MOL0     H56015  11.141   9.565   2.497 -1.1462 -0.4354  3.7513
  415MOL0     H56016  11.136   9.392   2.479  0.0671 -0.5944 -2.0341
  415MOL0     H56017  11.373   9.400   2.377  1.2684  0.9893 -2.3993
  415MOL0     H56018  11.348   9.577   2.343 -0.0511  0.0818 -1.3865
  415MOL0     H56019  11.142   9.545   2.241  1.7547  0.7867  0.6463
  415MOL0     H56020  11.275   9.451   2.149  3.3858 -2.3173  1.5513
  415MOL0     H56021  11.004   9.144   2.193  1.1177 -1.1487  0.8300
  415MOL0     H56022  11.251   9.668   2.745  1.6113  2.1397  3.3172
  415MOL0     H56023  11.199   9.877   2.775  1.5112 -0.3796 -0.6698
  415MOL0     H56024  11.101   9.940   2.909  0.0237 -0.6912  0.2131
  415MOL0     H56025  11.261   9.883   2.950 -3.2687  0.7981  3.5299
  416MOL0     O56026   5.308   5.060   0.655 -0.0540 -0.5203 -0.4349
  416MOL0     C56027   5.273   4.987   0.568 -0.3359  0.2335 -0.3590
  416MOL0     O56028   5.342   4.975   0.446 -0.3941 -0.3691  0.0524
  416MOL0     C56029   5.444   5.060   0.430 -0.1007  0.9600  0.3984
  416MOL0     C56030   5.432   5.199   0.435 -1.2278  0.3572 -0.9523
  416MOL0     C56031   5.548   5.284   0.402 -0.4943 -0.3359  0.2512
  416MOL0     C56032   5.658   5.222   0.367 -1.2124  0.7726 -0.3094
  416MOL0     O56033   5.767   5.294   0.317 -0.1192 -0.0318  0.0825
  416MOL0     C56034   5.795   5.426   0.372 -1.0733  0.7713 -0.1284
  416MOL0     C56035   5.943   5.466   0.348 -0.4047  0.2608  0.9550
  416MOL0     C56036   5.967   5.519   0.211 -0.7727 -0.1610 -0.7934
  416MOL0     C56037   6.106   5.559   0.180 -0.4728 -0.6310 -0.7242
  416MOL0     C56038   6.147   5.605   0.041 -0.8201 -0.4881 -0.4156
  416MOL0     C56039   6.112   5.751   0.013 -0.3670  0.7151  0.3445
  416MOL0     C56040   6.076   5.762  -0.135 -0.6097  1.3017 -0.0418
  416MOL0     C56041   6.184   5.723  -0.230  0.5789  0.6679  0.3496
  416MOL0     N56042   6.164   5.771  -0.368  0.0612  0.5338 -0.5271
  416MOL0     C56043   6.060   5.742  -0.456 -0.0805  0.9381  0.1715
  416MOL0     C56044   6.094   5.778  -0.576  0.1656  0.3265  0.5824
  416MOL0     C56045   6.030   5.748  -0.710  0.3031  0.2698 -0.6624
  416MOL0     C56046   5.875   5.783  -0.696 -0.3776  0.4369  0.1552
  416MOL0     C56047   5.785   5.723  -0.807  0.0616  0.2225  0.0256
  416MOL0     C56048   5.677   5.829  -0.834  0.6136  0.2133 -1.6565
  416MOL0     O56049   5.582   5.787  -0.927  0.2513  0.0323  0.3206
  416MOL0     C56050   5.491   5.878  -0.953  0.9743 -0.6209  0.4757
  416MOL0     C56051   5.402   5.934  -0.857  0.2411 -0.1533 -0.4607
  416MOL0     C56052   5.309   6.033  -0.895 -0.2962  0.2743 -1.1107
  416MOL0     C56053   5.300   6.088  -1.023  0.3911  0.5071 -0.3188
  416MOL0     C56054   5.195   6.180  -1.048  0.4721 -0.0289 -0.4787
  416MOL0     O56055   5.180   6.221  -1.178 -0.0476 -0.3812  0.3911
  416MOL0     C56056   5.074   6.293  -1.213  0.5991  0.5389 -0.0040
  416MOL0     C56057   4.957   6.230  -1.238 -0.9300  0.0699 -0.2318
  416MOL0     C56058   4.840   6.296  -1.271 -0.3566 -1.0725 -0.7513
  416MOL0     C56059   4.849   6.434  -1.299 -0.5367  0.9237 -1.0176
  416MOL0     O56060   4.733   6.491  -1.345  0.5778  0.0525 -0.0604
  416MOL0     C56061   4.666   6.588  -1.267  0.8748 -0.1960  0.3505
  416MOL0     C56062   4.685   6.716  -1.347 -0.3809 -0.2339  0.8419
  416MOL0     C56063   4.608   6.839  -1.280  0.1660  1.6766 -0.2723
  416MOL0     C56064   4.575   6.957  -1.377 -0.0588 -0.2346  0.7862
  416MOL0     C56065   4.508   7.075  -1.298 -0.3392  0.3772 -1.1525
  416MOL0     C56066   4.467   7.181  -1.390 -0.8728  0.0641 -0.5869
  416MOL0     C56067   4.576   7.280  -1.443 -0.1137  0.5871  0.0011
  416MOL0     C56068   4.573   7.407  -1.367 -0.0300 -0.0799  0.4718
  416MOL0    Cl56069   4.628   7.366  -1.210 -0.0492 -0.0870 -0.5212
  416MOL0     C56070   4.976   6.499  -1.292 -0.1040  0.1504  1.0499
  416MOL0     C56071   5.087   6.429  -1.244 -0.5334 -0.5582  0.2764
  416MOL0     O56072   5.123   6.212  -0.953 -0.3746  0.3899 -0.2047
  416MOL0     C56073   5.386   6.029  -1.120  0.0073 -0.8483  0.1630
  416MOL0     C56074   5.480   5.932  -1.084 -0.7180  0.0783  0.1091
  416MOL0     N56075   6.220   5.835  -0.565 -0.2058  0.8467  0.1538
  416MOL0     N56076   6.263   5.822  -0.446  0.2469  0.2723  0.2542
  416MOL0     C56077   5.671   5.081   0.367  0.7451 -1.5972  0.4821
  416MOL0     C56078   5.563   5.002   0.399 -0.5133 -0.0885 -0.3213
  416MOL0     C56079   5.168   4.884   0.586  0.5959 -1.2673  0.6020
  416MOL0     C56080   5.145   4.790   0.484 -0.4579  0.4046 -0.0953
  416MOL0     C56081   5.056   4.682   0.503  0.7296 -0.9031 -0.0347
  416MOL0     C56082   4.993   4.666   0.620  0.0707  0.2812 -0.3502
  416MOL0     O56083   4.907   4.563   0.632  0.4096 -0.2488 -0.7575
  416MOL0     C56084   4.921   4.459   0.733  0.5130  0.0579 -0.0007
  416MOL0     C56085   5.002   4.342   0.675  0.6982 -0.0647  0.1520
  416MOL0     C56086   5.059   4.234   0.777  0.3864 -0.7416 -0.3921
  416MOL0     C56087   4.942   4.180   0.865  0.0066 -0.3141 -0.8699
  416MOL0     C56088   4.973   4.043   0.915  0.6118 -0.5406  0.0990
  416MOL0     C56089   4.974   3.934   0.965  0.6981  0.2044  0.6943
  416MOL0     C56090   5.006   4.762   0.724  0.1318  0.0359 -1.1670
  416MOL0     C56091   5.088   4.877   0.709 -0.0971  0.0890 -0.1004
  416MOL0     C56092   5.084   4.983   0.819 -0.0894  0.2968  0.3342
  416MOL0     H56093   5.344   5.253   0.468  0.3611  1.6416  1.4856
  416MOL0     H56094   5.542   5.392   0.390  2.0659 -0.2095 -0.3019
  416MOL0     H56095   5.728   5.494   0.318  1.2185  1.5201 -2.1742
  416MOL0     H56096   5.783   5.434   0.481  0.2487  0.1048  0.0788
  416MOL0     H56097   6.002   5.377   0.375  0.5647  0.9368  1.1077
  416MOL0     H56098   5.964   5.550   0.415 -0.6913  1.4376 -0.3883
  416MOL0     H56099   5.902   5.606   0.197 -0.9505 -0.0356  0.6214
  416MOL0     H56100   5.931   5.445   0.138  2.3579  1.6272 -4.4981
  416MOL0     H56101   6.129   5.641   0.249  1.2880 -0.8831 -0.9549
  416MOL0     H56102   6.168   5.471   0.196  0.5258  0.0297 -0.8462
  416MOL0     H56103   6.253   5.584   0.022 -0.7950 -0.9284  0.1558
  416MOL0     H56104   6.101   5.532  -0.027 -0.8775 -1.3392  0.5121
  416MOL0     H56105   6.016   5.773   0.061 -0.5354 -1.5604  1.1762
  416MOL0     H56106   6.194   5.815   0.047  0.5110  0.2536 -0.8309
  416MOL0     H56107   6.034   5.862  -0.147  2.5891  2.7164 -0.3789
  416MOL0     H56108   5.996   5.687  -0.146  0.3487 -0.2696  2.6179
  416MOL0     H56109   6.278   5.758  -0.188  0.1512 -1.2731  3.2102
  416MOL0     H56110   6.185   5.615  -0.249  1.3891  1.1181 -2.6123
  416MOL0     H56111   5.971   5.683  -0.436  0.5552  0.4128  1.6430
  416MOL0     H56112   6.069   5.800  -0.798 -0.3954  0.3960 -0.9089
  416MOL0     H56113   6.043   5.641  -0.728 -2.8503 -0.7480  2.1404
  416MOL0     H56114   5.835   5.752  -0.599  0.3143 -0.6138  0.1177
  416MOL0     H56115   5.872   5.893  -0.695  1.9889  0.6646  4.0990
  416MOL0     H56116   5.740   5.633  -0.764  1.2027  0.3135  1.5081
  416MOL0     H56117   5.837   5.701  -0.901  0.1003 -0.8045  0.2709
  416MOL0     H56118   5.721   5.924  -0.865 -1.2834  1.7116 -0.0609
  416MOL0     H56119   5.625   5.842  -0.739 -0.4943 -3.6833 -1.5302
  416MOL0     H56120   5.398   5.925  -0.749  2.2203 -0.9613 -0.4117
  416MOL0     H56121   5.244   6.064  -0.814  2.0511  3.1420 -0.1522
  416MOL0     H56122   4.952   6.125  -1.210  2.9927  0.2504  1.8221
  416MOL0     H56123   4.749   6.240  -1.289 -0.7164 -0.2533 -1.5883
  416MOL0     H56124   4.562   6.556  -1.264  0.6957 -0.2096 -2.5392
  416MOL0     H56125   4.705   6.589  -1.165  2.1586 -0.3211 -0.1229
  416MOL0     H56126   4.788   6.744  -1.366 -0.9419  0.0255 -2.4418
  416MOL0     H56127   4.649   6.684  -1.445 -0.6278 -1.0681  1.1927
  416MOL0     H56128   4.514   6.799  -1.241  1.2780 -1.9980 -0.9714
  416MOL0     H56129   4.664   6.868  -1.190 -0.8522 -2.3933  1.9141
  416MOL0     H56130   4.519   6.920  -1.463  2.9052 -1.8891 -0.5873
  416MOL0     H56131   4.667   7.000  -1.418 -0.5290  1.0150  1.0058
  416MOL0     H56132   4.576   7.105  -1.218 -0.7008 -3.7858  1.0050
  416MOL0     H56133   4.423   7.029  -1.247  0.2255 -2.6286 -2.6637
  416MOL0     H56134   4.405   7.140  -1.471  2.8755 -2.3657 -2.4738
  416MOL0     H56135   4.415   7.247  -1.320  1.1685 -0.1616  1.2119
  416MOL0     H56136   4.549   7.296  -1.548 -1.0760 -3.3089 -0.5311
  416MOL0     H56137   4.671   7.225  -1.447 -1.8907 -2.7366 -0.1212
  416MOL0     H56138   4.651   7.471  -1.409  3.3718 -3.5023  1.1576
  416MOL0     H56139   4.474   7.450  -1.345  0.0718  0.7035 -0.5035
  416MOL0     H56140   4.966   6.602  -1.324 -2.0749 -0.8721 -2.0541
  416MOL0     H56141   5.188   6.463  -1.265 -1.4891  1.3269 -1.7397
  416MOL0     H56142   5.372   6.055  -1.224 -1.4792 -0.6819  0.3794
  416MOL0     H56143   5.540   5.899  -1.169 -2.4115 -0.2112 -1.0237
  416MOL0     H56144   5.763   5.038   0.330  2.0571  2.3838 -1.4723
  416MOL0     H56145   5.589   4.897   0.404  0.2685  0.0330 -1.4780
  416MOL0     H56146   5.204   4.800   0.393  0.1121 -0.0545  0.2180
  416MOL0     H56147   5.050   4.609   0.423 -0.2731  2.5368 -3.3848
  416MOL0     H56148   4.824   4.418   0.765  1.7300 -4.9273 -1.7639
  416MOL0     H56149   4.971   4.498   0.822  0.8640 -0.4978  0.0521
  416MOL0     H56150   5.091   4.384   0.629  1.9960  0.8750  3.2683
  416MOL0     H56151   4.938   4.290   0.603 -1.3104  0.7521  1.2697
  416MOL0     H56152   5.124   4.291   0.844 -2.6385  3.4037 -0.5772
  416MOL0     H56153   5.108   4.153   0.722  0.5436 -0.9649  0.0657
  416MOL0     H56154   4.922   4.252   0.945  3.5839 -1.0334  0.8566
  416MOL0     H56155   4.847   4.162   0.813 -0.0272 -4.8093  0.3697
  416MOL0     H56156   4.952   3.833   0.991 -1.8585  0.1159 -1.3898
  416MOL0     H56157   4.955   4.745   0.818  1.0744  0.8462 -0.4816
  416MOL0     H56158   5.019   4.944   0.898 -1.9973 -1.5276 -1.9802
  416MOL0     H56159   5.180   4.995   0.870 -1.1167  2.4591  1.8771
  416MOL0     H56160   5.028   5.065   0.774 -2.6648 -3.5201 -4.3174
  417MOL0     O56161   2.109   0.996   1.316  0.0881  0.1501  0.3350
  417MOL0     C56162   2.099   0.964   1.435  0.9713  0.7851  0.1731
  417MOL0     O56163   2.094   0.833   1.475 -0.2507  0.6163  0.0146
  417MOL0     C56164   2.048   0.751   1.378  0.2633  0.6072 -0.2515
  417MOL0     C56165   1.908   0.713   1.357  1.0757 -0.4503 -0.6811
  417MOL0     C56166   1.874   0.615   1.254 -0.4710 -0.1355 -0.3386
  417MOL0     C56167   1.977   0.557   1.174  0.3131 -0.5137 -0.2242
  417MOL0     O56168   1.964   0.458   1.073 -0.0322 -0.5682  0.7314
  417MOL0     C56169   1.854   0.362   1.077  0.1176 -1.6472 -0.1457
  417MOL0     C56170   1.736   0.412   0.999  0.3589 -0.4186  0.2839
  417MOL0     C56171   1.753   0.391   0.852 -0.4084  0.9998 -0.0660
  417MOL0     C56172   1.742   0.530   0.784 -0.8364  1.2236 -0.2969
  417MOL0     C56173   1.694   0.517   0.633  0.4263 -0.3159 -0.5494
  417MOL0     C56174   1.813   0.498   0.539 -0.7361 -0.3915  0.1450
  417MOL0     C56175   1.771   0.487   0.396 -0.4542  0.0723  0.0689
  417MOL0     C56176   1.875   0.470   0.286  0.1087  0.6043 -0.1781
  417MOL0     N56177   1.989   0.555   0.289 -0.2894 -0.1618  0.3599
  417MOL0     C56178   2.118   0.521   0.324 -0.4128 -0.3153 -1.1885
  417MOL0     C56179   2.193   0.643   0.320  0.2249  0.0690  0.3080
  417MOL0     C56180   2.334   0.679   0.361  0.5753 -0.3714  0.6006
  417MOL0     C56181   2.400   0.812   0.309 -0.3642 -0.2253 -0.2788
  417MOL0     C56182   2.404   0.803   0.160 -1.0235 -0.9612 -0.3008
  417MOL0     C56183   2.471   0.935   0.107 -0.5133 -0.2614 -0.1690
  417MOL0     O56184   2.471   0.916  -0.035  0.2104 -0.1671 -0.6904
  417MOL0     C56185   2.584   0.944  -0.115  0.5668  0.2384  0.2903
  417MOL0     C56186   2.681   1.044  -0.076 -0.1431  0.5987 -0.0538
  417MOL0     C56187   2.785   1.077  -0.156  0.8853 -0.6279  0.2168
  417MOL0     C56188   2.800   1.023  -0.279 -0.3562  0.2041 -0.1735
  417MOL0     C56189   2.911   1.049  -0.372 -0.4779 -1.0765  1.4754
  417MOL0     O56190   2.922   0.980  -0.493 -0.3656 -0.3309  0.5038
  417MOL0     C56191   3.028   1.014  -0.568 -1.5734  0.1232  0.7365
  417MOL0     C56192   3.007   1.042  -0.701 -0.4605 -0.1035  0.1405
  417MOL0     C56193   3.109   1.046  -0.794 -0.4320 -0.9070 -0.5151
  417MOL0     C56194   3.242   1.059  -0.746  0.1780  0.5282  0.9222
  417MOL0     O56195   3.348   1.086  -0.825 -0.7675 -0.1356  0.4166
  417MOL0     C56196   3.330   1.145  -0.957  0.5778  0.0283  0.1195
  417MOL0     C56197   3.297   1.053  -1.074 -0.2504 -0.9121  0.1131
  417MOL0     C56198   3.282   1.133  -1.208  0.0525  0.4772  0.1017
  417MOL0     C56199   3.402   1.220  -1.249 -0.8680 -0.6273  0.5042
  417MOL0     C56200   3.389   1.302  -1.382  0.3743  0.2048  0.6572
  417MOL0     C56201   3.510   1.385  -1.398 -0.2858  0.0007 -0.2529
  417MOL0     C56202   3.521   1.497  -1.509  0.7708 -0.3557 -0.2450
  417MOL0     C56203   3.397   1.578  -1.533 -0.3904  0.7657  0.0215
  417MOL0    Cl56204   3.418   1.707  -1.648  0.1083  0.0182  0.2185
  417MOL0     C56205   3.266   1.038  -0.611  0.1545 -0.1327 -0.1454
  417MOL0     C56206   3.166   1.010  -0.514  0.4697  0.0219  0.8471
  417MOL0     O56207   2.994   1.117  -0.327  0.9424 -0.0445 -0.2632
  417MOL0     C56208   2.709   0.925  -0.316  0.0347 -0.0934  0.0272
  417MOL0     C56209   2.598   0.887  -0.244 -0.1770 -1.0750 -0.3371
  417MOL0     N56210   2.108   0.736   0.284  0.1662 -0.1002 -0.0357
  417MOL0     N56211   1.988   0.691   0.275  0.0218 -0.1618 -0.6762
  417MOL0     C56212   2.108   0.592   1.200 -0.3666 -0.2644 -0.1029
  417MOL0     C56213   2.138   0.683   1.301  0.5203 -0.0170 -0.9379
  417MOL0     C56214   2.082   1.069   1.531 -0.5819 -0.0954 -0.8081
  417MOL0     C56215   2.107   1.037   1.666  0.2686  0.4326 -0.3107
  417MOL0     C56216   2.101   1.130   1.767  0.7465 -0.2560  0.1527
  417MOL0     C56217   2.066   1.255   1.749 -0.2273  0.4469 -0.6475
  417MOL0     O56218   2.028   1.348   1.845 -0.8123 -0.1888  0.5854
  417MOL0     C56219   1.979   1.301   1.966  0.8636 -0.4910 -0.3822
  417MOL0     C56220   1.847   1.236   1.957  1.3303  0.4243 -0.0597
  417MOL0     C56221   1.749   1.313   1.873 -0.4801 -0.3602  0.1156
  417MOL0     C56222   1.614   1.239   1.895 -0.0028  0.4995  0.2743
  417MOL0     C56223   1.534   1.285   2.009 -0.0746  0.4164  1.1366
  417MOL0     C56224   1.468   1.323   2.104 -0.2053 -0.0172  0.4077
  417MOL0     C56225   2.042   1.298   1.623  0.6864 -0.8658 -0.0308
  417MOL0     C56226   2.033   1.210   1.510 -0.7298  0.6903 -0.2278
  417MOL0     C56227   1.996   1.263   1.366 -0.1813 -0.4470  1.0582
  417MOL0     H56228   1.833   0.745   1.429 -0.2650 -2.3719 -1.1430
  417MOL0     H56229   1.771   0.595   1.225  0.7034 -3.8262 -2.7838
  417MOL0     H56230   1.889   0.271   1.027  1.9523 -1.1953  0.2732
  417MOL0     H56231   1.816   0.347   1.179 -1.3575 -1.7734 -0.6846
  417MOL0     H56232   1.706   0.512   1.032 -0.0052 -0.1138 -0.9187
  417MOL0     H56233   1.652   0.348   1.029 -0.1909 -0.0305 -0.3884
  417MOL0     H56234   1.672   0.328   0.812 -1.5805  2.7427 -0.5427
  417MOL0     H56235   1.845   0.343   0.818 -1.5860 -0.5573 -1.2044
  417MOL0     H56236   1.661   0.579   0.839 -2.7589 -1.2676 -0.7327
  417MOL0     H56237   1.842   0.573   0.793 -0.3454 -0.2657  2.1765
  417MOL0     H56238   1.620   0.438   0.617  0.6407 -0.6550  0.0815
  417MOL0     H56239   1.638   0.607   0.607  0.4345 -0.0911  0.1770
  417MOL0     H56240   1.875   0.586   0.558 -2.8346  0.9404  1.2179
  417MOL0     H56241   1.853   0.403   0.576  0.2713 -0.5649 -1.3298
  417MOL0     H56242   1.724   0.584   0.374  0.7866  0.3653 -1.4460
  417MOL0     H56243   1.699   0.405   0.384 -1.2859  0.4220  2.1839
  417MOL0     H56244   1.910   0.367   0.283 -0.6897  0.3322 -3.6507
  417MOL0     H56245   1.831   0.473   0.186 -1.6489  0.5797  0.5552
  417MOL0     H56246   2.156   0.428   0.367  0.8726  1.1652  1.1030
  417MOL0     H56247   2.319   0.689   0.468 -2.2433 -0.8600  0.3354
  417MOL0     H56248   2.393   0.592   0.331  3.4626  1.5083  0.4669
  417MOL0     H56249   2.354   0.906   0.340  2.3671  0.0954  3.4915
  417MOL0     H56250   2.500   0.808   0.355 -1.2220 -0.2673  1.6701
  417MOL0     H56251   2.301   0.799   0.125 -1.8078 -3.1597  1.9535
  417MOL0     H56252   2.452   0.713   0.120 -2.5353 -0.0191 -4.7560
  417MOL0     H56253   2.572   0.941   0.148 -0.2697 -2.0200 -0.4576
  417MOL0     H56254   2.414   1.027   0.125  1.3844  0.7204  1.1502
  417MOL0     H56255   2.667   1.094   0.020 -2.0032 -3.1244  1.8367
  417MOL0     H56256   2.855   1.154  -0.126  1.1104 -0.6095 -0.3276
  417MOL0     H56257   2.907   1.039  -0.744  0.1065 -2.1696 -1.1946
  417MOL0     H56258   3.089   1.047  -0.900  2.0434 -3.8442 -1.1692
  417MOL0     H56259   3.260   1.229  -0.950 -2.8961 -2.7156  1.0871
  417MOL0     H56260   3.431   1.175  -0.984  0.9738 -2.4587 -1.4898
  417MOL0     H56261   3.370   0.972  -1.083 -1.0142 -1.6715  0.5267
  417MOL0     H56262   3.194   1.018  -1.059 -1.3335  1.3470 -1.4430
  417MOL0     H56263   3.257   1.057  -1.283  2.0346  0.0139 -0.1533
  417MOL0     H56264   3.195   1.196  -1.185  1.1755  1.4544  1.9020
  417MOL0     H56265   3.488   1.158  -1.273  1.0335  1.6235  1.0376
  417MOL0     H56266   3.426   1.295  -1.172  2.7956  1.0616 -1.9749
  417MOL0     H56267   3.300   1.366  -1.376  0.3357  0.2701 -0.4623
  417MOL0     H56268   3.380   1.222  -1.456  1.3541  1.0559 -0.4336
  417MOL0     H56269   3.520   1.451  -1.310  3.9862  1.3648 -1.5270
  417MOL0     H56270   3.599   1.324  -1.415 -0.4723 -0.3631  0.0543
  417MOL0     H56271   3.553   1.452  -1.603 -0.4625 -0.1067 -0.8081
  417MOL0     H56272   3.606   1.564  -1.498  0.5916  0.6504 -3.8070
  417MOL0     H56273   3.318   1.508  -1.561  2.2215 -3.2092  1.6898
  417MOL0     H56274   3.376   1.633  -1.440 -1.3816  0.5694 -0.0756
  417MOL0     H56275   3.369   1.040  -0.578 -0.1398 -1.2948  0.9235
  417MOL0     H56276   3.201   0.991  -0.413  1.6181 -1.4362  0.2169
  417MOL0     H56277   2.723   0.880  -0.414  0.2867 -0.0272  0.0319
  417MOL0     H56278   2.523   0.828  -0.296 -0.3350 -0.8919 -0.3150
  417MOL0     H56279   2.185   0.558   1.131 -1.1662  0.0847 -1.2051
  417MOL0     H56280   2.242   0.700   1.326  0.5532 -2.0506  0.6103
  417MOL0     H56281   2.143   0.937   1.687 -0.4782  0.2315  0.0548
  417MOL0     H56282   2.096   1.071   1.858  1.3395  0.2774  0.5319
  417MOL0     H56283   1.957   1.385   2.032  2.6372 -0.3775  0.1093
  417MOL0     H56284   2.062   1.247   2.012  3.3535  4.1976  1.2917
  417MOL0     H56285   1.808   1.208   2.055  1.6366 -0.6553 -0.2261
  417MOL0     H56286   1.864   1.143   1.902  5.1739  0.5418  0.6331
  417MOL0     H56287   1.784   1.311   1.769  2.3908 -1.9393  0.9949
  417MOL0     H56288   1.739   1.418   1.900  0.3481  0.1101 -1.3282
  417MOL0     H56289   1.552   1.236   1.805 -1.3588  0.8442  1.1702
  417MOL0     H56290   1.639   1.136   1.919 -1.0019 -0.1392 -1.2582
  417MOL0     H56291   1.410   1.359   2.187 -0.2239  0.0715  0.3566
  417MOL0     H56292   2.006   1.401   1.623  0.7566 -0.8388  0.5778
  417MOL0     H56293   1.975   1.370   1.364  0.6345 -0.2556  1.9925
  417MOL0     H56294   2.085   1.236   1.308  0.2363 -1.4582  2.1243
  417MOL0     H56295   1.916   1.203   1.321  0.0149 -0.8681  1.2578
  418MOL0     O56296   9.492   6.148   3.295  0.4807 -0.4608 -0.6485
  418MOL0     C56297   9.488   6.213   3.191  0.8602 -0.2228  0.5026
  418MOL0     O56298   9.405   6.182   3.085  0.0005  0.0432  0.8019
  418MOL0     C56299   9.317   6.077   3.105 -1.0699 -0.5646  0.2503
  418MOL0     C56300   9.206   6.082   3.192 -0.7110 -0.1758  1.1490
  418MOL0     C56301   9.131   5.964   3.211  0.3178  0.0209  0.2100
  418MOL0     C56302   9.166   5.835   3.140 -0.1719 -0.5005 -1.2473
  418MOL0     O56303   9.093   5.726   3.174  0.8753 -0.6993  0.6711
  418MOL0     C56304   9.082   5.690   3.312 -0.2696 -0.2816  0.5156
  418MOL0     C56305   9.014   5.556   3.315 -0.8727  0.1156 -0.5518
  418MOL0     C56306   8.857   5.540   3.293  0.4790  0.0652 -0.5606
  418MOL0     C56307   8.806   5.415   3.228  0.3079 -0.8481  0.6847
  418MOL0     C56308   8.652   5.412   3.218 -0.6356 -0.5822  0.0832
  418MOL0     C56309   8.612   5.478   3.075 -0.0361  0.3937  0.3171
  418MOL0     C56310   8.494   5.402   3.007  0.5798  0.3774 -0.1556
  418MOL0     C56311   8.457   5.458   2.867  0.1679  0.8677 -0.5556
  418MOL0     N56312   8.565   5.449   2.761  0.1407 -0.7235  0.7973
  418MOL0     C56313   8.660   5.543   2.739 -0.2176 -0.0390 -0.7665
  418MOL0     C56314   8.751   5.485   2.656 -0.2365  0.6240 -0.3088
  418MOL0     C56315   8.879   5.560   2.621  0.4183 -0.2262  0.2009
  418MOL0     C56316   9.005   5.502   2.694  0.2408  0.7504  0.7852
  418MOL0     C56317   9.005   5.533   2.844  0.4731  0.2403  0.7986
  418MOL0     C56318   9.122   5.476   2.923  0.0030  0.5300  0.2732
  418MOL0     O56319   9.136   5.332   2.923 -0.8859 -0.0495  0.0576
  418MOL0     C56320   9.218   5.288   3.020  0.5315  1.3386 -1.2051
  418MOL0     C56321   9.215   5.153   3.046  0.3263  0.0925  0.1236
  418MOL0     C56322   9.252   5.101   3.177 -0.2475 -0.1190 -0.2046
  418MOL0     C56323   9.335   5.176   3.259  0.2360  0.8761 -0.3740
  418MOL0     C56324   9.381   5.123   3.386  0.1682  0.6750 -0.5455
  418MOL0     O56325   9.350   5.208   3.487  0.6413  0.2139 -1.0532
  418MOL0     C56326   9.389   5.171   3.612  0.4124  0.0302 -0.2477
  418MOL0     C56327   9.415   5.289   3.688 -0.5718  0.4017 -0.7117
  418MOL0     C56328   9.422   5.281   3.830  0.8091  0.4028  1.1001
  418MOL0     C56329   9.425   5.160   3.902 -0.3730 -0.7596  0.1009
  418MOL0     O56330   9.453   5.175   4.039  0.2510  1.3813  1.2375
  418MOL0     C56331   9.416   5.071   4.130 -0.1589  0.3656 -0.0069
  418MOL0     C56332   9.266   5.058   4.153 -0.7198 -0.4171  0.3053
  418MOL0     C56333   9.222   5.059   4.303 -0.7343 -0.1631  0.5664
  418MOL0     C56334   9.080   5.043   4.321 -0.4933 -0.1587  0.5681
  418MOL0     C56335   9.031   5.036   4.467  0.4091  0.8136  0.3578
  418MOL0     C56336   8.883   5.024   4.493  0.5132 -0.0914  0.1012
  418MOL0     C56337   8.808   4.901   4.431  0.6310 -0.4914  1.4923
  418MOL0     C56338   8.854   4.780   4.507 -0.6215  0.5229 -0.6391
  418MOL0    Cl56339   8.756   4.638   4.460  0.0566  0.0389 -0.4612
  418MOL0     C56340   9.407   5.040   3.823 -0.0025 -0.5854 -0.2204
  418MOL0     C56341   9.379   5.049   3.690 -0.0288 -1.2543  0.5957
  418MOL0     O56342   9.444   5.010   3.379  0.2018 -0.4455 -0.1370
  418MOL0     C56343   9.365   5.305   3.223  0.3008 -0.8639  0.0117
  418MOL0     C56344   9.312   5.356   3.096 -0.3251  0.2253  1.1661
  418MOL0     N56345   8.709   5.352   2.622  0.4944 -0.1577 -0.4227
  418MOL0     N56346   8.591   5.336   2.695 -0.3916 -0.1898 -0.0951
  418MOL0     C56347   9.276   5.838   3.051  0.0996 -0.6011  0.3431
  418MOL0     C56348   9.353   5.954   3.039  0.7664  0.2895 -0.9351
  418MOL0     C56349   9.559   6.338   3.187 -0.5343  0.5134  0.4885
  418MOL0     C56350   9.574   6.396   3.060 -0.4710  0.7914  0.7050
  418MOL0     C56351   9.642   6.516   3.037 -1.1272  0.0848  0.3621
  418MOL0     C56352   9.707   6.588   3.140 -0.2779  0.1212  0.9039
  418MOL0     O56353   9.782   6.699   3.090 -0.6667  0.5646  0.2973
  418MOL0     C56354   9.851   6.757   3.194 -0.9349  0.8200  0.1001
  418MOL0     C56355   9.921   6.869   3.127 -0.0576 -0.0632  0.3015
  418MOL0     C56356  10.021   6.930   3.226  1.2325 -0.5677 -0.3904
  418MOL0     C56357  10.135   7.000   3.149 -0.4555  0.6195  0.4462
  418MOL0     C56358  10.076   7.104   3.072  0.0293 -0.2771 -0.3617
  418MOL0     C56359  10.020   7.193   3.010  0.2295 -0.2808  0.5593
  418MOL0     C56360   9.685   6.539   3.272 -1.1222 -0.0148  0.8345
  418MOL0     C56361   9.623   6.410   3.291  0.5003 -0.1072 -0.0587
  418MOL0     C56362   9.621   6.369   3.434 -0.1886 -0.5920  0.1352
  418MOL0     H56363   9.181   6.174   3.244  0.2943  2.0884 -2.0296
  418MOL0     H56364   9.046   5.970   3.277  2.8339  1.1534  3.6836
  418MOL0     H56365   9.182   5.677   3.354  0.8966  2.3124 -1.2350
  418MOL0     H56366   9.023   5.762   3.370  1.2015  2.8189 -1.6185
  418MOL0     H56367   9.041   5.538   3.419  0.3369 -0.1236 -0.8932
  418MOL0     H56368   9.072   5.487   3.254  0.1572  0.1049  0.4131
  418MOL0     H56369   8.840   5.629   3.231  3.1096  2.2900  1.6433
  418MOL0     H56370   8.811   5.544   3.392 -0.5491 -3.1320 -0.8105
  418MOL0     H56371   8.849   5.390   3.131  2.1046  0.1111  1.1820
  418MOL0     H56372   8.842   5.332   3.290  0.6743  0.0511  1.7219
  418MOL0     H56373   8.605   5.314   3.217 -2.8826  0.4484 -0.3237
  418MOL0     H56374   8.606   5.474   3.296 -1.2241  1.4833 -1.7985
  418MOL0     H56375   8.581   5.580   3.100  0.5775  0.6997 -0.1626
  418MOL0     H56376   8.700   5.482   3.011  1.0524 -0.0336  1.7432
  418MOL0     H56377   8.405   5.413   3.069  1.2562 -1.1935  1.1599
  418MOL0     H56378   8.516   5.295   3.013  0.5863  0.4564  2.1492
  418MOL0     H56379   8.376   5.391   2.835  1.2447 -1.6701  1.6369
  418MOL0     H56380   8.410   5.556   2.880  0.1824  0.7142  0.6881
  418MOL0     H56381   8.678   5.643   2.775  1.2234  0.7952 -3.5640
  418MOL0     H56382   8.894   5.554   2.513  2.4514  1.7515  0.2987
  418MOL0     H56383   8.869   5.665   2.648  1.7523 -0.0031 -0.1210
  418MOL0     H56384   9.016   5.396   2.670 -1.8547  0.8816 -0.9954
  418MOL0     H56385   9.093   5.548   2.649  0.4918 -1.5406 -1.2553
  418MOL0     H56386   8.921   5.479   2.888  1.4474 -1.7860  0.2547
  418MOL0     H56387   8.992   5.641   2.858 -0.1198 -0.0141  2.5242
  418MOL0     H56388   9.106   5.515   3.025 -5.0012 -1.7592  0.6792
  418MOL0     H56389   9.212   5.533   2.899 -0.2820  0.9841  0.2537
  418MOL0     H56390   9.171   5.089   2.970  2.9243 -2.9141  0.9493
  418MOL0     H56391   9.223   4.999   3.201  1.0357 -0.8191 -1.4629
  418MOL0     H56392   9.400   5.388   3.648  1.1540  0.7295 -0.6285
  418MOL0     H56393   9.434   5.374   3.885  0.8133  1.9324 -1.3473
  418MOL0     H56394   9.463   4.973   4.137 -1.5095 -0.2243  2.0677
  418MOL0     H56395   9.466   5.104   4.222  0.8342  0.6560 -0.6330
  418MOL0     H56396   9.213   5.137   4.100 -2.0429 -1.7819 -0.4738
  418MOL0     H56397   9.239   4.967   4.099 -0.7921  0.2936 -0.8848
  418MOL0     H56398   9.272   4.973   4.348  2.0445 -0.6499 -2.9144
  418MOL0     H56399   9.264   5.147   4.353  0.1382 -0.1302 -0.1939
  418MOL0     H56400   9.047   4.948   4.277 -0.8846 -0.5959  1.7425
  418MOL0     H56401   9.030   5.126   4.271 -0.3010 -1.6684 -2.3130
  418MOL0     H56402   9.072   5.116   4.530  2.0014 -0.1534  0.6139
  418MOL0     H56403   9.086   4.953   4.513 -0.0549 -0.4952 -1.3671
  418MOL0     H56404   8.877   5.038   4.602  2.6240 -1.7194  0.4948
  418MOL0     H56405   8.839   5.114   4.448 -0.3736  0.2972  1.6537
  418MOL0     H56406   8.830   4.882   4.326 -2.3519 -0.9772  0.8882
  418MOL0     H56407   8.700   4.918   4.435  0.9259  1.7891  0.8284
  418MOL0     H56408   8.957   4.754   4.481  0.2442  3.1570 -0.1423
  418MOL0     H56409   8.862   4.801   4.614  2.7984  1.0922 -0.8918
  418MOL0     H56410   9.397   4.950   3.884  1.7195  1.2063  3.0063
  418MOL0     H56411   9.344   4.960   3.640  1.0308 -2.0647  1.2589
  418MOL0     H56412   9.423   5.366   3.292 -1.8674  2.4440 -0.8673
  418MOL0     H56413   9.334   5.463   3.098 -3.1652  0.8871  1.9724
  418MOL0     H56414   9.301   5.751   2.993 -0.4022  1.2370 -2.8850
  418MOL0     H56415   9.428   5.949   2.961 -0.1095 -4.5355 -1.7319
  418MOL0     H56416   9.537   6.356   2.966  1.4028 -0.0605  0.2844
  418MOL0     H56417   9.633   6.566   2.941 -2.6754  1.4427  1.1619
  418MOL0     H56418   9.928   6.687   3.227 -1.4177  1.4278  2.7445
  418MOL0     H56419   9.786   6.787   3.277 -1.3216  0.4219 -0.0545
  418MOL0     H56420   9.853   6.945   3.087 -0.3028 -0.7660 -0.6753
  418MOL0     H56421   9.971   6.836   3.036 -0.8979  0.6446 -0.4369
  418MOL0     H56422  10.065   6.852   3.288  1.5929 -0.2204 -0.2004
  418MOL0     H56423   9.967   7.006   3.283 -0.6534 -0.6237 -1.9816
  418MOL0     H56424  10.210   7.043   3.216  0.9231 -1.9168  0.6677
  418MOL0     H56425  10.195   6.936   3.084  1.9532  1.8253  1.3749
  418MOL0     H56426   9.976   7.285   2.976 -0.0530 -0.4912  0.3449
  418MOL0     H56427   9.725   6.600   3.352 -0.4229 -0.1327  0.5827
  418MOL0     H56428   9.656   6.266   3.434  1.7172 -0.0183 -2.0276
  418MOL0     H56429   9.688   6.424   3.500 -4.0447  2.3002  2.0643
  418MOL0     H56430   9.520   6.373   3.476  0.4984 -2.4158  2.1066
  419MOL0     O56431   9.592   5.230   5.249  0.8266  0.3001  0.8020
  419MOL0     C56432   9.594   5.316   5.162  0.2206 -0.1590  1.3439
  419MOL0     O56433   9.487   5.358   5.095  0.2126 -0.0650 -1.1145
  419MOL0     C56434   9.364   5.342   5.155 -0.0721  0.4843  0.1974
  419MOL0     C56435   9.301   5.220   5.167 -0.0840  0.1220 -0.2150
  419MOL0     C56436   9.177   5.207   5.237  0.6624  0.4693  0.2832
  419MOL0     C56437   9.122   5.316   5.306 -0.2766  0.0929 -0.3611
  419MOL0     O56438   9.013   5.305   5.390  0.0181  0.1880  0.4474
  419MOL0     C56439   9.042   5.272   5.520 -0.3789  0.4402 -0.7302
  419MOL0     C56440   8.919   5.282   5.607  0.2686 -0.3253  0.6065
  419MOL0     C56441   8.804   5.192   5.565  0.4742 -0.1212 -0.7327
  419MOL0     C56442   8.823   5.042   5.568 -0.6359  0.8694  1.3781
  419MOL0     C56443   8.699   4.956   5.580 -0.2344 -0.1850  0.1129
  419MOL0     C56444   8.722   4.811   5.616 -0.0717  0.1464  0.3581
  419MOL0     C56445   8.613   4.744   5.711 -0.2018 -0.8809  0.7109
  419MOL0     C56446   8.644   4.770   5.861 -0.4058  0.4949 -0.3186
  419MOL0     N56447   8.607   4.900   5.916 -0.8315  0.3195  0.2986
  419MOL0     C56448   8.690   4.996   5.963 -0.8179 -0.9073 -0.8413
  419MOL0     C56449   8.619   5.095   6.024  1.2420 -0.4595  0.0153
  419MOL0     C56450   8.667   5.209   6.111  0.0151 -1.0125 -0.3987
  419MOL0     C56451   8.763   5.299   6.033 -0.0448  0.0596  0.2459
  419MOL0     C56452   8.798   5.431   6.096  0.0269 -0.0521  1.1689
  419MOL0     C56453   8.682   5.525   6.101  0.2757  0.4869 -0.3254
  419MOL0     O56454   8.664   5.586   5.975 -0.2685  0.2678  0.2564
  419MOL0     C56455   8.579   5.696   5.971  0.0538  0.6074 -0.8284
  419MOL0     C56456   8.503   5.740   6.075 -0.7595 -1.2345 -0.4444
  419MOL0     C56457   8.431   5.861   6.077 -0.5577  0.2836 -0.7507
  419MOL0     C56458   8.415   5.945   5.960 -0.3032  0.1526 -0.0834
  419MOL0     C56459   8.343   6.079   5.951 -0.4353  0.5873  0.5224
  419MOL0     O56460   8.259   6.104   6.055 -0.0582 -0.8099 -0.3561
  419MOL0     C56461   8.202   6.229   6.062 -0.4401 -0.2682  0.2726
  419MOL0     C56462   8.282   6.328   6.113  0.4739 -0.2813  0.9544
  419MOL0     C56463   8.227   6.455   6.132 -0.1867  0.0270  0.1847
  419MOL0     C56464   8.097   6.486   6.088 -0.0782 -0.5247 -0.5602
  419MOL0     O56465   8.046   6.612   6.124  0.8411  0.0148  0.1274
  419MOL0     C56466   7.903   6.644   6.102 -0.4273 -0.1173 -0.0096
  419MOL0     C56467   7.896   6.798   6.114 -0.5768  0.4085  0.2041
  419MOL0     C56468   7.770   6.873   6.088  0.7272 -0.3625  0.6275
  419MOL0     C56469   7.793   7.028   6.078 -0.4369 -0.6527  1.0178
  419MOL0     C56470   7.662   7.097   6.112 -0.3295 -0.6402 -0.4113
  419MOL0     C56471   7.681   7.246   6.151 -1.2602  0.1861  0.7393
  419MOL0     C56472   7.735   7.279   6.285  0.5062  0.3687 -0.5992
  419MOL0     C56473   7.622   7.273   6.376  0.5002 -1.1102  0.2836
  419MOL0    Cl56474   7.667   7.326   6.532 -0.0946  0.2706 -0.3244
  419MOL0     C56475   8.025   6.383   6.026  0.4699  0.2400  0.2886
  419MOL0     C56476   8.076   6.254   6.029 -0.0871 -0.5430  0.9146
  419MOL0     O56477   8.347   6.136   5.846 -0.3959 -0.0058  0.0563
  419MOL0     C56478   8.490   5.894   5.848  0.5070 -0.3661  0.2439
  419MOL0     C56479   8.558   5.765   5.851 -1.2226 -0.8260  0.1567
  419MOL0     N56480   8.482   5.060   6.007  0.6181  0.0367 -0.4470
  419MOL0     N56481   8.482   4.941   5.961  0.9372  0.8552  0.7110
  419MOL0     C56482   9.191   5.435   5.297  1.5170  0.1187  0.2049
  419MOL0     C56483   9.306   5.453   5.227 -0.4562  1.0384 -0.0646
  419MOL0     C56484   9.725   5.386   5.141  1.1321 -0.0430  0.7409
  419MOL0     C56485   9.850   5.338   5.185  1.1044  0.1462 -0.0961
  419MOL0     C56486   9.975   5.384   5.153 -0.0460 -0.4095 -0.5049
  419MOL0     C56487   9.990   5.501   5.076 -0.2503 -0.8896  0.5680
  419MOL0     O56488  10.125   5.524   5.067  0.3564  0.0784  0.0126
  419MOL0     C56489  10.170   5.640   4.993 -0.9254  0.6105  0.3105
  419MOL0     C56490  10.151   5.601   4.844 -0.5934  0.0290 -0.3168
  419MOL0     C56491  10.186   5.721   4.742  0.9595  0.9930 -0.7036
  419MOL0     C56492  10.117   5.696   4.611  0.4680  0.0501  1.5227
  419MOL0     C56493   9.991   5.777   4.603 -0.7118 -0.1682 -0.1243
  419MOL0     C56494   9.883   5.825   4.585 -0.0226 -0.3235  0.2493
  419MOL0     C56495   9.871   5.560   5.032  0.9048 -0.1649 -0.1467
  419MOL0     C56496   9.741   5.498   5.059 -0.0207 -0.9357  0.2585
  419MOL0     C56497   9.624   5.574   4.991 -0.9970 -1.4740  0.9986
  419MOL0     H56498   9.339   5.131   5.120 -2.3243 -1.3031  0.5261
  419MOL0     H56499   9.122   5.114   5.239 -2.5153  2.1810 -0.1918
  419MOL0     H56500   9.085   5.171   5.521 -1.4310 -0.0453 -1.8933
  419MOL0     H56501   9.122   5.339   5.552  2.6602 -2.7856 -0.9047
  419MOL0     H56502   8.892   5.388   5.613  0.9168  0.0075 -1.6045
  419MOL0     H56503   8.944   5.252   5.709  1.0882  2.2651  1.2428
  419MOL0     H56504   8.766   5.212   5.464 -0.3818 -0.2141 -0.4368
  419MOL0     H56505   8.725   5.216   5.636  1.1718  3.7103 -1.0577
  419MOL0     H56506   8.873   5.000   5.480 -4.2621 -1.6224  0.2994
  419MOL0     H56507   8.880   5.022   5.659  1.8599  1.1717 -0.0363
  419MOL0     H56508   8.638   5.003   5.658  0.6730  1.2373  0.0049
  419MOL0     H56509   8.636   4.985   5.496  0.3107  1.3162  0.1810
  419MOL0     H56510   8.718   4.762   5.518 -2.3881 -0.3160  0.6148
  419MOL0     H56511   8.824   4.788   5.647 -0.2297 -4.8005 -1.7947
  419MOL0     H56512   8.635   4.638   5.692 -0.4427 -0.8180  0.0678
  419MOL0     H56513   8.508   4.740   5.680  0.6814  0.8778 -3.0024
  419MOL0     H56514   8.580   4.704   5.921 -1.7435  1.0349 -1.0946
  419MOL0     H56515   8.746   4.746   5.890 -0.8193 -2.0906 -0.7342
  419MOL0     H56516   8.798   4.995   5.957 -0.8233  1.7129 -3.8523
  419MOL0     H56517   8.575   5.259   6.143 -1.6228 -3.7543 -0.4659
  419MOL0     H56518   8.722   5.169   6.196  1.3701  1.9743  0.2528
  419MOL0     H56519   8.861   5.249   6.026  1.5855  3.0250  0.1041
  419MOL0     H56520   8.728   5.318   5.931  1.1481  3.3337  0.3267
  419MOL0     H56521   8.880   5.469   6.034 -0.4377  0.5794  0.9277
  419MOL0     H56522   8.846   5.423   6.194 -0.4652  0.7256  1.4877
  419MOL0     H56523   8.723   5.600   6.170  0.7814 -2.0651  2.3392
  419MOL0     H56524   8.588   5.486   6.141  0.3028  1.3675  0.6397
  419MOL0     H56525   8.499   5.676   6.163  1.3854 -2.8042 -1.4192
  419MOL0     H56526   8.390   5.888   6.174  1.5988  0.4676  0.1709
  419MOL0     H56527   8.384   6.298   6.136  1.6918  0.5151 -2.7340
  419MOL0     H56528   8.281   6.534   6.183  1.4081 -0.4988 -0.6270
  419MOL0     H56529   7.859   6.596   6.014  1.3016 -3.6836  0.9174
  419MOL0     H56530   7.841   6.603   6.182 -0.1484  0.5257  0.5493
  419MOL0     H56531   7.926   6.827   6.215  0.4972 -0.9396  0.3015
  419MOL0     H56532   7.963   6.845   6.041 -0.7824  2.3301  1.1799
  419MOL0     H56533   7.723   6.825   6.001  3.1540 -2.3598  0.3031
  419MOL0     H56534   7.695   6.849   6.164  1.4355  3.0279  2.5994
  419MOL0     H56535   7.824   7.050   5.975  1.0714 -4.0022  0.6270
  419MOL0     H56536   7.877   7.067   6.136 -2.1738  2.6807  1.5276
  419MOL0     H56537   7.624   7.048   6.203  0.7525  1.1259  1.0624
  419MOL0     H56538   7.596   7.073   6.028 -2.0930 -4.0189  1.6967
  419MOL0     H56539   7.753   7.295   6.084 -0.9050 -1.3963 -0.0797
  419MOL0     H56540   7.591   7.306   6.134 -1.0139  1.1802  2.6664
  419MOL0     H56541   7.779   7.379   6.295 -0.5644  0.7414  0.7265
  419MOL0     H56542   7.803   7.203   6.323  1.3257  0.2741 -2.1775
  419MOL0     H56543   7.543   7.338   6.337  0.8883 -1.0097 -0.3441
  419MOL0     H56544   7.578   7.172   6.379 -1.5041 -0.2698  1.6522
  419MOL0     H56545   7.917   6.376   6.012  0.2905  2.3133  0.2862
  419MOL0     H56546   8.023   6.162   6.005 -0.0329 -0.5458  0.8053
  419MOL0     H56547   8.479   5.960   5.763  1.8563  2.4064  2.0901
  419MOL0     H56548   8.598   5.730   5.757 -0.5771  0.6948 -0.1619
  419MOL0     H56549   9.144   5.513   5.357  1.0755 -0.1281  0.1874
  419MOL0     H56550   9.342   5.555   5.215 -0.5729  0.8510 -2.6263
  419MOL0     H56551   9.849   5.254   5.254 -3.8130 -0.3366 -0.3671
  419MOL0     H56552  10.065   5.338   5.191 -0.2749  0.4069  1.0996
  419MOL0     H56553  10.271   5.668   5.022 -0.5037 -2.6269  2.4198
  419MOL0     H56554  10.107   5.725   5.023  1.3587  1.3516  3.6237
  419MOL0     H56555  10.048   5.571   4.820 -0.8369  0.9212 -0.4103
  419MOL0     H56556  10.220   5.518   4.827  3.4312  3.0739 -0.0879
  419MOL0     H56557  10.296   5.727   4.746  0.9878 -0.0398  0.9007
  419MOL0     H56558  10.156   5.818   4.783  2.0245  1.4656 -1.0007
  419MOL0     H56559  10.188   5.728   4.535 -3.2807  4.5396 -0.5910
  419MOL0     H56560  10.081   5.592   4.610 -2.1363  0.8781  0.4780
  419MOL0     H56561   9.785   5.859   4.561  0.6767  1.2338 -0.5226
  419MOL0     H56562   9.877   5.660   4.992  3.6288 -1.3726 -3.2076
  419MOL0     H56563   9.566   5.631   5.064 -0.1052 -0.1440  0.6983
  419MOL0     H56564   9.666   5.644   4.918 -1.1507 -2.3807  0.0242
  419MOL0     H56565   9.565   5.497   4.941 -0.7318 -2.1510  1.6907
  420MOL0     O56566   3.560   0.083   5.162 -0.7924 -0.1093 -0.0167
  420MOL0     C56567   3.450   0.114   5.208 -0.2615 -0.6578  0.5607
  420MOL0     O56568   3.397   0.078   5.324  0.4181 -1.0577 -0.8073
  420MOL0     C56569   3.495   0.031   5.411 -0.1690  0.8627  0.7397
  420MOL0     C56570   3.526  -0.105   5.414 -0.4938 -0.3284 -0.1311
  420MOL0     C56571   3.632  -0.153   5.498  0.1547  0.1531  0.5815
  420MOL0     C56572   3.695  -0.061   5.585 -0.7657  0.8650 -0.7242
  420MOL0     O56573   3.787  -0.100   5.687 -0.2145  0.8497 -0.2443
  420MOL0     C56574   3.854  -0.231   5.673 -0.5911  0.0808 -0.4334
  420MOL0     C56575   3.934  -0.251   5.548 -0.4080  0.4270 -0.4862
  420MOL0     C56576   4.023  -0.131   5.503  1.0153 -0.2374 -0.1844
  420MOL0     C56577   4.147  -0.096   5.595  0.2755  0.4228 -0.3350
  420MOL0     C56578   4.239  -0.002   5.510  1.0351  0.5518  0.9780
  420MOL0     C56579   4.347   0.074   5.587 -0.1040 -0.3096  0.0926
  420MOL0     C56580   4.486   0.069   5.522 -0.6818 -0.8735 -0.5593
  420MOL0     C56581   4.599   0.135   5.605 -0.9675 -0.3240  0.2879
  420MOL0     N56582   4.595   0.279   5.592  1.7952  0.3846  1.5014
  420MOL0     C56583   4.623   0.347   5.481  0.4133  0.1535  0.3670
  420MOL0     C56584   4.607   0.474   5.506  1.0251 -0.3267 -0.8389
  420MOL0     C56585   4.662   0.589   5.427  1.3698  0.5064 -0.0355
  420MOL0     C56586   4.567   0.712   5.436  0.1841 -0.4655  0.0838
  420MOL0     C56587   4.599   0.817   5.318 -0.9260  1.0166 -0.5212
  420MOL0     C56588   4.511   0.938   5.352 -0.8469  0.8838 -0.3212
  420MOL0     O56589   4.560   0.989   5.477 -0.0243  0.3739 -0.5957
  420MOL0     C56590   4.486   1.074   5.549 -0.4112 -0.1405  0.7077
  420MOL0     C56591   4.383   1.152   5.497 -0.4543 -0.0280 -1.2119
  420MOL0     C56592   4.324   1.240   5.584  0.2417  0.2412  0.2360
  420MOL0     C56593   4.351   1.249   5.726  0.0472  0.0366  0.5714
  420MOL0     C56594   4.273   1.335   5.816  0.1410 -0.1401  0.0015
  420MOL0     O56595   4.328   1.355   5.948  0.7664 -0.2962 -0.1311
  420MOL0     C56596   4.269   1.446   6.037 -0.2667 -0.0907  0.6920
  420MOL0     C56597   4.261   1.416   6.173  0.5197  0.3265 -0.2242
  420MOL0     C56598   4.182   1.507   6.260 -0.1641  0.0885  0.1321
  420MOL0     C56599   4.164   1.639   6.216  0.2116  0.1541 -0.1015
  420MOL0     O56600   4.123   1.743   6.307 -0.0723  0.1467 -1.0737
  420MOL0     C56601   4.185   1.863   6.265 -0.3362 -0.0342  0.7804
  420MOL0     C56602   4.185   1.965   6.376  0.1790  0.3887 -0.5742
  420MOL0     C56603   4.114   2.102   6.362  0.1235 -0.1503 -0.0037
  420MOL0     C56604   3.959   2.106   6.331 -0.6505 -0.1214 -0.3617
  420MOL0     C56605   3.904   2.250   6.348 -0.2376 -0.1060 -0.3234
  420MOL0     C56606   3.971   2.351   6.253 -0.3877 -0.5125  0.5351
  420MOL0     C56607   3.949   2.497   6.305 -0.5878  0.0699  0.0694
  420MOL0     C56608   3.807   2.539   6.332  0.1262  0.0747 -0.4741
  420MOL0    Cl56609   3.794   2.713   6.362 -0.4645 -0.0720  0.3459
  420MOL0     C56610   4.199   1.669   6.081  0.9290 -0.5771 -0.1535
  420MOL0     C56611   4.243   1.571   5.992  0.2233 -0.4571 -0.3761
  420MOL0     O56612   4.164   1.389   5.781 -0.8591  0.2710  0.3231
  420MOL0     C56613   4.447   1.155   5.778 -0.3215 -0.3635  0.3903
  420MOL0     C56614   4.523   1.076   5.684  0.1748  0.2327 -0.0450
  420MOL0     N56615   4.541   0.481   5.636 -0.5497  0.1924 -0.4749
  420MOL0     N56616   4.530   0.361   5.683  0.0698  0.0081 -0.3288
  420MOL0     C56617   3.663   0.075   5.573 -1.8238  0.5324  0.6664
  420MOL0     C56618   3.576   0.115   5.478  0.0417 -0.2647  0.5728
  420MOL0     C56619   3.369   0.216   5.123 -0.7969  0.8503 -0.6137
  420MOL0     C56620   3.263   0.279   5.195  0.8491 -0.7226 -0.9507
  420MOL0     C56621   3.196   0.374   5.127  0.5746 -0.9228 -0.3406
  420MOL0     C56622   3.227   0.420   4.999  0.7237  0.0633 -0.9472
  420MOL0     O56623   3.163   0.529   4.954  0.5470 -0.2700 -0.8163
  420MOL0     C56624   3.025   0.514   4.926  0.2364 -0.6370  0.0061
  420MOL0     C56625   2.973   0.613   4.816 -0.2270  0.2503 -0.4524
  420MOL0     C56626   2.826   0.586   4.791  0.1590 -0.0521 -0.7767
  420MOL0     C56627   2.763   0.666   4.675  1.1246  0.0962 -0.6859
  420MOL0     C56628   2.619   0.668   4.696  0.2885  0.1734 -0.3356
  420MOL0     C56629   2.496   0.695   4.698 -0.7471 -0.3850 -1.1890
  420MOL0     C56630   3.326   0.352   4.923 -0.4279  0.0065 -0.5566
  420MOL0     C56631   3.396   0.247   4.983  0.6099  0.8540 -1.3449
  420MOL0     C56632   3.503   0.176   4.904  0.1189  0.1327 -0.1326
  420MOL0     H56633   3.471  -0.179   5.355 -1.0280 -0.0591  0.0210
  420MOL0     H56634   3.646  -0.260   5.490  0.3345  0.2343 -0.3098
  420MOL0     H56635   3.914  -0.236   5.764  0.6227  0.7592 -1.1603
  420MOL0     H56636   3.780  -0.311   5.679 -0.2295 -0.1548  4.0320
  420MOL0     H56637   3.868  -0.277   5.465  0.0177  2.2023 -1.4198
  420MOL0     H56638   3.987  -0.347   5.558 -1.3152  0.1111  1.9683
  420MOL0     H56639   3.962  -0.041   5.500  0.6942 -0.4849 -1.1640
  420MOL0     H56640   4.058  -0.140   5.400  0.0142  1.3247 -0.6808
  420MOL0     H56641   4.113  -0.039   5.682 -3.3340  1.2470 -2.0870
  420MOL0     H56642   4.205  -0.185   5.620  0.0919  0.5869  0.6936
  420MOL0     H56643   4.289  -0.063   5.433 -0.9460  1.0760 -0.7961
  420MOL0     H56644   4.176   0.061   5.447  1.2031  1.2169  1.4620
  420MOL0     H56645   4.303   0.175   5.592 -2.7144 -1.3870  0.9033
  420MOL0     H56646   4.358   0.025   5.684  1.5688 -2.2053 -0.9849
  420MOL0     H56647   4.486   0.109   5.420  3.7297 -1.7729 -1.0890
  420MOL0     H56648   4.511  -0.037   5.511 -0.1834 -1.1273  2.2626
  420MOL0     H56649   4.591   0.119   5.713 -1.0000  1.6848  0.6163
  420MOL0     H56650   4.691   0.090   5.568 -0.3772  2.3351 -1.7810
  420MOL0     H56651   4.681   0.307   5.398  2.6014  1.4269  1.2087
  420MOL0     H56652   4.764   0.602   5.463  0.7876 -1.9180  2.8499
  420MOL0     H56653   4.660   0.566   5.320 -2.0648 -0.5486  0.1326
  420MOL0     H56654   4.464   0.678   5.423 -0.7560  1.1744  2.4726
  420MOL0     H56655   4.564   0.751   5.538 -3.7207 -2.6788  1.0256
  420MOL0     H56656   4.568   0.784   5.219  0.0399  0.0719 -0.5237
  420MOL0     H56657   4.706   0.839   5.309 -1.0503  1.0289 -2.3570
  420MOL0     H56658   4.404   0.926   5.370 -0.8786 -0.2458 -1.1334
  420MOL0     H56659   4.529   1.019   5.281 -1.2779  1.5617  0.3268
  420MOL0     H56660   4.333   1.140   5.402 -5.2809  3.3771  0.4816
  420MOL0     H56661   4.242   1.301   5.547  0.8233 -0.9638 -3.4210
  420MOL0     H56662   4.289   1.320   6.216  1.5498  1.3279  1.4794
  420MOL0     H56663   4.169   1.478   6.363 -0.1067  1.1906  0.4604
  420MOL0     H56664   4.290   1.841   6.241 -0.5913  1.0100 -1.6678
  420MOL0     H56665   4.122   1.906   6.186  0.5144 -0.0983  0.0409
  420MOL0     H56666   4.141   1.912   6.461  0.4920  2.0500  0.6750
  420MOL0     H56667   4.287   1.976   6.416  0.8847  2.0854 -2.6868
  420MOL0     H56668   4.146   2.160   6.449  1.9127 -0.4221 -0.4453
  420MOL0     H56669   4.163   2.139   6.272 -3.2878 -1.9838 -2.8903
  420MOL0     H56670   3.917   2.027   6.395 -1.8757 -1.7320 -2.9691
  420MOL0     H56671   3.943   2.077   6.227  1.4964 -1.4811 -0.3773
  420MOL0     H56672   3.915   2.273   6.454 -1.1450 -3.4182  0.5975
  420MOL0     H56673   3.795   2.251   6.344 -0.3313  2.8177  0.5812
  420MOL0     H56674   4.079   2.335   6.238 -0.7122 -0.5152 -2.5230
  420MOL0     H56675   3.931   2.343   6.151 -0.0873  1.6102  0.1944
  420MOL0     H56676   3.995   2.565   6.233  1.4667 -0.3840  0.8830
  420MOL0     H56677   4.008   2.499   6.397 -0.7150 -1.4591  0.2086
  420MOL0     H56678   3.742   2.524   6.246  1.0101  0.2828 -1.1998
  420MOL0     H56679   3.761   2.481   6.412 -0.2571 -2.0095 -2.1294
  420MOL0     H56680   4.182   1.769   6.044 -1.1920  0.2730  2.6931
  420MOL0     H56681   4.251   1.593   5.886 -1.5436  2.3024 -0.0543
  420MOL0     H56682   4.465   1.132   5.883 -1.3586 -1.4868  0.3505
  420MOL0     H56683   4.594   1.008   5.729  0.2447  2.3719  3.5206
  420MOL0     H56684   3.723   0.137   5.639  0.5930 -2.3223  1.3713
  420MOL0     H56685   3.585   0.218   5.445  2.2878 -0.7444 -0.5044
  420MOL0     H56686   3.249   0.265   5.302  3.1564  1.8015 -0.1859
  420MOL0     H56687   3.130   0.444   5.178  1.2009 -2.1607  2.3581
  420MOL0     H56688   2.970   0.524   5.020  0.2575 -0.8664  0.0430
  420MOL0     H56689   3.002   0.415   4.887 -0.2126 -1.5920  2.5309
  420MOL0     H56690   3.032   0.607   4.724 -1.2498  3.5648 -1.4653
  420MOL0     H56691   2.988   0.719   4.836 -3.2784  1.1709 -2.3116
  420MOL0     H56692   2.774   0.600   4.886  0.8842 -0.7163 -0.2710
  420MOL0     H56693   2.802   0.482   4.769 -0.0921  0.5139 -3.5426
  420MOL0     H56694   2.808   0.764   4.655  1.1117  0.1635 -0.3995
  420MOL0     H56695   2.794   0.619   4.582  0.1798 -0.3578 -0.7833
  420MOL0     H56696   2.391   0.704   4.716 -1.5744 -5.6621 -1.9563
  420MOL0     H56697   3.350   0.395   4.826  4.1615 -1.0507 -0.1559
  420MOL0     H56698   3.466   0.073   4.899 -1.5006  0.6727 -0.1225
  420MOL0     H56699   3.514   0.222   4.805 -1.9314  0.3313 -0.3193
  420MOL0     H56700   3.597   0.178   4.959  1.0484  2.8844 -1.6083
  421MOL0     O56701   8.795   1.433   9.825  0.4473 -0.2742 -0.2916
  421MOL0     C56702   8.809   1.330   9.764  0.2745  0.0836  1.0531
  421MOL0     O56703   8.822   1.323   9.624 -0.4569 -0.1036 -0.2393
  421MOL0     C56704   8.742   1.412   9.558 -0.3368  0.7267  0.2077
  421MOL0     C56705   8.790   1.501   9.461  0.3889 -0.0695 -0.3127
  421MOL0     C56706   8.711   1.593   9.390  0.4319 -0.1513  0.5223
  421MOL0     C56707   8.570   1.583   9.412  0.2421 -0.7911  0.2507
  421MOL0     O56708   8.474   1.648   9.337 -0.0844  0.1057 -0.6799
  421MOL0     C56709   8.518   1.744   9.244  0.3988 -0.7957  0.2403
  421MOL0     C56710   8.402   1.813   9.167  1.0336  0.1752  0.4611
  421MOL0     C56711   8.292   1.882   9.255  0.2609  0.1422  0.2114
  421MOL0     C56712   8.179   1.929   9.149 -0.6857  1.2801 -0.0642
  421MOL0     C56713   8.050   1.961   9.230 -0.7112  0.5698 -0.6262
  421MOL0     C56714   7.937   2.025   9.146 -1.1950  0.0302 -0.8651
  421MOL0     C56715   7.894   1.929   9.029 -0.1050  0.3198 -0.2965
  421MOL0     C56716   7.775   1.988   8.956  0.7583 -0.6040  0.4863
  421MOL0     N56717   7.804   2.109   8.871 -1.7363  0.6078  0.5068
  421MOL0     C56718   7.912   2.126   8.791 -0.5801 -0.8378 -0.8303
  421MOL0     C56719   7.915   2.257   8.757 -0.5847  0.1202 -0.2625
  421MOL0     C56720   8.023   2.334   8.687 -0.4291  0.4943 -0.5218
  421MOL0     C56721   7.975   2.378   8.549 -0.2959 -0.1331 -0.3455
  421MOL0     C56722   7.933   2.274   8.456  0.2935 -0.3470 -0.6678
  421MOL0     C56723   8.037   2.189   8.405 -0.5416  1.4361  0.5515
  421MOL0     O56724   8.138   2.265   8.335 -0.8644 -0.5779  0.6886
  421MOL0     C56725   8.097   2.286   8.205 -0.5464  0.5515 -0.9601
  421MOL0     C56726   8.071   2.176   8.119  0.0151 -0.0282 -0.2380
  421MOL0     C56727   8.012   2.200   7.989  0.1249 -0.9514 -1.0488
  421MOL0     C56728   7.994   2.331   7.949 -0.2784 -0.1072 -0.0733
  421MOL0     C56729   7.928   2.361   7.823  0.4133  0.2320 -0.1300
  421MOL0     O56730   7.818   2.449   7.831 -0.1999 -0.1487  0.6538
  421MOL0     C56731   7.757   2.489   7.720 -0.6500 -0.7190  0.8717
  421MOL0     C56732   7.747   2.627   7.717 -0.3694 -0.2056 -0.3403
  421MOL0     C56733   7.677   2.682   7.605 -0.2114  0.0402 -0.0495
  421MOL0     C56734   7.612   2.609   7.515  0.5848  0.5382 -0.9546
  421MOL0     O56735   7.541   2.680   7.427  1.0725 -0.0672  0.5346
  421MOL0     C56736   7.575   2.638   7.297  0.6231  0.0952 -0.6309
  421MOL0     C56737   7.509   2.721   7.194 -0.2936  1.2824  0.0135
  421MOL0     C56738   7.355   2.732   7.213  0.4604  0.2843 -0.9649
  421MOL0     C56739   7.295   2.828   7.119 -0.1060 -0.2907  0.8005
  421MOL0     C56740   7.148   2.878   7.137  0.1524  0.8125  0.3037
  421MOL0     C56741   7.046   2.772   7.163  0.1966  0.2422  0.9799
  421MOL0     C56742   6.908   2.829   7.205 -0.6110  0.1997 -0.5411
  421MOL0     C56743   6.834   2.910   7.106 -0.1427  0.2944 -0.3527
  421MOL0    Cl56744   6.679   2.973   7.170 -0.0898 -0.0971  0.3090
  421MOL0     C56745   7.618   2.469   7.515 -0.4295  0.5761 -0.4348
  421MOL0     C56746   7.695   2.411   7.621 -0.6743  0.2990  0.0981
  421MOL0     O56747   7.967   2.299   7.723 -0.9736 -0.1761 -0.4305
  421MOL0     C56748   8.033   2.438   8.034  0.5905  0.3487 -1.0415
  421MOL0     C56749   8.088   2.416   8.158  0.1690 -0.2700 -0.4654
  421MOL0     N56750   7.815   2.319   8.816 -0.0210 -0.0967 -0.0945
  421MOL0     N56751   7.731   2.227   8.868 -0.3989  0.2850 -0.1078
  421MOL0     C56752   8.522   1.504   9.513  0.0698 -0.3032  0.0554
  421MOL0     C56753   8.604   1.416   9.586 -0.7576  0.5082  0.0706
  421MOL0     C56754   8.851   1.225   9.841  0.1677 -0.5806 -0.0068
  421MOL0     C56755   8.961   1.147   9.789  0.6554 -0.0160 -0.3250
  421MOL0     C56756   8.994   1.035   9.853  0.3969  0.3424  0.8394
  421MOL0     C56757   8.949   1.012   9.978 -0.4964 -0.1716  0.0229
  421MOL0     O56758   9.006   0.916  10.057  0.6863  0.4044 -0.6850
  421MOL0     C56759   9.148   0.922  10.078  0.1697  0.8736  0.5857
  421MOL0     C56760   9.193   1.049  10.148  0.2593 -0.9898 -0.4047
  421MOL0     C56761   9.243   1.158  10.052  0.7010  0.4126  0.7554
  421MOL0     C56762   9.328   1.269  10.105 -0.0414  0.4913 -0.0873
  421MOL0     C56763   9.248   1.360  10.179  0.0048 -0.2129 -0.1850
  421MOL0     C56764   9.191   1.446  10.235 -0.1165 -0.1953  0.8382
  421MOL0     C56765   8.848   1.083  10.025  0.2613 -0.9035  0.5403
  421MOL0     C56766   8.789   1.197   9.967 -0.0059  0.7928 -0.3248
  421MOL0     C56767   8.671   1.260  10.014 -0.2134 -0.3754 -0.0376
  421MOL0     H56768   8.893   1.488   9.430 -0.1139 -0.5017 -1.9128
  421MOL0     H56769   8.740   1.653   9.305  0.9538  2.5981  2.4949
  421MOL0     H56770   8.571   1.820   9.303 -0.5896  0.9790 -1.0697
  421MOL0     H56771   8.579   1.703   9.163 -0.1494  0.6473 -0.9561
  421MOL0     H56772   8.363   1.731   9.107 -0.6246  0.5081  1.0034
  421MOL0     H56773   8.433   1.893   9.100  0.0256  1.9290  1.9575
  421MOL0     H56774   8.318   1.965   9.321 -0.1197 -0.4981  1.1948
  421MOL0     H56775   8.254   1.796   9.311  0.2982  1.0659  1.6998
  421MOL0     H56776   8.220   2.011   9.090  1.9821 -0.7948 -1.2961
  421MOL0     H56777   8.149   1.843   9.088  1.5363 -0.3183  0.9680
  421MOL0     H56778   8.007   1.870   9.274 -2.7919  0.0494 -3.4810
  421MOL0     H56779   8.078   2.030   9.310  0.9136 -0.6150 -0.1017
  421MOL0     H56780   7.854   2.046   9.214 -1.3791  3.1004 -1.8846
  421MOL0     H56781   7.961   2.124   9.107 -3.9215  2.1638  2.2492
  421MOL0     H56782   7.867   1.828   9.061  0.5100 -0.8082 -3.0010
  421MOL0     H56783   7.972   1.906   8.956 -1.9177  1.4460 -2.7198
  421MOL0     H56784   7.744   1.902   8.897 -1.7908  0.0358  0.8029
  421MOL0     H56785   7.696   2.016   9.026 -0.3616  1.7455 -1.5813
  421MOL0     H56786   7.995   2.061   8.763 -0.0461  0.7428 -3.2327
  421MOL0     H56787   8.041   2.420   8.751  2.4415 -1.0199  0.9206
  421MOL0     H56788   8.119   2.282   8.683 -0.4463  0.4949 -1.0127
  421MOL0     H56789   7.886   2.438   8.570  1.3878  2.5763 -0.4314
  421MOL0     H56790   8.051   2.438   8.498 -2.0835  1.6471 -1.0581
  421MOL0     H56791   7.889   2.312   8.363  4.7936  2.9227 -1.8363
  421MOL0     H56792   7.853   2.219   8.506  1.1083 -0.1341  0.9219
  421MOL0     H56793   7.981   2.120   8.342 -2.2185  1.4917  1.8910
  421MOL0     H56794   8.091   2.130   8.480  0.4880 -1.0307 -1.9701
  421MOL0     H56795   8.090   2.075   8.153  0.1054  0.1979  0.4132
  421MOL0     H56796   7.959   2.118   7.943  0.1758 -1.8513  0.4450
  421MOL0     H56797   7.792   2.685   7.797  1.3198  0.4144 -1.6735
  421MOL0     H56798   7.665   2.789   7.612  0.5871  0.2536 -1.5403
  421MOL0     H56799   7.683   2.647   7.281  1.4930 -3.5730  1.7954
  421MOL0     H56800   7.534   2.538   7.278 -0.2009  0.8242 -2.9495
  421MOL0     H56801   7.551   2.822   7.194 -0.4756  1.4385 -2.9210
  421MOL0     H56802   7.543   2.684   7.097  1.2942  0.9799  0.6624
  421MOL0     H56803   7.316   2.633   7.190 -1.5001 -0.6585  4.8991
  421MOL0     H56804   7.332   2.763   7.315  1.8291  1.1193 -0.8807
  421MOL0     H56805   7.297   2.763   7.031  1.2055  0.6193  0.1300
  421MOL0     H56806   7.359   2.913   7.093 -0.5571 -0.2196 -0.1130
  421MOL0     H56807   7.128   2.935   7.046 -0.0906 -2.1229 -1.6371
  421MOL0     H56808   7.138   2.938   7.228 -0.6607  1.3656 -0.1384
  421MOL0     H56809   7.022   2.709   7.077  1.7547  0.2103  0.5340
  421MOL0     H56810   7.081   2.704   7.241 -4.0431 -0.5384  2.4536
  421MOL0     H56811   6.911   2.882   7.300 -3.4503 -1.6202  0.6900
  421MOL0     H56812   6.847   2.740   7.223 -0.3135 -0.0432 -0.7054
  421MOL0     H56813   6.898   2.989   7.065 -1.8729  0.3156 -3.3402
  421MOL0     H56814   6.818   2.854   7.014  3.9040  2.8554 -2.9466
  421MOL0     H56815   7.560   2.412   7.443 -1.5342 -1.1443  1.7093
  421MOL0     H56816   7.710   2.304   7.628  0.0255  0.3052 -1.0861
  421MOL0     H56817   8.035   2.541   7.997 -0.9550 -0.4116 -3.5100
  421MOL0     H56818   8.117   2.493   8.230 -3.6613  2.2045 -1.2476
  421MOL0     H56819   8.415   1.507   9.531 -0.2571  0.0157 -1.7492
  421MOL0     H56820   8.559   1.339   9.648 -3.8061  2.2348  0.1995
  421MOL0     H56821   9.008   1.173   9.694  0.6461  1.6698  0.0964
  421MOL0     H56822   9.053   0.958   9.804  1.3602  2.6001 -1.8189
  421MOL0     H56823   9.204   0.911   9.985 -2.4780  1.7615 -1.2183
  421MOL0     H56824   9.167   0.833  10.139 -1.3308 -0.1757 -0.3973
  421MOL0     H56825   9.285   1.025  10.202 -0.3901  0.5133  1.4636
  421MOL0     H56826   9.130   1.097  10.223  1.6813 -0.3810  0.4432
  421MOL0     H56827   9.159   1.203   9.997  0.4011 -1.1298 -0.1009
  421MOL0     H56828   9.302   1.123   9.967 -1.0699  1.2946 -0.9389
  421MOL0     H56829   9.415   1.235  10.162 -0.6470  0.5845  0.9236
  421MOL0     H56830   9.360   1.324  10.016 -0.0980  1.9654  0.7584
  421MOL0     H56831   9.139   1.520  10.293  1.0330 -0.1502  1.8474
  421MOL0     H56832   8.794   1.056  10.115 -2.9330 -0.9578 -1.2300
  421MOL0     H56833   8.630   1.206  10.099 -1.6424  1.4468  0.4949
  421MOL0     H56834   8.699   1.358  10.052  1.4581  0.4314 -2.9747
  421MOL0     H56835   8.588   1.261   9.942  1.1725  1.5533 -1.7390
  422MOL0     O56836   3.653   8.947   9.730  0.3529  0.2655  1.3648
  422MOL0     C56837   3.554   8.879   9.750  0.5791 -0.2844 -0.6863
  422MOL0     O56838   3.508   8.829   9.876 -0.1369 -0.5030 -0.2393
  422MOL0     C56839   3.574   8.867   9.998 -0.5693  0.9942 -0.0571
  422MOL0     C56840   3.702   8.829  10.023  0.6852 -0.6365  0.0913
  422MOL0     C56841   3.786   8.888  10.109  0.2899 -0.1188 -0.0427
  422MOL0     C56842   3.734   8.992  10.191  0.2487  0.5284 -0.3533
  422MOL0     O56843   3.819   9.066  10.280  0.1753  0.4457 -0.1701
  422MOL0     C56844   3.959   9.062  10.268  0.0665 -0.4513  0.2150
  422MOL0     C56845   3.989   9.139  10.140 -0.2844  0.3402 -0.0792
  422MOL0     C56846   4.126   9.200  10.137  0.6748  0.7000 -1.0514
  422MOL0     C56847   4.150   9.297  10.024  0.1696  0.0945 -0.0938
  422MOL0     C56848   4.281   9.377  10.035 -0.6546  0.1034  0.0243
  422MOL0     C56849   4.250   9.485  10.150  0.1715  0.3601  0.3652
  422MOL0     C56850   4.359   9.595  10.144 -0.0429  0.8873  0.5665
  422MOL0     C56851   4.504   9.552  10.191  0.2756  0.3176  0.9719
  422MOL0     N56852   4.595   9.642  10.128  0.2033  0.6755  0.3831
  422MOL0     C56853   4.633   9.769  10.174 -0.4325 -0.2788 -0.7464
  422MOL0     C56854   4.701   9.824  10.066  0.1171  0.5233  0.7237
  422MOL0     C56855   4.762   9.957  10.066 -0.7419  0.5544 -0.0084
  422MOL0     C56856   4.704  10.061   9.971  0.3032 -0.2668 -0.6385
  422MOL0     C56857   4.551  10.091   9.979 -0.1988 -0.7067  0.8915
  422MOL0     C56858   4.467   9.985   9.910 -0.7202  0.3044 -0.0441
  422MOL0     O56859   4.354  10.064   9.881  0.4831 -0.3430  0.4424
  422MOL0     C56860   4.248   9.997   9.816  1.4737 -0.4410  0.7234
  422MOL0     C56861   4.243   9.861   9.790  0.3861 -0.2400  0.4763
  422MOL0     C56862   4.133   9.799   9.728 -0.8084  0.3273 -0.8504
  422MOL0     C56863   4.029   9.881   9.673  0.5811  0.8669  0.8996
  422MOL0     C56864   3.928   9.822   9.595 -0.1223  0.0227  0.4455
  422MOL0     O56865   3.889   9.683   9.613  0.0159  0.3822 -0.3554
  422MOL0     C56866   3.809   9.627   9.519 -0.5762 -0.0508 -0.2576
  422MOL0     C56867   3.705   9.535   9.552 -0.5404  0.3144 -0.2233
  422MOL0     C56868   3.640   9.465   9.450 -0.5377  1.1738  1.4035
  422MOL0     C56869   3.686   9.477   9.311 -0.7064 -0.4637 -0.1592
  422MOL0     O56870   3.629   9.418   9.200  0.1888 -0.1129  0.6827
  422MOL0     C56871   3.523   9.329   9.220  0.1364 -0.1989 -0.9446
  422MOL0     C56872   3.471   9.324   9.075  0.2294  0.5589  0.2968
  422MOL0     C56873   3.357   9.213   9.066  0.4430 -0.0485 -0.3345
  422MOL0     C56874   3.303   9.183   8.921  0.0228 -0.2812 -0.3269
  422MOL0     C56875   3.162   9.116   8.924 -0.6478  0.3855 -0.4047
  422MOL0     C56876   3.164   8.977   8.862 -1.3835 -0.7814 -0.1036
  422MOL0     C56877   3.240   8.873   8.947  0.3680 -0.4397  0.7363
  422MOL0     C56878   3.270   8.739   8.880  0.6615  0.3851  0.2998
  422MOL0    Cl56879   3.389   8.776   8.750 -0.1517 -0.2374 -0.1297
  422MOL0     C56880   3.790   9.565   9.284  0.6794 -0.5390 -0.3270
  422MOL0     C56881   3.857   9.637   9.382  0.9843  0.7148  0.5011
  422MOL0     O56882   3.872   9.905   9.524 -0.4777  0.5130 -0.2057
  422MOL0     C56883   4.030  10.009   9.707 -0.2781 -0.5474  0.1161
  422MOL0     C56884   4.134  10.066   9.779  0.5011 -0.0844 -0.3910
  422MOL0     N56885   4.697   9.734   9.956  0.0026 -0.5146 -0.9903
  422MOL0     N56886   4.637   9.630  10.001  1.0014  0.1388 -0.5596
  422MOL0     C56887   3.597   9.031  10.161 -0.6350 -0.4893 -0.7304
  422MOL0     C56888   3.519   8.974  10.065  0.8709  0.4010 -0.7936
  422MOL0     C56889   3.473   8.822   9.632  0.0636  0.5835  0.2932
  422MOL0     C56890   3.360   8.744   9.666  0.9553 -0.2997  0.2658
  422MOL0     C56891   3.284   8.687   9.555 -0.5497 -0.4938 -0.8494
  422MOL0     C56892   3.317   8.713   9.418 -0.1922 -0.3302  0.0716
  422MOL0     O56893   3.244   8.675   9.306  0.8699 -1.3222 -0.6910
  422MOL0     C56894   3.145   8.579   9.332  0.4950  0.1682  0.2869
  422MOL0     C56895   3.064   8.547   9.194 -0.5283 -0.0618 -0.3448
  422MOL0     C56896   2.948   8.447   9.233 -1.5265  0.4657  0.5220
  422MOL0     C56897   2.868   8.421   9.111  0.1688 -1.0842  0.8146
  422MOL0     C56898   2.771   8.317   9.136  0.0756 -0.5376 -0.4911
  422MOL0     C56899   2.684   8.240   9.166  0.5857 -0.1138  0.6573
  422MOL0     C56900   3.439   8.772   9.393  0.3253 -0.4250 -0.4211
  422MOL0     C56901   3.522   8.831   9.490  0.7099  0.0038 -0.7205
  422MOL0     C56902   3.647   8.895   9.445 -0.1675 -0.4199 -0.3738
  422MOL0     H56903   3.754   8.767   9.951  0.3903 -0.1338 -0.5655
  422MOL0     H56904   3.887   8.849  10.113  0.2955 -0.0293  1.1674
  422MOL0     H56905   4.003   9.122  10.348 -0.4952  1.3110 -0.7490
  422MOL0     H56906   3.996   8.959  10.267 -1.4133 -1.0162 -1.2865
  422MOL0     H56907   3.917   9.222  10.136  1.8095  2.1827 -1.2867
  422MOL0     H56908   3.982   9.072  10.054 -1.8435 -0.8749  0.9184
  422MOL0     H56909   4.200   9.119  10.143 -0.6473 -0.4890  0.2732
  422MOL0     H56910   4.132   9.250  10.234 -0.8596  0.6399 -0.9005
  422MOL0     H56911   4.151   9.239   9.931 -0.8345  0.8757 -0.6090
  422MOL0     H56912   4.056   9.354  10.024 -0.7726 -1.3585  1.8178
  422MOL0     H56913   4.375   9.329  10.066  0.2236  2.5094  1.3407
  422MOL0     H56914   4.296   9.429   9.940  3.5708  1.4111  1.1742
  422MOL0     H56915   4.158   9.538  10.125  0.3994 -0.1354 -1.6945
  422MOL0     H56916   4.246   9.430  10.245 -0.3622 -2.2215 -1.0630
  422MOL0     H56917   4.326   9.683  10.199 -1.8864 -1.1300  2.9663
  422MOL0     H56918   4.356   9.628  10.040 -1.6157 -1.8851 -0.3753
  422MOL0     H56919   4.504   9.569  10.299 -1.3267  0.7633  0.9205
  422MOL0     H56920   4.522   9.452  10.151 -2.1071  0.9300 -2.0543
  422MOL0     H56921   4.607   9.804  10.274 -2.4209 -4.2382  0.3192
  422MOL0     H56922   4.772   9.994  10.169 -3.4000  0.8503  0.1964
  422MOL0     H56923   4.863   9.945  10.024 -1.5677  0.1158 -1.9788
  422MOL0     H56924   4.740  10.162   9.992 -3.6384  0.9370  1.3004
  422MOL0     H56925   4.734  10.025   9.872 -3.1589  0.5366 -2.1368
  422MOL0     H56926   4.537  10.186   9.927  1.2749 -0.9450 -0.0012
  422MOL0     H56927   4.538  10.115  10.085 -0.7042  2.9022  0.1098
  422MOL0     H56928   4.438   9.898   9.969 -4.2704  2.0417  1.0279
  422MOL0     H56929   4.508   9.960   9.811 -1.7008 -1.2726 -0.0948
  422MOL0     H56930   4.312   9.797   9.843  1.6281  1.1511  0.6266
  422MOL0     H56931   4.129   9.690   9.727 -1.1022  0.3392 -1.1491
  422MOL0     H56932   3.673   9.532   9.655 -1.3824 -1.6021 -0.5032
  422MOL0     H56933   3.565   9.387   9.456 -1.1610  1.5749 -0.4599
  422MOL0     H56934   3.557   9.232   9.257 -1.1310 -0.0426  0.7626
  422MOL0     H56935   3.449   9.365   9.292 -0.4937 -5.6115  1.5505
  422MOL0     H56936   3.429   9.417   9.037  0.0714  0.5552  0.4598
  422MOL0     H56937   3.545   9.306   8.996 -1.1120 -0.9846 -0.6646
  422MOL0     H56938   3.380   9.118   9.116 -0.8724 -0.4653 -0.4679
  422MOL0     H56939   3.272   9.261   9.116 -1.9070 -1.6967 -2.4898
  422MOL0     H56940   3.376   9.122   8.868 -1.0396 -1.7345 -0.1765
  422MOL0     H56941   3.295   9.277   8.865 -1.4093 -0.9291 -1.2691
  422MOL0     H56942   3.097   9.176   8.859 -2.5384  0.4314  1.4382
  422MOL0     H56943   3.119   9.115   9.024 -0.2706 -2.6335 -0.1849
  422MOL0     H56944   3.065   8.931   8.855 -0.7188 -2.1953 -0.8815
  422MOL0     H56945   3.194   8.997   8.758 -4.5009  3.3089 -0.4411
  422MOL0     H56946   3.183   8.860   9.040 -0.5364  3.5192  0.9089
  422MOL0     H56947   3.338   8.917   8.965  2.5441 -4.8998  1.1995
  422MOL0     H56948   3.302   8.668   8.956 -1.1183 -0.6330  0.1354
  422MOL0     H56949   3.180   8.690   8.842  0.1471  0.2314  1.6679
  422MOL0     H56950   3.815   9.579   9.180 -0.3263 -1.2459 -0.6873
  422MOL0     H56951   3.939   9.699   9.345 -1.0851  1.8255 -2.6119
  422MOL0     H56952   3.959  10.089   9.688  4.7279  4.0105 -2.2184
  422MOL0     H56953   4.140  10.173   9.797 -3.2846  0.7205 -2.6681
  422MOL0     H56954   3.558   9.122  10.204 -2.4557 -2.2101  1.5350
  422MOL0     H56955   3.422   9.009  10.034  0.4342 -0.2522 -0.1927
  422MOL0     H56956   3.332   8.725   9.769 -0.4655  0.0729 -0.0208
  422MOL0     H56957   3.199   8.622   9.575 -0.5932  0.2976  1.9311
  422MOL0     H56958   3.075   8.617   9.406  1.8470  3.3091  0.1056
  422MOL0     H56959   3.187   8.488   9.376  0.8690  0.8575  1.3953
  422MOL0     H56960   3.135   8.509   9.121 -2.2362 -0.5965 -1.7791
  422MOL0     H56961   3.023   8.642   9.158 -0.6507 -0.3895 -1.0655
  422MOL0     H56962   2.897   8.491   9.319  1.0699  2.1282  1.3273
  422MOL0     H56963   2.996   8.351   9.252 -0.0787  1.0299 -0.1736
  422MOL0     H56964   2.815   8.516   9.101  2.3264  0.2718  1.7423
  422MOL0     H56965   2.931   8.404   9.023  0.7664  1.4579  0.6878
  422MOL0     H56966   2.610   8.163   9.172 -0.4979  0.5577 -2.1960
  422MOL0     H56967   3.461   8.766   9.287 -3.6295  0.5768 -1.4721
  422MOL0     H56968   3.628   9.003   9.446 -2.6723 -0.7747 -1.0640
  422MOL0     H56969   3.726   8.866   9.515 -0.5806  2.1963  1.3293
  422MOL0     H56970   3.680   8.874   9.343 -1.9595  2.3705 -1.6679
  423MOL0     O56971   8.859   6.525   9.400 -0.0183 -0.0882  0.8648
  423MOL0     C56972   8.839   6.536   9.277  0.4322  0.0641  0.1620
  423MOL0     O56973   8.927   6.517   9.170  0.6404  0.4841 -0.9455
  423MOL0     C56974   9.022   6.423   9.208  0.4804 -0.1390  1.1578
  423MOL0     C56975   9.137   6.471   9.268  0.1494 -0.9123 -0.8902
  423MOL0     C56976   9.238   6.388   9.314 -0.1750 -0.6640 -0.8423
  423MOL0     C56977   9.227   6.253   9.305  0.3296 -0.9789  0.3084
  423MOL0     O56978   9.331   6.171   9.336 -0.0095 -0.1156  0.7091
  423MOL0     C56979   9.300   6.074   9.434 -0.2190  0.2197 -0.4663
  423MOL0     C56980   9.406   6.041   9.530  0.3963  0.9049 -0.4071
  423MOL0     C56981   9.369   5.935   9.632 -0.5376  0.6696 -1.0742
  423MOL0     C56982   9.445   5.963   9.767  0.2738 -0.1867  0.6321
  423MOL0     C56983   9.405   5.861   9.868 -0.2870  0.2749  0.1239
  423MOL0     C56984   9.485   5.883  10.002  0.5648  0.1428  0.2434
  423MOL0     C56985   9.624   5.847   9.977 -0.1124  0.1879 -0.0718
  423MOL0     C56986   9.701   5.844  10.116 -0.7223  0.3016 -0.8137
  423MOL0     N56987   9.843   5.859  10.095 -0.5421 -0.1086  0.2811
  423MOL0     C56988   9.936   5.871  10.198  0.7549 -0.4348  1.5119
  423MOL0     C56989  10.059   5.824  10.152  0.4293  0.5959 -0.8670
  423MOL0     C56990  10.182   5.796  10.234  0.1380  0.6507  1.1960
  423MOL0     C56991  10.211   5.915  10.319  0.1405  1.1097 -0.7273
  423MOL0     C56992  10.365   5.921  10.353 -0.3657  0.2273 -0.2523
  423MOL0     C56993  10.397   6.066  10.404 -0.6860 -1.2885 -0.7178
  423MOL0     O56994  10.330   6.087  10.532 -0.1503  0.5871 -0.8729
  423MOL0     C56995  10.243   6.192  10.531  0.4979 -0.9446 -0.1370
  423MOL0     C56996  10.110   6.164  10.518 -0.8447  0.5952  0.5118
  423MOL0     C56997  10.013   6.260  10.538 -0.7897 -0.2752  1.1253
  423MOL0     C56998  10.052   6.393  10.567 -0.0405  0.0039 -1.0820
  423MOL0     C56999   9.950   6.498  10.591  0.1324 -1.0621 -0.4474
  423MOL0     O57000   9.822   6.466  10.566 -0.0479 -1.2917  0.4382
  423MOL0     C57001   9.729   6.569  10.595  0.5558  0.3626  0.8023
  423MOL0     C57002   9.642   6.629  10.497  0.2221 -1.2676  0.2938
  423MOL0     C57003   9.534   6.720  10.535 -0.0625 -0.0019 -0.8965
  423MOL0     C57004   9.536   6.771  10.662 -0.1281  0.3260  0.0561
  423MOL0     O57005   9.446   6.875  10.681 -0.1332 -0.1426 -0.6241
  423MOL0     C57006   9.470   6.970  10.788 -0.6675  0.1184 -0.2542
  423MOL0     C57007   9.370   7.085  10.788  0.5158  0.3853  0.1343
  423MOL0     C57008   9.225   7.042  10.803  0.2484  0.1815 -0.6360
  423MOL0     C57009   9.213   7.017  10.958  0.1233 -0.5520  0.7370
  423MOL0     C57010   9.067   6.977  10.994  0.7293 -0.0224  0.1123
  423MOL0     C57011   9.022   6.845  10.932  0.1921 -0.3682 -0.1175
  423MOL0     C57012   8.880   6.798  10.977  0.3586  0.5727  0.3404
  423MOL0     C57013   8.767   6.902  10.959 -0.1531 -0.1549  0.5439
  423MOL0    Cl57014   8.615   6.828  10.969  0.5692  0.6138 -0.0006
  423MOL0     C57015   9.614   6.710  10.760  0.7070  0.7255  0.3238
  423MOL0     C57016   9.706   6.615  10.723 -0.5257  1.3654 -0.7411
  423MOL0     O57017   9.995   6.614  10.617 -0.9215  0.0084  0.0590
  423MOL0     C57018  10.189   6.420  10.574  0.7020  0.4497  0.2465
  423MOL0     C57019  10.289   6.321  10.557 -0.6770  0.5945 -0.8029
  423MOL0     N57020  10.035   5.799  10.017 -1.0567 -0.7889  0.5097
  423MOL0     N57021   9.914   5.799   9.995  0.2190 -0.7917  0.4204
  423MOL0     C57022   9.112   6.205   9.237  0.2137 -0.0281  0.4371
  423MOL0     C57023   9.003   6.278   9.198 -0.2182 -0.6200  0.0150
  423MOL0     C57024   8.703   6.580   9.234 -0.4561 -0.5472  0.4985
  423MOL0     C57025   8.632   6.680   9.316  0.4457 -0.3823 -0.2910
  423MOL0     C57026   8.499   6.715   9.277  0.2046  0.2867  0.9828
  423MOL0     C57027   8.432   6.649   9.170 -0.5996  0.5273  0.8969
  423MOL0     O57028   8.300   6.681   9.149 -1.0951  0.4239 -0.0868
  423MOL0     C57029   8.267   6.702   9.006  0.0149  0.1788 -0.3073
  423MOL0     C57030   8.227   6.848   8.972  0.3405  0.0318  0.3725
  423MOL0     C57031   8.348   6.935   8.973 -0.4734  0.0009 -0.2454
  423MOL0     C57032   8.328   7.061   8.886  0.1771 -0.3129 -0.2319
  423MOL0     C57033   8.442   7.151   8.908  0.0809 -0.8540  0.4722
  423MOL0     C57034   8.545   7.222   8.925  0.8907  0.5181 -0.4282
  423MOL0     C57035   8.511   6.560   9.091  0.4272 -0.4349 -1.1572
  423MOL0     C57036   8.638   6.514   9.131 -0.1112 -0.0437  0.3955
  423MOL0     C57037   8.697   6.390   9.072 -0.4803  0.3533  0.1880
  423MOL0     H57038   9.148   6.578   9.255 -1.6648 -0.5136  0.4402
  423MOL0     H57039   9.332   6.428   9.348 -0.6416 -1.3059  1.3560
  423MOL0     H57040   9.219   6.119   9.493 -0.3239 -1.2926  0.5810
  423MOL0     H57041   9.274   5.981   9.383  0.7607  1.0117 -2.5212
  423MOL0     H57042   9.434   6.134   9.579 -0.0293 -0.1410  1.9386
  423MOL0     H57043   9.494   5.999   9.481 -0.6599 -2.9876  0.6418
  423MOL0     H57044   9.403   5.843   9.584  2.5149 -0.2237  2.3310
  423MOL0     H57045   9.261   5.939   9.647 -0.4689  1.7976 -0.7388
  423MOL0     H57046   9.553   5.957   9.748 -0.2395 -2.5135 -2.1454
  423MOL0     H57047   9.425   6.062   9.809  1.3232  0.0787  0.5405
  423MOL0     H57048   9.298   5.865   9.889 -0.5085  2.7462 -1.1274
  423MOL0     H57049   9.419   5.759   9.829 -0.9442 -0.2078  1.1081
  423MOL0     H57050   9.476   5.990  10.023 -1.7880 -0.4228  2.5583
  423MOL0     H57051   9.441   5.824  10.083 -1.5098  0.2613 -0.7420
  423MOL0     H57052   9.668   5.926   9.916  1.4184  1.9949  3.1182
  423MOL0     H57053   9.627   5.754   9.920 -2.2847 -0.8043  1.3049
  423MOL0     H57054   9.658   5.927  10.174  0.7166  0.5585 -0.0743
  423MOL0     H57055   9.690   5.744  10.157 -0.9722  0.8385  0.4882
  423MOL0     H57056   9.915   5.910  10.297 -0.1676 -2.1679  2.0364
  423MOL0     H57057  10.162   5.707  10.294 -0.6515  0.5024  0.7282
  423MOL0     H57058  10.260   5.778  10.160 -0.2833  2.4108  0.2661
  423MOL0     H57059  10.178   6.007  10.271  1.5635  3.4152  2.3748
  423MOL0     H57060  10.146   5.895  10.404  1.4923 -0.3395  0.0211
  423MOL0     H57061  10.411   5.911  10.255  1.3454 -3.5448  0.7743
  423MOL0     H57062  10.380   5.836  10.420 -0.7957 -1.1877 -1.8834
  423MOL0     H57063  10.362   6.146  10.338  1.5639  0.0509 -0.3847
  423MOL0     H57064  10.505   6.073  10.415 -0.0237 -2.2026 -4.9139
  423MOL0     H57065  10.086   6.060  10.501  1.2651  0.2403 -0.5914
  423MOL0     H57066   9.910   6.228  10.524 -1.5345  2.3566 -0.3342
  423MOL0     H57067   9.652   6.599  10.393 -1.6791 -3.7793  0.7407
  423MOL0     H57068   9.460   6.747  10.460  1.8277 -0.2155 -2.9266
  423MOL0     H57069   9.462   6.921  10.886 -0.0322  1.0715  0.2974
  423MOL0     H57070   9.574   7.002  10.784 -0.2665 -0.6790  1.9453
  423MOL0     H57071   9.393   7.165  10.859 -1.8312 -0.9300  2.5648
  423MOL0     H57072   9.400   7.119  10.689  3.1393 -2.9715 -0.4443
  423MOL0     H57073   9.154   7.117  10.767  1.8738  1.3464 -1.5520
  423MOL0     H57074   9.197   6.953  10.745  0.5748  1.2367 -2.5126
  423MOL0     H57075   9.250   7.103  11.013 -1.3886 -0.1607  1.2012
  423MOL0     H57076   9.279   6.933  10.981 -1.1099 -1.7491  0.1047
  423MOL0     H57077   8.996   7.057  10.972 -2.0460 -1.9892  1.3016
  423MOL0     H57078   9.059   6.957  11.101 -0.8245  0.6656  0.1629
  423MOL0     H57079   9.025   6.850  10.823 -1.0071 -3.5506 -0.3812
  423MOL0     H57080   9.087   6.761  10.959 -2.1437 -2.9937 -2.0934
  423MOL0     H57081   8.893   6.794  11.086  0.9979  0.1136  0.2520
  423MOL0     H57082   8.866   6.699  10.933  3.3670  0.6342 -0.9950
  423MOL0     H57083   8.768   6.977  11.038  0.4994  1.9524 -1.3567
  423MOL0     H57084   8.773   6.966  10.870  0.8290 -3.2402 -1.8188
  423MOL0     H57085   9.596   6.735  10.864 -0.2676 -1.9728  0.8760
  423MOL0     H57086   9.761   6.577  10.808 -1.5228 -0.4928 -0.8761
  423MOL0     H57087  10.209   6.524  10.600 -1.2687  0.2842  2.9077
  423MOL0     H57088  10.397   6.329  10.548 -0.8644  1.6470 -2.3509
  423MOL0     H57089   9.102   6.097   9.237 -1.3907  0.0557 -1.5134
  423MOL0     H57090   8.917   6.225   9.159 -0.3400 -0.3825 -0.0410
  423MOL0     H57091   8.675   6.718   9.408  0.6751 -2.1210  0.3621
  423MOL0     H57092   8.439   6.782   9.338 -1.2838  0.1964 -0.3173
  423MOL0     H57093   8.184   6.638   8.975 -1.9028  1.0494  2.6601
  423MOL0     H57094   8.346   6.663   8.940 -0.9141 -1.3198 -0.5691
  423MOL0     H57095   8.151   6.879   9.045  0.4062 -2.9768  1.9021
  423MOL0     H57096   8.187   6.849   8.870 -1.1593  0.2017  0.9318
  423MOL0     H57097   8.429   6.880   8.924  0.9867  1.9663 -0.1636
  423MOL0     H57098   8.375   6.956   9.077 -0.2776  2.0005 -0.6581
  423MOL0     H57099   8.324   7.014   8.788 -0.5703  1.0000 -0.8567
  423MOL0     H57100   8.239   7.119   8.914  0.8471  1.1763 -1.0783
  423MOL0     H57101   8.640   7.271   8.937  1.3833 -0.5677  0.3544
  423MOL0     H57102   8.473   6.505   9.005 -0.0871  1.5684 -2.2666
  423MOL0     H57103   8.719   6.327   9.158 -1.2826 -0.7154 -0.3770
  423MOL0     H57104   8.625   6.333   9.012 -0.3432 -1.0148  1.2720
  423MOL0     H57105   8.783   6.392   9.004  0.7786 -2.9817  1.4969
  424MOL0     O57106   8.790   4.257   5.135  0.1356 -0.0854  0.2737
  424MOL0     C57107   8.916   4.261   5.113 -0.5525  0.3002 -0.2005
  424MOL0     O57108   9.010   4.193   5.182  0.3022 -0.0936  0.4657
  424MOL0     C57109   8.974   4.081   5.257 -0.1222 -0.1118 -0.4382
  424MOL0     C57110   8.855   4.004   5.254  0.5144 -0.0650  0.4392
  424MOL0     C57111   8.836   3.893   5.344  0.0384  0.2424  0.5435
  424MOL0     C57112   8.936   3.849   5.427 -1.1888  0.2222  0.2127
  424MOL0     O57113   8.932   3.741   5.509  0.3052 -0.7746  0.2622
  424MOL0     C57114   8.946   3.780   5.645 -0.2314  0.0637  0.2746
  424MOL0     C57115   8.864   3.694   5.732 -0.3311  0.7024 -0.0315
  424MOL0     C57116   8.928   3.557   5.763  0.2483 -0.3613 -0.1167
  424MOL0     C57117   9.032   3.572   5.878  0.5481 -0.3210  0.8255
  424MOL0     C57118   8.960   3.577   6.017  0.0443  0.5843 -0.5034
  424MOL0     C57119   9.063   3.565   6.138 -0.4604 -0.6015  0.2505
  424MOL0     C57120   8.995   3.541   6.278  0.4685 -0.5970 -1.1064
  424MOL0     C57121   8.871   3.650   6.309 -0.1939 -0.0098  0.0595
  424MOL0     N57122   8.911   3.782   6.339  0.6321  0.2512  0.0589
  424MOL0     C57123   8.933   3.812   6.466  0.7656  0.3747  0.0211
  424MOL0     C57124   8.934   3.950   6.468 -0.4483 -0.1288  1.3405
  424MOL0     C57125   8.979   4.046   6.576  0.5294  1.1748  0.4747
  424MOL0     C57126   8.903   4.026   6.703 -0.5216  0.6778 -0.8609
  424MOL0     C57127   8.955   4.117   6.805 -0.7793  0.1635  0.2202
  424MOL0     C57128   8.842   4.140   6.909 -0.4195  0.1215  0.3173
  424MOL0     O57129   8.747   4.226   6.845 -0.3485 -0.2254 -0.3278
  424MOL0     C57130   8.635   4.266   6.920 -0.3683 -0.1672  0.6168
  424MOL0     C57131   8.565   4.382   6.877  0.5834  0.3533  0.1174
  424MOL0     C57132   8.450   4.424   6.950 -0.2185 -0.3680  0.4545
  424MOL0     C57133   8.418   4.370   7.068  0.3762 -0.4749  0.0860
  424MOL0     C57134   8.304   4.432   7.144  0.4894 -0.2697 -0.0657
  424MOL0     O57135   8.255   4.357   7.247 -1.8928  0.6010 -1.2699
  424MOL0     C57136   8.175   4.417   7.343 -0.5784 -0.5768 -0.6359
  424MOL0     C57137   8.038   4.445   7.322 -0.1580 -0.6058 -0.3343
  424MOL0     C57138   7.962   4.483   7.426  1.1884 -0.8799  0.3796
  424MOL0     C57139   8.014   4.496   7.553 -0.4545 -0.1131  0.4304
  424MOL0     O57140   7.938   4.557   7.648  0.7896  0.3700  0.5262
  424MOL0     C57141   7.886   4.470   7.754  0.4248  0.1800  0.2231
  424MOL0     C57142   7.833   4.552   7.874  1.0706 -0.0316  0.2621
  424MOL0     C57143   7.948   4.620   7.951 -0.4409  0.2780  0.0479
  424MOL0     C57144   7.909   4.668   8.094 -0.1590  0.8197  1.2460
  424MOL0     C57145   8.023   4.728   8.180 -0.6446  0.1287  0.5413
  424MOL0     C57146   8.111   4.621   8.257 -0.0558  0.4602  0.0257
  424MOL0     C57147   8.215   4.686   8.344 -0.2899 -0.4263 -0.8295
  424MOL0     C57148   8.304   4.581   8.409  0.1881 -0.0821  0.1341
  424MOL0    Cl57149   8.404   4.496   8.286 -0.4856  0.1024 -0.1302
  424MOL0     C57150   8.152   4.467   7.577 -0.2699  0.6974 -0.1266
  424MOL0     C57151   8.233   4.425   7.468  0.4835 -0.7381  0.0312
  424MOL0     O57152   8.262   4.545   7.121 -0.7111  0.2028  0.1974
  424MOL0     C57153   8.479   4.249   7.114 -0.1340 -0.2458  0.0556
  424MOL0     C57154   8.594   4.195   7.037  0.3002 -0.0832  0.7357
  424MOL0     N57155   8.910   3.992   6.333 -0.4722 -0.3099  0.5674
  424MOL0     N57156   8.883   3.890   6.257 -0.2892  0.0022 -0.1614
  424MOL0     C57157   9.050   3.929   5.427 -0.5344  0.5666 -0.2293
  424MOL0     C57158   9.068   4.033   5.339  0.0735 -0.0817 -0.6097
  424MOL0     C57159   8.980   4.347   4.997 -0.4037 -0.7186  0.5666
  424MOL0     C57160   9.116   4.369   5.000  0.2158  0.1231 -0.3925
  424MOL0     C57161   9.180   4.452   4.906 -0.2722 -0.1909  0.0944
  424MOL0     C57162   9.111   4.533   4.812 -0.1861  0.1594  0.4219
  424MOL0     O57163   9.158   4.638   4.742  0.1462  0.0738  0.3033
  424MOL0     C57164   9.283   4.690   4.766  0.2768 -0.7379 -0.1175
  424MOL0     C57165   9.268   4.793   4.891 -0.2054  0.1527 -0.2316
  424MOL0     C57166   9.147   4.881   4.870 -0.3568  0.0042 -0.0299
  424MOL0     C57167   9.015   4.804   4.903  0.8144 -0.7179 -0.2117
  424MOL0     C57168   8.925   4.890   4.981 -0.1328 -0.1353 -0.1222
  424MOL0     C57169   8.843   4.955   5.051  0.5306 -0.5000 -0.1629
  424MOL0     C57170   8.975   4.504   4.800 -0.2560  0.1678 -0.5130
  424MOL0     C57171   8.907   4.419   4.890  0.8589  0.9002 -0.0995
  424MOL0     C57172   8.760   4.410   4.884 -0.4697 -0.5233 -0.4452
  424MOL0     H57173   8.771   4.029   5.191 -2.0746 -1.8917  2.9004
  424MOL0     H57174   8.737   3.847   5.337  0.1137  0.2951 -1.4675
  424MOL0     H57175   9.048   3.791   5.682 -0.3269 -0.5415  0.7345
  424MOL0     H57176   8.905   3.881   5.657  0.2253 -0.0305  3.2634
  424MOL0     H57177   8.768   3.667   5.686 -0.8146 -0.4417  1.5556
  424MOL0     H57178   8.834   3.742   5.826  2.3389 -0.3895  1.4694
  424MOL0     H57179   8.977   3.506   5.680 -1.5405 -1.4588 -0.5731
  424MOL0     H57180   8.859   3.480   5.798  0.8331 -1.3017 -0.9925
  424MOL0     H57181   9.092   3.481   5.884  1.2030  0.0172 -0.4969
  424MOL0     H57182   9.096   3.659   5.861 -1.0273  0.3044 -2.8252
  424MOL0     H57183   8.918   3.678   6.024 -1.3998 -0.1160  3.4221
  424MOL0     H57184   8.871   3.514   6.026  0.9686 -0.7174 -0.2766
  424MOL0     H57185   9.132   3.483   6.121  1.1525  0.8892 -0.7570
  424MOL0     H57186   9.118   3.660   6.134  2.1953 -1.9777  1.9554
  424MOL0     H57187   9.063   3.540   6.363 -1.9146 -1.0984  0.9307
  424MOL0     H57188   8.952   3.441   6.280 -0.2281 -0.3170  1.8643
  424MOL0     H57189   8.795   3.656   6.230 -0.2694  1.7125  0.2279
  424MOL0     H57190   8.814   3.608   6.392 -2.6835  0.6968 -1.2038
  424MOL0     H57191   8.934   3.743   6.550  1.5238  0.0941 -0.2175
  424MOL0     H57192   9.087   4.032   6.592  0.1654 -0.8004  1.4536
  424MOL0     H57193   8.962   4.148   6.541  0.9776  1.3118  0.6493
  424MOL0     H57194   8.795   4.024   6.687 -0.6673  1.6229 -0.0537
  424MOL0     H57195   8.916   3.924   6.741  4.6443  0.5812 -2.0740
  424MOL0     H57196   8.994   4.213   6.770  0.2552 -0.0927  0.6332
  424MOL0     H57197   9.038   4.065   6.854 -0.0712 -0.2485 -1.3514
  424MOL0     H57198   8.858   4.197   7.001 -3.3434 -1.1897  1.7704
  424MOL0     H57199   8.787   4.052   6.943 -1.6547  1.7882  3.0286
  424MOL0     H57200   8.609   4.435   6.793 -1.1485  0.9238 -0.4641
  424MOL0     H57201   8.403   4.512   6.910 -2.2316 -0.8920  1.5382
  424MOL0     H57202   7.996   4.430   7.223 -2.9514 -0.4718  0.7378
  424MOL0     H57203   7.861   4.521   7.417  1.3637 -0.5683 -0.3822
  424MOL0     H57204   7.806   4.405   7.718  1.0478 -0.5227  0.0670
  424MOL0     H57205   7.965   4.405   7.793 -0.9647 -2.0620 -0.5431
  424MOL0     H57206   7.762   4.627   7.839 -0.3386 -1.4467 -0.0431
  424MOL0     H57207   7.776   4.479   7.933  4.0089 -1.2724  1.7900
  424MOL0     H57208   8.045   4.571   7.956 -0.8848 -0.5100  2.0827
  424MOL0     H57209   7.981   4.702   7.886 -0.5247 -1.4368 -2.3042
  424MOL0     H57210   7.861   4.581   8.141  3.3398 -2.3245 -0.4300
  424MOL0     H57211   7.819   4.730   8.086 -1.3127 -0.9803 -1.7786
  424MOL0     H57212   7.970   4.778   8.262  1.8780  1.3487  1.5402
  424MOL0     H57213   8.080   4.812   8.139 -2.9786  0.6430 -1.9115
  424MOL0     H57214   8.050   4.549   8.311  1.9137 -1.1756  0.1753
  424MOL0     H57215   8.160   4.563   8.179  0.7051 -2.8586  2.7427
  424MOL0     H57216   8.164   4.727   8.432  1.3581  3.0692 -1.3222
  424MOL0     H57217   8.279   4.755   8.288 -0.4680 -0.0978 -0.6369
  424MOL0     H57218   8.373   4.615   8.487 -1.2863 -1.8011  2.2983
  424MOL0     H57219   8.247   4.506   8.464 -3.3942  2.2523 -0.0117
  424MOL0     H57220   8.195   4.487   7.675 -2.2391  3.5221  0.2505
  424MOL0     H57221   8.336   4.399   7.486  0.8015  0.3433 -0.1621
  424MOL0     H57222   8.449   4.195   7.203 -0.7830  1.7471  1.1057
  424MOL0     H57223   8.639   4.103   7.072  2.1813  0.7569  0.6790
  424MOL0     H57224   9.125   3.902   5.501 -2.4878 -4.1602  0.3929
  424MOL0     H57225   9.157   4.095   5.346  0.0553 -0.1728  0.8152
  424MOL0     H57226   9.176   4.326   5.080 -0.2451 -0.2113 -0.2180
  424MOL0     H57227   9.285   4.479   4.919 -0.2049  0.6565 -1.9093
  424MOL0     H57228   9.323   4.752   4.685  0.3471 -0.4045  0.1681
  424MOL0     H57229   9.363   4.616   4.768  0.3258 -0.8729 -2.7764
  424MOL0     H57230   9.359   4.853   4.882  0.7718 -0.9763  1.5244
  424MOL0     H57231   9.271   4.746   4.990  0.8647 -1.4056 -0.9542
  424MOL0     H57232   9.129   4.909   4.766 -1.7483 -0.2264  0.1253
  424MOL0     H57233   9.168   4.973   4.926 -1.3250  0.2260 -0.0141
  424MOL0     H57234   8.963   4.767   4.814  0.0796 -2.5090  0.9111
  424MOL0     H57235   9.031   4.724   4.975  3.9742 -1.4085 -1.5268
  424MOL0     H57236   8.761   5.001   5.102  1.4693  0.1186  0.8277
  424MOL0     H57237   8.926   4.563   4.723  0.9069 -0.0482 -1.4577
  424MOL0     H57238   8.738   4.303   4.884 -1.8732 -0.3588 -3.8920
  424MOL0     H57239   8.718   4.454   4.975 -1.5841 -1.5400 -0.4521
  424MOL0     H57240   8.725   4.459   4.793  4.8070  1.7467 -1.6829
  425MOL0     O57241   1.447   6.615   2.598 -0.1372 -0.5112 -0.7204
  425MOL0     C57242   1.392   6.552   2.688  0.2809 -0.2308 -0.2754
  425MOL0     O57243   1.453   6.442   2.752 -0.3711 -0.1342 -0.6116
  425MOL0     C57244   1.558   6.378   2.687  0.3624 -0.7002 -0.4623
  425MOL0     C57245   1.684   6.439   2.674 -0.4144  0.1690  0.2434
  425MOL0     C57246   1.779   6.385   2.593  0.2293 -0.0559  0.3550
  425MOL0     C57247   1.755   6.263   2.535 -1.1440  0.7850  0.5003
  425MOL0     O57248   1.863   6.204   2.460 -0.2129 -0.0588  0.1905
  425MOL0     C57249   1.836   6.151   2.326  0.2990 -0.6422  0.2434
  425MOL0     C57250   1.877   6.003   2.321  0.7619 -0.2009 -0.2276
  425MOL0     C57251   1.894   5.939   2.176  0.5893  0.3776  0.5323
  425MOL0     C57252   2.039   5.936   2.151 -0.3916  0.3231  0.2502
  425MOL0     C57253   2.064   5.915   2.002  0.6135 -0.3792 -0.2196
  425MOL0     C57254   2.208   5.884   1.970  0.2421  0.4804  0.7509
  425MOL0     C57255   2.235   5.874   1.821  0.2918 -0.9096  0.4016
  425MOL0     C57256   2.278   6.024   1.761  0.1616  0.2302 -0.6113
  425MOL0     N57257   2.266   6.018   1.618 -0.0211 -0.3578 -0.0833
  425MOL0     C57258   2.144   5.996   1.554  0.0641 -0.4037 -0.5122
  425MOL0     C57259   2.176   6.027   1.423 -0.7647  0.6169 -0.5379
  425MOL0     C57260   2.073   6.045   1.303  0.1255 -0.8353  0.3392
  425MOL0     C57261   2.117   6.148   1.198 -0.2064 -0.7273  1.2029
  425MOL0     C57262   2.007   6.151   1.077 -0.0106 -1.0054  0.8318
  425MOL0     C57263   2.055   6.225   0.949  0.0646 -0.5190 -0.4834
  425MOL0     O57264   1.955   6.270   0.857  0.4231 -0.0787 -0.0779
  425MOL0     C57265   1.997   6.373   0.773  0.4341 -0.6932  0.3800
  425MOL0     C57266   1.894   6.446   0.716 -0.6052 -0.2045 -0.0965
  425MOL0     C57267   1.914   6.551   0.626 -0.3890  0.8140 -0.5609
  425MOL0     C57268   2.043   6.596   0.606  0.0747  0.2496  1.1077
  425MOL0     C57269   2.070   6.725   0.534  0.4714  0.6333  0.6614
  425MOL0     O57270   2.203   6.747   0.496 -0.1604  0.5099 -0.0229
  425MOL0     C57271   2.250   6.865   0.436  0.5624  0.3742  0.4653
  425MOL0     C57272   2.190   6.906   0.309 -0.5984 -0.1018  1.1798
  425MOL0     C57273   2.221   7.040   0.257  0.4320 -1.2332 -0.6806
  425MOL0     C57274   2.301   7.118   0.347  0.1363  0.1713  1.6042
  425MOL0     O57275   2.344   7.235   0.304  0.8886  0.3973  0.2734
  425MOL0     C57276   2.306   7.354   0.380 -0.7714  1.0515 -0.0017
  425MOL0     C57277   2.414   7.460   0.327  0.3666  0.6201 -0.4534
  425MOL0     C57278   2.537   7.450   0.415 -0.5222 -0.7285  0.2215
  425MOL0     C57279   2.542   7.564   0.504  0.0255 -0.3760  0.1583
  425MOL0     C57280   2.667   7.560   0.591 -0.5802  0.0617 -0.1942
  425MOL0     C57281   2.683   7.636   0.724 -0.7123 -0.8319  0.4064
  425MOL0     C57282   2.558   7.639   0.819 -0.3763  0.8332  0.3342
  425MOL0     C57283   2.605   7.630   0.965 -0.0292  0.9275  0.0405
  425MOL0    Cl57284   2.664   7.787   0.997 -0.0270  0.2192 -0.4189
  425MOL0     C57285   2.357   7.079   0.467 -0.5096 -0.0993 -0.3792
  425MOL0     C57286   2.327   6.953   0.512  0.3108  0.1772 -0.3450
  425MOL0     O57287   1.976   6.798   0.505 -0.3006 -0.5123  0.4935
  425MOL0     C57288   2.154   6.526   0.655  0.0284  0.7983 -0.7082
  425MOL0     C57289   2.125   6.413   0.732 -0.9168  0.3748 -0.9059
  425MOL0     N57290   2.315   6.054   1.428 -0.2979 -0.4058 -0.1546
  425MOL0     N57291   2.366   6.043   1.545 -0.1236  0.7137  0.2910
  425MOL0     C57292   1.637   6.199   2.554  0.3428  0.5495  0.5619
  425MOL0     C57293   1.539   6.249   2.636  0.8479 -0.4546  0.2837
  425MOL0     C57294   1.263   6.610   2.727 -0.1011 -0.2160  0.3237
  425MOL0     C57295   1.247   6.753   2.715  0.3887  1.0587  0.0480
  425MOL0     C57296   1.131   6.814   2.762  0.2109 -0.7548 -0.3650
  425MOL0     C57297   1.029   6.738   2.833 -0.3162 -0.5377 -0.3149
  425MOL0     O57298   0.905   6.785   2.874 -0.2438 -0.2874  0.0159
  425MOL0     C57299   0.869   6.920   2.826 -0.2419  1.4327 -0.2305
  425MOL0     C57300   0.719   6.932   2.856 -0.7348  0.4912  0.0243
  425MOL0     C57301   0.634   6.829   2.784  1.0212  0.0255 -0.5167
  425MOL0     C57302   0.599   6.887   2.641 -0.7530  0.5149 -0.1878
  425MOL0     C57303   0.516   6.793   2.572 -0.5956 -0.1289  0.2520
  425MOL0     C57304   0.443   6.736   2.491  0.0238 -0.6242 -0.0221
  425MOL0     C57305   1.043   6.598   2.844 -0.1383 -0.1533 -0.9676
  425MOL0     C57306   1.155   6.534   2.792 -0.2347  0.2276  0.7505
  425MOL0     C57307   1.167   6.384   2.802 -0.6678  0.0388 -0.3357
  425MOL0     H57308   1.700   6.529   2.732 -0.0600 -0.2536  0.8105
  425MOL0     H57309   1.874   6.438   2.590  1.9015 -2.4716  3.8291
  425MOL0     H57310   1.729   6.145   2.303 -0.1046 -2.8849  2.2462
  425MOL0     H57311   1.891   6.205   2.249 -2.1604 -1.5138 -2.2729
  425MOL0     H57312   1.802   5.946   2.376  0.7833  1.4241  1.5908
  425MOL0     H57313   1.966   5.993   2.384 -0.4216 -1.9538  1.2782
  425MOL0     H57314   1.826   5.979   2.100 -0.8987  0.4586  1.8411
  425MOL0     H57315   1.866   5.833   2.171  0.8242  0.2947  0.9178
  425MOL0     H57316   2.066   6.038   2.181 -0.0322 -0.0465  1.2202
  425MOL0     H57317   2.092   5.862   2.212  2.2754  0.5354 -1.6490
  425MOL0     H57318   2.009   5.825   1.973 -0.0368 -0.1614  0.3158
  425MOL0     H57319   2.026   6.003   1.950  1.0556 -1.0220 -1.6932
  425MOL0     H57320   2.266   5.967   2.011  0.7463  1.3957 -1.6406
  425MOL0     H57321   2.227   5.785   2.011 -0.9148  0.1204  0.4724
  425MOL0     H57322   2.154   5.835   1.758  3.4519 -1.0144 -4.0533
  425MOL0     H57323   2.323   5.811   1.805  1.5532  1.2431 -1.8464
  425MOL0     H57324   2.217   6.106   1.801  0.0997  0.2195 -0.6852
  425MOL0     H57325   2.380   6.052   1.786 -0.2107  0.2575  0.9965
  425MOL0     H57326   2.046   5.980   1.597  1.8061 -4.9191  2.5263
  425MOL0     H57327   2.068   5.942   1.265  4.4322 -1.5581  1.1049
  425MOL0     H57328   1.978   6.075   1.348  2.0420  1.8996  2.9157
  425MOL0     H57329   2.129   6.242   1.253 -1.1721 -0.3744  0.8347
  425MOL0     H57330   2.215   6.128   1.154  1.3007  2.9558  2.4961
  425MOL0     H57331   1.915   6.192   1.119 -0.4026 -0.7515 -0.2484
  425MOL0     H57332   1.971   6.050   1.054 -1.2508 -1.0810  2.8651
  425MOL0     H57333   2.113   6.152   0.892  0.3650 -0.9536  0.3704
  425MOL0     H57334   2.118   6.307   0.985  1.0102 -0.8161 -1.4086
  425MOL0     H57335   1.797   6.401   0.736  0.7195 -2.6170  1.3217
  425MOL0     H57336   1.830   6.603   0.581 -1.3637  2.0740  2.4478
  425MOL0     H57337   2.123   6.833   0.264 -1.2455  0.9768  0.3297
  425MOL0     H57338   2.185   7.082   0.164  2.3606  1.2937 -0.3865
  425MOL0     H57339   2.209   7.386   0.344 -1.2639 -1.9520 -1.7321
  425MOL0     H57340   2.320   7.350   0.488  1.6684  1.2835 -0.2418
  425MOL0     H57341   2.442   7.444   0.222  2.3130  3.3515 -0.4666
  425MOL0     H57342   2.367   7.559   0.330 -0.8175  0.0622  0.4247
  425MOL0     H57343   2.547   7.359   0.475 -2.0978 -1.4696 -0.5888
  425MOL0     H57344   2.627   7.454   0.354 -1.8746  3.1174 -1.8194
  425MOL0     H57345   2.446   7.554   0.555 -1.6419  0.2627 -2.6293
  425MOL0     H57346   2.547   7.659   0.449 -3.2050  0.1396  0.5538
  425MOL0     H57347   2.757   7.577   0.531  1.1587  0.2510  2.2914
  425MOL0     H57348   2.687   7.453   0.606 -1.0734 -0.0804 -0.5280
  425MOL0     H57349   2.778   7.612   0.773 -1.0399 -3.2619 -0.0116
  425MOL0     H57350   2.709   7.736   0.687  1.9740 -1.0823  1.3919
  425MOL0     H57351   2.503   7.548   0.794 -0.2952  0.9546 -0.2991
  425MOL0     H57352   2.482   7.715   0.799 -3.7254 -2.3787 -0.0289
  425MOL0     H57353   2.526   7.614   1.040  1.3985 -0.4957  1.3375
  425MOL0     H57354   2.681   7.552   0.976 -0.1940  0.9041  1.1741
  425MOL0     H57355   2.422   7.142   0.526 -1.0407 -1.4750  1.8195
  425MOL0     H57356   2.354   6.924   0.614  0.4514  0.3730 -0.3257
  425MOL0     H57357   2.255   6.562   0.637  0.0170  3.4415  3.2022
  425MOL0     H57358   2.211   6.359   0.768  0.0452  2.8312  0.7484
  425MOL0     H57359   1.628   6.104   2.504 -2.8866  1.8582 -1.6861
  425MOL0     H57360   1.448   6.193   2.657 -1.6660  3.5888  1.2614
  425MOL0     H57361   1.314   6.814   2.656  0.8246 -1.3144 -2.0425
  425MOL0     H57362   1.116   6.920   2.742 -1.8956 -0.5401  1.8754
  425MOL0     H57363   0.888   6.931   2.719  2.0729  1.2866  0.1148
  425MOL0     H57364   0.926   6.987   2.890  1.9773 -4.5129  5.1877
  425MOL0     H57365   0.687   7.036   2.845 -2.8653  0.0620  1.6284
  425MOL0     H57366   0.706   6.905   2.961  2.4946 -3.3359 -0.3244
  425MOL0     H57367   0.541   6.821   2.840  1.5417 -2.2632  0.1284
  425MOL0     H57368   0.682   6.730   2.779 -2.2984 -1.6796 -1.3741
  425MOL0     H57369   0.559   6.988   2.658  1.3814  1.3819 -0.0097
  425MOL0     H57370   0.693   6.905   2.589  2.5419  1.3572  5.2442
  425MOL0     H57371   0.384   6.676   2.426  2.3470  0.6748 -3.6718
  425MOL0     H57372   0.974   6.539   2.903 -1.4238  2.7646  0.7120
  425MOL0     H57373   1.076   6.328   2.825  0.0767 -0.7162  0.8246
  425MOL0     H57374   1.207   6.336   2.712 -2.3101 -3.2022  0.5285
  425MOL0     H57375   1.234   6.367   2.887 -1.4380 -1.5834 -0.0169
  426MOL0     O57376   1.935   6.435   4.778 -0.0253 -0.7038 -0.0141
  426MOL0     C57377   2.014   6.464   4.868 -0.1504  0.8003  0.4744
  426MOL0     O57378   2.001   6.420   4.997  0.2216  0.3050  0.5292
  426MOL0     C57379   1.900   6.337   5.022  0.0211  0.5978 -0.6183
  426MOL0     C57380   1.894   6.201   4.990 -1.1091  0.5925  0.0471
  426MOL0     C57381   1.789   6.122   5.034  0.1509  0.0142 -0.0205
  426MOL0     C57382   1.685   6.176   5.116 -0.0492  0.7382 -1.1079
  426MOL0     O57383   1.583   6.107   5.174 -0.3686  0.6789 -0.3914
  426MOL0     C57384   1.551   5.976   5.129 -0.3072  0.3202 -0.8102
  426MOL0     C57385   1.466   5.893   5.227  0.1389 -1.0314 -0.2398
  426MOL0     C57386   1.457   5.741   5.204  0.8067 -0.2938 -0.3649
  426MOL0     C57387   1.387   5.713   5.070 -0.3859  1.0420 -0.2060
  426MOL0     C57388   1.395   5.563   5.042  0.2175 -0.2657 -0.0764
  426MOL0     C57389   1.531   5.518   4.986  0.5034  0.9450 -0.0593
  426MOL0     C57390   1.556   5.365   4.977  0.4137 -0.3243 -0.3243
  426MOL0     C57391   1.607   5.305   5.106 -0.6078 -0.1543 -0.2411
  426MOL0     N57392   1.677   5.177   5.098 -0.8085 -0.1743  1.3788
  426MOL0     C57393   1.810   5.158   5.083 -0.3654 -0.0912 -0.4446
  426MOL0     C57394   1.810   5.050   5.007 -0.2186  0.8348 -0.3817
  426MOL0     C57395   1.930   4.994   4.943  0.4771 -0.0174 -0.4662
  426MOL0     C57396   1.981   5.079   4.825  0.2464  0.0400 -0.6405
  426MOL0     C57397   1.893   5.046   4.701  0.5050 -0.5595  0.2452
  426MOL0     C57398   1.954   5.127   4.587 -0.4761 -0.1948  0.6806
  426MOL0     O57399   1.977   5.259   4.623 -0.3899 -1.0069  0.7042
  426MOL0     C57400   2.017   5.347   4.528  0.4358 -0.5996 -0.5263
  426MOL0     C57401   2.054   5.318   4.394  0.2304 -0.5384 -0.2907
  426MOL0     C57402   2.084   5.426   4.300  0.6485  0.2741  0.5592
  426MOL0     C57403   2.068   5.556   4.336  0.1667 -0.8904 -0.6207
  426MOL0     C57404   2.124   5.667   4.242  0.1392 -1.2119  0.7431
  426MOL0     O57405   2.189   5.640   4.133  0.1154 -0.3597  0.8306
  426MOL0     C57406   2.202   5.738   4.032 -1.0189  0.0285  0.0354
  426MOL0     C57407   2.261   5.865   4.051 -0.3308  0.6142  0.5732
  426MOL0     C57408   2.262   5.958   3.944  1.4654 -0.2645  0.4866
  426MOL0     C57409   2.222   5.918   3.817 -0.2275  0.6367  0.1389
  426MOL0     O57410   2.257   6.001   3.718 -0.4740 -0.1167 -0.0013
  426MOL0     C57411   2.328   5.931   3.608  0.0083  0.9749  0.4417
  426MOL0     C57412   2.398   6.025   3.512  0.2609 -0.7809  0.3022
  426MOL0     C57413   2.521   5.978   3.428  0.1993  0.2085  0.5406
  426MOL0     C57414   2.489   6.011   3.279  0.1686 -0.5100  1.1478
  426MOL0     C57415   2.620   6.012   3.187  0.0650  0.2438 -0.7882
  426MOL0     C57416   2.583   6.029   3.041 -0.2321  0.0213  0.1215
  426MOL0     C57417   2.710   5.994   2.952  0.7901  0.1441  0.1254
  426MOL0     C57418   2.691   6.023   2.802 -0.3067  0.4502 -0.2735
  426MOL0    Cl57419   2.828   5.964   2.703  0.1768  0.0059  0.1452
  426MOL0     C57420   2.169   5.781   3.803 -0.0481  0.1431  0.5084
  426MOL0     C57421   2.159   5.696   3.907  0.4772  0.8176 -0.4136
  426MOL0     O57422   2.089   5.776   4.277 -0.6035 -0.8514  0.4759
  426MOL0     C57423   2.020   5.584   4.461  1.1946  0.1794 -0.1305
  426MOL0     C57424   1.992   5.482   4.555 -0.0233 -0.3271 -0.1304
  426MOL0     N57425   1.687   4.995   4.984 -0.8299  0.6450  0.2501
  426MOL0     N57426   1.611   5.065   5.056  0.6688 -0.1033 -0.0749
  426MOL0     C57427   1.685   6.318   5.142  1.2177 -0.2159 -0.3287
  426MOL0     C57428   1.793   6.396   5.099 -0.3201  0.7764  0.8787
  426MOL0     C57429   2.099   6.583   4.847  0.3168 -0.0344  0.1740
  426MOL0     C57430   2.078   6.686   4.950 -0.6447  1.3435  0.3996
  426MOL0     C57431   2.162   6.798   4.940 -0.6380 -0.7252  1.3620
  426MOL0     C57432   2.260   6.809   4.844  0.4394  0.3344 -0.0049
  426MOL0     O57433   2.334   6.922   4.843 -0.0958 -0.0580  0.4159
  426MOL0     C57434   2.471   6.905   4.887 -0.6089  0.2789  0.3976
  426MOL0     C57435   2.475   6.946   5.028  0.1493 -0.2269 -0.6146
  426MOL0     C57436   2.620   6.954   5.074 -1.2105 -0.6277  0.3931
  426MOL0     C57437   2.635   6.969   5.223  0.9146 -1.4082 -0.4420
  426MOL0     C57438   2.630   6.851   5.311 -0.2675  0.0070 -0.0920
  426MOL0     C57439   2.600   6.752   5.365  0.8673  0.4223  0.6490
  426MOL0     C57440   2.276   6.708   4.746 -0.8412 -0.3122  0.0809
  426MOL0     C57441   2.201   6.593   4.754 -0.2632 -0.4533  0.4617
  426MOL0     C57442   2.226   6.483   4.657  0.5887 -0.1072  0.3670
  426MOL0     H57443   1.973   6.147   4.939 -3.1264 -1.5426 -0.9724
  426MOL0     H57444   1.776   6.021   4.997  2.4489  0.1307 -1.3673
  426MOL0     H57445   1.498   5.990   5.034 -1.1838  1.8303 -0.1349
  426MOL0     H57446   1.639   5.912   5.119 -1.7745 -1.6845 -1.6888
  426MOL0     H57447   1.362   5.925   5.233  1.1666  2.5363  1.5777
  426MOL0     H57448   1.509   5.912   5.326 -2.4453 -0.3466  0.8244
  426MOL0     H57449   1.399   5.701   5.287 -0.0858 -0.4737 -1.0654
  426MOL0     H57450   1.561   5.707   5.197  0.7046 -0.8575  0.6110
  426MOL0     H57451   1.280   5.731   5.085 -0.4953 -1.4608  3.1305
  426MOL0     H57452   1.432   5.763   4.983  2.3502 -0.9161 -0.0731
  426MOL0     H57453   1.357   5.505   5.127  2.1231 -1.3175  0.1105
  426MOL0     H57454   1.325   5.555   4.959  2.0377  0.9780 -1.8218
  426MOL0     H57455   1.520   5.559   4.886 -1.9068 -0.9490 -0.6947
  426MOL0     H57456   1.617   5.557   5.040  2.5971 -2.1345 -0.9165
  426MOL0     H57457   1.629   5.336   4.902  0.1788  0.6486 -0.9528
  426MOL0     H57458   1.460   5.321   4.948 -0.1542 -0.4673  1.6252
  426MOL0     H57459   1.667   5.388   5.145  0.2123  1.0200 -3.6158
  426MOL0     H57460   1.521   5.292   5.172  0.5433 -3.7594  0.7527
  426MOL0     H57461   1.895   5.219   5.113 -0.8018 -0.2936  1.3321
  426MOL0     H57462   2.008   5.000   5.019 -0.1904  3.1102  0.1067
  426MOL0     H57463   1.927   4.890   4.908 -0.6802 -0.3319  0.5059
  426MOL0     H57464   1.962   5.175   4.874 -1.7261  0.0999 -1.4213
  426MOL0     H57465   2.089   5.078   4.808  0.4716 -1.7794  0.6659
  426MOL0     H57466   1.789   5.073   4.720 -0.4919 -2.9567 -1.2939
  426MOL0     H57467   1.907   4.942   4.670  1.5078  0.0118 -1.3545
  426MOL0     H57468   1.878   5.120   4.508 -1.7376 -1.1447  1.9296
  426MOL0     H57469   2.050   5.090   4.548  0.5496  1.6737  1.3545
  426MOL0     H57470   2.072   5.217   4.359  4.1986 -1.1329  2.7161
  426MOL0     H57471   2.118   5.394   4.202 -2.4244 -3.4853  0.4584
  426MOL0     H57472   2.281   5.893   4.154 -0.8460  4.3319 -0.1974
  426MOL0     H57473   2.287   6.064   3.945  1.6396 -0.2548 -1.3597
  426MOL0     H57474   2.390   5.843   3.629 -0.9015  0.4345  0.9276
  426MOL0     H57475   2.253   5.883   3.544 -0.1902 -1.1559  2.1441
  426MOL0     H57476   2.321   6.060   3.444 -0.2518 -1.4207  0.5404
  426MOL0     H57477   2.426   6.113   3.570 -3.0373  0.8127 -0.3527
  426MOL0     H57478   2.605   6.042   3.456  0.4020 -0.7144  2.1739
  426MOL0     H57479   2.548   5.872   3.436 -0.6799 -0.0658  0.0233
  426MOL0     H57480   2.425   6.099   3.266 -1.2296 -1.4697  1.3633
  426MOL0     H57481   2.421   5.937   3.236  0.1459  0.8453 -1.3222
  426MOL0     H57482   2.665   5.913   3.190  4.8997  2.1721  1.9798
  426MOL0     H57483   2.682   6.095   3.223 -5.0312  4.1402  0.2444
  426MOL0     H57484   2.499   5.969   3.003  1.6167 -2.3206 -0.5496
  426MOL0     H57485   2.560   6.133   3.016 -3.0204  0.3058  3.1955
  426MOL0     H57486   2.750   5.893   2.966 -1.2266 -1.1575 -2.5452
  426MOL0     H57487   2.790   6.059   2.988  3.4180 -1.4681 -2.3986
  426MOL0     H57488   2.596   5.991   2.758 -0.8937  1.3082  0.3333
  426MOL0     H57489   2.678   6.131   2.791 -1.8876  0.0741 -2.7232
  426MOL0     H57490   2.165   5.750   3.699  0.9466 -0.7111  0.7067
  426MOL0     H57491   2.136   5.591   3.898  1.4584  0.6442 -1.0015
  426MOL0     H57492   2.004   5.688   4.487  3.5264  0.3446  0.8444
  426MOL0     H57493   1.967   5.514   4.656  0.0493 -2.7286  0.7040
  426MOL0     H57494   1.606   6.371   5.195 -0.5675 -0.6963 -2.3584
  426MOL0     H57495   1.789   6.499   5.134 -2.1392  0.6226  1.2276
  426MOL0     H57496   1.998   6.676   5.023  1.1507  2.6849  2.6863
  426MOL0     H57497   2.149   6.887   5.001 -0.0209 -0.2107  0.7635
  426MOL0     H57498   2.543   6.971   4.838  0.3425  0.6251  2.2106
  426MOL0     H57499   2.505   6.803   4.866  2.1363  1.6177 -2.4515
  426MOL0     H57500   2.415   6.878   5.089  0.1531  0.1886 -0.1338
  426MOL0     H57501   2.417   7.037   5.047 -0.4394 -0.7175 -0.0216
  426MOL0     H57502   2.666   7.046   5.037  1.0134 -0.2667  3.6049
  426MOL0     H57503   2.678   6.866   5.044 -2.2994 -0.4701 -2.4917
  426MOL0     H57504   2.735   7.008   5.245  0.1409 -1.0446  3.2123
  426MOL0     H57505   2.569   7.051   5.255  0.4948 -3.2538  4.4281
  426MOL0     H57506   2.566   6.666   5.419 -1.0083  0.3318 -0.5485
  426MOL0     H57507   2.360   6.721   4.679  0.1341  0.8097  1.4547
  426MOL0     H57508   2.329   6.472   4.620  0.8505  2.7102  0.0015
  426MOL0     H57509   2.181   6.390   4.691  0.6787 -0.1916  0.2569
  426MOL0     H57510   2.173   6.516   4.567  0.0114 -4.1508 -0.9735
  427MOL0     O57511   5.027  10.568   3.416 -0.0367  0.1741  0.0423
  427MOL0     C57512   5.063  10.499   3.317  0.7531  0.2544  0.6822
  427MOL0     O57513   5.005  10.381   3.288 -0.1808  0.3022  1.0871
  427MOL0     C57514   4.941  10.311   3.377 -1.5828  0.1205 -0.6350
  427MOL0     C57515   4.815  10.263   3.346  0.4976  0.0344  0.7165
  427MOL0     C57516   4.738  10.196   3.437  0.4243 -0.9636  0.1286
  427MOL0     C57517   4.778  10.184   3.574 -0.9046  0.5282  1.0561
  427MOL0     O57518   4.689  10.135   3.661  0.2030 -0.3469 -0.6086
  427MOL0     C57519   4.647  10.003   3.642  0.6346 -0.1945  0.6008
  427MOL0     C57520   4.574   9.959   3.773  0.6897  0.2704 -0.5012
  427MOL0     C57521   4.485   9.839   3.769  0.1148  1.5770  0.4594
  427MOL0     C57522   4.534   9.700   3.710 -0.2950  0.7354 -0.2802
  427MOL0     C57523   4.415   9.599   3.725  0.2665 -0.9699  0.6182
  427MOL0     C57524   4.467   9.459   3.727  0.5525  0.0766 -0.0105
  427MOL0     C57525   4.365   9.358   3.685 -0.4243 -0.2715  0.9063
  427MOL0     C57526   4.417   9.216   3.689 -0.1578  1.0953 -0.3800
  427MOL0     N57527   4.462   9.168   3.811 -0.5472  0.5471 -0.5837
  427MOL0     C57528   4.385   9.177   3.925  0.1588  0.4359 -0.0630
  427MOL0     C57529   4.457   9.106   4.020  0.6292 -0.3915 -0.2423
  427MOL0     C57530   4.416   9.091   4.169 -0.0772 -0.6803  0.2636
  427MOL0     C57531   4.445   8.953   4.226 -0.2203  0.0967  0.2472
  427MOL0     C57532   4.453   8.943   4.379 -0.5314  0.3133 -0.1163
  427MOL0     C57533   4.326   8.967   4.462 -0.0103  0.2194 -0.0834
  427MOL0     O57534   4.219   8.885   4.417  0.1824  0.2779 -0.6566
  427MOL0     C57535   4.233   8.744   4.447  0.2430 -0.0286 -0.0772
  427MOL0     C57536   4.314   8.679   4.548  0.4034 -0.1412  0.1903
  427MOL0     C57537   4.322   8.531   4.551  0.4047  0.1062  0.5777
  427MOL0     C57538   4.229   8.453   4.482  0.7260 -0.4921 -0.1573
  427MOL0     C57539   4.230   8.300   4.490  0.4139 -0.8774  0.8089
  427MOL0     O57540   4.289   8.252   4.603  0.7384  0.0800 -0.0620
  427MOL0     C57541   4.309   8.119   4.620  0.0010  0.0402 -0.4175
  427MOL0     C57542   4.300   8.071   4.747 -0.0544  0.4404  0.3640
  427MOL0     C57543   4.337   7.947   4.788 -0.6426 -0.0187  0.5235
  427MOL0     C57544   4.401   7.861   4.699  0.4441  0.3592 -0.3522
  427MOL0     O57545   4.435   7.735   4.726  0.5651  0.2140 -0.8061
  427MOL0     C57546   4.579   7.709   4.725  0.1435  0.1315 -0.4079
  427MOL0     C57547   4.630   7.658   4.850 -0.2035 -0.9592 -0.1137
  427MOL0     C57548   4.632   7.765   4.960  0.0285  0.4576 -0.1784
  427MOL0     C57549   4.625   7.698   5.095 -0.2608 -0.0507 -0.5243
  427MOL0     C57550   4.662   7.785   5.216  0.0358  0.5805  0.1426
  427MOL0     C57551   4.579   7.915   5.230  1.1344 -0.7974  0.1003
  427MOL0     C57552   4.462   7.905   5.326  0.4175  0.2937  0.3216
  427MOL0     C57553   4.358   7.793   5.305 -0.8020 -0.2542  0.7738
  427MOL0    Cl57554   4.242   7.814   5.426 -0.0901  0.1560  0.2941
  427MOL0     C57555   4.402   7.906   4.565  0.1517  0.5011  0.3497
  427MOL0     C57556   4.366   8.033   4.530 -0.6063 -0.9626  0.0888
  427MOL0     O57557   4.191   8.231   4.391 -0.2839  0.7236  1.4342
  427MOL0     C57558   4.149   8.523   4.395 -0.3486  0.4738 -0.0136
  427MOL0     C57559   4.148   8.664   4.376 -1.3263 -0.6843 -0.1170
  427MOL0     N57560   4.559   9.042   3.955  0.1771  0.0102  0.3012
  427MOL0     N57561   4.568   9.085   3.838  0.1782  0.1344  0.3656
  427MOL0     C57562   4.911  10.227   3.607  0.4718 -0.0344  0.2183
  427MOL0     C57563   4.994  10.280   3.507 -0.2987  0.7233 -0.6457
  427MOL0     C57564   5.128  10.567   3.211  0.2657  0.3501 -1.5235
  427MOL0     C57565   5.065  10.554   3.087 -0.4728 -0.0298  0.0277
  427MOL0     C57566   5.108  10.639   2.985  0.0378  0.0771  0.5641
  427MOL0     C57567   5.221  10.720   3.000  0.0153 -0.5656  0.1931
  427MOL0     O57568   5.272  10.812   2.913  0.1423  0.2534  0.0403
  427MOL0     C57569   5.239  10.820   2.779  0.5055 -1.0903  0.2032
  427MOL0     C57570   5.275  10.696   2.691  0.5235  0.5525  1.3301
  427MOL0     C57571   5.393  10.722   2.591  0.2185  0.2577 -0.6472
  427MOL0     C57572   5.356  10.805   2.467  0.4842 -0.1024 -0.2169
  427MOL0     C57573   5.333  10.950   2.488  0.8964 -0.0687  0.6772
  427MOL0     C57574   5.289  11.059   2.514  0.5840 -0.3883 -0.3403
  427MOL0     C57575   5.286  10.722   3.127  0.2128 -0.1111  0.3639
  427MOL0     C57576   5.251  10.636   3.223  0.8018  0.2117 -0.7504
  427MOL0     C57577   5.328  10.651   3.351  0.2626  0.1400  0.3917
  427MOL0     H57578   4.774  10.299   3.252 -1.6634  2.6787  2.5246
  427MOL0     H57579   4.633  10.173   3.418 -0.4593  1.3151  1.7964
  427MOL0     H57580   4.597   9.999   3.544  0.7219  2.2196  0.4083
  427MOL0     H57581   4.740   9.946   3.633  1.1931  0.8333 -0.4110
  427MOL0     H57582   4.505  10.037   3.805  1.6294  0.6217  0.7524
  427MOL0     H57583   4.649   9.959   3.853  1.0330 -0.3617 -0.8123
  427MOL0     H57584   4.400   9.856   3.703 -0.1779 -1.8465 -0.2707
  427MOL0     H57585   4.439   9.828   3.868 -1.2590 -0.4209 -0.3319
  427MOL0     H57586   4.545   9.706   3.601 -1.5464  0.9327 -0.4128
  427MOL0     H57587   4.622   9.661   3.762  0.4858  3.2134  0.3905
  427MOL0     H57588   4.368   9.612   3.823 -2.4439  1.0163 -0.8140
  427MOL0     H57589   4.340   9.621   3.648  1.2200 -0.1394 -0.0973
  427MOL0     H57590   4.552   9.455   3.658  1.1559  1.9588  0.5751
  427MOL0     H57591   4.485   9.436   3.832 -0.5275 -1.5283 -0.1323
  427MOL0     H57592   4.336   9.376   3.581  3.5350 -1.7186 -0.6665
  427MOL0     H57593   4.279   9.365   3.751 -0.0777  4.5451  1.1868
  427MOL0     H57594   4.342   9.146   3.650 -3.7524  3.4130  1.8142
  427MOL0     H57595   4.496   9.220   3.613 -1.0631  6.2671 -1.3886
  427MOL0     H57596   4.308   9.251   3.945 -1.8341 -0.9017 -2.2471
  427MOL0     H57597   4.470   9.169   4.224 -2.2432  1.5425 -0.5503
  427MOL0     H57598   4.309   9.117   4.170  0.4990  2.0448  1.4889
  427MOL0     H57599   4.358   8.890   4.205 -2.7393  1.7535  4.3504
  427MOL0     H57600   4.536   8.912   4.182  2.3715  1.0988  4.1588
  427MOL0     H57601   4.534   9.010   4.410 -1.1703  0.8443  0.4331
  427MOL0     H57602   4.478   8.838   4.392  2.6144  0.2796 -4.1992
  427MOL0     H57603   4.299   9.073   4.460  0.0847  0.2400 -1.9781
  427MOL0     H57604   4.355   8.949   4.566  0.8061  1.0415 -0.1553
  427MOL0     H57605   4.383   8.736   4.609  0.3841  0.9394 -0.7720
  427MOL0     H57606   4.394   8.484   4.617  1.8654 -0.2734 -1.2203
  427MOL0     H57607   4.254   8.128   4.828 -0.6962  0.7545 -0.2119
  427MOL0     H57608   4.328   7.910   4.890  2.5025 -3.7428 -0.3120
  427MOL0     H57609   4.605   7.632   4.652  2.1701  1.3801 -1.0919
  427MOL0     H57610   4.642   7.795   4.699  1.1289 -0.3953  0.1931
  427MOL0     H57611   4.572   7.569   4.877 -1.2003 -0.4367 -0.4643
  427MOL0     H57612   4.726   7.611   4.829 -0.2214 -0.8774 -0.3915
  427MOL0     H57613   4.711   7.841   4.959 -0.3125  0.8306  0.5606
  427MOL0     H57614   4.540   7.821   4.940 -0.2418 -0.4470 -1.5194
  427MOL0     H57615   4.688   7.610   5.109 -0.8300 -0.1334  1.9389
  427MOL0     H57616   4.520   7.671   5.107 -0.6006  2.2113  3.3985
  427MOL0     H57617   4.766   7.818   5.208 -0.6648  3.2135  0.9423
  427MOL0     H57618   4.655   7.726   5.308  4.2197 -0.8732 -0.2365
  427MOL0     H57619   4.638   8.003   5.255 -1.1882  1.1516 -0.8654
  427MOL0     H57620   4.535   7.946   5.134 -1.5220  2.0693  2.0570
  427MOL0     H57621   4.407   8.000   5.329 -2.2415 -1.2029  1.9733
  427MOL0     H57622   4.485   7.900   5.433 -0.8573  3.2299  0.8302
  427MOL0     H57623   4.315   7.813   5.206  1.6143 -2.2715 -0.8375
  427MOL0     H57624   4.399   7.692   5.310 -0.1451 -0.0760 -0.4860
  427MOL0     H57625   4.436   7.831   4.495 -1.7975  0.1868 -0.3097
  427MOL0     H57626   4.358   8.069   4.428 -2.6658  2.4724  1.2759
  427MOL0     H57627   4.094   8.445   4.343 -0.7752  1.2844 -0.7995
  427MOL0     H57628   4.084   8.714   4.304  0.3870  1.1707 -0.4571
  427MOL0     H57629   4.940  10.230   3.711 -2.8881 -2.0704  1.3562
  427MOL0     H57630   5.091  10.313   3.545 -1.5601  1.0260  2.5966
  427MOL0     H57631   4.976  10.495   3.065  0.9586 -1.7759 -1.4056
  427MOL0     H57632   5.052  10.644   2.892  0.5735 -0.0222  0.2303
  427MOL0     H57633   5.310  10.901   2.757 -1.0205 -0.1376 -1.5388
  427MOL0     H57634   5.135  10.852   2.768  0.3706 -1.2227  1.0197
  427MOL0     H57635   5.186  10.662   2.637  0.0643  0.5903  2.0515
  427MOL0     H57636   5.299  10.612   2.758 -1.9369 -1.2484  0.1049
  427MOL0     H57637   5.441  10.629   2.558  1.7179  1.0236 -0.7110
  427MOL0     H57638   5.460  10.772   2.661 -1.4338 -2.5712  3.3755
  427MOL0     H57639   5.437  10.805   2.394 -0.4385  1.7008 -1.3167
  427MOL0     H57640   5.266  10.759   2.424 -0.6798 -1.9214  3.6328
  427MOL0     H57641   5.262  11.159   2.544 -0.5919 -0.2053 -1.8739
  427MOL0     H57642   5.363  10.797   3.145  1.6668 -1.7606  1.2921
  427MOL0     H57643   5.437  10.647   3.350  0.2537 -1.4560  1.8308
  427MOL0     H57644   5.305  10.750   3.392  0.2080 -0.1749  1.1187
  427MOL0     H57645   5.294  10.572   3.418 -0.8945 -0.2335 -0.6033
  428MOL0     O57646   1.606   3.454   9.385  0.3904  0.5792 -0.1237
  428MOL0     C57647   1.487   3.451   9.395  0.3734  0.7183  0.0594
  428MOL0     O57648   1.426   3.334   9.417  0.0946  0.1201 -0.3626
  428MOL0     C57649   1.473   3.208   9.374 -0.3185  0.3706  0.0764
  428MOL0     C57650   1.603   3.170   9.383  0.1060  0.3497 -0.6303
  428MOL0     C57651   1.633   3.028   9.380 -1.0769  0.2394  0.4787
  428MOL0     C57652   1.536   2.932   9.355 -1.0122 -0.0056  0.3676
  428MOL0     O57653   1.561   2.804   9.319 -0.3536  0.1448 -0.5942
  428MOL0     C57654   1.688   2.775   9.253  0.9972  0.0754 -0.5703
  428MOL0     C57655   1.702   2.623   9.238 -0.4192 -0.5406  0.5656
  428MOL0     C57656   1.586   2.537   9.196  0.8879  0.5139 -0.2035
  428MOL0     C57657   1.628   2.385   9.201 -0.9325 -0.7118 -0.2493
  428MOL0     C57658   1.533   2.279   9.146 -0.4312 -0.1302  0.2432
  428MOL0     C57659   1.384   2.305   9.172 -1.0352  0.1221  0.7275
  428MOL0     C57660   1.358   2.304   9.322  0.6325 -0.0802 -0.5859
  428MOL0     C57661   1.419   2.193   9.410 -0.1578  0.0574  1.0157
  428MOL0     N57662   1.354   2.185   9.538  0.2775 -1.1262 -0.6961
  428MOL0     C57663   1.343   2.079   9.625 -0.7152  0.1868  0.7384
  428MOL0     C57664   1.277   2.106   9.732 -0.2401  0.3391 -1.2457
  428MOL0     C57665   1.245   2.006   9.840  0.7292 -0.3273  0.0575
  428MOL0     C57666   1.127   1.920   9.788 -0.2888 -0.2386  0.4899
  428MOL0     C57667   1.094   1.826   9.901 -0.2989 -0.1227  0.6370
  428MOL0     C57668   1.010   1.710   9.853  0.2943  0.1666 -0.9685
  428MOL0     O57669   1.002   1.599   9.949 -0.2503 -0.4999 -0.0542
  428MOL0     C57670   0.912   1.498   9.931  0.5252 -0.7599 -0.5545
  428MOL0     C57671   0.827   1.473   9.814 -0.0047  0.6333  0.7600
  428MOL0     C57672   0.744   1.358   9.822 -1.2588 -0.0615  0.6773
  428MOL0     C57673   0.744   1.268   9.930 -0.2135 -0.7895 -0.2420
  428MOL0     C57674   0.638   1.164   9.939 -0.8633  0.4705  0.0443
  428MOL0     O57675   0.551   1.169   9.840  0.0546 -0.3704  0.2060
  428MOL0     C57676   0.472   1.069   9.826  0.6087 -0.2729  0.2068
  428MOL0     C57677   0.506   0.963   9.737 -0.1876  0.6566  0.3211
  428MOL0     C57678   0.415   0.861   9.711  0.2643 -0.4448  0.2393
  428MOL0     C57679   0.279   0.868   9.755 -0.5441  0.3831 -0.7947
  428MOL0     O57680   0.174   0.789   9.712  0.2161 -0.1824 -0.8441
  428MOL0     C57681   0.198   0.690   9.603 -0.1073  0.4502  0.5376
  428MOL0     C57682   0.095   0.720   9.485 -0.5196 -1.1077 -0.4282
  428MOL0     C57683   0.123   0.840   9.411 -0.3913  0.0324 -0.3663
  428MOL0     C57684   0.213   0.835   9.284  0.8068  1.1191 -0.7752
  428MOL0     C57685   0.229   0.964   9.203 -0.3890 -0.3012 -0.0466
  428MOL0     C57686   0.262   1.081   9.284  0.5271  0.3639 -0.0671
  428MOL0     C57687   0.383   1.072   9.374  0.8374  0.2314 -1.4717
  428MOL0     C57688   0.525   1.091   9.305 -0.1580 -0.2894  0.0758
  428MOL0    Cl57689   0.654   1.041   9.410 -0.1237 -0.3561  0.1301
  428MOL0     C57690   0.256   0.972   9.849 -0.2173 -0.4196 -0.1055
  428MOL0     C57691   0.350   1.064   9.889  0.2382 -0.2029  0.4464
  428MOL0     O57692   0.654   1.073  10.020 -0.1323  0.0260  0.3575
  428MOL0     C57693   0.825   1.297  10.039  0.1180 -0.3291  0.4381
  428MOL0     C57694   0.897   1.416  10.038 -1.4208  0.0971 -0.5284
  428MOL0     N57695   1.239   2.242   9.722 -0.1649  0.4631 -0.1060
  428MOL0     N57696   1.281   2.282   9.603 -0.3887 -0.8689 -0.9831
  428MOL0     C57697   1.407   2.973   9.331  0.2920  0.0106  0.5246
  428MOL0     C57698   1.372   3.111   9.345 -0.2166  0.2222  0.5601
  428MOL0     C57699   1.402   3.573   9.367 -0.7852  0.2190  0.0679
  428MOL0     C57700   1.471   3.683   9.324 -1.0212 -0.0127 -0.5161
  428MOL0     C57701   1.409   3.803   9.314  0.5756 -0.0914 -0.2994
  428MOL0     C57702   1.268   3.821   9.353 -0.3712  0.7102  0.5362
  428MOL0     O57703   1.200   3.943   9.361  0.8078 -0.1143  0.7000
  428MOL0     C57704   1.278   4.051   9.397 -0.2727  0.7137  0.1572
  428MOL0     C57705   1.174   4.131   9.474 -1.1868 -0.3013 -0.1968
  428MOL0     C57706   1.237   4.261   9.527 -0.0074  0.0256 -0.1002
  428MOL0     C57707   1.148   4.327   9.626  0.4380  0.2012 -0.4373
  428MOL0     C57708   1.205   4.439   9.698 -0.3914  0.1577 -0.6665
  428MOL0     C57709   1.248   4.532   9.748 -0.1711  0.3598 -0.2595
  428MOL0     C57710   1.207   3.709   9.400 -0.3344  0.0213 -0.5933
  428MOL0     C57711   1.265   3.585   9.401  0.0117  0.5540  0.5153
  428MOL0     C57712   1.181   3.485   9.454 -0.3972  0.9329 -0.3075
  428MOL0     H57713   1.687   3.239   9.389  3.0068 -2.6274 -2.9365
  428MOL0     H57714   1.735   2.997   9.398 -1.4076 -2.9145 -2.1552
  428MOL0     H57715   1.678   2.829   9.159  3.8407 -0.0203 -1.0136
  428MOL0     H57716   1.784   2.800   9.299  2.7414 -1.8726 -2.8395
  428MOL0     H57717   1.748   2.593   9.332 -0.4305  2.8936  1.8037
  428MOL0     H57718   1.779   2.613   9.161 -2.1831 -1.1659 -1.2256
  428MOL0     H57719   1.557   2.562   9.093 -0.2852  2.8599  0.6145
  428MOL0     H57720   1.501   2.559   9.260  0.6284 -2.2903  0.5400
  428MOL0     H57721   1.720   2.357   9.148 -0.1997  0.2021  0.4902
  428MOL0     H57722   1.649   2.364   9.307 -0.1663 -0.8820 -0.4257
  428MOL0     H57723   1.539   2.281   9.037  0.9497 -0.3877  0.2996
  428MOL0     H57724   1.570   2.181   9.177  2.2316  1.1634  1.4265
  428MOL0     H57725   1.349   2.399   9.129 -4.2406  0.9887  4.6383
  428MOL0     H57726   1.338   2.219   9.123  0.9321 -1.3854  1.3843
  428MOL0     H57727   1.250   2.290   9.335  0.6711 -0.2481 -0.4408
  428MOL0     H57728   1.380   2.398   9.374  2.3259 -0.5072 -0.4832
  428MOL0     H57729   1.424   2.094   9.364  1.7657 -0.0778  1.4302
  428MOL0     H57730   1.524   2.216   9.432  0.6194 -2.3230  0.1378
  428MOL0     H57731   1.398   1.987   9.607  1.8963  2.2448 -3.2839
  428MOL0     H57732   1.331   1.942   9.862 -0.4064 -1.3345  1.7639
  428MOL0     H57733   1.231   2.063   9.931  0.0857  1.5063 -1.1340
  428MOL0     H57734   1.045   1.988   9.764 -0.5995 -0.1182  1.8444
  428MOL0     H57735   1.162   1.854   9.707 -0.2508 -0.6373  0.8269
  428MOL0     H57736   1.026   1.875   9.971 -2.8857  0.7323 -2.2395
  428MOL0     H57737   1.182   1.785   9.951  0.3225  1.0830  0.5743
  428MOL0     H57738   1.042   1.673   9.755  1.8963  2.2371 -1.2922
  428MOL0     H57739   0.908   1.747   9.833  0.1303  2.0280  2.4673
  428MOL0     H57740   0.829   1.548   9.735 -1.1467  2.1520  2.1131
  428MOL0     H57741   0.676   1.350   9.738  0.9771  0.1617 -1.2565
  428MOL0     H57742   0.597   0.966   9.678 -0.7928 -0.2238 -0.7036
  428MOL0     H57743   0.456   0.790   9.640  2.8836  0.2978  0.8588
  428MOL0     H57744   0.295   0.671   9.557 -2.0429 -2.3837 -2.8505
  428MOL0     H57745   0.166   0.591   9.635 -0.0788  0.4212  0.4762
  428MOL0     H57746   0.070   0.636   9.420 -0.1337 -0.7172 -1.0888
  428MOL0     H57747   0.000   0.744   9.534 -0.9685  0.2278 -1.8728
  428MOL0     H57748   0.025   0.876   9.380 -1.5814  0.8404  3.7001
  428MOL0     H57749   0.163   0.915   9.480 -0.0243 -1.3156  0.9293
  428MOL0     H57750   0.173   0.747   9.233 -1.6013  0.4639  1.9409
  428MOL0     H57751   0.312   0.800   9.314 -0.3571  0.1263  2.3042
  428MOL0     H57752   0.137   0.995   9.152  0.3463  0.4183 -0.9698
  428MOL0     H57753   0.313   0.960   9.133  0.7388  2.8752  0.9496
  428MOL0     H57754   0.288   1.163   9.217  0.6338  1.8423  1.7010
  428MOL0     H57755   0.187   1.101   9.360  2.6113  1.1096  1.9282
  428MOL0     H57756   0.385   0.979   9.431  0.0225  1.2021  0.2313
  428MOL0     H57757   0.377   1.160   9.440 -3.9375 -1.2250  0.5236
  428MOL0     H57758   0.544   1.027   9.219  2.3947 -2.1534  1.8933
  428MOL0     H57759   0.535   1.197   9.280 -1.9242 -0.4895 -1.7345
  428MOL0     H57760   0.158   0.973   9.894  0.6670  1.8981  1.9998
  428MOL0     H57761   0.320   1.150   9.948 -1.2942  0.7777 -1.5967
  428MOL0     H57762   0.830   1.225  10.120  1.8111 -0.0439  0.6425
  428MOL0     H57763   0.966   1.445  10.117  0.2876 -1.7206 -1.2603
  428MOL0     H57764   1.333   2.894   9.315  0.8369 -0.2270 -1.0526
  428MOL0     H57765   1.268   3.142   9.349  0.4248  2.4484  1.7347
  428MOL0     H57766   1.575   3.669   9.297 -0.9835 -0.6873 -0.0424
  428MOL0     H57767   1.477   3.881   9.283  1.7740 -0.4256  1.3278
  428MOL0     H57768   1.296   4.102   9.302 -1.5492 -2.6786 -2.0934
  428MOL0     H57769   1.372   4.029   9.448  0.5104  1.8317 -0.7639
  428MOL0     H57770   1.140   4.064   9.554 -2.6863  0.4083 -0.2039
  428MOL0     H57771   1.083   4.152   9.416 -0.9198 -0.9556 -0.8722
  428MOL0     H57772   1.250   4.334   9.446  1.4836  1.6923  1.5594
  428MOL0     H57773   1.334   4.241   9.572  0.9957  2.6489 -0.9326
  428MOL0     H57774   1.056   4.371   9.588 -0.6364 -2.5427 -1.2786
  428MOL0     H57775   1.122   4.257   9.707 -2.1209  2.2284  0.6303
  428MOL0     H57776   1.298   4.611   9.800 -1.9473 -0.8412  3.5775
  428MOL0     H57777   1.108   3.722   9.442 -1.5551  2.0295 -3.7099
  428MOL0     H57778   1.198   3.390   9.402  2.2444  0.5716  1.0115
  428MOL0     H57779   1.165   3.472   9.562 -1.5183 -0.2897 -0.5931
  428MOL0     H57780   1.077   3.506   9.429 -0.2091  0.0209 -2.0240
  429MOL0     O57781  10.576   2.495   5.021  0.2529  0.2484 -0.0194
  429MOL0     C57782  10.554   2.385   4.966 -1.5535 -0.1278  0.1451
  429MOL0     O57783  10.656   2.304   4.927  0.1451  0.0426  0.1225
  429MOL0     C57784  10.790   2.340   4.920 -0.1895  0.1688 -1.2339
  429MOL0     C57785  10.825   2.469   4.883 -0.3250 -0.3333  0.4355
  429MOL0     C57786  10.967   2.499   4.874 -0.0707  0.3091  1.2411
  429MOL0     C57787  11.065   2.422   4.930  0.9034 -0.0792 -0.2196
  429MOL0     O57788  11.187   2.476   4.921 -0.3463  1.3342 -0.4037
  429MOL0     C57789  11.296   2.397   4.954 -0.4032 -0.3139  0.5875
  429MOL0     C57790  11.412   2.449   4.870 -0.2370 -0.5682 -0.7539
  429MOL0     C57791  11.441   2.597   4.888 -0.6638 -0.8704  0.2458
  429MOL0     C57792  11.575   2.629   4.819  0.3959 -0.7938  0.1133
  429MOL0     C57793  11.597   2.573   4.677 -0.0722  0.4972  0.1594
  429MOL0     C57794  11.728   2.605   4.601  0.0968 -0.3096 -0.7354
  429MOL0     C57795  11.856   2.555   4.665 -0.2624 -0.5967  0.0489
  429MOL0     C57796  11.972   2.597   4.573 -0.3634  0.1220  0.7250
  429MOL0     N57797  12.011   2.736   4.589  0.7434  0.3054 -0.1381
  429MOL0     C57798  12.086   2.780   4.692 -0.1430  0.5608  0.9667
  429MOL0     C57799  12.136   2.901   4.660 -0.2488 -0.3609 -0.3961
  429MOL0     C57800  12.232   2.995   4.728 -0.3892  0.5281  0.9923
  429MOL0     C57801  12.187   3.134   4.733  0.2657  0.2430  0.2909
  429MOL0     C57802  12.272   3.224   4.818 -0.4404  0.1937  0.2498
  429MOL0     C57803  12.245   3.364   4.782  0.4322  0.0677 -0.4558
  429MOL0     O57804  12.334   3.459   4.843 -0.7684  0.1902  0.3176
  429MOL0     C57805  12.294   3.596   4.861  0.6138  0.4849  0.2148
  429MOL0     C57806  12.176   3.643   4.807  0.5368  0.0042 -0.1846
  429MOL0     C57807  12.123   3.764   4.837 -0.4193 -0.7864 -0.2928
  429MOL0     C57808  12.193   3.849   4.923 -0.1826 -0.2255  0.3562
  429MOL0     C57809  12.138   3.984   4.953  1.1331 -0.3400 -0.5640
  429MOL0     O57810  12.200   4.059   5.042  0.3722 -0.4269 -0.2805
  429MOL0     C57811  12.118   4.139   5.116  0.3771  0.3689 -1.3000
  429MOL0     C57812  12.125   4.276   5.093  0.6871  0.1697  0.9979
  429MOL0     C57813  12.041   4.351   5.172  0.0605 -1.2505 -0.1798
  429MOL0     C57814  11.962   4.306   5.272  0.3649 -0.3180  0.8745
  429MOL0     O57815  11.898   4.390   5.364  0.0228 -0.9045 -0.3789
  429MOL0     C57816  11.839   4.514   5.318  0.1144  0.3836  0.4167
  429MOL0     C57817  11.734   4.493   5.215  0.6051 -0.1298 -0.3515
  429MOL0     C57818  11.635   4.383   5.240  0.1684  1.0989  0.5542
  429MOL0     C57819  11.564   4.338   5.114 -0.2247  0.8226 -0.3897
  429MOL0     C57820  11.476   4.209   5.131  0.5939 -0.1292  0.3527
  429MOL0     C57821  11.570   4.090   5.107  0.6234 -0.8013  0.6852
  429MOL0     C57822  11.521   3.947   5.107  0.1462  0.1852  0.3214
  429MOL0     C57823  11.385   3.941   5.036 -1.3141  0.3569  0.3109
  429MOL0    Cl57824  11.314   3.789   5.050 -0.2555 -0.2251 -0.4650
  429MOL0     C57825  11.953   4.170   5.290 -0.2975  0.0577 -0.4880
  429MOL0     C57826  12.038   4.085   5.220  0.1633  0.6110  0.1887
  429MOL0     O57827  12.029   4.021   4.901  0.0253  0.5188 -0.1817
  429MOL0     C57828  12.318   3.815   4.979  0.3397 -0.7160 -0.0741
  429MOL0     C57829  12.363   3.685   4.937 -0.8218 -0.2409  0.6360
  429MOL0     N57830  12.083   2.926   4.529  0.0027  0.6628  0.1361
  429MOL0     N57831  12.019   2.818   4.484  0.5031 -0.0849  0.0773
  429MOL0     C57832  11.021   2.301   4.983 -1.0657  0.3552 -0.5145
  429MOL0     C57833  10.890   2.254   4.964  0.0377 -0.4602 -0.8699
  429MOL0     C57834  10.424   2.324   4.957  0.6157  0.9631  0.5064
  429MOL0     C57835  10.316   2.387   5.024 -0.1072  0.8062  0.9544
  429MOL0     C57836  10.182   2.351   5.009  0.9969 -1.0823 -0.4549
  429MOL0     C57837  10.159   2.236   4.944  0.0272 -0.6005  0.5065
  429MOL0     O57838  10.035   2.197   4.949  0.2685  0.6598  0.1669
  429MOL0     C57839  10.009   2.126   5.073 -0.1544 -0.2511 -0.2507
  429MOL0     C57840   9.875   2.170   5.130 -1.1877  0.3823  0.3497
  429MOL0     C57841   9.816   2.065   5.221  0.5538 -0.4696  0.0015
  429MOL0     C57842   9.685   2.005   5.179  0.5012  0.4549 -0.6467
  429MOL0     C57843   9.709   1.944   5.051 -0.6879  0.5076  0.4637
  429MOL0     C57844   9.711   1.905   4.940 -0.1784 -1.6494  0.4063
  429MOL0     C57845  10.258   2.158   4.884 -0.5112 -0.1359 -1.7328
  429MOL0     C57846  10.394   2.207   4.876  0.3838 -0.5030  0.6347
  429MOL0     C57847  10.491   2.142   4.762 -0.0499 -0.5084  0.3658
  429MOL0     H57848  10.762   2.543   4.834 -1.8667 -3.7546 -3.3189
  429MOL0     H57849  11.007   2.595   4.842 -0.1215  0.7640  2.5127
  429MOL0     H57850  11.320   2.407   5.060  1.1174  3.5623  0.0552
  429MOL0     H57851  11.285   2.289   4.941  1.4526 -0.2988 -1.6097
  429MOL0     H57852  11.389   2.424   4.766 -1.3048 -0.6794 -0.5079
  429MOL0     H57853  11.508   2.404   4.893  0.1839  1.4510  1.9166
  429MOL0     H57854  11.460   2.622   4.993  4.1281 -2.0562 -0.0873
  429MOL0     H57855  11.358   2.644   4.835 -0.1298 -0.8487 -0.6042
  429MOL0     H57856  11.591   2.737   4.824  0.7904 -0.8937  1.2324
  429MOL0     H57857  11.649   2.594   4.891 -0.9894 -0.7217  1.6360
  429MOL0     H57858  11.586   2.464   4.679 -2.6208  0.6991  0.0894
  429MOL0     H57859  11.521   2.613   4.610  1.2508  3.5088  0.2869
  429MOL0     H57860  11.705   2.552   4.508 -0.4482 -0.8544 -0.2985
  429MOL0     H57861  11.741   2.712   4.586 -1.3123 -0.1584 -1.0086
  429MOL0     H57862  11.853   2.446   4.673 -1.0511 -0.5180  1.1816
  429MOL0     H57863  11.857   2.588   4.769 -0.7292  4.1073 -1.2328
  429MOL0     H57864  12.062   2.536   4.583 -0.7755 -0.2316  2.6519
  429MOL0     H57865  11.934   2.582   4.472 -1.6733  0.8819  1.0725
  429MOL0     H57866  12.120   2.732   4.783 -0.1664  1.9640  1.7489
  429MOL0     H57867  12.227   2.947   4.826 -3.1626 -3.2157 -0.7570
  429MOL0     H57868  12.332   2.985   4.686 -1.6604  1.7921 -2.7336
  429MOL0     H57869  12.194   3.175   4.632  0.9930  1.4460  0.7990
  429MOL0     H57870  12.084   3.138   4.771  1.9156  1.0284  5.5851
  429MOL0     H57871  12.379   3.210   4.801 -0.1439  2.8441 -0.3844
  429MOL0     H57872  12.253   3.206   4.925  1.9385 -2.0933  0.3938
  429MOL0     H57873  12.146   3.385   4.823  1.2852 -2.2457  3.2092
  429MOL0     H57874  12.256   3.372   4.673  1.7502 -0.5739 -0.3891
  429MOL0     H57875  12.106   3.582   4.751  0.5263 -1.0626  0.9573
  429MOL0     H57876  12.030   3.803   4.796 -1.8182 -2.1151  1.4873
  429MOL0     H57877  12.185   4.303   5.007  0.6900 -0.0299  0.9360
  429MOL0     H57878  12.049   4.459   5.156  0.2382 -1.0469  1.1494
  429MOL0     H57879  11.802   4.570   5.404  1.4930 -1.0457  2.0280
  429MOL0     H57880  11.915   4.576   5.269  4.1285 -2.5403  2.3616
  429MOL0     H57881  11.685   4.588   5.189  0.2625 -0.1498  0.2078
  429MOL0     H57882  11.776   4.470   5.116 -1.7863 -2.8885 -0.8649
  429MOL0     H57883  11.684   4.297   5.288 -4.1055 -2.1325 -0.2567
  429MOL0     H57884  11.559   4.395   5.317 -1.4490 -7.7651  1.3865
  429MOL0     H57885  11.635   4.314   5.034 -0.6856  0.9816 -0.8570
  429MOL0     H57886  11.498   4.414   5.071  3.1415  3.0669 -2.0583
  429MOL0     H57887  11.394   4.213   5.058  2.5294 -2.2706 -2.1331
  429MOL0     H57888  11.434   4.201   5.232  0.2501  0.1055  0.2305
  429MOL0     H57889  11.627   4.103   5.014  3.0115 -0.6863  2.0951
  429MOL0     H57890  11.644   4.100   5.187  0.6760  1.2640  0.4398
  429MOL0     H57891  11.511   3.909   5.209  1.7186 -0.7869  0.1502
  429MOL0     H57892  11.602   3.890   5.060 -0.2450 -0.5662  0.5471
  429MOL0     H57893  11.314   4.014   5.076 -1.5107 -0.1465  0.8861
  429MOL0     H57894  11.387   3.966   4.929 -0.7287  2.5951  0.7986
  429MOL0     H57895  11.905   4.137   5.382  0.5265  0.1369 -0.0175
  429MOL0     H57896  12.058   3.985   5.257  0.5733  2.0305  4.3146
  429MOL0     H57897  12.384   3.874   5.042 -1.9135  1.6671  0.2436
  429MOL0     H57898  12.462   3.657   4.973  0.6835  1.5242 -1.7377
  429MOL0     H57899  11.086   2.237   5.041  3.8290  2.8196 -2.7368
  429MOL0     H57900  10.843   2.165   5.003 -2.6504  0.3412 -2.0665
  429MOL0     H57901  10.360   2.468   5.081  4.9126  2.0824 -3.8339
  429MOL0     H57902  10.099   2.409   5.046  1.1622 -0.1688 -1.4559
  429MOL0     H57903  10.084   2.135   5.153  1.0145 -0.4929 -1.2916
  429MOL0     H57904  10.001   2.018   5.054 -1.2828 -0.1052 -0.6438
  429MOL0     H57905   9.811   2.200   5.047 -2.9642  0.8266  1.8129
  429MOL0     H57906   9.892   2.259   5.191 -1.4622  1.6717 -1.4078
  429MOL0     H57907   9.790   2.103   5.320  1.7642  2.1238 -0.5712
  429MOL0     H57908   9.892   1.988   5.233 -0.1849 -1.2358 -0.1650
  429MOL0     H57909   9.649   1.928   5.248  1.1305 -0.4084 -1.2575
  429MOL0     H57910   9.600   2.074   5.178 -0.7452 -1.0033 -2.2817
  429MOL0     H57911   9.713   1.871   4.838 -3.9388 -1.4412  0.1150
  429MOL0     H57912  10.224   2.068   4.832  1.8516 -1.8344 -0.5086
  429MOL0     H57913  10.578   2.093   4.807  0.4145 -0.2826 -0.2550
  429MOL0     H57914  10.435   2.078   4.693  0.2897 -0.0560 -0.3506
  429MOL0     H57915  10.548   2.220   4.709  1.6664 -0.0170  2.7671
  430MOL0     O57916   7.250   8.019   4.268 -0.2757 -0.0152 -0.0003
  430MOL0     C57917   7.307   8.110   4.336 -0.2398  0.0227  0.5609
  430MOL0     O57918   7.253   8.183   4.438 -0.3056 -0.2890 -0.2337
  430MOL0     C57919   7.113   8.194   4.464 -0.2769  0.4852 -0.2732
  430MOL0     C57920   7.064   8.230   4.589  0.4790 -0.1530 -0.3291
  430MOL0     C57921   6.928   8.240   4.610 -0.4663  0.6221  0.2259
  430MOL0     C57922   6.832   8.207   4.519  0.1114 -0.0051  1.0327
  430MOL0     O57923   6.700   8.237   4.520  0.9928  0.0625 -0.1056
  430MOL0     C57924   6.643   8.296   4.635 -0.3446 -0.8380  0.9678
  430MOL0     C57925   6.649   8.449   4.621 -0.8586 -0.2936 -0.1157
  430MOL0     C57926   6.573   8.522   4.728  0.4851  0.1905  0.1660
  430MOL0     C57927   6.647   8.638   4.798 -0.5524  0.0395 -0.8094
  430MOL0     C57928   6.613   8.779   4.729  0.1473  0.8608 -0.4510
  430MOL0     C57929   6.717   8.892   4.775  0.4262  0.6589 -0.3734
  430MOL0     C57930   6.856   8.879   4.711 -0.3646  0.4973  0.2854
  430MOL0     C57931   6.921   9.014   4.672  0.2628 -0.9560  0.5346
  430MOL0     N57932   6.850   9.086   4.560  0.1174  0.0407 -0.2039
  430MOL0     C57933   6.842   9.044   4.427 -0.5224  0.3736  0.2718
  430MOL0     C57934   6.748   9.122   4.368  0.0636 -0.3512 -0.5899
  430MOL0     C57935   6.690   9.108   4.226  0.3276  0.5807  0.4060
  430MOL0     C57936   6.751   9.205   4.124 -0.5102 -0.1550  1.0749
  430MOL0     C57937   6.703   9.196   3.986 -0.9408  0.2530 -0.0413
  430MOL0     C57938   6.818   9.232   3.895  0.0564  0.0831  0.2445
  430MOL0     O57939   6.758   9.193   3.769 -0.4148  0.1682  0.3033
  430MOL0     C57940   6.825   9.238   3.660  0.6234 -0.0886 -0.9029
  430MOL0     C57941   6.755   9.223   3.533 -0.4667  0.0280 -0.1770
  430MOL0     C57942   6.806   9.278   3.416 -0.0633  0.2036  0.7197
  430MOL0     C57943   6.932   9.344   3.411 -0.4090  0.4096 -0.1751
  430MOL0     C57944   6.998   9.388   3.292  0.2207  0.2782  0.6765
  430MOL0     O57945   7.121   9.431   3.297 -0.2528 -0.2086  0.0557
  430MOL0     C57946   7.170   9.513   3.200 -1.0361 -0.7219 -0.2487
  430MOL0     C57947   7.314   9.513   3.195  0.9585  0.6361  0.3396
  430MOL0     C57948   7.379   9.588   3.088 -0.0338 -0.1132  0.2336
  430MOL0     C57949   7.301   9.661   2.997 -0.3565  0.0468 -0.8090
  430MOL0     O57950   7.370   9.725   2.898  0.7527  0.5714 -1.3472
  430MOL0     C57951   7.312   9.827   2.828  0.0216  0.4233  0.7535
  430MOL0     C57952   7.416   9.876   2.734 -0.1253  0.5305  0.2839
  430MOL0     C57953   7.526   9.953   2.804  0.3724  0.5291  0.1096
  430MOL0     C57954   7.587   9.902   2.932 -0.8679  0.3481  0.1846
  430MOL0     C57955   7.702  10.005   2.969 -0.0937  0.0158  0.6707
  430MOL0     C57956   7.646  10.103   3.068  0.6528 -0.5867 -0.1811
  430MOL0     C57957   7.748  10.147   3.171 -0.0139 -1.1573 -0.2854
  430MOL0     C57958   7.693  10.242   3.279 -0.5252 -0.3452  0.3505
  430MOL0    Cl57959   7.570  10.144   3.366 -0.3683  0.0669 -0.1242
  430MOL0     C57960   7.160   9.659   3.013 -0.3159 -0.1724 -0.7573
  430MOL0     C57961   7.097   9.587   3.112  0.2161  0.1658 -0.5335
  430MOL0     O57962   6.928   9.388   3.194  0.3080  1.0047  0.5011
  430MOL0     C57963   7.002   9.348   3.531 -0.9848 -0.5169  0.4727
  430MOL0     C57964   6.954   9.291   3.647 -0.3667 -0.9706 -0.5475
  430MOL0     N57965   6.714   9.228   4.459 -0.6978  1.2148  0.3701
  430MOL0     N57966   6.775   9.208   4.570  0.1945  0.7251  0.2316
  430MOL0     C57967   6.874   8.170   4.394 -0.1242  0.7846 -0.5975
  430MOL0     C57968   7.015   8.171   4.362 -0.5715  0.1822 -0.3744
  430MOL0     C57969   7.463   8.134   4.314  0.8414  0.4917  0.2910
  430MOL0     C57970   7.530   8.166   4.424 -0.4339 -0.4396 -0.0609
  430MOL0     C57971   7.667   8.178   4.419 -0.7443 -0.7314  0.1049
  430MOL0     C57972   7.748   8.154   4.305 -0.0916  0.5162 -0.2663
  430MOL0     O57973   7.888   8.174   4.312 -0.4152  1.0319 -0.3602
  430MOL0     C57974   7.978   8.114   4.215 -0.2177  0.1271  0.9374
  430MOL0     C57975   7.970   7.964   4.205 -0.4243  1.3570  0.3501
  430MOL0     C57976   8.040   7.893   4.311  0.0778  1.2441 -0.1209
  430MOL0     C57977   8.133   7.782   4.263 -0.0322  0.3957  0.0765
  430MOL0     C57978   8.063   7.670   4.207 -0.0986 -0.7570  1.0077
  430MOL0     C57979   8.011   7.569   4.173  0.3990 -0.2335  0.3812
  430MOL0     C57980   7.678   8.103   4.196  0.1403 -0.5810  0.8953
  430MOL0     C57981   7.536   8.097   4.201 -0.1125 -0.0374  0.4636
  430MOL0     C57982   7.466   8.061   4.076 -0.9511 -0.0296  0.2166
  430MOL0     H57983   7.125   8.240   4.678 -2.1583 -1.6880  1.8363
  430MOL0     H57984   6.893   8.274   4.707  0.8939  3.3830 -0.1527
  430MOL0     H57985   6.542   8.255   4.634  0.0381 -2.2030 -3.8289
  430MOL0     H57986   6.680   8.265   4.734 -2.0715 -0.0251  1.9059
  430MOL0     H57987   6.612   8.486   4.525  1.1282  1.4185 -0.2965
  430MOL0     H57988   6.755   8.477   4.616 -0.3791 -0.8708  3.8714
  430MOL0     H57989   6.545   8.448   4.803  2.8724  0.0400  0.9663
  430MOL0     H57990   6.486   8.571   4.682  1.5222  2.7734  0.7764
  430MOL0     H57991   6.608   8.654   4.899  0.6246  5.6164 -0.9164
  430MOL0     H57992   6.751   8.611   4.816 -1.1868 -1.9059  0.3247
  430MOL0     H57993   6.625   8.765   4.621 -0.0313 -0.2635 -0.3358
  430MOL0     H57994   6.507   8.803   4.745  0.0973 -0.6886  1.9497
  430MOL0     H57995   6.680   8.991   4.745  2.9321  2.3723  1.8009
  430MOL0     H57996   6.719   8.901   4.884 -3.3298 -0.2994 -0.0851
  430MOL0     H57997   6.835   8.818   4.623  2.8278 -1.5374  0.7792
  430MOL0     H57998   6.934   8.823   4.765  0.3657 -0.2892 -1.5078
  430MOL0     H57999   6.911   9.072   4.764 -1.4864 -1.4562  0.7080
  430MOL0     H58000   7.022   8.995   4.636 -0.1229 -2.3425  0.1248
  430MOL0     H58001   6.907   8.967   4.385  1.4325  0.6685  2.5335
  430MOL0     H58002   6.685   9.004   4.193  1.5865  0.4977  0.4197
  430MOL0     H58003   6.585   9.137   4.235  0.4521  0.5046  3.1069
  430MOL0     H58004   6.729   9.302   4.170  0.2522  1.2494 -1.3828
  430MOL0     H58005   6.858   9.185   4.134 -0.9859 -2.4027  2.4045
  430MOL0     H58006   6.611   9.254   3.977 -1.8528 -0.8369  1.7730
  430MOL0     H58007   6.677   9.090   3.975 -2.8013  0.8118 -1.5294
  430MOL0     H58008   6.911   9.180   3.917 -0.8395 -2.8971 -2.2659
  430MOL0     H58009   6.826   9.341   3.897 -2.2839  0.3183  0.3360
  430MOL0     H58010   6.655   9.181   3.520 -0.6511  0.4667 -0.2008
  430MOL0     H58011   6.751   9.270   3.323  1.2711  2.2975 -0.3486
  430MOL0     H58012   7.367   9.452   3.267 -0.2385 -2.2855 -1.0695
  430MOL0     H58013   7.485   9.572   3.067  0.1464 -0.7692  1.5873
  430MOL0     H58014   7.224   9.798   2.770 -1.9742  1.5846  3.0344
  430MOL0     H58015   7.277   9.909   2.891  0.1962 -0.0308  1.4494
  430MOL0     H58016   7.448   9.786   2.679 -1.7910 -0.0918  0.2876
  430MOL0     H58017   7.379   9.957   2.670 -1.1789  1.5464  2.1171
  430MOL0     H58018   7.605   9.946   2.729 -0.7111 -0.5635 -0.9881
  430MOL0     H58019   7.502  10.056   2.830  3.1539  0.5983  2.9916
  430MOL0     H58020   7.642   9.812   2.903  0.5245  1.7455 -1.7653
  430MOL0     H58021   7.514   9.885   3.011  0.2793  0.5484  1.3090
  430MOL0     H58022   7.745  10.048   2.878  1.5165 -0.3355  1.2271
  430MOL0     H58023   7.793   9.964   3.014  2.4703  4.6529  0.3553
  430MOL0     H58024   7.623  10.190   3.005 -2.8885 -0.0088  1.6753
  430MOL0     H58025   7.554  10.069   3.116 -0.2061  2.2481  0.3776
  430MOL0     H58026   7.831  10.199   3.123 -1.7875  1.4167 -0.7931
  430MOL0     H58027   7.791  10.058   3.218  0.6385 -1.5863 -1.6439
  430MOL0     H58028   7.771  10.281   3.344 -1.3534  2.2358 -0.1173
  430MOL0     H58029   7.643  10.326   3.231  1.0223  0.1679 -0.4252
  430MOL0     H58030   7.095   9.708   2.941 -5.7397 -1.2564  2.8200
  430MOL0     H58031   6.991   9.590   3.133  0.5769  1.0415  1.4961
  430MOL0     H58032   7.104   9.386   3.538 -0.6658 -1.4767  1.3955
  430MOL0     H58033   7.016   9.293   3.736 -4.0950  0.9257  2.2924
  430MOL0     H58034   6.787   8.156   4.331 -1.3760  0.1448  1.2106
  430MOL0     H58035   7.043   8.136   4.263  0.6332 -1.4280  0.4954
  430MOL0     H58036   7.480   8.192   4.517  2.1187 -0.4349  1.4038
  430MOL0     H58037   7.713   8.214   4.510  1.8221 -2.2181 -0.5144
  430MOL0     H58038   8.083   8.136   4.238  1.0606 -3.8012 -0.3737
  430MOL0     H58039   7.955   8.162   4.119 -1.9020 -0.3255  1.0754
  430MOL0     H58040   8.022   7.934   4.113  3.5877 -1.5939  3.2406
  430MOL0     H58041   7.870   7.920   4.192  0.6869 -0.9150 -1.3602
  430MOL0     H58042   7.954   7.853   4.367 -3.2790  2.5727 -3.8208
  430MOL0     H58043   8.096   7.964   4.372  0.0277  2.2785 -1.2279
  430MOL0     H58044   8.221   7.819   4.209  1.2846 -0.3409  1.6413
  430MOL0     H58045   8.174   7.745   4.357  2.1188 -2.8663 -1.9668
  430MOL0     H58046   7.976   7.470   4.153  2.3180 -0.8878  0.1144
  430MOL0     H58047   7.728   8.077   4.103 -2.6883 -1.9485 -0.3854
  430MOL0     H58048   7.382   8.129   4.062 -0.6924 -0.2249 -2.9918
  430MOL0     H58049   7.537   8.088   3.998 -0.2669 -0.4683  0.6688
  430MOL0     H58050   7.433   7.958   4.060  1.1868 -0.8590  0.7987
  431MOL0     O58051   2.871  10.895   4.878  0.0197  0.0024 -0.0295
  431MOL0     C58052   2.758  10.891   4.833 -0.0727 -0.4321 -0.0948
  431MOL0     O58053   2.723  10.948   4.721  0.8258  0.1802 -0.0960
  431MOL0     C58054   2.819  10.998   4.636 -0.5117 -0.5046  0.6451
  431MOL0     C58055   2.810  11.125   4.579  0.2867  0.4246  0.6138
  431MOL0     C58056   2.902  11.167   4.488  0.1381  0.0808 -0.5936
  431MOL0     C58057   3.010  11.088   4.436 -0.2837  0.0258 -0.1076
  431MOL0     O58058   3.097  11.130   4.338  0.7230 -0.8184  0.3431
  431MOL0     C58059   3.080  11.254   4.264 -0.2572  0.3864 -0.7672
  431MOL0     C58060   2.978  11.247   4.150 -0.0577  1.0008 -1.3064
  431MOL0     C58061   3.012  11.321   4.020  0.2698  0.1184  0.1282
  431MOL0     C58062   3.127  11.272   3.935 -0.6074  0.9476 -0.0259
  431MOL0     C58063   3.143  11.360   3.806 -0.3460  0.5640  0.6070
  431MOL0     C58064   3.184  11.504   3.845 -1.3166  0.3340 -0.1029
  431MOL0     C58065   3.232  11.596   3.718  1.1649  0.1510 -0.1169
  431MOL0     C58066   3.301  11.722   3.776 -0.8737 -0.0903  0.2202
  431MOL0     N58067   3.211  11.821   3.845 -0.8683 -0.7295  0.1466
  431MOL0     C58068   3.118  11.884   3.770  0.4807  1.1263  0.8386
  431MOL0     C58069   3.072  11.984   3.851 -0.0981  0.5689  0.2045
  431MOL0     C58070   2.975  12.092   3.801 -0.4248 -0.9276  0.3909
  431MOL0     C58071   2.864  12.044   3.709  0.0476  0.0031  0.4071
  431MOL0     C58072   2.758  12.157   3.677 -0.3004  0.0713 -0.0462
  431MOL0     C58073   2.638  12.108   3.607 -0.6674  0.0715 -0.4890
  431MOL0     O58074   2.642  11.996   3.514  0.6212  0.6057 -0.6964
  431MOL0     C58075   2.682  12.020   3.388 -0.2889  0.4751  0.3777
  431MOL0     C58076   2.753  12.135   3.349  0.0428  0.6892 -0.0866
  431MOL0     C58077   2.782  12.154   3.215 -0.4761  0.1025  0.2370
  431MOL0     C58078   2.754  12.057   3.122 -0.9296 -0.2533  0.0970
  431MOL0     C58079   2.800  12.066   2.985 -0.9099 -1.5577  0.3522
  431MOL0     O58080   2.814  12.188   2.929  0.2620 -0.4554 -0.2709
  431MOL0     C58081   2.885  12.208   2.811 -0.1031  0.7113  0.4723
  431MOL0     C58082   3.022  12.212   2.825  0.3359  0.0931 -0.3910
  431MOL0     C58083   3.113  12.203   2.722  0.1617  0.4521 -0.0924
  431MOL0     C58084   3.061  12.197   2.596  1.0738 -0.5617  0.1648
  431MOL0     O58085   3.145  12.185   2.492 -0.1916 -0.0697  0.9664
  431MOL0     C58086   3.161  12.297   2.402  0.0838  0.5848  0.0487
  431MOL0     C58087   3.318  12.291   2.372  0.4956  0.6075 -0.1686
  431MOL0     C58088   3.370  12.400   2.292 -0.6264  0.1203 -0.0046
  431MOL0     C58089   3.527  12.402   2.303  0.7943  0.1258  0.4551
  431MOL0     C58090   3.589  12.511   2.217  0.6305  0.5457 -0.0001
  431MOL0     C58091   3.563  12.515   2.067 -0.9394  0.4100  0.0431
  431MOL0     C58092   3.581  12.655   2.009 -0.2043 -0.2885  0.2367
  431MOL0     C58093   3.576  12.648   1.857  0.7915 -0.2677  0.4635
  431MOL0    Cl58094   3.565  12.810   1.786 -0.2268  0.3387  0.0796
  431MOL0     C58095   2.927  12.173   2.579  0.4472  0.0353 -0.0256
  431MOL0     C58096   2.838  12.167   2.681  0.7261 -0.4751  0.1780
  431MOL0     O58097   2.843  11.969   2.923  0.2042 -0.4452 -1.7374
  431MOL0     C58098   2.702  11.933   3.170 -0.7590 -0.6029  0.2523
  431MOL0     C58099   2.655  11.918   3.300 -0.0257  0.4542 -0.8923
  431MOL0     N58100   3.143  11.986   3.966  0.1026 -0.1791  0.7197
  431MOL0     N58101   3.226  11.887   3.961  0.1355 -0.8365  0.5497
  431MOL0     C58102   3.022  10.961   4.497 -0.3859 -0.3848 -0.5036
  431MOL0     C58103   2.926  10.913   4.599  0.1697  0.0394 -0.3197
  431MOL0     C58104   2.642  10.831   4.909  0.0484  0.0810  0.3652
  431MOL0     C58105   2.519  10.852   4.860 -0.1259 -0.0841  1.2573
  431MOL0     C58106   2.404  10.784   4.908  0.4500 -1.4016 -0.2989
  431MOL0     C58107   2.416  10.702   5.021  0.1322  1.3031 -0.0563
  431MOL0     O58108   2.307  10.636   5.086  0.0945 -0.7175  0.0632
  431MOL0     C58109   2.191  10.597   5.012  0.3597 -0.1273  0.7309
  431MOL0     C58110   2.079  10.700   5.008  0.5492 -0.7326 -0.1011
  431MOL0     C58111   1.948  10.637   4.961  0.5208  0.2474  0.6366
  431MOL0     C58112   1.892  10.521   5.048  0.0120  0.2730  0.4231
  431MOL0     C58113   1.849  10.575   5.176  0.1951 -0.5222 -0.1880
  431MOL0     C58114   1.802  10.626   5.278 -0.4807  0.2679 -0.3692
  431MOL0     C58115   2.547  10.667   5.056  0.0561 -0.4414  0.0663
  431MOL0     C58116   2.664  10.728   4.997 -0.3827 -0.0246 -0.4884
  431MOL0     C58117   2.801  10.668   5.041 -0.5990 -0.0076  0.3958
  431MOL0     H58118   2.728  11.193   4.602  0.6537  1.9083 -2.0838
  431MOL0     H58119   2.885  11.264   4.443  0.6870 -0.0681 -1.1426
  431MOL0     H58120   3.073  11.347   4.322 -1.1325  1.0034 -1.8137
  431MOL0     H58121   3.177  11.280   4.220 -1.4391  2.4564 -2.3516
  431MOL0     H58122   2.884  11.281   4.195 -1.0578 -0.6078 -2.0615
  431MOL0     H58123   2.941  11.145   4.134 -0.6714  0.5135  2.2465
  431MOL0     H58124   3.026  11.426   4.044 -0.2201  0.4410 -0.9247
  431MOL0     H58125   2.923  11.318   3.956  1.6225  0.8305 -1.8616
  431MOL0     H58126   3.216  11.249   3.994 -1.5331 -0.0511  1.0306
  431MOL0     H58127   3.098  11.177   3.889 -0.3376  1.1430 -0.6092
  431MOL0     H58128   3.212  11.315   3.734 -0.7489  1.2691 -0.2281
  431MOL0     H58129   3.048  11.346   3.755  0.1220 -1.9706  0.2875
  431MOL0     H58130   3.098  11.558   3.885 -0.3542  5.3483 -3.7939
  431MOL0     H58131   3.262  11.487   3.920 -0.5222 -2.5524 -1.4141
  431MOL0     H58132   3.160  11.614   3.637  1.3637 -0.7979 -0.5061
  431MOL0     H58133   3.309  11.542   3.663 -0.3996 -1.8033 -0.4941
  431MOL0     H58134   3.376  11.688   3.849  0.2252 -0.0946 -0.8724
  431MOL0     H58135   3.361  11.750   3.689 -2.4574 -4.3938 -2.5600
  431MOL0     H58136   3.078  11.863   3.672 -0.2211 -2.3136  1.7102
  431MOL0     H58137   2.931  12.147   3.884  2.8859  1.5768  0.6677
  431MOL0     H58138   3.042  12.166   3.756  1.6387 -2.6718  0.3823
  431MOL0     H58139   2.894  12.002   3.613  0.4440  0.1970  0.4481
  431MOL0     H58140   2.820  11.962   3.768 -2.1672  2.6516  2.7229
  431MOL0     H58141   2.811  12.236   3.624 -1.4189  2.7663  2.5894
  431MOL0     H58142   2.720  12.204   3.768 -3.7980  3.7623 -3.0505
  431MOL0     H58143   2.602  12.193   3.548 -2.1272  0.6614  1.1714
  431MOL0     H58144   2.563  12.094   3.686 -0.4615  2.0808  0.1328
  431MOL0     H58145   2.793  12.208   3.418  1.4849  0.1957 -0.3653
  431MOL0     H58146   2.835  12.246   3.191 -0.7428 -0.3250 -2.1686
  431MOL0     H58147   3.054  12.217   2.929  0.4247  1.9236 -0.4840
  431MOL0     H58148   3.218  12.201   2.748 -0.2846  1.2292  1.9778
  431MOL0     H58149   3.101  12.275   2.313 -0.9775 -0.8981  1.0816
  431MOL0     H58150   3.124  12.394   2.436 -1.6738 -0.9312  2.8134
  431MOL0     H58151   3.374  12.272   2.464 -0.5770 -0.6522  0.2504
  431MOL0     H58152   3.338  12.197   2.321  1.4141 -1.7207  4.0465
  431MOL0     H58153   3.344  12.388   2.187  2.7701  0.6365 -1.0306
  431MOL0     H58154   3.340  12.502   2.321 -1.1499 -0.3234  1.0877
  431MOL0     H58155   3.577  12.311   2.268  0.9722  0.3080  0.2367
  431MOL0     H58156   3.554  12.403   2.409  0.2604  0.1438  0.5946
  431MOL0     H58157   3.698  12.502   2.207  0.5816 -1.1753  0.6381
  431MOL0     H58158   3.554  12.608   2.254 -0.9514 -0.4146  1.1559
  431MOL0     H58159   3.638  12.455   2.013 -2.5662 -0.5196 -1.2526
  431MOL0     H58160   3.462  12.480   2.047 -0.0085 -3.0745  0.5707
  431MOL0     H58161   3.668  12.713   2.042  0.6274 -0.6336 -1.2708
  431MOL0     H58162   3.491  12.707   2.045  0.3885  0.6483  0.3967
  431MOL0     H58163   3.661  12.591   1.818 -1.0266 -2.7548 -0.1494
  431MOL0     H58164   3.492  12.587   1.824  0.7685 -0.8465  1.5368
  431MOL0     H58165   2.891  12.159   2.478  0.2353 -2.5021  0.3451
  431MOL0     H58166   2.735  12.134   2.671  0.8155 -2.0155  3.1152
  431MOL0     H58167   2.682  11.860   3.093 -3.4350  2.1178 -1.8677
  431MOL0     H58168   2.617  11.825   3.340  0.6486  1.9277  3.7827
  431MOL0     H58169   3.118  10.915   4.472  0.7542  0.4052  2.0844
  431MOL0     H58170   2.929  10.815   4.645  0.1216 -0.1960 -0.8111
  431MOL0     H58171   2.495  10.922   4.781 -0.9952 -0.0182  1.5620
  431MOL0     H58172   2.315  10.815   4.854 -0.6462 -3.4723  0.2166
  431MOL0     H58173   2.153  10.505   5.057 -2.8894 -1.4843 -4.0421
  431MOL0     H58174   2.220  10.582   4.908 -1.2196  2.7146 -0.2243
  431MOL0     H58175   2.105  10.782   4.940 -3.0328 -0.4212 -1.3339
  431MOL0     H58176   2.074  10.753   5.103 -1.5863 -0.6167 -0.2251
  431MOL0     H58177   1.954  10.591   4.863 -0.5555  1.8445 -0.2220
  431MOL0     H58178   1.872  10.715   4.949  0.6220  0.2244 -0.1533
  431MOL0     H58179   1.806  10.471   5.000 -0.4372  2.5567 -1.3294
  431MOL0     H58180   1.962  10.438   5.058  0.0753  0.0089 -1.6937
  431MOL0     H58181   1.758  10.690   5.352 -1.3928  0.7896 -1.3383
  431MOL0     H58182   2.569  10.593   5.132  1.2756 -0.2162 -0.0414
  431MOL0     H58183   2.845  10.617   4.954 -1.7719  2.5353 -1.8404
  431MOL0     H58184   2.868  10.746   5.078  0.2654  0.7319 -2.4547
  431MOL0     H58185   2.804  10.598   5.125  1.2442 -0.4640 -0.0090
  432MOL0     O58186   6.179  11.127   3.467 -0.0161 -0.7136 -0.6134
  432MOL0     C58187   6.185  11.146   3.344  0.0613 -0.1883 -0.2890
  432MOL0     O58188   6.111  11.242   3.265 -0.6895  0.5964 -1.0619
  432MOL0     C58189   6.019  11.314   3.339  0.9086 -0.6643 -0.4237
  432MOL0     C58190   5.906  11.255   3.384  0.3947 -0.1811  0.2078
  432MOL0     C58191   5.815  11.329   3.458  0.4329  0.0716  0.8826
  432MOL0     C58192   5.833  11.465   3.466  1.4835  0.0392  0.1272
  432MOL0     O58193   5.731  11.522   3.534  0.8895 -0.8491  0.6666
  432MOL0     C58194   5.752  11.652   3.578 -0.9440 -0.0560  0.5248
  432MOL0     C58195   5.655  11.678   3.691 -0.3905  0.7689  0.9040
  432MOL0     C58196   5.677  11.820   3.755  0.5197  0.5866  0.2475
  432MOL0     C58197   5.545  11.881   3.790  0.8680 -0.5937 -0.7474
  432MOL0     C58198   5.583  12.016   3.874  0.3197  0.6198  0.5275
  432MOL0     C58199   5.657  11.988   4.003  0.5588  0.0186 -0.6375
  432MOL0     C58200   5.602  11.864   4.084 -1.0008 -0.1105  0.9720
  432MOL0     C58201   5.644  11.848   4.232  0.7347  0.6961  0.9598
  432MOL0     N58202   5.583  11.950   4.313  0.2153 -0.3501  0.5090
  432MOL0     C58203   5.457  11.988   4.314 -0.7078 -0.2063 -0.0590
  432MOL0     C58204   5.449  12.079   4.421 -0.2136  0.4457 -0.5605
  432MOL0     C58205   5.339  12.161   4.460  0.3941 -0.8998  0.2469
  432MOL0     C58206   5.281  12.126   4.593 -0.6600 -0.6919 -0.5161
  432MOL0     C58207   5.228  11.987   4.592  1.2509  0.0983  0.3856
  432MOL0     C58208   5.088  11.976   4.527 -0.3857  0.0975 -0.2448
  432MOL0     O58209   5.030  11.844   4.550 -0.5085  0.7396 -0.0007
  432MOL0     C58210   5.003  11.816   4.683 -0.2624  0.3221 -0.7964
  432MOL0     C58211   5.097  11.753   4.763  0.0452 -0.5534  0.5795
  432MOL0     C58212   5.075  11.717   4.895  0.3903  0.7031 -0.0200
  432MOL0     C58213   4.955  11.757   4.958 -0.4991 -0.8405 -0.1086
  432MOL0     C58214   4.926  11.721   5.094  0.3403  0.5199  0.4626
  432MOL0     O58215   5.026  11.671   5.168 -0.3876 -0.1526 -0.1729
  432MOL0     C58216   5.000  11.676   5.305 -1.4554  0.0886  0.2109
  432MOL0     C58217   5.010  11.551   5.381  0.0210  0.1689  0.1437
  432MOL0     C58218   4.983  11.547   5.518  0.5875  0.3124 -0.2059
  432MOL0     C58219   4.950  11.668   5.585 -0.3822 -0.5741 -0.5825
  432MOL0     O58220   4.933  11.694   5.722  0.2819 -0.8036 -0.2364
  432MOL0     C58221   4.946  11.585   5.811 -0.7996 -0.5134  1.1679
  432MOL0     C58222   4.925  11.632   5.944  0.2773  0.4030 -0.1833
  432MOL0     C58223   4.990  11.538   6.045 -0.8652  1.3852 -0.5685
  432MOL0     C58224   4.972  11.598   6.190  0.6862 -0.5007  0.0536
  432MOL0     C58225   5.020  11.498   6.303  0.6471 -0.1474  0.3746
  432MOL0     C58226   5.014  11.581   6.431 -0.4681 -0.1057 -0.0862
  432MOL0     C58227   5.079  11.493   6.537  0.3736 -0.4047 -0.4898
  432MOL0     C58228   5.071  11.538   6.679 -0.7209 -0.1655  0.8338
  432MOL0    Cl58229   5.219  11.509   6.772  0.1193 -0.5617 -0.2750
  432MOL0     C58230   4.942  11.782   5.512 -0.2669 -0.0861  0.2867
  432MOL0     C58231   4.966  11.793   5.379 -0.4012  0.4794  0.4391
  432MOL0     O58232   4.813  11.753   5.133  0.2281 -0.1525 -0.3581
  432MOL0     C58233   4.860  11.829   4.874  0.5927  0.2151  0.2034
  432MOL0     C58234   4.881  11.856   4.736  0.3551 -0.4853  0.3542
  432MOL0     N58235   5.572  12.070   4.494  0.3784 -0.3881 -0.7011
  432MOL0     N58236   5.656  11.990   4.421  1.1661 -0.2687 -0.4809
  432MOL0     C58237   5.950  11.527   3.413  0.9811  0.1398  0.0798
  432MOL0     C58238   6.052  11.447   3.354  0.2784 -0.0091  0.0843
  432MOL0     C58239   6.282  11.062   3.267  1.1567 -0.7258  1.0367
  432MOL0     C58240   6.362  11.126   3.171  0.2425 -0.3642 -0.3046
  432MOL0     C58241   6.449  11.056   3.095 -0.4405  0.4476 -0.3395
  432MOL0     C58242   6.472  10.918   3.123  0.3817  1.1647 -0.5287
  432MOL0     O58243   6.564  10.846   3.054  1.0128  0.5727  0.0617
  432MOL0     C58244   6.599  10.881   2.919 -0.0945 -0.3022  0.2622
  432MOL0     C58245   6.661  10.763   2.841 -0.4647 -0.1580 -0.0233
  432MOL0     C58246   6.544  10.666   2.820 -0.2432  1.5363 -0.1612
  432MOL0     C58247   6.586  10.527   2.771 -0.5639  0.2372 -0.3433
  432MOL0     C58248   6.665  10.473   2.880  0.2772  0.3358 -0.4869
  432MOL0     C58249   6.747  10.415   2.961 -0.3209 -0.4229  0.5151
  432MOL0     C58250   6.401  10.852   3.223  0.0993 -0.3598 -0.0655
  432MOL0     C58251   6.300  10.923   3.289  0.3841 -0.1535 -0.4505
  432MOL0     C58252   6.224  10.843   3.399  0.0702 -0.5069 -0.2374
  432MOL0     H58253   5.880  11.153   3.356 -2.4183  1.1952 -2.8364
  432MOL0     H58254   5.730  11.288   3.511  0.4617  0.6472  1.3964
  432MOL0     H58255   5.850  11.681   3.614 -1.4756  1.9795  0.4309
  432MOL0     H58256   5.733  11.725   3.499 -1.9956  0.0196  0.8253
  432MOL0     H58257   5.658  11.597   3.763  0.7410  1.4073  1.6065
  432MOL0     H58258   5.562  11.673   3.634  0.5867 -0.5822 -0.6768
  432MOL0     H58259   5.718  11.880   3.673  0.2844 -1.7239 -1.7004
  432MOL0     H58260   5.745  11.827   3.840  1.2145  1.7755 -0.3796
  432MOL0     H58261   5.498  11.906   3.694  1.0771  1.1264 -0.4258
  432MOL0     H58262   5.480  11.819   3.851  0.9815 -1.0764 -1.1098
  432MOL0     H58263   5.652  12.078   3.816  0.7474 -1.9765 -2.0056
  432MOL0     H58264   5.487  12.064   3.896 -0.3597 -0.6584  0.4935
  432MOL0     H58265   5.762  11.989   3.973  1.2543  3.2128  1.3544
  432MOL0     H58266   5.655  12.075   4.069  1.4599  0.8880 -1.7067
  432MOL0     H58267   5.658  11.784   4.035  3.4336  2.2255  1.6359
  432MOL0     H58268   5.493  11.866   4.076 -0.9688  0.7575  0.6751
  432MOL0     H58269   5.607  11.750   4.263 -0.6085  0.5125 -1.0363
  432MOL0     H58270   5.753  11.844   4.246  0.5580 -0.1697  2.2938
  432MOL0     H58271   5.380  11.972   4.239 -3.3622  2.5422  1.8654
  432MOL0     H58272   5.375  12.263   4.472 -0.8807 -0.6176  2.1222
  432MOL0     H58273   5.268  12.159   4.377  2.3014  0.9101 -1.5252
  432MOL0     H58274   5.350  12.132   4.678 -1.2600 -0.7338 -0.0135
  432MOL0     H58275   5.215  12.212   4.609  1.4698  1.7005 -3.4683
  432MOL0     H58276   5.214  11.963   4.698 -1.1079  1.0598  0.3463
  432MOL0     H58277   5.291  11.906   4.554 -1.4184 -1.1097 -1.8189
  432MOL0     H58278   5.094  12.004   4.421  0.3200  0.6398 -0.0734
  432MOL0     H58279   5.014  12.045   4.570 -0.6158 -0.7493  0.7545
  432MOL0     H58280   5.189  11.737   4.708 -0.3801 -1.6771  0.1863
  432MOL0     H58281   5.149  11.659   4.948  0.3632 -1.0623 -1.8068
  432MOL0     H58282   5.018  11.459   5.325  3.2833 -0.9714  2.2065
  432MOL0     H58283   4.984  11.449   5.566 -3.6842  1.5215  2.9727
  432MOL0     H58284   4.882  11.500   5.788 -0.0167 -0.9339  0.4720
  432MOL0     H58285   5.051  11.554   5.813 -1.2329 -2.2410 -0.1487
  432MOL0     H58286   4.962  11.734   5.958 -1.2971  1.2697 -1.9445
  432MOL0     H58287   4.818  11.626   5.964  0.6914 -1.1276  2.0202
  432MOL0     H58288   4.938  11.442   6.044  1.4560  0.0519 -0.1660
  432MOL0     H58289   5.095  11.513   6.029 -1.6209 -2.7712 -0.1873
  432MOL0     H58290   4.867  11.608   6.218  0.2354  1.5607 -2.0066
  432MOL0     H58291   5.024  11.695   6.188  3.1294 -1.6365 -4.2227
  432MOL0     H58292   5.123  11.474   6.274  0.7915 -0.5619  1.1768
  432MOL0     H58293   4.955  11.410   6.297  1.1980 -0.4360 -2.6516
  432MOL0     H58294   5.061  11.680   6.428  3.3251 -1.7243  0.5055
  432MOL0     H58295   4.913  11.596   6.471 -0.0726 -2.0406  1.7881
  432MOL0     H58296   5.185  11.489   6.509 -0.1393 -1.6338 -2.4068
  432MOL0     H58297   5.050  11.388   6.546 -1.8685  0.2790  0.9086
  432MOL0     H58298   5.029  11.639   6.685 -1.6554 -0.2169 -2.6334
  432MOL0     H58299   5.000  11.472   6.729 -2.1944 -0.8613 -1.9506
  432MOL0     H58300   4.928  11.878   5.560  3.4669  0.3997  0.7107
  432MOL0     H58301   4.963  11.890   5.331  0.8721  0.4736  0.3086
  432MOL0     H58302   4.773  11.857   4.932  1.1201  0.0414  1.0955
  432MOL0     H58303   4.804  11.899   4.673  1.8674  0.7681 -0.7351
  432MOL0     H58304   5.967  11.633   3.431 -3.6240  0.7378  2.3875
  432MOL0     H58305   6.148  11.485   3.320  1.8869 -3.0407  0.9173
  432MOL0     H58306   6.345  11.232   3.158 -6.2886 -1.1648 -1.2510
  432MOL0     H58307   6.503  11.097   3.009  0.2442 -2.6291 -1.5138
  432MOL0     H58308   6.673  10.961   2.931  2.5845 -2.7178  1.0571
  432MOL0     H58309   6.512  10.912   2.860 -1.3614 -3.0117  0.5606
  432MOL0     H58310   6.749  10.732   2.898 -0.4940  2.4483  1.6181
  432MOL0     H58311   6.702  10.791   2.743  0.4790 -0.9861  0.1132
  432MOL0     H58312   6.476  10.704   2.744 -0.1026 -3.9416 -3.6122
  432MOL0     H58313   6.478  10.652   2.907 -0.8552 -0.4663 -0.8780
  432MOL0     H58314   6.496  10.467   2.758 -0.8288 -0.1713  2.6689
  432MOL0     H58315   6.642  10.536   2.677 -0.1409  1.7250  0.0155
  432MOL0     H58316   6.804  10.384   3.046  0.6010 -1.2261 -0.3626
  432MOL0     H58317   6.423  10.748   3.246  1.9698  0.4535  2.1083
  432MOL0     H58318   6.197  10.745   3.361 -0.2435 -0.8526  0.8246
  432MOL0     H58319   6.279  10.838   3.494  1.5019  0.3547 -0.9938
  432MOL0     H58320   6.135  10.899   3.430  0.3705 -0.6272  0.9032
  433MOL0     O58321   2.186   1.263   3.003  0.0761  0.0772 -0.6299
  433MOL0     C58322   2.077   1.301   3.035  0.0740  0.1202  0.0047
  433MOL0     O58323   1.967   1.239   2.997  0.1008 -0.8527  0.2154
  433MOL0     C58324   1.991   1.110   2.967 -0.4951 -0.4858 -0.2669
  433MOL0     C58325   1.996   1.006   3.065  0.0645 -0.7979 -0.0599
  433MOL0     C58326   2.031   0.876   3.029 -0.1528  0.1190 -0.0452
  433MOL0     C58327   2.050   0.842   2.894  0.7476  0.6518 -0.8997
  433MOL0     O58328   2.088   0.716   2.859  0.7813  0.4230  0.2118
  433MOL0     C58329   2.223   0.675   2.857 -0.4822  0.5652 -0.3489
  433MOL0     C58330   2.244   0.625   2.712 -0.4130 -0.9338 -0.3576
  433MOL0     C58331   2.384   0.590   2.669 -0.2543  0.8182  0.3986
  433MOL0     C58332   2.449   0.481   2.752  0.6081  0.8467  0.1822
  433MOL0     C58333   2.372   0.354   2.742  0.2128 -0.2167 -0.1154
  433MOL0     C58334   2.460   0.234   2.776 -0.2773  0.2066  0.2500
  433MOL0     C58335   2.370   0.111   2.787  1.2038  0.9210  1.5115
  433MOL0     C58336   2.418   0.006   2.889  0.5371  0.3447 -0.0305
  433MOL0     N58337   2.405   0.064   3.031 -0.8792 -0.2090  0.2618
  433MOL0     C58338   2.289   0.102   3.093 -0.1395 -0.6656  1.0585
  433MOL0     C58339   2.313   0.117   3.220  0.6275 -0.0384 -0.0395
  433MOL0     C58340   2.226   0.146   3.335  1.0197 -0.6560  0.2781
  433MOL0     C58341   2.109   0.249   3.308  0.2310  0.8103 -0.3012
  433MOL0     C58342   2.048   0.287   3.442  0.1340  0.5922 -0.2238
  433MOL0     C58343   1.977   0.421   3.424 -0.8201 -1.2371  1.2719
  433MOL0     O58344   1.916   0.467   3.543  0.0570  1.0113  0.6814
  433MOL0     C58345   1.884   0.597   3.554 -0.7163  0.0765  0.4016
  433MOL0     C58346   1.795   0.631   3.659 -1.0567  0.1543  0.2774
  433MOL0     C58347   1.752   0.755   3.685 -1.7320 -0.1458 -1.0414
  433MOL0     C58348   1.795   0.859   3.595  0.5040  0.1417  0.2430
  433MOL0     C58349   1.741   0.992   3.604 -0.4505 -0.3057  0.0795
  433MOL0     O58350   1.789   1.077   3.507 -0.0660  0.0210  0.1899
  433MOL0     C58351   1.802   1.206   3.532  0.9904  0.1356  0.0924
  433MOL0     C58352   1.691   1.286   3.545  0.5991  0.0155 -0.9516
  433MOL0     C58353   1.715   1.424   3.594 -1.0578 -0.0242 -0.8881
  433MOL0     C58354   1.845   1.470   3.629 -0.1662  0.0676  0.2569
  433MOL0     O58355   1.863   1.588   3.691 -0.5174 -0.1690  0.4974
  433MOL0     C58356   1.956   1.592   3.804 -0.6201  0.5451  0.5498
  433MOL0     C58357   1.918   1.722   3.875  0.1519 -0.4183 -0.1857
  433MOL0     C58358   1.991   1.729   4.010 -0.1410  1.1160 -0.3016
  433MOL0     C58359   1.927   1.831   4.099  0.0593 -0.1553  0.1385
  433MOL0     C58360   1.962   1.825   4.247 -1.4097  0.0549 -0.5720
  433MOL0     C58361   1.894   1.946   4.315 -0.4871 -0.4927 -0.8742
  433MOL0     C58362   1.991   2.068   4.294  0.9097 -0.0415 -0.4265
  433MOL0     C58363   1.959   2.195   4.376  0.4125 -0.1926 -0.3436
  433MOL0    Cl58364   1.945   2.161   4.545  0.0904 -1.0827 -0.2055
  433MOL0     C58365   1.954   1.385   3.598  0.1918  0.4450  0.2066
  433MOL0     C58366   1.934   1.261   3.541 -0.4620  0.0743  0.0445
  433MOL0     O58367   1.667   1.026   3.696  0.2744  0.2783 -0.0423
  433MOL0     C58368   1.881   0.833   3.493  0.2265  1.2527 -0.3244
  433MOL0     C58369   1.933   0.700   3.476  0.4129 -0.6947  0.3456
  433MOL0     N58370   2.454   0.105   3.236 -0.5255  0.1840 -0.7692
  433MOL0     N58371   2.505   0.069   3.132  0.4787  0.4213  0.9622
  433MOL0     C58372   2.030   0.950   2.798 -0.3269 -0.3347  0.1423
  433MOL0     C58373   2.004   1.075   2.832  1.0694 -0.9653  0.4453
  433MOL0     C58374   2.076   1.417   3.123 -0.3165  0.7445 -0.0581
  433MOL0     C58375   1.955   1.454   3.174 -0.6181 -0.1919 -1.8671
  433MOL0     C58376   1.952   1.548   3.279 -0.0054 -0.1511 -1.2416
  433MOL0     C58377   2.057   1.624   3.315  0.1639 -0.0611  0.1526
  433MOL0     O58378   2.061   1.730   3.400  0.3195 -0.3209 -0.4487
  433MOL0     C58379   1.937   1.793   3.434 -0.7782  0.5665 -0.8558
  433MOL0     C58380   1.942   1.933   3.375  0.4919  0.2598  0.2233
  433MOL0     C58381   2.018   2.043   3.456  1.0117  0.3175  0.0556
  433MOL0     C58382   2.167   2.035   3.432  0.8919 -0.1709  0.1510
  433MOL0     C58383   2.220   2.083   3.303 -0.7729 -0.4396  0.2880
  433MOL0     C58384   2.284   2.113   3.201 -0.5394 -0.4483  0.4922
  433MOL0     C58385   2.171   1.592   3.260  0.4068  0.3760  0.2847
  433MOL0     C58386   2.192   1.490   3.164 -0.4799 -0.7280 -0.0065
  433MOL0     C58387   2.335   1.480   3.103  0.3567  1.1925 -0.3285
  433MOL0     H58388   1.973   1.037   3.166 -1.3254 -0.8926 -0.3247
  433MOL0     H58389   2.041   0.801   3.108 -0.5909 -1.5953 -1.5488
  433MOL0     H58390   2.286   0.764   2.870 -0.9635  1.0038 -0.9438
  433MOL0     H58391   2.252   0.606   2.936  0.3235  0.5745 -0.6254
  433MOL0     H58392   2.210   0.707   2.648  0.7681 -1.1810 -1.3558
  433MOL0     H58393   2.178   0.542   2.689 -0.4587 -0.6458 -1.3265
  433MOL0     H58394   2.450   0.675   2.687 -2.4439  2.0863  3.0678
  433MOL0     H58395   2.376   0.569   2.562  2.1500  0.4507  0.2343
  433MOL0     H58396   2.554   0.470   2.724  1.7040 -2.0900  4.4501
  433MOL0     H58397   2.459   0.515   2.855 -1.0392  0.6781  0.4273
  433MOL0     H58398   2.290   0.354   2.814 -1.0444 -3.1071 -1.4133
  433MOL0     H58399   2.333   0.351   2.640 -0.2892  0.6542  0.0422
  433MOL0     H58400   2.531   0.222   2.693 -0.5084  0.7371 -0.0279
  433MOL0     H58401   2.525   0.248   2.863  4.1285  0.2787 -2.7102
  433MOL0     H58402   2.375   0.065   2.688  2.6963  2.0393  1.0091
  433MOL0     H58403   2.268   0.143   2.812 -0.2015 -3.3532  1.9859
  433MOL0     H58404   2.351  -0.081   2.895 -2.2926  2.3339 -0.9452
  433MOL0     H58405   2.518  -0.028   2.860 -0.4120 -0.9844 -1.9293
  433MOL0     H58406   2.193   0.116   3.044  0.5283 -4.9585 -2.1153
  433MOL0     H58407   2.190   0.048   3.366  1.0657 -0.5914  0.5379
  433MOL0     H58408   2.291   0.193   3.410 -3.7662  1.2358  3.7992
  433MOL0     H58409   2.152   0.330   3.248 -2.4771  1.0822 -2.0481
  433MOL0     H58410   2.033   0.190   3.256  0.1660 -2.7744  3.4218
  433MOL0     H58411   2.127   0.290   3.517 -0.8174 -0.3942  0.8572
  433MOL0     H58412   1.984   0.206   3.476  1.5280  0.4060  2.1691
  433MOL0     H58413   1.900   0.405   3.348  0.8588 -0.2359 -0.7095
  433MOL0     H58414   2.063   0.480   3.392 -0.1871 -2.0336  1.4565
  433MOL0     H58415   1.746   0.554   3.719 -0.0606 -1.5436 -0.9971
  433MOL0     H58416   1.699   0.788   3.774  0.9202 -1.0960  1.0517
  433MOL0     H58417   1.595   1.238   3.533 -0.3834  0.5394  3.3400
  433MOL0     H58418   1.635   1.497   3.598  1.8909  3.4373  1.3996
  433MOL0     H58419   1.940   1.503   3.865 -1.5342  0.7108  0.5629
  433MOL0     H58420   2.059   1.588   3.765 -1.5923 -0.5713 -2.1457
  433MOL0     H58421   1.948   1.809   3.816  0.2019 -2.4173 -3.3182
  433MOL0     H58422   1.810   1.707   3.888  0.4023 -0.6980  1.8898
  433MOL0     H58423   1.983   1.636   4.067 -1.8237  0.2946 -1.8267
  433MOL0     H58424   2.099   1.748   4.001 -0.4535  1.8050 -4.3709
  433MOL0     H58425   1.819   1.818   4.088  0.2333 -0.9587 -0.8275
  433MOL0     H58426   1.951   1.930   4.060 -0.7734  0.0433  0.1074
  433MOL0     H58427   2.071   1.833   4.250 -1.4196  0.6245 -1.5361
  433MOL0     H58428   1.933   1.726   4.283  1.1713 -1.2816 -1.8739
  433MOL0     H58429   1.795   1.960   4.270 -0.6003 -2.6478 -1.4280
  433MOL0     H58430   1.867   1.937   4.421  2.9646  5.1073  0.9256
  433MOL0     H58431   1.995   2.107   4.192 -0.4770  3.9065  0.8361
  433MOL0     H58432   2.092   2.044   4.331  0.2068  0.0523  1.7103
  433MOL0     H58433   2.047   2.259   4.363  0.3039  0.6042  2.2069
  433MOL0     H58434   1.870   2.249   4.342 -0.8422 -0.4423  2.3249
  433MOL0     H58435   2.055   1.413   3.623  1.5484 -1.7269 -2.3047
  433MOL0     H58436   2.017   1.192   3.531 -1.4317 -0.9791 -1.1843
  433MOL0     H58437   1.901   0.903   3.413 -1.0886  3.4696  1.1833
  433MOL0     H58438   1.994   0.690   3.386 -0.7601  3.1548 -1.0809
  433MOL0     H58439   2.054   0.913   2.698 -0.2705  0.1200 -0.0127
  433MOL0     H58440   1.982   1.145   2.752 -0.8172 -1.0071  0.8848
  433MOL0     H58441   1.864   1.410   3.134 -0.4629  0.9751 -3.5977
  433MOL0     H58442   1.857   1.569   3.328  1.1369 -0.6466  1.3703
  433MOL0     H58443   1.927   1.805   3.542 -1.5117 -0.1175 -0.8427
  433MOL0     H58444   1.841   1.744   3.415 -2.7904  2.2943  3.4727
  433MOL0     H58445   1.840   1.972   3.375  0.5836  0.5158  1.0954
  433MOL0     H58446   1.970   1.926   3.269 -0.4754 -0.4671 -0.0013
  433MOL0     H58447   2.001   2.025   3.562 -1.0973 -0.5835 -0.3821
  433MOL0     H58448   1.968   2.138   3.434 -4.7208 -2.7490 -2.4467
  433MOL0     H58449   2.207   2.090   3.518 -0.6272 -0.7069  1.2479
  433MOL0     H58450   2.200   1.931   3.436  2.6326  0.3721  1.3630
  433MOL0     H58451   2.343   2.147   3.118  0.4065 -0.5516  1.1009
  433MOL0     H58452   2.249   1.659   3.295 -0.6662  2.1504 -0.5650
  433MOL0     H58453   2.411   1.528   3.166 -0.2626  1.5937  0.1206
  433MOL0     H58454   2.365   1.376   3.083  0.4035  0.7581  1.8105
  433MOL0     H58455   2.349   1.526   3.005  4.5350  3.3316  1.0282
  434MOL0     O58456   3.793  10.690   3.956 -0.4948 -0.4915  0.2573
  434MOL0     C58457   3.839  10.613   3.873 -0.4404 -0.1062 -0.7115
  434MOL0     O58458   3.911  10.647   3.768  0.0740  0.1841  0.2507
  434MOL0     C58459   3.996  10.755   3.787  0.1376 -0.2280  0.7365
  434MOL0     C58460   4.013  10.852   3.692 -0.5493  0.3069 -0.7171
  434MOL0     C58461   4.091  10.964   3.710 -0.6600 -1.2944  0.7621
  434MOL0     C58462   4.176  10.964   3.827 -0.0266  0.2951  0.5763
  434MOL0     O58463   4.268  11.060   3.864 -0.3498  0.4721  1.0349
  434MOL0     C58464   4.318  11.164   3.777 -0.2786  0.1030 -0.4292
  434MOL0     C58465   4.470  11.164   3.750  1.2574 -0.7229  0.5521
  434MOL0     C58466   4.528  11.208   3.886  0.5460 -0.5172  0.2401
  434MOL0     C58467   4.676  11.191   3.912 -0.2851  0.8906  0.3875
  434MOL0     C58468   4.765  11.288   3.841  0.8800 -0.4966  0.2995
  434MOL0     C58469   4.912  11.247   3.852  0.3859  0.3331  0.2131
  434MOL0     C58470   5.008  11.340   3.776 -0.4245 -0.7520  0.2376
  434MOL0     C58471   5.156  11.290   3.774  0.4728 -0.0997  0.3358
  434MOL0     N58472   5.228  11.375   3.672  0.7924  0.1358 -0.0487
  434MOL0     C58473   5.273  11.322   3.552  0.5443  0.0128  0.4666
  434MOL0     C58474   5.345  11.423   3.502  1.1178  0.7575 -0.2750
  434MOL0     C58475   5.425  11.410   3.373  0.9904  0.1860 -0.8450
  434MOL0     C58476   5.356  11.435   3.233  0.1553 -0.4912  0.4451
  434MOL0     C58477   5.463  11.415   3.124 -0.4360  0.3660  0.4451
  434MOL0     C58478   5.418  11.449   2.983  0.8359 -0.0191 -0.6268
  434MOL0     O58479   5.396  11.330   2.915  0.1102  0.6133 -0.0561
  434MOL0     C58480   5.265  11.300   2.865 -0.0139 -0.1069  0.7108
  434MOL0     C58481   5.218  11.171   2.873  0.3898  1.5357  0.0559
  434MOL0     C58482   5.099  11.139   2.804 -0.0187  0.1817 -0.4701
  434MOL0     C58483   5.041  11.234   2.715  0.9062  0.3574  0.2621
  434MOL0     C58484   4.923  11.206   2.623  0.0824  0.1423 -0.4067
  434MOL0     O58485   4.878  11.077   2.618 -0.6085  0.1956 -0.0955
  434MOL0     C58486   4.767  11.044   2.550  0.0672 -0.8309  0.9721
  434MOL0     C58487   4.693  10.936   2.603 -0.3678  0.5992  0.3421
  434MOL0     C58488   4.561  10.896   2.550  0.1785  1.0823 -0.1314
  434MOL0     C58489   4.519  10.943   2.425  0.2326  1.0466  0.3066
  434MOL0     O58490   4.422  10.882   2.342  0.1275 -0.5583  0.6131
  434MOL0     C58491   4.297  10.853   2.405  0.8485  0.0045 -1.3121
  434MOL0     C58492   4.190  10.832   2.301  0.1195 -0.8756  0.2336
  434MOL0     C58493   4.151  10.965   2.228  0.3380  0.9059  0.3282
  434MOL0     C58494   3.998  10.989   2.256  0.7766 -0.9484  0.0373
  434MOL0     C58495   3.932  11.117   2.199 -0.5246  0.1645 -1.2126
  434MOL0     C58496   4.016  11.194   2.100 -0.3173 -0.8920  0.5289
  434MOL0     C58497   3.971  11.332   2.086  1.3808 -1.0802  0.1513
  434MOL0     C58498   4.044  11.392   1.972  0.0428  0.2235 -0.0760
  434MOL0    Cl58499   3.950  11.543   1.940  0.0993  0.1607  0.1219
  434MOL0     C58500   4.598  11.042   2.368  0.3444  0.5819  0.0141
  434MOL0     C58501   4.717  11.098   2.430 -0.5966  0.4451  0.3037
  434MOL0     O58502   4.872  11.306   2.575  0.0153 -0.1336  0.5344
  434MOL0     C58503   5.104  11.360   2.699  0.1786  0.2193 -0.2328
  434MOL0     C58504   5.219  11.390   2.773  0.1230  0.4245 -0.7902
  434MOL0     N58505   5.347  11.532   3.590  0.5667  0.0218  0.6020
  434MOL0     N58506   5.277  11.501   3.694 -0.0979 -0.2314 -0.5595
  434MOL0     C58507   4.176  10.857   3.919  0.7356 -0.0302  0.1230
  434MOL0     C58508   4.086  10.750   3.896 -0.4311 -0.6690  0.7150
  434MOL0     C58509   3.803  10.472   3.865 -0.0723 -0.0805  0.6550
  434MOL0     C58510   3.911  10.382   3.844  1.4197 -0.1538 -0.5054
  434MOL0     C58511   3.881  10.244   3.856  0.2096 -0.8670 -0.4376
  434MOL0     C58512   3.760  10.199   3.892  0.6439  0.0122 -0.2847
  434MOL0     O58513   3.746  10.064   3.899  0.1475  0.0564  0.3463
  434MOL0     C58514   3.671  10.019   3.786  0.6201  0.1659 -0.2436
  434MOL0     C58515   3.665   9.867   3.794  0.1558 -0.0747  0.5324
  434MOL0     C58516   3.800   9.804   3.740  0.1086 -0.1482 -0.2249
  434MOL0     C58517   3.790   9.647   3.739  0.5069 -1.2706  0.9861
  434MOL0     C58518   3.679   9.622   3.638 -0.0634 -0.8038  0.7615
  434MOL0     C58519   3.579   9.596   3.576 -0.0576 -0.5704  0.2005
  434MOL0     C58520   3.654  10.278   3.910 -0.1786 -0.6678 -1.0674
  434MOL0     C58521   3.675  10.418   3.915  0.4968  0.5929  0.2124
  434MOL0     C58522   3.572  10.521   3.954 -0.5528  0.2856 -0.2536
  434MOL0     H58523   3.936  10.856   3.616 -2.3422  0.4328  1.0102
  434MOL0     H58524   4.107  11.043   3.637  2.3680 -0.8370  1.7566
  434MOL0     H58525   4.258  11.172   3.686 -3.1401 -0.6421  1.2775
  434MOL0     H58526   4.300  11.257   3.833  1.2221 -0.2523  0.7174
  434MOL0     H58527   4.479  11.246   3.678  2.5473 -1.1086  0.2430
  434MOL0     H58528   4.503  11.064   3.717  0.0851 -0.4353 -1.6333
  434MOL0     H58529   4.472  11.157   3.965 -0.5683 -0.3628 -0.4398
  434MOL0     H58530   4.508  11.315   3.888  3.3670  0.1555  3.7952
  434MOL0     H58531   4.683  11.196   4.021  2.8859 -2.6485  0.5348
  434MOL0     H58532   4.707  11.088   3.892 -0.8506  0.2859  2.3654
  434MOL0     H58533   4.740  11.290   3.734  2.5374 -0.6329 -0.1057
  434MOL0     H58534   4.741  11.388   3.878 -2.1061 -0.3793 -1.5746
  434MOL0     H58535   4.934  11.240   3.959  1.2770  2.5750  0.2283
  434MOL0     H58536   4.922  11.158   3.789  0.6316  0.7296 -0.3176
  434MOL0     H58537   5.009  11.445   3.805  3.2167 -1.0938  1.9637
  434MOL0     H58538   4.964  11.340   3.675 -0.0114  1.6639  0.0109
  434MOL0     H58539   5.194  11.295   3.876  0.7574 -0.0251  0.2273
  434MOL0     H58540   5.154  11.190   3.730 -1.3275 -1.7369  3.7380
  434MOL0     H58541   5.249  11.224   3.512 -0.9476  0.1163  1.0485
  434MOL0     H58542   5.516  11.469   3.384  0.2716  0.8188  3.5907
  434MOL0     H58543   5.450  11.304   3.361 -1.4542 -1.1901  3.7499
  434MOL0     H58544   5.279  11.361   3.212 -1.3802  0.9234  0.8383
  434MOL0     H58545   5.312  11.535   3.230  0.3250 -0.3618  1.6890
  434MOL0     H58546   5.514  11.318   3.122  1.3395  1.2729 -0.7641
  434MOL0     H58547   5.545  11.485   3.139 -1.1824  1.3130  0.1873
  434MOL0     H58548   5.494  11.505   2.929 -3.0300  3.9568 -2.6087
  434MOL0     H58549   5.323  11.504   2.985  0.4028 -0.7421  2.2413
  434MOL0     H58550   5.272  11.099   2.934  0.5967 -0.9516 -2.8314
  434MOL0     H58551   5.065  11.036   2.800  3.6457 -1.2353  0.5158
  434MOL0     H58552   4.735  10.890   2.692 -1.0676  2.7709  1.8986
  434MOL0     H58553   4.513  10.813   2.601  0.3994  0.1194 -1.4509
  434MOL0     H58554   4.299  10.763   2.467  1.6485 -1.4994 -3.3857
  434MOL0     H58555   4.272  10.937   2.469 -0.6255  0.3333 -2.2553
  434MOL0     H58556   4.221  10.754   2.230  1.2035 -2.9892  2.8424
  434MOL0     H58557   4.103  10.782   2.344  0.3504  0.6363  2.5917
  434MOL0     H58558   4.212  11.048   2.264 -1.1923  2.4251 -0.4346
  434MOL0     H58559   4.168  10.962   2.120  4.3789  3.9517  0.6215
  434MOL0     H58560   3.977  10.990   2.363  0.4757  2.2441  0.0432
  434MOL0     H58561   3.944  10.903   2.215 -0.7433 -0.3657  0.7493
  434MOL0     H58562   3.907  11.183   2.283 -1.2665 -0.6575 -0.7761
  434MOL0     H58563   3.837  11.090   2.151 -0.5717 -2.3849  0.1413
  434MOL0     H58564   4.118  11.192   2.141  0.0838 -2.9272 -0.3979
  434MOL0     H58565   4.008  11.138   2.006  0.0665  2.2621 -1.5354
  434MOL0     H58566   3.985  11.391   2.177 -0.4653  2.3089 -1.5832
  434MOL0     H58567   3.862  11.327   2.076  1.0691  0.7642  1.8427
  434MOL0     H58568   4.147  11.415   2.001 -0.0562 -3.3026  4.2217
  434MOL0     H58569   4.042  11.329   1.883  2.9228  2.1885 -1.6852
  434MOL0     H58570   4.564  11.083   2.274 -1.3398  1.3659  0.9057
  434MOL0     H58571   4.762  11.170   2.361  0.3156 -2.2047 -2.0593
  434MOL0     H58572   5.068  11.443   2.638  1.2051  0.4589 -0.5449
  434MOL0     H58573   5.268  11.484   2.748 -1.2213  0.6904 -2.6225
  434MOL0     H58574   4.252  10.874   3.994  1.6880  3.1312 -1.3965
  434MOL0     H58575   4.087  10.673   3.973  0.0284 -1.9922 -0.5633
  434MOL0     H58576   4.015  10.412   3.840  2.3794 -2.6022  2.3451
  434MOL0     H58577   3.970  10.182   3.854 -0.1612 -1.4583  0.6210
  434MOL0     H58578   3.698  10.056   3.687 -3.6214 -1.7271 -2.3618
  434MOL0     H58579   3.564  10.029   3.808 -0.3101 -4.8550 -1.1927
  434MOL0     H58580   3.571   9.828   3.753  0.5087 -2.7532  2.0094
  434MOL0     H58581   3.649   9.831   3.896  2.0396 -0.0779  0.8563
  434MOL0     H58582   3.886   9.839   3.797 -0.9505  3.1813 -0.4400
  434MOL0     H58583   3.800   9.834   3.635  0.0613  1.4451  0.1951
  434MOL0     H58584   3.881   9.598   3.706  0.8963 -1.8106  2.7789
  434MOL0     H58585   3.744   9.594   3.823 -3.9480  2.6018  1.4472
  434MOL0     H58586   3.490   9.566   3.525  0.3032  0.0032 -0.7993
  434MOL0     H58587   3.556  10.243   3.939 -0.5028 -0.4399 -1.8771
  434MOL0     H58588   3.471  10.477   3.955  0.6611 -2.9473 -2.0422
  434MOL0     H58589   3.608  10.560   4.049 -2.9457  2.3228 -0.0553
  434MOL0     H58590   3.581  10.597   3.876  1.6902 -0.8610 -1.2191
  435MOL0     O58591   4.075   6.344   7.401 -0.5054 -0.1789 -0.0337
  435MOL0     C58592   4.082   6.357   7.276 -0.3738 -0.8900  0.0141
  435MOL0     O58593   4.164   6.446   7.207  0.0291 -0.3960 -0.8420
  435MOL0     C58594   4.241   6.529   7.283 -0.6438  0.1744 -0.5658
  435MOL0     C58595   4.384   6.516   7.277 -0.0288 -0.4117  0.4958
  435MOL0     C58596   4.469   6.605   7.342  0.1245 -0.7223  0.0049
  435MOL0     C58597   4.426   6.706   7.428  0.5237  0.4482  0.8706
  435MOL0     O58598   4.529   6.781   7.487  0.1810  0.5037 -0.7850
  435MOL0     C58599   4.506   6.915   7.543  0.5829  0.3406 -0.8297
  435MOL0     C58600   4.482   7.019   7.434 -0.8255  1.4119 -0.3655
  435MOL0     C58601   4.359   7.097   7.469 -0.0596 -0.2594  0.8796
  435MOL0     C58602   4.396   7.195   7.584  0.7582 -0.1413  1.0547
  435MOL0     C58603   4.262   7.266   7.642 -0.0486  0.2862  0.3930
  435MOL0     C58604   4.204   7.352   7.530  0.1568  0.8984  0.6164
  435MOL0     C58605   4.092   7.445   7.586 -0.7695  0.1708 -0.4584
  435MOL0     C58606   4.148   7.582   7.639  0.6904  0.7524 -0.7159
  435MOL0     N58607   4.062   7.690   7.599  0.4789 -0.7652  0.2140
  435MOL0     C58608   3.935   7.722   7.633 -0.3557  0.0011  0.2260
  435MOL0     C58609   3.911   7.836   7.562  1.3041 -0.0761  0.4114
  435MOL0     C58610   3.780   7.909   7.560 -0.2922 -0.0455 -0.2960
  435MOL0     C58611   3.779   8.049   7.505  0.7530 -0.5599 -0.5508
  435MOL0     C58612   3.853   8.145   7.610 -0.8424  0.0475 -0.2445
  435MOL0     C58613   3.878   8.281   7.554 -0.6293  0.6927  0.0758
  435MOL0     O58614   3.966   8.358   7.650 -0.0127  0.5108  0.2765
  435MOL0     C58615   3.920   8.480   7.692 -0.1426 -0.1450 -0.6019
  435MOL0     C58616   3.973   8.514   7.808 -0.2806  0.3972 -0.2414
  435MOL0     C58617   3.937   8.633   7.877  0.5942  0.2612  0.0442
  435MOL0     C58618   3.861   8.730   7.807  0.1631  0.1895  0.2306
  435MOL0     C58619   3.828   8.855   7.875 -0.4037  0.7731  0.7342
  435MOL0     O58620   3.873   8.864   7.999  0.6069 -0.2761 -0.2151
  435MOL0     C58621   3.870   8.991   8.049  0.0172  0.3701 -0.3090
  435MOL0     C58622   4.001   9.042   8.080  0.2088  0.2973  0.1368
  435MOL0     C58623   4.019   9.179   8.102 -0.4830 -0.6820  0.3352
  435MOL0     C58624   3.926   9.274   8.101  1.2204 -0.1066  0.1354
  435MOL0     O58625   3.952   9.409   8.115 -0.3464 -0.1576  0.3168
  435MOL0     C58626   3.868   9.518   8.162  0.2829  1.6106 -0.5060
  435MOL0     C58627   3.958   9.617   8.229  0.2527  0.5164 -0.3843
  435MOL0     C58628   3.865   9.712   8.297 -0.2176 -0.3164 -0.8151
  435MOL0     C58629   3.807   9.829   8.209 -0.0491  0.9846 -0.4143
  435MOL0     C58630   3.775   9.952   8.287 -0.2591 -0.0883  0.1302
  435MOL0     C58631   3.762  10.072   8.197  0.2851 -0.4278 -0.1336
  435MOL0     C58632   3.660  10.170   8.256  0.0723 -0.6728 -0.6675
  435MOL0     C58633   3.640  10.306   8.175 -0.1513  0.6931 -0.0298
  435MOL0    Cl58634   3.791  10.403   8.181  0.2932 -0.2418 -0.6338
  435MOL0     C58635   3.794   9.226   8.074  0.5016 -0.5028  0.4400
  435MOL0     C58636   3.766   9.085   8.061 -0.2743  0.5838 -0.2310
  435MOL0     O58637   3.783   8.941   7.801  0.1604  0.3029 -0.3269
  435MOL0     C58638   3.806   8.698   7.681 -0.1040 -0.0364 -0.5242
  435MOL0     C58639   3.827   8.568   7.626 -0.6574  0.0464 -0.5230
  435MOL0     N58640   4.020   7.874   7.495 -0.1815  0.3013  0.1703
  435MOL0     N58641   4.115   7.792   7.524  0.9960 -0.4574  0.0479
  435MOL0     C58642   4.287   6.718   7.441 -0.9038 -0.7269  0.2720
  435MOL0     C58643   4.197   6.636   7.367 -0.5993  0.6963  0.1222
  435MOL0     C58644   4.002   6.257   7.203  0.9074  0.0538  0.6648
  435MOL0     C58645   3.875   6.242   7.257  0.1797  0.0347  0.0952
  435MOL0     C58646   3.791   6.148   7.190  0.5715 -0.8263 -0.2056
  435MOL0     C58647   3.826   6.080   7.079 -0.2804 -0.5659  0.2551
  435MOL0     O58648   3.738   6.000   7.021 -0.5692  0.3235 -0.3070
  435MOL0     C58649   3.763   5.951   6.890 -0.8373 -0.5349 -0.1046
  435MOL0     C58650   3.643   5.889   6.830 -0.2247  0.6085 -0.4608
  435MOL0     C58651   3.617   5.753   6.895  0.7769  0.9749  0.2729
  435MOL0     C58652   3.506   5.669   6.840  0.5165 -0.4074  0.5152
  435MOL0     C58653   3.373   5.710   6.881  0.7613  0.1443 -0.1224
  435MOL0     C58654   3.258   5.748   6.907  1.0803 -0.1998  0.9713
  435MOL0     C58655   3.960   6.103   7.036  0.4481  0.1987  0.0324
  435MOL0     C58656   4.047   6.187   7.089 -1.0962 -0.2758 -0.0273
  435MOL0     C58657   4.191   6.198   7.053  0.6536 -0.0560 -0.3067
  435MOL0     H58658   4.414   6.445   7.200  0.8296  4.6034 -4.4691
  435MOL0     H58659   4.576   6.586   7.337  0.1449 -2.4690  3.5423
  435MOL0     H58660   4.416   6.889   7.599 -0.3263  2.3211 -1.2802
  435MOL0     H58661   4.580   6.937   7.620  1.7789 -3.4133 -0.7014
  435MOL0     H58662   4.466   6.979   7.334 -0.2177  1.4337 -0.4719
  435MOL0     H58663   4.579   7.070   7.432  1.0504 -1.8676 -2.7755
  435MOL0     H58664   4.269   7.040   7.494  0.5841 -2.9943 -2.3703
  435MOL0     H58665   4.323   7.154   7.383 -0.9471  0.1097  1.4700
  435MOL0     H58666   4.449   7.140   7.661 -1.5498 -1.6072  1.6949
  435MOL0     H58667   4.455   7.273   7.536 -0.0890 -0.4343 -0.5457
  435MOL0     H58668   4.187   7.188   7.655  0.4797 -0.4261 -0.7156
  435MOL0     H58669   4.284   7.317   7.737  4.2947 -1.6222  0.6768
  435MOL0     H58670   4.285   7.407   7.481  1.1975 -0.5354  0.6757
  435MOL0     H58671   4.149   7.300   7.451  0.1526  0.3777  0.9645
  435MOL0     H58672   4.052   7.394   7.674  3.1731 -1.0386  0.8130
  435MOL0     H58673   4.006   7.454   7.519 -2.4862 -2.2232  1.2410
  435MOL0     H58674   4.156   7.582   7.748  1.9492  3.8594 -0.6824
  435MOL0     H58675   4.250   7.609   7.610  1.0595  4.3313  2.9145
  435MOL0     H58676   3.876   7.668   7.707  1.5781 -1.7678  0.5666
  435MOL0     H58677   3.703   7.844   7.517  0.0178 -0.7686  0.2269
  435MOL0     H58678   3.750   7.903   7.665 -2.1461 -0.9478 -0.8343
  435MOL0     H58679   3.817   8.063   7.403  2.4443  3.8666  0.4246
  435MOL0     H58680   3.674   8.080   7.511  1.6821  3.0726 -0.6377
  435MOL0     H58681   3.954   8.104   7.622  0.6546  2.1161 -3.9498
  435MOL0     H58682   3.792   8.155   7.700  0.4556  3.9936  0.3751
  435MOL0     H58683   3.777   8.321   7.539 -1.8252 -2.0643  0.1185
  435MOL0     H58684   3.930   8.264   7.459 -1.5419  0.6322 -0.4294
  435MOL0     H58685   4.037   8.437   7.851  2.0930  1.8722 -0.9440
  435MOL0     H58686   3.964   8.654   7.980  0.0219 -1.2769  0.5394
  435MOL0     H58687   4.076   8.972   8.044 -0.2965  0.9319 -2.3748
  435MOL0     H58688   4.124   9.203   8.108 -0.1625 -2.4453  3.1316
  435MOL0     H58689   3.818   9.568   8.079  1.1330  0.8777 -1.4919
  435MOL0     H58690   3.792   9.485   8.233  1.9468  0.7585  0.9696
  435MOL0     H58691   4.029   9.573   8.300 -1.5249 -1.4764  0.2990
  435MOL0     H58692   4.024   9.666   8.157  3.2324 -1.6612  0.6919
  435MOL0     H58693   3.780   9.664   8.347 -0.5166  2.6718  1.7898
  435MOL0     H58694   3.915   9.755   8.384 -1.8719  1.8161 -0.8447
  435MOL0     H58695   3.712   9.802   8.162  0.3507 -0.4787 -0.4251
  435MOL0     H58696   3.891   9.848   8.142  2.1667 -0.2189  1.8303
  435MOL0     H58697   3.852   9.972   8.362 -0.0924 -3.3731  0.9990
  435MOL0     H58698   3.682   9.932   8.343 -0.7248  0.6873 -0.3550
  435MOL0     H58699   3.864  10.112   8.195 -0.5121  1.6937 -1.6155
  435MOL0     H58700   3.724  10.031   8.103  1.4791  0.5739 -1.0894
  435MOL0     H58701   3.695  10.187   8.358 -0.5462  0.8046 -0.6785
  435MOL0     H58702   3.561  10.123   8.256  0.0778 -0.7127  0.3931
  435MOL0     H58703   3.606  10.295   8.072 -0.0901 -3.1358  0.2288
  435MOL0     H58704   3.560  10.362   8.223 -1.5486 -0.0675 -1.3664
  435MOL0     H58705   3.710   9.295   8.076  3.0531  2.8559  0.0493
  435MOL0     H58706   3.663   9.057   8.041  0.2969 -1.1059 -1.0217
  435MOL0     H58707   3.761   8.786   7.637  1.8001  3.3172  3.5267
  435MOL0     H58708   3.788   8.538   7.529  1.3895 -4.5608 -0.2208
  435MOL0     H58709   4.239   6.803   7.487 -2.7338  0.9593 -4.1428
  435MOL0     H58710   4.089   6.640   7.376 -0.6414 -0.7115  0.6027
  435MOL0     H58711   3.838   6.285   7.350 -1.2231 -0.0635 -0.3842
  435MOL0     H58712   3.689   6.129   7.221  0.6454  0.5694  1.0176
  435MOL0     H58713   3.844   5.879   6.874  0.5508  1.3586 -2.2868
  435MOL0     H58714   3.783   6.040   6.829 -4.5585  0.2123 -0.4370
  435MOL0     H58715   3.670   5.871   6.725  0.7177 -5.2596  0.4393
  435MOL0     H58716   3.561   5.962   6.833  1.1775  2.2208 -0.2876
  435MOL0     H58717   3.584   5.763   6.999  4.5818  2.9274  1.4846
  435MOL0     H58718   3.712   5.700   6.893  1.0521  1.4771 -1.2266
  435MOL0     H58719   3.516   5.662   6.731  1.1184 -2.5536  0.6672
  435MOL0     H58720   3.518   5.571   6.886  0.2678 -2.4309 -3.3381
  435MOL0     H58721   3.164   5.799   6.916 -0.2566 -1.6894 -2.7459
  435MOL0     H58722   3.990   6.054   6.944  1.0371 -0.4666  0.5629
  435MOL0     H58723   4.250   6.182   7.144 -1.0941  1.1376  1.1071
  435MOL0     H58724   4.227   6.126   6.979  0.9098  0.7021 -0.9374
  435MOL0     H58725   4.205   6.302   7.022  0.9801  0.3430  1.0833
  436MOL0     O58726   2.663   1.863  10.771 -0.4185 -0.1354  0.3439
  436MOL0     C58727   2.613   1.756  10.735  0.7953 -0.3235 -0.0522
  436MOL0     O58728   2.553   1.731  10.615  0.2490 -0.0722  0.5982
  436MOL0     C58729   2.578   1.829  10.521  0.2578  0.0272  1.2083
  436MOL0     C58730   2.476   1.906  10.476  0.4913  0.0839  0.0867
  436MOL0     C58731   2.491   2.003  10.375 -0.5222 -0.3343 -0.3954
  436MOL0     C58732   2.614   2.023  10.314 -0.4197  0.9731 -0.2381
  436MOL0     O58733   2.635   2.094  10.200  0.3310  0.8086 -0.2310
  436MOL0     C58734   2.714   2.204  10.204 -0.1913 -0.7456 -0.2078
  436MOL0     C58735   2.726   2.255  10.063  0.6034  0.5153  1.0130
  436MOL0     C58736   2.806   2.380  10.035 -0.1011  0.9627  0.0206
  436MOL0     C58737   2.738   2.505   9.981 -0.6196  0.0172 -0.2668
  436MOL0     C58738   2.842   2.619   9.959  0.3871  0.2236 -0.2314
  436MOL0     C58739   2.773   2.753   9.915  0.6583  0.4722 -0.9572
  436MOL0     C58740   2.891   2.839   9.871  0.5821 -0.1314  0.2759
  436MOL0     C58741   2.842   2.984   9.865 -0.8685  0.7373  0.5735
  436MOL0     N58742   2.813   3.030  10.000 -0.1285 -0.8323 -0.3878
  436MOL0     C58743   2.896   3.059  10.100  0.1252  0.1704 -0.6480
  436MOL0     C58744   2.821   3.132  10.184 -0.1668 -0.4412  0.5595
  436MOL0     C58745   2.868   3.220  10.299  0.7944  0.0829 -0.6775
  436MOL0     C58746   2.790   3.204  10.429  0.4764  0.6230 -0.5196
  436MOL0     C58747   2.846   3.294  10.544  0.0492 -0.6878  0.8700
  436MOL0     C58748   2.745   3.362  10.632 -1.1865 -1.0835 -0.2002
  436MOL0     O58749   2.612   3.326  10.611 -0.1544 -0.2226  0.1387
  436MOL0     C58750   2.571   3.212  10.670  0.7865 -0.9677  0.0120
  436MOL0     C58751   2.455   3.143  10.601 -0.1363 -0.9412 -0.1677
  436MOL0     C58752   2.410   3.030  10.662  1.2264 -0.2745  0.3394
  436MOL0     C58753   2.466   2.975  10.787 -0.6971  0.7566  0.8067
  436MOL0     C58754   2.413   2.846  10.843  0.1744 -0.2705 -0.7635
  436MOL0     O58755   2.456   2.808  10.967  0.2795 -0.0827 -0.1230
  436MOL0     C58756   2.408   2.679  11.002  0.1226  0.4840 -0.9950
  436MOL0     C58757   2.309   2.656  11.098  0.4584 -0.5659  0.6471
  436MOL0     C58758   2.265   2.525  11.118 -0.0186  0.7028 -0.6614
  436MOL0     C58759   2.325   2.415  11.052 -0.7059 -0.3181  0.4626
  436MOL0     O58760   2.295   2.295  11.102  0.1619 -0.1800 -0.0121
  436MOL0     C58761   2.158   2.251  11.085  0.0253  0.0922 -0.3437
  436MOL0     C58762   2.112   2.144  11.180  0.8716 -0.7266 -0.4883
  436MOL0     C58763   2.169   2.156  11.322  0.6381 -0.8414  0.2302
  436MOL0     C58764   2.143   2.023  11.394  0.2701 -0.1368 -0.4441
  436MOL0     C58765   2.197   2.010  11.531  0.5966 -0.2462  0.1812
  436MOL0     C58766   2.129   2.096  11.634  0.0241  0.0744  0.2358
  436MOL0     C58767   2.147   2.051  11.783  0.4163 -0.1776  0.7212
  436MOL0     C58768   2.073   2.136  11.885  0.4035  0.7821 -0.0229
  436MOL0    Cl58769   1.900   2.083  11.904  0.3144 -0.2975 -0.1592
  436MOL0     C58770   2.449   2.435  10.986 -0.1111  0.5569  0.6580
  436MOL0     C58771   2.481   2.568  10.947  0.9586  0.7173  0.0122
  436MOL0     O58772   2.348   2.787  10.762 -0.3481  0.5749 -0.1501
  436MOL0     C58773   2.578   3.034  10.842 -0.8035 -0.7071 -0.2684
  436MOL0     C58774   2.625   3.157  10.790  0.6431  0.0408 -0.2862
  436MOL0     N58775   2.685   3.119  10.149  0.0262 -0.0856 -0.5549
  436MOL0     N58776   2.688   3.069  10.036  0.3108 -0.4329 -0.7492
  436MOL0     C58777   2.717   1.937  10.360 -0.4551 -0.8717  0.4035
  436MOL0     C58778   2.697   1.845  10.458 -0.4705  0.3503  0.0899
  436MOL0     C58779   2.616   1.631  10.820  0.2618 -1.6594 -0.2112
  436MOL0     C58780   2.535   1.520  10.782  0.1574  0.1425 -0.4140
  436MOL0     C58781   2.550   1.393  10.843 -0.4406 -0.6626  0.1831
  436MOL0     C58782   2.630   1.379  10.956 -0.1221 -0.2621 -0.1915
  436MOL0     O58783   2.635   1.265  11.023 -0.5241  0.6829  0.8162
  436MOL0     C58784   2.557   1.251  11.134  0.1027 -0.7392 -0.3975
  436MOL0     C58785   2.419   1.257  11.096 -0.3622 -0.1147 -0.0440
  436MOL0     C58786   2.322   1.194  11.183  0.3000  0.3359 -0.0804
  436MOL0     C58787   2.323   1.233  11.329 -0.3017  0.2206  0.8686
  436MOL0     C58788   2.287   1.377  11.361  0.2467  0.5516  0.6447
  436MOL0     C58789   2.254   1.496  11.386 -0.5135  0.3433  0.4026
  436MOL0     C58790   2.698   1.485  11.003 -0.7850  0.1741 -0.7055
  436MOL0     C58791   2.691   1.612  10.943  0.3125 -0.2042 -0.0852
  436MOL0     C58792   2.759   1.717  11.017  0.0395 -0.2514  0.3010
  436MOL0     H58793   2.382   1.877  10.523  1.5135 -1.9795  1.0342
  436MOL0     H58794   2.406   2.054  10.330 -0.0520  3.1123  2.2318
  436MOL0     H58795   2.671   2.276  10.274  1.1009 -1.4618  1.3927
  436MOL0     H58796   2.808   2.176  10.252 -2.7363 -1.3065  5.2353
  436MOL0     H58797   2.624   2.272  10.028  0.9948  2.2303  0.5884
  436MOL0     H58798   2.762   2.168  10.007 -1.0892  0.7438 -0.5391
  436MOL0     H58799   2.881   2.343   9.964 -1.6466 -0.7626 -0.8036
  436MOL0     H58800   2.868   2.408  10.120  2.5934 -2.7651 -0.4542
  436MOL0     H58801   2.687   2.491   9.885 -2.6934 -2.4523  1.0959
  436MOL0     H58802   2.671   2.548  10.056  1.6984  0.8123  1.4403
  436MOL0     H58803   2.897   2.636  10.052  0.0820  1.4669 -0.2615
  436MOL0     H58804   2.925   2.590   9.894  0.8981  3.8861 -1.4053
  436MOL0     H58805   2.701   2.729   9.837  1.5545  0.3426 -1.7622
  436MOL0     H58806   2.705   2.797   9.988 -0.3345  1.7149 -2.5639
  436MOL0     H58807   2.920   2.803   9.772 -0.0240  0.5787 -0.1697
  436MOL0     H58808   2.973   2.841   9.944 -1.3547 -0.3851  2.5842
  436MOL0     H58809   2.913   3.043   9.807  1.9040 -1.3707  1.6154
  436MOL0     H58810   2.749   2.986   9.807  0.0941  0.0612 -1.0649
  436MOL0     H58811   3.001   3.033  10.104 -0.2976 -1.5493  0.0796
  436MOL0     H58812   2.968   3.184  10.327 -0.2114  0.3307  4.0635
  436MOL0     H58813   2.877   3.325  10.269 -1.4514  1.1664  2.0230
  436MOL0     H58814   2.687   3.234  10.408  0.2285  1.0005  1.1507
  436MOL0     H58815   2.774   3.104  10.469 -2.1933  1.3175  0.3091
  436MOL0     H58816   2.906   3.372  10.499 -0.9975  0.4056  1.3116
  436MOL0     H58817   2.911   3.230  10.604  0.5151  0.3158  1.4601
  436MOL0     H58818   2.739   3.466  10.600  1.5554 -0.9484 -0.4774
  436MOL0     H58819   2.776   3.354  10.737 -0.5896  1.2929 -0.1421
  436MOL0     H58820   2.409   3.194  10.517 -2.0371  1.1323  1.9640
  436MOL0     H58821   2.316   2.985  10.630 -0.0130  2.7176 -0.6307
  436MOL0     H58822   2.258   2.743  11.140  0.4119  0.4397 -1.3739
  436MOL0     H58823   2.194   2.505  11.198 -0.6991 -2.2289 -1.8560
  436MOL0     H58824   2.090   2.336  11.085 -1.1529 -0.7810 -2.1207
  436MOL0     H58825   2.155   2.200  10.988  0.2568  1.5181 -1.1282
  436MOL0     H58826   2.003   2.151  11.180  0.9767  2.1601 -1.5750
  436MOL0     H58827   2.148   2.049  11.141  3.8452 -0.4601  1.3498
  436MOL0     H58828   2.276   2.167  11.308  0.2922  2.4288 -0.7318
  436MOL0     H58829   2.121   2.237  11.378  0.1663 -0.9686  0.0200
  436MOL0     H58830   2.183   1.948  11.326 -1.6189 -1.8205  0.2090
  436MOL0     H58831   2.034   2.012  11.395  0.0862  0.5643 -3.4611
  436MOL0     H58832   2.304   2.029  11.525  0.7949 -1.7215 -3.0520
  436MOL0     H58833   2.181   1.909  11.569 -2.1792  0.3692  0.8661
  436MOL0     H58834   2.160   2.200  11.620  2.1036 -0.1707  2.3423
  436MOL0     H58835   2.021   2.096  11.615 -0.1494 -4.0050  0.3462
  436MOL0     H58836   2.254   2.062  11.799  0.1875  1.8173  1.0907
  436MOL0     H58837   2.124   1.944  11.789 -1.0852  0.0473 -0.4099
  436MOL0     H58838   2.123   2.121  11.981 -1.9511 -1.8222  0.9535
  436MOL0     H58839   2.081   2.240  11.854 -1.5615  0.7699 -0.6960
  436MOL0     H58840   2.507   2.349  10.954  1.0430  1.8636 -0.9282
  436MOL0     H58841   2.561   2.593  10.878  0.5502  0.5203 -0.5352
  436MOL0     H58842   2.626   3.010  10.937 -0.4113 -0.9902 -0.5327
  436MOL0     H58843   2.712   3.187  10.848  1.1779 -2.2995  0.2451
  436MOL0     H58844   2.814   1.963  10.318 -0.3133 -2.7269 -0.5175
  436MOL0     H58845   2.787   1.804  10.502 -2.0958 -3.7883  0.0097
  436MOL0     H58846   2.460   1.533  10.705 -1.5044  1.1278  1.2785
  436MOL0     H58847   2.495   1.309  10.802 -1.0283 -0.1879 -0.0181
  436MOL0     H58848   2.584   1.337  11.196 -0.6668 -0.0622 -0.9829
  436MOL0     H58849   2.575   1.158  11.188 -0.2612 -0.2429  0.6106
  436MOL0     H58850   2.395   1.216  10.997  1.7743  0.5497 -0.8978
  436MOL0     H58851   2.377   1.355  11.070  1.2319  0.1857 -1.6819
  436MOL0     H58852   2.316   1.086  11.166  0.4942  0.4380 -0.8368
  436MOL0     H58853   2.219   1.218  11.153 -0.0262 -0.1154  0.6481
  436MOL0     H58854   2.251   1.163  11.372 -1.2663 -0.7321 -2.0859
  436MOL0     H58855   2.426   1.230  11.366  0.7615  1.2224 -1.7560
  436MOL0     H58856   2.219   1.597  11.395  0.5157  0.5432  3.0067
  436MOL0     H58857   2.736   1.478  11.105 -2.6352 -0.9564 -0.0406
  436MOL0     H58858   2.709   1.814  11.009 -4.0845 -2.1029  0.9883
  436MOL0     H58859   2.762   1.697  11.125  1.7973 -2.3189 -0.0621
  436MOL0     H58860   2.859   1.723  10.973 -0.2461  0.0407 -0.3120
  437MOL0     O58861   9.991   6.646   9.459 -0.9002 -0.5494  0.0449
  437MOL0     C58862   9.907   6.611   9.543 -0.2804 -0.7636 -0.5429
  437MOL0     O58863   9.813   6.693   9.610  0.5896 -0.4240 -0.2342
  437MOL0     C58864   9.817   6.825   9.622 -0.3869 -0.7302  0.6117
  437MOL0     C58865   9.696   6.887   9.654  1.2396  0.1859  0.3253
  437MOL0     C58866   9.681   7.022   9.667 -0.0182  0.5531 -0.5907
  437MOL0     C58867   9.790   7.101   9.648  0.2531 -0.8218  0.9819
  437MOL0     O58868   9.786   7.237   9.650 -0.5541 -1.0791  0.5930
  437MOL0     C58869   9.861   7.313   9.750 -0.3551  0.0900  0.2523
  437MOL0     C58870   9.768   7.427   9.801  0.1157  0.0181  0.5303
  437MOL0     C58871   9.842   7.524   9.898 -0.4056 -0.0652  0.8444
  437MOL0     C58872   9.732   7.628   9.941 -0.6646  0.3631 -0.9619
  437MOL0     C58873   9.783   7.731  10.039 -1.5115 -0.1595  0.4710
  437MOL0     C58874   9.716   7.860  10.030  0.5842 -0.6918 -0.0637
  437MOL0     C58875   9.577   7.851  10.092 -0.1463 -0.6904  0.2435
  437MOL0     C58876   9.527   7.996  10.110 -0.1004 -0.5756 -0.0072
  437MOL0     N58877   9.379   8.003  10.119 -0.1601  0.9661 -0.4089
  437MOL0     C58878   9.302   7.941  10.218  0.2371  0.5051 -0.5078
  437MOL0     C58879   9.173   7.946  10.165  0.2598 -0.2899 -0.1159
  437MOL0     C58880   9.049   7.901  10.243  0.5613  0.5118  0.2147
  437MOL0     C58881   9.067   7.771  10.319  0.1359  0.3995 -1.6299
  437MOL0     C58882   8.934   7.700  10.367 -0.5584  0.3396  0.2872
  437MOL0     C58883   8.961   7.583  10.468 -0.4581 -0.8499  0.5750
  437MOL0     O58884   8.830   7.557  10.515  0.1603  0.4489  0.0615
  437MOL0     C58885   8.820   7.521  10.647 -0.1823 -0.6972  0.2478
  437MOL0     C58886   8.696   7.503  10.699 -0.6508 -0.0981 -0.4701
  437MOL0     C58887   8.681   7.450  10.828 -0.6010 -0.2853  0.6113
  437MOL0     C58888   8.789   7.401  10.905  0.1036 -0.2713 -0.2386
  437MOL0     C58889   8.758   7.340  11.036  0.0073  0.3502  0.5518
  437MOL0     O58890   8.621   7.338  11.077  0.3510  0.4403 -0.0164
  437MOL0     C58891   8.570   7.252  11.179  0.7020 -0.8650  0.1967
  437MOL0     C58892   8.434   7.278  11.203  0.2684  0.3183 -0.1410
  437MOL0     C58893   8.360   7.209  11.294 -0.0057 -0.6051  0.5178
  437MOL0     C58894   8.418   7.086  11.353  0.3025  0.3927  0.2967
  437MOL0     O58895   8.349   6.999  11.432  0.4604  0.0419  0.3682
  437MOL0     C58896   8.243   7.070  11.512 -0.5254  0.6649 -0.1566
  437MOL0     C58897   8.209   6.985  11.631 -0.1498  0.4299 -0.3162
  437MOL0     C58898   8.315   7.006  11.746 -0.0602 -0.3733 -0.4976
  437MOL0     C58899   8.292   7.140  11.833 -0.9784  1.0215  0.2576
  437MOL0     C58900   8.149   7.144  11.893 -0.0894  0.0966  0.0126
  437MOL0     C58901   8.150   7.205  12.031  1.5857 -1.0735  0.1953
  437MOL0     C58902   8.143   7.091  12.131  0.1856 -0.2572  0.7107
  437MOL0     C58903   8.128   7.150  12.271 -0.3651 -0.1110 -0.5932
  437MOL0    Cl58904   8.087   7.020  12.391 -0.0555 -0.0111 -0.0234
  437MOL0     C58905   8.549   7.055  11.322  0.5708 -0.0682 -0.0986
  437MOL0     C58906   8.624   7.135  11.245 -0.1543  0.1459 -0.1042
  437MOL0     O58907   8.851   7.283  11.097 -0.7011  0.4341 -0.3850
  437MOL0     C58908   8.920   7.423  10.855 -0.6522  0.4480  0.0161
  437MOL0     C58909   8.934   7.486  10.729  0.0211  0.3266 -0.2509
  437MOL0     N58910   9.177   8.034  10.059 -0.2372 -0.0875 -0.2444
  437MOL0     N58911   9.298   8.056  10.028  0.4600  0.0307 -0.1099
  437MOL0     C58912   9.910   7.040   9.610  0.1281 -0.2169 -0.1559
  437MOL0     C58913   9.916   6.907   9.590  0.5532 -0.1559 -0.1618
  437MOL0     C58914   9.906   6.467   9.572  0.4821  0.7882  0.5218
  437MOL0     C58915  10.021   6.406   9.630  0.6252 -0.4621  0.4691
  437MOL0     C58916  10.014   6.274   9.660 -0.0903  0.6388  0.0605
  437MOL0     C58917   9.900   6.190   9.624 -0.5922 -0.4425  0.1581
  437MOL0     O58918   9.882   6.060   9.656  0.1686 -0.5499  0.2038
  437MOL0     C58919   9.979   5.982   9.584 -0.0279 -0.7737  1.8344
  437MOL0     C58920   9.928   5.844   9.576 -0.5899  1.3273 -0.0302
  437MOL0     C58921   9.822   5.830   9.469  0.2060  0.4065 -0.5518
  437MOL0     C58922   9.703   5.734   9.520  0.3104  0.2601 -0.8984
  437MOL0     C58923   9.750   5.595   9.520  0.7234 -0.3447 -0.2617
  437MOL0     C58924   9.786   5.484   9.537  0.6887 -0.1226  0.4382
  437MOL0     C58925   9.782   6.257   9.572  0.5007  0.1500  0.1562
  437MOL0     C58926   9.794   6.389   9.546  0.5863 -0.1940 -0.4610
  437MOL0     C58927   9.659   6.442   9.497  0.5214  0.0316 -0.0277
  437MOL0     H58928   9.602   6.833   9.664 -1.3210  4.0359 -0.5721
  437MOL0     H58929   9.580   7.046   9.697 -0.9436 -2.0732 -1.4020
  437MOL0     H58930   9.883   7.248   9.835 -1.1725  0.6405  0.8982
  437MOL0     H58931   9.959   7.345   9.714  0.7654 -1.6238  1.6164
  437MOL0     H58932   9.685   7.379   9.853 -0.6951  0.0964 -0.6469
  437MOL0     H58933   9.723   7.483   9.719 -1.7196 -0.7217  1.0008
  437MOL0     H58934   9.923   7.572   9.842 -0.9215  0.1815  0.3031
  437MOL0     H58935   9.890   7.462   9.974  2.6558  0.4771 -0.4979
  437MOL0     H58936   9.683   7.665   9.851 -2.7990 -0.0252 -0.0169
  437MOL0     H58937   9.657   7.565   9.990  1.4771 -1.1111  0.6325
  437MOL0     H58938   9.770   7.686  10.138 -1.0487 -0.8774  0.2138
  437MOL0     H58939   9.889   7.746  10.017 -1.5866 -1.3418 -0.8156
  437MOL0     H58940   9.791   7.927  10.074  3.7498 -2.3678 -2.5353
  437MOL0     H58941   9.687   7.899   9.932 -1.7511 -0.2278  0.7350
  437MOL0     H58942   9.585   7.790  10.183 -0.9387 -0.3345  0.5594
  437MOL0     H58943   9.501   7.800  10.033  0.2952 -0.9566 -0.1042
  437MOL0     H58944   9.579   8.050  10.190 -1.5434 -0.2586  0.7575
  437MOL0     H58945   9.545   8.053  10.019  2.8647 -2.0522 -0.4502
  437MOL0     H58946   9.334   7.893  10.310 -0.7136  0.5001 -0.1676
  437MOL0     H58947   9.025   7.979  10.316 -0.5104  2.1677 -1.7975
  437MOL0     H58948   8.966   7.890  10.172 -2.7796 -1.4705  3.9651
  437MOL0     H58949   9.122   7.690  10.270 -1.8344 -3.4196  1.8837
  437MOL0     H58950   9.124   7.801  10.407 -1.5554 -0.7267 -0.0814
  437MOL0     H58951   8.893   7.662  10.273 -1.2209 -1.0553  1.1101
  437MOL0     H58952   8.854   7.763  10.407 -1.5490 -0.5760 -0.1856
  437MOL0     H58953   9.029   7.626  10.541 -0.1901 -1.5345  0.7332
  437MOL0     H58954   9.003   7.489  10.430  2.2166 -1.5470  4.6801
  437MOL0     H58955   8.614   7.531  10.633  0.4036  1.2870 -1.2477
  437MOL0     H58956   8.577   7.441  10.855 -1.3592  0.7827 -1.7183
  437MOL0     H58957   8.393   7.366  11.156 -0.6021  1.3298  2.3239
  437MOL0     H58958   8.261   7.254  11.291 -1.0802 -2.8244 -1.6075
  437MOL0     H58959   8.273   7.169  11.548 -0.1172  1.0628 -1.5354
  437MOL0     H58960   8.157   7.086  11.447 -0.0697 -2.2342 -1.6570
  437MOL0     H58961   8.111   7.000  11.676  0.1788 -2.8063  1.9197
  437MOL0     H58962   8.205   6.882  11.594 -2.8689  0.8851 -1.5125
  437MOL0     H58963   8.313   6.916  11.808  1.1255  0.4057  0.7138
  437MOL0     H58964   8.417   7.012  11.709  1.1784  3.5770  2.7690
  437MOL0     H58965   8.314   7.227  11.770  2.1391  1.1206  1.2982
  437MOL0     H58966   8.373   7.132  11.905  0.4763 -0.7582 -1.4308
  437MOL0     H58967   8.100   7.047  11.894 -0.0496  0.0358  2.2458
  437MOL0     H58968   8.083   7.194  11.822 -2.5094  0.9953  2.6851
  437MOL0     H58969   8.230   7.277  12.049 -0.3819  0.7692  2.3294
  437MOL0     H58970   8.054   7.257  12.042  1.1319 -1.5496 -1.2991
  437MOL0     H58971   8.234   7.032  12.120  0.8181  0.1980  3.0410
  437MOL0     H58972   8.065   7.017  12.108 -1.3541  0.2748  3.6843
  437MOL0     H58973   8.221   7.190  12.312  0.6099 -3.6614  1.0499
  437MOL0     H58974   8.043   7.218  12.281  0.1192  0.3800  0.2712
  437MOL0     H58975   8.593   6.958  11.346  2.2462 -0.2451 -3.4229
  437MOL0     H58976   8.727   7.113  11.219  0.5767  3.2105 -0.2573
  437MOL0     H58977   9.005   7.396  10.916 -1.1418  0.8267  0.8759
  437MOL0     H58978   9.037   7.487  10.695  0.1022  1.0446 -0.0043
  437MOL0     H58979  10.007   7.089   9.600  1.2172 -0.9249  4.3410
  437MOL0     H58980  10.000   6.857   9.543 -1.1207 -3.0843 -0.3011
  437MOL0     H58981  10.107   6.467   9.657  1.3086 -0.6222 -1.2083
  437MOL0     H58982  10.100   6.234   9.713  3.5557  2.3720 -3.9290
  437MOL0     H58983  10.068   5.995   9.646  1.0082  2.2478 -0.0907
  437MOL0     H58984   9.992   6.021   9.483  0.1022 -2.3209  1.2191
  437MOL0     H58985   9.899   5.798   9.671  0.1534 -1.7196 -1.1416
  437MOL0     H58986  10.014   5.783   9.548 -1.0773  0.9260 -0.6908
  437MOL0     H58987   9.858   5.787   9.375 -1.2933 -3.9878  0.6401
  437MOL0     H58988   9.779   5.931   9.463  1.6734  1.2618  2.0516
  437MOL0     H58989   9.671   5.772   9.618  1.5773 -2.2573  0.6142
  437MOL0     H58990   9.619   5.734   9.450 -0.9616 -0.4488  0.5464
  437MOL0     H58991   9.826   5.386   9.549  0.9888  0.0694  1.0334
  437MOL0     H58992   9.693   6.201   9.545 -0.8029  2.8767 -1.5484
  437MOL0     H58993   9.576   6.432   9.568  1.8595 -0.2171  1.5562
  437MOL0     H58994   9.653   6.549   9.472  0.5489 -0.6938 -3.7202
  437MOL0     H58995   9.630   6.374   9.416 -0.8240 -0.6413  0.9790
  438MOL0     O58996   4.875   4.457   3.076  0.5808 -0.1841  0.3392
  438MOL0     C58997   4.890   4.528   3.179 -0.6606  1.3484  1.2453
  438MOL0     O58998   4.928   4.491   3.306 -0.4570  0.3008  0.7111
  438MOL0     C58999   4.922   4.356   3.338  0.3698 -0.1548 -0.5153
  438MOL0     C59000   5.022   4.264   3.304  0.2296  0.5488  0.8581
  438MOL0     C59001   5.025   4.134   3.346  0.3235  0.1396  0.9801
  438MOL0     C59002   4.915   4.076   3.396  0.0411 -0.5346 -0.3303
  438MOL0     O59003   4.913   3.946   3.427  0.0131  0.1519 -0.4462
  438MOL0     C59004   4.791   3.884   3.393 -0.5735  0.1560 -0.6732
  438MOL0     C59005   4.825   3.790   3.285 -0.1601 -0.7854  1.2677
  438MOL0     C59006   4.852   3.650   3.345  0.1615  0.1473 -0.1663
  438MOL0     C59007   4.894   3.550   3.250  0.5313  0.6315  0.3181
  438MOL0     C59008   4.888   3.403   3.289  1.3419  0.4805 -0.7810
  438MOL0     C59009   4.970   3.309   3.197  0.5442  0.8433 -0.0590
  438MOL0     C59010   4.989   3.167   3.261  0.0012 -0.3167  1.1053
  438MOL0     C59011   4.861   3.082   3.288  0.4873 -0.7526 -0.1693
  438MOL0     N59012   4.889   2.964   3.367  0.0127 -0.2823  0.3469
  438MOL0     C59013   4.790   2.895   3.432  0.3648 -0.0114 -0.8356
  438MOL0     C59014   4.865   2.796   3.493  1.3156  0.4208  0.8998
  438MOL0     C59015   4.793   2.687   3.567 -0.0054 -0.0482  1.0389
  438MOL0     C59016   4.690   2.606   3.486  0.2275  1.1196 -0.3611
  438MOL0     C59017   4.693   2.460   3.538 -1.3576 -1.0011 -0.0172
  438MOL0     C59018   4.627   2.446   3.679 -0.0323  0.3897  0.0523
  438MOL0     O59019   4.489   2.484   3.663 -0.3046 -0.1823 -0.3273
  438MOL0     C59020   4.418   2.518   3.781  0.9891  0.1160 -0.8832
  438MOL0     C59021   4.443   2.450   3.910 -0.0617  0.6549  0.1820
  438MOL0     C59022   4.387   2.490   4.030  0.1683 -0.1411  0.6149
  438MOL0     C59023   4.292   2.590   4.031  0.0350  0.7762  0.9196
  438MOL0     C59024   4.227   2.625   4.163 -0.6768 -0.1700  0.6072
  438MOL0     O59025   4.296   2.601   4.284 -0.0636 -0.6464  0.3020
  438MOL0     C59026   4.227   2.632   4.397 -0.2768 -0.5429  0.1893
  438MOL0     C59027   4.101   2.561   4.422  0.3717  0.7819 -0.2155
  438MOL0     C59028   4.024   2.597   4.534 -1.0293 -0.3632 -0.3405
  438MOL0     C59029   4.084   2.698   4.623  0.2870  1.0277 -0.5854
  438MOL0     O59030   4.020   2.721   4.738  0.4229 -0.4359  0.3714
  438MOL0     C59031   4.083   2.781   4.852 -0.5608  0.2350 -0.7676
  438MOL0     C59032   3.995   2.723   4.967  0.7864 -0.2685 -0.6897
  438MOL0     C59033   3.846   2.746   4.959  0.2844 -1.0220  1.6396
  438MOL0     C59034   3.764   2.640   4.875  0.5529 -0.4424  1.0870
  438MOL0     C59035   3.613   2.672   4.872 -0.6076  0.4693  0.8440
  438MOL0     C59036   3.582   2.812   4.818 -0.4127 -0.2107  0.0745
  438MOL0     C59037   3.438   2.835   4.814  0.5657 -0.1627 -0.0380
  438MOL0     C59038   3.371   2.809   4.674 -0.2451 -0.5475  0.1962
  438MOL0    Cl59039   3.201   2.837   4.670 -0.3585 -0.0800  0.0171
  438MOL0     C59040   4.207   2.767   4.600  0.3624  0.3784  0.2216
  438MOL0     C59041   4.280   2.729   4.492 -0.0156  0.4322  0.3400
  438MOL0     O59042   4.126   2.688   4.153 -0.0173 -0.3274  0.1945
  438MOL0     C59043   4.260   2.648   3.909  1.0345  0.6467  0.9581
  438MOL0     C59044   4.315   2.610   3.784  0.1670  0.3571 -0.3183
  438MOL0     N59045   5.002   2.812   3.467  0.0087 -0.2723  0.0428
  438MOL0     N59046   5.016   2.904   3.381  0.0299 -0.4914 -0.4761
  438MOL0     C59047   4.806   4.169   3.429 -0.3453  1.2195  0.8823
  438MOL0     C59048   4.815   4.304   3.405 -0.3605  0.0490  0.0421
  438MOL0     C59049   4.876   4.675   3.159 -0.8355  0.7452 -1.0867
  438MOL0     C59050   4.909   4.761   3.267  1.5300 -0.4614 -0.3785
  438MOL0     C59051   4.890   4.898   3.265  0.6916  0.3716  0.7515
  438MOL0     C59052   4.815   4.948   3.155  0.5863 -0.6089  1.1844
  438MOL0     O59053   4.786   5.078   3.145  0.4135 -1.0743 -0.3891
  438MOL0     C59054   4.837   5.178   3.241 -0.1945 -0.2137  0.0534
  438MOL0     C59055   4.801   5.317   3.189  0.5986  0.1097  0.1350
  438MOL0     C59056   4.658   5.353   3.191  0.5480 -0.4625 -0.7407
  438MOL0     C59057   4.624   5.467   3.094 -0.2734  0.4305  0.2250
  438MOL0     C59058   4.603   5.424   2.958  0.6328 -0.7162 -0.3159
  438MOL0     C59059   4.599   5.381   2.844  0.3877 -0.8434  0.4095
  438MOL0     C59060   4.779   4.868   3.042 -0.2467 -0.4048  0.5196
  438MOL0     C59061   4.814   4.733   3.044  0.0139  0.1865  0.7042
  438MOL0     C59062   4.799   4.668   2.902 -0.2916  0.2763 -0.5756
  438MOL0     H59063   5.106   4.299   3.244 -1.7443  0.5157 -2.1509
  438MOL0     H59064   5.110   4.072   3.317 -0.4863  0.7619 -3.4271
  438MOL0     H59065   4.740   3.845   3.481  0.6609 -2.2777 -0.9513
  438MOL0     H59066   4.721   3.945   3.334 -0.3716 -0.2673 -1.3700
  438MOL0     H59067   4.902   3.828   3.217  2.1763 -1.0027  3.6462
  438MOL0     H59068   4.735   3.779   3.223 -1.7836 -0.0241  3.3888
  438MOL0     H59069   4.759   3.609   3.386 -0.0746 -2.0092 -2.6238
  438MOL0     H59070   4.928   3.650   3.424 -0.6367 -1.6450  0.6646
  438MOL0     H59071   4.825   3.568   3.167 -2.7060  1.1764  2.8752
  438MOL0     H59072   4.995   3.565   3.211  1.6872 -3.1830  1.4655
  438MOL0     H59073   4.932   3.407   3.389  1.8154  2.0500 -1.0313
  438MOL0     H59074   4.782   3.379   3.302  1.0090  2.6294  1.1753
  438MOL0     H59075   4.909   3.309   3.106  3.3823  2.8735 -2.1148
  438MOL0     H59076   5.074   3.337   3.180  0.6263  0.1765 -0.7203
  438MOL0     H59077   5.042   3.177   3.356 -0.9266 -0.1330  1.6172
  438MOL0     H59078   5.048   3.111   3.187  1.0637 -1.1150  2.5030
  438MOL0     H59079   4.789   3.149   3.335  0.7470 -0.0832 -0.7138
  438MOL0     H59080   4.823   3.059   3.188 -1.3311  0.9258  0.0884
  438MOL0     H59081   4.682   2.907   3.428 -0.1336 -2.2938  2.0735
  438MOL0     H59082   4.861   2.619   3.619  1.3050 -1.7309 -2.5674
  438MOL0     H59083   4.724   2.743   3.632 -0.6141  3.7344 -2.4296
  438MOL0     H59084   4.590   2.649   3.489 -1.6684 -2.6708 -2.2779
  438MOL0     H59085   4.723   2.610   3.381  0.9493  3.1922 -0.0900
  438MOL0     H59086   4.796   2.423   3.535 -1.1184 -0.2822 -1.3732
  438MOL0     H59087   4.633   2.389   3.481 -0.0207 -2.7167  0.6177
  438MOL0     H59088   4.664   2.513   3.757  0.6202 -0.2201  0.2760
  438MOL0     H59089   4.629   2.339   3.702 -1.4330 -0.4402 -3.1253
  438MOL0     H59090   4.532   2.388   3.912  0.8634  1.7350 -2.4047
  438MOL0     H59091   4.417   2.443   4.123 -0.9553 -1.7721  0.1879
  438MOL0     H59092   4.068   2.491   4.345  1.2162 -1.4378  1.3396
  438MOL0     H59093   3.941   2.534   4.564  0.3958 -1.6442  1.0894
  438MOL0     H59094   4.187   2.747   4.852 -0.5848  0.0561  1.2784
  438MOL0     H59095   4.087   2.890   4.859  2.6088  0.1551  0.1211
  438MOL0     H59096   3.994   2.613   4.974 -0.8022 -0.3850 -2.1570
  438MOL0     H59097   4.043   2.759   5.059  1.5647 -2.3648 -0.2093
  438MOL0     H59098   3.794   2.739   5.055 -5.2270  0.4461 -0.7879
  438MOL0     H59099   3.823   2.847   4.925 -2.7529 -1.5766  1.6892
  438MOL0     H59100   3.783   2.545   4.927  0.9018 -0.0887  1.6176
  438MOL0     H59101   3.793   2.630   4.770 -3.3756 -1.7804 -0.0176
  438MOL0     H59102   3.564   2.661   4.969  0.6501  1.7262  1.6592
  438MOL0     H59103   3.568   2.594   4.810 -2.9281  2.5703 -0.2739
  438MOL0     H59104   3.625   2.891   4.879 -1.4189  0.1154  0.3922
  438MOL0     H59105   3.632   2.827   4.722  3.5369 -1.1842  1.8062
  438MOL0     H59106   3.430   2.943   4.829  2.4397 -0.2706  2.3661
  438MOL0     H59107   3.389   2.769   4.886  0.1185 -2.8042 -2.5880
  438MOL0     H59108   3.431   2.857   4.596  1.7483 -0.5465  1.6521
  438MOL0     H59109   3.389   2.705   4.644  1.2806 -1.0724  2.6609
  438MOL0     H59110   4.234   2.846   4.670 -0.6298  0.5302  0.4511
  438MOL0     H59111   4.373   2.779   4.467  0.7481 -0.4283  1.3438
  438MOL0     H59112   4.173   2.712   3.906  0.3812 -0.2146 -1.5945
  438MOL0     H59113   4.280   2.667   3.699 -2.0694 -0.4206  0.0368
  438MOL0     H59114   4.716   4.134   3.479 -2.7471 -0.0819 -3.7887
  438MOL0     H59115   4.737   4.373   3.437  1.5066  0.3715  4.7480
  438MOL0     H59116   4.973   4.721   3.346  3.2675  3.1523  0.2623
  438MOL0     H59117   4.919   4.967   3.343  0.0715 -0.5464  1.8289
  438MOL0     H59118   4.945   5.163   3.239 -0.1763 -1.4629  3.5069
  438MOL0     H59119   4.798   5.164   3.342  0.8209 -0.1070  0.4756
  438MOL0     H59120   4.833   5.307   3.084  0.9745 -2.0262  0.4101
  438MOL0     H59121   4.869   5.389   3.235 -1.2730  1.1287  1.3974
  438MOL0     H59122   4.625   5.394   3.287  1.0428  0.9999 -1.1715
  438MOL0     H59123   4.595   5.267   3.167  2.7960 -3.3453  2.5927
  438MOL0     H59124   4.534   5.523   3.124  0.0939  1.0444  0.1882
  438MOL0     H59125   4.706   5.540   3.097 -1.3462  1.6763  0.4502
  438MOL0     H59126   4.604   5.351   2.742  0.7823 -0.9018  0.4441
  438MOL0     H59127   4.731   4.923   2.962 -0.5375  0.7433  1.4582
  438MOL0     H59128   4.744   4.742   2.842  0.0897  1.3903  0.4007
  438MOL0     H59129   4.894   4.654   2.851 -0.7029 -1.0622 -1.0023
  438MOL0     H59130   4.743   4.575   2.918  2.8779 -1.7080 -0.2852
  439MOL0     O59131   3.040   9.770   6.893 -0.9278 -0.3771  0.1455
  439MOL0     C59132   3.155   9.741   6.861 -0.0784 -0.5447 -0.0415
  439MOL0     O59133   3.246   9.833   6.813 -0.1088 -0.8015 -0.7560
  439MOL0     C59134   3.204   9.950   6.766 -0.3492 -0.4969 -0.5610
  439MOL0     C59135   3.098  10.033   6.792  0.5076  0.8364 -0.2006
  439MOL0     C59136   3.074  10.156   6.731  0.1454  0.1391 -0.3370
  439MOL0     C59137   3.159  10.203   6.627 -0.6013  0.1351  0.0761
  439MOL0     O59138   3.156  10.314   6.540  0.0483  0.7571  0.1405
  439MOL0     C59139   3.035  10.390   6.531 -0.0286  0.0687  0.5877
  439MOL0     C59140   3.013  10.433   6.385  1.0453 -0.7298 -0.6457
  439MOL0     C59141   2.896  10.531   6.378  0.1585 -0.0465 -0.1157
  439MOL0     C59142   2.877  10.577   6.239 -0.1581  0.2983 -0.0928
  439MOL0     C59143   2.805  10.713   6.221 -0.3206 -0.0280 -0.3640
  439MOL0     C59144   2.662  10.705   6.279  0.3833  0.6039 -1.1289
  439MOL0     C59145   2.584  10.839   6.255  0.6217  0.2273  0.0445
  439MOL0     C59146   2.437  10.809   6.245  0.1717  0.1165  0.3103
  439MOL0     N59147   2.361  10.926   6.196 -0.1829 -0.1490 -0.0638
  439MOL0     C59148   2.373  11.050   6.249 -0.3943  0.0738  0.2846
  439MOL0     C59149   2.309  11.129   6.156 -0.2056  0.7381  0.7731
  439MOL0     C59150   2.269  11.273   6.168 -0.3443  0.1329 -0.1646
  439MOL0     C59151   2.176  11.308   6.052  0.9906  0.2307  1.2847
  439MOL0     C59152   2.124  11.458   6.070  0.1755  0.8776 -0.0477
  439MOL0     C59153   2.046  11.473   6.207 -1.4523 -1.2004  0.3914
  439MOL0     O59154   1.959  11.586   6.213 -0.5199  0.2883 -0.1819
  439MOL0     C59155   1.870  11.593   6.320 -0.2686 -0.6997  0.4039
  439MOL0     C59156   1.928  11.572   6.450  1.0350  0.0115 -0.2211
  439MOL0     C59157   1.843  11.573   6.555 -0.1898 -1.0334  0.0202
  439MOL0     C59158   1.699  11.590   6.538 -0.9690  0.6828  0.3888
  439MOL0     C59159   1.609  11.596   6.657 -0.9279 -0.2499  0.7648
  439MOL0     O59160   1.668  11.594   6.777  0.0753 -1.0341  0.1988
  439MOL0     C59161   1.596  11.582   6.891 -0.4226 -0.7102  0.2564
  439MOL0     C59162   1.681  11.608   7.005  0.7804 -0.7257  0.2532
  439MOL0     C59163   1.636  11.602   7.136  0.8792  0.1161 -0.5637
  439MOL0     C59164   1.501  11.588   7.167  0.9047  0.7207  0.1169
  439MOL0     O59165   1.451  11.599   7.291  0.4575  0.2369  0.1186
  439MOL0     C59166   1.327  11.535   7.316  0.2973 -0.6883 -0.3586
  439MOL0     C59167   1.287  11.560   7.461  0.4105  0.1573 -0.1000
  439MOL0     C59168   1.140  11.525   7.497  0.1629 -0.1728  0.4132
  439MOL0     C59169   1.130  11.530   7.650 -0.8762 -0.2690  0.1632
  439MOL0     C59170   1.009  11.462   7.699 -0.2206 -0.5684 -0.0616
  439MOL0     C59171   1.001  11.445   7.854 -0.2865  0.4678 -0.6129
  439MOL0     C59172   0.912  11.326   7.892 -0.1982  0.0206 -1.2325
  439MOL0     C59173   0.904  11.331   8.050  0.0279 -0.0630  1.2685
  439MOL0    Cl59174   1.054  11.323   8.141  0.1787  0.3447  0.2395
  439MOL0     C59175   1.417  11.577   7.046 -0.6197  0.5968 -0.2566
  439MOL0     C59176   1.459  11.563   6.916 -0.1791  0.3042 -0.0350
  439MOL0     O59177   1.491  11.625   6.633  0.1066  0.2647 -0.2963
  439MOL0     C59178   1.646  11.618   6.412 -0.2861 -0.8239 -0.4842
  439MOL0     C59179   1.737  11.625   6.304  0.0124 -0.0491  0.1006
  439MOL0     N59180   2.285  11.050   6.046 -0.1095  0.2481  1.0485
  439MOL0     N59181   2.299  10.928   6.072 -0.7074 -0.5153 -1.3207
  439MOL0     C59182   3.263  10.115   6.600 -0.2855  0.3214  0.1553
  439MOL0     C59183   3.284   9.991   6.662 -1.1274  0.2655 -0.0912
  439MOL0     C59184   3.212   9.609   6.907 -0.2492  0.5188 -0.7623
  439MOL0     C59185   3.350   9.608   6.946 -0.3228 -0.7313 -0.3622
  439MOL0     C59186   3.402   9.495   7.017 -0.5932  0.4861 -0.8148
  439MOL0     C59187   3.341   9.373   7.023  1.2413  1.1034  0.5458
  439MOL0     O59188   3.401   9.279   7.102 -0.1529 -0.4679  0.1403
  439MOL0     C59189   3.384   9.137   7.082 -0.2742  0.0707  0.7372
  439MOL0     C59190   3.318   9.085   7.219 -0.3807  0.6800  0.7651
  439MOL0     C59191   3.183   9.148   7.253 -1.0875 -0.0424  0.0954
  439MOL0     C59192   3.060   9.063   7.230 -0.5448  0.2010 -0.8163
  439MOL0     C59193   3.010   9.072   7.093  0.6387  0.2485  0.0558
  439MOL0     C59194   2.948   9.093   6.986  0.3563  0.4237  0.0749
  439MOL0     C59195   3.209   9.368   6.962 -0.2647 -0.0495  0.4642
  439MOL0     C59196   3.140   9.484   6.918 -0.1475 -0.6944  1.1814
  439MOL0     C59197   2.998   9.467   6.869  1.1514  0.2052  0.0268
  439MOL0     H59198   3.025   9.996   6.864 -0.2766  1.8316 -0.4683
  439MOL0     H59199   2.994  10.228   6.746 -2.3084 -2.3473 -0.8521
  439MOL0     H59200   2.945  10.338   6.564  0.0912 -0.9920 -0.6830
  439MOL0     H59201   3.048  10.482   6.589  5.0912 -0.5138  0.8721
  439MOL0     H59202   2.985  10.344   6.327  0.6518 -0.7722 -0.3899
  439MOL0     H59203   3.103  10.491   6.361  1.3929  1.0725  4.1118
  439MOL0     H59204   2.918  10.622   6.435  0.1880  0.0705 -0.3126
  439MOL0     H59205   2.798  10.493   6.408  0.1721  1.4519  2.0964
  439MOL0     H59206   2.976  10.610   6.205 -2.2042  4.1852 -3.1122
  439MOL0     H59207   2.829  10.501   6.178  1.8559 -0.4799 -0.8065
  439MOL0     H59208   2.857  10.799   6.265  0.7559  0.1442 -1.9264
  439MOL0     H59209   2.800  10.732   6.114 -2.4378  3.4931  0.1949
  439MOL0     H59210   2.613  10.614   6.243 -0.2259 -0.1795  1.4514
  439MOL0     H59211   2.666  10.692   6.388 -2.8669  1.1600 -0.8425
  439MOL0     H59212   2.628  10.885   6.166  3.0656 -0.0835  1.0258
  439MOL0     H59213   2.594  10.918   6.331 -2.4822 -0.8850  1.7810
  439MOL0     H59214   2.412  10.728   6.176  3.3544 -0.4740 -0.2632
  439MOL0     H59215   2.386  10.770   6.334 -2.4257  2.5336  0.0531
  439MOL0     H59216   2.412  11.089   6.342 -1.4200  3.0265 -0.4125
  439MOL0     H59217   2.215  11.267   6.263  0.8550 -0.1731  0.5070
  439MOL0     H59218   2.350  11.346   6.169  0.2139 -0.4249  2.5209
  439MOL0     H59219   2.237  11.294   5.962 -1.1223 -5.8678  0.3299
  439MOL0     H59220   2.094  11.239   6.033  0.0899  1.3058  1.1516
  439MOL0     H59221   2.055  11.498   5.995 -0.9122  0.7821  0.8798
  439MOL0     H59222   2.209  11.526   6.065 -0.7568  2.0073 -1.0720
  439MOL0     H59223   2.120  11.491   6.285 -0.5134 -1.5794 -0.4013
  439MOL0     H59224   1.994  11.378   6.221 -1.9375 -1.2611 -1.5033
  439MOL0     H59225   2.034  11.553   6.468  1.6694  0.5431 -2.9730
  439MOL0     H59226   1.899  11.567   6.648  1.5762  3.4751 -0.5183
  439MOL0     H59227   1.782  11.643   6.992  0.8557 -1.3807 -1.0935
  439MOL0     H59228   1.697  11.622   7.223 -0.3562 -0.8374  0.5640
  439MOL0     H59229   1.245  11.590   7.268 -1.5203 -0.1180  3.0887
  439MOL0     H59230   1.338  11.428   7.297  1.2098 -0.0962 -3.9180
  439MOL0     H59231   1.354  11.507   7.529 -1.8941  0.3528  2.5114
  439MOL0     H59232   1.302  11.666   7.482 -0.7790  0.2503  0.3594
  439MOL0     H59233   1.078  11.601   7.449  0.7942  0.3487  0.4136
  439MOL0     H59234   1.111  11.433   7.445  2.9892 -0.3403 -1.1093
  439MOL0     H59235   1.142  11.631   7.689  2.3536 -0.9902  1.3556
  439MOL0     H59236   1.220  11.480   7.687  1.8474  2.1341 -2.5915
  439MOL0     H59237   1.004  11.362   7.655  0.5874 -1.5067  1.8590
  439MOL0     H59238   0.928  11.528   7.666  2.3362  1.1351 -3.5621
  439MOL0     H59239   1.098  11.421   7.897 -1.8441 -1.4224  2.1795
  439MOL0     H59240   0.963  11.538   7.899  1.3797  2.6216 -3.3541
  439MOL0     H59241   0.955  11.231   7.858  0.6151  1.0639 -3.2449
  439MOL0     H59242   0.815  11.331   7.842 -0.3332 -1.1037 -1.1175
  439MOL0     H59243   0.848  11.422   8.071  1.6078  1.2427  0.0471
  439MOL0     H59244   0.836  11.251   8.081 -3.5807  0.9464 -3.0146
  439MOL0     H59245   1.310  11.566   7.061 -1.1117  3.2711 -1.0754
  439MOL0     H59246   1.382  11.547   6.841 -0.2391 -2.3071  0.4949
  439MOL0     H59247   1.541  11.643   6.400  0.2484  0.6954 -2.3169
  439MOL0     H59248   1.714  11.650   6.201  1.3823  1.4669  0.1177
  439MOL0     H59249   3.317  10.137   6.508  2.4110  1.2770  1.8582
  439MOL0     H59250   3.377   9.942   6.636 -1.8486 -0.8821 -0.5501
  439MOL0     H59251   3.405   9.701   6.946 -0.4199 -0.4532  3.8677
  439MOL0     H59252   3.495   9.508   7.071 -2.2304 -1.8874  2.9379
  439MOL0     H59253   3.480   9.089   7.061  0.7871  2.6514 -0.7414
  439MOL0     H59254   3.324   9.103   6.997 -0.5686 -0.9491  1.3336
  439MOL0     H59255   3.391   9.114   7.295  2.3047 -3.3160 -0.0298
  439MOL0     H59256   3.311   8.976   7.211  2.5421  0.4177  0.8157
  439MOL0     H59257   3.172   9.244   7.201 -0.5489 -0.6667 -1.1961
  439MOL0     H59258   3.186   9.174   7.359 -5.3672 -3.2860  1.2990
  439MOL0     H59259   3.060   8.958   7.260 -0.6960  0.2529 -0.6384
  439MOL0     H59260   2.986   9.114   7.291  0.2447  1.2670 -0.7169
  439MOL0     H59261   2.892   9.115   6.897  1.0527  1.0033 -0.2315
  439MOL0     H59262   3.141   9.283   6.969 -4.1513  2.7351 -0.3372
  439MOL0     H59263   2.976   9.366   6.832 -1.8484  1.8550 -3.0999
  439MOL0     H59264   2.930   9.474   6.954 -0.3624 -0.9215 -1.0471
  439MOL0     H59265   2.975   9.543   6.795 -0.3268 -1.2580 -1.0732
  440MOL0     O59266  10.358   8.175  11.403 -0.0890  0.1820 -0.1144
  440MOL0     C59267  10.415   8.078  11.454 -0.0509 -0.6467 -0.4832
  440MOL0     O59268  10.426   8.062  11.590 -0.1569  0.6506  0.2266
  440MOL0     C59269  10.350   8.136  11.664  0.5109 -0.1113 -0.5769
  440MOL0     C59270  10.414   8.233  11.742  0.6014  0.2488  0.3383
  440MOL0     C59271  10.338   8.314  11.834  0.5426  0.4200  0.0667
  440MOL0     C59272  10.198   8.302  11.841  0.5467  0.7533 -0.0181
  440MOL0     O59273  10.112   8.364  11.929  0.3148  0.3833 -0.5459
  440MOL0     C59274  10.157   8.460  12.027  0.0937  0.4762 -0.2943
  440MOL0     C59275  10.104   8.600  11.986 -0.3973 -0.7826  0.0739
  440MOL0     C59276   9.979   8.631  12.062  0.2650 -0.6637 -0.0974
  440MOL0     C59277   9.931   8.774  12.013 -0.1774 -0.8319  0.4873
  440MOL0     C59278   9.782   8.785  12.026  0.3112  0.4604  0.5165
  440MOL0     C59279   9.744   8.837  12.167 -0.8033 -0.2491  0.2554
  440MOL0     C59280   9.595   8.867  12.188 -0.0881 -0.6516  0.1933
  440MOL0     C59281   9.534   8.987  12.111 -0.0348 -0.7336  0.3593
  440MOL0     N59282   9.534   8.984  11.961  0.2942  0.0744 -0.0417
  440MOL0     C59283   9.458   8.905  11.882  0.1721  0.6205  1.4530
  440MOL0     C59284   9.486   8.940  11.753  0.1926  0.2203 -0.1474
  440MOL0     C59285   9.423   8.886  11.622 -0.4526 -0.4389  0.0994
  440MOL0     C59286   9.352   9.005  11.558  0.1227  0.6503 -0.1404
  440MOL0     C59287   9.289   8.946  11.426 -0.4319 -0.5474 -1.1853
  440MOL0     C59288   9.225   9.054  11.343 -0.0397  0.2266 -0.0266
  440MOL0     O59289   9.198   8.994  11.214  0.7743 -0.5069 -0.5621
  440MOL0     C59290   9.076   8.936  11.196  0.6006  0.4579 -0.0888
  440MOL0     C59291   8.982   8.891  11.301 -0.3262 -0.5309 -0.0301
  440MOL0     C59292   8.869   8.825  11.260 -0.4144 -0.3673  0.2729
  440MOL0     C59293   8.835   8.803  11.125  0.9018  0.6595  0.1823
  440MOL0     C59294   8.709   8.749  11.086  0.9559 -0.3832  2.1354
  440MOL0     O59295   8.678   8.757  10.952 -0.1979 -0.6093 -0.9655
  440MOL0     C59296   8.566   8.692  10.907 -0.5669 -0.0082 -0.4065
  440MOL0     C59297   8.461   8.760  10.849  0.3173 -0.2048  0.1892
  440MOL0     C59298   8.348   8.694  10.788  0.5503 -0.5117  0.5042
  440MOL0     C59299   8.337   8.557  10.797  0.2445  0.3762  0.1829
  440MOL0     O59300   8.237   8.478  10.752  0.3294  0.4247  0.3119
  440MOL0     C59301   8.146   8.539  10.653  0.9448  0.6832  0.1898
  440MOL0     C59302   8.075   8.428  10.583 -0.0935  0.5847 -0.0570
  440MOL0     C59303   8.182   8.336  10.513  0.9519 -0.8532  0.6745
  440MOL0     C59304   8.105   8.259  10.392  0.4349  0.6221  0.0393
  440MOL0     C59305   8.196   8.198  10.286 -1.2600 -0.3331 -0.7080
  440MOL0     C59306   8.122   8.135  10.166  0.5234 -0.0665  0.4419
  440MOL0     C59307   7.997   8.039  10.200 -0.3597  0.0560  0.0426
  440MOL0     C59308   8.066   7.914  10.260 -0.3619 -0.1682 -0.7330
  440MOL0    Cl59309   7.940   7.801  10.293  0.0626  0.0636  0.0377
  440MOL0     C59310   8.439   8.485  10.859 -0.5704  0.5853 -0.1012
  440MOL0     C59311   8.548   8.552  10.919  0.1885  0.7072  0.2596
  440MOL0     O59312   8.644   8.680  11.161 -0.5145 -0.1955 -0.3195
  440MOL0     C59313   8.926   8.845  11.036 -0.3146 -0.8772  0.6715
  440MOL0     C59314   9.040   8.919  11.068 -0.0027  0.9127 -0.7477
  440MOL0     N59315   9.578   9.040  11.758  0.0800  0.9593 -0.2557
  440MOL0     N59316   9.604   9.065  11.880 -0.0403  0.1051  0.2504
  440MOL0     C59317  10.140   8.209  11.756  1.0515  0.5247 -0.6424
  440MOL0     C59318  10.212   8.127  11.674 -0.2465  0.1582 -0.1059
  440MOL0     C59319  10.459   7.961  11.367  0.4959 -0.9006 -0.7942
  440MOL0     C59320  10.489   7.845  11.436 -0.2088  0.7815  0.1425
  440MOL0     C59321  10.557   7.747  11.371  0.0213  0.7736  0.1135
  440MOL0     C59322  10.581   7.743  11.232 -0.0755 -0.2505 -0.5152
  440MOL0     O59323  10.668   7.641  11.174  0.3542 -0.1978  0.4701
  440MOL0     C59324  10.618   7.586  11.049  0.3715 -0.1374 -0.2397
  440MOL0     C59325  10.467   7.556  11.053 -0.0084  0.1203  1.1060
  440MOL0     C59326  10.416   7.474  10.922 -0.4580 -0.5131 -0.2815
  440MOL0     C59327  10.279   7.418  10.932  0.4283  0.0664 -0.0667
  440MOL0     C59328  10.181   7.506  10.870  0.7650  0.3390  0.7535
  440MOL0     C59329  10.095   7.582  10.813 -0.5492  0.0542 -0.2861
  440MOL0     C59330  10.535   7.851  11.160 -1.0641  0.0398 -0.1202
  440MOL0     C59331  10.471   7.962  11.222 -0.2342  0.9479  1.4112
  440MOL0     C59332  10.411   8.072  11.131 -0.1652 -0.0008 -0.4577
  440MOL0     H59333  10.520   8.229  11.761  0.1629 -3.6983  3.3454
  440MOL0     H59334  10.399   8.385  11.890  2.1186  1.2315 -2.5130
  440MOL0     H59335  10.126   8.432  12.129 -0.8679  0.9384 -0.4525
  440MOL0     H59336  10.266   8.464  12.033  1.0410 -3.1471 -6.3516
  440MOL0     H59337  10.081   8.603  11.879 -3.1905  1.2352  0.6265
  440MOL0     H59338  10.183   8.671  12.011 -1.2675  0.3216 -0.2546
  440MOL0     H59339   9.992   8.628  12.170  1.8992 -2.4791 -0.3077
  440MOL0     H59340   9.903   8.556  12.037 -0.0818 -0.8032  1.2916
  440MOL0     H59341   9.979   8.848  12.077 -1.9148 -0.2321  1.1523
  440MOL0     H59342   9.954   8.792  11.907  2.8106  4.3510  1.6603
  440MOL0     H59343   9.734   8.853  11.955 -3.4245 -0.4809  1.8995
  440MOL0     H59344   9.747   8.682  12.013  2.4190 -0.4035  1.1837
  440MOL0     H59345   9.762   8.763  12.246  1.2948 -2.6059 -2.2208
  440MOL0     H59346   9.798   8.929  12.190 -0.2181 -0.1314 -1.4634
  440MOL0     H59347   9.586   8.883  12.296  0.3795 -1.2792  0.3306
  440MOL0     H59348   9.537   8.778  12.161 -0.0014 -0.8646  0.6974
  440MOL0     H59349   9.436   8.998  12.159 -0.6154  0.4818 -1.0122
  440MOL0     H59350   9.590   9.078  12.133  1.1845 -1.5861  0.8658
  440MOL0     H59351   9.394   8.825  11.916 -2.0845  1.1168 -1.1676
  440MOL0     H59352   9.499   8.849  11.554  2.0124  0.1048  2.3796
  440MOL0     H59353   9.364   8.796  11.643 -1.6535  0.0972 -0.8495
  440MOL0     H59354   9.269   9.058  11.607 -0.4889  0.4250 -0.9197
  440MOL0     H59355   9.435   9.071  11.532  3.7640 -2.6624  2.1452
  440MOL0     H59356   9.213   8.870  11.448 -0.9619  0.2152 -0.3246
  440MOL0     H59357   9.373   8.904  11.371 -0.8875 -1.1154 -1.4580
  440MOL0     H59358   9.282   9.146  11.323 -2.0760  1.2568 -1.4005
  440MOL0     H59359   9.135   9.087  11.396 -0.7748 -0.8288 -0.5875
  440MOL0     H59360   9.018   8.902  11.403 -0.3311  0.2312 -0.1031
  440MOL0     H59361   8.800   8.766  11.320 -0.4413 -1.0966 -0.4572
  440MOL0     H59362   8.485   8.865  10.834  0.7382 -0.3335 -0.0377
  440MOL0     H59363   8.269   8.757  10.750  2.8889  0.5286 -3.1661
  440MOL0     H59364   8.085   8.609  10.710  2.7093  1.0197  1.7578
  440MOL0     H59365   8.207   8.587  10.575  1.5989  0.2344  0.4154
  440MOL0     H59366   8.007   8.376  10.651 -2.7732  3.1017 -0.5904
  440MOL0     H59367   8.018   8.476  10.502 -0.8195  2.4010  1.4681
  440MOL0     H59368   8.272   8.390  10.485  0.7661 -0.5474  0.6616
  440MOL0     H59369   8.223   8.256  10.576  1.8592 -3.1241 -2.5213
  440MOL0     H59370   8.032   8.323  10.342 -1.7379  1.8177  4.2855
  440MOL0     H59371   8.043   8.178  10.431 -0.1850  0.7483 -0.6606
  440MOL0     H59372   8.271   8.126  10.321 -0.6724  1.8954  3.2846
  440MOL0     H59373   8.263   8.271  10.241 -4.1167  3.9684  1.3743
  440MOL0     H59374   8.080   8.221  10.113 -0.8890 -0.3781  0.9909
  440MOL0     H59375   8.196   8.093  10.097 -0.8691 -1.6702 -0.1658
  440MOL0     H59376   7.921   8.010  10.127 -1.4849  1.2176  0.6929
  440MOL0     H59377   7.928   8.068  10.280  0.2173  0.0706  0.5489
  440MOL0     H59378   8.149   7.880  10.198 -0.2293 -1.4745  0.1445
  440MOL0     H59379   8.114   7.950  10.351  0.8767 -0.2150 -1.3462
  440MOL0     H59380   8.428   8.377  10.867  0.0263  0.6762  2.9587
  440MOL0     H59381   8.614   8.502  10.989 -1.9439 -0.1995  1.7551
  440MOL0     H59382   8.911   8.826  10.931 -0.7646  2.8740 -0.0961
  440MOL0     H59383   9.104   8.950  10.986  2.3659  1.0898  1.0574
  440MOL0     H59384  10.032   8.211  11.764  1.1048  2.2236  0.0318
  440MOL0     H59385  10.158   8.053  11.615 -0.8068 -2.1883  3.0590
  440MOL0     H59386  10.489   7.836  11.544  0.1450 -0.2568  0.0681
  440MOL0     H59387  10.604   7.663  11.420  0.4910  1.2734  0.5315
  440MOL0     H59388  10.681   7.498  11.035  1.6439  0.4454  1.4166
  440MOL0     H59389  10.641   7.662  10.974  3.0849  0.4232  1.0421
  440MOL0     H59390  10.414   7.651  11.042 -0.0583 -0.1683 -2.0083
  440MOL0     H59391  10.432   7.501  11.140 -4.3580 -0.0352 -0.4964
  440MOL0     H59392  10.472   7.381  10.933 -0.6265 -0.7566 -1.3772
  440MOL0     H59393  10.441   7.522  10.827  0.8162  0.6258  0.5990
  440MOL0     H59394  10.266   7.329  10.871 -1.4207 -1.2100  2.0609
  440MOL0     H59395  10.246   7.387  11.031 -2.2116  4.0418  0.5254
  440MOL0     H59396  10.044   7.666  10.770  1.6312  1.3800 -0.4270
  440MOL0     H59397  10.542   7.853  11.052 -0.0485 -0.3735 -0.0742
  440MOL0     H59398  10.305   8.080  11.154 -0.4226 -1.5277 -0.9986
  440MOL0     H59399  10.466   8.164  11.150 -2.6660  1.2258  1.2860
  440MOL0     H59400  10.412   8.047  11.025  1.4234  1.2511 -0.7638
  441MOL0     O59401   0.364  11.472   7.706  0.3469  0.5809 -0.0196
  441MOL0     C59402   0.342  11.570   7.774  0.1678 -0.7452 -0.6641
  441MOL0     O59403   0.345  11.576   7.914 -0.4642  0.2746  0.1518
  441MOL0     C59404   0.359  11.455   7.983 -0.6783  0.3931 -0.3888
  441MOL0     C59405   0.274  11.412   8.078  0.5143  0.0585  0.5197
  441MOL0     C59406   0.290  11.288   8.144  0.8982  0.0595  0.4060
  441MOL0     C59407   0.400  11.216   8.117 -0.4666  0.0325 -0.2027
  441MOL0     O59408   0.436  11.112   8.192 -0.5711  0.6003 -0.4608
  441MOL0     C59409   0.415  11.129   8.331 -0.6252  0.2214 -0.8594
  441MOL0     C59410   0.503  11.235   8.389  0.2399  0.0445 -1.5063
  441MOL0     C59411   0.484  11.244   8.541 -1.0174  0.0390  0.0959
  441MOL0     C59412   0.578  11.160   8.626 -0.7189 -0.5837 -0.6769
  441MOL0     C59413   0.540  11.148   8.778  0.1005 -0.6085  0.8779
  441MOL0     C59414   0.569  11.270   8.867 -0.0891  0.5887  1.1855
  441MOL0     C59415   0.585  11.240   9.017  0.8548  0.7027  1.3845
  441MOL0     C59416   0.601  11.362   9.108  0.2384  0.5352  0.3750
  441MOL0     N59417   0.617  11.315   9.241 -0.8924  1.1079 -0.4677
  441MOL0     C59418   0.728  11.344   9.322  0.1542  0.4487  0.6287
  441MOL0     C59419   0.699  11.291   9.443 -0.3394  0.0294 -0.1420
  441MOL0     C59420   0.776  11.299   9.574 -0.8206  1.0576 -0.3518
  441MOL0     C59421   0.686  11.254   9.689 -0.1358  0.3039 -0.7406
  441MOL0     C59422   0.667  11.106   9.709  1.1435  0.1194 -0.2338
  441MOL0     C59423   0.802  11.032   9.739  0.2960 -0.1302  1.2985
  441MOL0     O59424   0.892  11.106   9.827 -0.4478 -0.3431  0.2816
  441MOL0     C59425   0.865  11.135   9.952 -0.7899  0.8229 -0.5529
  441MOL0     C59426   0.944  11.234  10.018  0.0041  0.1075  0.4289
  441MOL0     C59427   0.931  11.250  10.161  0.7147 -0.6706  0.0409
  441MOL0     C59428   0.833  11.175  10.233  0.4336  0.1951  0.3595
  441MOL0     C59429   0.808  11.186  10.378 -0.1727  0.3449  0.1927
  441MOL0     O59430   0.916  11.226  10.446 -0.4271 -0.3834  1.0947
  441MOL0     C59431   0.905  11.263  10.576 -0.4443  0.0489  0.4987
  441MOL0     C59432   0.989  11.206  10.669 -0.1233  0.4130 -0.9154
  441MOL0     C59433   0.978  11.240  10.800 -0.2063 -0.2475 -0.4546
  441MOL0     C59434   0.866  11.316  10.844 -0.1483  1.3769  1.0354
  441MOL0     O59435   0.843  11.333  10.978 -0.1408  0.1510 -0.7693
  441MOL0     C59436   0.942  11.402  11.056  0.7006  0.2772  0.2918
  441MOL0     C59437   0.955  11.313  11.182 -0.3537 -0.3481 -0.1680
  441MOL0     C59438   1.065  11.378  11.277 -0.6785  1.0164  0.1116
  441MOL0     C59439   1.067  11.300  11.414  0.0957  0.2362 -0.1855
  441MOL0     C59440   0.955  11.346  11.508  0.5366 -0.9398  0.2916
  441MOL0     C59441   0.974  11.291  11.650 -0.3813 -0.5080  0.4142
  441MOL0     C59442   0.837  11.289  11.727 -0.2328  0.4288 -0.4338
  441MOL0     C59443   0.858  11.244  11.874 -0.0761  0.1681  0.7694
  441MOL0    Cl59444   0.905  11.069  11.898  0.5412 -0.5280  0.3252
  441MOL0     C59445   0.781  11.375  10.755 -0.6676  0.9407  0.3440
  441MOL0     C59446   0.802  11.350  10.618 -0.3678 -1.1225  0.0475
  441MOL0     O59447   0.702  11.155  10.424  0.8263  0.8239 -1.1654
  441MOL0     C59448   0.750  11.078  10.165 -0.9176  0.1775  0.4727
  441MOL0     C59449   0.767  11.065  10.022  0.2127 -0.0570 -0.0429
  441MOL0     N59450   0.569  11.244   9.441  0.9549  0.6331  0.5985
  441MOL0     N59451   0.525  11.252   9.320 -0.0763  0.4483  0.1506
  441MOL0     C59452   0.497  11.246   8.026  0.3303 -0.6082 -0.6347
  441MOL0     C59453   0.473  11.374   7.964  0.0541  0.1887  1.0192
  441MOL0     C59454   0.342  11.700   7.692 -0.0564  0.9106  0.0389
  441MOL0     C59455   0.377  11.690   7.553 -0.3144  0.0990  0.3984
  441MOL0     C59456   0.381  11.801   7.472 -0.7247 -0.1434 -0.0070
  441MOL0     C59457   0.339  11.928   7.511  0.1466 -0.1329 -0.5557
  441MOL0     O59458   0.344  12.042   7.445  0.7041  0.1434  0.1900
  441MOL0     C59459   0.437  12.052   7.339  0.1028  0.6580 -0.3799
  441MOL0     C59460   0.477  12.192   7.321 -0.8783  0.2666 -0.2639
  441MOL0     C59461   0.550  12.258   7.449 -0.5737 -0.3276  0.1645
  441MOL0     C59462   0.583  12.404   7.408  1.1292  0.2786 -0.8665
  441MOL0     C59463   0.678  12.417   7.303 -0.5286  0.7487 -0.0326
  441MOL0     C59464   0.771  12.429   7.224  0.3185 -0.7177  0.2020
  441MOL0     C59465   0.300  11.934   7.644  0.3068  0.0937 -0.5165
  441MOL0     C59466   0.299  11.826   7.738  0.3673  0.7227 -0.5112
  441MOL0     C59467   0.256  11.855   7.878  0.5353  0.5689 -0.3008
  441MOL0     H59468   0.194  11.473   8.119  0.1244  2.1831 -3.0155
  441MOL0     H59469   0.220  11.270   8.225  0.2086 -0.7188 -0.3430
  441MOL0     H59470   0.308  11.143   8.353  0.3944  2.5304  3.8273
  441MOL0     H59471   0.442  11.035   8.380 -0.7852 -0.4665 -2.0526
  441MOL0     H59472   0.475  11.336   8.357  1.9236 -0.1605 -3.9720
  441MOL0     H59473   0.603  11.205   8.356  1.3713  1.5138  0.3889
  441MOL0     H59474   0.382  11.205   8.555 -0.1824 -2.7285 -0.8783
  441MOL0     H59475   0.509  11.347   8.569 -0.7216  0.7955 -2.7008
  441MOL0     H59476   0.582  11.060   8.583 -0.9800 -1.2513  0.7878
  441MOL0     H59477   0.672  11.213   8.608 -0.4534 -0.7300  0.2308
  441MOL0     H59478   0.435  11.124   8.795 -0.6855  0.5355 -1.8276
  441MOL0     H59479   0.594  11.057   8.804 -2.1317 -2.2628  0.0479
  441MOL0     H59480   0.659  11.316   8.826 -0.0104 -0.2632  0.3912
  441MOL0     H59481   0.489  11.342   8.850  3.3764  4.3941 -0.8872
  441MOL0     H59482   0.668  11.169   9.021 -0.1936 -0.5352  1.6516
  441MOL0     H59483   0.490  11.192   9.043 -1.2040  2.7787 -1.6012
  441MOL0     H59484   0.690  11.416   9.072  0.0553  0.9312  0.5081
  441MOL0     H59485   0.517  11.432   9.101 -1.2388 -1.2398 -0.2634
  441MOL0     H59486   0.807  11.408   9.286 -1.8906  0.8200 -3.9525
  441MOL0     H59487   0.864  11.234   9.575  0.8148  3.1575 -0.6202
  441MOL0     H59488   0.806  11.404   9.589 -1.3140  1.3929 -1.5978
  441MOL0     H59489   0.740  11.298   9.773  0.2527  0.0236 -0.8403
  441MOL0     H59490   0.589  11.305   9.680  0.2429  1.6586  1.8984
  441MOL0     H59491   0.608  11.054   9.634 -0.9269  3.1482 -0.9146
  441MOL0     H59492   0.616  11.098   9.805  0.4019  0.6206 -0.5836
  441MOL0     H59493   0.838  11.005   9.639 -0.5494  3.6123 -0.2098
  441MOL0     H59494   0.786  10.934   9.785 -0.9484 -1.7494 -2.2122
  441MOL0     H59495   1.026  11.280   9.964 -0.3108  0.7876  0.5256
  441MOL0     H59496   1.003  11.317  10.207  2.5338 -2.1391 -0.5526
  441MOL0     H59497   1.076  11.156  10.626 -0.6036 -0.6267 -0.6892
  441MOL0     H59498   1.045  11.194  10.871  1.3875  2.4649 -0.0698
  441MOL0     H59499   1.039  11.402  11.005  1.1848  1.8504  1.1672
  441MOL0     H59500   0.891  11.498  11.063 -1.6076 -0.8336 -0.4949
  441MOL0     H59501   0.857  11.306  11.232  0.6574  0.7638  2.1111
  441MOL0     H59502   0.980  11.211  11.153  1.3548  0.7933 -3.1563
  441MOL0     H59503   1.168  11.369  11.241 -0.2070  1.3195  1.3252
  441MOL0     H59504   1.048  11.485  11.291  0.0471  1.6143 -2.8361
  441MOL0     H59505   1.165  11.313  11.461  1.3739 -1.2558 -2.2759
  441MOL0     H59506   1.055  11.194  11.389  0.3689  0.0300  0.5424
  441MOL0     H59507   0.867  11.303  11.459  1.5684 -0.3960 -2.1472
  441MOL0     H59508   0.957  11.455  11.505 -1.0595 -0.8794  0.6194
  441MOL0     H59509   1.007  11.187  11.648 -2.0539 -1.0819 -1.5912
  441MOL0     H59510   1.030  11.359  11.715 -3.0287  0.9710  1.3235
  441MOL0     H59511   0.778  11.215  11.674 -0.6073  0.9731 -0.7796
  441MOL0     H59512   0.786  11.386  11.733  0.2762  0.6335  2.4438
  441MOL0     H59513   0.940  11.307  11.909  0.8605 -1.4929  1.7099
  441MOL0     H59514   0.767  11.274  11.927 -0.3028  4.2711 -1.5614
  441MOL0     H59515   0.701  11.433  10.800 -0.5182 -0.0357  1.9469
  441MOL0     H59516   0.737  11.379  10.535 -0.9831 -1.1209  0.5219
  441MOL0     H59517   0.681  11.016  10.221 -0.5183  0.3507  1.1586
  441MOL0     H59518   0.705  10.986   9.980 -2.0270  1.5428  0.0825
  441MOL0     H59519   0.585  11.185   8.011 -0.4179 -1.5551 -1.3700
  441MOL0     H59520   0.556  11.402   7.899  1.9812 -1.2237  2.7283
  441MOL0     H59521   0.426  11.599   7.522  3.7826  0.5735  4.3657
  441MOL0     H59522   0.426  11.790   7.374  0.0842  4.0988 -0.2987
  441MOL0     H59523   0.386  12.011   7.252 -2.8760  2.8755  0.1407
  441MOL0     H59524   0.529  11.998   7.361 -1.8382 -1.7520  2.7447
  441MOL0     H59525   0.386  12.248   7.300 -1.4287 -0.5465 -0.0912
  441MOL0     H59526   0.540  12.194   7.231 -0.4397  3.2787  0.0233
  441MOL0     H59527   0.645  12.214   7.480  0.1470  0.8862 -0.2582
  441MOL0     H59528   0.487  12.257   7.538  0.6253  1.2985  1.0873
  441MOL0     H59529   0.495  12.462   7.377  1.5649 -0.3218 -3.3881
  441MOL0     H59530   0.618  12.459   7.496  1.7740 -1.3292 -0.0782
  441MOL0     H59531   0.857  12.434   7.160  2.2766  1.0482  2.7517
  441MOL0     H59532   0.249  12.027   7.666  0.3932  0.1920 -0.7327
  441MOL0     H59533   0.343  11.889   7.934  0.4072  0.3797  0.0183
  441MOL0     H59534   0.181  11.933   7.865  2.3714  2.3909 -0.4336
  441MOL0     H59535   0.214  11.771   7.935 -1.6605  1.7044 -0.1369
  442MOL0     O59536  11.034   1.431   2.999  0.5294 -0.0789  0.5659
  442MOL0     C59537  11.138   1.489   3.024 -0.0536 -0.3372 -0.0537
  442MOL0     O59538  11.158   1.609   3.085  0.0478  0.5279  0.2450
  442MOL0     C59539  11.050   1.688   3.123 -0.6228  0.1949 -0.0090
  442MOL0     C59540  11.053   1.723   3.259 -0.3371  0.1163 -0.8211
  442MOL0     C59541  10.944   1.794   3.312 -0.0448 -0.2947 -0.9032
  442MOL0     C59542  10.831   1.822   3.233  0.0834 -0.0754  0.2373
  442MOL0     O59543  10.718   1.854   3.300  0.2322  0.1052 -0.3006
  442MOL0     C59544  10.584   1.845   3.241  0.0466 -0.2985  0.4039
  442MOL0     C59545  10.493   1.777   3.340 -0.1109  0.3922 -0.5444
  442MOL0     C59546  10.354   1.754   3.277 -0.0852  0.4414  0.7948
  442MOL0     C59547  10.236   1.719   3.369  0.5668  0.2085  0.7425
  442MOL0     C59548  10.128   1.640   3.284  0.3382  0.9758  1.3239
  442MOL0     C59549  10.032   1.555   3.365 -0.4360  0.4027  0.5700
  442MOL0     C59550   9.897   1.516   3.285  0.7590  0.8592  0.0557
  442MOL0     C59551   9.790   1.501   3.384  0.4515 -0.2807 -0.9695
  442MOL0     N59552   9.754   1.614   3.473 -0.1436 -0.5687 -0.5853
  442MOL0     C59553   9.685   1.722   3.435  0.1138 -0.8019 -0.6846
  442MOL0     C59554   9.713   1.816   3.532  0.4439  0.3266  0.6472
  442MOL0     C59555   9.646   1.949   3.561  0.1942 -0.0042 -0.2942
  442MOL0     C59556   9.604   1.968   3.709  0.3953 -0.4750  0.1636
  442MOL0     C59557   9.555   2.112   3.744 -0.1425  0.2998 -0.2075
  442MOL0     C59558   9.511   2.112   3.900  0.3213 -0.6353 -0.4132
  442MOL0     O59559   9.614   2.054   3.987 -0.5086 -0.4766  0.1226
  442MOL0     C59560   9.609   2.062   4.127  0.1054  0.3691  0.3865
  442MOL0     C59561   9.717   1.996   4.197 -0.7222  0.9762 -0.3491
  442MOL0     C59562   9.739   2.016   4.335 -0.3239  0.2278  0.6997
  442MOL0     C59563   9.656   2.096   4.414 -0.0779  0.0062  0.2216
  442MOL0     C59564   9.641   2.105   4.564 -0.2886 -0.3564  0.2458
  442MOL0     O59565   9.520   2.157   4.603  0.1504 -0.5901 -0.2071
  442MOL0     C59566   9.484   2.162   4.729  1.2284  0.4055 -1.4311
  442MOL0     C59567   9.552   2.227   4.838 -0.4011  0.2862 -1.0537
  442MOL0     C59568   9.488   2.234   4.967  0.9031  0.2931 -0.5526
  442MOL0     C59569   9.363   2.176   4.992  0.6938 -0.1697  0.2872
  442MOL0     O59570   9.303   2.180   5.114 -0.4607 -0.7935 -0.4550
  442MOL0     C59571   9.299   2.297   5.188  0.6863  0.2371  0.1143
  442MOL0     C59572   9.156   2.349   5.225 -0.1945 -0.3418 -0.1582
  442MOL0     C59573   9.079   2.369   5.090 -0.1498  0.5086 -0.3566
  442MOL0     C59574   8.960   2.468   5.099 -0.2994  0.7313 -0.1517
  442MOL0     C59575   8.833   2.416   5.025  0.4336  0.7543  0.1673
  442MOL0     C59576   8.756   2.293   5.087  0.0072  0.2386  0.0748
  442MOL0     C59577   8.772   2.286   5.240 -0.2296  1.0737  0.2754
  442MOL0     C59578   8.675   2.187   5.304 -0.2807  0.2792  0.2320
  442MOL0    Cl59579   8.710   2.148   5.484 -0.4101 -0.1397  0.1712
  442MOL0     C59580   9.304   2.116   4.882 -0.2161 -0.5069 -0.3536
  442MOL0     C59581   9.355   2.110   4.753  0.6056  1.1435 -0.5582
  442MOL0     O59582   9.716   2.060   4.646 -0.2513  0.6290  0.1198
  442MOL0     C59583   9.555   2.159   4.340  0.1790 -1.3654 -0.0484
  442MOL0     C59584   9.532   2.149   4.206  0.5022  0.4061  0.0477
  442MOL0     N59585   9.779   1.751   3.646 -0.0616 -0.0329 -0.3806
  442MOL0     N59586   9.799   1.634   3.603 -0.2637  0.3876  0.3480
  442MOL0     C59587  10.834   1.778   3.098  0.0210 -0.3633  1.0561
  442MOL0     C59588  10.944   1.716   3.041 -0.7085 -0.1183 -0.4103
  442MOL0     C59589  11.261   1.431   2.961 -0.0423  0.1675  0.4275
  442MOL0     C59590  11.374   1.484   3.013 -0.1712  0.4643  0.0584
  442MOL0     C59591  11.498   1.454   2.958  0.6024  0.4029 -0.2086
  442MOL0     C59592  11.509   1.360   2.860  0.0238 -0.3372  0.3032
  442MOL0     O59593  11.639   1.338   2.805  0.2041 -0.7249  0.6182
  442MOL0     C59594  11.677   1.200   2.827  0.7740 -0.0387 -0.0043
  442MOL0     C59595  11.792   1.197   2.943 -0.4799  1.1291  0.0847
  442MOL0     C59596  11.856   1.059   2.959  0.0701  0.2121  0.6198
  442MOL0     C59597  11.995   1.061   3.036  0.3195  0.0332 -0.6010
  442MOL0     C59598  12.021   0.925   3.084 -1.3263  0.6423  0.1513
  442MOL0     C59599  12.052   0.809   3.106  0.2966 -0.4188 -0.8669
  442MOL0     C59600  11.393   1.308   2.807 -0.4535  0.4323 -0.5243
  442MOL0     C59601  11.269   1.339   2.856  0.9726  0.7984  0.7677
  442MOL0     C59602  11.155   1.283   2.773 -0.3590  1.2605  0.1884
  442MOL0     H59603  11.129   1.699   3.332  2.9253  5.0945 -2.0782
  442MOL0     H59604  10.946   1.828   3.415  0.2739 -4.6582  0.7483
  442MOL0     H59605  10.544   1.947   3.243  1.1855  0.1811 -0.0768
  442MOL0     H59606  10.579   1.789   3.147 -1.0897  0.0321  0.2457
  442MOL0     H59607  10.488   1.837   3.431  0.5475  0.1848 -0.3634
  442MOL0     H59608  10.526   1.679   3.375  0.7205  1.4320  1.8226
  442MOL0     H59609  10.362   1.676   3.200 -0.6512 -0.8961  2.0425
  442MOL0     H59610  10.323   1.846   3.228 -0.4806 -0.0306  0.1330
  442MOL0     H59611  10.263   1.660   3.457 -0.3884 -1.7925 -0.2348
  442MOL0     H59612  10.185   1.809   3.403 -1.1136  0.1268 -1.3822
  442MOL0     H59613  10.062   1.702   3.222  0.2309  0.9969  1.4600
  442MOL0     H59614  10.173   1.563   3.220 -0.1438  1.0721  0.8571
  442MOL0     H59615  10.088   1.473   3.410  0.6357  1.7266  1.7572
  442MOL0     H59616  10.010   1.616   3.453  1.4199  3.0378 -0.6536
  442MOL0     H59617   9.908   1.419   3.235 -1.2593 -0.2793  1.6764
  442MOL0     H59618   9.859   1.591   3.215  0.3274 -0.5814 -1.3207
  442MOL0     H59619   9.700   1.486   3.323 -0.1090  0.9417 -0.4730
  442MOL0     H59620   9.815   1.409   3.438 -0.9805 -0.7280 -1.0317
  442MOL0     H59621   9.613   1.726   3.354 -2.7352 -0.9799  1.7035
  442MOL0     H59622   9.711   2.030   3.525  1.4736 -1.0073 -0.3160
  442MOL0     H59623   9.556   1.965   3.501 -0.5192 -3.2798 -0.2823
  442MOL0     H59624   9.528   1.896   3.737 -0.1207  1.0421  2.9823
  442MOL0     H59625   9.689   1.941   3.772 -0.7321 -0.2773  1.8075
  442MOL0     H59626   9.461   2.128   3.690 -0.9884 -1.3152  0.6961
  442MOL0     H59627   9.635   2.182   3.721  0.9229 -0.0068  2.2295
  442MOL0     H59628   9.418   2.056   3.908  1.9640 -4.0296 -2.5587
  442MOL0     H59629   9.502   2.219   3.920  0.7586 -0.7265  0.3403
  442MOL0     H59630   9.790   1.927   4.156 -2.1425 -0.3593 -0.7030
  442MOL0     H59631   9.807   1.950   4.388  1.1435 -0.0303 -1.4109
  442MOL0     H59632   9.648   2.278   4.834 -0.1616 -0.1177 -0.6177
  442MOL0     H59633   9.532   2.306   5.035  1.3741  1.7379 -2.2927
  442MOL0     H59634   9.344   2.268   5.284 -0.1516 -2.0540 -0.1111
  442MOL0     H59635   9.365   2.374   5.147  2.3356 -0.3446  1.5231
  442MOL0     H59636   9.100   2.276   5.284  1.0723 -2.7905 -1.8190
  442MOL0     H59637   9.154   2.448   5.272 -1.7017  0.1381 -1.1617
  442MOL0     H59638   9.146   2.396   5.008 -0.1926  0.6303 -0.3531
  442MOL0     H59639   9.046   2.270   5.057  0.6435 -0.1937  0.9107
  442MOL0     H59640   8.986   2.567   5.061  1.7055  0.4302  0.2915
  442MOL0     H59641   8.943   2.477   5.207  2.6462 -6.1119  1.4894
  442MOL0     H59642   8.873   2.394   4.925  0.5970  1.2289  0.1251
  442MOL0     H59643   8.763   2.500   5.016  1.6586  2.0234  1.7157
  442MOL0     H59644   8.650   2.303   5.059 -0.4171  0.5658  1.6760
  442MOL0     H59645   8.802   2.203   5.046  2.0178  0.9275  0.7119
  442MOL0     H59646   8.771   2.383   5.290  2.0840  0.5143  1.5900
  442MOL0     H59647   8.870   2.245   5.267 -0.3132  1.9598  2.0828
  442MOL0     H59648   8.573   2.226   5.300 -1.4101 -1.7246  4.2071
  442MOL0     H59649   8.666   2.095   5.246  0.8185  1.0921 -1.2947
  442MOL0     H59650   9.207   2.075   4.909 -1.8673  2.1640 -1.8443
  442MOL0     H59651   9.302   2.062   4.672 -1.5383  0.5874  1.0554
  442MOL0     H59652   9.488   2.223   4.397  2.0225 -2.6147  3.8668
  442MOL0     H59653   9.466   2.230   4.178  0.3728 -0.4120 -2.2160
  442MOL0     H59654  10.749   1.801   3.034 -1.6934 -2.3342  2.4879
  442MOL0     H59655  10.928   1.682   2.939  1.2957 -1.9938 -0.1716
  442MOL0     H59656  11.378   1.562   3.088  0.5134 -0.4281  0.9701
  442MOL0     H59657  11.585   1.511   2.989 -0.2765  2.9016 -2.0496
  442MOL0     H59658  11.723   1.165   2.734  1.3781 -0.8505  0.5911
  442MOL0     H59659  11.587   1.139   2.838  1.2076 -1.3205 -2.6639
  442MOL0     H59660  11.735   1.227   3.031 -1.3178 -1.4563  0.4921
  442MOL0     H59661  11.874   1.267   2.922 -0.9615  0.8603 -3.2925
  442MOL0     H59662  11.876   1.018   2.859 -3.6095 -2.8924  0.9354
  442MOL0     H59663  11.796   0.980   3.005  0.3098 -0.7454 -0.6497
  442MOL0     H59664  12.083   1.110   2.993 -0.5446  2.5590  0.3255
  442MOL0     H59665  11.984   1.113   3.131  1.1596 -0.7392 -0.0704
  442MOL0     H59666  12.093   0.719   3.148  0.7455  0.0246 -0.3326
  442MOL0     H59667  11.414   1.232   2.732  1.2740  0.9187 -0.5556
  442MOL0     H59668  11.190   1.239   2.679 -1.8824  1.3805 -0.4672
  442MOL0     H59669  11.097   1.211   2.832  0.3104 -1.7967 -2.6111
  442MOL0     H59670  11.081   1.357   2.742  1.7589  2.7742 -1.5636
  443MOL0     O59671   2.201  10.472   1.070  0.3837  0.9210 -0.3136
  443MOL0     C59672   2.290  10.554   1.065  0.0771 -0.5573 -0.1538
  443MOL0     O59673   2.409  10.543   1.009  0.1414 -0.4010 -0.0440
  443MOL0     C59674   2.434  10.420   0.958 -0.0334  1.2770 -0.4040
  443MOL0     C59675   2.462  10.408   0.821 -0.1300  0.0428  0.0925
  443MOL0     C59676   2.476  10.278   0.759  0.4943  1.0822  0.0933
  443MOL0     C59677   2.470  10.162   0.833 -0.2160  0.2610  0.3952
  443MOL0     O59678   2.485  10.035   0.767 -0.4878  0.1853  0.2342
  443MOL0     C59679   2.432   9.925   0.849 -0.2580 -0.2832 -0.2090
  443MOL0     C59680   2.438   9.799   0.759 -0.0555 -0.4317 -0.4788
  443MOL0     C59681   2.305   9.768   0.690 -0.3627 -0.7214 -0.2804
  443MOL0     C59682   2.329   9.666   0.569 -0.2881 -0.2112  0.1542
  443MOL0     C59683   2.195   9.637   0.496 -0.4395  0.0272 -0.7441
  443MOL0     C59684   2.164   9.744   0.387  0.3101 -0.5788  0.0305
  443MOL0     C59685   2.034   9.709   0.316 -0.2669  0.4684  0.1589
  443MOL0     C59686   1.912   9.756   0.405 -0.1791  0.3034  0.1316
  443MOL0     N59687   1.860   9.884   0.361  0.9934 -0.2572  0.2354
  443MOL0     C59688   1.766   9.888   0.260 -0.0077 -0.1278 -0.8749
  443MOL0     C59689   1.788  10.010   0.198 -0.1453 -0.0890 -0.6137
  443MOL0     C59690   1.701  10.059   0.078 -0.8159  0.3581 -0.1504
  443MOL0     C59691   1.669   9.930  -0.002 -0.6682 -0.0881 -0.0668
  443MOL0     C59692   1.606   9.954  -0.145 -0.6432 -0.2924 -0.4064
  443MOL0     C59693   1.631   9.840  -0.234 -0.8304  0.4166 -0.7463
  443MOL0     O59694   1.574   9.721  -0.170  0.0590  0.8338  0.1087
  443MOL0     C59695   1.590   9.601  -0.236  1.4807  0.8611 -0.0764
  443MOL0     C59696   1.678   9.586  -0.343 -0.0649 -0.0936  0.7087
  443MOL0     C59697   1.700   9.465  -0.398 -0.1076 -0.4448 -0.2387
  443MOL0     C59698   1.643   9.350  -0.348  0.6729  0.2622 -0.4886
  443MOL0     C59699   1.673   9.218  -0.393  0.2514  0.1423  0.2459
  443MOL0     O59700   1.637   9.119  -0.310 -0.1920  0.1271  0.9151
  443MOL0     C59701   1.635   8.987  -0.357 -0.8124  0.6638 -0.3025
  443MOL0     C59702   1.627   8.873  -0.269  0.3768 -0.5985 -0.4410
  443MOL0     C59703   1.594   8.740  -0.305 -0.5628  0.2732 -0.8364
  443MOL0     C59704   1.596   8.714  -0.444 -0.5858  0.3796  0.9716
  443MOL0     O59705   1.573   8.587  -0.489 -0.0080  0.3329 -0.2276
  443MOL0     C59706   1.667   8.543  -0.584 -0.9671 -0.2754 -0.1915
  443MOL0     C59707   1.643   8.390  -0.590  0.0168 -0.6868 -0.1793
  443MOL0     C59708   1.706   8.319  -0.711 -0.1436  0.4388 -0.6993
  443MOL0     C59709   1.831   8.222  -0.699 -0.8276  0.5147  0.2543
  443MOL0     C59710   1.883   8.179  -0.845  0.5416  0.7315 -0.4665
  443MOL0     C59711   1.996   8.074  -0.825 -0.4512 -0.2521 -0.0559
  443MOL0     C59712   2.104   8.088  -0.932 -0.1251  0.5516 -0.5269
  443MOL0     C59713   2.223   8.170  -0.888  0.1198 -0.0491 -0.3598
  443MOL0    Cl59714   2.362   8.144  -1.009 -0.5345  0.2226 -0.2788
  443MOL0     C59715   1.619   8.818  -0.535  0.3573  0.8829 -0.2450
  443MOL0     C59716   1.628   8.952  -0.493 -0.2631  0.5275 -0.1159
  443MOL0     O59717   1.741   9.209  -0.496 -0.3989  0.0787 -0.3046
  443MOL0     C59718   1.550   9.367  -0.242 -0.7345  0.3615 -0.2865
  443MOL0     C59719   1.530   9.493  -0.180  0.4058 -0.5849 -0.1641
  443MOL0     N59720   1.884  10.071   0.265 -0.5058 -0.0555  0.0360
  443MOL0     N59721   1.932   9.999   0.355 -0.3605  0.2177 -0.5398
  443MOL0     C59722   2.454  10.174   0.979 -0.2831 -0.3376 -0.3325
  443MOL0     C59723   2.437  10.303   1.037  0.2565  0.3125  0.7343
  443MOL0     C59724   2.258  10.679   1.135 -0.0337  0.2450  0.2430
  443MOL0     C59725   2.255  10.792   1.056 -1.0435 -0.2136  0.3458
  443MOL0     C59726   2.224  10.911   1.113  0.1964  0.0526 -1.4834
  443MOL0     C59727   2.175  10.926   1.232  0.1493 -0.2639  0.5716
  443MOL0     O59728   2.165  11.051   1.296  0.3566  0.6564 -0.2465
  443MOL0     C59729   2.145  11.168   1.229 -0.7498  0.0298  0.1744
  443MOL0     C59730   2.006  11.166   1.159  0.7696 -0.0488  0.3097
  443MOL0     C59731   1.889  11.182   1.249  0.2931  0.4141  0.0898
  443MOL0     C59732   1.886  11.307   1.341  0.9039 -0.7611  0.3515
  443MOL0     C59733   1.767  11.324   1.427 -0.4672  1.0625  0.8492
  443MOL0     C59734   1.665  11.329   1.492 -0.9616 -0.3656 -0.5694
  443MOL0     C59735   2.195  10.825   1.317 -0.1449  0.6204 -0.4324
  443MOL0     C59736   2.219  10.692   1.274 -0.0693  0.3372  0.8913
  443MOL0     C59737   2.241  10.571   1.375  0.1568  0.1512  0.9559
  443MOL0     H59738   2.463  10.482   0.742  1.9568 -1.8443 -1.7786
  443MOL0     H59739   2.492  10.265   0.652  2.9856 -0.1266  0.5269
  443MOL0     H59740   2.491   9.922   0.942  0.1594  0.4588 -0.4363
  443MOL0     H59741   2.331   9.938   0.888 -0.6218 -0.8457 -0.9512
  443MOL0     H59742   2.447   9.715   0.829 -3.0095  0.3143  0.9347
  443MOL0     H59743   2.534   9.791   0.707  0.1133 -2.3010  0.0299
  443MOL0     H59744   2.264   9.856   0.640 -0.6261 -1.1027 -0.7615
  443MOL0     H59745   2.225   9.736   0.758 -0.3868 -0.4023 -0.1568
  443MOL0     H59746   2.421   9.690   0.514  0.3383  2.2657  2.0676
  443MOL0     H59747   2.354   9.570   0.615  0.0806 -0.5013 -0.6281
  443MOL0     H59748   2.198   9.536   0.454 -1.3882 -0.2830 -0.1030
  443MOL0     H59749   2.115   9.629   0.570 -1.1149 -2.1220 -1.6189
  443MOL0     H59750   2.164   9.844   0.430 -0.3946 -0.8135  0.5952
  443MOL0     H59751   2.244   9.741   0.313  0.3676 -0.3341  0.0844
  443MOL0     H59752   2.028   9.601   0.302  3.2149  0.5256 -3.2520
  443MOL0     H59753   2.038   9.749   0.215 -3.9824  2.0379  0.4618
  443MOL0     H59754   1.830   9.684   0.397 -1.5417  1.9152 -0.8473
  443MOL0     H59755   1.932   9.767   0.512  0.5870  0.6794 -0.0444
  443MOL0     H59756   1.708   9.807   0.215 -0.5442 -0.2622  0.0388
  443MOL0     H59757   1.606  10.111   0.097 -0.0373  1.0807  2.0619
  443MOL0     H59758   1.759  10.130   0.018  0.6949  2.5865  3.5679
  443MOL0     H59759   1.768   9.887  -0.018 -0.9303 -0.7252  0.0114
  443MOL0     H59760   1.606   9.856   0.048 -1.5421  0.7071  0.0417
  443MOL0     H59761   1.640  10.050  -0.185  0.3060 -0.7584 -0.7418
  443MOL0     H59762   1.497   9.951  -0.133 -0.3704 -0.6535  3.5695
  443MOL0     H59763   1.737   9.842  -0.259 -1.4217  2.8543 -3.6339
  443MOL0     H59764   1.591   9.863  -0.334  2.3624  1.3699 -1.9128
  443MOL0     H59765   1.739   9.661  -0.392  1.4806 -0.9724  1.2298
  443MOL0     H59766   1.776   9.465  -0.475  1.7648 -1.0755  1.5203
  443MOL0     H59767   1.629   8.890  -0.161 -0.2013 -1.4415 -0.2861
  443MOL0     H59768   1.565   8.661  -0.237  3.9440 -1.3607 -0.4259
  443MOL0     H59769   1.654   8.597  -0.678  1.2365  0.2784 -0.2444
  443MOL0     H59770   1.775   8.545  -0.567 -0.8646 -3.3528  0.0019
  443MOL0     H59771   1.686   8.352  -0.497  3.2765 -1.1655 -1.7297
  443MOL0     H59772   1.537   8.363  -0.597  0.8347 -3.9245 -2.0191
  443MOL0     H59773   1.625   8.259  -0.752  2.2381 -0.5823 -4.3477
  443MOL0     H59774   1.727   8.397  -0.785  1.2449 -0.5375 -1.3670
  443MOL0     H59775   1.812   8.129  -0.645  1.8385 -1.3078 -1.7111
  443MOL0     H59776   1.908   8.277  -0.644 -1.3234  0.1068  1.3904
  443MOL0     H59777   1.920   8.272  -0.889  0.3909  1.5065  0.9817
  443MOL0     H59778   1.802   8.133  -0.903 -1.2094 -0.2420  2.5516
  443MOL0     H59779   2.039   8.089  -0.725  1.1598  0.2398 -0.7767
  443MOL0     H59780   1.965   7.969  -0.835  5.6836 -2.3514 -2.1215
  443MOL0     H59781   2.059   8.125  -1.025 -1.2482  0.0672 -0.1854
  443MOL0     H59782   2.147   7.989  -0.951  1.0331  1.0213 -0.4548
  443MOL0     H59783   2.191   8.273  -0.868  0.0011 -0.2293  0.3994
  443MOL0     H59784   2.253   8.123  -0.794  1.3901  1.9691  0.2954
  443MOL0     H59785   1.635   8.794  -0.640 -0.0260 -0.1809 -0.0784
  443MOL0     H59786   1.626   9.022  -0.576  1.3957 -0.2747 -0.8672
  443MOL0     H59787   1.500   9.277  -0.206 -3.0329  0.4702 -2.8587
  443MOL0     H59788   1.487   9.494  -0.081  0.0047  1.3009 -0.3098
  443MOL0     H59789   2.433  10.092   1.047 -1.6419 -0.5933 -1.0137
  443MOL0     H59790   2.425  10.320   1.143 -2.0549 -0.2628  0.6118
  443MOL0     H59791   2.286  10.778   0.953 -1.5747  2.0152 -0.1779
  443MOL0     H59792   2.252  11.002   1.060  1.8833  1.5538  1.7143
  443MOL0     H59793   2.226  11.170   1.156 -0.3877 -0.5259  0.5592
  443MOL0     H59794   2.170  11.256   1.290 -1.5622  0.2759  0.1681
  443MOL0     H59795   1.993  11.074   1.101  0.5309 -0.5312  1.1008
  443MOL0     H59796   2.010  11.243   1.082  3.0192 -0.2342  0.1639
  443MOL0     H59797   1.891  11.084   1.297  4.7072 -0.3428 -1.2046
  443MOL0     H59798   1.801  11.177   1.185  1.9176 -0.8474 -2.1920
  443MOL0     H59799   1.958  11.315   1.423  1.2144  2.6928 -0.0995
  443MOL0     H59800   1.896  11.393   1.275  2.6482  0.2927  1.9083
  443MOL0     H59801   1.574  11.324   1.549 -1.0639 -0.1647 -0.7123
  443MOL0     H59802   2.176  10.830   1.424 -1.5546 -0.7550 -0.5791
  443MOL0     H59803   2.152  10.513   1.398  1.0078 -2.8122 -2.3254
  443MOL0     H59804   2.305  10.493   1.332 -1.9013  0.2387 -2.6971
  443MOL0     H59805   2.290  10.617   1.462 -0.5851  0.7650  1.0580
  444MOL0     O59806   5.885   3.484   0.475 -0.1637 -0.8474 -0.0527
  444MOL0     C59807   5.814   3.586   0.487 -0.2834 -0.1142 -0.6356
  444MOL0     O59808   5.676   3.581   0.482  0.3839 -0.2579  0.3188
  444MOL0     C59809   5.627   3.458   0.436 -0.1019  0.5676 -0.9152
  444MOL0     C59810   5.573   3.422   0.310 -0.3722 -1.7580 -0.4880
  444MOL0     C59811   5.541   3.292   0.279 -0.8204 -1.0271 -0.3541
  444MOL0     C59812   5.572   3.178   0.352  1.0130 -0.2757 -0.8689
  444MOL0     O59813   5.538   3.051   0.318  0.1715 -0.4540  0.0825
  444MOL0     C59814   5.614   2.971   0.220  0.2287 -0.2303 -0.5235
  444MOL0     C59815   5.532   2.861   0.152 -0.6654  0.3830 -0.8169
  444MOL0     C59816   5.588   2.795   0.024  0.2068 -0.6175  0.2702
  444MOL0     C59817   5.489   2.702  -0.044 -0.1646 -1.1349  0.3710
  444MOL0     C59818   5.533   2.666  -0.186  0.8625 -0.0665 -0.1255
  444MOL0     C59819   5.642   2.561  -0.192  0.3107 -0.5512  0.0570
  444MOL0     C59820   5.583   2.422  -0.147 -0.0087 -1.1120 -0.3605
  444MOL0     C59821   5.480   2.368  -0.246  0.4088 -1.0042  0.0859
  444MOL0     N59822   5.352   2.353  -0.174 -0.4807  0.1019  0.2509
  444MOL0     C59823   5.262   2.440  -0.154  0.0807 -0.2976  0.3578
  444MOL0     C59824   5.173   2.384  -0.061 -0.5326  0.1072  0.1015
  444MOL0     C59825   5.050   2.440   0.008 -0.0494  0.1259  0.6401
  444MOL0     C59826   5.062   2.469   0.159 -0.3587  0.2010 -0.3461
  444MOL0     C59827   4.956   2.408   0.256 -0.3108 -0.4249  0.5873
  444MOL0     C59828   4.952   2.253   0.243 -0.1785 -0.0011 -0.1117
  444MOL0     O59829   4.848   2.200   0.327  0.2553 -0.1507 -0.2218
  444MOL0     C59830   4.870   2.170   0.458 -0.8374 -0.3629  0.5536
  444MOL0     C59831   4.989   2.125   0.506 -0.2911  0.6738  0.4399
  444MOL0     C59832   5.009   2.104   0.647  0.8288 -0.5532 -0.0214
  444MOL0     C59833   4.911   2.127   0.737 -0.5933  0.1932 -0.1635
  444MOL0     C59834   4.940   2.112   0.885 -0.0118  0.3436  0.7777
  444MOL0     O59835   4.827   2.102   0.960  0.5957  0.5282  0.4062
  444MOL0     C59836   4.841   2.091   1.095  0.0821 -0.0952  0.6569
  444MOL0     C59837   4.821   1.965   1.150 -0.7836 -0.2827 -0.6029
  444MOL0     C59838   4.835   1.944   1.285 -0.4117 -0.2474 -0.1268
  444MOL0     C59839   4.852   2.050   1.375 -0.0495  0.1711 -0.4394
  444MOL0     O59840   4.867   2.030   1.505 -0.4232  0.8769 -0.2511
  444MOL0     C59841   4.937   1.917   1.553  0.3302  0.6640  0.8611
  444MOL0     C59842   4.991   1.957   1.688 -0.4473 -0.2179  0.2289
  444MOL0     C59843   4.873   1.938   1.788  0.6712 -1.1762 -1.4041
  444MOL0     C59844   4.911   1.976   1.930  0.8956  0.1774  0.7495
  444MOL0     C59845   4.814   1.930   2.042 -0.3889  0.1035 -0.4096
  444MOL0     C59846   4.858   2.013   2.164  0.5337  0.2321  0.3010
  444MOL0     C59847   4.777   1.962   2.278 -0.7482  0.8198  0.4537
  444MOL0     C59848   4.860   1.989   2.417  0.7404  0.7026 -0.0390
  444MOL0    Cl59849   5.012   1.887   2.395  0.3052  0.3060 -0.4192
  444MOL0     C59850   4.849   2.178   1.325 -0.5335 -0.1551 -0.5665
  444MOL0     C59851   4.842   2.199   1.181 -0.0273 -0.3461 -0.6594
  444MOL0     O59852   5.054   2.110   0.925 -0.1503 -0.8881 -0.4180
  444MOL0     C59853   4.791   2.174   0.692 -0.3159 -0.2809  0.2955
  444MOL0     C59854   4.767   2.198   0.555  0.7764  1.1905 -1.8638
  444MOL0     N59855   5.219   2.258  -0.030 -0.3527 -0.3683 -0.7734
  444MOL0     N59856   5.315   2.235  -0.115 -0.3751  0.1735 -0.5839
  444MOL0     C59857   5.613   3.213   0.475 -0.8680 -0.1518  0.2095
  444MOL0     C59858   5.641   3.341   0.522  0.6511  0.8697 -0.0112
  444MOL0     C59859   5.856   3.723   0.529 -0.3368  0.5149 -0.6216
  444MOL0     C59860   5.762   3.830   0.546 -0.9336 -0.1564  0.2220
  444MOL0     C59861   5.795   3.960   0.570 -0.7820  0.1598 -0.7802
  444MOL0     C59862   5.931   4.000   0.578 -0.3130 -0.0855 -0.3658
  444MOL0     O59863   5.987   4.114   0.619  0.0338 -0.4422  0.2211
  444MOL0     C59864   5.906   4.230   0.628  0.7934 -0.9507 -0.1568
  444MOL0     C59865   5.877   4.291   0.485  0.8863 -0.7146 -0.0050
  444MOL0     C59866   5.987   4.300   0.382  1.2912 -0.7325 -0.5626
  444MOL0     C59867   6.058   4.433   0.393 -0.1562  1.0095  1.0698
  444MOL0     C59868   6.001   4.560   0.361 -0.0554  0.0566  0.7443
  444MOL0     C59869   5.945   4.663   0.329 -0.3582 -0.4621  0.8357
  444MOL0     C59870   6.026   3.895   0.554 -0.2787  0.1874  0.6233
  444MOL0     C59871   5.991   3.756   0.537  0.4585  0.0709 -0.6083
  444MOL0     C59872   6.114   3.668   0.496 -0.0476  0.2285  0.2052
  444MOL0     H59873   5.561   3.501   0.237  0.8245  0.2375  1.3400
  444MOL0     H59874   5.490   3.282   0.183 -2.0512 -0.2939  0.2010
  444MOL0     H59875   5.658   3.044   0.151  4.1659 -2.9795 -1.2755
  444MOL0     H59876   5.709   2.948   0.269  0.9952  2.4578 -0.6052
  444MOL0     H59877   5.431   2.899   0.129 -0.2676  0.5562 -2.3845
  444MOL0     H59878   5.513   2.785   0.229  2.1270  1.4460  1.0543
  444MOL0     H59879   5.686   2.754   0.049  1.6129 -0.4354 -4.0414
  444MOL0     H59880   5.609   2.874  -0.050  2.3867  1.1922  2.6237
  444MOL0     H59881   5.472   2.613   0.017 -4.9725 -0.6917  0.0600
  444MOL0     H59882   5.397   2.757  -0.063  2.8016  3.6341 -2.4937
  444MOL0     H59883   5.444   2.621  -0.229  1.0746  1.0196 -1.7645
  444MOL0     H59884   5.569   2.745  -0.252  0.3636 -1.2807 -1.9381
  444MOL0     H59885   5.678   2.562  -0.296  0.4205  1.5407  0.0792
  444MOL0     H59886   5.728   2.601  -0.138 -0.4046  0.3395  0.5509
  444MOL0     H59887   5.535   2.435  -0.049  2.0903  0.0347  0.6025
  444MOL0     H59888   5.671   2.357  -0.145  1.6430  0.9279  2.2840
  444MOL0     H59889   5.473   2.434  -0.334  2.1814 -1.5183 -0.4849
  444MOL0     H59890   5.520   2.271  -0.279  2.0337 -0.6457  0.9114
  444MOL0     H59891   5.263   2.535  -0.207 -0.9537 -0.9489 -0.8629
  444MOL0     H59892   5.022   2.538  -0.033  0.5019 -0.2323 -0.6418
  444MOL0     H59893   4.957   2.386  -0.016 -0.4385  0.5181  1.2357
  444MOL0     H59894   5.163   2.449   0.198 -0.7021 -3.3500 -0.9489
  444MOL0     H59895   5.049   2.575   0.181 -1.4507 -0.2895  1.6286
  444MOL0     H59896   4.856   2.445   0.229 -0.5079  0.6178  2.5808
  444MOL0     H59897   4.966   2.445   0.358  2.8704 -0.0959  0.2428
  444MOL0     H59898   5.052   2.229   0.279 -0.2920  1.2474  1.1399
  444MOL0     H59899   4.944   2.226   0.137  0.9295  1.3910 -0.5843
  444MOL0     H59900   5.073   2.096   0.445 -0.0460 -1.6636  1.7687
  444MOL0     H59901   5.103   2.065   0.686  3.1518  1.2257 -3.3316
  444MOL0     H59902   4.802   1.879   1.087  0.8556 -1.6350  0.6380
  444MOL0     H59903   4.846   1.842   1.318  3.9572  0.3509  0.9010
  444MOL0     H59904   4.864   1.836   1.557 -2.1207  2.5003 -2.2009
  444MOL0     H59905   5.016   1.897   1.480  1.3894 -0.8871  2.3662
  444MOL0     H59906   5.085   1.912   1.722  2.0790  1.5721 -3.6128
  444MOL0     H59907   5.009   2.063   1.704  1.8557 -0.9274  3.2557
  444MOL0     H59908   4.784   1.995   1.759 -1.7490 -2.1754  2.9729
  444MOL0     H59909   4.841   1.833   1.788 -0.9450 -0.7296 -0.2568
  444MOL0     H59910   4.922   2.083   1.913  0.7060  0.1892  0.7110
  444MOL0     H59911   5.013   1.947   1.960  1.3028  1.0042  0.1945
  444MOL0     H59912   4.836   1.826   2.066 -0.8964 -0.2434 -1.3861
  444MOL0     H59913   4.710   1.953   2.015 -0.8590 -2.1994 -0.7229
  444MOL0     H59914   4.966   2.014   2.178  0.2458  1.8077  2.8882
  444MOL0     H59915   4.828   2.117   2.150 -1.3744 -0.5128 -1.9728
  444MOL0     H59916   4.764   1.856   2.257  3.2912  0.7730 -3.2580
  444MOL0     H59917   4.678   2.007   2.288 -1.7765 -1.2381  0.0167
  444MOL0     H59918   4.876   2.095   2.435 -1.7125  1.1839 -0.2683
  444MOL0     H59919   4.799   1.951   2.500  0.9200  0.2161 -0.1264
  444MOL0     H59920   4.870   2.266   1.385 -0.5160  1.0099 -2.1907
  444MOL0     H59921   4.860   2.299   1.143  0.0637  0.1592  0.6669
  444MOL0     H59922   4.718   2.205   0.767  1.6934 -0.8305  2.6113
  444MOL0     H59923   4.669   2.225   0.517  0.7422  0.4646 -2.3050
  444MOL0     H59924   5.635   3.129   0.540 -0.5371 -0.6726 -0.5605
  444MOL0     H59925   5.674   3.352   0.624 -1.1057  1.0127  0.5767
  444MOL0     H59926   5.656   3.811   0.549 -1.0495  0.4510  3.2167
  444MOL0     H59927   5.710   4.027   0.583 -1.5079  0.0652 -4.1898
  444MOL0     H59928   5.967   4.303   0.682 -0.5431 -0.4930  0.7917
  444MOL0     H59929   5.814   4.220   0.687 -0.0787  0.9106 -1.0904
  444MOL0     H59930   5.836   4.393   0.488  1.5450 -0.4666  0.7289
  444MOL0     H59931   5.799   4.227   0.444  0.0500  0.0516  0.3452
  444MOL0     H59932   5.942   4.299   0.282  3.7843  0.3220 -1.7794
  444MOL0     H59933   6.053   4.213   0.393  0.3737 -1.0705  4.2280
  444MOL0     H59934   6.062   4.439   0.502 -1.7049 -2.1901  1.4185
  444MOL0     H59935   6.156   4.422   0.347 -0.8989 -1.2896 -0.1702
  444MOL0     H59936   5.913   4.757   0.288  4.2012  1.6272  1.4890
  444MOL0     H59937   6.130   3.919   0.537 -0.4080  0.1876 -0.2203
  444MOL0     H59938   6.084   3.635   0.396  0.9010  0.7193 -0.2550
  444MOL0     H59939   6.216   3.707   0.490  1.0305 -2.2752  0.7334
  444MOL0     H59940   6.112   3.578   0.558 -2.8877 -0.2902 -0.5065
  445MOL0     O59941   2.213   8.035   2.785  0.4748 -1.3619  0.5492
  445MOL0     C59942   2.120   8.077   2.726  0.1170 -0.2181  0.3933
  445MOL0     O59943   2.084   8.049   2.595  0.6011  0.6083  0.1662
  445MOL0     C59944   2.150   7.944   2.530  0.3369 -1.0201 -0.3248
  445MOL0     C59945   2.137   7.945   2.389  0.4604  0.3858 -0.5929
  445MOL0     C59946   2.222   7.858   2.318 -0.3766  0.5167 -0.2689
  445MOL0     C59947   2.309   7.760   2.374 -0.0010  0.1341 -0.9630
  445MOL0     O59948   2.400   7.696   2.299 -0.3464 -0.4912 -0.2253
  445MOL0     C59949   2.458   7.576   2.342  1.0439 -0.3479 -0.1242
  445MOL0     C59950   2.563   7.535   2.236  0.5460  0.3385  0.3159
  445MOL0     C59951   2.615   7.393   2.240 -0.1181  0.0541 -0.0490
  445MOL0     C59952   2.690   7.366   2.375 -0.6627  0.2005  0.0696
  445MOL0     C59953   2.717   7.214   2.401 -0.2505  0.5456 -0.5573
  445MOL0     C59954   2.848   7.175   2.469 -0.1661  0.3009  0.4213
  445MOL0     C59955   2.850   7.022   2.494 -0.0808 -0.5978  0.7066
  445MOL0     C59956   2.944   6.967   2.596  1.1879  0.5959  0.1494
  445MOL0     N59957   2.907   7.007   2.725  0.3765 -0.4044  1.0616
  445MOL0     C59958   2.822   6.941   2.807  0.3759 -0.6029  1.2114
  445MOL0     C59959   2.812   7.018   2.915 -0.8922  1.0963  1.2480
  445MOL0     C59960   2.734   6.978   3.039  0.2476 -0.7835  0.2065
  445MOL0     C59961   2.590   6.938   3.002 -0.3102  0.0460 -0.2088
  445MOL0     C59962   2.574   6.788   2.972 -0.8418 -0.7224 -0.8800
  445MOL0     C59963   2.422   6.736   2.964 -0.7087 -0.4803 -1.3308
  445MOL0     O59964   2.330   6.845   2.935  0.2647 -0.3082 -0.9362
  445MOL0     C59965   2.313   6.881   2.811  0.7798 -0.5356 -0.2083
  445MOL0     C59966   2.257   7.006   2.806 -0.6650 -0.0221  0.2610
  445MOL0     C59967   2.227   7.053   2.678  0.4471 -0.9478  0.3840
  445MOL0     C59968   2.270   7.000   2.553  0.1422  0.3852  0.1294
  445MOL0     C59969   2.234   7.070   2.431 -0.2768  0.1017  0.3073
  445MOL0     O59970   2.272   6.998   2.316  0.6394  0.3315 -0.0151
  445MOL0     C59971   2.265   7.064   2.194 -1.1116 -0.2683 -0.6553
  445MOL0     C59972   2.146   7.080   2.130 -0.2449  0.3111  1.0818
  445MOL0     C59973   2.134   7.136   2.001 -0.1125 -0.1651  0.5087
  445MOL0     C59974   2.249   7.192   1.937  0.2607 -0.6990  1.2154
  445MOL0     O59975   2.243   7.269   1.826  0.0662 -0.2708 -0.0791
  445MOL0     C59976   2.167   7.207   1.715 -0.1002 -0.7074  0.4981
  445MOL0     C59977   2.166   7.298   1.596  0.1524 -0.4527  0.2682
  445MOL0     C59978   2.099   7.219   1.487  0.6426 -0.5235  0.3963
  445MOL0     C59979   2.163   7.256   1.355  0.2146 -0.4829  0.6273
  445MOL0     C59980   2.274   7.165   1.326  0.3549 -1.3026 -0.0741
  445MOL0     C59981   2.338   7.205   1.195 -0.0712 -0.3455 -0.3185
  445MOL0     C59982   2.432   7.107   1.125 -0.3420 -0.5219 -0.1924
  445MOL0     C59983   2.461   7.182   0.991 -0.1284  1.4597  0.0591
  445MOL0    Cl59984   2.340   7.197   0.863  0.1024  0.1827 -0.0871
  445MOL0     C59985   2.368   7.183   2.002 -0.4587  0.4977 -0.4991
  445MOL0     C59986   2.381   7.108   2.123  0.4369 -0.0448  0.5350
  445MOL0     O59987   2.197   7.187   2.433 -0.3749  1.0429 -0.4273
  445MOL0     C59988   2.356   6.889   2.559 -0.3149  0.3681 -0.9962
  445MOL0     C59989   2.372   6.825   2.687 -1.0581  0.6396 -0.3435
  445MOL0     N59990   2.909   7.112   2.909  0.1717  0.1672 -0.1466
  445MOL0     N59991   2.949   7.127   2.786 -0.4131  0.6693  0.3340
  445MOL0     C59992   2.310   7.752   2.519  0.6671 -0.5339 -0.1882
  445MOL0     C59993   2.229   7.847   2.598 -0.0862  0.5840  0.2541
  445MOL0     C59994   2.068   8.200   2.784  0.4842 -0.0865 -0.8618
  445MOL0     C59995   2.048   8.204   2.929 -0.2729  0.0138 -0.5928
  445MOL0     C59996   1.991   8.317   2.993 -0.1576  0.1469 -0.2718
  445MOL0     C59997   1.944   8.423   2.916 -0.5892  0.0980 -1.1211
  445MOL0     O59998   1.912   8.535   2.996  0.0921 -0.7036  0.3466
  445MOL0     C59999   1.762   8.538   2.993 -1.1041  0.1695 -0.4663
  445MOL0     C60000   1.726   8.566   3.140  0.7132  0.1845 -0.1174
  445MOL0     C60001   1.585   8.636   3.155  0.0170 -0.3578 -0.6110
  445MOL0     C60002   1.471   8.560   3.098  0.9500 -0.3197 -0.0817
  445MOL0     C60003   1.471   8.416   3.120  0.6660  0.1743 -0.5071
  445MOL0     C60004   1.447   8.298   3.122  0.8493  0.1387 -0.2194
  445MOL0     C60005   1.965   8.423   2.780 -0.2059  1.0184 -0.5674
  445MOL0     C60006   2.020   8.315   2.715 -0.1303 -0.0077 -0.4510
  445MOL0     C60007   2.015   8.314   2.565 -0.1279  0.0153 -0.2624
  445MOL0     H60008   2.056   7.994   2.338 -0.5518 -1.8549 -1.2733
  445MOL0     H60009   2.237   7.841   2.212  2.3834  1.2665 -0.0703
  445MOL0     H60010   2.504   7.595   2.440  1.5003 -0.8755 -0.2294
  445MOL0     H60011   2.378   7.503   2.354  1.7862 -1.0636  0.6647
  445MOL0     H60012   2.644   7.608   2.244 -2.1230  3.3448  4.0542
  445MOL0     H60013   2.523   7.539   2.135  2.6574 -2.5380 -0.7518
  445MOL0     H60014   2.681   7.383   2.153  1.3783  3.2175  0.5429
  445MOL0     H60015   2.539   7.315   2.231 -0.8485  0.9662 -3.8108
  445MOL0     H60016   2.781   7.426   2.377 -2.1326  2.5647 -0.1329
  445MOL0     H60017   2.628   7.402   2.457 -1.1697 -0.3227 -0.0752
  445MOL0     H60018   2.639   7.161   2.456  0.2544 -0.1380 -0.4865
  445MOL0     H60019   2.716   7.170   2.301  0.9568  0.8048 -0.6944
  445MOL0     H60020   2.932   7.218   2.414  0.2589 -0.5931  0.3517
  445MOL0     H60021   2.858   7.218   2.569 -1.8478 -0.0656  0.7791
  445MOL0     H60022   2.885   6.985   2.398  2.5185  1.3054  0.8249
  445MOL0     H60023   2.747   6.993   2.520  0.1496 -1.8980  0.2214
  445MOL0     H60024   2.947   6.858   2.585 -1.7154  0.1819  2.2769
  445MOL0     H60025   3.045   7.002   2.573  0.8991  1.2596 -0.1341
  445MOL0     H60026   2.763   6.851   2.797  1.2483 -1.0683  0.0557
  445MOL0     H60027   2.785   6.895   3.088  0.0766 -2.2577 -1.9954
  445MOL0     H60028   2.719   7.055   3.115 -1.5889  1.5556 -2.3488
  445MOL0     H60029   2.520   6.978   3.077  0.1874 -1.0390  0.8758
  445MOL0     H60030   2.557   6.969   2.903 -3.4719 -0.9746  0.3979
  445MOL0     H60031   2.625   6.731   3.051  1.7454 -1.3697 -2.8879
  445MOL0     H60032   2.612   6.758   2.875 -2.6715 -1.6602 -1.3395
  445MOL0     H60033   2.407   6.704   3.068 -0.3341  2.4528 -0.2757
  445MOL0     H60034   2.416   6.651   2.896  0.6558 -2.9572  1.4125
  445MOL0     H60035   2.238   7.063   2.897  4.0772  0.7902  0.9705
  445MOL0     H60036   2.182   7.151   2.661  1.3074 -0.4672  0.8395
  445MOL0     H60037   2.056   7.029   2.163 -1.1461  2.2222  1.7065
  445MOL0     H60038   2.034   7.147   1.961  0.1338  1.8199  0.3351
  445MOL0     H60039   2.200   7.104   1.706 -0.0446 -0.6954  0.5560
  445MOL0     H60040   2.059   7.202   1.734 -0.4691  2.0089 -0.3683
  445MOL0     H60041   2.110   7.391   1.603  0.1775 -0.1832 -2.2294
  445MOL0     H60042   2.273   7.309   1.580  0.3889 -2.0316  0.5525
  445MOL0     H60043   2.099   7.110   1.500  0.4582 -0.3144  2.4619
  445MOL0     H60044   1.999   7.263   1.481  1.5653  1.5399 -1.0361
  445MOL0     H60045   2.211   7.354   1.360  0.0333 -0.0880 -3.0988
  445MOL0     H60046   2.095   7.251   1.270 -0.9209 -0.4731  1.5062
  445MOL0     H60047   2.223   7.068   1.316 -1.1488 -0.2610 -4.3052
  445MOL0     H60048   2.352   7.154   1.403  2.6846  0.3421 -2.0723
  445MOL0     H60049   2.268   7.245   1.120 -1.0845 -0.7464  0.3944
  445MOL0     H60050   2.396   7.298   1.200 -0.3294 -0.0478 -2.0347
  445MOL0     H60051   2.374   7.019   1.098  2.0581 -2.1521 -0.3496
  445MOL0     H60052   2.518   7.085   1.190  0.7546  1.2608 -0.9596
  445MOL0     H60053   2.485   7.281   1.031 -2.1107  1.3849  1.6399
  445MOL0     H60054   2.554   7.143   0.950 -0.6245  0.2963 -0.0095
  445MOL0     H60055   2.456   7.228   1.955  0.4424 -1.3740 -0.7159
  445MOL0     H60056   2.478   7.089   2.167  0.6476  1.4145  0.7372
  445MOL0     H60057   2.407   6.836   2.479 -3.3854 -0.3170 -2.6348
  445MOL0     H60058   2.445   6.745   2.688  0.2231  1.7707  1.2845
  445MOL0     H60059   2.364   7.677   2.577  0.0303 -1.6473 -0.9842
  445MOL0     H60060   2.219   7.839   2.706 -2.7470  2.4657  0.2497
  445MOL0     H60061   2.081   8.125   2.995  3.0148  1.6346 -0.1059
  445MOL0     H60062   1.989   8.312   3.101 -5.1698 -0.6057 -0.1279
  445MOL0     H60063   1.712   8.443   2.975  1.2682 -0.9601 -1.5360
  445MOL0     H60064   1.722   8.622   2.934  0.8526  1.4110 -0.1061
  445MOL0     H60065   1.782   8.646   3.188 -2.3808  2.1534  0.4824
  445MOL0     H60066   1.738   8.480   3.207  1.4841 -1.4666 -2.2276
  445MOL0     H60067   1.586   8.740   3.121 -1.9801 -0.4392 -1.0231
  445MOL0     H60068   1.561   8.648   3.261 -0.3544  2.5753 -0.9536
  445MOL0     H60069   1.374   8.601   3.128 -0.0101  0.0716 -3.3966
  445MOL0     H60070   1.460   8.573   2.990 -0.0273 -3.3436 -0.4535
  445MOL0     H60071   1.420   8.195   3.133  1.4725  0.1081  1.1767
  445MOL0     H60072   1.948   8.518   2.731  1.0576  1.2479 -0.5960
  445MOL0     H60073   2.103   8.278   2.511 -2.3332 -3.0782 -2.0794
  445MOL0     H60074   1.935   8.245   2.540  1.0435 -1.0582 -1.1138
  445MOL0     H60075   1.992   8.411   2.519  0.1624 -1.1263 -2.9678
  446MOL0     O60076   9.939  10.679   4.329 -0.4697  0.9952  0.3466
  446MOL0     C60077   9.909  10.566   4.370  0.4799  0.2117  0.1669
  446MOL0     O60078  10.002  10.466   4.385 -0.1242  0.0019 -0.1661
  446MOL0     C60079  10.123  10.463   4.315  0.2001  0.8495  0.5741
  446MOL0     C60080  10.156  10.532   4.197 -0.7826 -0.8217  0.6862
  446MOL0     C60081  10.290  10.515   4.143 -0.7127 -0.0567  0.0255
  446MOL0     C60082  10.391  10.446   4.210  0.0256  0.5061 -0.3399
  446MOL0     O60083  10.523  10.459   4.172  0.2025 -0.0210  0.4604
  446MOL0     C60084  10.626  10.362   4.212 -0.9064  0.2559 -0.3504
  446MOL0     C60085  10.751  10.354   4.127 -0.2441 -0.3957 -1.2166
  446MOL0     C60086  10.817  10.481   4.115  0.4133 -0.3863 -0.7552
  446MOL0     C60087  10.957  10.462   4.055  0.3792  0.0116 -0.1304
  446MOL0     C60088  11.057  10.375   4.143  0.4289  0.0373 -0.5180
  446MOL0     C60089  11.195  10.373   4.087  0.4141 -0.4526 -0.2566
  446MOL0     C60090  11.212  10.264   3.984  0.4684 -1.3133  0.0655
  446MOL0     C60091  11.350  10.255   3.933 -0.1731  0.5797  0.2898
  446MOL0     N60092  11.414  10.368   3.873 -1.1299 -0.0219  0.1384
  446MOL0     C60093  11.504  10.441   3.946  0.3313  0.0349  0.0581
  446MOL0     C60094  11.592  10.483   3.858 -0.6254 -0.9164  0.6721
  446MOL0     C60095  11.719  10.555   3.899  0.1094  0.4792  0.3316
  446MOL0     C60096  11.766  10.661   3.796  0.7341 -0.5584 -0.6616
  446MOL0     C60097  11.703  10.800   3.796  0.6589 -1.4940 -0.7820
  446MOL0     C60098  11.545  10.804   3.784  0.6157  0.7019  0.4791
  446MOL0     O60099  11.487  10.798   3.910 -0.6421  0.9435  0.5350
  446MOL0     C60100  11.356  10.834   3.907  0.3306 -0.8150  0.6535
  446MOL0     C60101  11.300  10.916   3.999 -0.0294  0.5118 -0.2955
  446MOL0     C60102  11.164  10.948   4.011  0.2151  0.9216  0.3729
  446MOL0     C60103  11.072  10.895   3.920  0.4787  0.3855 -0.1700
  446MOL0     C60104  10.931  10.918   3.939 -0.1606 -0.0341  0.2183
  446MOL0     O60105  10.895  10.973   4.058 -0.8124 -0.3968 -0.2553
  446MOL0     C60106  10.766  10.980   4.074  0.0135  0.8973 -0.6376
  446MOL0     C60107  10.690  11.093   4.043 -0.3128 -0.8205  0.6434
  446MOL0     C60108  10.546  11.103   4.048 -1.1321 -0.0062 -0.9117
  446MOL0     C60109  10.479  10.996   4.113  0.7667 -0.3222 -0.4393
  446MOL0     O60110  10.349  11.016   4.149  0.0723  0.3196  0.6960
  446MOL0     C60111  10.259  10.917   4.101 -0.8638 -0.2591  0.5919
  446MOL0     C60112  10.129  10.986   4.058 -0.0740  0.7078  1.3087
  446MOL0     C60113  10.153  11.118   3.977 -0.9118 -0.3781  1.2203
  446MOL0     C60114  10.213  11.086   3.834  0.5168 -0.0495  0.5114
  446MOL0     C60115  10.319  11.185   3.778  0.1712 -0.2960 -0.0096
  446MOL0     C60116  10.384  11.135   3.649 -0.0726 -0.7906 -0.5672
  446MOL0     C60117  10.295  11.124   3.533  0.2230 -0.2022 -0.1808
  446MOL0     C60118  10.358  11.120   3.402 -0.2613 -1.0707  0.6180
  446MOL0    Cl60119  10.239  11.152   3.272  0.4812 -0.1795 -0.1455
  446MOL0     C60120  10.552  10.872   4.139  1.0790 -0.2857  1.2364
  446MOL0     C60121  10.690  10.864   4.114  0.6854  0.2680 -0.6889
  446MOL0     O60122  10.853  10.871   3.855 -0.4571  0.7993 -0.7830
  446MOL0     C60123  11.116  10.806   3.820 -0.1899 -0.0100  0.7272
  446MOL0     C60124  11.258  10.776   3.817 -0.9469  0.0718 -0.0202
  446MOL0     N60125  11.568  10.444   3.730  0.9271  0.6191  0.1187
  446MOL0     N60126  11.459  10.377   3.742  0.6506  0.2135  0.4513
  446MOL0     C60127  10.358  10.395   4.336 -1.2322  1.4099  1.2108
  446MOL0     C60128  10.228  10.401   4.384 -0.4383  0.3523 -0.0547
  446MOL0     C60129   9.770  10.531   4.418 -0.0355 -0.1725  0.3393
  446MOL0     C60130   9.730  10.399   4.387  0.1411 -0.1041  0.3806
  446MOL0     C60131   9.600  10.353   4.413 -0.0414  0.4328 -0.8781
  446MOL0     C60132   9.518  10.431   4.497  0.7087 -0.3619  0.9146
  446MOL0     O60133   9.403  10.367   4.537  0.1456 -0.9722  0.2799
  446MOL0     C60134   9.389  10.359   4.680  0.6239 -0.8403  0.7733
  446MOL0     C60135   9.257  10.304   4.741 -0.3682  0.3285 -0.1417
  446MOL0     C60136   9.284  10.200   4.848  0.7435 -1.1729  0.8041
  446MOL0     C60137   9.281  10.063   4.782  0.4428  0.7061  0.7727
  446MOL0     C60138   9.394  10.018   4.693 -0.0466 -0.1312 -0.0775
  446MOL0     C60139   9.486   9.993   4.612  0.0442 -0.1720 -0.2552
  446MOL0     C60140   9.556  10.556   4.535 -0.1929  0.5396  0.1686
  446MOL0     C60141   9.680  10.612   4.492 -0.3561  0.3764  0.3252
  446MOL0     C60142   9.721  10.750   4.548  0.2495  0.2566 -0.5325
  446MOL0     H60143  10.092  10.603   4.145 -2.1649 -2.0509  0.6618
  446MOL0     H60144  10.302  10.567   4.048  2.6190  0.8623  0.7927
  446MOL0     H60145  10.660  10.373   4.316 -2.5684  1.5837  0.1034
  446MOL0     H60146  10.575  10.266   4.207  1.1605 -0.8233 -3.3916
  446MOL0     H60147  10.721  10.327   4.025  0.1235  0.7391 -1.6403
  446MOL0     H60148  10.809  10.273   4.172 -1.8426 -2.0025 -1.9032
  446MOL0     H60149  10.815  10.523   4.216  0.3163  1.2641 -1.4239
  446MOL0     H60150  10.757  10.541   4.046  1.1543  1.0790 -0.1591
  446MOL0     H60151  10.950  10.416   3.956  1.4434 -4.6145  1.6808
  446MOL0     H60152  11.007  10.558   4.038  0.4032 -0.0560 -0.4490
  446MOL0     H60153  11.067  10.414   4.244  2.7310 -1.0684 -0.2554
  446MOL0     H60154  11.027  10.271   4.155  2.1884 -0.3596  0.8484
  446MOL0     H60155  11.221  10.474   4.053 -2.5571  1.0144  1.4187
  446MOL0     H60156  11.266  10.351   4.167 -0.2854  1.3345  0.9133
  446MOL0     H60157  11.147  10.294   3.901  2.4080  0.4127 -0.9426
  446MOL0     H60158  11.187  10.167   4.027  3.9176 -1.4558  2.0903
  446MOL0     H60159  11.420  10.231   4.014 -0.6693 -0.7611  0.3481
  446MOL0     H60160  11.348  10.181   3.852 -5.1921  2.0651 -1.2849
  446MOL0     H60161  11.510  10.442   4.054  0.4505 -2.2168  0.1016
  446MOL0     H60162  11.721  10.592   4.002  4.0407  0.3659  0.4465
  446MOL0     H60163  11.800  10.481   3.889  2.3961  2.8603 -0.0002
  446MOL0     H60164  11.872  10.672   3.818  0.3623 -2.0389  2.3997
  446MOL0     H60165  11.742  10.621   3.697 -0.4350 -0.5481 -0.4014
  446MOL0     H60166  11.739  10.859   3.711  0.8188 -1.5350 -0.7419
  446MOL0     H60167  11.726  10.855   3.888  2.0863 -0.1041 -1.9211
  446MOL0     H60168  11.505  10.726   3.718  1.1746 -0.1514  1.1322
  446MOL0     H60169  11.533  10.901   3.735 -0.5098 -0.8662 -2.5939
  446MOL0     H60170  11.364  10.967   4.070  1.3754 -1.0507 -0.3625
  446MOL0     H60171  11.127  11.000   4.099 -1.2538 -1.9503  1.6133
  446MOL0     H60172  10.736  11.182   4.002 -0.4508  0.3672  2.9047
  446MOL0     H60173  10.502  11.200   4.029  1.9838  1.7493  0.0544
  446MOL0     H60174  10.299  10.859   4.018  0.7497  0.6124  0.7232
  446MOL0     H60175  10.245  10.850   4.187 -2.2193 -1.1203 -0.2629
  446MOL0     H60176  10.065  10.924   3.993  1.8963  1.4201 -1.4898
  446MOL0     H60177  10.068  11.007   4.147  1.4795  1.4835  2.2293
  446MOL0     H60178  10.064  11.180   3.965  0.7084  1.5264 -2.9175
  446MOL0     H60179  10.213  11.182   4.042 -1.5921  3.2994 -1.4142
  446MOL0     H60180  10.132  11.080   3.762  0.1709 -4.9493  0.9187
  446MOL0     H60181  10.256  10.985   3.824 -0.8070 -0.6291  0.5253
  446MOL0     H60182  10.392  11.206   3.857  0.9200 -2.5022 -0.0502
  446MOL0     H60183  10.268  11.280   3.761 -1.1786 -1.4708 -3.2967
  446MOL0     H60184  10.464  11.201   3.616 -0.1963  1.0413  2.4721
  446MOL0     H60185  10.426  11.036   3.671 -0.2352 -0.0514  4.0305
  446MOL0     H60186  10.235  11.215   3.535  0.7874  0.1531  1.1732
  446MOL0     H60187  10.227  11.041   3.552  2.9213 -2.5912 -0.2701
  446MOL0     H60188  10.432  11.201   3.398 -0.6054 -0.7441  0.7534
  446MOL0     H60189  10.419  11.034   3.372  4.5398  2.6630 -1.8688
  446MOL0     H60190  10.499  10.790   4.185 -0.6017  0.4945  0.7911
  446MOL0     H60191  10.736  10.768   4.135  3.4861  2.2401  3.7258
  446MOL0     H60192  11.050  10.767   3.743 -0.2054  2.3048 -0.5208
  446MOL0     H60193  11.282  10.716   3.731 -1.9480 -0.3151 -0.0454
  446MOL0     H60194  10.439  10.358   4.398 -0.6319  0.1842 -0.2325
  446MOL0     H60195  10.200  10.355   4.478 -2.4437  2.6804  0.5835
  446MOL0     H60196   9.794  10.327   4.338 -0.1038  0.6979 -1.1927
  446MOL0     H60197   9.559  10.256   4.389 -0.9722  0.9072 -1.2363
  446MOL0     H60198   9.407  10.459   4.720  3.3659  0.4586 -3.0719
  446MOL0     H60199   9.470  10.294   4.714  2.3112  0.1243 -1.1755
  446MOL0     H60200   9.199  10.262   4.658  1.4555 -0.2485 -1.1893
  446MOL0     H60201   9.197  10.389   4.775  0.8378  1.4341 -0.6641
  446MOL0     H60202   9.214  10.220   4.930 -0.1269  1.1793 -0.4355
  446MOL0     H60203   9.380  10.214   4.898  1.5148 -0.3869 -0.8416
  446MOL0     H60204   9.287   9.998   4.870  3.0405 -0.4947 -0.2092
  446MOL0     H60205   9.185  10.051   4.730  0.2589  1.8123  0.8242
  446MOL0     H60206   9.554   9.973   4.533  1.2780 -3.8365  1.5014
  446MOL0     H60207   9.485  10.613   4.594 -0.5533  0.1257  0.1437
  446MOL0     H60208   9.821  10.776   4.512  0.6608 -1.2896 -0.5525
  446MOL0     H60209   9.642  10.824   4.533 -0.6498 -0.7755 -0.9955
  446MOL0     H60210   9.729  10.731   4.655 -2.6965 -2.1810 -0.6229
  447MOL0     O60211   4.155  11.094   9.740 -0.2703  0.6111 -0.3953
  447MOL0     C60212   4.046  11.122   9.785 -0.4074  0.3917 -0.4383
  447MOL0     O60213   4.011  11.242   9.857  0.1927  0.5887  0.3105
  447MOL0     C60214   4.106  11.319   9.922 -1.0244  0.6482  0.0139
  447MOL0     C60215   4.071  11.453   9.941 -0.0274  0.6064  0.8833
  447MOL0     C60216   4.161  11.540  10.003 -0.5615 -1.2080 -0.1284
  447MOL0     C60217   4.288  11.507  10.045  1.1121  0.7971  0.7183
  447MOL0     O60218   4.353  11.603  10.119 -0.1847  0.4363  0.2386
  447MOL0     C60219   4.495  11.599  10.141 -1.7753  0.3269 -0.0519
  447MOL0     C60220   4.546  11.674  10.268  0.2003  0.4009  0.1499
  447MOL0     C60221   4.498  11.816  10.263 -0.3313 -0.4813  0.1563
  447MOL0     C60222   4.520  11.885  10.394  0.9384 -0.1561  0.1391
  447MOL0     C60223   4.424  12.013  10.409 -1.1459  0.2601 -0.0463
  447MOL0     C60224   4.428  12.121  10.291  0.5296  0.8488  0.0658
  447MOL0     C60225   4.562  12.200  10.274  0.4332 -0.8289  0.2944
  447MOL0     C60226   4.596  12.268  10.406  0.4489  1.2561 -0.0463
  447MOL0     N60227   4.741  12.301  10.410  0.0251  0.1058 -0.0773
  447MOL0     C60228   4.815  12.405  10.345 -0.5309 -0.1560 -0.7614
  447MOL0     C60229   4.942  12.357  10.354  0.0210 -0.8037 -0.4804
  447MOL0     C60230   5.066  12.428  10.297 -0.2830 -0.7632  0.1166
  447MOL0     C60231   5.147  12.334  10.211 -0.1638  0.5237  0.6186
  447MOL0     C60232   5.259  12.251  10.280  0.5982 -0.0614  0.0283
  447MOL0     C60233   5.370  12.334  10.341 -0.0775 -0.1849 -0.3037
  447MOL0     O60234   5.491  12.265  10.321 -0.0999  0.5190 -1.0242
  447MOL0     C60235   5.604  12.321  10.363  0.6693  0.0683  0.1234
  447MOL0     C60236   5.712  12.236  10.354 -0.1257  0.7041 -0.0256
  447MOL0     C60237   5.838  12.288  10.411 -0.1468  0.4721  0.7549
  447MOL0     C60238   5.850  12.421  10.463 -1.0261  0.6230 -0.9565
  447MOL0     C60239   5.979  12.463  10.522  0.6248 -0.4545 -1.0441
  447MOL0     O60240   6.093  12.389  10.511  0.5018  0.1230  0.7527
  447MOL0     C60241   6.211  12.439  10.563 -0.5950 -0.3039  0.4263
  447MOL0     C60242   6.218  12.507  10.691 -0.2766  0.2105 -0.0238
  447MOL0     C60243   6.327  12.582  10.731 -0.5807 -0.1705 -0.6917
  447MOL0     C60244   6.442  12.591  10.648 -0.9796  0.2419 -0.2425
  447MOL0     O60245   6.560  12.651  10.685 -0.2724  0.5858  0.4928
  447MOL0     C60246   6.583  12.782  10.639 -0.3386 -0.5387 -0.4365
  447MOL0     C60247   6.733  12.804  10.674  0.2861  0.5172  0.7234
  447MOL0     C60248   6.794  12.942  10.639 -1.1108  0.3734  0.9432
  447MOL0     C60249   6.932  12.968  10.684 -0.0998  0.6462  0.1244
  447MOL0     C60250   6.976  13.118  10.658 -0.4325  0.2958 -0.2044
  447MOL0     C60251   7.104  13.158  10.743  0.5345  0.5978 -0.3372
  447MOL0     C60252   7.161  13.280  10.680  0.5225 -0.5154  0.2184
  447MOL0     C60253   7.236  13.371  10.786  0.4993 -1.0161 -1.3326
  447MOL0    Cl60254   7.352  13.271  10.883 -0.2994  0.1868  0.0334
  447MOL0     C60255   6.452  12.517  10.524  1.8407  0.7407  0.5598
  447MOL0     C60256   6.332  12.442  10.486 -0.5695  0.5589  0.2464
  447MOL0     O60257   5.978  12.573  10.582 -0.4492 -0.3291 -0.3971
  447MOL0     C60258   5.732  12.490  10.476  0.2580 -0.3133 -0.2229
  447MOL0     C60259   5.618  12.442  10.425  1.0651  0.6852  0.2881
  447MOL0     N60260   4.946  12.245  10.432 -0.1731  0.7375 -0.5086
  447MOL0     N60261   4.828  12.217  10.470  0.0175  0.2527  0.0791
  447MOL0     C60262   4.329  11.369  10.018  0.2125 -0.4338  0.7719
  447MOL0     C60263   4.239  11.287   9.959 -0.0875  0.2431 -0.0685
  447MOL0     C60264   3.938  11.015   9.762  0.4076 -0.0863  0.7571
  447MOL0     C60265   3.929  10.939   9.640  0.0543 -0.1650 -0.6938
  447MOL0     C60266   3.820  10.862   9.620  0.1824 -0.1382  0.1782
  447MOL0     C60267   3.726  10.833   9.722  0.2166  0.5875  0.3968
  447MOL0     O60268   3.625  10.731   9.714 -0.1231  0.2816  0.3386
  447MOL0     C60269   3.490  10.782   9.722 -0.6050  0.5840 -0.4529
  447MOL0     C60270   3.384  10.671   9.732 -0.5565  0.1381  0.1970
  447MOL0     C60271   3.404  10.566   9.843 -0.1769  0.5696  0.4299
  447MOL0     C60272   3.276  10.491   9.874 -0.6009  0.0110 -0.5324
  447MOL0     C60273   3.293  10.423  10.004 -0.3072 -0.4901 -0.2065
  447MOL0     C60274   3.313  10.353  10.100 -0.7528 -0.8617 -0.0929
  447MOL0     C60275   3.731  10.904   9.837  1.0349 -0.4283  0.0014
  447MOL0     C60276   3.826  11.003   9.855 -0.5516  0.6322  0.2546
  447MOL0     C60277   3.807  11.084   9.984 -0.4342  0.5925 -0.3020
  447MOL0     H60278   3.983  11.500   9.899 -0.2371  1.8650  2.6301
  447MOL0     H60279   4.130  11.640  10.032 -1.0979 -1.7743  1.3715
  447MOL0     H60280   4.544  11.501  10.146  1.5398  1.8249 -0.6751
  447MOL0     H60281   4.544  11.642  10.053 -1.4607 -1.7402 -0.9474
  447MOL0     H60282   4.655  11.664  10.268  0.3699  1.9124 -1.1609
  447MOL0     H60283   4.494  11.623  10.350 -0.2596 -1.4134 -1.2096
  447MOL0     H60284   4.390  11.821  10.246 -0.8721  0.7938  3.3213
  447MOL0     H60285   4.546  11.860  10.176  0.3190 -2.6430 -0.6435
  447MOL0     H60286   4.504  11.814  10.476  1.5538 -1.1287 -0.5665
  447MOL0     H60287   4.623  11.921  10.402  1.1109 -0.5677 -0.2037
  447MOL0     H60288   4.321  11.976  10.409 -1.1237  0.1575 -0.9956
  447MOL0     H60289   4.443  12.057  10.507  0.1455  0.2622 -0.2775
  447MOL0     H60290   4.422  12.075  10.192  2.2069  0.9565 -0.1093
  447MOL0     H60291   4.338  12.181  10.306 -0.9649 -0.9097 -1.3592
  447MOL0     H60292   4.552  12.276  10.195 -0.9941 -0.1441  1.0844
  447MOL0     H60293   4.645  12.133  10.250  2.3124  1.3410  0.3365
  447MOL0     H60294   4.549  12.363  10.432 -0.6770 -0.1194  3.4648
  447MOL0     H60295   4.590  12.196  10.487  0.7966  0.9792 -0.2653
  447MOL0     H60296   4.787  12.498  10.295  0.5439 -1.6820 -4.5327
  447MOL0     H60297   5.037  12.507  10.227 -1.0197 -0.9912  0.1529
  447MOL0     H60298   5.128  12.472  10.375 -3.8733  1.3069  2.0478
  447MOL0     H60299   5.077  12.267  10.160 -1.5242 -0.1514  3.1697
  447MOL0     H60300   5.187  12.391  10.126  1.3569  2.8961  2.7654
  447MOL0     H60301   5.308  12.193  10.200  0.8573  1.0849 -0.6603
  447MOL0     H60302   5.230  12.176  10.354 -1.1444  1.9232  1.4569
  447MOL0     H60303   5.349  12.354  10.446 -1.8829  5.2645 -1.3813
  447MOL0     H60304   5.368  12.434  10.297  1.0856  0.3103  0.7132
  447MOL0     H60305   5.711  12.133  10.322  0.5054  0.6116  0.2454
  447MOL0     H60306   5.930  12.231  10.399  0.2019  1.4475 -1.5189
  447MOL0     H60307   6.137  12.520  10.761 -0.9771 -0.9352 -0.5986
  447MOL0     H60308   6.330  12.613  10.835 -1.6948  0.3162 -0.7876
  447MOL0     H60309   6.558  12.799  10.534  2.3620 -0.0896 -1.0924
  447MOL0     H60310   6.535  12.860  10.698  0.4742  0.6696 -1.3251
  447MOL0     H60311   6.753  12.777  10.778 -4.6640  2.6723  2.5190
  447MOL0     H60312   6.798  12.734  10.619  1.3193  1.4664  0.6942
  447MOL0     H60313   6.802  12.955  10.531 -1.5528  0.5098  0.9228
  447MOL0     H60314   6.735  13.029  10.670  3.1819  3.6637  0.7894
  447MOL0     H60315   7.006  12.897  10.647 -1.2825  0.3659 -1.7883
  447MOL0     H60316   6.929  12.942  10.791  1.7920  0.3397  0.1414
  447MOL0     H60317   6.884  13.165  10.692  0.6016  1.5366  0.9830
  447MOL0     H60318   6.995  13.133  10.551  3.0645  3.9226  0.6900
  447MOL0     H60319   7.086  13.182  10.849  2.7122 -0.7501  0.4071
  447MOL0     H60320   7.175  13.075  10.742 -1.0801 -0.8321 -0.5819
  447MOL0     H60321   7.092  13.346  10.627  1.1471  2.1805  2.5341
  447MOL0     H60322   7.218  13.249  10.593 -0.8380 -1.6595 -0.3094
  447MOL0     H60323   7.282  13.460  10.742 -1.7725 -0.4647 -2.7799
  447MOL0     H60324   7.164  13.408  10.859  4.5796 -0.7224  2.9892
  447MOL0     H60325   6.540  12.517  10.460  2.1781 -0.3126  1.0029
  447MOL0     H60326   6.338  12.399  10.386  2.7046  2.0059 -0.3237
  447MOL0     H60327   5.725  12.589  10.519  2.7153 -0.6253  1.0412
  447MOL0     H60328   5.529  12.495  10.458  1.4078  1.4350  0.0382
  447MOL0     H60329   4.430  11.333  10.038  0.7899  0.4813 -0.3875
  447MOL0     H60330   4.270  11.184   9.945 -0.7746 -0.0152  0.2784
  447MOL0     H60331   4.019  10.937   9.579  2.0167  4.2959  1.5822
  447MOL0     H60332   3.810  10.798   9.533  1.7776  0.4128 -0.4386
  447MOL0     H60333   3.458  10.853   9.644  1.2682  2.2063  0.1682
  447MOL0     H60334   3.491  10.837   9.817  1.9251  2.3812 -1.4060
  447MOL0     H60335   3.380  10.617   9.637 -1.0021  0.0751  0.2507
  447MOL0     H60336   3.289  10.725   9.727  0.3182  1.7830  0.6783
  447MOL0     H60337   3.440  10.628   9.926 -0.2510 -0.6531  1.3934
  447MOL0     H60338   3.481  10.497   9.808 -1.2272 -0.3451 -0.1446
  447MOL0     H60339   3.196  10.563   9.893  1.4807  2.4939 -0.5515
  447MOL0     H60340   3.237  10.422   9.798 -2.2775 -2.5395  2.4206
  447MOL0     H60341   3.327  10.282  10.179 -0.7708  1.2173  1.8911
  447MOL0     H60342   3.675  10.879   9.927  2.4790  1.5083  1.5115
  447MOL0     H60343   3.752  11.173   9.951  0.9016  1.2820 -0.7181
  447MOL0     H60344   3.742  11.041  10.061 -4.5519  1.6571 -2.8369
  447MOL0     H60345   3.900  11.113  10.033 -2.2127  1.1743  2.9661
  448MOL0     O60346   7.924   2.247   5.427 -0.0631 -0.2301 -0.1123
  448MOL0     C60347   7.825   2.288   5.367  0.4355 -0.0081  0.6002
  448MOL0     O60348   7.781   2.412   5.353 -0.9511 -0.6552  0.1911
  448MOL0     C60349   7.818   2.502   5.453  0.4378  0.3688  0.2176
  448MOL0     C60350   7.928   2.577   5.417  0.3614  0.4816 -0.9657
  448MOL0     C60351   7.988   2.656   5.513 -0.2847  0.0988 -0.0026
  448MOL0     C60352   7.929   2.672   5.642  0.3222  0.5203 -0.7654
  448MOL0     O60353   7.976   2.776   5.718  0.0619 -0.6462 -0.1495
  448MOL0     C60354   8.036   2.727   5.842 -0.4989  0.2703 -0.5021
  448MOL0     C60355   8.094   2.846   5.921  0.0160  0.9247  0.6504
  448MOL0     C60356   8.005   2.911   6.023  0.6052 -0.8937  0.0721
  448MOL0     C60357   8.088   2.998   6.135 -0.5698  0.2204 -0.2750
  448MOL0     C60358   7.988   3.039   6.246  0.6138 -0.1847 -0.7461
  448MOL0     C60359   8.035   3.125   6.359 -0.2049 -0.4253  0.0269
  448MOL0     C60360   7.940   3.122   6.488  0.6176 -0.0560  0.2069
  448MOL0     C60361   7.805   3.191   6.454 -1.4908  0.0482 -0.0066
  448MOL0     N60362   7.739   3.207   6.581 -0.0718  0.4147 -0.4147
  448MOL0     C60363   7.732   3.328   6.643 -0.2889 -0.4604 -0.7212
  448MOL0     C60364   7.670   3.294   6.760 -0.2236  1.1046 -0.4953
  448MOL0     C60365   7.642   3.396   6.868 -0.7534 -0.5194  0.2801
  448MOL0     C60366   7.563   3.357   6.989  0.5048 -0.1714  0.0203
  448MOL0     C60367   7.417   3.343   6.953 -0.7675 -0.0052 -0.5191
  448MOL0     C60368   7.351   3.343   7.091 -0.5309  0.6598  0.3214
  448MOL0     O60369   7.210   3.365   7.089  0.7569 -0.2598 -1.0928
  448MOL0     C60370   7.124   3.309   7.185  0.2213  0.2302 -0.4683
  448MOL0     C60371   7.173   3.259   7.309  0.7860 -0.1886 -0.6135
  448MOL0     C60372   7.090   3.204   7.409 -0.0280  0.5885 -0.0306
  448MOL0     C60373   6.954   3.199   7.384  0.4466  0.7339  0.3680
  448MOL0     C60374   6.864   3.142   7.490  0.6651  0.0987  1.3964
  448MOL0     O60375   6.726   3.159   7.451 -0.9277  0.2724 -0.6708
  448MOL0     C60376   6.622   3.161   7.544 -0.5581  0.7019 -0.5760
  448MOL0     C60377   6.495   3.123   7.507  0.3175  0.3610  0.2604
  448MOL0     C60378   6.382   3.136   7.594 -0.2437  0.4861 -0.3178
  448MOL0     C60379   6.395   3.183   7.724 -0.7828 -0.0810  0.1196
  448MOL0     O60380   6.287   3.219   7.813  0.0819  0.7220  0.6891
  448MOL0     C60381   6.156   3.236   7.761 -0.5973 -0.1281  0.9000
  448MOL0     C60382   6.052   3.263   7.868 -0.3068  0.5470  0.7041
  448MOL0     C60383   6.066   3.397   7.922 -0.3110 -1.2027  0.0889
  448MOL0     C60384   5.954   3.446   7.995  1.3452  0.5746 -0.1934
  448MOL0     C60385   5.953   3.583   8.054 -0.4271  0.4590  0.4343
  448MOL0     C60386   5.802   3.613   8.102  0.2316 -0.9972  0.8512
  448MOL0     C60387   5.798   3.744   8.175  0.4191 -0.3225 -0.0010
  448MOL0     C60388   5.663   3.759   8.238  0.4491 -0.9232 -1.1868
  448MOL0    Cl60389   5.515   3.775   8.125  0.0282 -0.0031 -0.3408
  448MOL0     C60390   6.523   3.237   7.744  0.0230 -0.2025 -0.3238
  448MOL0     C60391   6.636   3.229   7.665 -0.8384 -0.1432  0.5852
  448MOL0     O60392   6.909   3.092   7.592 -0.9342  0.2674  0.0563
  448MOL0     C60393   6.906   3.241   7.261  0.4929 -0.9981 -1.5645
  448MOL0     C60394   6.982   3.303   7.163  0.1616  0.6333 -0.3895
  448MOL0     N60395   7.661   3.156   6.779  0.3073 -0.4695 -1.1836
  448MOL0     N60396   7.702   3.105   6.667 -0.1637 -0.9023  0.5575
  448MOL0     C60397   7.819   2.594   5.677  0.2260  0.0164  0.0439
  448MOL0     C60398   7.763   2.502   5.587  0.1252 -0.3948  0.8661
  448MOL0     C60399   7.758   2.186   5.281 -0.3359  0.7480  0.0363
  448MOL0     C60400   7.836   2.076   5.235  0.8329  0.4482 -0.1277
  448MOL0     C60401   7.783   1.967   5.168  0.1139 -0.6186 -0.3977
  448MOL0     C60402   7.647   1.963   5.139  0.3993 -0.7335 -0.6512
  448MOL0     O60403   7.585   1.857   5.075  0.4914  0.2187  0.0094
  448MOL0     C60404   7.659   1.744   5.025 -0.2583 -0.4232 -0.9001
  448MOL0     C60405   7.584   1.669   4.914  0.1763  0.2460  0.5215
  448MOL0     C60406   7.636   1.525   4.894 -0.0116  0.1694 -0.1930
  448MOL0     C60407   7.522   1.441   4.839  0.0510 -0.1934  0.1471
  448MOL0     C60408   7.567   1.304   4.817  0.7554  0.3388  0.0970
  448MOL0     C60409   7.597   1.193   4.783 -0.7747  0.7253  0.2454
  448MOL0     C60410   7.569   2.071   5.176 -0.2934 -1.1193  0.0994
  448MOL0     C60411   7.619   2.179   5.253  0.3880  0.4075  0.5945
  448MOL0     C60412   7.517   2.266   5.312 -0.0499 -0.0808 -0.4078
  448MOL0     H60413   7.970   2.574   5.317  3.4413  0.7161  0.2055
  448MOL0     H60414   8.075   2.708   5.475 -0.8099 -1.9728 -4.7231
  448MOL0     H60415   7.976   2.660   5.904 -0.7302 -0.4894 -1.5193
  448MOL0     H60416   8.113   2.658   5.807  0.9067  0.2619  2.3531
  448MOL0     H60417   8.135   2.922   5.854 -0.7854  2.3537  1.7227
  448MOL0     H60418   8.167   2.802   5.991 -2.6869 -1.8740  1.9299
  448MOL0     H60419   7.940   2.834   6.065  2.3482 -1.4771  1.8464
  448MOL0     H60420   7.946   2.985   5.968  0.0884 -1.3546  0.0035
  448MOL0     H60421   8.170   2.943   6.182  1.4362  3.7237  0.6841
  448MOL0     H60422   8.146   3.082   6.097  0.4746  1.8590  4.3266
  448MOL0     H60423   7.900   3.085   6.202  1.1240  1.5962 -0.0019
  448MOL0     H60424   7.962   2.941   6.288 -1.6613 -0.3340 -2.3575
  448MOL0     H60425   8.129   3.094   6.406 -1.7486 -0.1814  3.6535
  448MOL0     H60426   8.055   3.225   6.319 -0.6534  0.1218  1.1121
  448MOL0     H60427   7.986   3.169   6.575  3.4507 -0.7904 -0.7744
  448MOL0     H60428   7.922   3.017   6.515 -2.3328  0.1822 -0.4895
  448MOL0     H60429   7.818   3.288   6.406 -0.5025 -0.9227 -1.8150
  448MOL0     H60430   7.755   3.117   6.390  1.7851 -2.0234 -0.4324
  448MOL0     H60431   7.764   3.425   6.606 -1.2601  0.5853  1.0380
  448MOL0     H60432   7.739   3.424   6.912 -0.7144 -0.2670  0.0371
  448MOL0     H60433   7.605   3.487   6.820  1.0899 -0.9883 -2.2771
  448MOL0     H60434   7.610   3.278   7.048  1.3384  2.7541  3.6228
  448MOL0     H60435   7.575   3.445   7.053  3.5871  0.2473 -0.9309
  448MOL0     H60436   7.396   3.250   6.899  1.5569 -1.0643  0.2762
  448MOL0     H60437   7.387   3.427   6.891 -0.2196  0.6891  0.1364
  448MOL0     H60438   7.395   3.415   7.160  1.4265  0.0591 -0.2556
  448MOL0     H60439   7.372   3.246   7.136  0.6312  1.0177  0.5700
  448MOL0     H60440   7.278   3.277   7.330  0.2843  1.9209  0.3733
  448MOL0     H60441   7.141   3.162   7.494  2.2287  0.4756 -1.3711
  448MOL0     H60442   6.497   3.099   7.401  1.7752  0.5985  0.2138
  448MOL0     H60443   6.286   3.107   7.554  0.1539 -1.2519 -0.0688
  448MOL0     H60444   6.161   3.315   7.686  1.8879 -2.3988 -1.5541
  448MOL0     H60445   6.123   3.153   7.698 -1.3330  2.0336 -1.7331
  448MOL0     H60446   5.947   3.249   7.839 -0.3059  0.5660  0.6903
  448MOL0     H60447   6.061   3.183   7.942 -2.4630 -1.5458 -1.0926
  448MOL0     H60448   6.151   3.409   7.989 -0.2231  1.6731 -0.3992
  448MOL0     H60449   6.057   3.469   7.839 -2.4955 -0.7519  0.6423
  448MOL0     H60450   5.923   3.374   8.071 -4.1337  0.2250 -2.3031
  448MOL0     H60451   5.878   3.437   7.917  0.7551 -1.3449  0.5449
  448MOL0     H60452   5.981   3.660   7.981 -0.2158  0.9059  0.9818
  448MOL0     H60453   6.019   3.585   8.141  0.9925 -3.5789 -0.3333
  448MOL0     H60454   5.735   3.612   8.016  0.9223 -1.7075  0.3115
  448MOL0     H60455   5.770   3.534   8.170  0.1846 -1.7542 -0.0313
  448MOL0     H60456   5.810   3.823   8.100 -0.1758 -0.3183 -0.0984
  448MOL0     H60457   5.871   3.746   8.256 -0.1838  1.4536  0.5544
  448MOL0     H60458   5.645   3.687   8.318 -0.5376 -3.9259 -3.9169
  448MOL0     H60459   5.687   3.852   8.291  0.2363 -0.9296 -1.0786
  448MOL0     H60460   6.538   3.272   7.846 -1.1091  1.5666 -0.7151
  448MOL0     H60461   6.729   3.284   7.669 -0.6975  0.0440 -2.6101
  448MOL0     H60462   6.802   3.237   7.230  0.3149 -0.4454 -1.0418
  448MOL0     H60463   6.928   3.341   7.077 -0.1696  1.2836  0.0973
  448MOL0     H60464   7.787   2.592   5.781 -0.3669 -4.0108 -0.0749
  448MOL0     H60465   7.688   2.434   5.626 -1.4771  1.0962  0.4619
  448MOL0     H60466   7.942   2.061   5.252  0.6369  1.1553  2.0405
  448MOL0     H60467   7.839   1.875   5.160  1.3920  0.0864  0.0858
  448MOL0     H60468   7.677   1.678   5.111  3.1424  0.6261 -0.6919
  448MOL0     H60469   7.752   1.773   4.977 -0.6853  1.8516 -0.4616
  448MOL0     H60470   7.589   1.725   4.820 -2.6628  1.0676  0.7648
  448MOL0     H60471   7.481   1.671   4.949 -0.4176  0.6208 -1.1378
  448MOL0     H60472   7.673   1.480   4.987  0.4593 -1.6976 -1.2182
  448MOL0     H60473   7.726   1.524   4.831 -0.8354  1.0553 -1.4233
  448MOL0     H60474   7.435   1.436   4.905  0.0722  2.6993  0.4880
  448MOL0     H60475   7.492   1.476   4.740  1.6718 -0.0837 -0.3319
  448MOL0     H60476   7.627   1.094   4.755 -0.2908  0.5285  1.3726
  448MOL0     H60477   7.466   2.066   5.142  0.2924  1.3906 -2.3357
  448MOL0     H60478   7.460   2.324   5.238 -2.5293 -4.3867 -2.2464
  448MOL0     H60479   7.457   2.186   5.355  1.4694 -2.9400 -3.2281
  448MOL0     H60480   7.555   2.330   5.393 -3.4845  1.1887  0.3881
  449MOL0     O60481   0.143  11.393  11.011  0.1998 -0.3314 -0.1748
  449MOL0     C60482   0.218  11.377  10.916 -0.2148  0.2853 -0.8055
  449MOL0     O60483   0.311  11.463  10.882  0.0785  0.2413 -0.6340
  449MOL0     C60484   0.320  11.577  10.953  0.4109 -0.1495  0.3049
  449MOL0     C60485   0.287  11.685  10.876 -0.8360 -0.3668 -0.6842
  449MOL0     C60486   0.303  11.816  10.924  1.0706 -0.6935 -0.1104
  449MOL0     C60487   0.349  11.836  11.055 -0.3175 -1.2686 -0.5551
  449MOL0     O60488   0.366  11.967  11.092  0.1882 -0.7762 -0.4524
  449MOL0     C60489   0.432  12.010  11.217  0.0716  0.6829  0.4450
  449MOL0     C60490   0.482  12.157  11.225  0.0103 -0.1076  0.3026
  449MOL0     C60491   0.605  12.198  11.138  0.9682  0.5345 -0.7898
  449MOL0     C60492   0.601  12.164  10.990  0.3006  0.8573  0.4103
  449MOL0     C60493   0.704  12.234  10.907  0.1716 -0.4088 -0.3556
  449MOL0     C60494   0.660  12.234  10.757  0.3107  0.3972  0.1073
  449MOL0     C60495   0.587  12.361  10.723 -0.0942  0.2443  0.8267
  449MOL0     C60496   0.530  12.347  10.579  0.2459 -0.4268 -0.2803
  449MOL0     N60497   0.434  12.459  10.555 -0.1013  0.2239  0.2448
  449MOL0     C60498   0.469  12.585  10.538  0.1520 -0.5495 -0.7114
  449MOL0     C60499   0.355  12.644  10.498  0.5674 -0.1963 -0.2781
  449MOL0     C60500   0.343  12.795  10.456 -0.6568 -0.0693  0.8149
  449MOL0     C60501   0.444  12.812  10.335  0.0230  0.3713 -0.4395
  449MOL0     C60502   0.401  12.941  10.254  0.2631  0.3185  0.0623
  449MOL0     C60503   0.500  12.964  10.148  0.2588  0.5033 -0.2155
  449MOL0     O60504   0.456  13.072  10.058  0.2224  1.1055  0.2640
  449MOL0     C60505   0.501  13.200  10.078 -0.3700 -0.0402  0.0238
  449MOL0     C60506   0.473  13.271  10.193  0.3247 -0.5171 -0.9698
  449MOL0     C60507   0.525  13.400  10.214  0.2895 -0.5045 -0.0441
  449MOL0     C60508   0.589  13.469  10.107  0.1648 -0.6917 -0.1327
  449MOL0     C60509   0.617  13.614  10.114  0.7154  0.6953  0.2434
  449MOL0     O60510   0.726  13.646  10.040  0.0782  0.1317  0.3887
  449MOL0     C60511   0.776  13.772  10.022  0.4287 -1.7392  0.1322
  449MOL0     C60512   0.898  13.786   9.959  0.1998 -0.6006  0.7969
  449MOL0     C60513   0.968  13.908   9.944  0.7832 -0.0012 -0.8499
  449MOL0     C60514   0.892  14.024   9.964 -0.6019  0.1532  1.0084
  449MOL0     O60515   0.938  14.148   9.941  0.0127  0.0441 -0.6344
  449MOL0     C60516   1.058  14.189   9.866 -0.1869 -0.6317 -0.1729
  449MOL0     C60517   1.062  14.331   9.817  0.1592  0.1831  0.6354
  449MOL0     C60518   0.971  14.343   9.695 -0.2930  1.1371  0.1220
  449MOL0     C60519   0.957  14.491   9.669  0.4662  0.4241 -0.8241
  449MOL0     C60520   0.919  14.507   9.527  0.3688 -0.4013  0.7645
  449MOL0     C60521   0.873  14.653   9.485 -0.2735 -0.4219 -0.1712
  449MOL0     C60522   0.856  14.661   9.334  0.7337 -1.4238  0.3525
  449MOL0     C60523   0.801  14.793   9.289  0.3613 -0.2633  0.0729
  449MOL0    Cl60524   0.635  14.828   9.350 -0.3819  0.5447  0.0869
  449MOL0     C60525   0.764  14.014  10.020  0.4304 -0.1248 -0.0786
  449MOL0     C60526   0.714  13.891  10.066  0.8782 -0.3192  0.5730
  449MOL0     O60527   0.536  13.693  10.168  0.5062  1.3592  0.1662
  449MOL0     C60528   0.615  13.393   9.988  0.2432 -0.2747  0.0925
  449MOL0     C60529   0.579  13.257   9.980  1.0961 -0.1972 -0.1068
  449MOL0     N60530   0.252  12.554  10.521 -0.1303 -0.6206  1.0207
  449MOL0     N60531   0.299  12.439  10.554  0.2507 -0.9606  0.2342
  449MOL0     C60532   0.387  11.728  11.138 -0.0145  0.2870 -1.0407
  449MOL0     C60533   0.367  11.596  11.084  0.3544 -0.2031 -0.7640
  449MOL0     C60534   0.184  11.271  10.828  0.7528  0.4145  0.2364
  449MOL0     C60535   0.069  11.182  10.869 -0.7801 -0.0084 -0.0320
  449MOL0     C60536   0.038  11.066  10.793  0.5244 -0.1801 -0.9152
  449MOL0     C60537   0.112  11.038  10.674  0.2942 -0.3164  0.4258
  449MOL0     O60538   0.101  10.915  10.615 -0.7042  0.4749  0.1885
  449MOL0     C60539   0.043  10.793  10.675  0.0762 -0.9165  0.1226
  449MOL0     C60540  -0.092  10.746  10.622  0.2986  0.5469  0.5757
  449MOL0     C60541  -0.139  10.629  10.718  0.1821  0.2055  0.8692
  449MOL0     C60542  -0.278  10.560  10.682 -0.8841 -0.1159  0.3902
  449MOL0     C60543  -0.282  10.477  10.560 -0.5232  0.1070  0.0242
  449MOL0     C60544  -0.300  10.387  10.475 -0.9414  0.1785 -0.0020
  449MOL0     C60545   0.212  11.122  10.628  0.3616 -0.8617 -0.6904
  449MOL0     C60546   0.253  11.234  10.704  0.8973 -0.7189  0.5179
  449MOL0     C60547   0.389  11.282  10.663 -0.4485  0.0232  0.1326
  449MOL0     H60548   0.247  11.670  10.777  2.0425 -0.7130 -1.9099
  449MOL0     H60549   0.272  11.902  10.865 -1.6121 -0.4996  1.4009
  449MOL0     H60550   0.359  11.997  11.298 -2.7628 -1.1433 -2.1507
  449MOL0     H60551   0.517  11.944  11.239 -0.2220  0.0569 -0.2436
  449MOL0     H60552   0.507  12.170  11.330  2.0011  2.3251 -0.3573
  449MOL0     H60553   0.399  12.225  11.204 -1.0793 -1.5343 -0.1173
  449MOL0     H60554   0.698  12.162  11.183  1.0025 -0.2216 -1.4524
  449MOL0     H60555   0.623  12.306  11.146  0.5616  0.6072 -0.8393
  449MOL0     H60556   0.621  12.056  10.990  0.7685  0.9419  0.1407
  449MOL0     H60557   0.506  12.190  10.944  0.4436  0.4174 -0.1453
  449MOL0     H60558   0.706  12.338  10.940 -0.2152 -0.0218 -1.4917
  449MOL0     H60559   0.805  12.192  10.916 -1.4234 -4.5861  0.3442
  449MOL0     H60560   0.749  12.236  10.693  1.1060  0.4326  1.1950
  449MOL0     H60561   0.597  12.147  10.734 -0.9798  1.2579  0.2678
  449MOL0     H60562   0.658  12.444  10.731 -0.4180  0.3157  4.4536
  449MOL0     H60563   0.502  12.375  10.790 -2.0962  0.2880 -1.5810
  449MOL0     H60564   0.618  12.341  10.515 -0.5591  0.5992 -1.5364
  449MOL0     H60565   0.485  12.249  10.562  2.8394 -1.8719  0.6416
  449MOL0     H60566   0.572  12.621  10.539 -0.4937  1.4286 -0.9220
  449MOL0     H60567   0.242  12.801  10.413  0.7477 -3.1580 -3.6894
  449MOL0     H60568   0.368  12.858  10.542 -3.8742  0.5416  1.4659
  449MOL0     H60569   0.544  12.818  10.381 -0.4415 -0.6734  0.7614
  449MOL0     H60570   0.448  12.728  10.266 -0.1346  1.4246 -1.7740
  449MOL0     H60571   0.395  13.027  10.322 -5.0347 -1.5289  2.5531
  449MOL0     H60572   0.296  12.932  10.225 -0.5404 -0.3552  2.8637
  449MOL0     H60573   0.530  12.872  10.098  4.1068  2.9324 -2.9545
  449MOL0     H60574   0.589  12.992  10.205 -0.3341  2.4704 -0.1795
  449MOL0     H60575   0.406  13.235  10.271  0.6947  2.6919  1.0075
  449MOL0     H60576   0.504  13.449  10.308  0.5346  0.2764 -0.3933
  449MOL0     H60577   0.938  13.699   9.908 -2.6870 -1.9155  0.5736
  449MOL0     H60578   1.067  13.902   9.902 -0.2740 -1.7550 -3.3928
  449MOL0     H60579   1.143  14.176   9.933 -1.7537 -2.2401  1.6402
  449MOL0     H60580   1.078  14.112   9.791 -2.1650 -2.7445  1.3095
  449MOL0     H60581   1.038  14.398   9.901 -2.8303 -1.3652  1.1836
  449MOL0     H60582   1.163  14.351   9.780 -0.2693 -2.0129 -2.0632
  449MOL0     H60583   1.006  14.286   9.608 -2.0815  0.4599 -0.1942
  449MOL0     H60584   0.870  14.306   9.713  0.1799 -0.6326 -0.6289
  449MOL0     H60585   1.053  14.540   9.687  1.4426 -2.7197  5.7802
  449MOL0     H60586   0.883  14.533   9.738  0.8240 -0.4215  0.1002
  449MOL0     H60587   0.838  14.437   9.502  0.4343  0.1418 -1.1138
  449MOL0     H60588   1.006  14.471   9.471 -0.8818  0.2442 -1.7218
  449MOL0     H60589   0.779  14.669   9.539  0.4932  0.7168  0.8849
  449MOL0     H60590   0.954  14.720   9.516 -1.9567  0.5102  2.6077
  449MOL0     H60591   0.792  14.582   9.292  1.2665 -1.2349 -0.8523
  449MOL0     H60592   0.954  14.627   9.299  0.8890 -4.0596  2.9448
  449MOL0     H60593   0.863  14.876   9.324  0.4727 -0.2670 -0.1135
  449MOL0     H60594   0.800  14.803   9.180 -0.4511  2.4595  0.2439
  449MOL0     H60595   0.701  14.101  10.029 -0.6586 -0.8014 -0.9023
  449MOL0     H60596   0.617  13.900  10.115  0.4044  1.6404 -0.6270
  449MOL0     H60597   0.662  13.449   9.908  1.7656  0.7945  1.6679
  449MOL0     H60598   0.598  13.206   9.886  1.2338 -2.1841  0.9645
  449MOL0     H60599   0.416  11.736  11.242  2.6536 -4.9788 -1.0894
  449MOL0     H60600   0.372  11.503  11.139 -2.1847 -1.2057 -2.0546
  449MOL0     H60601   0.008  11.212  10.953  1.4205  2.5252  0.7932
  449MOL0     H60602  -0.039  10.993  10.815  0.4130  0.3750  0.6526
  449MOL0     H60603   0.027  10.809  10.782 -0.5891  0.9268 -0.2117
  449MOL0     H60604   0.123  10.723  10.649  1.3528  1.3342 -2.5579
  449MOL0     H60605  -0.076  10.721  10.517  0.6320 -0.3630  0.8421
  449MOL0     H60606  -0.172  10.820  10.636 -1.0902 -1.3176  3.5541
  449MOL0     H60607  -0.145  10.665  10.821  1.5659 -1.7244  1.6773
  449MOL0     H60608  -0.061  10.553  10.719 -0.3158 -0.3243  2.4694
  449MOL0     H60609  -0.309  10.490  10.760 -1.2749 -0.3217  0.0542
  449MOL0     H60610  -0.335  10.651  10.662  1.4353  0.9991 -1.8171
  449MOL0     H60611  -0.313  10.311  10.401  1.8728 -2.3177  1.8382
  449MOL0     H60612   0.280  11.089  10.550  0.1451 -1.9812 -0.4184
  449MOL0     H60613   0.395  11.391  10.664 -0.4491  0.1872 -3.7589
  449MOL0     H60614   0.461  11.246  10.738 -2.9403 -1.8905  1.7868
  449MOL0     H60615   0.422  11.244  10.566  0.8883  1.7673 -0.1512
  450MOL0     O60616   5.634   4.600   7.832 -0.3290  0.3984 -0.1622
  450MOL0     C60617   5.631   4.495   7.899  0.2931 -0.9784  0.7741
  450MOL0     O60618   5.561   4.477   8.018  0.0723  0.6574 -0.1513
  450MOL0     C60619   5.480   4.574   8.075 -1.2310 -0.3234 -1.0543
  450MOL0     C60620   5.482   4.583   8.217  0.4797 -0.1962  0.9205
  450MOL0     C60621   5.398   4.677   8.274 -0.2945 -0.6344 -0.0974
  450MOL0     C60622   5.296   4.746   8.197 -0.3286 -0.6493  0.3353
  450MOL0     O60623   5.210   4.823   8.274  0.4140  0.1616  0.0638
  450MOL0     C60624   5.185   4.956   8.226 -0.1398 -0.2153  0.1467
  450MOL0     C60625   5.160   5.042   8.352 -0.5586  0.0888  0.4132
  450MOL0     C60626   5.026   5.020   8.412  0.6505  1.2259  0.6272
  450MOL0     C60627   5.001   5.055   8.556  0.1931 -0.7191  0.2478
  450MOL0     C60628   4.851   5.072   8.597 -0.2136 -0.5388 -0.2977
  450MOL0     C60629   4.761   4.956   8.556 -0.4151  0.3719 -0.3462
  450MOL0     C60630   4.616   4.950   8.613 -0.3435 -0.5679  0.1024
  450MOL0     C60631   4.523   5.070   8.591 -0.5693  0.4738 -0.2633
  450MOL0     N60632   4.395   5.041   8.659  1.0569 -0.1603 -0.2071
  450MOL0     C60633   4.274   5.007   8.601 -0.0838  1.0384  0.2050
  450MOL0     C60634   4.193   4.983   8.710  0.5938  0.5931  0.6509
  450MOL0     C60635   4.055   4.930   8.711  1.0103  0.2041 -0.7528
  450MOL0     C60636   4.021   4.841   8.594 -0.6150 -0.1218  0.1888
  450MOL0     C60637   3.983   4.912   8.465 -0.0599 -0.5211 -0.4722
  450MOL0     C60638   3.862   5.003   8.478  0.2736  0.4214  0.3765
  450MOL0     O60639   3.762   4.987   8.381  0.4889  0.1501 -0.1530
  450MOL0     C60640   3.671   4.882   8.379 -0.9530  0.2727 -0.0341
  450MOL0     C60641   3.575   4.891   8.271 -0.8246 -0.0787  0.4167
  450MOL0     C60642   3.476   4.799   8.273  0.3342 -0.6548 -0.7283
  450MOL0     C60643   3.462   4.691   8.374 -0.2833 -0.4724  0.3280
  450MOL0     C60644   3.365   4.579   8.351  0.0693 -0.5568 -0.3385
  450MOL0     O60645   3.364   4.473   8.442 -0.6179  0.1973  0.3016
  450MOL0     C60646   3.262   4.379   8.436  0.5943 -0.7542 -0.4638
  450MOL0     C60647   3.207   4.329   8.317  0.7616 -0.1412 -0.0636
  450MOL0     C60648   3.090   4.248   8.316 -0.2574 -0.4515  0.7409
  450MOL0     C60649   3.022   4.219   8.433 -0.2795  0.2289 -0.7071
  450MOL0     O60650   2.913   4.148   8.432 -0.3133  0.7271 -0.3536
  450MOL0     C60651   2.844   4.108   8.304 -0.0281 -0.2580 -0.5805
  450MOL0     C60652   2.733   4.011   8.357 -1.5077 -0.0616  0.1078
  450MOL0     C60653   2.667   3.937   8.232  0.2383 -0.3815 -0.1132
  450MOL0     C60654   2.553   4.011   8.165  0.4137 -0.1841  0.0530
  450MOL0     C60655   2.497   3.934   8.045 -0.3872 -0.0143  0.6774
  450MOL0     C60656   2.358   3.998   8.015  0.3720  0.1957 -0.6409
  450MOL0     C60657   2.284   3.930   7.901 -0.3478 -0.3536  0.5152
  450MOL0     C60658   2.135   3.962   7.873 -0.0621  0.0100 -0.2140
  450MOL0    Cl60659   2.116   4.129   7.904  0.2865  0.2047 -0.4083
  450MOL0     C60660   3.089   4.263   8.555 -0.8925  0.2904 -0.0272
  450MOL0     C60661   3.202   4.353   8.560 -0.0232  0.6617  1.1441
  450MOL0     O60662   3.283   4.589   8.261  0.4319 -0.0365  0.4822
  450MOL0     C60663   3.552   4.686   8.476 -0.5799 -0.3135 -0.2494
  450MOL0     C60664   3.661   4.776   8.472 -0.3196 -0.2088 -0.7225
  450MOL0     N60665   4.260   4.993   8.825  0.0115  0.0856 -0.0038
  450MOL0     N60666   4.373   5.036   8.795  0.5727 -0.7637  1.0856
  450MOL0     C60667   5.285   4.719   8.060  0.8398 -0.7191 -0.2513
  450MOL0     C60668   5.385   4.641   8.006 -0.2378 -0.6485 -0.0754
  450MOL0     C60669   5.696   4.373   7.839 -0.0078  0.2263 -0.3050
  450MOL0     C60670   5.787   4.386   7.729  0.6699  1.1221  0.3707
  450MOL0     C60671   5.842   4.280   7.665 -0.2455 -0.0147  0.8138
  450MOL0     C60672   5.799   4.149   7.684  0.4927 -0.5422  0.2348
  450MOL0     O60673   5.855   4.054   7.601  0.0505  0.3400  0.5020
  450MOL0     C60674   5.795   3.924   7.624  0.4404  0.3918 -0.9636
  450MOL0     C60675   5.849   3.847   7.747  0.4728  0.3506 -0.5388
  450MOL0     C60676   5.992   3.797   7.708  0.2093  0.8990 -0.5976
  450MOL0     C60677   5.993   3.663   7.642 -0.5536  0.3163  0.6457
  450MOL0     C60678   5.960   3.647   7.502 -0.7696 -0.2049  1.3676
  450MOL0     C60679   5.917   3.627   7.385  0.1416  0.4210 -0.5882
  450MOL0     C60680   5.709   4.127   7.793 -0.4605 -0.4827 -0.0372
  450MOL0     C60681   5.660   4.232   7.869 -0.6760 -0.1272 -0.7806
  450MOL0     C60682   5.561   4.195   7.973 -0.0886 -0.7638 -0.9025
  450MOL0     H60683   5.568   4.551   8.276  0.2689  1.7170  2.3376
  450MOL0     H60684   5.410   4.715   8.375  1.3444  0.4957 -0.6622
  450MOL0     H60685   5.277   4.994   8.179 -2.1254  2.5289 -1.8380
  450MOL0     H60686   5.110   4.953   8.146  1.0011 -1.6483 -0.9321
  450MOL0     H60687   5.156   5.148   8.326 -1.0964 -0.0752 -0.1985
  450MOL0     H60688   5.235   5.019   8.428  0.3698 -1.3145 -0.8606
  450MOL0     H60689   5.016   4.911   8.412  2.9711  0.9579  0.8505
  450MOL0     H60690   4.949   5.069   8.353  0.4683 -1.0322 -1.1677
  450MOL0     H60691   5.032   4.965   8.610  1.1382  0.0346  1.0044
  450MOL0     H60692   5.061   5.143   8.584  1.3972 -2.0105  1.9023
  450MOL0     H60693   4.842   5.081   8.706 -3.2443  2.3052 -0.6301
  450MOL0     H60694   4.815   5.161   8.545  0.2964 -1.5426 -2.4855
  450MOL0     H60695   4.752   4.962   8.447 -1.8147 -0.7805 -0.3256
  450MOL0     H60696   4.806   4.863   8.592 -1.1363  0.1100 -0.1036
  450MOL0     H60697   4.624   4.931   8.721 -1.0293  0.4795  0.3509
  450MOL0     H60698   4.584   4.852   8.578 -2.1086 -0.2379  0.7235
  450MOL0     H60699   4.568   5.162   8.630 -0.1741 -0.8108  2.5945
  450MOL0     H60700   4.507   5.080   8.484 -0.0763  0.4463 -0.3419
  450MOL0     H60701   4.261   4.984   8.496 -2.3718 -1.9031  0.9963
  450MOL0     H60702   4.040   4.868   8.800 -0.9775  1.5579 -0.0501
  450MOL0     H60703   3.981   5.010   8.722  2.7255  1.6537  0.7559
  450MOL0     H60704   4.106   4.773   8.581 -1.0260 -0.5393 -0.3373
  450MOL0     H60705   3.935   4.776   8.613 -0.6241 -0.7868 -1.9332
  450MOL0     H60706   3.960   4.844   8.382 -1.4772 -0.6238 -0.0306
  450MOL0     H60707   4.066   4.974   8.430  1.1876 -2.9114 -2.0523
  450MOL0     H60708   3.892   5.108   8.483  4.1488 -0.5748  3.2433
  450MOL0     H60709   3.819   4.996   8.579 -1.6226  4.2329  0.0358
  450MOL0     H60710   3.583   4.971   8.198  0.6981  0.5087  1.1703
  450MOL0     H60711   3.405   4.811   8.192  0.9193 -2.2348 -1.5210
  450MOL0     H60712   3.241   4.357   8.218 -1.2353 -0.1095 -0.7841
  450MOL0     H60713   3.057   4.219   8.217  1.1825 -0.2809  0.1854
  450MOL0     H60714   2.801   4.198   8.261 -0.5010  2.4723  4.8301
  450MOL0     H60715   2.919   4.063   8.238  1.3970  2.3020 -0.8187
  450MOL0     H60716   2.778   3.933   8.419 -2.9003 -0.3245  0.8312
  450MOL0     H60717   2.654   4.054   8.419 -2.4251  1.6459 -2.1412
  450MOL0     H60718   2.749   3.921   8.162  1.7024 -1.6171  1.7804
  450MOL0     H60719   2.636   3.844   8.281  0.9474  1.2557  3.8458
  450MOL0     H60720   2.587   4.112   8.143  1.6686 -0.6538 -0.2233
  450MOL0     H60721   2.473   4.038   8.234  1.1613  0.4981  0.6621
  450MOL0     H60722   2.478   3.829   8.067 -1.7177  0.4424  1.8742
  450MOL0     H60723   2.561   3.942   7.956  1.4070  0.0898  1.9393
  450MOL0     H60724   2.303   3.967   8.104  1.8757  2.7432  1.3092
  450MOL0     H60725   2.371   4.106   8.005  2.9445 -0.0330 -0.4742
  450MOL0     H60726   2.306   3.825   7.924  0.8298  0.0447  1.2899
  450MOL0     H60727   2.332   3.948   7.804 -1.8722  0.8046 -0.0498
  450MOL0     H60728   2.103   3.938   7.772 -3.8276  2.6690  0.1184
  450MOL0     H60729   2.078   3.897   7.940 -1.8408  1.5645 -0.1237
  450MOL0     H60730   3.051   4.218   8.646  3.1255 -3.9282 -0.0398
  450MOL0     H60731   3.246   4.380   8.655  0.6810 -2.7333  1.9234
  450MOL0     H60732   3.546   4.612   8.556  0.3932  0.0040  0.1224
  450MOL0     H60733   3.723   4.755   8.558 -1.3485 -0.9494 -0.1293
  450MOL0     H60734   5.200   4.760   8.006 -1.6275 -2.2289  2.2252
  450MOL0     H60735   5.380   4.631   7.898  2.4136 -1.2000 -0.2088
  450MOL0     H60736   5.816   4.487   7.701  1.3845  0.8482  0.1182
  450MOL0     H60737   5.909   4.305   7.583  0.4262 -0.5792  1.1754
  450MOL0     H60738   5.817   3.859   7.539 -2.3355 -3.2167  0.8431
  450MOL0     H60739   5.687   3.934   7.617  0.1675 -2.4630 -2.0433
  450MOL0     H60740   5.780   3.768   7.777 -1.7443  1.7187 -1.7569
  450MOL0     H60741   5.853   3.912   7.834  0.9211 -1.3741  0.7854
  450MOL0     H60742   6.040   3.796   7.806  0.1307  2.0468 -0.5264
  450MOL0     H60743   6.038   3.873   7.644  1.7221  2.6138  2.2998
  450MOL0     H60744   6.094   3.625   7.658  0.1462  1.0540 -1.5755
  450MOL0     H60745   5.918   3.606   7.698 -0.4915  2.3805  3.0155
  450MOL0     H60746   5.854   3.635   7.299 -2.3615 -1.3166  0.9194
  450MOL0     H60747   5.668   4.030   7.817 -0.3256  0.1150  2.8940
  450MOL0     H60748   5.602   4.209   8.073  1.4005  0.3406 -1.6205
  450MOL0     H60749   5.481   4.267   7.956 -0.4449 -0.5800  1.3001
  450MOL0     H60750   5.521   4.094   7.960  0.3251 -0.6294 -4.0658
  451MOL0     O60751   0.876   1.791   7.395  0.5859  0.0891  0.3727
  451MOL0     C60752   0.970   1.734   7.353 -0.3446 -0.3455 -0.2235
  451MOL0     O60753   1.039   1.757   7.238  0.5903  0.1786  0.0742
  451MOL0     C60754   0.985   1.834   7.133 -0.5709  0.1565 -0.1778
  451MOL0     C60755   0.849   1.872   7.103 -0.8197  0.4373  0.0245
  451MOL0     C60756   0.812   1.936   6.987  1.0636  0.3954  0.6807
  451MOL0     C60757   0.908   1.946   6.883 -0.9111  0.0538  0.1269
  451MOL0     O60758   0.874   2.018   6.769  0.0146  0.5048  0.0120
  451MOL0     C60759   0.970   2.047   6.665  0.2093  1.1049  0.0925
  451MOL0     C60760   0.912   2.134   6.562 -0.0213 -0.6818 -0.1311
  451MOL0     C60761   1.004   2.200   6.458 -0.4072 -0.2254 -0.0116
  451MOL0     C60762   0.930   2.302   6.381 -0.2472  0.2953 -0.0596
  451MOL0     C60763   0.980   2.325   6.235  0.4516 -0.2295  0.1595
  451MOL0     C60764   0.951   2.202   6.142  1.2203  1.0987 -0.2732
  451MOL0     C60765   0.980   2.245   5.997  0.0863  1.3221  0.7739
  451MOL0     C60766   0.924   2.135   5.892  0.7897 -0.7157 -0.9471
  451MOL0     N60767   0.954   1.997   5.911 -0.0026 -0.4969  0.0526
  451MOL0     C60768   0.865   1.898   5.938 -0.1359  0.6615 -0.3561
  451MOL0     C60769   0.940   1.782   5.943  0.6368 -0.2940 -0.2039
  451MOL0     C60770   0.907   1.645   5.982 -0.7432 -0.2598  0.3847
  451MOL0     C60771   0.856   1.560   5.868  0.7375 -0.3077 -0.2372
  451MOL0     C60772   0.965   1.540   5.766  0.0169 -0.7502  0.1901
  451MOL0     C60773   1.108   1.493   5.823 -0.0482 -0.3794 -0.0787
  451MOL0     O60774   1.114   1.360   5.873 -1.0104  0.1937 -0.4349
  451MOL0     C60775   1.053   1.257   5.806  0.4869  0.3960 -0.7506
  451MOL0     C60776   0.940   1.194   5.862 -0.6002 -0.8167 -0.4674
  451MOL0     C60777   0.856   1.111   5.782  0.4093 -0.2708 -0.6437
  451MOL0     C60778   0.894   1.086   5.652 -0.1334 -0.4264  0.0904
  451MOL0     C60779   0.826   0.982   5.572 -0.6052  0.7801 -0.7202
  451MOL0     O60780   0.737   0.908   5.639  0.3630 -0.6980  0.2256
  451MOL0     C60781   0.666   0.804   5.595  1.3525 -0.0827  0.5487
  451MOL0     C60782   0.570   0.758   5.685  0.6393  0.7568  0.3448
  451MOL0     C60783   0.493   0.647   5.660  0.3449  0.1946  1.1283
  451MOL0     C60784   0.497   0.583   5.537  0.3076 -0.2970  0.5388
  451MOL0     O60785   0.417   0.474   5.532  0.7129  0.4159 -0.1609
  451MOL0     C60786   0.395   0.418   5.400  0.2153  1.3455 -0.4069
  451MOL0     C60787   0.284   0.492   5.321 -0.6418  0.1217 -0.0296
  451MOL0     C60788   0.196   0.398   5.235  0.4151  0.2586  0.6345
  451MOL0     C60789   0.152   0.449   5.095  0.5263 -0.8842 -0.1373
  451MOL0     C60790   0.070   0.352   5.016  0.1201  0.0219  0.3362
  451MOL0     C60791   0.004   0.404   4.901 -1.0146 -0.4465  0.2941
  451MOL0     C60792  -0.036   0.277   4.816 -0.0952  0.0898 -0.6649
  451MOL0     C60793  -0.084   0.322   4.680  0.3051  0.9553 -0.9343
  451MOL0    Cl60794   0.064   0.382   4.605 -0.0676  0.0458  0.2517
  451MOL0     C60795   0.579   0.636   5.441 -0.8318 -0.1599 -0.5682
  451MOL0     C60796   0.670   0.736   5.477 -0.2886  0.8279 -0.6884
  451MOL0     O60797   0.853   0.961   5.453  0.1322 -0.2510 -0.2742
  451MOL0     C60798   1.019   1.136   5.602  1.0963 -0.4804 -0.0271
  451MOL0     C60799   1.086   1.224   5.678 -0.3404 -0.2404  0.1457
  451MOL0     N60800   1.072   1.820   5.911  0.8852 -0.5736 -0.6255
  451MOL0     N60801   1.079   1.950   5.901  0.6031 -0.3186 -0.4717
  451MOL0     C60802   1.041   1.894   6.904  0.2454 -0.8953 -0.1325
  451MOL0     C60803   1.080   1.852   7.029 -0.1062  0.3691 -1.0047
  451MOL0     C60804   1.029   1.636   7.455  0.4056 -0.7063  0.4597
  451MOL0     C60805   0.935   1.594   7.556 -0.2501 -0.0016 -0.3107
  451MOL0     C60806   0.981   1.505   7.650 -0.4445 -0.0839 -0.9335
  451MOL0     C60807   1.114   1.464   7.660 -1.0322 -0.8155  0.4293
  451MOL0     O60808   1.164   1.375   7.752  0.2913  0.1066 -0.6300
  451MOL0     C60809   1.086   1.344   7.876 -0.3163 -0.0849  0.0887
  451MOL0     C60810   1.163   1.235   7.957 -0.4933 -0.3042 -0.0718
  451MOL0     C60811   1.292   1.299   8.015  0.0618  0.2165  0.1481
  451MOL0     C60812   1.387   1.188   8.059 -0.0795  0.2500  0.0752
  451MOL0     C60813   1.429   1.112   7.944  1.0416  0.0919  0.5778
  451MOL0     C60814   1.480   1.050   7.854 -0.5472  0.5821 -0.0552
  451MOL0     C60815   1.205   1.518   7.562  0.1285  1.4648  1.4567
  451MOL0     C60816   1.163   1.601   7.458 -0.5448 -0.7177 -0.1925
  451MOL0     C60817   1.261   1.647   7.357  0.1836  0.3038 -0.2789
  451MOL0     H60818   0.768   1.857   7.174 -0.5237  0.7019  0.4215
  451MOL0     H60819   0.712   1.959   6.952  0.9824 -1.8236 -0.7372
  451MOL0     H60820   1.059   2.087   6.714  0.4907  0.7266 -0.1071
  451MOL0     H60821   1.004   1.954   6.619  0.4381  0.8242  0.8217
  451MOL0     H60822   0.860   2.215   6.614 -3.6655 -0.8000 -3.2017
  451MOL0     H60823   0.839   2.081   6.501  0.5085  1.4242 -2.7853
  451MOL0     H60824   1.048   2.124   6.393 -1.6675  1.0776 -2.5384
  451MOL0     H60825   1.094   2.238   6.509  1.6039 -1.5316 -2.3681
  451MOL0     H60826   0.821   2.288   6.387 -0.1654  0.0530  0.8967
  451MOL0     H60827   0.938   2.397   6.434  1.9111  0.2226 -0.1660
  451MOL0     H60828   0.935   2.414   6.190 -1.6917 -0.9158  0.8003
  451MOL0     H60829   1.087   2.342   6.224  0.8707 -3.3963 -2.4533
  451MOL0     H60830   1.017   2.119   6.171 -1.3837 -1.6027 -1.5801
  451MOL0     H60831   0.845   2.178   6.149  0.5737  2.7837 -2.8789
  451MOL0     H60832   1.087   2.252   5.978  0.3613 -0.7318  1.2409
  451MOL0     H60833   0.933   2.341   5.975 -0.7945  0.7650  0.1356
  451MOL0     H60834   0.816   2.144   5.896  0.8453  0.4186 -1.6864
  451MOL0     H60835   0.960   2.175   5.797  0.7575  1.4526 -0.1286
  451MOL0     H60836   0.766   1.912   5.980  1.1453  2.1896  2.4478
  451MOL0     H60837   0.996   1.612   6.036 -1.3205 -0.1991  1.3828
  451MOL0     H60838   0.826   1.647   6.055 -2.9529 -2.2702 -1.8046
  451MOL0     H60839   0.831   1.464   5.913  3.2996 -1.0478 -0.2440
  451MOL0     H60840   0.764   1.603   5.826 -0.1969 -0.7938  1.2157
  451MOL0     H60841   0.988   1.639   5.725  1.1953 -0.4812  1.4102
  451MOL0     H60842   0.924   1.487   5.680  1.2157  0.5038 -1.2143
  451MOL0     H60843   1.144   1.552   5.908 -0.4713 -0.4066  0.1198
  451MOL0     H60844   1.184   1.514   5.747  0.2957 -0.6979  0.1770
  451MOL0     H60845   0.934   1.233   5.963 -0.9524  3.4529 -1.9262
  451MOL0     H60846   0.776   1.049   5.821  0.4316 -0.2761 -0.6067
  451MOL0     H60847   0.561   0.821   5.773 -3.0956  2.0767 -0.7970
  451MOL0     H60848   0.413   0.621   5.728 -0.9317  0.0899 -0.3372
  451MOL0     H60849   0.490   0.394   5.351  1.4762 -2.8580  3.3263
  451MOL0     H60850   0.360   0.318   5.429 -1.2165  0.9743 -3.1766
  451MOL0     H60851   0.222   0.548   5.392  0.4425 -1.2996  2.1952
  451MOL0     H60852   0.313   0.565   5.246 -3.3178 -0.4392 -1.7469
  451MOL0     H60853   0.238   0.299   5.217 -2.1844 -0.6824 -0.7376
  451MOL0     H60854   0.104   0.393   5.293  0.7240  3.1141  1.5376
  451MOL0     H60855   0.244   0.469   5.039  0.0736  0.0707 -0.5618
  451MOL0     H60856   0.093   0.541   5.105 -0.0107 -1.4673  2.8115
  451MOL0     H60857  -0.009   0.303   5.074 -0.9361 -1.2039 -2.0064
  451MOL0     H60858   0.136   0.275   4.977  1.4878  1.9859 -1.4397
  451MOL0     H60859  -0.090   0.456   4.921  0.9491  4.8184 -2.2665
  451MOL0     H60860   0.089   0.459   4.859  0.2403 -2.5411 -0.0832
  451MOL0     H60861  -0.112   0.223   4.873  0.7808 -1.1085 -0.6007
  451MOL0     H60862   0.049   0.212   4.796 -0.3931 -0.3027 -0.6584
  451MOL0     H60863  -0.136   0.248   4.619 -2.5027  2.4033 -0.4729
  451MOL0     H60864  -0.159   0.402   4.682 -0.8633 -0.0784  1.8550
  451MOL0     H60865   0.589   0.593   5.342  3.6129  1.0559 -0.8883
  451MOL0     H60866   0.740   0.769   5.402  1.3461 -3.1328 -1.1682
  451MOL0     H60867   1.068   1.127   5.506  0.1465 -2.1971 -0.3942
  451MOL0     H60868   1.163   1.282   5.628 -0.2992  1.5659  2.1125
  451MOL0     H60869   1.119   1.924   6.835 -2.1016  0.2954 -2.4764
  451MOL0     H60870   1.179   1.808   7.039  0.3373  1.5167  0.0007
  451MOL0     H60871   0.835   1.634   7.561 -0.4325 -0.6314  1.6829
  451MOL0     H60872   0.915   1.469   7.729  1.6836  1.3639  1.6893
  451MOL0     H60873   0.983   1.317   7.853  0.2368 -2.5306  0.2577
  451MOL0     H60874   1.072   1.427   7.946  0.7986 -0.1757  0.4354
  451MOL0     H60875   1.198   1.149   7.899  0.4970 -0.3937  0.6288
  451MOL0     H60876   1.092   1.199   8.033 -1.8125 -3.4827 -2.5823
  451MOL0     H60877   1.267   1.369   8.095  1.7599  0.9416  0.1002
  451MOL0     H60878   1.333   1.368   7.940  0.2378 -2.3719 -2.2946
  451MOL0     H60879   1.466   1.225   8.125 -1.4801 -0.0772  2.0181
  451MOL0     H60880   1.338   1.128   8.137  1.0405 -0.9335 -0.0825
  451MOL0     H60881   1.516   0.984   7.777 -0.5960  1.7659 -1.1254
  451MOL0     H60882   1.312   1.501   7.561 -0.0807 -0.5587 -2.1779
  451MOL0     H60883   1.250   1.753   7.334  0.3651  0.8157  1.8797
  451MOL0     H60884   1.362   1.636   7.397  0.1372 -3.5788 -0.8396
  451MOL0     H60885   1.243   1.589   7.266 -2.2775  3.3087 -1.9081
  452MOL0     O60886   0.323   2.433   5.805 -0.9456  0.2048 -1.3748
  452MOL0     C60887   0.431   2.492   5.785  0.7031  0.2231  0.1957
  452MOL0     O60888   0.551   2.448   5.820  0.8166 -0.0123 -0.0763
  452MOL0     C60889   0.561   2.352   5.913  0.1335  0.4451 -0.7294
  452MOL0     C60890   0.569   2.391   6.052 -0.2734  0.4119  0.6463
  452MOL0     C60891   0.566   2.288   6.158 -1.1744  0.6204  0.2705
  452MOL0     C60892   0.554   2.153   6.111 -0.0526  0.2949 -0.2865
  452MOL0     O60893   0.543   2.045   6.203 -0.3088  0.2357 -1.0201
  452MOL0     C60894   0.466   2.074   6.315  0.6997  0.2519 -0.0272
  452MOL0     C60895   0.442   1.936   6.384  0.9596 -0.7883 -0.0727
  452MOL0     C60896   0.558   1.903   6.460  0.1268 -0.2342  0.2683
  452MOL0     C60897   0.519   1.786   6.541 -0.5124  0.5323  0.0750
  452MOL0     C60898   0.645   1.741   6.613  0.5378  0.4850  0.3196
  452MOL0     C60899   0.613   1.665   6.734 -1.1142  0.1896  0.3028
  452MOL0     C60900   0.746   1.601   6.792  0.3646 -0.4496 -0.7251
  452MOL0     C60901   0.710   1.527   6.929 -0.3860  0.4376  0.2214
  452MOL0     N60902   0.832   1.486   7.002  0.7096  0.0049  0.1988
  452MOL0     C60903   0.829   1.466   7.141  0.4497  1.1363  0.7014
  452MOL0     C60904   0.927   1.373   7.148  0.3496 -0.5422  1.0569
  452MOL0     C60905   0.966   1.314   7.272 -0.1201  1.1428 -0.6271
  452MOL0     C60906   0.847   1.277   7.351 -1.0650 -0.5811 -0.1564
  452MOL0     C60907   0.898   1.181   7.462  0.0873 -0.9866  0.6901
  452MOL0     C60908   0.791   1.145   7.570 -0.2961  0.0272  0.2048
  452MOL0     O60909   0.747   1.262   7.642  0.0971  0.1218 -0.5930
  452MOL0     C60910   0.609   1.267   7.651  0.0077  0.8048  0.1652
  452MOL0     C60911   0.539   1.219   7.763  0.2166 -0.0351 -0.2861
  452MOL0     C60912   0.402   1.265   7.783 -0.3471 -0.2486  0.7284
  452MOL0     C60913   0.337   1.349   7.686 -0.0548  0.1095 -0.0390
  452MOL0     C60914   0.198   1.377   7.700  0.5154 -0.0754  0.7394
  452MOL0     O60915   0.121   1.372   7.585 -0.4923  0.0280  0.2375
  452MOL0     C60916  -0.012   1.384   7.600  1.5459 -0.0876  0.4719
  452MOL0     C60917  -0.085   1.313   7.700 -0.5469  0.2773  0.4775
  452MOL0     C60918  -0.226   1.335   7.715  0.0116 -0.0153 -0.6974
  452MOL0     C60919  -0.287   1.440   7.647 -0.1544 -0.0958  0.4537
  452MOL0     O60920  -0.427   1.461   7.649 -0.3672 -0.0113 -0.1104
  452MOL0     C60921  -0.488   1.533   7.764  0.0574 -0.0931  0.4773
  452MOL0     C60922  -0.607   1.600   7.707  0.6047  0.0335  0.0075
  452MOL0     C60923  -0.732   1.595   7.795  1.0543 -0.0711 -0.2999
  452MOL0     C60924  -0.857   1.679   7.734 -0.5376 -0.5013 -0.2520
  452MOL0     C60925  -0.954   1.729   7.831 -0.1003 -0.9105 -0.1149
  452MOL0     C60926  -1.018   1.614   7.910  0.9647 -0.6584 -0.3688
  452MOL0     C60927  -0.993   1.631   8.059  0.0343  0.0478  0.0679
  452MOL0     C60928  -1.076   1.538   8.147  0.3849  0.5482  0.5289
  452MOL0    Cl60929  -1.231   1.606   8.186  0.3443  0.4979 -0.0735
  452MOL0     C60930  -0.221   1.510   7.555 -1.1949  0.1142  0.5927
  452MOL0     C60931  -0.087   1.491   7.547  0.0487  0.2148  0.0466
  452MOL0     O60932   0.160   1.408   7.814  0.4809  1.2367  0.3161
  452MOL0     C60933   0.409   1.380   7.567 -0.4645 -0.0830  0.6732
  452MOL0     C60934   0.543   1.347   7.554  0.0700 -0.5791  0.1735
  452MOL0     N60935   0.979   1.350   7.025 -0.1586 -0.4037 -0.5753
  452MOL0     N60936   0.919   1.409   6.939  0.2913 -0.1790  0.5162
  452MOL0     C60937   0.556   2.119   5.976  0.5608  1.1173 -0.5286
  452MOL0     C60938   0.558   2.224   5.880 -0.7039  0.9924 -0.3142
  452MOL0     C60939   0.408   2.618   5.707  0.6510  0.2126 -0.8177
  452MOL0     C60940   0.307   2.618   5.615 -0.5863  0.0731 -0.2401
  452MOL0     C60941   0.279   2.740   5.532 -0.0367  0.6955 -0.9897
  452MOL0     C60942   0.364   2.857   5.558 -0.2399  0.1027 -0.2443
  452MOL0     O60943   0.350   2.970   5.495  0.0333 -0.1402  0.6517
  452MOL0     C60944   0.222   3.009   5.441  1.0908 -0.2997  0.8131
  452MOL0     C60945   0.209   3.164   5.436  0.8435 -0.5047 -0.1771
  452MOL0     C60946   0.059   3.202   5.411 -0.5378  0.9080 -0.9872
  452MOL0     C60947   0.040   3.301   5.300 -0.4783 -0.2584 -0.1345
  452MOL0     C60948  -0.107   3.337   5.280 -0.6558  1.0357 -0.3153
  452MOL0     C60949  -0.221   3.379   5.280 -0.1634 -0.0110 -0.4747
  452MOL0     C60950   0.461   2.842   5.661 -0.1664  0.1115 -0.0466
  452MOL0     C60951   0.487   2.725   5.734 -0.0392  0.0009  0.3192
  452MOL0     C60952   0.575   2.740   5.857 -0.2838 -0.5385  0.2169
  452MOL0     H60953   0.565   2.497   6.078  1.1389  1.0957 -1.6459
  452MOL0     H60954   0.574   2.311   6.263  3.5799  3.9840 -0.4464
  452MOL0     H60955   0.500   2.145   6.391  3.4713 -0.5372 -0.4007
  452MOL0     H60956   0.369   2.121   6.296  1.5717  3.6842  2.9339
  452MOL0     H60957   0.402   1.856   6.321  0.0690  0.8042 -1.6012
  452MOL0     H60958   0.366   1.972   6.455  0.4016 -0.3898 -0.8581
  452MOL0     H60959   0.601   1.976   6.530  2.2443 -3.3664  2.5087
  452MOL0     H60960   0.631   1.875   6.384  0.3044 -0.9049  0.6788
  452MOL0     H60961   0.440   1.807   6.614  0.4075 -0.3599  1.3684
  452MOL0     H60962   0.485   1.705   6.474 -1.7367  2.0258 -1.1993
  452MOL0     H60963   0.692   1.667   6.548  0.1851 -0.5383  1.2038
  452MOL0     H60964   0.711   1.822   6.646  0.2328  1.4546 -1.3416
  452MOL0     H60965   0.570   1.724   6.816 -1.1418 -0.3343  0.6696
  452MOL0     H60966   0.548   1.581   6.709  0.8486 -0.5316 -3.0232
  452MOL0     H60967   0.814   1.681   6.823 -0.4925 -0.7709  2.2967
  452MOL0     H60968   0.789   1.539   6.713 -1.3269 -3.7083  0.7077
  452MOL0     H60969   0.648   1.596   6.987  0.5213  1.4398  0.0269
  452MOL0     H60970   0.649   1.437   6.917  0.0587  0.0287  0.9554
  452MOL0     H60971   0.771   1.497   7.227 -0.9469  1.1129 -0.2073
  452MOL0     H60972   1.032   1.227   7.258 -2.0146 -0.1091 -2.3133
  452MOL0     H60973   1.017   1.394   7.326 -3.2949  3.8749 -1.3808
  452MOL0     H60974   0.795   1.365   7.391  2.7281  1.2150  1.2615
  452MOL0     H60975   0.783   1.219   7.284  0.6958  2.5444 -5.0868
  452MOL0     H60976   0.969   1.246   7.515 -0.4701 -0.6429  1.0312
  452MOL0     H60977   0.946   1.088   7.432 -2.8850 -2.0196 -1.2860
  452MOL0     H60978   0.849   1.088   7.643  1.8791  1.2652 -0.4702
  452MOL0     H60979   0.715   1.096   7.508  0.9444 -0.4558 -0.9844
  452MOL0     H60980   0.576   1.152   7.840  1.4430  2.5042  1.4733
  452MOL0     H60981   0.357   1.227   7.874 -0.3013  0.8006  1.2030
  452MOL0     H60982  -0.035   1.241   7.765  0.1272  1.7616  1.6537
  452MOL0     H60983  -0.286   1.287   7.791  0.7287 -0.1171 -0.1827
  452MOL0     H60984  -0.516   1.455   7.835 -1.4086  0.2847  0.3415
  452MOL0     H60985  -0.413   1.601   7.806  0.0574  1.2226 -1.5020
  452MOL0     H60986  -0.589   1.705   7.682 -5.2191  1.4203  0.3603
  452MOL0     H60987  -0.647   1.546   7.621 -1.6726 -1.0483  1.6339
  452MOL0     H60988  -0.756   1.491   7.817 -1.2430  0.8078  1.7557
  452MOL0     H60989  -0.695   1.630   7.892  3.8126 -1.8619 -0.5842
  452MOL0     H60990  -0.905   1.618   7.657 -1.9549 -0.8454  0.8450
  452MOL0     H60991  -0.800   1.757   7.683  0.6279 -0.4376  1.0762
  452MOL0     H60992  -1.035   1.777   7.774 -0.0522 -3.0379 -2.1198
  452MOL0     H60993  -0.922   1.815   7.891 -3.1060  1.5840 -1.7892
  452MOL0     H60994  -1.126   1.621   7.902  0.9211 -0.6096  0.1986
  452MOL0     H60995  -0.965   1.524   7.877 -1.7413 -2.7939  0.8065
  452MOL0     H60996  -0.992   1.732   8.100  0.4854  0.2878 -0.5197
  452MOL0     H60997  -0.886   1.608   8.062  0.2280  0.2192 -2.7353
  452MOL0     H60998  -1.101   1.440   8.105 -1.7318  0.5945  1.5452
  452MOL0     H60999  -1.022   1.526   8.241 -0.6606  1.1481  1.2185
  452MOL0     H61000  -0.275   1.579   7.491  0.8730 -0.1843 -1.6333
  452MOL0     H61001  -0.031   1.551   7.476 -1.8786  0.2140 -1.5666
  452MOL0     H61002   0.353   1.440   7.495  0.3180 -0.4903 -0.3016
  452MOL0     H61003   0.606   1.389   7.476  2.3436 -0.7502  1.8227
  452MOL0     H61004   0.536   2.015   5.951  1.5310  0.8903 -0.4197
  452MOL0     H61005   0.547   2.204   5.774  3.9396  2.2909 -1.2881
  452MOL0     H61006   0.244   2.533   5.590  2.8834 -2.7094 -0.3085
  452MOL0     H61007   0.198   2.727   5.461  1.3755 -4.9393 -2.0029
  452MOL0     H61008   0.137   2.980   5.504  1.2233 -0.6503  0.8321
  452MOL0     H61009   0.198   2.979   5.339  3.2446  0.7057 -0.0576
  452MOL0     H61010   0.262   3.202   5.348 -0.2711 -0.4761 -0.8443
  452MOL0     H61011   0.240   3.205   5.533  0.9012  0.9824 -0.7942
  452MOL0     H61012   0.020   3.232   5.509  2.8084 -3.0693  1.8863
  452MOL0     H61013   0.001   3.111   5.393  0.7889  0.2450 -2.0692
  452MOL0     H61014   0.106   3.387   5.310 -0.3279  0.1162 -3.2012
  452MOL0     H61015   0.073   3.249   5.210 -1.5750 -0.7969 -0.2428
  452MOL0     H61016  -0.324   3.408   5.278  0.4393  2.4860  1.2541
  452MOL0     H61017   0.504   2.940   5.681 -4.0759  2.4436 -1.9287
  452MOL0     H61018   0.660   2.671   5.852  1.9909  1.9704  1.9430
  452MOL0     H61019   0.615   2.839   5.878 -1.0422 -0.4803  1.4838
  452MOL0     H61020   0.523   2.721   5.951 -0.2869  2.1181  0.8053
  453MOL0     O61021   5.048   2.150   9.107 -0.0135  0.1879 -0.5712
  453MOL0     C61022   5.072   2.036   9.064  0.8741  0.0178  0.3533
  453MOL0     O61023   5.124   2.012   8.936  0.2335 -0.4656  0.1540
  453MOL0     C61024   5.139   2.122   8.845  0.6508 -0.8927  0.5342
  453MOL0     C61025   5.030   2.183   8.783  0.7120 -0.4789 -0.2530
  453MOL0     C61026   5.049   2.283   8.688 -0.0063  0.9536  0.9782
  453MOL0     C61027   5.184   2.317   8.655 -1.1095  0.5248  0.1670
  453MOL0     O61028   5.225   2.403   8.551  0.2305  0.6960  0.1248
  453MOL0     C61029   5.131   2.500   8.507 -0.2077  0.4718 -0.7329
  453MOL0     C61030   5.192   2.596   8.414 -0.4814 -0.3169 -0.2511
  453MOL0     C61031   5.207   2.537   8.269 -0.3207  0.6024 -0.3475
  453MOL0     C61032   5.250   2.641   8.166 -0.0170  0.6094  0.0266
  453MOL0     C61033   5.165   2.627   8.037 -0.1599 -0.8748  0.3572
  453MOL0     C61034   5.163   2.492   7.964  0.8325 -0.0781 -0.3732
  453MOL0     C61035   5.040   2.433   7.906  0.5757 -0.2692  0.1974
  453MOL0     C61036   4.937   2.382   8.005 -0.2246 -0.8482  0.3723
  453MOL0     N61037   4.987   2.291   8.106  0.2470  0.0166 -0.3214
  453MOL0     C61038   4.935   2.281   8.231  0.4378  0.5164 -0.3366
  453MOL0     C61039   4.973   2.155   8.267 -0.0281 -0.1381  0.4470
  453MOL0     C61040   4.938   2.062   8.391  0.2191  0.1171 -0.4095
  453MOL0     C61041   4.801   2.084   8.451  1.0700 -0.4645  0.2179
  453MOL0     C61042   4.724   1.963   8.501  0.6856  0.2432 -0.4003
  453MOL0     C61043   4.790   1.902   8.612  0.0790 -0.2625  0.0308
  453MOL0     O61044   4.730   1.773   8.627 -0.3694 -0.3152  0.2527
  453MOL0     C61045   4.805   1.670   8.578  0.4707 -0.0160 -0.0791
  453MOL0     C61046   4.747   1.599   8.468  1.0394  0.1473 -0.3945
  453MOL0     C61047   4.821   1.496   8.411  0.1994 -0.3101  1.0525
  453MOL0     C61048   4.946   1.450   8.464  0.8632  0.6057 -0.3504
  453MOL0     C61049   5.022   1.329   8.418  1.2251 -0.2858 -0.0187
  453MOL0     O61050   4.957   1.245   8.325 -0.1570 -0.4268 -0.4776
  453MOL0     C61051   5.009   1.132   8.259 -0.7070 -0.2168  0.2290
  453MOL0     C61052   5.143   1.085   8.264  0.3198 -0.2132 -0.4905
  453MOL0     C61053   5.174   0.971   8.187 -0.1659  0.3692 -0.7057
  453MOL0     C61054   5.090   0.895   8.107  0.6356  0.1209  0.0271
  453MOL0     O61055   5.120   0.786   8.019  0.4823  0.8022 -0.0571
  453MOL0     C61056   5.221   0.691   8.061  0.0464 -0.4748 -0.8609
  453MOL0     C61057   5.249   0.605   7.938  0.2501 -0.1339 -0.5629
  453MOL0     C61058   5.308   0.470   7.990  0.7569 -0.4548 -0.3650
  453MOL0     C61059   5.191   0.365   8.017  0.0671  0.9645  0.8698
  453MOL0     C61060   5.238   0.250   8.114 -0.2657  0.6510 -0.1891
  453MOL0     C61061   5.332   0.151   8.042  0.4048  0.4436  0.2331
  453MOL0     C61062   5.425   0.065   8.138  0.2352 -1.0891  1.0926
  453MOL0     C61063   5.432  -0.086   8.119 -0.3565  0.3471 -0.2338
  453MOL0    Cl61064   5.450  -0.132   7.959  0.0036 -0.8268 -0.2930
  453MOL0     C61065   4.955   0.938   8.111 -0.6124 -0.0994 -0.0845
  453MOL0     C61066   4.916   1.050   8.195 -0.7538 -1.0285 -0.1049
  453MOL0     O61067   5.135   1.329   8.452 -0.0586 -0.2960 -0.3520
  453MOL0     C61068   4.996   1.527   8.569 -0.8268 -0.4991 -0.3441
  453MOL0     C61069   4.929   1.638   8.622  0.7166  0.0163  0.1486
  453MOL0     N61070   5.050   2.099   8.172 -0.3272 -0.5837 -0.1354
  453MOL0     N61071   5.070   2.186   8.077  0.2379 -0.0540  0.6935
  453MOL0     C61072   5.295   2.248   8.708 -0.5022 -0.6642  0.3197
  453MOL0     C61073   5.270   2.162   8.810 -0.1539 -0.1932 -0.1410
  453MOL0     C61074   5.030   1.920   9.140  0.6350 -0.4026 -0.4917
  453MOL0     C61075   4.992   1.808   9.064 -0.5210 -0.0307 -0.1435
  453MOL0     C61076   4.955   1.690   9.125 -0.0961  0.2147 -0.5835
  453MOL0     C61077   4.955   1.678   9.266  0.0398 -0.2943  0.6083
  453MOL0     O61078   4.924   1.556   9.316  0.7812 -1.1643  0.5115
  453MOL0     C61079   4.867   1.544   9.446 -0.3470  0.4821  0.1714
  453MOL0     C61080   4.859   1.402   9.502  0.3628  0.1561 -0.3831
  453MOL0     C61081   4.996   1.351   9.551 -0.1307  0.6988  0.0971
  453MOL0     C61082   5.084   1.291   9.439  0.9530 -0.0581 -0.9370
  453MOL0     C61083   5.211   1.228   9.480  0.1089  0.4205  0.7054
  453MOL0     C61084   5.317   1.182   9.510  0.6549  0.2947 -0.0658
  453MOL0     C61085   4.987   1.786   9.339 -0.6668  0.2553 -0.7052
  453MOL0     C61086   5.019   1.913   9.281  0.4908 -0.1313 -0.5979
  453MOL0     C61087   5.046   2.044   9.365  0.7955 -0.1701 -0.4222
  453MOL0     H61088   4.932   2.161   8.824  0.8050  0.2164  0.3636
  453MOL0     H61089   4.974   2.351   8.648 -0.3987  2.6740  4.3236
  453MOL0     H61090   5.036   2.458   8.472 -0.6582  0.6381  0.2499
  453MOL0     H61091   5.107   2.555   8.598 -2.4080 -0.9752 -0.3644
  453MOL0     H61092   5.290   2.623   8.455 -1.5316  1.6236  1.1460
  453MOL0     H61093   5.127   2.684   8.413 -2.1539 -1.4065  1.9790
  453MOL0     H61094   5.115   2.489   8.235  0.3814  0.0692 -1.5467
  453MOL0     H61095   5.278   2.456   8.287 -0.5274  0.1201 -1.5847
  453MOL0     H61096   5.235   2.742   8.206 -0.4850  0.8680 -0.7763
  453MOL0     H61097   5.357   2.623   8.154 -0.1757 -0.8474  0.6557
  453MOL0     H61098   5.060   2.641   8.064  0.3841  0.1524  2.1377
  453MOL0     H61099   5.200   2.705   7.968 -0.2156 -1.7808 -0.7159
  453MOL0     H61100   5.247   2.483   7.894  0.9068  2.2879 -0.6762
  453MOL0     H61101   5.200   2.417   8.035  3.1646 -1.7169 -3.0879
  453MOL0     H61102   5.082   2.351   7.848  2.5865 -1.3797  2.9910
  453MOL0     H61103   4.994   2.507   7.840  0.0090  0.2084  1.1037
  453MOL0     H61104   4.891   2.469   8.052  1.4339 -1.9935  4.6219
  453MOL0     H61105   4.865   2.327   7.944  0.4940  0.5097 -1.8387
  453MOL0     H61106   4.873   2.347   8.291 -1.7033 -0.0596 -1.7662
  453MOL0     H61107   4.941   1.959   8.356  1.9701 -0.0030 -0.0226
  453MOL0     H61108   5.009   2.075   8.473  0.7659 -2.4356 -0.4060
  453MOL0     H61109   4.814   2.147   8.540 -0.6055  1.5011 -0.8280
  453MOL0     H61110   4.737   2.137   8.380  1.4331 -1.3628 -0.8010
  453MOL0     H61111   4.722   1.897   8.414  1.6354 -0.1882 -0.1137
  453MOL0     H61112   4.619   1.985   8.519  0.4111 -0.9074 -0.5228
  453MOL0     H61113   4.781   1.972   8.696  0.0878  0.6969 -0.7546
  453MOL0     H61114   4.898   1.901   8.594  0.2792  1.3663  0.9952
  453MOL0     H61115   4.653   1.631   8.425 -0.6395  0.6118  3.2259
  453MOL0     H61116   4.780   1.436   8.330 -3.8103  0.5320  2.2283
  453MOL0     H61117   5.216   1.148   8.315 -1.7801  1.1082  1.0456
  453MOL0     H61118   5.276   0.936   8.199 -0.0833  1.4544  3.7695
  453MOL0     H61119   5.310   0.750   8.086  0.9537 -2.0378 -0.2784
  453MOL0     H61120   5.176   0.638   8.145  0.4216  2.5043  1.4167
  453MOL0     H61121   5.151   0.601   7.889 -1.6681  0.1032  2.9291
  453MOL0     H61122   5.319   0.665   7.878 -1.9926  3.5296  0.1831
  453MOL0     H61123   5.377   0.431   7.915  2.3011  0.6624  0.4232
  453MOL0     H61124   5.363   0.482   8.084 -0.5264  1.0613  0.2395
  453MOL0     H61125   5.159   0.329   7.919  3.0055  3.7163 -1.2852
  453MOL0     H61126   5.110   0.414   8.072 -1.9176 -2.5725  1.4324
  453MOL0     H61127   5.144   0.194   8.122  1.3707 -2.0442  1.9683
  453MOL0     H61128   5.270   0.287   8.212  0.8960  3.0652 -1.3877
  453MOL0     H61129   5.263   0.083   7.992 -0.3001  2.1770 -1.2980
  453MOL0     H61130   5.399   0.206   7.974  1.9413 -0.5656  0.8784
  453MOL0     H61131   5.402   0.081   8.243  1.1574 -1.9226  1.4357
  453MOL0     H61132   5.524   0.108   8.119  0.1444  0.0705  2.9539
  453MOL0     H61133   5.528  -0.121   8.158 -0.1448 -0.5606 -1.5013
  453MOL0     H61134   5.343  -0.135   8.161  1.0994 -1.4177  0.9726
  453MOL0     H61135   4.878   0.893   8.050 -2.1522  1.6970  0.4331
  453MOL0     H61136   4.812   1.080   8.207 -0.8047 -0.7424 -1.2255
  453MOL0     H61137   5.093   1.502   8.610 -2.3493 -1.8414  2.7248
  453MOL0     H61138   4.981   1.686   8.704  2.4387  1.3168 -1.6145
  453MOL0     H61139   5.391   2.293   8.684 -1.3163  0.9589 -0.0808
  453MOL0     H61140   5.347   2.095   8.847 -0.8826 -0.6016  0.6999
  453MOL0     H61141   5.005   1.811   8.956 -0.5012  1.0968 -0.1274
  453MOL0     H61142   4.919   1.609   9.064 -0.5747  0.5843 -0.7981
  453MOL0     H61143   4.771   1.593   9.461  0.4122  1.3585  2.7479
  453MOL0     H61144   4.941   1.596   9.508  1.5195  0.3313 -1.8101
  453MOL0     H61145   4.796   1.338   9.440 -0.7319  1.9900 -1.2407
  453MOL0     H61146   4.787   1.413   9.583  0.6725 -5.4381  1.0481
  453MOL0     H61147   4.975   1.268   9.620 -1.1998 -0.8894 -2.0328
  453MOL0     H61148   5.045   1.435   9.602 -4.3783  2.6547  1.4046
  453MOL0     H61149   5.024   1.209   9.398 -0.5473  0.8975 -0.7435
  453MOL0     H61150   5.113   1.362   9.360  2.6804 -0.9916 -1.1862
  453MOL0     H61151   5.406   1.136   9.547  0.6778  0.3181 -0.0919
  453MOL0     H61152   4.981   1.780   9.447 -1.0980  1.4505 -0.6539
  453MOL0     H61153   4.977   2.126   9.342 -1.6872 -1.8354  0.5654
  453MOL0     H61154   5.045   2.031   9.474  1.7514 -2.9860 -0.6728
  453MOL0     H61155   5.142   2.092   9.347  1.1300 -0.7856 -0.2869
  454MOL0     O61156   7.492   3.449   2.934 -0.6201  0.5235  0.2317
  454MOL0     C61157   7.596   3.487   2.881  0.0065 -0.1155  0.6933
  454MOL0     O61158   7.721   3.463   2.925 -0.1613  0.1821  1.4609
  454MOL0     C61159   7.733   3.379   3.035 -0.3045  0.0720  0.3853
  454MOL0     C61160   7.750   3.439   3.157 -0.3035 -0.1852 -0.3099
  454MOL0     C61161   7.774   3.353   3.267  0.9231 -0.4362 -0.3702
  454MOL0     C61162   7.759   3.212   3.253  0.0946  0.9504 -0.3833
  454MOL0     O61163   7.782   3.136   3.369 -0.2411 -1.0033 -0.1394
  454MOL0     C61164   7.712   3.011   3.380  0.1022 -0.1295 -0.5115
  454MOL0     C61165   7.741   2.963   3.524  0.2939 -0.1379  0.2134
  454MOL0     C61166   7.885   2.945   3.554 -0.4194 -0.1913  0.2024
  454MOL0     C61167   7.953   2.823   3.476  0.2264 -0.3590  0.1579
  454MOL0     C61168   8.095   2.821   3.525 -0.3284  1.2452  0.5171
  454MOL0     C61169   8.186   2.729   3.435  1.3447 -0.5277  0.2053
  454MOL0     C61170   8.331   2.755   3.471  0.1530  0.4261 -0.4029
  454MOL0     C61171   8.425   2.690   3.371  0.5746  0.7716  0.5558
  454MOL0     N61172   8.447   2.751   3.238  0.5767  1.2237 -0.1954
  454MOL0     C61173   8.516   2.695   3.137  0.8436 -0.1272 -0.1456
  454MOL0     C61174   8.517   2.795   3.041  0.2509  1.2067  1.0034
  454MOL0     C61175   8.587   2.785   2.914 -1.0680 -0.8510 -0.0429
  454MOL0     C61176   8.709   2.886   2.916 -0.4707 -0.7576  0.8625
  454MOL0     C61177   8.770   2.881   2.764  0.3016 -0.3840 -0.6530
  454MOL0     C61178   8.903   2.952   2.738 -0.3894  1.0896  1.2665
  454MOL0     O61179   9.006   2.878   2.812 -0.3163 -0.1321  0.6046
  454MOL0     C61180   9.110   2.825   2.738  0.1985  0.9952 -0.4439
  454MOL0     C61181   9.174   2.879   2.628 -0.2342  0.3587 -0.1637
  454MOL0     C61182   9.288   2.815   2.583 -0.3719  0.4609  0.2491
  454MOL0     C61183   9.347   2.696   2.633  0.2559 -0.1853 -0.0246
  454MOL0     C61184   9.482   2.646   2.574 -0.7290 -0.4296  0.3197
  454MOL0     O61185   9.526   2.712   2.455 -0.2242 -0.8233  0.1672
  454MOL0     C61186   9.652   2.674   2.396  0.3605 -0.9198 -0.5629
  454MOL0     C61187   9.740   2.775   2.365  0.2391  1.1280  0.0446
  454MOL0     C61188   9.863   2.745   2.326  0.0862  0.2669 -0.1273
  454MOL0     C61189   9.910   2.620   2.302 -0.8767 -0.0930  0.1489
  454MOL0     O61190  10.038   2.614   2.261 -0.8801 -0.6271 -0.1615
  454MOL0     C61191  10.103   2.485   2.289 -0.8403  0.0276  1.0436
  454MOL0     C61192  10.245   2.495   2.228 -0.4894 -0.6662  0.2771
  454MOL0     C61193  10.340   2.418   2.325 -0.4337 -0.3064  0.0045
  454MOL0     C61194  10.483   2.415   2.268  0.3202 -0.0420  0.0648
  454MOL0     C61195  10.573   2.337   2.360 -0.0494 -0.9566  0.5092
  454MOL0     C61196  10.679   2.266   2.279  0.6506  0.7887  0.3449
  454MOL0     C61197  10.779   2.355   2.202  0.1167 -0.0198  0.8905
  454MOL0     C61198  10.917   2.302   2.208  0.8847 -0.7821  1.0666
  454MOL0    Cl61199  10.970   2.278   2.381  0.2524 -0.1440 -0.1207
  454MOL0     C61200   9.820   2.519   2.320  0.1000  0.8141  0.0403
  454MOL0     C61201   9.691   2.540   2.379  0.3306  0.2363  0.3182
  454MOL0     O61202   9.542   2.556   2.628 -0.8071  0.5519 -0.0787
  454MOL0     C61203   9.274   2.638   2.739 -0.2564 -0.8375 -0.6720
  454MOL0     C61204   9.158   2.703   2.794  0.5334  0.6439  0.1438
  454MOL0     N61205   8.444   2.902   3.084  0.5320 -0.1369 -0.3411
  454MOL0     N61206   8.409   2.873   3.207 -0.3390 -0.3548 -1.0877
  454MOL0     C61207   7.741   3.157   3.129 -0.0813 -0.3558  0.5435
  454MOL0     C61208   7.738   3.237   3.017 -0.2682 -1.8556  0.8508
  454MOL0     C61209   7.599   3.581   2.767  0.3069  0.2549  0.8197
  454MOL0     C61210   7.728   3.635   2.723 -0.7998 -0.5225 -0.0509
  454MOL0     C61211   7.734   3.713   2.603  0.1226  0.1652 -0.3677
  454MOL0     C61212   7.615   3.750   2.532  0.4095 -0.3434  0.1959
  454MOL0     O61213   7.615   3.830   2.419 -0.2166 -0.2914 -0.5656
  454MOL0     C61214   7.585   3.763   2.292 -0.0413  0.0082 -0.4718
  454MOL0     C61215   7.708   3.774   2.192 -0.2604  0.4296 -0.1267
  454MOL0     C61216   7.853   3.753   2.257 -0.1462 -0.3501  0.4465
  454MOL0     C61217   7.964   3.769   2.162 -0.0504 -0.1936  0.8068
  454MOL0     C61218   7.954   3.663   2.063 -0.4198  0.2529 -0.2220
  454MOL0     C61219   7.973   3.562   1.988 -0.4370  0.3729  0.0848
  454MOL0     C61220   7.494   3.712   2.590 -0.5720  0.1921  0.4295
  454MOL0     C61221   7.487   3.633   2.701  0.2043 -0.2047 -0.5508
  454MOL0     C61222   7.344   3.607   2.762  0.8521 -0.7575 -0.1910
  454MOL0     H61223   7.745   3.547   3.152  4.4936  0.1954 -1.9334
  454MOL0     H61224   7.810   3.392   3.362 -0.5374  0.7761 -0.2701
  454MOL0     H61225   7.604   3.031   3.382  0.1075  0.0407  1.7964
  454MOL0     H61226   7.743   2.939   3.304  3.6041 -0.3364  0.9417
  454MOL0     H61227   7.679   2.874   3.537  1.1306 -1.1755 -2.3967
  454MOL0     H61228   7.701   3.039   3.592 -1.4104  1.5464 -2.4969
  454MOL0     H61229   7.891   2.919   3.661  0.1084  1.7164  0.6690
  454MOL0     H61230   7.949   3.032   3.538  1.6319 -1.1894  2.3659
  454MOL0     H61231   7.922   2.720   3.492  2.8217 -2.2816 -4.8214
  454MOL0     H61232   7.944   2.842   3.369 -0.5552 -0.2208  0.2489
  454MOL0     H61233   8.145   2.917   3.539 -1.0926  1.4793  1.7492
  454MOL0     H61234   8.090   2.782   3.627  2.4690 -0.2425  0.1778
  454MOL0     H61235   8.150   2.629   3.459 -0.1205  0.9043  5.2593
  454MOL0     H61236   8.161   2.762   3.334  2.6720  4.1272  1.1434
  454MOL0     H61237   8.349   2.691   3.558 -0.7813 -4.6645 -3.5268
  454MOL0     H61238   8.352   2.861   3.486 -2.8459  1.0196  0.1972
  454MOL0     H61239   8.524   2.658   3.405 -0.8215 -3.1681  1.4466
  454MOL0     H61240   8.368   2.598   3.357 -0.7482  1.2977  2.1248
  454MOL0     H61241   8.559   2.596   3.140  0.7302 -0.1649  0.1992
  454MOL0     H61242   8.626   2.687   2.886  0.7929  0.3331 -1.8746
  454MOL0     H61243   8.530   2.813   2.825  1.7012 -0.2791 -1.7682
  454MOL0     H61244   8.685   2.987   2.950  3.0088  0.7979 -0.8680
  454MOL0     H61245   8.788   2.832   2.969  1.2445  1.5971  0.8108
  454MOL0     H61246   8.695   2.924   2.696  2.0669  0.1573 -2.3350
  454MOL0     H61247   8.786   2.776   2.737  0.3916 -0.7115  0.6117
  454MOL0     H61248   8.895   3.054   2.776  1.7245  1.7576  0.0509
  454MOL0     H61249   8.929   2.971   2.634 -0.4344 -0.4084  0.9509
  454MOL0     H61250   9.142   2.963   2.568 -1.1717 -0.6012 -1.0252
  454MOL0     H61251   9.333   2.869   2.500 -0.7814  0.6564  0.1530
  454MOL0     H61252   9.720   2.878   2.393 -0.1362  0.5059  2.2156
  454MOL0     H61253   9.931   2.829   2.314 -0.2883  0.6750  0.4975
  454MOL0     H61254  10.107   2.483   2.398 -2.4646  0.3123  1.1213
  454MOL0     H61255  10.042   2.401   2.256 -2.9898  0.4999  3.5732
  454MOL0     H61256  10.266   2.445   2.133 -2.2800 -3.2029  1.1163
  454MOL0     H61257  10.278   2.599   2.223 -1.8874 -0.2350 -0.7588
  454MOL0     H61258  10.336   2.452   2.429 -3.3241 -2.6231  0.7800
  454MOL0     H61259  10.313   2.312   2.329 -0.3043 -0.3319  0.1972
  454MOL0     H61260  10.517   2.517   2.248  1.6865 -0.4809  0.0647
  454MOL0     H61261  10.468   2.365   2.172  1.0703 -3.9013  1.7565
  454MOL0     H61262  10.520   2.267   2.426 -1.4715  0.8699  1.4127
  454MOL0     H61263  10.614   2.413   2.426  3.3447 -3.7262  1.8896
  454MOL0     H61264  10.723   2.184   2.336  3.5478  2.6450  0.9617
  454MOL0     H61265  10.608   2.221   2.208  0.3452  0.2387  0.9901
  454MOL0     H61266  10.774   2.460   2.235  1.1792 -0.0607  1.2179
  454MOL0     H61267  10.742   2.355   2.099 -4.6792  2.2612  2.3044
  454MOL0     H61268  10.930   2.209   2.152  0.6321  0.5470 -1.3036
  454MOL0     H61269  10.967   2.386   2.159 -1.3938  0.0485  0.0144
  454MOL0     H61270   9.842   2.413   2.316 -0.7265  0.4689  2.6789
  454MOL0     H61271   9.628   2.459   2.416 -0.7550  0.3405 -1.1811
  454MOL0     H61272   9.304   2.545   2.785  0.0150 -1.0038 -1.1819
  454MOL0     H61273   9.113   2.658   2.882 -4.9908  3.1125 -0.9932
  454MOL0     H61274   7.735   3.051   3.108  2.5587 -0.2814 -1.0853
  454MOL0     H61275   7.719   3.201   2.916 -2.3951  1.7167 -0.1957
  454MOL0     H61276   7.822   3.613   2.771 -1.3311 -1.7048  0.4784
  454MOL0     H61277   7.838   3.740   2.590  1.0236 -1.9135  1.9732
  454MOL0     H61278   7.493   3.803   2.249 -0.0435  3.4013  2.2629
  454MOL0     H61279   7.562   3.658   2.313  0.1477  0.2253  0.9704
  454MOL0     H61280   7.698   3.864   2.131 -0.3134  0.3265 -0.2709
  454MOL0     H61281   7.696   3.691   2.121 -1.6851 -0.5590  1.2027
  454MOL0     H61282   7.869   3.655   2.303  2.5477  0.1500  0.7425
  454MOL0     H61283   7.865   3.834   2.329 -0.3313  0.1217 -0.0501
  454MOL0     H61284   7.950   3.867   2.116 -0.1189 -0.0851  1.0545
  454MOL0     H61285   8.058   3.764   2.217 -0.0886 -0.0239  0.8885
  454MOL0     H61286   8.000   3.488   1.916 -2.5155 -0.3271 -0.0647
  454MOL0     H61287   7.406   3.735   2.531  0.2605 -3.4508 -2.6464
  454MOL0     H61288   7.352   3.631   2.869  1.3424 -0.6430 -0.2501
  454MOL0     H61289   7.271   3.678   2.722 -1.3519 -4.5892 -3.6228
  454MOL0     H61290   7.319   3.501   2.751  0.2496 -0.4286 -2.3885
  455MOL0     O61291   3.084   9.020   4.787  0.0163  0.7269 -1.0833
  455MOL0     C61292   2.980   8.946   4.802  0.0516 -0.9904  0.0841
  455MOL0     O61293   2.976   8.808   4.786  0.6787 -0.1423  0.0098
  455MOL0     C61294   3.098   8.744   4.764 -0.5015 -0.2416  0.9115
  455MOL0     C61295   3.130   8.631   4.848  0.5674  0.2658  0.0680
  455MOL0     C61296   3.240   8.547   4.819 -0.5720 -0.7165  0.3041
  455MOL0     C61297   3.316   8.564   4.698 -0.2736  0.1755 -0.3108
  455MOL0     O61298   3.425   8.472   4.688  0.1569 -0.0082  0.6217
  455MOL0     C61299   3.538   8.501   4.601 -0.0168 -1.0698  0.2877
  455MOL0     C61300   3.651   8.400   4.603 -0.3688 -0.4646 -0.7631
  455MOL0     C61301   3.740   8.406   4.741  0.2725 -0.7105  0.2377
  455MOL0     C61302   3.659   8.340   4.859  0.4557 -0.6631  0.2404
  455MOL0     C61303   3.753   8.242   4.948  0.0990  0.4578  1.0966
  455MOL0     C61304   3.795   8.113   4.870 -0.1528  0.4231 -0.6493
  455MOL0     C61305   3.871   8.011   4.973  0.3728 -0.6567  0.4763
  455MOL0     C61306   3.885   7.868   4.913  0.1165  0.7300  0.0040
  455MOL0     N61307   3.976   7.775   4.992  0.8496 -0.5818  0.3790
  455MOL0     C61308   3.937   7.685   5.095 -0.3249 -0.4215 -0.0061
  455MOL0     C61309   4.045   7.616   5.135  0.4171  0.3787  0.3732
  455MOL0     C61310   4.058   7.487   5.208  0.7162  0.6989  0.2112
  455MOL0     C61311   4.016   7.363   5.120  0.2878 -0.1807 -0.7680
  455MOL0     C61312   4.077   7.342   4.982 -0.6206  0.3216  0.3541
  455MOL0     C61313   4.038   7.203   4.916 -0.4755 -0.0721  0.8673
  455MOL0     O61314   4.141   7.113   4.921 -0.3348 -0.2590 -0.1573
  455MOL0     C61315   4.190   7.043   4.819 -0.8272  0.0543  0.1475
  455MOL0     C61316   4.322   6.986   4.824 -0.9699 -0.6594 -0.8798
  455MOL0     C61317   4.376   6.920   4.718 -0.0035  0.4372  0.1132
  455MOL0     C61318   4.292   6.892   4.606 -0.8430 -0.5625 -0.3320
  455MOL0     C61319   4.361   6.840   4.478  0.8847  0.5298 -0.8200
  455MOL0     O61320   4.279   6.842   4.366 -0.0377  0.3452  0.3599
  455MOL0     C61321   4.334   6.872   4.242  0.3466 -0.8656 -0.0662
  455MOL0     C61322   4.276   6.802   4.130 -0.1067 -0.6658 -0.1762
  455MOL0     C61323   4.317   6.820   4.000 -0.2987  0.4872 -0.8104
  455MOL0     C61324   4.437   6.897   3.984 -0.3958  0.7406  0.1107
  455MOL0     O61325   4.494   6.913   3.863  0.7916  1.2600 -0.6654
  455MOL0     C61326   4.514   6.787   3.785  0.6277 -0.0324 -0.8985
  455MOL0     C61327   4.635   6.793   3.688 -0.1130 -0.3047 -0.1196
  455MOL0     C61328   4.757   6.812   3.780  0.9158  0.0022  0.8861
  455MOL0     C61329   4.890   6.797   3.701 -0.1560  0.5664  1.0145
  455MOL0     C61330   4.918   6.925   3.618 -0.0174  0.2587 -0.3152
  455MOL0     C61331   5.064   6.902   3.563  0.2314  0.2719 -0.9462
  455MOL0     C61332   5.099   7.024   3.476  0.3632 -0.5958 -0.5361
  455MOL0     C61333   5.184   6.986   3.358  0.6225 -0.3796  1.3279
  455MOL0    Cl61334   5.327   6.901   3.418  0.3101 -0.2484 -0.2295
  455MOL0     C61335   4.505   6.946   4.096 -1.3881 -0.2219 -0.4049
  455MOL0     C61336   4.450   6.945   4.226  0.3282  0.2621  0.2200
  455MOL0     O61337   4.480   6.795   4.487 -0.1354  0.0561 -0.4301
  455MOL0     C61338   4.161   6.935   4.603  0.2161  0.5072  0.6016
  455MOL0     C61339   4.115   7.007   4.702 -1.0412 -0.5820 -0.6200
  455MOL0     N61340   4.154   7.672   5.074  0.1895 -0.6146 -0.5859
  455MOL0     N61341   4.116   7.767   4.991  0.7103 -0.3448  0.6277
  455MOL0     C61342   3.282   8.671   4.618 -0.1735  0.7869  0.4456
  455MOL0     C61343   3.172   8.759   4.645 -0.2464 -0.6792 -0.2606
  455MOL0     C61344   2.860   9.020   4.854 -0.1524  0.0718 -0.4573
  455MOL0     C61345   2.860   9.161   4.841 -1.3993  0.1386  0.5168
  455MOL0     C61346   2.753   9.238   4.890  0.5673  0.4118 -0.2340
  455MOL0     C61347   2.644   9.175   4.944  0.7297  0.0812 -0.0582
  455MOL0     O61348   2.533   9.255   4.985 -0.1383  0.4427 -0.0193
  455MOL0     C61349   2.415   9.190   5.037 -0.0175 -0.5155  1.2406
  455MOL0     C61350   2.297   9.294   5.028  0.2791  0.5200  0.3916
  455MOL0     C61351   2.308   9.404   5.141 -0.2970 -0.1659 -0.6201
  455MOL0     C61352   2.198   9.502   5.148 -0.9959 -0.7502  0.2350
  455MOL0     C61353   2.160   9.541   5.011 -0.2858 -0.8892 -0.2042
  455MOL0     C61354   2.130   9.556   4.890  0.1618 -0.1705  0.3008
  455MOL0     C61355   2.646   9.033   4.969 -0.0757 -0.4930 -0.2160
  455MOL0     C61356   2.754   8.952   4.923  0.0752  0.7410 -0.5579
  455MOL0     C61357   2.750   8.802   4.957  0.0913 -0.0965  0.9903
  455MOL0     H61358   3.055   8.629   4.927  0.5354  0.8267  0.0576
  455MOL0     H61359   3.264   8.467   4.889  0.0476  0.6626  1.7334
  455MOL0     H61360   3.505   8.521   4.499 -0.4090 -0.6321  0.4946
  455MOL0     H61361   3.578   8.593   4.645  3.7560 -1.3533 -2.0847
  455MOL0     H61362   3.722   8.425   4.523  0.8116  0.8475  0.6196
  455MOL0     H61363   3.617   8.302   4.570  1.6662 -2.2657  2.0301
  455MOL0     H61364   3.771   8.510   4.756 -2.1247  0.7395 -3.4007
  455MOL0     H61365   3.826   8.340   4.730 -0.7199 -2.5824  2.7340
  455MOL0     H61366   3.631   8.423   4.926 -3.2267  0.3561 -2.2532
  455MOL0     H61367   3.565   8.298   4.822  0.0690  0.7833 -0.5086
  455MOL0     H61368   3.841   8.289   4.994  1.6165 -0.3431 -0.8294
  455MOL0     H61369   3.705   8.195   5.034  0.6086 -1.8777  0.1656
  455MOL0     H61370   3.695   8.076   4.847 -1.4066  1.6798  2.2469
  455MOL0     H61371   3.857   8.126   4.781  1.5641  0.1378  0.4475
  455MOL0     H61372   3.813   7.996   5.065  0.1549 -2.4120  0.0876
  455MOL0     H61373   3.968   8.058   4.989 -1.3913  3.5248  0.0144
  455MOL0     H61374   3.786   7.822   4.916 -1.0433  3.0857  2.6492
  455MOL0     H61375   3.930   7.868   4.814  0.8717 -0.0134  0.3330
  455MOL0     H61376   3.834   7.658   5.113 -1.0707  2.5893  0.6846
  455MOL0     H61377   4.163   7.464   5.228  0.6871  0.9103  0.6093
  455MOL0     H61378   3.988   7.490   5.292  0.0634 -0.7110 -0.2360
  455MOL0     H61379   4.034   7.278   5.186  3.2532  1.2751  0.4879
  455MOL0     H61380   3.906   7.366   5.117  0.1728  0.7866  2.0893
  455MOL0     H61381   4.186   7.351   4.989 -0.6235  1.1572 -0.4109
  455MOL0     H61382   4.040   7.418   4.913  0.3086  2.0626  1.7049
  455MOL0     H61383   4.004   7.234   4.816 -0.9198 -0.8500  0.7756
  455MOL0     H61384   3.950   7.164   4.966 -0.2641 -1.8463 -0.0875
  455MOL0     H61385   4.377   6.982   4.918 -1.4993 -2.2128 -0.6079
  455MOL0     H61386   4.475   6.876   4.730 -0.7697 -1.0606  1.3823
  455MOL0     H61387   4.193   6.734   4.145 -0.6131 -0.1318 -0.5438
  455MOL0     H61388   4.254   6.784   3.918  0.8556 -1.7466 -0.7847
  455MOL0     H61389   4.525   6.700   3.851  0.0039 -0.5387 -1.4504
  455MOL0     H61390   4.434   6.783   3.711  2.3845  1.1918 -2.9759
  455MOL0     H61391   4.630   6.702   3.627 -1.5990 -0.6022  0.4004
  455MOL0     H61392   4.626   6.885   3.630 -0.9407  0.2096  0.8163
  455MOL0     H61393   4.745   6.916   3.809 -1.3920  0.0642 -0.1017
  455MOL0     H61394   4.764   6.751   3.871  0.1828 -1.0918  0.2414
  455MOL0     H61395   4.887   6.706   3.640 -0.2226 -0.7045  2.8011
  455MOL0     H61396   4.976   6.777   3.766  0.0691 -2.0162  0.0657
  455MOL0     H61397   4.910   7.018   3.675 -0.6991 -1.0212  1.8036
  455MOL0     H61398   4.847   6.933   3.536 -0.5343 -0.8197  0.0051
  455MOL0     H61399   5.131   6.884   3.647 -2.4838 -0.2687  1.2417
  455MOL0     H61400   5.071   6.819   3.492 -1.5281 -1.4127  0.7218
  455MOL0     H61401   5.162   7.092   3.534  3.0222 -2.8550 -0.5655
  455MOL0     H61402   5.009   7.078   3.446 -1.5192 -3.7098 -0.9389
  455MOL0     H61403   5.121   6.926   3.292  1.4049 -2.4821  2.4007
  455MOL0     H61404   5.218   7.073   3.302  2.9936 -0.8850  1.8464
  455MOL0     H61405   4.595   7.000   4.069 -1.4560  0.6009  0.9420
  455MOL0     H61406   4.499   7.002   4.304  0.0393  1.7712 -0.6603
  455MOL0     H61407   4.090   6.932   4.521  2.2558  1.4873 -1.3286
  455MOL0     H61408   4.010   7.033   4.705 -0.8462  0.3628  3.5490
  455MOL0     H61409   3.341   8.664   4.527 -1.1972  0.1040 -0.1901
  455MOL0     H61410   3.139   8.846   4.589  0.0141 -0.3513  0.0833
  455MOL0     H61411   2.947   9.209   4.796 -0.7273 -1.1924  0.3617
  455MOL0     H61412   2.747   9.341   4.854  4.5498  1.5646  1.7913
  455MOL0     H61413   2.433   9.142   5.134  1.9649 -4.0228 -0.6406
  455MOL0     H61414   2.382   9.102   4.979 -1.3945  1.0578 -0.5071
  455MOL0     H61415   2.198   9.247   5.035 -0.7477  2.3695 -0.8359
  455MOL0     H61416   2.307   9.329   4.925  0.2586 -2.2535 -0.6419
  455MOL0     H61417   2.397   9.461   5.113  0.2080 -0.2738  0.6868
  455MOL0     H61418   2.322   9.350   5.235  1.8365  3.4046  1.3364
  455MOL0     H61419   2.101   9.466   5.185 -1.4444  0.8188  0.6403
  455MOL0     H61420   2.231   9.594   5.196 -1.4464 -1.2347  1.5297
  455MOL0     H61421   2.080   9.558   4.795 -0.9359  2.6817  0.8450
  455MOL0     H61422   2.560   8.990   5.019 -2.0897  0.7482 -2.4151
  455MOL0     H61423   2.730   8.763   4.856  1.2914  1.5078  0.0851
  455MOL0     H61424   2.850   8.773   4.988  1.4345  2.9040 -0.0623
  455MOL0     H61425   2.670   8.761   5.018 -0.3425 -1.9810 -0.7271
  456MOL0     O61426   0.269  10.740   6.768  0.2078  0.3484 -0.7123
  456MOL0     C61427   0.381  10.707   6.736  0.0379 -0.5666 -0.0156
  456MOL0     O61428   0.459  10.764   6.635  0.0610 -0.2081 -0.7061
  456MOL0     C61429   0.410  10.856   6.550 -0.4112  1.2587  0.6606
  456MOL0     C61430   0.450  10.832   6.413 -0.2570  0.6242 -0.3756
  456MOL0     C61431   0.420  10.930   6.314 -0.2559 -0.5634 -0.6233
  456MOL0     C61432   0.329  11.031   6.334 -0.2736  0.6944 -0.2753
  456MOL0     O61433   0.307  11.115   6.225  0.0205  0.3432  0.4125
  456MOL0     C61434   0.222  11.227   6.237 -0.5362  0.9075 -0.2795
  456MOL0     C61435   0.241  11.314   6.120  0.0431 -0.3114 -0.4142
  456MOL0     C61436   0.230  11.243   5.987  0.4922 -0.4237 -0.2943
  456MOL0     C61437   0.208  11.329   5.863 -0.3097 -0.9523 -1.0892
  456MOL0     C61438   0.208  11.241   5.745  0.1720 -0.2865 -0.5354
  456MOL0     C61439   0.117  11.304   5.635  0.5116 -0.0321 -0.3430
  456MOL0     C61440   0.128  11.228   5.505  0.5049 -0.6413  0.3756
  456MOL0     C61441   0.066  11.305   5.392 -0.2177  0.4031  0.0908
  456MOL0     N61442   0.148  11.419   5.344 -0.2045  0.8319  0.2967
  456MOL0     C61443   0.278  11.405   5.296 -0.1099 -0.0465 -0.9192
  456MOL0     C61444   0.308  11.539   5.258  0.1305 -0.0235  0.4364
  456MOL0     C61445   0.428  11.600   5.184  0.0798  0.3744 -0.0262
  456MOL0     C61446   0.395  11.605   5.038  0.1216  0.0263  0.4779
  456MOL0     C61447   0.505  11.648   4.943  0.4210  1.2904 -0.0655
  456MOL0     C61448   0.576  11.784   4.971  0.3115  0.5570  0.5157
  456MOL0     O61449   0.626  11.828   4.836  0.5950 -0.4308 -0.2392
  456MOL0     C61450   0.750  11.881   4.828  0.8489 -0.3452 -0.0295
  456MOL0     C61451   0.847  11.836   4.734 -0.3794 -0.3162  0.4911
  456MOL0     C61452   0.965  11.911   4.704 -0.2115 -0.3250  0.1506
  456MOL0     C61453   0.991  12.030   4.782 -0.2885  0.0361  0.2937
  456MOL0     C61454   1.119  12.095   4.769  0.5372  0.6107  0.2572
  456MOL0     O61455   1.205  12.047   4.686  0.2456  0.4495  0.8708
  456MOL0     C61456   1.333  12.111   4.670  0.2286  0.3820 -0.2081
  456MOL0     C61457   1.342  12.205   4.563  0.2724  0.7716 -0.1169
  456MOL0     C61458   1.451  12.287   4.569 -1.0064 -0.5294 -0.9537
  456MOL0     C61459   1.569  12.269   4.650 -0.8434  0.3619  0.0268
  456MOL0     O61460   1.694  12.332   4.638  0.2860 -0.3469  0.1860
  456MOL0     C61461   1.768  12.364   4.755 -0.4211  0.2608  0.7887
  456MOL0     C61462   1.804  12.516   4.771  0.1521  0.3879 -0.4570
  456MOL0     C61463   1.675  12.585   4.828  0.0405  0.0108  0.0995
  456MOL0     C61464   1.711  12.731   4.829  0.4926  0.3263 -0.3077
  456MOL0     C61465   1.605  12.802   4.921 -0.1091 -0.0742  0.9638
  456MOL0     C61466   1.640  12.949   4.937  0.6366  0.1216  0.2286
  456MOL0     C61467   1.518  13.046   4.989 -1.2843 -0.1924 -0.2574
  456MOL0     C61468   1.500  13.178   4.910 -0.4629  0.6558 -0.5560
  456MOL0    Cl61469   1.380  13.292   4.970 -0.4301  0.2887  0.5279
  456MOL0     C61470   1.565  12.151   4.732  0.0160 -0.0777 -0.0936
  456MOL0     C61471   1.447  12.072   4.736 -0.1961  0.4457 -0.6319
  456MOL0     O61472   1.125  12.204   4.826  0.5088 -0.4705 -0.2117
  456MOL0     C61473   0.887  12.080   4.862  0.0183  0.0996  0.6215
  456MOL0     C61474   0.769  12.012   4.878 -0.1001 -0.0351 -0.0884
  456MOL0     N61475   0.204  11.617   5.311 -0.6800 -0.1329 -0.3110
  456MOL0     N61476   0.119  11.546   5.375  0.6967  0.1768 -0.8262
  456MOL0     C61477   0.294  11.057   6.467  0.6021 -0.2045 -0.0306
  456MOL0     C61478   0.327  10.973   6.571  0.5376  0.4676 -0.4752
  456MOL0     C61479   0.441  10.599   6.830  0.6317 -0.9631  0.0557
  456MOL0     C61480   0.563  10.560   6.785  0.0360  0.4320 -0.5528
  456MOL0     C61481   0.630  10.461   6.863  0.2472 -0.3888 -0.5840
  456MOL0     C61482   0.582  10.400   6.979  0.8262 -0.2157 -0.0049
  456MOL0     O61483   0.633  10.279   7.028  0.3803  0.1780 -0.3177
  456MOL0     C61484   0.755  10.313   7.095 -0.0724  0.2592 -0.2313
  456MOL0     C61485   0.826  10.185   7.139 -0.8777 -0.8190 -0.3018
  456MOL0     C61486   0.755  10.113   7.256  1.0752 -0.6340  0.8042
  456MOL0     C61487   0.769   9.965   7.266 -0.1621 -0.2859  0.3210
  456MOL0     C61488   0.699   9.887   7.155 -0.1874 -1.0136 -0.4143
  456MOL0     C61489   0.648   9.835   7.067  0.4754  1.9010  0.0575
  456MOL0     C61490   0.455  10.445   7.019 -0.6430  0.2886 -0.2646
  456MOL0     C61491   0.389  10.551   6.955 -0.6994  0.2596  0.2170
  456MOL0     C61492   0.276  10.602   7.037 -0.0689  0.4311 -0.5476
  456MOL0     H61493   0.516  10.749   6.393 -1.0938 -0.5170  1.3653
  456MOL0     H61494   0.446  10.914   6.210  0.6134  0.2476 -0.5364
  456MOL0     H61495   0.121  11.185   6.229  0.1232 -0.4807 -1.6726
  456MOL0     H61496   0.238  11.282   6.331 -1.4461 -1.0035  1.0558
  456MOL0     H61497   0.332  11.374   6.124 -2.7899  4.5049 -0.1994
  456MOL0     H61498   0.167  11.395   6.123  0.2005 -0.1363 -1.0318
  456MOL0     H61499   0.136  11.187   5.988 -2.1459  3.5712 -0.6694
  456MOL0     H61500   0.317  11.177   5.979 -0.1883 -2.3628  4.8352
  456MOL0     H61501   0.115  11.383   5.880 -0.0299 -0.8006  0.0272
  456MOL0     H61502   0.285  11.406   5.854 -1.5608  0.3581 -0.9376
  456MOL0     H61503   0.305  11.208   5.705  1.4776  3.2313 -0.5962
  456MOL0     H61504   0.145  11.153   5.766 -0.6791  0.3955 -0.1788
  456MOL0     H61505   0.014  11.308   5.671  0.6984  2.0733  0.1050
  456MOL0     H61506   0.142  11.409   5.618  0.6622  0.3207  1.7577
  456MOL0     H61507   0.079  11.131   5.492 -0.2076 -0.0506 -1.7110
  456MOL0     H61508   0.235  11.222   5.487  1.3233  4.1945  1.9900
  456MOL0     H61509   0.056  11.237   5.307  2.9987 -0.3435  0.1655
  456MOL0     H61510  -0.033  11.332   5.430  1.0818  0.2529  4.0449
  456MOL0     H61511   0.327  11.318   5.255  1.3524  0.8914 -1.2464
  456MOL0     H61512   0.443  11.688   5.247  1.4413 -0.6170  1.1072
  456MOL0     H61513   0.511  11.532   5.206 -2.6786 -2.8616  1.5256
  456MOL0     H61514   0.358  11.510   4.998  0.2771  1.4170 -3.4199
  456MOL0     H61515   0.316  11.680   5.031 -0.8309 -0.9468  0.6285
  456MOL0     H61516   0.451  11.655   4.848  1.7593 -0.6233 -1.0231
  456MOL0     H61517   0.570  11.561   4.931 -2.6443 -0.8033 -3.7776
  456MOL0     H61518   0.658  11.770   5.042  1.2092 -1.2873 -0.7828
  456MOL0     H61519   0.501  11.854   5.008 -1.3119 -0.5197 -0.5626
  456MOL0     H61520   0.835  11.748   4.673  2.2144  1.1582 -2.3987
  456MOL0     H61521   1.033  11.871   4.629 -0.2585  0.3259 -0.2437
  456MOL0     H61522   1.270  12.207   4.482  1.4003  0.8322 -1.1302
  456MOL0     H61523   1.457  12.376   4.507 -0.3289  0.0227 -0.1333
  456MOL0     H61524   1.703  12.339   4.840  0.4853 -2.3905  0.7816
  456MOL0     H61525   1.852  12.293   4.761 -0.8006 -0.8526 -3.8280
  456MOL0     H61526   1.885  12.536   4.841  0.4903  2.8612 -1.4613
  456MOL0     H61527   1.828  12.549   4.669 -1.4512  2.6578 -0.1766
  456MOL0     H61528   1.589  12.570   4.762  0.5308 -0.9461 -0.3537
  456MOL0     H61529   1.657  12.541   4.926 -1.2850  0.3027  0.0062
  456MOL0     H61530   1.701  12.776   4.730  0.0566  3.5634  1.0704
  456MOL0     H61531   1.813  12.748   4.867 -0.3315 -0.7385  2.5852
  456MOL0     H61532   1.609  12.752   5.017  2.4726 -2.6455 -0.3419
  456MOL0     H61533   1.502  12.788   4.885  0.1278 -0.4664  0.4216
  456MOL0     H61534   1.719  12.960   5.011 -0.0486  3.5906  0.6219
  456MOL0     H61535   1.665  12.988   4.837 -0.0283 -3.3647 -1.4414
  456MOL0     H61536   1.533  13.071   5.094 -1.9974  1.9836 -0.6156
  456MOL0     H61537   1.430  12.982   4.995  0.6388 -2.9552  5.8071
  456MOL0     H61538   1.600  13.221   4.907  0.3676 -0.8537  1.9937
  456MOL0     H61539   1.465  13.145   4.812 -0.2062 -0.9513 -0.1379
  456MOL0     H61540   1.650  12.132   4.798  0.9143  2.4916 -0.3806
  456MOL0     H61541   1.452  11.984   4.798  1.7222 -1.7702 -3.6426
  456MOL0     H61542   0.896  12.179   4.905 -0.0673  0.4868 -0.2312
  456MOL0     H61543   0.685  12.045   4.939  1.0022  0.4816  1.1993
  456MOL0     H61544   0.230  11.142   6.489 -0.7172 -2.1321  4.7962
  456MOL0     H61545   0.280  11.002   6.664  2.0467 -1.1343  0.8514
  456MOL0     H61546   0.609  10.609   6.700 -0.6770  1.8456 -0.1626
  456MOL0     H61547   0.726  10.432   6.820 -0.1680 -1.6013 -0.7310
  456MOL0     H61548   0.731  10.375   7.182  0.0844 -1.1109  0.8273
  456MOL0     H61549   0.832  10.367   7.040  1.9322  3.8094  5.2158
  456MOL0     H61550   0.932  10.210   7.145 -0.7617 -1.4268  0.1888
  456MOL0     H61551   0.819  10.123   7.049 -2.4978 -0.4849 -0.4470
  456MOL0     H61552   0.647  10.129   7.249  1.3013  1.3784  1.1279
  456MOL0     H61553   0.790  10.154   7.352 -1.1854  0.7492  1.1273
  456MOL0     H61554   0.871   9.927   7.260  1.3583  2.5421  4.1729
  456MOL0     H61555   0.724   9.940   7.362 -0.0684  1.9198  1.0100
  456MOL0     H61556   0.616   9.766   6.991  3.0339  1.3193 -0.5732
  456MOL0     H61557   0.408  10.407   7.109 -1.7912  4.3843  1.0797
  456MOL0     H61558   0.232  10.693   6.997 -2.5227 -0.7197 -0.6225
  456MOL0     H61559   0.194  10.529   7.036 -1.8712  2.3179 -3.1319
  456MOL0     H61560   0.309  10.629   7.138 -3.5021 -1.2612  1.2008
  457MOL0     O61561   9.978   8.645   0.981 -0.5658  1.1065 -0.3684
  457MOL0     C61562   9.876   8.592   0.949 -0.6683  1.1019 -0.6826
  457MOL0     O61563   9.752   8.646   0.954 -0.6936  0.1706  0.3938
  457MOL0     C61564   9.728   8.779   0.983 -0.5047 -0.3612  0.6691
  457MOL0     C61565   9.815   8.891   0.986 -0.5906 -0.0332  0.3957
  457MOL0     C61566   9.770   9.019   1.005 -0.7372  0.1587  0.2040
  457MOL0     C61567   9.636   9.044   1.030 -0.4894  0.6701 -0.4938
  457MOL0     O61568   9.577   9.165   1.069 -0.5698 -0.1936 -0.4977
  457MOL0     C61569   9.678   9.270   1.087 -0.5055 -0.1026 -0.4295
  457MOL0     C61570   9.754   9.265   1.222 -0.3400  0.8066 -1.4984
  457MOL0     C61571   9.686   9.329   1.339 -0.4319  0.6587  0.0271
  457MOL0     C61572   9.713   9.482   1.348 -0.2003  0.2668 -0.1003
  457MOL0     C61573   9.588   9.551   1.276  0.7590  0.0341 -0.6332
  457MOL0     C61574   9.479   9.578   1.382 -0.0591  1.3717  0.3147
  457MOL0     C61575   9.484   9.717   1.430  1.0736 -0.1223 -0.2816
  457MOL0     C61576   9.392   9.743   1.546  0.2038  0.1781 -0.8222
  457MOL0     N61577   9.382   9.888   1.576 -0.2291 -0.0875 -0.3411
  457MOL0     C61578   9.492   9.969   1.613 -0.6435 -0.2348  0.1590
  457MOL0     C61579   9.446  10.092   1.592 -0.6540 -0.6233  0.4429
  457MOL0     C61580   9.525  10.213   1.636 -0.6856  1.0775  0.8605
  457MOL0     C61581   9.473  10.303   1.745 -1.3163  0.2219  0.6946
  457MOL0     C61582   9.495  10.449   1.720  0.6978  0.0320  0.1312
  457MOL0     C61583   9.624  10.526   1.747 -0.3305  0.0676  0.3541
  457MOL0     O61584   9.647  10.518   1.892  0.3400  0.5846  0.6036
  457MOL0     C61585   9.750  10.430   1.929  0.8637 -0.0552  0.2357
  457MOL0     C61586   9.872  10.401   1.859 -0.5640 -0.0708  0.7207
  457MOL0     C61587   9.959  10.306   1.911  0.1950  0.0646  0.1156
  457MOL0     C61588   9.937  10.233   2.022  0.6890  0.2676 -0.1080
  457MOL0     C61589  10.042  10.140   2.057  0.1104 -0.8309 -0.4794
  457MOL0     O61590  10.171  10.175   2.036 -0.2432  0.0339 -0.7625
  457MOL0     C61591  10.271  10.086   2.053  0.7689  0.9720 -0.1736
  457MOL0     C61592  10.387  10.106   2.134 -0.5916 -0.0687  0.5414
  457MOL0     C61593  10.487  10.008   2.133  0.2243 -0.6322  1.0811
  457MOL0     C61594  10.467   9.877   2.073  0.1218  1.0498 -0.5101
  457MOL0     O61595  10.549   9.761   2.091  0.7943 -0.1788  0.2646
  457MOL0     C61596  10.671   9.780   2.159 -0.2338  0.2413 -0.1968
  457MOL0     C61597  10.755   9.666   2.139 -0.7190  0.6561 -0.0785
  457MOL0     C61598  10.705   9.540   2.217 -0.0797  0.0195 -0.1741
  457MOL0     C61599  10.595   9.476   2.150 -0.0678 -0.0603  0.6909
  457MOL0     C61600  10.572   9.327   2.184 -0.5934  0.7000  0.6777
  457MOL0     C61601  10.449   9.261   2.118  0.3763 -0.2970  0.6317
  457MOL0     C61602  10.484   9.229   1.978  0.8362  0.0916  0.2268
  457MOL0     C61603  10.362   9.203   1.896  0.9453  0.3527 -0.3590
  457MOL0    Cl61604  10.419   9.200   1.734  0.1118  0.0662 -0.2459
  457MOL0     C61605  10.357   9.870   1.981  0.5524  0.2921 -0.0035
  457MOL0     C61606  10.262   9.969   1.973 -0.1668  0.1108  0.1711
  457MOL0     O61607  10.000  10.032   2.105  0.2879 -0.4311 -0.8917
  457MOL0     C61608   9.817  10.255   2.096 -0.2394  0.4918 -0.0251
  457MOL0     C61609   9.732  10.356   2.041  0.5689  0.6990  0.0569
  457MOL0     N61610   9.310  10.087   1.565  0.8641  0.1331  0.3402
  457MOL0     N61611   9.272   9.964   1.562  0.5702 -0.5524  0.0496
  457MOL0     C61612   9.543   8.941   1.020  0.2039  0.2224  0.4607
  457MOL0     C61613   9.594   8.809   1.010  0.5061 -0.3656  0.3235
  457MOL0     C61614   9.881   8.451   0.895  0.0057  0.1051 -0.4979
  457MOL0     C61615   9.851   8.438   0.760 -0.0897 -0.3529 -0.6282
  457MOL0     C61616   9.839   8.308   0.708 -0.9999 -1.0857 -0.1068
  457MOL0     C61617   9.854   8.194   0.788 -0.9287  0.1285  0.6011
  457MOL0     O61618   9.847   8.070   0.734 -0.3519  0.3843 -0.4317
  457MOL0     C61619   9.976   8.011   0.730 -1.0247 -0.5668 -0.3288
  457MOL0     C61620   9.978   7.893   0.631 -0.4702  0.4934 -0.5649
  457MOL0     C61621   9.928   7.922   0.489 -0.4207  0.5062 -0.7470
  457MOL0     C61622   9.933   7.799   0.396  0.2549 -0.8326 -0.4349
  457MOL0     C61623   9.799   7.732   0.391  0.8139 -0.6128  0.2603
  457MOL0     C61624   9.691   7.673   0.402  0.3974 -0.2381 -0.0258
  457MOL0     C61625   9.905   8.211   0.919 -0.1231  0.7456  0.2386
  457MOL0     C61626   9.910   8.341   0.979  0.1028  1.7957  0.1599
  457MOL0     C61627   9.923   8.340   1.127  0.8316  0.4880 -0.1992
  457MOL0     H61628   9.918   8.866   0.963 -0.4291  2.0772 -1.6190
  457MOL0     H61629   9.845   9.097   0.991  1.7740 -2.2452 -0.6381
  457MOL0     H61630   9.750   9.266   1.005 -0.5182  0.5760 -0.4801
  457MOL0     H61631   9.627   9.367   1.082  1.2899  1.0403  1.5248
  457MOL0     H61632   9.849   9.315   1.203  1.7877 -2.3353  0.0227
  457MOL0     H61633   9.772   9.160   1.249  0.7170  1.4331  0.4065
  457MOL0     H61634   9.738   9.297   1.429  0.7681 -0.2018 -0.9266
  457MOL0     H61635   9.581   9.300   1.339  0.2156 -1.8880 -0.8166
  457MOL0     H61636   9.718   9.506   1.454  0.9774 -0.0280 -0.0761
  457MOL0     H61637   9.805   9.507   1.295  0.5723 -1.1503  0.5207
  457MOL0     H61638   9.624   9.644   1.230 -0.7552  1.6070  1.1433
  457MOL0     H61639   9.545   9.481   1.205 -2.5751  1.6746 -0.4321
  457MOL0     H61640   9.379   9.550   1.347  0.7421 -1.1761 -0.1467
  457MOL0     H61641   9.505   9.511   1.464  0.3448  0.1373 -0.7765
  457MOL0     H61642   9.436   9.776   1.352 -0.8374 -0.1408  0.8069
  457MOL0     H61643   9.583   9.750   1.460  1.9282  0.3011 -3.3005
  457MOL0     H61644   9.294   9.702   1.522 -0.0571 -0.0111  0.5032
  457MOL0     H61645   9.433   9.685   1.629 -1.0100  2.3423  1.4238
  457MOL0     H61646   9.586   9.955   1.665 -0.7594  2.9927  1.4748
  457MOL0     H61647   9.626  10.179   1.663  0.1498  2.4630 -0.3326
  457MOL0     H61648   9.531  10.273   1.544  1.0564 -2.2584 -1.4454
  457MOL0     H61649   9.364  10.296   1.750 -1.4957 -1.0837 -2.6648
  457MOL0     H61650   9.523  10.275   1.839  1.2350 -0.6981 -0.8322
  457MOL0     H61651   9.417  10.504   1.774 -1.1397 -1.0757 -1.3128
  457MOL0     H61652   9.485  10.467   1.613  1.0244  0.3335  0.1471
  457MOL0     H61653   9.610  10.631   1.722 -0.1843  0.5616  2.1845
  457MOL0     H61654   9.708  10.504   1.681  0.9378  2.2908  1.1497
  457MOL0     H61655   9.898  10.452   1.767 -0.7088  2.0349  1.7962
  457MOL0     H61656  10.050  10.297   1.853 -0.4285  0.0860 -0.8862
  457MOL0     H61657  10.395  10.205   2.179 -2.6055 -0.3858  1.7076
  457MOL0     H61658  10.585  10.038   2.168  1.8045 -2.3726 -1.4630
  457MOL0     H61659  10.725   9.862   2.111 -3.1922  0.2207 -4.1196
  457MOL0     H61660  10.648   9.800   2.264  1.4820  0.8303  0.0914
  457MOL0     H61661  10.777   9.644   2.035  5.2297 -0.2539  1.0247
  457MOL0     H61662  10.845   9.694   2.195 -1.1341  0.6766  0.5937
  457MOL0     H61663  10.789   9.469   2.213  0.0085 -0.1118  2.3312
  457MOL0     H61664  10.689   9.576   2.319 -0.4618  1.8645 -0.8442
  457MOL0     H61665  10.609   9.474   2.041 -3.2858 -0.2310  0.1727
  457MOL0     H61666  10.504   9.533   2.174  0.0428 -0.2264  1.5170
  457MOL0     H61667  10.553   9.327   2.292 -0.6681  1.0253  0.6654
  457MOL0     H61668  10.654   9.267   2.144 -2.4276 -1.2903 -0.3440
  457MOL0     H61669  10.430   9.161   2.156  1.8070 -2.1078 -2.9695
  457MOL0     H61670  10.359   9.322   2.129  1.2029  0.7743  1.7422
  457MOL0     H61671  10.552   9.144   1.973  1.0786  0.3554 -1.6840
  457MOL0     H61672  10.543   9.310   1.934  1.3391  0.5719  1.7286
  457MOL0     H61673  10.320   9.113   1.941  2.4573  0.3409  1.1103
  457MOL0     H61674  10.294   9.288   1.915  0.6386 -0.4937  2.8972
  457MOL0     H61675  10.332   9.779   1.926  1.4998  1.4577 -2.5339
  457MOL0     H61676  10.180   9.957   1.903  0.6922  1.6798 -1.1563
  457MOL0     H61677   9.794  10.200   2.186  1.7941  0.8981  0.8007
  457MOL0     H61678   9.634  10.361   2.086  0.3384 -1.7359  0.0020
  457MOL0     H61679   9.437   8.964   1.033  0.0581 -0.3334  0.2550
  457MOL0     H61680   9.524   8.727   1.003  0.2992 -0.3208  1.5675
  457MOL0     H61681   9.809   8.509   0.689  0.1844  1.1436  0.6708
  457MOL0     H61682   9.811   8.293   0.605 -0.8899 -0.5299 -0.2226
  457MOL0     H61683  10.000   7.980   0.832  0.0673  2.9880  0.6271
  457MOL0     H61684  10.039   8.096   0.701  0.5603 -1.2176  1.0151
  457MOL0     H61685   9.918   7.814   0.676  2.0455 -1.0023  0.3875
  457MOL0     H61686  10.080   7.855   0.614 -0.0190  1.6330 -0.5111
  457MOL0     H61687  10.004   7.992   0.453  1.0692 -0.3138  0.6782
  457MOL0     H61688   9.824   7.955   0.483 -0.6007  0.5780  1.6892
  457MOL0     H61689   9.970   7.839   0.301 -0.4569  1.6845  0.2712
  457MOL0     H61690  10.008   7.725   0.425 -0.1772 -0.5126  1.6668
  457MOL0     H61691   9.603   7.614   0.389  0.2061  0.5216 -2.9474
  457MOL0     H61692   9.925   8.115   0.964  0.1781 -0.8753 -3.0449
  457MOL0     H61693   9.835   8.377   1.181  0.2592 -1.5483  0.3367
  457MOL0     H61694   9.941   8.237   1.160 -0.3455  0.3302  0.0150
  457MOL0     H61695  10.006   8.407   1.152  1.5995 -0.5922  0.1962
  458MOL0     O61696   5.361   4.205   5.453 -0.0004  0.2257 -0.2231
  458MOL0     C61697   5.476   4.235   5.429 -0.2242 -0.4194  0.0976
  458MOL0     O61698   5.540   4.231   5.297  0.1780  0.1786 -0.5992
  458MOL0     C61699   5.474   4.181   5.191 -0.0595 -0.3591 -0.3101
  458MOL0     C61700   5.559   4.139   5.092 -0.1127  0.0053  0.7911
  458MOL0     C61701   5.507   4.105   4.964  0.2302  0.7747  0.1274
  458MOL0     C61702   5.369   4.110   4.935 -0.7337 -0.6316 -0.0525
  458MOL0     O61703   5.316   4.094   4.811 -0.0307  0.0291 -0.6426
  458MOL0     C61704   5.390   4.046   4.700  0.5813  0.5831 -0.0446
  458MOL0     C61705   5.297   3.959   4.615 -0.6295  0.2234 -0.6346
  458MOL0     C61706   5.223   3.843   4.695  0.0806 -0.1182  0.0368
  458MOL0     C61707   5.211   3.716   4.621 -0.3768 -0.0908  0.3906
  458MOL0     C61708   5.347   3.643   4.619  0.2844  0.3242  0.2347
  458MOL0     C61709   5.337   3.506   4.549 -0.2556 -0.1265  0.0124
  458MOL0     C61710   5.463   3.422   4.527  0.4518 -0.3276  0.2115
  458MOL0     C61711   5.569   3.475   4.433  0.6328  0.5275  0.5633
  458MOL0     N61712   5.644   3.595   4.478  0.1394 -0.3314 -0.1635
  458MOL0     C61713   5.685   3.695   4.393 -0.4570 -0.3970 -0.9391
  458MOL0     C61714   5.751   3.778   4.480  1.0005 -0.4175  0.4906
  458MOL0     C61715   5.838   3.902   4.466 -0.0693 -0.3390  1.1187
  458MOL0     C61716   5.786   4.007   4.561 -0.8525 -0.8824  0.7177
  458MOL0     C61717   5.836   4.144   4.501 -0.2641 -0.2557  0.6043
  458MOL0     C61718   5.770   4.255   4.596  0.8373 -0.2132  0.3671
  458MOL0     O61719   5.847   4.252   4.720 -0.1618 -0.1531  0.4124
  458MOL0     C61720   5.794   4.342   4.814  1.1565  1.2168  0.6509
  458MOL0     C61721   5.831   4.322   4.948 -0.4213 -0.8766 -0.9912
  458MOL0     C61722   5.785   4.403   5.056  0.7048 -0.0135 -0.2016
  458MOL0     C61723   5.690   4.504   5.018 -0.0438  0.6751  0.6474
  458MOL0     C61724   5.623   4.590   5.121  0.8494  0.7834  0.2880
  458MOL0     O61725   5.629   4.554   5.250  0.3703 -0.4539 -0.0575
  458MOL0     C61726   5.620   4.643   5.358 -0.5165 -0.4998 -0.4405
  458MOL0     C61727   5.675   4.608   5.475  0.4116  0.2544  0.4184
  458MOL0     C61728   5.656   4.687   5.590 -0.1822  0.7766 -0.5381
  458MOL0     C61729   5.579   4.816   5.582 -1.2813 -0.3116 -0.6762
  458MOL0     O61730   5.547   4.895   5.685  0.3058 -0.0593  0.8850
  458MOL0     C61731   5.562   4.848   5.818 -0.2972 -0.1145  0.7719
  458MOL0     C61732   5.529   4.963   5.907  0.0488 -0.5196 -0.4328
  458MOL0     C61733   5.372   4.975   5.898  0.2585  0.4393 -1.0154
  458MOL0     C61734   5.324   5.059   6.016 -0.5531 -0.0019 -0.7411
  458MOL0     C61735   5.280   4.980   6.142 -0.2146  0.2275  0.7196
  458MOL0     C61736   5.388   4.917   6.221 -0.2492 -0.7366 -0.0255
  458MOL0     C61737   5.341   4.853   6.355 -0.3206  0.2770 -0.0464
  458MOL0     C61738   5.348   4.701   6.350  0.2017  0.5244 -0.0734
  458MOL0    Cl61739   5.512   4.635   6.303 -0.2130 -0.1862  0.1617
  458MOL0     C61740   5.526   4.848   5.455 -0.1032  0.2795  1.2879
  458MOL0     C61741   5.545   4.762   5.342 -0.4126  0.4694  0.1670
  458MOL0     O61742   5.571   4.691   5.072 -0.1908  0.3209  0.2293
  458MOL0     C61743   5.667   4.526   4.879 -0.5721  0.2965 -0.4136
  458MOL0     C61744   5.713   4.446   4.780  0.2042  0.2469 -0.1271
  458MOL0     N61745   5.726   3.738   4.609 -0.0081  0.4722 -0.9703
  458MOL0     N61746   5.667   3.623   4.607 -0.0252  0.4710  0.1180
  458MOL0     C61747   5.289   4.149   5.038 -0.0389 -0.3175  0.2999
  458MOL0     C61748   5.338   4.182   5.166  0.4622 -1.0707  0.5695
  458MOL0     C61749   5.557   4.277   5.547  0.8109 -0.4510 -1.0567
  458MOL0     C61750   5.482   4.340   5.651  0.0224 -0.1121 -0.1742
  458MOL0     C61751   5.551   4.396   5.754  0.4603 -0.8467 -0.1624
  458MOL0     C61752   5.694   4.385   5.759  0.2063 -0.4044  0.6403
  458MOL0     O61753   5.771   4.437   5.858  0.6667  0.9451 -0.0253
  458MOL0     C61754   5.708   4.486   5.976 -0.0801  0.1980 -1.0222
  458MOL0     C61755   5.629   4.398   6.066  0.0783  0.8081  0.4545
  458MOL0     C61756   5.703   4.272   6.106  0.4330 -0.7010  0.2203
  458MOL0     C61757   5.832   4.295   6.174  0.2388  0.6924  0.3549
  458MOL0     C61758   5.867   4.170   6.240  0.4349 -0.4709  0.3089
  458MOL0     C61759   5.878   4.060   6.294  0.5975 -0.0032 -0.3018
  458MOL0     C61760   5.762   4.317   5.666 -0.0804  0.4301  0.4637
  458MOL0     C61761   5.700   4.256   5.559 -0.3035  0.5403  0.3259
  458MOL0     C61762   5.783   4.166   5.461  0.2488  0.2114  0.5497
  458MOL0     H61763   5.668   4.141   5.100 -0.0414  0.5554 -0.1948
  458MOL0     H61764   5.578   4.092   4.883  1.2789 -0.2729  1.1817
  458MOL0     H61765   5.420   4.129   4.635 -1.7342  2.5338  1.2191
  458MOL0     H61766   5.474   3.983   4.731  2.0638  2.3264 -0.3743
  458MOL0     H61767   5.362   3.921   4.536  1.3730 -0.5550  1.2984
  458MOL0     H61768   5.233   4.030   4.563 -0.4614  0.6713 -0.2427
  458MOL0     H61769   5.127   3.888   4.722 -1.0401 -2.2580 -0.1979
  458MOL0     H61770   5.270   3.822   4.791 -0.2340  0.5930  0.3520
  458MOL0     H61771   5.137   3.652   4.671  1.6351 -3.3612 -0.5433
  458MOL0     H61772   5.175   3.741   4.521 -1.7415 -0.3178  0.8115
  458MOL0     H61773   5.426   3.709   4.582  3.3646 -1.2430  3.4092
  458MOL0     H61774   5.380   3.619   4.720  0.6419 -3.3746 -0.6305
  458MOL0     H61775   5.273   3.459   4.624  0.2531  1.8120  1.7660
  458MOL0     H61776   5.283   3.518   4.454  0.0567  1.7228  0.0317
  458MOL0     H61777   5.437   3.329   4.474 -1.3769  0.5685 -0.5559
  458MOL0     H61778   5.509   3.405   4.625 -4.5135 -1.4540  2.7082
  458MOL0     H61779   5.643   3.396   4.415 -1.5140 -1.8551  1.5208
  458MOL0     H61780   5.520   3.500   4.338 -0.4626  4.1352  1.9360
  458MOL0     H61781   5.681   3.692   4.285 -2.0329  0.7379 -0.9432
  458MOL0     H61782   5.942   3.873   4.479  1.2515  1.0017 -4.2758
  458MOL0     H61783   5.826   3.923   4.359 -1.9867 -1.7726  0.9903
  458MOL0     H61784   5.677   4.012   4.558 -0.8697  3.3828 -3.1858
  458MOL0     H61785   5.838   3.996   4.656 -1.1364 -2.2425  0.7306
  458MOL0     H61786   5.794   4.160   4.401 -0.3810  0.6937  0.7965
  458MOL0     H61787   5.945   4.156   4.498 -0.4389  1.2245 -1.7990
  458MOL0     H61788   5.663   4.245   4.619  1.1618 -1.6212  1.3968
  458MOL0     H61789   5.778   4.348   4.539 -1.1407 -0.1688  0.0784
  458MOL0     H61790   5.892   4.234   4.969  1.7198  1.4552  4.6907
  458MOL0     H61791   5.822   4.393   5.157  2.0205  1.5351 -0.4971
  458MOL0     H61792   5.731   4.515   5.468  1.0592  0.7414 -1.7437
  458MOL0     H61793   5.705   4.670   5.685 -0.9781  1.2933 -0.0205
  458MOL0     H61794   5.499   4.761   5.839 -0.7840  0.2888  0.9927
  458MOL0     H61795   5.668   4.831   5.840 -0.3959  0.8269  2.1028
  458MOL0     H61796   5.558   4.954   6.012 -2.3979  0.6875  0.4423
  458MOL0     H61797   5.573   5.057   5.872 -1.1351  0.3109  0.2132
  458MOL0     H61798   5.349   5.022   5.803 -1.8696 -3.0260 -2.4109
  458MOL0     H61799   5.326   4.876   5.897  1.1702 -0.0003 -0.9606
  458MOL0     H61800   5.228   5.109   6.000 -0.0848  0.4822 -2.2374
  458MOL0     H61801   5.392   5.137   6.049  0.2899 -1.3739  0.9166
  458MOL0     H61802   5.209   4.903   6.108  1.7296 -1.4341  0.2271
  458MOL0     H61803   5.224   5.050   6.204 -2.6991  1.3553 -2.5204
  458MOL0     H61804   5.426   4.842   6.151  3.4904  0.2185  0.7405
  458MOL0     H61805   5.476   4.982   6.227 -1.2191  1.1197 -3.2690
  458MOL0     H61806   5.240   4.889   6.375 -0.5577 -1.9996  3.8467
  458MOL0     H61807   5.409   4.887   6.434 -0.0300  1.8254 -0.9217
  458MOL0     H61808   5.323   4.656   6.447  0.8126 -0.8053 -0.5083
  458MOL0     H61809   5.276   4.661   6.278 -0.9050  2.1627  0.0615
  458MOL0     H61810   5.469   4.940   5.445  0.1784  0.2431 -1.0873
  458MOL0     H61811   5.481   4.790   5.259  0.2445  0.1342 -0.4640
  458MOL0     H61812   5.602   4.606   4.847  0.7417  1.9253  0.7990
  458MOL0     H61813   5.689   4.462   4.675  0.2713 -3.8111 -0.9346
  458MOL0     H61814   5.187   4.180   5.017  0.2454 -0.5157 -1.4959
  458MOL0     H61815   5.264   4.226   5.232 -1.8307 -2.5268 -0.8981
  458MOL0     H61816   5.374   4.339   5.644  0.0469 -0.6765 -0.5359
  458MOL0     H61817   5.496   4.467   5.815  0.8080 -0.0469 -0.7448
  458MOL0     H61818   5.658   4.581   5.954 -0.4027 -0.2400 -2.2174
  458MOL0     H61819   5.784   4.517   6.048 -2.5342 -2.4550  3.1416
  458MOL0     H61820   5.529   4.376   6.027 -0.2255  2.3452  0.2922
  458MOL0     H61821   5.605   4.456   6.156  0.9064 -1.2486  2.0721
  458MOL0     H61822   5.717   4.209   6.018  1.8110  0.5146 -0.4674
  458MOL0     H61823   5.643   4.213   6.176 -0.1053  0.0481  0.4080
  458MOL0     H61824   5.917   4.328   6.114  1.8683 -2.1254  0.9309
  458MOL0     H61825   5.817   4.369   6.253 -0.4394  2.9963 -1.8065
  458MOL0     H61826   5.880   3.969   6.350 -0.1222  0.8999  1.2628
  458MOL0     H61827   5.868   4.301   5.683 -0.0852 -0.8429 -0.5830
  458MOL0     H61828   5.721   4.116   5.386  1.4442 -0.4575 -0.0121
  458MOL0     H61829   5.860   4.219   5.404 -0.3304  2.2665  1.5928
  458MOL0     H61830   5.833   4.088   5.520 -0.8168 -0.7037  0.2736
  459MOL0     O61831  11.427   3.608   3.909  0.7130 -0.0470 -0.0646
  459MOL0     C61832  11.388   3.708   3.840 -0.1483  0.2116  0.1825
  459MOL0     O61833  11.441   3.739   3.721 -0.4160  0.1011 -0.2094
  459MOL0     C61834  11.530   3.670   3.657 -0.2108 -0.3560 -0.5925
  459MOL0     C61835  11.611   3.754   3.584  0.5662 -0.0313 -0.2866
  459MOL0     C61836  11.709   3.697   3.503 -0.5921  0.1471  1.0924
  459MOL0     C61837  11.724   3.553   3.500  0.2186 -0.1886 -0.3401
  459MOL0     O61838  11.829   3.474   3.457  0.3489  0.2286  0.0806
  459MOL0     C61839  11.892   3.505   3.329 -0.5109  0.2921  0.2010
  459MOL0     C61840  11.919   3.389   3.235 -0.4525  0.5519  0.1876
  459MOL0     C61841  12.024   3.286   3.270  0.7124 -0.3219  0.3992
  459MOL0     C61842  12.045   3.175   3.161 -0.3493  0.0274  0.5639
  459MOL0     C61843  12.146   3.060   3.183 -0.2150  0.9712  0.1346
  459MOL0     C61844  12.083   2.937   3.257  0.8450 -0.2302 -0.5371
  459MOL0     C61845  12.169   2.804   3.271  0.5165  0.6435 -1.5250
  459MOL0     C61846  12.317   2.818   3.266  0.6491  0.8265  0.0762
  459MOL0     N61847  12.382   2.684   3.266 -0.2275  0.7523  0.2970
  459MOL0     C61848  12.496   2.667   3.198  0.0399 -0.4356  0.0826
  459MOL0     C61849  12.514   2.539   3.211 -0.9350 -0.1296 -0.6747
  459MOL0     C61850  12.640   2.470   3.180  0.5486 -0.1033 -0.5948
  459MOL0     C61851  12.640   2.318   3.194  0.3342  0.7454 -0.3582
  459MOL0     C61852  12.789   2.265   3.180  0.7325 -0.5121  0.5880
  459MOL0     C61853  12.798   2.107   3.199 -0.7757 -0.2587 -0.0525
  459MOL0     O61854  12.672   2.043   3.169 -0.8403  0.1595  0.0441
  459MOL0     C61855  12.674   1.920   3.119  0.4478  0.8955  0.3076
  459MOL0     C61856  12.559   1.876   3.052 -0.3928  0.1636  0.3385
  459MOL0     C61857  12.551   1.741   3.001  0.6164  0.2391 -0.8267
  459MOL0     C61858  12.656   1.643   3.002 -0.5068  0.7299 -0.3197
  459MOL0     C61859  12.642   1.506   2.945  0.3075 -0.2538 -0.2979
  459MOL0     O61860  12.525   1.491   2.884  0.0834 -0.1053 -0.0589
  459MOL0     C61861  12.496   1.373   2.820 -0.1374 -0.1491 -0.0531
  459MOL0     C61862  12.457   1.261   2.881 -0.7090 -0.6564 -0.3059
  459MOL0     C61863  12.415   1.145   2.814 -0.0345  0.4318  0.3829
  459MOL0     C61864  12.416   1.139   2.672 -0.3668  0.3694  0.9919
  459MOL0     O61865  12.382   1.034   2.597 -0.0230 -0.5580 -0.0224
  459MOL0     C61866  12.324   0.915   2.658 -0.4130  0.3383  0.5476
  459MOL0     C61867  12.178   0.944   2.696  0.0950 -0.5444  0.5229
  459MOL0     C61868  12.107   0.808   2.716  0.0680 -0.2205  0.6615
  459MOL0     C61869  12.081   0.755   2.571  0.0298  0.6544  0.5740
  459MOL0     C61870  12.028   0.616   2.568  0.5691 -0.9009  0.8565
  459MOL0     C61871  12.034   0.550   2.427 -1.0553  0.6217  0.3432
  459MOL0     C61872  11.964   0.413   2.429  1.1498  0.6949  0.2105
  459MOL0     C61873  11.952   0.362   2.289 -0.1315  0.1456  0.2691
  459MOL0    Cl61874  11.878   0.199   2.298 -0.4954 -0.4157  0.2174
  459MOL0     C61875  12.455   1.260   2.605 -0.3394  0.3731 -0.2619
  459MOL0     C61876  12.490   1.376   2.679 -0.2222  0.5203 -0.1946
  459MOL0     O61877  12.732   1.420   2.953 -0.1875  0.6115  0.1113
  459MOL0     C61878  12.769   1.694   3.066 -0.4451  0.0444  0.1234
  459MOL0     C61879  12.777   1.828   3.126 -0.0232  0.2694 -0.7729
  459MOL0     N61880  12.413   2.486   3.290  0.2672 -0.5518 -0.0667
  459MOL0     N61881  12.332   2.574   3.323 -0.9311  0.5749 -0.2855
  459MOL0     C61882  11.647   3.476   3.593 -0.9248 -0.1947 -1.3001
  459MOL0     C61883  11.547   3.533   3.665 -0.3774 -0.5190 -0.3875
  459MOL0     C61884  11.293   3.807   3.902 -0.4049 -0.2771 -0.4840
  459MOL0     C61885  11.221   3.886   3.814  0.7637 -0.4024 -0.2316
  459MOL0     C61886  11.122   3.978   3.859  0.0937 -0.5014  1.0049
  459MOL0     C61887  11.087   3.985   3.999  0.8073 -0.8531 -0.8697
  459MOL0     O61888  10.997   4.073   4.050 -0.5936  0.0767  0.8564
  459MOL0     C61889  10.882   4.102   3.971  0.6929  0.1539 -0.0512
  459MOL0     C61890  10.904   4.240   3.903  0.9285  0.8000 -0.5878
  459MOL0     C61891  10.792   4.333   3.951  0.0542  0.8248  0.0072
  459MOL0     C61892  10.650   4.308   3.910 -0.1640 -0.7987 -0.6973
  459MOL0     C61893  10.640   4.292   3.766  0.2283  0.0059 -0.6091
  459MOL0     C61894  10.644   4.288   3.647  0.1322  0.1298  0.0332
  459MOL0     C61895  11.156   3.901   4.082  0.4597 -0.2759  0.1759
  459MOL0     C61896  11.259   3.818   4.043  0.6648 -0.1942  1.1385
  459MOL0     C61897  11.308   3.726   4.153  0.1528 -0.9150  0.7255
  459MOL0     H61898  11.588   3.859   3.585 -1.5896 -0.4656 -0.6117
  459MOL0     H61899  11.763   3.734   3.416  0.6312 -2.2265  0.7520
  459MOL0     H61900  11.833   3.581   3.278 -0.5049  2.8113  3.6561
  459MOL0     H61901  11.979   3.562   3.362 -0.4466  1.0963 -1.2758
  459MOL0     H61902  11.948   3.434   3.140  1.6056 -2.3985 -0.7259
  459MOL0     H61903  11.821   3.348   3.212  0.3759 -1.0604 -0.6332
  459MOL0     H61904  11.983   3.241   3.361  0.1384 -2.1635 -0.7063
  459MOL0     H61905  12.120   3.335   3.288  0.9529 -0.2607 -0.9033
  459MOL0     H61906  11.950   3.135   3.124 -0.0615 -0.3282  0.2001
  459MOL0     H61907  12.088   3.245   3.089 -2.1090 -0.0195 -0.5815
  459MOL0     H61908  12.174   3.029   3.082 -1.5927  0.2767 -0.0746
  459MOL0     H61909  12.225   3.114   3.235  0.5497  2.0934 -2.0747
  459MOL0     H61910  12.047   2.973   3.353  4.1239 -0.2630  0.8249
  459MOL0     H61911  12.002   2.911   3.188 -0.2451  3.5408 -0.9463
  459MOL0     H61912  12.148   2.741   3.185 -3.1465 -1.5211  0.7009
  459MOL0     H61913  12.150   2.750   3.364  0.7418  0.8775 -1.3389
  459MOL0     H61914  12.346   2.883   3.183  0.9079  1.0603  0.3482
  459MOL0     H61915  12.348   2.865   3.359 -2.7724  0.2162  1.6824
  459MOL0     H61916  12.574   2.728   3.153  3.0201 -4.7044 -1.1776
  459MOL0     H61917  12.674   2.499   3.080 -0.9638 -1.2859 -1.4948
  459MOL0     H61918  12.709   2.518   3.250 -0.6368 -0.0894  0.6080
  459MOL0     H61919  12.591   2.297   3.289  0.4284  0.8939 -0.2761
  459MOL0     H61920  12.578   2.273   3.117  0.9221 -0.4679 -0.1448
  459MOL0     H61921  12.861   2.320   3.242 -1.4981  4.2380 -0.6067
  459MOL0     H61922  12.806   2.280   3.073 -0.6840 -1.8558  0.1347
  459MOL0     H61923  12.828   2.088   3.302 -0.8244 -0.9097 -0.1550
  459MOL0     H61924  12.872   2.069   3.127  1.3154  1.1967  1.2275
  459MOL0     H61925  12.475   1.945   3.048 -1.9501 -1.6943 -1.0091
  459MOL0     H61926  12.460   1.707   2.953  0.1653  0.4107 -0.1005
  459MOL0     H61927  12.444   1.267   2.989 -2.7319 -4.2702 -0.1854
  459MOL0     H61928  12.360   1.070   2.871  0.1815  0.2183  0.3132
  459MOL0     H61929  12.337   0.835   2.584 -0.3309  1.5516 -0.8023
  459MOL0     H61930  12.369   0.883   2.752  0.9948 -1.4332 -0.6592
  459MOL0     H61931  12.169   1.013   2.781 -0.0932 -1.6316  1.4083
  459MOL0     H61932  12.126   1.003   2.620 -0.0757  1.1080  1.8560
  459MOL0     H61933  12.167   0.746   2.782  3.2169  3.0847  1.2064
  459MOL0     H61934  12.013   0.817   2.770  0.0656 -0.0290  0.6279
  459MOL0     H61935  12.177   0.742   2.518  0.5036 -0.8542  1.7220
  459MOL0     H61936  12.014   0.824   2.520  0.9678  0.3409 -1.2033
  459MOL0     H61937  11.923   0.623   2.598 -0.1974 -0.7932 -1.6158
  459MOL0     H61938  12.090   0.562   2.641  1.0979 -0.2059  0.9273
  459MOL0     H61939  11.985   0.608   2.348  1.4800  2.3269 -0.0833
  459MOL0     H61940  12.139   0.528   2.404 -1.4855  0.0279 -1.1831
  459MOL0     H61941  11.861   0.413   2.466  0.0851 -0.7043 -2.4676
  459MOL0     H61942  12.016   0.346   2.499 -0.1041  1.0587  1.5273
  459MOL0     H61943  11.893   0.425   2.222  1.5761 -0.7670 -2.2390
  459MOL0     H61944  12.048   0.346   2.240 -0.6711  2.7461 -1.8444
  459MOL0     H61945  12.439   1.272   2.499 -3.2859  2.6467  0.2845
  459MOL0     H61946  12.518   1.466   2.626 -2.3506  0.1721 -2.0808
  459MOL0     H61947  12.859   1.635   3.077  1.3916  2.7321  0.2484
  459MOL0     H61948  12.870   1.858   3.173 -0.0586 -0.7145 -0.0599
  459MOL0     H61949  11.672   3.371   3.607 -0.9753 -0.2824 -1.8279
  459MOL0     H61950  11.481   3.465   3.717  0.9471 -2.1261 -0.7280
  459MOL0     H61951  11.245   3.900   3.709  2.0395  2.9932  0.3841
  459MOL0     H61952  11.070   4.033   3.782  3.2783  2.4514  0.7269
  459MOL0     H61953  10.800   4.099   4.043  1.1916 -3.6622  0.5687
  459MOL0     H61954  10.845   4.030   3.898 -1.5897  2.7332 -1.6510
  459MOL0     H61955  10.910   4.237   3.794 -4.4903  2.0624 -1.2365
  459MOL0     H61956  11.000   4.276   3.942 -0.0088  1.5052  1.1894
  459MOL0     H61957  10.821   4.433   3.915  1.6090  0.1652 -0.6815
  459MOL0     H61958  10.798   4.334   4.060  2.5924  0.1346 -0.0668
  459MOL0     H61959  10.633   4.209   3.952  0.1169 -1.2528 -1.6150
  459MOL0     H61960  10.584   4.389   3.943 -0.9380 -1.5878 -0.2565
  459MOL0     H61961  10.652   4.301   3.541  0.4967  0.8462  0.1447
  459MOL0     H61962  11.124   3.902   4.185 -3.1595  0.1303 -0.8230
  459MOL0     H61963  11.233   3.708   4.231 -1.3131 -1.9167 -0.8514
  459MOL0     H61964  11.340   3.627   4.117 -0.8067 -0.4486 -1.6077
  459MOL0     H61965  11.387   3.789   4.194 -2.8762 -0.1786  6.5385
  460MOL0     O61966  10.327   6.632   1.305 -0.6220 -0.8537 -0.1394
  460MOL0     C61967  10.288   6.745   1.326 -0.6075  0.2833 -0.0153
  460MOL0     O61968  10.175   6.778   1.393  0.1298  0.4920 -0.5573
  460MOL0     C61969  10.119   6.686   1.493  0.4009 -0.7161  0.6005
  460MOL0     C61970  10.199   6.601   1.567 -0.1763 -0.1743  0.5313
  460MOL0     C61971  10.150   6.522   1.673  0.1632 -0.2497 -0.4472
  460MOL0     C61972  10.012   6.519   1.692  0.1500  0.2626 -0.6695
  460MOL0     O61973   9.974   6.439   1.794  0.3067 -0.0201  0.6857
  460MOL0     C61974   9.837   6.393   1.788  0.0552  0.2845  1.2205
  460MOL0     C61975   9.820   6.299   1.911 -0.7709  0.5652 -0.7886
  460MOL0     C61976   9.790   6.157   1.867  0.0795 -0.9400  0.0159
  460MOL0     C61977   9.751   6.074   1.993  0.0115 -0.5497 -0.3335
  460MOL0     C61978   9.687   5.940   1.959  0.4767 -0.2103 -0.3901
  460MOL0     C61979   9.633   5.863   2.085  0.1206  0.5469  0.2150
  460MOL0     C61980   9.633   5.712   2.082 -0.0473  0.7795  0.1231
  460MOL0     C61981   9.711   5.656   2.211  0.2253  1.0376 -0.0817
  460MOL0     N61982   9.631   5.682   2.330  0.6810 -0.0515 -0.3420
  460MOL0     C61983   9.673   5.746   2.439  0.2853  0.6505  0.3094
  460MOL0     C61984   9.580   5.722   2.530  0.6937 -0.1896  0.0949
  460MOL0     C61985   9.558   5.794   2.659  0.0067 -0.3404 -0.9955
  460MOL0     C61986   9.692   5.790   2.745  0.4390  0.3735  0.0524
  460MOL0     C61987   9.714   5.667   2.818 -0.6380 -0.6526 -0.5819
  460MOL0     C61988   9.642   5.647   2.947 -0.1021  1.3932 -0.5191
  460MOL0     O61989   9.713   5.565   3.035 -0.0825  0.0369  0.2109
  460MOL0     C61990   9.703   5.425   3.025 -0.0528 -1.3418 -0.3597
  460MOL0     C61991   9.621   5.366   2.927  0.1207 -0.4512  0.7186
  460MOL0     C61992   9.604   5.230   2.933 -0.4431 -0.2635 -0.3897
  460MOL0     C61993   9.671   5.151   3.035  0.4423 -0.4286 -0.5988
  460MOL0     C61994   9.629   5.008   3.052  1.1468 -0.1911  0.1313
  460MOL0     O61995   9.534   4.967   2.961 -0.2046 -0.3486  0.2545
  460MOL0     C61996   9.490   4.828   2.937 -0.7082  0.3932  0.0235
  460MOL0     C61997   9.461   4.790   2.812 -0.1164  0.4706  0.2165
  460MOL0     C61998   9.424   4.655   2.779  0.6738 -0.0203  0.2744
  460MOL0     C61999   9.422   4.566   2.879 -0.9776  1.1931  1.3169
  460MOL0     O62000   9.385   4.435   2.840  0.3397 -0.3101  0.0178
  460MOL0     C62001   9.457   4.334   2.914  0.7560 -0.3903 -0.5397
  460MOL0     C62002   9.487   4.226   2.822  0.7348 -0.5910 -0.0616
  460MOL0     C62003   9.563   4.106   2.874  0.4078 -0.2846 -0.1931
  460MOL0     C62004   9.705   4.144   2.925  0.0392 -0.1780 -0.6033
  460MOL0     C62005   9.749   4.022   3.004 -0.8484  0.3497  0.1245
  460MOL0     C62006   9.870   4.051   3.099 -0.9975  0.2243  0.0717
  460MOL0     C62007   9.926   3.916   3.146  0.2332 -0.0785  0.0996
  460MOL0     C62008  10.049   3.942   3.226 -0.8088  0.1571 -0.4425
  460MOL0    Cl62009  10.097   3.777   3.287 -0.7279 -0.1454 -0.2564
  460MOL0     C62010   9.448   4.598   3.012  0.3078  1.1364  0.9110
  460MOL0     C62011   9.473   4.731   3.036 -0.2903  0.7620 -0.1327
  460MOL0     O62012   9.697   4.938   3.122  0.4132  0.8295 -0.2028
  460MOL0     C62013   9.763   5.210   3.114 -0.6625  0.0343 -0.1972
  460MOL0     C62014   9.774   5.346   3.118 -0.1689 -0.2057  0.6216
  460MOL0     N62015   9.471   5.650   2.472 -0.6634  0.5325  0.2749
  460MOL0     N62016   9.500   5.643   2.350 -0.0135  0.2655 -0.2701
  460MOL0     C62017   9.923   6.596   1.607 -0.3963 -0.4851  0.1608
  460MOL0     C62018   9.982   6.676   1.515  0.5759  0.1811 -0.1560
  460MOL0     C62019  10.370   6.855   1.255 -0.4981 -1.1978 -0.8262
  460MOL0     C62020  10.443   6.831   1.132 -0.0890  0.9862  0.3606
  460MOL0     C62021  10.496   6.926   1.062 -0.1054 -0.2745 -1.2090
  460MOL0     C62022  10.501   7.056   1.102  0.7659 -0.0566  0.1339
  460MOL0     O62023  10.561   7.151   1.034 -0.3212 -0.2694  0.3144
  460MOL0     C62024  10.682   7.201   1.082 -0.7767  0.3363 -0.7873
  460MOL0     C62025  10.797   7.120   1.026 -1.0415  0.6571 -0.6037
  460MOL0     C62026  10.842   7.015   1.133  0.8650  0.4891 -0.2770
  460MOL0     C62027  10.940   6.916   1.068  0.2984 -0.2849 -0.0318
  460MOL0     C62028  10.887   6.778   1.049  0.9924 -0.3636  0.3619
  460MOL0     C62029  10.862   6.661   1.037 -1.0312 -0.0873  0.1010
  460MOL0     C62030  10.434   7.091   1.216  0.1417  1.4138 -0.3428
  460MOL0     C62031  10.383   6.999   1.302  0.7098  0.2943  0.5369
  460MOL0     C62032  10.317   7.053   1.431 -0.1304  0.5305 -0.6232
  460MOL0     H62033  10.307   6.602   1.557 -0.2751  0.5303 -0.6873
  460MOL0     H62034  10.227   6.476   1.735  0.3779  0.5164 -0.1219
  460MOL0     H62035   9.773   6.482   1.788  2.2678  2.0289 -1.1514
  460MOL0     H62036   9.829   6.340   1.693  0.6504  2.3948 -0.0541
  460MOL0     H62037   9.744   6.326   1.985 -0.2626 -0.5560  0.1850
  460MOL0     H62038   9.915   6.290   1.966 -0.9738 -3.3500 -0.7663
  460MOL0     H62039   9.876   6.121   1.809  1.2283  4.5309 -2.3440
  460MOL0     H62040   9.707   6.160   1.795  0.2159 -2.4939 -0.2394
  460MOL0     H62041   9.839   6.046   2.051 -2.8173 -7.1039  1.7290
  460MOL0     H62042   9.684   6.133   2.057  0.5106 -1.0273  0.6530
  460MOL0     H62043   9.610   5.962   1.885  1.4862  0.4127 -1.2864
  460MOL0     H62044   9.747   5.877   1.893 -0.8717 -1.6377 -0.3154
  460MOL0     H62045   9.692   5.895   2.172  2.3401 -2.5399 -0.0079
  460MOL0     H62046   9.528   5.892   2.096  0.5373  1.1751  3.4130
  460MOL0     H62047   9.686   5.668   1.997 -0.4371 -0.8354  0.6782
  460MOL0     H62048   9.532   5.671   2.082 -0.4242  1.6489 -0.7750
  460MOL0     H62049   9.713   5.547   2.211  0.1422  1.0217 -1.5140
  460MOL0     H62050   9.814   5.682   2.234  0.9224 -2.3910  1.3245
  460MOL0     H62051   9.766   5.794   2.470  2.3803 -2.0396 -1.3184
  460MOL0     H62052   9.525   5.896   2.638 -2.7869 -0.4450  2.1234
  460MOL0     H62053   9.469   5.761   2.712  2.4168 -1.2415  2.9590
  460MOL0     H62054   9.781   5.820   2.689 -0.1911  0.4176 -0.9629
  460MOL0     H62055   9.681   5.870   2.818  1.0812  3.3539 -2.8862
  460MOL0     H62056   9.817   5.676   2.854 -0.6734  0.7953 -0.7895
  460MOL0     H62057   9.712   5.589   2.742 -0.4742  0.1404 -1.4255
  460MOL0     H62058   9.540   5.608   2.936  0.4603  0.0398 -1.1518
  460MOL0     H62059   9.622   5.744   2.995 -0.9547  0.3729  1.2957
  460MOL0     H62060   9.557   5.416   2.856  0.7526 -1.1071 -0.3460
  460MOL0     H62061   9.546   5.180   2.856  1.8124 -0.1274 -2.2995
  460MOL0     H62062   9.474   4.863   2.733  0.6364  0.5297  0.3818
  460MOL0     H62063   9.391   4.626   2.679 -2.8057  1.6935  0.7979
  460MOL0     H62064   9.548   4.358   2.969  0.6566 -1.3575  0.0631
  460MOL0     H62065   9.387   4.294   2.988 -0.7077 -0.2479 -1.7806
  460MOL0     H62066   9.390   4.191   2.786  1.6821 -2.4446 -0.9556
  460MOL0     H62067   9.535   4.260   2.730  1.8939  0.5197  0.9145
  460MOL0     H62068   9.499   4.065   2.953  1.2116 -3.4273 -1.0663
  460MOL0     H62069   9.574   4.030   2.797  1.2181  1.1697 -1.5664
  460MOL0     H62070   9.707   4.230   2.993  1.4160  0.4047 -1.3398
  460MOL0     H62071   9.778   4.167   2.847  1.8894  1.1385  1.3954
  460MOL0     H62072   9.778   3.949   2.928  3.0441 -0.3526  2.0198
  460MOL0     H62073   9.672   3.979   3.069  0.4949  0.2372  1.7035
  460MOL0     H62074   9.945   4.115   3.052 -0.6654  0.6689  1.1782
  460MOL0     H62075   9.825   4.095   3.188 -0.2851  0.9254  0.0953
  460MOL0     H62076   9.962   3.861   3.059  3.0350  0.7657  0.6182
  460MOL0     H62077   9.846   3.855   3.190 -3.9095  2.9016 -2.5107
  460MOL0     H62078  10.129   3.977   3.160 -0.7735 -1.1174 -1.1163
  460MOL0     H62079  10.024   4.001   3.314  1.8117  1.2317 -0.3392
  460MOL0     H62080   9.454   4.530   3.097 -0.0782  0.6626  0.5666
  460MOL0     H62081   9.487   4.771   3.136  3.6219  2.2826 -1.1167
  460MOL0     H62082   9.822   5.152   3.184 -1.8605 -2.0066 -0.7980
  460MOL0     H62083   9.841   5.386   3.194  0.3521  2.3489 -1.0334
  460MOL0     H62084   9.815   6.591   1.615 -0.5542  0.8584 -0.8502
  460MOL0     H62085   9.925   6.745   1.453  2.5560  2.7210  0.6746
  460MOL0     H62086  10.453   6.730   1.094 -2.4128  0.8290 -0.0008
  460MOL0     H62087  10.551   6.897   0.973 -1.8098 -0.4266 -2.2677
  460MOL0     H62088  10.677   7.214   1.191 -0.9565 -2.9116 -0.3071
  460MOL0     H62089  10.691   7.297   1.031  2.0732  0.9805  0.6994
  460MOL0     H62090  10.889   7.175   1.005  1.3046 -3.0120 -0.9010
  460MOL0     H62091  10.763   7.065   0.938 -0.3271 -2.3312  0.8311
  460MOL0     H62092  10.757   6.966   1.181  3.3306 -2.0647  1.7974
  460MOL0     H62093  10.891   7.067   1.216 -3.1575 -0.3955  2.9449
  460MOL0     H62094  10.974   6.953   0.971 -1.5000  0.3436 -0.4525
  460MOL0     H62095  11.027   6.921   1.135 -1.0739  0.9551  1.7345
  460MOL0     H62096  10.852   6.555   1.035 -1.8593 -0.0511 -3.1160
  460MOL0     H62097  10.422   7.195   1.244 -0.3763  0.9661  1.1950
  460MOL0     H62098  10.208   7.047   1.421 -0.3817  3.0091  0.0678
  460MOL0     H62099  10.342   6.988   1.516 -1.9508  1.1579  0.4416
  460MOL0     H62100  10.343   7.157   1.452  2.0288  0.2768 -1.7979
  461MOL0     O62101   1.566   3.466   6.124  0.0562 -0.2271 -0.4360
  461MOL0     C62102   1.590   3.581   6.088  0.6711  1.0164  0.3406
  461MOL0     O62103   1.504   3.679   6.076 -1.0322 -0.4375 -0.5695
  461MOL0     C62104   1.396   3.690   6.162  0.6811  0.0501 -0.3525
  461MOL0     C62105   1.380   3.610   6.274 -0.2238 -0.3931 -0.0395
  461MOL0     C62106   1.276   3.624   6.367  1.2403 -0.7181  0.1151
  461MOL0     C62107   1.185   3.730   6.361  0.7021  0.4322  0.1893
  461MOL0     O62108   1.075   3.755   6.437  0.0568  0.3221 -0.6422
  461MOL0     C62109   0.969   3.653   6.425 -0.8213  0.1144 -0.4245
  461MOL0     C62110   0.878   3.647   6.549  0.0145  0.1612 -0.0643
  461MOL0     C62111   0.948   3.591   6.678  0.4010 -0.9201 -0.0508
  461MOL0     C62112   1.023   3.453   6.666 -0.0855 -0.3203 -0.2808
  461MOL0     C62113   1.045   3.411   6.809  0.0126 -0.4679  0.8157
  461MOL0     C62114   1.137   3.293   6.828  0.0229 -0.1908  1.0956
  461MOL0     C62115   1.126   3.231   6.966 -0.0517  0.4726 -0.5206
  461MOL0     C62116   1.208   3.102   6.979 -0.5602  0.0847  1.3834
  461MOL0     N62117   1.167   3.031   7.095 -1.1631 -0.5313 -0.6250
  461MOL0     C62118   1.208   3.060   7.225  1.1966  0.7460 -0.2005
  461MOL0     C62119   1.125   2.977   7.299 -0.8539  0.2896  1.0633
  461MOL0     C62120   1.121   2.959   7.445  0.4769  0.0142 -0.6390
  461MOL0     C62121   0.969   2.937   7.504 -0.4573  0.4708  0.2721
  461MOL0     C62122   0.942   2.954   7.650  0.5313  0.4224  0.3883
  461MOL0     C62123   1.014   2.858   7.748 -0.1017  0.8047  0.3998
  461MOL0     O62124   0.977   2.884   7.883 -0.0974 -0.1165 -0.7937
  461MOL0     C62125   0.872   2.823   7.954 -0.5708  0.0702  0.3383
  461MOL0     C62126   0.863   2.840   8.089 -0.3602 -1.3879 -1.4130
  461MOL0     C62127   0.745   2.824   8.162  0.3376  0.0932  0.6540
  461MOL0     C62128   0.639   2.750   8.091 -0.1837 -0.9914  0.0812
  461MOL0     C62129   0.525   2.697   8.160  0.0250 -0.2191  0.1376
  461MOL0     O62130   0.474   2.588   8.099  0.8245  0.0973 -0.2762
  461MOL0     C62131   0.400   2.501   8.183 -0.1159  0.2952  1.0271
  461MOL0     C62132   0.465   2.454   8.302  0.2004  0.4125  0.0223
  461MOL0     C62133   0.388   2.358   8.378 -0.4596  0.6525  1.0601
  461MOL0     C62134   0.249   2.323   8.358 -0.2505 -0.7083  0.2756
  461MOL0     O62135   0.168   2.265   8.455 -0.2734  0.1842  0.1662
  461MOL0     C62136   0.114   2.364   8.545  0.2608  0.6932 -0.1045
  461MOL0     C62137  -0.022   2.430   8.514 -0.4130  0.4639 -0.7348
  461MOL0     C62138  -0.037   2.545   8.613  0.4963 -0.4019 -0.2630
  461MOL0     C62139  -0.174   2.608   8.580 -0.7310  0.0227 -0.1105
  461MOL0     C62140  -0.295   2.545   8.648 -0.6497 -0.3979 -0.4862
  461MOL0     C62141  -0.305   2.571   8.793  0.2886  0.3901  0.2458
  461MOL0     C62142  -0.380   2.452   8.864 -0.4515  0.6407  0.6696
  461MOL0     C62143  -0.367   2.444   9.022 -0.2168 -0.3422  0.0914
  461MOL0    Cl62144  -0.477   2.569   9.089 -0.0837 -0.6309  0.2550
  461MOL0     C62145   0.190   2.378   8.241 -1.0300  0.1827 -0.1458
  461MOL0     C62146   0.268   2.462   8.159 -1.4942  0.0270  0.2922
  461MOL0     O62147   0.503   2.747   8.271  0.4625 -0.7682  0.2346
  461MOL0     C62148   0.655   2.718   7.956  0.3047  0.9230 -0.0429
  461MOL0     C62149   0.765   2.752   7.887  0.0315 -0.5600 -0.8522
  461MOL0     N62150   1.057   2.893   7.221  0.0269  1.0127 -0.2091
  461MOL0     N62151   1.075   2.930   7.097 -1.0416 -0.1065 -0.2560
  461MOL0     C62152   1.202   3.819   6.255  0.2064 -0.0644  0.8805
  461MOL0     C62153   1.300   3.794   6.149  0.8924 -0.6316  0.2254
  461MOL0     C62154   1.726   3.594   6.035 -0.4600 -0.3121  1.0254
  461MOL0     C62155   1.747   3.692   5.936  0.6472 -0.5640 -0.4855
  461MOL0     C62156   1.873   3.706   5.887  0.4444 -0.0213 -0.9633
  461MOL0     C62157   1.971   3.610   5.899  0.1800  0.0892  0.8047
  461MOL0     O62158   2.086   3.607   5.830 -1.0027 -0.0506  0.0234
  461MOL0     C62159   2.192   3.701   5.874 -0.6666  0.5039 -0.1473
  461MOL0     C62160   2.268   3.659   6.002  0.0330 -0.7714  1.1370
  461MOL0     C62161   2.191   3.721   6.123  0.4503 -0.6426  0.0551
  461MOL0     C62162   2.232   3.629   6.231  0.3987  0.1521  0.6175
  461MOL0     C62163   2.169   3.674   6.354 -0.0663 -0.2257 -0.1793
  461MOL0     C62164   2.128   3.710   6.459  0.3478 -0.4065 -0.6901
  461MOL0     C62165   1.952   3.520   5.997  0.3727 -0.0910  0.6405
  461MOL0     C62166   1.836   3.510   6.071 -0.4159  0.8139 -0.1577
  461MOL0     C62167   1.831   3.398   6.174  0.3784 -0.9983 -0.2992
  461MOL0     H62168   1.452   3.539   6.315 -2.4482 -3.3332 -0.8279
  461MOL0     H62169   1.271   3.549   6.446  2.7025 -2.1383 -1.0888
  461MOL0     H62170   0.904   3.683   6.342  1.6695  3.3182 -1.4195
  461MOL0     H62171   1.011   3.558   6.392 -0.3956 -0.5119  1.7755
  461MOL0     H62172   0.790   3.586   6.528 -0.8306  1.8144 -1.6107
  461MOL0     H62173   0.839   3.746   6.577 -0.3039  0.0269 -0.0339
  461MOL0     H62174   0.865   3.596   6.748 -0.3308 -0.3570 -0.9255
  461MOL0     H62175   1.014   3.670   6.717  0.7781  0.0880 -2.5340
  461MOL0     H62176   0.962   3.383   6.610 -3.2342 -0.4323  2.9118
  461MOL0     H62177   1.118   3.475   6.616 -0.3810  0.7741 -0.3803
  461MOL0     H62178   1.100   3.491   6.859 -0.9610  1.0782 -0.5016
  461MOL0     H62179   0.954   3.396   6.868 -0.1460 -1.6765  0.2993
  461MOL0     H62180   1.105   3.215   6.757  0.8867 -2.1491  2.7454
  461MOL0     H62181   1.241   3.325   6.819  0.2168 -1.3036 -1.7195
  461MOL0     H62182   1.026   3.197   6.994 -0.2805 -1.0556 -2.9612
  461MOL0     H62183   1.164   3.311   7.030  4.2415 -0.6871 -1.2830
  461MOL0     H62184   1.195   3.045   6.886  2.5375 -0.8837  1.4270
  461MOL0     H62185   1.311   3.136   6.991 -0.9368  0.4162  4.3294
  461MOL0     H62186   1.277   3.131   7.270  1.2284  0.8401 -0.3979
  461MOL0     H62187   1.194   2.881   7.470  1.6532  0.6658 -1.8738
  461MOL0     H62188   1.171   3.048   7.486  0.2251 -1.4394  3.2246
  461MOL0     H62189   0.904   3.003   7.446 -0.0004 -0.1075 -0.9363
  461MOL0     H62190   0.947   2.834   7.472  2.9324  0.2895 -2.0218
  461MOL0     H62191   0.835   2.938   7.668 -0.1079  0.8107 -2.5488
  461MOL0     H62192   0.972   3.056   7.675  1.1190  0.2788  0.2827
  461MOL0     H62193   1.122   2.862   7.730  0.2579 -4.4120 -0.1765
  461MOL0     H62194   0.976   2.760   7.719  2.1315 -0.1243  0.4481
  461MOL0     H62195   0.946   2.891   8.136 -1.1551  0.2899 -1.7840
  461MOL0     H62196   0.746   2.857   8.265 -0.8042  1.6916  0.2029
  461MOL0     H62197   0.572   2.466   8.308  0.7798 -2.9716 -1.0876
  461MOL0     H62198   0.442   2.308   8.458 -3.2722 -1.6942  1.6964
  461MOL0     H62199   0.110   2.321   8.645  0.9236 -0.1147 -0.4142
  461MOL0     H62200   0.197   2.434   8.559 -0.1672  0.9887  1.1386
  461MOL0     H62201  -0.008   2.464   8.411  1.7932  0.0998 -0.6081
  461MOL0     H62202  -0.101   2.355   8.524 -0.8134  0.7264 -1.7707
  461MOL0     H62203  -0.046   2.514   8.717 -3.0440 -0.5022 -0.4747
  461MOL0     H62204   0.034   2.626   8.593 -0.4261  0.7369  0.9106
  461MOL0     H62205  -0.193   2.606   8.472  1.1210 -0.0489 -0.4716
  461MOL0     H62206  -0.159   2.716   8.586 -1.6693  0.2023 -0.7776
  461MOL0     H62207  -0.307   2.439   8.624 -0.4267 -0.6819  0.6097
  461MOL0     H62208  -0.385   2.591   8.606 -0.6907  1.8611  1.8143
  461MOL0     H62209  -0.207   2.595   8.835  1.0271  1.8638 -2.1284
  461MOL0     H62210  -0.363   2.661   8.814  2.5705  1.7152  1.2425
  461MOL0     H62211  -0.359   2.356   8.817  1.1013  0.0658  2.3984
  461MOL0     H62212  -0.488   2.460   8.847 -0.3830  1.5331  0.5725
  461MOL0     H62213  -0.405   2.350   9.062 -0.6715  0.7038  2.2113
  461MOL0     H62214  -0.267   2.471   9.059 -0.6738 -0.4055  1.4138
  461MOL0     H62215   0.084   2.363   8.219 -1.1422 -2.5120  1.7736
  461MOL0     H62216   0.225   2.489   8.063 -2.6540  1.6082  1.1938
  461MOL0     H62217   0.577   2.668   7.900  1.0053 -0.3662  0.0962
  461MOL0     H62218   0.760   2.733   7.780 -0.7624 -2.7229 -0.4840
  461MOL0     H62219   1.138   3.906   6.246  1.3558  0.7182 -0.1918
  461MOL0     H62220   1.318   3.857   6.062 -2.3691 -1.8754 -1.5481
  461MOL0     H62221   1.664   3.761   5.921  1.4279  0.9278  1.5121
  461MOL0     H62222   1.892   3.786   5.816 -1.7131  0.5711 -0.9677
  461MOL0     H62223   2.159   3.805   5.877 -0.2168  0.6428  0.0001
  461MOL0     H62224   2.271   3.701   5.798  1.0807  0.0878  1.5787
  461MOL0     H62225   2.362   3.713   5.990 -1.4929  1.3040 -3.8310
  461MOL0     H62226   2.288   3.552   6.005 -0.2415 -0.8656  0.0583
  461MOL0     H62227   2.082   3.720   6.110  0.6150 -2.1899 -1.5472
  461MOL0     H62228   2.211   3.825   6.150  1.8742  0.1039 -3.3049
  461MOL0     H62229   2.195   3.528   6.214 -2.6190  1.2004  0.3005
  461MOL0     H62230   2.338   3.650   6.246  0.5707  2.4296 -2.7935
  461MOL0     H62231   2.088   3.740   6.553  0.7874 -2.3774  0.1612
  461MOL0     H62232   2.037   3.452   5.995  1.4710  1.2465 -0.5180
  461MOL0     H62233   1.930   3.356   6.192  0.1617 -0.8395  1.4802
  461MOL0     H62234   1.792   3.437   6.269 -1.0297 -0.8903 -0.9023
  461MOL0     H62235   1.763   3.321   6.135  0.3545 -1.2091  0.1481
  462MOL0     O62236   8.407   9.934  11.418 -0.2893  0.6734  0.3204
  462MOL0     C62237   8.445  10.035  11.377 -0.1771  1.2253  0.6979
  462MOL0     O62238   8.514  10.040  11.259  0.0658  0.7302 -0.5791
  462MOL0     C62239   8.504   9.959  11.154  0.8278  0.0859 -0.5363
  462MOL0     C62240   8.392   9.863  11.131 -0.6492  0.2652 -0.7231
  462MOL0     C62241   8.395   9.789  11.008 -0.2689  0.4500  0.0987
  462MOL0     C62242   8.511   9.782  10.923 -0.2646  0.1342  0.0918
  462MOL0     O62243   8.514   9.713  10.802 -0.1203  0.2165  0.1761
  462MOL0     C62244   8.448   9.582  10.805 -0.5523  0.8343 -0.0571
  462MOL0     C62245   8.520   9.484  10.895 -0.6916  0.1333 -0.0203
  462MOL0     C62246   8.447   9.345  10.907 -0.0649 -1.4381 -0.9744
  462MOL0     C62247   8.512   9.248  11.004 -0.5201  0.4492 -0.2850
  462MOL0     C62248   8.461   9.269  11.149 -0.4097  0.4383  1.5415
  462MOL0     C62249   8.512   9.162  11.249 -0.7841  0.6127  0.2706
  462MOL0     C62250   8.414   9.165  11.356  0.6113 -0.6201  0.4099
  462MOL0     C62251   8.449   9.051  11.456  0.5259  0.2301 -0.1719
  462MOL0     N62252   8.581   9.058  11.522  0.1070 -0.6647  0.5031
  462MOL0     C62253   8.617   9.149  11.612  0.1194 -0.6807  0.0639
  462MOL0     C62254   8.741   9.112  11.658 -0.4875 -0.1545 -0.8962
  462MOL0     C62255   8.810   9.173  11.766 -0.5016 -0.8797  0.5729
  462MOL0     C62256   8.794   9.329  11.782  0.0279 -0.0697 -0.0096
  462MOL0     C62257   8.847   9.382  11.910 -0.6634 -0.7446 -0.5804
  462MOL0     C62258   9.001   9.378  11.910  0.3661  0.1336 -0.1671
  462MOL0     O62259   9.055   9.441  12.032  0.3477 -0.1480 -0.7808
  462MOL0     C62260   9.184   9.438  12.065 -0.1791  0.9505  0.8141
  462MOL0     C62261   9.287   9.374  11.982  0.1640 -1.0725  0.1846
  462MOL0     C62262   9.418   9.361  12.024  0.6312 -0.7432  0.2784
  462MOL0     C62263   9.460   9.412  12.151  0.2006  0.0371 -0.1710
  462MOL0     C62264   9.593   9.385  12.189 -0.6844 -1.0312  0.1993
  462MOL0     O62265   9.665   9.325  12.099 -0.3766  0.2480  0.0774
  462MOL0     C62266   9.789   9.271  12.124  0.1304  0.5736  0.1157
  462MOL0     C62267   9.884   9.275  12.018 -0.9180  0.0954 -0.2145
  462MOL0     C62268  10.023   9.238  12.048  0.5747  0.2045  0.2818
  462MOL0     C62269  10.059   9.188  12.168 -0.4017 -0.7971 -0.0703
  462MOL0     O62270  10.192   9.156  12.188  0.7133  0.4357  0.9878
  462MOL0     C62271  10.222   9.063  12.292 -0.1314  0.6394 -0.1273
  462MOL0     C62272  10.368   9.041  12.277  0.7856  0.5299  0.1994
  462MOL0     C62273  10.443   8.914  12.334  0.2259  0.0154  0.6732
  462MOL0     C62274  10.353   8.790  12.310 -0.1287 -0.0396 -0.3534
  462MOL0     C62275  10.439   8.662  12.341  0.4886 -0.0282 -0.0400
  462MOL0     C62276  10.358   8.532  12.362 -0.0773  0.5937 -0.7271
  462MOL0     C62277  10.430   8.399  12.328 -0.4197  0.9105 -0.6276
  462MOL0     C62278  10.346   8.278  12.287 -0.6244  0.1489 -0.4643
  462MOL0    Cl62279  10.342   8.135  12.398 -0.2123  0.2123 -0.3792
  462MOL0     C62280   9.956   9.174  12.271  0.1837 -0.7726  0.7668
  462MOL0     C62281   9.825   9.219  12.249 -0.6944 -0.0763  0.0238
  462MOL0     O62282   9.635   9.421  12.305  0.1784 -1.3881  0.6812
  462MOL0     C62283   9.364   9.475  12.227 -0.6159 -0.8950  0.0774
  462MOL0     C62284   9.224   9.478  12.191 -0.6269  0.5619  0.2297
  462MOL0     N62285   8.780   9.006  11.585 -0.0695  0.0038  0.0476
  462MOL0     N62286   8.679   8.967  11.518 -0.2572 -0.1467  0.6944
  462MOL0     C62287   8.612   9.873  10.951  0.2815  0.7041  0.4946
  462MOL0     C62288   8.604   9.962  11.058  0.6986 -0.3782  0.5011
  462MOL0     C62289   8.417  10.165  11.450 -0.5283  0.2273 -1.0667
  462MOL0     C62290   8.421  10.278  11.373 -0.4842 -0.7206  0.1190
  462MOL0     C62291   8.427  10.404  11.427 -0.1380  0.0251  0.9418
  462MOL0     C62292   8.394  10.421  11.555 -0.8279  1.2577 -0.9383
  462MOL0     O62293   8.383  10.552  11.599 -0.9272  0.3163  0.1197
  462MOL0     C62294   8.423  10.584  11.726 -0.0556  1.1385  0.2158
  462MOL0     C62295   8.440  10.728  11.754  0.2049  0.4853  0.0717
  462MOL0     C62296   8.522  10.751  11.871 -0.8881 -1.1228  0.1465
  462MOL0     C62297   8.538  10.901  11.901  0.1517  0.7941  0.1963
  462MOL0     C62298   8.409  10.966  11.951  0.4467  1.0528  0.6036
  462MOL0     C62299   8.305  11.007  11.979  0.5269  0.1955 -0.8018
  462MOL0     C62300   8.382  10.305  11.641 -0.4855 -0.0005 -0.2927
  462MOL0     C62301   8.396  10.175  11.592 -0.3298  0.0705  0.3809
  462MOL0     C62302   8.373  10.057  11.684 -0.3993  0.1669 -0.0167
  462MOL0     H62303   8.308   9.846  11.197 -3.9912 -1.6817 -5.0384
  462MOL0     H62304   8.304   9.734  10.990 -0.6184  0.2561  2.2310
  462MOL0     H62305   8.344   9.590  10.837 -0.3723  1.2502  0.4326
  462MOL0     H62306   8.454   9.545  10.702  1.6468  0.2785  0.2164
  462MOL0     H62307   8.516   9.522  10.997 -1.2472 -0.1708  0.0742
  462MOL0     H62308   8.620   9.467  10.854 -0.4283  0.1698  0.6085
  462MOL0     H62309   8.449   9.297  10.809 -1.5267  0.1903 -1.8585
  462MOL0     H62310   8.343   9.347  10.940  0.2228 -0.6606 -0.0516
  462MOL0     H62311   8.495   9.146  10.968  1.1058  1.2121 -3.5831
  462MOL0     H62312   8.621   9.260  11.001 -0.3384 -0.7103 -4.1819
  462MOL0     H62313   8.484   9.369  11.187  0.9740  1.9949 -2.7236
  462MOL0     H62314   8.352   9.265  11.144 -0.8002  0.5005  6.2903
  462MOL0     H62315   8.517   9.066  11.197  1.9847  0.1938  1.1599
  462MOL0     H62316   8.616   9.188  11.273  0.1520 -1.4368 -1.2676
  462MOL0     H62317   8.312   9.160  11.315 -0.3517  1.5386  2.3026
  462MOL0     H62318   8.425   9.260  11.407 -0.8008 -0.0948 -0.1870
  462MOL0     H62319   8.374   9.039  11.535 -1.9135 -2.7740 -2.6565
  462MOL0     H62320   8.441   8.959  11.397 -0.7145  0.0525  0.2354
  462MOL0     H62321   8.540   9.211  11.656  1.8269  0.3589  1.7565
  462MOL0     H62322   8.784   9.123  11.860 -2.3883 -1.3337 -0.1454
  462MOL0     H62323   8.918   9.161  11.751 -0.3999 -0.6152  1.0650
  462MOL0     H62324   8.839   9.367  11.689  0.9639 -0.5863  0.2199
  462MOL0     H62325   8.687   9.351  11.786  0.2372  1.1359 -0.5015
  462MOL0     H62326   8.807   9.322  11.992  1.6331 -1.0460  0.4013
  462MOL0     H62327   8.809   9.483  11.925 -1.5185 -1.2068  0.4805
  462MOL0     H62328   9.034   9.421  11.815  1.0197 -2.0721 -0.9860
  462MOL0     H62329   9.027   9.272  11.919  2.4199  0.7930  3.2140
  462MOL0     H62330   9.262   9.354  11.878 -1.6151  0.1332  0.3428
  462MOL0     H62331   9.492   9.314  11.959  1.8752  1.7506 -0.2055
  462MOL0     H62332   9.859   9.308  11.917  1.8803  1.0315 -0.6950
  462MOL0     H62333  10.106   9.249  11.979 -0.1955  0.2393 -0.6670
  462MOL0     H62334  10.208   9.096  12.395 -0.8494 -3.3453  1.2325
  462MOL0     H62335  10.162   8.973  12.274  0.2217  0.3781  0.0004
  462MOL0     H62336  10.384   9.046  12.169  0.0943 -2.3616 -0.1292
  462MOL0     H62337  10.418   9.131  12.315  1.2099  0.3818 -0.0078
  462MOL0     H62338  10.545   8.900  12.296  0.8050  1.2478  1.6719
  462MOL0     H62339  10.456   8.928  12.442 -2.6305 -2.1444  1.4072
  462MOL0     H62340  10.324   8.797  12.205 -0.6939 -1.7563 -0.3313
  462MOL0     H62341  10.272   8.781  12.384 -1.0790 -0.6115 -1.4349
  462MOL0     H62342  10.501   8.672  12.431 -1.1718 -3.1152  1.6275
  462MOL0     H62343  10.501   8.649  12.252  1.8045 -0.6889  0.9491
  462MOL0     H62344  10.319   8.517  12.463  0.9105  0.6098 -0.3379
  462MOL0     H62345  10.272   8.538  12.294 -1.0410 -0.5444  0.3397
  462MOL0     H62346  10.488   8.369  12.416 -1.0609  0.7291 -0.2550
  462MOL0     H62347  10.500   8.418  12.247  1.0789 -1.0360  0.1374
  462MOL0     H62348  10.241   8.300  12.264 -2.0186 -2.9919  2.0814
  462MOL0     H62349  10.400   8.244  12.198 -2.5290 -0.5608 -1.4204
  462MOL0     H62350   9.992   9.120  12.358 -0.8529  0.0239  1.7159
  462MOL0     H62351   9.731   9.210  12.303 -2.2020  2.5562 -1.9189
  462MOL0     H62352   9.399   9.514  12.322 -1.4132  2.3870 -0.8320
  462MOL0     H62353   9.152   9.519  12.261  0.0199  0.4280  0.9864
  462MOL0     H62354   8.690   9.865  10.876  2.0096 -2.4611  2.3984
  462MOL0     H62355   8.686  10.032  11.051  1.1894 -0.9530  0.4574
  462MOL0     H62356   8.429  10.285  11.265 -1.4734  1.2584  0.1300
  462MOL0     H62357   8.449  10.489  11.364  1.7374 -1.0918  0.0095
  462MOL0     H62358   8.519  10.533  11.733 -0.3811  0.1389 -1.8165
  462MOL0     H62359   8.357  10.542  11.802  0.7930 -0.2591  0.2066
  462MOL0     H62360   8.338  10.761  11.774 -0.1628 -1.0214  0.8132
  462MOL0     H62361   8.491  10.785  11.675  2.0970  1.0344  1.5899
  462MOL0     H62362   8.620  10.705  11.856  0.2252  0.0023  3.0231
  462MOL0     H62363   8.476  10.692  11.950 -1.6377 -0.6399  0.0810
  462MOL0     H62364   8.619  10.907  11.975 -0.6881 -0.0424  1.1956
  462MOL0     H62365   8.574  10.944  11.806 -0.8187  3.4638  0.9405
  462MOL0     H62366   8.221  11.062  12.014 -0.3346 -1.6213  0.1609
  462MOL0     H62367   8.352  10.322  11.744 -0.5587 -0.9060 -0.1593
  462MOL0     H62368   8.298   9.994  11.635 -1.9165  1.6336  0.3220
  462MOL0     H62369   8.466  10.000  11.688  1.8375  2.8965 -4.3549
  462MOL0     H62370   8.345  10.096  11.783  3.8343  1.4352  0.8862
  463MOL0     O62371  10.345   1.278   5.817  0.1031  0.3876  0.0552
  463MOL0     C62372  10.352   1.399   5.780 -0.7703  0.1375  0.1546
  463MOL0     O62373  10.350   1.453   5.653 -0.1139  0.3611 -0.2349
  463MOL0     C62374  10.328   1.383   5.533  0.2485 -0.5727 -1.3408
  463MOL0     C62375  10.281   1.445   5.420  0.6720 -0.3192  0.1521
  463MOL0     C62376  10.270   1.381   5.292  1.0167  1.8001  0.4525
  463MOL0     C62377  10.292   1.244   5.279  0.9573 -0.8517 -0.7471
  463MOL0     O62378  10.253   1.181   5.164 -1.2272  0.6848 -0.2836
  463MOL0     C62379  10.366   1.128   5.099  0.2506 -0.0690  0.1066
  463MOL0     C62380  10.314   1.007   5.027  0.0175  0.4706 -0.3653
  463MOL0     C62381  10.222   1.041   4.910 -0.0179  0.1127 -0.3569
  463MOL0     C62382  10.199   0.913   4.824  0.1501  0.1639 -1.2772
  463MOL0     C62383  10.094   0.939   4.721 -0.0337  0.7458 -0.1571
  463MOL0     C62384  10.076   0.830   4.619 -0.0886  0.0645 -0.2228
  463MOL0     C62385   9.979   0.861   4.515 -0.5489  0.4840  0.5676
  463MOL0     C62386   9.935   0.752   4.430  0.5377 -0.3298  0.8391
  463MOL0     N62387  10.034   0.657   4.395 -0.0854  1.8240  0.7573
  463MOL0     C62388  10.133   0.670   4.302  0.7065  1.0935  0.3026
  463MOL0     C62389  10.216   0.561   4.303 -0.6928 -0.4905  0.1213
  463MOL0     C62390  10.342   0.509   4.227  0.4105 -0.2420 -0.1656
  463MOL0     C62391  10.460   0.605   4.266  0.2775  0.5273 -0.8927
  463MOL0     C62392  10.589   0.566   4.204 -1.1412  0.8230  0.8041
  463MOL0     C62393  10.720   0.651   4.216 -0.4457  0.3302 -0.2901
  463MOL0     O62394  10.700   0.788   4.168  0.2156 -0.3481 -0.7116
  463MOL0     C62395  10.787   0.884   4.198  0.2683 -0.5907  0.5636
  463MOL0     C62396  10.776   0.989   4.117  0.3391 -0.0026 -0.0336
  463MOL0     C62397  10.864   1.091   4.125 -0.0434 -0.4225  0.5062
  463MOL0     C62398  10.989   1.076   4.191  1.2262 -0.8946 -0.0256
  463MOL0     C62399  11.086   1.184   4.172 -0.8967 -0.0276 -0.1418
  463MOL0     O62400  11.051   1.304   4.115  0.2836  0.5584 -0.4599
  463MOL0     C62401  11.139   1.411   4.116 -0.1270  0.0489  0.7811
  463MOL0     C62402  11.258   1.434   4.190  0.7310  0.6377  1.7946
  463MOL0     C62403  11.321   1.557   4.178  0.8145 -0.2542 -0.1895
  463MOL0     C62404  11.261   1.662   4.101  0.2054  0.0760  0.6699
  463MOL0     O62405  11.331   1.782   4.107 -0.4169 -0.0819  0.1182
  463MOL0     C62406  11.245   1.890   4.104  0.3025  0.3748 -1.1011
  463MOL0     C62407  11.202   1.959   3.977 -0.5029  0.0376 -0.0308
  463MOL0     C62408  11.304   1.967   3.877 -0.5660 -0.3095 -0.2875
  463MOL0     C62409  11.241   2.003   3.742  0.4758 -0.5657  0.0600
  463MOL0     C62410  11.176   1.896   3.662 -0.0423 -0.9169 -0.3874
  463MOL0     C62411  11.284   1.850   3.571 -0.1650 -0.2571 -0.0870
  463MOL0     C62412  11.404   1.766   3.633  0.3584  0.6615  0.2959
  463MOL0     C62413  11.468   1.700   3.507 -0.4731  0.2628 -0.5030
  463MOL0    Cl62414  11.363   1.596   3.423  0.3586  0.8503  0.4034
  463MOL0     C62415  11.142   1.634   4.037  0.4753  0.6296 -0.2790
  463MOL0     C62416  11.085   1.503   4.034  0.1649  0.1636 -0.5774
  463MOL0     O62417  11.198   1.152   4.221  0.1740 -1.0226 -0.0683
  463MOL0     C62418  11.006   0.964   4.276 -0.0313 -0.5076 -0.4385
  463MOL0     C62419  10.904   0.863   4.273  0.0734 -0.1622 -0.0475
  463MOL0     N62420  10.162   0.487   4.408  0.1610  0.4664  0.0785
  463MOL0     N62421  10.059   0.549   4.467  0.1915 -0.1448 -1.0152
  463MOL0     C62422  10.334   1.171   5.391 -0.2566 -0.0319  0.2465
  463MOL0     C62423  10.350   1.239   5.514  0.5858 -0.8359  0.7236
  463MOL0     C62424  10.378   1.505   5.878  0.0600 -0.5349  0.6232
  463MOL0     C62425  10.335   1.638   5.851 -1.0603  0.7176 -0.1502
  463MOL0     C62426  10.373   1.746   5.938 -0.1622 -0.9959  0.8131
  463MOL0     C62427  10.436   1.721   6.058 -0.0380  0.4445 -0.8017
  463MOL0     O62428  10.450   1.830   6.137 -0.3819  0.1763 -0.3232
  463MOL0     C62429  10.496   1.807   6.271  0.1458  0.7935 -1.1526
  463MOL0     C62430  10.458   1.920   6.369  0.2620  0.4661  0.0175
  463MOL0     C62431  10.308   1.931   6.415  0.6161 -0.2100 -0.3973
  463MOL0     C62432  10.252   1.837   6.524 -0.0364 -0.1755 -0.2143
  463MOL0     C62433  10.238   1.701   6.463  0.9231 -1.6205  1.1879
  463MOL0     C62434  10.209   1.600   6.399 -0.0991 -0.2257  0.3107
  463MOL0     C62435  10.473   1.589   6.099 -0.0391  0.1249  0.0374
  463MOL0     C62436  10.449   1.487   6.010  0.3069  0.2101 -0.0014
  463MOL0     C62437  10.511   1.359   6.038 -0.1030  0.1305 -0.0380
  463MOL0     H62438  10.271   1.553   5.427  3.5232  0.0868 -0.8592
  463MOL0     H62439  10.261   1.437   5.199  1.1111 -1.0839 -1.4594
  463MOL0     H62440  10.398   1.207   5.031 -1.6343  0.9656  0.3476
  463MOL0     H62441  10.446   1.109   5.171  0.2228  1.7589  0.6662
  463MOL0     H62442  10.265   0.947   5.104 -2.8733  1.1337 -1.5617
  463MOL0     H62443  10.392   0.947   4.980 -0.4296 -1.2594  0.9859
  463MOL0     H62444  10.264   1.115   4.842  0.9573  0.3413  0.4547
  463MOL0     H62445  10.128   1.077   4.953  0.7148  0.9658  0.5930
  463MOL0     H62446  10.293   0.887   4.774  0.0924 -0.8166 -0.9004
  463MOL0     H62447  10.170   0.825   4.882 -1.5674  0.0179 -2.3046
  463MOL0     H62448   9.992   0.955   4.758 -0.4543 -2.2021  0.2097
  463MOL0     H62449  10.112   1.033   4.667 -4.0490  1.7123 -0.1157
  463MOL0     H62450  10.172   0.799   4.577 -0.1011  0.1925 -0.3465
  463MOL0     H62451  10.040   0.741   4.672 -1.4070  1.5795  1.5126
  463MOL0     H62452  10.002   0.950   4.455  1.7197  0.1352  0.8627
  463MOL0     H62453   9.881   0.895   4.552 -0.7019  0.0425  0.5751
  463MOL0     H62454   9.856   0.696   4.481 -2.8535 -0.5147 -4.0152
  463MOL0     H62455   9.892   0.801   4.342 -2.3002 -0.7963  1.8668
  463MOL0     H62456  10.143   0.757   4.238  1.0496 -0.3340 -1.6539
  463MOL0     H62457  10.363   0.407   4.261 -2.3384 -1.2290 -1.1216
  463MOL0     H62458  10.328   0.508   4.118 -2.8845  1.8663  0.0971
  463MOL0     H62459  10.433   0.707   4.238 -2.1428  0.8285  2.0432
  463MOL0     H62460  10.476   0.602   4.375  0.3372  2.0113 -0.8328
  463MOL0     H62461  10.570   0.568   4.096  0.5152  0.4608  0.4811
  463MOL0     H62462  10.609   0.462   4.232 -5.5502 -0.2451  0.7542
  463MOL0     H62463  10.796   0.619   4.143 -0.2391  3.3764 -1.5468
  463MOL0     H62464  10.758   0.642   4.319 -3.4980 -0.0589  0.9061
  463MOL0     H62465  10.688   0.993   4.055 -0.4110 -0.3445  0.9752
  463MOL0     H62466  10.852   1.181   4.066 -1.5692  0.1517  1.6213
  463MOL0     H62467  11.288   1.362   4.265  0.9687 -0.7553  0.4042
  463MOL0     H62468  11.404   1.592   4.239 -1.2182  1.5877  1.6493
  463MOL0     H62469  11.150   1.857   4.146 -0.6540 -1.0593 -4.0792
  463MOL0     H62470  11.284   1.956   4.182  1.3057 -0.9576 -0.4404
  463MOL0     H62471  11.109   1.917   3.937 -2.2058  2.5551  1.0541
  463MOL0     H62472  11.175   2.058   4.014 -0.7573  0.1247 -0.4420
  463MOL0     H62473  11.383   2.039   3.899 -0.2767 -0.8363  0.4471
  463MOL0     H62474  11.338   1.863   3.881 -1.2205 -0.4819  2.6771
  463MOL0     H62475  11.318   2.067   3.698  2.0096 -0.1298  3.1250
  463MOL0     H62476  11.156   2.068   3.759  0.3478  0.3617 -3.4159
  463MOL0     H62477  11.097   1.948   3.607  2.0556 -0.1052 -2.8339
  463MOL0     H62478  11.125   1.818   3.720 -5.1630  2.0954 -0.2602
  463MOL0     H62479  11.228   1.779   3.508 -1.1520 -1.4884  2.0691
  463MOL0     H62480  11.334   1.930   3.516  2.3124 -2.6042 -1.5614
  463MOL0     H62481  11.360   1.696   3.705  0.0813  0.2283 -0.2924
  463MOL0     H62482  11.476   1.830   3.686  1.5988  1.1364 -1.8577
  463MOL0     H62483  11.500   1.776   3.435  0.8176  1.7232  1.5105
  463MOL0     H62484  11.555   1.639   3.531  0.0749 -0.1378 -3.1239
  463MOL0     H62485  11.102   1.711   3.971 -1.4324  1.1748  1.4379
  463MOL0     H62486  11.004   1.471   3.969 -0.3649 -0.6486  0.4621
  463MOL0     H62487  11.102   0.945   4.324 -1.2910 -0.5087  2.3012
  463MOL0     H62488  10.929   0.774   4.330  0.9565 -0.7778 -1.3619
  463MOL0     H62489  10.348   1.065   5.375  2.0386  0.5479 -2.3504
  463MOL0     H62490  10.402   1.190   5.595  1.6831 -0.3335  0.3478
  463MOL0     H62491  10.289   1.670   5.758 -1.2815  2.7587  0.6225
  463MOL0     H62492  10.361   1.847   5.901 -0.1218 -1.0925  0.5315
  463MOL0     H62493  10.604   1.792   6.267  0.2136  1.3573 -1.8922
  463MOL0     H62494  10.446   1.722   6.317 -0.4302  1.9179  0.3827
  463MOL0     H62495  10.486   2.015   6.323 -1.5912 -0.2431 -2.8425
  463MOL0     H62496  10.523   1.911   6.457  1.4871 -1.5827 -1.0358
  463MOL0     H62497  10.248   1.918   6.325  0.0950  4.5177 -0.9926
  463MOL0     H62498  10.282   2.032   6.449 -1.1039 -1.2844  1.7632
  463MOL0     H62499  10.319   1.832   6.610 -0.9532 -2.1364  0.4431
  463MOL0     H62500  10.158   1.876   6.565  0.0678  0.2797 -0.4026
  463MOL0     H62501  10.175   1.513   6.346  1.7489 -2.2957  2.3155
  463MOL0     H62502  10.531   1.561   6.187 -0.0994 -2.5919 -0.7131
  463MOL0     H62503  10.438   1.277   6.039  0.5442 -0.5208 -1.8519
  463MOL0     H62504  10.580   1.334   5.957 -2.6165  0.9781 -2.5909
  463MOL0     H62505  10.550   1.346   6.140 -2.9680  0.7788  1.2287
  464MOL0     O62506   4.715   9.810   2.903  0.4998  0.3404  1.2520
  464MOL0     C62507   4.751   9.898   2.982 -1.2980  1.3045 -0.2484
  464MOL0     O62508   4.737   9.885   3.117  0.3746  0.1468  1.0609
  464MOL0     C62509   4.683   9.763   3.167 -0.5720 -0.2695 -0.4526
  464MOL0     C62510   4.572   9.772   3.252 -0.9790  0.7262  0.1564
  464MOL0     C62511   4.515   9.646   3.308  1.1453 -0.1168 -0.6808
  464MOL0     C62512   4.573   9.526   3.289  1.0802 -0.2935  0.1891
  464MOL0     O62513   4.525   9.406   3.336  0.4457  0.0909 -0.5382
  464MOL0     C62514   4.399   9.352   3.294 -0.4407 -0.1181 -0.5044
  464MOL0     C62515   4.373   9.342   3.141 -0.5762 -0.5190 -0.4366
  464MOL0     C62516   4.247   9.272   3.105 -0.2761  0.3966  0.8437
  464MOL0     C62517   4.246   9.123   3.134 -0.0198  0.1281 -0.5261
  464MOL0     C62518   4.303   9.048   3.019 -0.5917  0.3872 -0.1293
  464MOL0     C62519   4.214   9.040   2.896  0.9168 -0.6867  0.1146
  464MOL0     C62520   4.255   8.946   2.789  0.1707 -0.6487  0.1690
  464MOL0     C62521   4.162   8.960   2.663 -0.3268  0.2332  0.4680
  464MOL0     N62522   4.021   8.929   2.669 -0.2655 -0.2257 -0.2617
  464MOL0     C62523   3.967   8.806   2.678 -0.9913  0.6009 -0.0576
  464MOL0     C62524   3.832   8.823   2.661 -0.1410 -0.0309  0.5579
  464MOL0     C62525   3.724   8.729   2.678 -1.0194 -0.5450  0.0272
  464MOL0     C62526   3.702   8.652   2.546 -1.1191 -0.9071  0.0429
  464MOL0     C62527   3.603   8.538   2.551 -0.8532 -0.6200  0.8476
  464MOL0     C62528   3.595   8.462   2.425  1.1877  0.9095  0.8883
  464MOL0     O62529   3.715   8.394   2.395  0.4494 -0.4173  0.8953
  464MOL0     C62530   3.716   8.331   2.273  0.1425  0.2940  0.2521
  464MOL0     C62531   3.844   8.282   2.234 -0.6548 -0.6164  0.2857
  464MOL0     C62532   3.869   8.216   2.117 -0.4496 -0.2834  0.1601
  464MOL0     C62533   3.761   8.202   2.024  0.2212 -0.1580  0.2954
  464MOL0     C62534   3.796   8.164   1.884  0.4484 -0.6559 -0.4903
  464MOL0     O62535   3.923   8.209   1.858 -0.0442 -0.5016 -0.3337
  464MOL0     C62536   3.965   8.191   1.740  0.7019  0.6303  0.9312
  464MOL0     C62537   4.023   8.064   1.715 -0.1144 -0.1776  0.0812
  464MOL0     C62538   4.053   8.019   1.587  0.7198 -0.1109 -0.6822
  464MOL0     C62539   4.045   8.105   1.479 -0.3633 -0.1922  0.2526
  464MOL0     O62540   4.098   8.081   1.350  0.2127  0.2843 -0.0498
  464MOL0     C62541   4.106   7.948   1.301  0.5574  0.6742 -0.1237
  464MOL0     C62542   3.975   7.887   1.255  0.0146  0.6534  0.1018
  464MOL0     C62543   3.988   7.775   1.155 -0.3279 -0.2190 -1.1476
  464MOL0     C62544   3.848   7.709   1.157  0.4323 -0.5920 -0.0668
  464MOL0     C62545   3.816   7.607   1.047 -0.3159 -0.8088  0.3563
  464MOL0     C62546   3.920   7.480   1.050  0.2704  0.1321 -0.2010
  464MOL0     C62547   3.872   7.366   0.960 -0.1152 -0.3331 -0.0955
  464MOL0     C62548   3.921   7.383   0.804  0.2405  0.5530 -0.2392
  464MOL0    Cl62549   3.892   7.544   0.739 -0.1203  0.0634  0.1548
  464MOL0     C62550   3.991   8.233   1.509  0.5625 -0.1547  0.0314
  464MOL0     C62551   3.946   8.279   1.631 -0.0802 -0.0841  0.3833
  464MOL0     O62552   3.714   8.117   1.803 -0.0750  0.6399  0.4749
  464MOL0     C62553   3.635   8.260   2.055  0.7658 -0.5983 -0.6970
  464MOL0     C62554   3.603   8.307   2.186  0.2240  0.8640 -0.9445
  464MOL0     N62555   3.811   8.961   2.653 -0.3648 -0.0112 -1.1293
  464MOL0     N62556   3.925   9.020   2.646 -0.7783  0.1454  1.2504
  464MOL0     C62557   4.683   9.520   3.207  0.6308  1.0402  0.4433
  464MOL0     C62558   4.737   9.635   3.137 -0.6181 -0.2223  0.9755
  464MOL0     C62559   4.806  10.024   2.933  0.1830  0.8234 -0.1088
  464MOL0     C62560   4.885  10.099   3.027  0.6034  0.0211 -1.1294
  464MOL0     C62561   4.950  10.209   2.979  1.1047  0.3167  0.2617
  464MOL0     C62562   4.934  10.254   2.847 -0.1825  0.8098  0.1303
  464MOL0     O62563   5.000  10.377   2.815 -0.3627 -0.6284  0.3674
  464MOL0     C62564   5.071  10.381   2.689  0.7408 -0.3721 -1.0413
  464MOL0     C62565   5.162  10.253   2.663  0.1465  0.3173  0.2194
  464MOL0     C62566   5.259  10.273   2.560 -0.3780  0.1109 -0.1672
  464MOL0     C62567   5.329  10.141   2.526  0.2223  0.1424 -0.9223
  464MOL0     C62568   5.413  10.151   2.407  0.2732  0.0154  0.5181
  464MOL0     C62569   5.480  10.162   2.302 -0.4045  0.5730  0.1639
  464MOL0     C62570   4.857  10.186   2.758  0.5848 -0.5399  0.4401
  464MOL0     C62571   4.797  10.071   2.798 -0.8329  0.6069 -0.6806
  464MOL0     C62572   4.705  10.009   2.701 -0.0116  0.0743  0.6688
  464MOL0     H62573   4.541   9.874   3.266  1.7946  1.7126 -0.1368
  464MOL0     H62574   4.420   9.642   3.360  0.7537  1.8395 -1.1756
  464MOL0     H62575   4.394   9.249   3.328  1.4343 -0.0855  0.0225
  464MOL0     H62576   4.320   9.410   3.343  0.2790  0.2864  0.2068
  464MOL0     H62577   4.458   9.292   3.094  1.6808  1.2551  1.5675
  464MOL0     H62578   4.373   9.436   3.086  2.1996 -0.8272 -1.1138
  464MOL0     H62579   4.237   9.287   2.997  0.8639  0.1190  0.6809
  464MOL0     H62580   4.164   9.315   3.162  0.5371  2.8348  0.3349
  464MOL0     H62581   4.312   9.098   3.218 -0.9688  0.4582  0.3536
  464MOL0     H62582   4.149   9.089   3.171  0.5922 -1.4252 -0.2614
  464MOL0     H62583   4.406   9.085   3.011 -0.0576  0.1164  3.5623
  464MOL0     H62584   4.315   8.951   3.070 -2.0567  2.8024  5.7160
  464MOL0     H62585   4.111   9.019   2.926  0.2261  4.1165  2.1059
  464MOL0     H62586   4.214   9.140   2.850 -3.0720  0.9409  3.0651
  464MOL0     H62587   4.244   8.845   2.830 -0.0561 -1.0973 -0.9637
  464MOL0     H62588   4.356   8.970   2.755 -0.1786  2.0756  0.8151
  464MOL0     H62589   4.164   9.065   2.634 -1.9522 -0.1519 -1.2472
  464MOL0     H62590   4.218   8.899   2.591  1.5670  3.6593 -1.2172
  464MOL0     H62591   4.031   8.719   2.690  0.8987  1.9006 -0.3176
  464MOL0     H62592   3.746   8.652   2.752  1.0968 -0.2987 -0.2961
  464MOL0     H62593   3.633   8.787   2.698  0.0892  1.3614 -0.1446
  464MOL0     H62594   3.686   8.723   2.464  0.4558  0.0332  0.5113
  464MOL0     H62595   3.800   8.609   2.525  0.0877  0.9258  1.5686
  464MOL0     H62596   3.501   8.576   2.563 -0.5763  0.3980  0.0845
  464MOL0     H62597   3.617   8.472   2.637 -1.2115  0.4620  1.7603
  464MOL0     H62598   3.577   8.529   2.340 -1.0460  0.3482  0.8562
  464MOL0     H62599   3.510   8.393   2.416  0.4135  1.7262  1.6847
  464MOL0     H62600   3.929   8.314   2.293 -2.9029  0.0687  3.4729
  464MOL0     H62601   3.972   8.198   2.089 -0.0882  1.6690  0.0495
  464MOL0     H62602   4.037   7.990   1.793  0.8275  0.8209  0.8862
  464MOL0     H62603   4.064   7.911   1.581 -0.3574 -0.2476 -0.5171
  464MOL0     H62604   4.177   7.930   1.220  1.3661 -0.6917  0.8428
  464MOL0     H62605   4.141   7.879   1.379 -1.0117  0.2127  0.2207
  464MOL0     H62606   3.925   7.855   1.346  1.6928  1.2485  1.2761
  464MOL0     H62607   3.909   7.964   1.215  0.5876 -0.0642 -2.4123
  464MOL0     H62608   4.002   7.795   1.049 -0.1900 -2.7292 -1.6687
  464MOL0     H62609   4.073   7.714   1.187  1.4859  1.6829 -2.1105
  464MOL0     H62610   3.779   7.791   1.137  3.6362  1.1068 -7.3311
  464MOL0     H62611   3.841   7.655   1.252  0.7020 -2.4435 -1.0534
  464MOL0     H62612   3.826   7.652   0.948  0.9395  0.2168  0.9154
  464MOL0     H62613   3.715   7.568   1.061 -2.2060  3.4636  0.2087
  464MOL0     H62614   4.026   7.499   1.033  0.4634 -0.2855  0.5023
  464MOL0     H62615   3.926   7.429   1.147  2.2229 -1.0654 -0.9018
  464MOL0     H62616   3.763   7.362   0.969 -0.2958  0.1465 -1.6384
  464MOL0     H62617   3.912   7.272   1.000  0.3405 -2.8034 -5.4336
  464MOL0     H62618   4.023   7.350   0.785  0.2524 -0.8978  1.9143
  464MOL0     H62619   3.863   7.306   0.751  3.1667 -2.2268  0.2796
  464MOL0     H62620   3.972   8.295   1.421 -1.0059 -1.3976 -0.5491
  464MOL0     H62621   3.893   8.373   1.635 -1.4532 -0.8989  2.6820
  464MOL0     H62622   3.561   8.269   1.977  1.6808 -1.5108 -1.7057
  464MOL0     H62623   3.509   8.344   2.223  0.8652  0.0480  1.7309
  464MOL0     H62624   4.712   9.424   3.166  0.5067  0.8896  0.6993
  464MOL0     H62625   4.811   9.618   3.059 -1.8152 -3.0234  0.3140
  464MOL0     H62626   4.893  10.078   3.133  0.4814  0.6132 -0.9973
  464MOL0     H62627   5.016  10.266   3.044  1.7932  0.4944 -0.5709
  464MOL0     H62628   5.131  10.473   2.689  0.8518 -0.4438 -0.7983
  464MOL0     H62629   4.996  10.387   2.610 -0.4413 -4.0717 -0.4256
  464MOL0     H62630   5.092  10.178   2.627 -0.6021  0.6757  0.8952
  464MOL0     H62631   5.223  10.218   2.747 -0.1207 -4.1476 -1.2250
  464MOL0     H62632   5.330  10.346   2.601  0.5867  0.9069 -2.9725
  464MOL0     H62633   5.210  10.305   2.467  0.3540 -0.6095 -0.8233
  464MOL0     H62634   5.397  10.109   2.605 -2.5890 -1.9195  0.8509
  464MOL0     H62635   5.258  10.058   2.536  0.7750 -0.0169  3.3612
  464MOL0     H62636   5.552  10.166   2.223  0.6868  4.5647  1.1083
  464MOL0     H62637   4.848  10.221   2.655 -1.2623  0.0401  0.7619
  464MOL0     H62638   4.610   9.974   2.741  0.3918  0.5552  2.1304
  464MOL0     H62639   4.688  10.072   2.614 -2.6099 -2.1869 -0.5985
  464MOL0     H62640   4.748   9.921   2.651 -1.3916  1.4838 -3.3940
  465MOL0     O62641   0.929   3.449   1.966 -0.8824  0.1025  0.0106
  465MOL0     C62642   0.831   3.507   1.928  0.1299 -0.0825  0.3812
  465MOL0     O62643   0.718   3.537   2.001 -0.6202 -0.1682  0.1106
  465MOL0     C62644   0.714   3.499   2.130 -0.3093 -0.1350  0.2457
  465MOL0     C62645   0.716   3.584   2.247 -0.5329 -0.8181  0.5400
  465MOL0     C62646   0.720   3.533   2.375  0.3909  0.7825  0.0250
  465MOL0     C62647   0.683   3.400   2.394 -0.7496 -0.3422 -0.2985
  465MOL0     O62648   0.678   3.347   2.521 -0.5008 -0.0958 -0.2045
  465MOL0     C62649   0.567   3.258   2.555 -1.4786 -0.5150 -0.1878
  465MOL0     C62650   0.585   3.184   2.688 -0.5499 -0.5938 -0.1529
  465MOL0     C62651   0.696   3.080   2.658  0.7608 -0.4651 -0.2583
  465MOL0     C62652   0.734   3.008   2.781  0.4936  1.4178 -0.4205
  465MOL0     C62653   0.847   2.907   2.775  0.4449 -0.5256  0.2245
  465MOL0     C62654   0.808   2.799   2.675  0.8242 -0.1088  0.2703
  465MOL0     C62655   0.903   2.682   2.676 -0.8701  0.4003  0.1812
  465MOL0     C62656   0.947   2.631   2.820  0.4314  0.5361 -0.2708
  465MOL0     N62657   1.018   2.507   2.812 -0.5961 -1.4076 -0.5184
  465MOL0     C62658   0.974   2.381   2.840 -0.2704  1.2466  0.2691
  465MOL0     C62659   1.083   2.301   2.830 -0.4235  0.5710  0.6322
  465MOL0     C62660   1.070   2.152   2.844  0.8210  0.5157  0.5258
  465MOL0     C62661   1.049   2.092   2.704  0.6121 -0.9177  0.4113
  465MOL0     C62662   1.016   1.937   2.724  0.0513 -0.2777 -0.0062
  465MOL0     C62663   1.022   1.859   2.597  0.2269  0.2142 -0.2029
  465MOL0     O62664   0.903   1.780   2.560 -0.3265 -0.6103  0.5660
  465MOL0     C62665   0.928   1.686   2.465 -0.3207  0.1879  0.0274
  465MOL0     C62666   0.822   1.593   2.449 -0.4019 -0.1071 -1.3639
  465MOL0     C62667   0.819   1.494   2.350  0.6418  0.8476 -0.3143
  465MOL0     C62668   0.942   1.466   2.285 -0.0304 -0.8496 -0.2619
  465MOL0     C62669   0.954   1.342   2.205 -0.3942 -1.2465  0.9846
  465MOL0     O62670   1.081   1.293   2.183  0.2732  0.3502 -0.0602
  465MOL0     C62671   1.088   1.176   2.110 -0.4482  0.7958  0.0515
  465MOL0     C62672   1.035   1.060   2.158 -0.7457  1.5149  0.9379
  465MOL0     C62673   1.025   0.941   2.080  0.7697 -0.2223  0.0661
  465MOL0     C62674   1.061   0.948   1.941  0.2285  0.1959  0.7911
  465MOL0     O62675   1.048   0.846   1.848 -0.7962 -0.6291 -0.1017
  465MOL0     C62676   0.948   0.747   1.857 -0.6499  0.6269  1.0991
  465MOL0     C62677   0.807   0.804   1.832 -1.7199 -0.5297  0.5345
  465MOL0     C62678   0.702   0.700   1.804 -0.0661  0.2182 -0.0230
  465MOL0     C62679   0.567   0.769   1.813  0.2262 -0.7954  0.7039
  465MOL0     C62680   0.449   0.679   1.777 -0.4794 -0.1135 -0.5992
  465MOL0     C62681   0.316   0.742   1.807 -0.5099 -0.1532  0.1298
  465MOL0     C62682   0.188   0.666   1.761 -0.2677  0.6811 -0.0164
  465MOL0     C62683   0.063   0.733   1.819  0.6397 -0.1445 -0.5091
  465MOL0    Cl62684  -0.068   0.654   1.755  0.3113 -0.2428  0.4856
  465MOL0     C62685   1.130   1.064   1.900 -0.0526 -0.8691  0.5843
  465MOL0     C62686   1.139   1.173   1.984  0.0335 -0.5063 -0.6275
  465MOL0     O62687   0.848   1.310   2.149 -0.1998  0.2627 -0.6510
  465MOL0     C62688   1.049   1.553   2.302  0.0691  0.0613 -0.1148
  465MOL0     C62689   1.046   1.664   2.382  0.5117  0.4332 -0.5044
  465MOL0     N62690   1.195   2.374   2.796  0.4677  0.2874 -0.3856
  465MOL0     N62691   1.160   2.494   2.792  0.7594 -0.2391 -0.6583
  465MOL0     C62692   0.663   3.318   2.283 -0.3836 -0.5941 -1.1850
  465MOL0     C62693   0.688   3.370   2.152 -0.2759  0.0780 -0.5842
  465MOL0     C62694   0.815   3.562   1.793 -0.1985 -0.2649  0.3342
  465MOL0     C62695   0.776   3.697   1.787  0.8410 -0.3954  0.2946
  465MOL0     C62696   0.748   3.759   1.665 -0.4432 -0.1174  0.4905
  465MOL0     C62697   0.744   3.679   1.548 -0.3957  0.6471 -0.6572
  465MOL0     O62698   0.721   3.742   1.427 -0.1895  0.2489  0.1790
  465MOL0     C62699   0.710   3.668   1.310 -0.8728 -0.2048  0.0216
  465MOL0     C62700   0.686   3.778   1.201 -0.8515 -0.0227 -0.0361
  465MOL0     C62701   0.656   3.719   1.067 -0.4256 -0.0415 -0.2190
  465MOL0     C62702   0.495   3.699   1.042  0.3400 -0.1061  0.0166
  465MOL0     C62703   0.425   3.828   1.064 -0.5210 -0.0796  0.4584
  465MOL0     C62704   0.366   3.938   1.096  0.3265  0.4664  0.2418
  465MOL0     C62705   0.777   3.541   1.563  0.5800 -0.1850  1.0982
  465MOL0     C62706   0.818   3.486   1.675 -1.1531 -0.4735  0.7682
  465MOL0     C62707   0.856   3.340   1.671  0.0315  0.4023  0.1649
  465MOL0     H62708   0.726   3.692   2.240  1.4879 -0.9037  1.1969
  465MOL0     H62709   0.745   3.585   2.468  2.0676  2.5552 -1.3407
  465MOL0     H62710   0.475   3.317   2.556  1.3282  4.4189  0.5191
  465MOL0     H62711   0.559   3.181   2.478 -1.0943  0.9848 -1.7699
  465MOL0     H62712   0.491   3.133   2.709 -0.0346 -1.3482  0.4307
  465MOL0     H62713   0.612   3.257   2.765 -1.8791  2.1076 -2.0768
  465MOL0     H62714   0.783   3.137   2.624  1.3007 -1.1792 -0.1091
  465MOL0     H62715   0.664   3.015   2.576  2.1717 -1.8599  0.2329
  465MOL0     H62716   0.762   3.068   2.869  0.2060 -0.6211  1.1436
  465MOL0     H62717   0.648   2.951   2.818  0.9701  1.7504  1.2806
  465MOL0     H62718   0.943   2.956   2.759 -0.8093  1.3695 -2.3254
  465MOL0     H62719   0.872   2.870   2.875  1.5320  0.2986  0.2744
  465MOL0     H62720   0.705   2.768   2.697  1.1165 -1.4123 -0.0630
  465MOL0     H62721   0.803   2.832   2.571  0.5521 -0.9589 -0.0011
  465MOL0     H62722   0.991   2.711   2.618 -0.6705 -2.6953 -1.2566
  465MOL0     H62723   0.861   2.594   2.625  0.8643 -1.5063  1.8494
  465MOL0     H62724   1.017   2.708   2.855 -0.7390  1.0801  0.9273
  465MOL0     H62725   0.867   2.617   2.893  0.3684 -3.3277 -0.8525
  465MOL0     H62726   0.870   2.350   2.840  0.3846 -1.1968  1.3555
  465MOL0     H62727   1.154   2.102   2.893  2.6184  4.1665  1.4726
  465MOL0     H62728   0.983   2.127   2.907 -0.9797  2.9222 -0.8279
  465MOL0     H62729   0.970   2.143   2.648  0.0234 -0.5050  1.5778
  465MOL0     H62730   1.145   2.105   2.652  0.3289 -0.0236  0.0989
  465MOL0     H62731   0.913   1.938   2.761  0.6393 -0.5349  1.7195
  465MOL0     H62732   1.091   1.909   2.798  0.8753  0.1345 -0.6687
  465MOL0     H62733   1.110   1.794   2.599  0.5488  0.5280 -1.9651
  465MOL0     H62734   1.043   1.930   2.516  0.6364  1.0471  0.6224
  465MOL0     H62735   0.730   1.616   2.501  0.7439  3.2954 -0.5539
  465MOL0     H62736   0.738   1.424   2.334 -0.4481  2.3409 -1.6963
  465MOL0     H62737   0.991   1.057   2.257 -2.1510  2.6937  0.3875
  465MOL0     H62738   0.960   0.862   2.117  0.4207 -0.7685 -1.6159
  465MOL0     H62739   0.966   0.672   1.780  0.0313 -0.0606  1.9101
  465MOL0     H62740   0.958   0.690   1.950  0.5466  0.6317  0.9846
  465MOL0     H62741   0.787   0.870   1.917  0.9844 -0.3318  1.0984
  465MOL0     H62742   0.824   0.868   1.745  0.4877 -0.5608  0.8751
  465MOL0     H62743   0.708   0.646   1.709 -3.8731 -0.9700  0.2700
  465MOL0     H62744   0.707   0.619   1.877 -0.9613 -0.3964 -0.6374
  465MOL0     H62745   0.558   0.842   1.732 -0.9026 -1.9606 -0.2724
  465MOL0     H62746   0.551   0.825   1.906  1.5961 -1.7797  1.5675
  465MOL0     H62747   0.455   0.590   1.840  3.6927 -1.1021 -2.0598
  465MOL0     H62748   0.464   0.636   1.678  1.1894 -1.3935  0.1473
  465MOL0     H62749   0.309   0.754   1.916 -0.8962  4.2922 -0.2119
  465MOL0     H62750   0.315   0.845   1.771 -1.0874 -0.2543 -0.1520
  465MOL0     H62751   0.197   0.562   1.794  1.1773  0.6622 -0.4255
  465MOL0     H62752   0.174   0.654   1.653 -2.6273 -3.0210  0.5145
  465MOL0     H62753   0.071   0.728   1.928 -0.0371  1.7688 -0.3391
  465MOL0     H62754   0.065   0.836   1.782 -1.2333 -0.6437 -2.2115
  465MOL0     H62755   1.182   1.060   1.805 -2.3482  0.6735 -0.8445
  465MOL0     H62756   1.186   1.260   1.939 -0.8681  1.7968  2.5291
  465MOL0     H62757   1.139   1.535   2.244 -1.0673  0.6059 -2.1592
  465MOL0     H62758   1.139   1.716   2.402  0.4372  0.6382 -0.6895
  465MOL0     H62759   0.629   3.215   2.288 -1.1770 -0.4644 -3.1217
  465MOL0     H62760   0.665   3.303   2.070  1.5135 -2.7174  1.0458
  465MOL0     H62761   0.761   3.754   1.878 -0.1976  0.3807 -0.3448
  465MOL0     H62762   0.731   3.866   1.659  0.9716  0.0553 -1.7901
  465MOL0     H62763   0.630   3.597   1.331  0.9331 -2.2505  0.2334
  465MOL0     H62764   0.807   3.624   1.287  0.4162  2.4045  0.1429
  465MOL0     H62765   0.782   3.830   1.205  2.0776 -4.8834  1.7233
  465MOL0     H62766   0.603   3.839   1.237 -1.6812 -1.2965  0.3129
  465MOL0     H62767   0.710   3.630   1.032  2.0945  1.6532 -0.9190
  465MOL0     H62768   0.683   3.802   1.001  0.7886  0.1110  0.4364
  465MOL0     H62769   0.467   3.678   0.938 -2.7696  1.7425  0.3582
  465MOL0     H62770   0.463   3.616   1.105 -1.1194  0.4647  0.0685
  465MOL0     H62771   0.324   4.032   1.121  1.3121  1.7806 -2.5593
  465MOL0     H62772   0.776   3.493   1.466  0.1777 -0.7286  1.3592
  465MOL0     H62773   0.825   3.294   1.576 -1.4048  0.3449  0.6339
  465MOL0     H62774   0.965   3.336   1.681 -0.1766 -0.2776  2.9707
  465MOL0     H62775   0.807   3.280   1.748 -1.8008 -0.8450 -1.8569
  466MOL0     O62776   6.509   7.012   0.673  1.1188  0.0585  0.3883
  466MOL0     C62777   6.617   6.955   0.688 -0.2528  0.5451 -1.4546
  466MOL0     O62778   6.650   6.869   0.791 -0.2937 -0.2471 -1.0419
  466MOL0     C62779   6.554   6.841   0.889 -0.0556 -0.7165  0.0052
  466MOL0     C62780   6.511   6.710   0.898 -1.0662 -0.7213 -0.5108
  466MOL0     C62781   6.399   6.682   0.976  0.4558 -0.1069  0.5138
  466MOL0     C62782   6.333   6.778   1.051 -0.5372 -0.2308  0.8304
  466MOL0     O62783   6.227   6.730   1.132  0.2063 -0.1101  0.9791
  466MOL0     C62784   6.149   6.807   1.220 -0.4852 -0.2664 -0.4134
  466MOL0     C62785   6.084   6.715   1.328 -0.6787 -0.7530  0.6544
  466MOL0     C62786   5.966   6.781   1.408  1.1977 -0.5613  0.4175
  466MOL0     C62787   5.888   6.689   1.501  0.0760 -0.5474  0.2662
  466MOL0     C62788   5.771   6.755   1.570 -0.2353 -0.0943 -0.1941
  466MOL0     C62789   5.686   6.650   1.640 -0.2283  0.6708  0.5160
  466MOL0     C62790   5.541   6.705   1.663  0.7971  0.5500 -0.0960
  466MOL0     C62791   5.441   6.602   1.731 -1.1068  0.1213  0.1494
  466MOL0     N62792   5.382   6.501   1.644 -0.2779  0.5690  0.1933
  466MOL0     C62793   5.322   6.523   1.524 -0.4740 -0.2295  0.7262
  466MOL0     C62794   5.311   6.403   1.463 -0.3110 -1.4420 -0.8288
  466MOL0     C62795   5.243   6.360   1.341  0.4732  0.4042 -0.3461
  466MOL0     C62796   5.127   6.442   1.279  1.5012  0.1239  0.3066
  466MOL0     C62797   4.994   6.388   1.345 -0.4351  0.1277 -0.1230
  466MOL0     C62798   4.890   6.399   1.248  0.1166  0.8056 -0.3717
  466MOL0     O62799   4.762   6.427   1.307 -0.8256 -0.8685  0.7332
  466MOL0     C62800   4.646   6.441   1.230 -0.9874 -0.2996 -0.4818
  466MOL0     C62801   4.648   6.464   1.082  0.2183 -1.1617  0.1828
  466MOL0     C62802   4.528   6.475   1.023  0.1428  0.1119  0.9709
  466MOL0     C62803   4.402   6.473   1.080 -0.0654 -0.5136 -0.4789
  466MOL0     C62804   4.275   6.488   0.987 -0.5242  0.3224  0.1118
  466MOL0     O62805   4.293   6.492   0.841  0.1125  0.1134  0.0422
  466MOL0     C62806   4.186   6.484   0.758 -0.1827 -0.7050 -0.0903
  466MOL0     C62807   4.164   6.574   0.652 -0.3786 -0.2511  0.1736
  466MOL0     C62808   4.069   6.567   0.563  0.0240 -0.2033 -0.6377
  466MOL0     C62809   3.978   6.463   0.588  0.4916  0.0963  0.2880
  466MOL0     O62810   3.869   6.457   0.502  0.0422 -0.2109 -0.0198
  466MOL0     C62811   3.779   6.349   0.493 -0.2399  0.9482  0.2666
  466MOL0     C62812   3.679   6.378   0.377 -0.1000 -0.3414 -0.9823
  466MOL0     C62813   3.652   6.242   0.303  0.0280 -0.4817  0.0137
  466MOL0     C62814   3.565   6.156   0.396  0.6169 -0.6572 -0.1086
  466MOL0     C62815   3.496   6.044   0.317  0.2659 -0.5647 -0.2689
  466MOL0     C62816   3.370   6.097   0.250 -0.7271 -0.3556  0.9636
  466MOL0     C62817   3.302   5.997   0.159 -0.8215 -0.0374  0.2203
  466MOL0     C62818   3.305   6.038   0.011  0.5475  0.1584  0.3800
  466MOL0    Cl62819   3.187   5.942  -0.084 -0.3415  0.2481 -0.1077
  466MOL0     C62820   3.988   6.370   0.689 -0.2319 -0.3018  0.8139
  466MOL0     C62821   4.089   6.390   0.781 -0.8306  0.4551  0.0913
  466MOL0     O62822   4.170   6.472   1.040 -0.1060  0.0162  0.2073
  466MOL0     C62823   4.400   6.445   1.216  0.9040  0.3865  0.2618
  466MOL0     C62824   4.518   6.433   1.294 -0.4675 -0.3494  0.4494
  466MOL0     N62825   5.365   6.307   1.553 -0.2568 -0.2320  0.6315
  466MOL0     N62826   5.415   6.367   1.648  0.2470  0.2815 -1.4859
  466MOL0     C62827   6.378   6.909   1.054 -0.8082 -0.3286 -0.0962
  466MOL0     C62828   6.493   6.939   0.978  0.2040 -0.0386 -0.0715
  466MOL0     C62829   6.730   6.973   0.583  0.0158  0.0891  0.0297
  466MOL0     C62830   6.857   6.931   0.626  0.0626  0.7082  0.2426
  466MOL0     C62831   6.957   6.915   0.536  0.4282  0.0774  0.6196
  466MOL0     C62832   6.934   6.947   0.400 -0.9737 -0.9036 -1.1362
  466MOL0     O62833   7.023   6.951   0.302  0.1385  0.0405 -0.9761
  466MOL0     C62834   7.111   6.839   0.296 -0.5333 -0.5806 -0.4694
  466MOL0     C62835   7.231   6.876   0.203  0.8114  0.1111  0.2556
  466MOL0     C62836   7.346   6.761   0.214 -0.6101 -0.5559 -0.0659
  466MOL0     C62837   7.432   6.787   0.085 -1.1112  0.6898  0.5266
  466MOL0     C62838   7.554   6.692   0.096  0.5214 -0.2741  0.3859
  466MOL0     C62839   7.640   6.615   0.123 -0.3610  0.4991  0.1320
  466MOL0     C62840   6.816   6.998   0.364  0.7846 -0.3782 -0.0737
  466MOL0     C62841   6.707   7.015   0.452 -0.5747  0.0690 -0.3757
  466MOL0     C62842   6.586   7.087   0.395 -0.6205  0.3884  0.1368
  466MOL0     H62843   6.568   6.634   0.846 -1.3933  0.4385 -2.6631
  466MOL0     H62844   6.379   6.575   0.986 -0.5681  0.1746  1.7726
  466MOL0     H62845   6.217   6.866   1.283 -0.8460 -0.5420  0.2422
  466MOL0     H62846   6.067   6.856   1.168 -2.8344 -3.1870  0.3038
  466MOL0     H62847   6.168   6.686   1.391  0.0304 -2.1884 -0.8775
  466MOL0     H62848   6.059   6.617   1.285  1.1520 -1.1171  0.3596
  466MOL0     H62849   5.894   6.825   1.339 -1.1126  1.0516  3.5703
  466MOL0     H62850   5.999   6.863   1.473 -1.2057  0.7193  0.1626
  466MOL0     H62851   5.852   6.598   1.453 -2.9961 -0.7709  2.6937
  466MOL0     H62852   5.957   6.649   1.576 -1.0248 -2.1052  0.4948
  466MOL0     H62853   5.828   6.820   1.638  0.8377 -0.8356 -0.3645
  466MOL0     H62854   5.715   6.821   1.503  1.8825 -0.7687 -2.7840
  466MOL0     H62855   5.677   6.556   1.584  2.1559  0.2010  0.8462
  466MOL0     H62856   5.728   6.623   1.737  1.4856  0.9094 -0.1296
  466MOL0     H62857   5.503   6.720   1.562 -1.9996 -3.1130  0.2081
  466MOL0     H62858   5.533   6.803   1.712 -2.2780  1.3721 -1.9659
  466MOL0     H62859   5.495   6.543   1.806  2.0657  1.5227 -0.8712
  466MOL0     H62860   5.356   6.664   1.760 -0.7248  0.6650  0.1082
  466MOL0     H62861   5.277   6.613   1.483 -2.3073 -1.4556 -0.1035
  466MOL0     H62862   5.318   6.359   1.261  0.8556  0.3205  0.0085
  466MOL0     H62863   5.207   6.258   1.358 -0.4811  0.9286  0.9385
  466MOL0     H62864   5.132   6.550   1.292 -3.6109  1.0575 -2.4979
  466MOL0     H62865   5.126   6.427   1.170  0.3731 -0.8531  0.4306
  466MOL0     H62866   4.959   6.449   1.429 -2.1614  0.4611 -1.0377
  466MOL0     H62867   4.996   6.285   1.383 -1.7916 -0.8839 -2.5390
  466MOL0     H62868   4.890   6.307   1.189 -0.8163 -0.6931  1.8698
  466MOL0     H62869   4.911   6.484   1.181 -0.4683  2.7807  1.8076
  466MOL0     H62870   4.740   6.487   1.029 -0.0741 -0.4979 -0.0398
  466MOL0     H62871   4.538   6.498   0.918  1.9645 -3.5525  0.1915
  466MOL0     H62872   4.244   6.647   0.641 -1.0237  0.3487 -0.6852
  466MOL0     H62873   4.055   6.643   0.486  1.3673  1.0716  0.3217
  466MOL0     H62874   3.819   6.249   0.476 -0.7656  0.4294  1.9267
  466MOL0     H62875   3.716   6.353   0.582  2.0472  3.2734  1.9517
  466MOL0     H62876   3.576   6.408   0.398  0.4993  0.0715  1.8441
  466MOL0     H62877   3.730   6.453   0.317  2.1881 -2.2124 -1.5303
  466MOL0     H62878   3.598   6.269   0.212 -0.4538 -2.8639 -0.4541
  466MOL0     H62879   3.736   6.180   0.269 -1.1333 -2.1301  0.0433
  466MOL0     H62880   3.492   6.217   0.449 -0.6847 -0.3444 -2.1726
  466MOL0     H62881   3.636   6.113   0.468  0.6522  3.7366  2.8785
  466MOL0     H62882   3.466   5.966   0.388 -2.0196 -2.0818 -2.6939
  466MOL0     H62883   3.564   6.001   0.243  1.8656 -0.3871  1.0545
  466MOL0     H62884   3.295   6.134   0.321 -3.0192 -1.4064 -0.7885
  466MOL0     H62885   3.405   6.183   0.191 -0.0252 -1.5752 -0.4547
  466MOL0     H62886   3.196   5.977   0.179 -0.5217 -4.7680 -1.6188
  466MOL0     H62887   3.347   5.900   0.182 -2.3467 -0.4218  1.8235
  466MOL0     H62888   3.269   6.141   0.007 -0.0345 -0.0163 -3.9403
  466MOL0     H62889   3.407   6.018  -0.026  0.0750 -0.1253 -0.8242
  466MOL0     H62890   3.900   6.307   0.702 -1.8674  2.2024  2.6713
  466MOL0     H62891   4.082   6.335   0.874  1.7040  0.6770  0.5046
  466MOL0     H62892   4.301   6.447   1.261  1.2268 -1.3537  1.1433
  466MOL0     H62893   4.501   6.395   1.394 -1.9016 -2.5938 -0.5805
  466MOL0     H62894   6.322   6.982   1.111  0.2131  2.1128 -2.0471
  466MOL0     H62895   6.532   7.040   0.980  0.8217 -0.2836  1.0060
  466MOL0     H62896   6.876   6.904   0.730 -0.2036 -4.0325 -0.7157
  466MOL0     H62897   7.051   6.871   0.567 -0.5300 -2.1913  0.5026
  466MOL0     H62898   7.045   6.760   0.258  0.1365 -0.9384 -0.8998
  466MOL0     H62899   7.144   6.814   0.397 -1.2158  1.5859  0.3582
  466MOL0     H62900   7.260   6.976   0.237  0.9526 -0.1298  0.8614
  466MOL0     H62901   7.183   6.872   0.105 -1.0795 -0.3398  1.1622
  466MOL0     H62902   7.300   6.662   0.219  0.2069 -0.9812 -0.6984
  466MOL0     H62903   7.399   6.790   0.305  2.8620 -1.5163 -1.6045
  466MOL0     H62904   7.376   6.762  -0.006  0.4271 -4.2305  0.6042
  466MOL0     H62905   7.472   6.889   0.082  3.8610 -0.9583  1.1001
  466MOL0     H62906   7.715   6.541   0.142 -0.1349  0.8791  0.7373
  466MOL0     H62907   6.816   7.029   0.260  0.2181  0.8528  0.2723
  466MOL0     H62908   6.628   7.166   0.332  1.0271 -0.1150  0.5557
  466MOL0     H62909   6.535   7.025   0.320 -1.1555  3.8764 -2.6157
  466MOL0     H62910   6.507   7.133   0.455 -0.4086  1.1073 -0.1291
  467MOL0     O62911   9.170   3.593   8.100 -0.0152 -0.4280 -0.5486
  467MOL0     C62912   9.220   3.491   8.149  0.2855  0.0004  0.0065
  467MOL0     O62913   9.269   3.474   8.278 -0.0887  0.4076 -0.5648
  467MOL0     C62914   9.289   3.581   8.362  0.7919 -0.3523 -0.0523
  467MOL0     C62915   9.328   3.708   8.325  1.2737 -0.7918 -0.0625
  467MOL0     C62916   9.377   3.802   8.419  0.7160  0.1060 -0.1217
  467MOL0     C62917   9.372   3.777   8.560 -0.0717  0.0767 -0.4970
  467MOL0     O62918   9.441   3.860   8.646  0.4844  0.1483 -0.3134
  467MOL0     C62919   9.401   3.871   8.783  0.5947  0.1900 -0.7153
  467MOL0     C62920   9.458   4.003   8.832 -1.0541 -0.2024  0.0018
  467MOL0     C62921   9.417   4.037   8.976  0.7008 -0.5631  0.4747
  467MOL0     C62922   9.505   4.153   9.019  0.1760 -0.7357  0.7757
  467MOL0     C62923   9.514   4.162   9.171  0.3812  0.5345  0.1584
  467MOL0     C62924   9.582   4.289   9.204  0.1505 -0.4427 -1.6068
  467MOL0     C62925   9.592   4.309   9.356  0.1268 -0.6031  0.7143
  467MOL0     C62926   9.650   4.456   9.369 -0.5567  0.9027  0.6487
  467MOL0     N62927   9.703   4.477   9.512 -0.1150  1.3788  0.1931
  467MOL0     C62928   9.626   4.454   9.617 -0.6942  0.3801 -1.4174
  467MOL0     C62929   9.702   4.516   9.717  0.0476 -0.0567 -1.0023
  467MOL0     C62930   9.646   4.540   9.852  0.3356  0.7282 -0.4591
  467MOL0     C62931   9.621   4.401   9.916 -0.2237 -0.3396  1.3130
  467MOL0     C62932   9.557   4.423  10.062  0.2155  0.6270 -0.6632
  467MOL0     C62933   9.406   4.412  10.060 -1.1916  0.2675  0.5514
  467MOL0     O62934   9.351   4.516   9.980  0.3733 -0.5136  0.2548
  467MOL0     C62935   9.297   4.495   9.859  0.4874 -1.4840  0.3154
  467MOL0     C62936   9.246   4.615   9.795 -0.8386 -0.3801 -0.0192
  467MOL0     C62937   9.197   4.622   9.661  0.3150 -1.1630  0.4372
  467MOL0     C62938   9.203   4.495   9.598 -0.0842 -0.3734  0.0428
  467MOL0     C62939   9.157   4.485   9.460  0.0537 -0.1010  0.3621
  467MOL0     O62940   9.117   4.361   9.412 -0.0029 -0.3440 -0.6717
  467MOL0     C62941   9.107   4.344   9.270 -0.3826  0.9649 -0.6944
  467MOL0     C62942   9.200   4.397   9.171 -0.4374 -0.0223 -0.3863
  467MOL0     C62943   9.199   4.359   9.038 -1.0745  0.4302  0.8010
  467MOL0     C62944   9.102   4.272   8.992  0.1827 -0.5754  0.4861
  467MOL0     O62945   9.099   4.251   8.857 -0.3545  0.2333 -0.6092
  467MOL0     C62946   9.060   4.121   8.821  1.1827 -0.5015 -0.0872
  467MOL0     C62947   9.067   4.101   8.668 -0.0682 -0.2276 -0.0322
  467MOL0     C62948   8.973   4.201   8.594 -0.3123 -0.2155 -0.0234
  467MOL0     C62949   8.947   4.160   8.454  0.2335 -0.2811  0.4658
  467MOL0     C62950   8.859   4.261   8.379 -0.0448 -0.3977 -0.4145
  467MOL0     C62951   8.865   4.237   8.234 -0.3525  0.3450  0.2881
  467MOL0     C62952   8.777   4.339   8.165  0.5234 -0.2650  1.1909
  467MOL0     C62953   8.692   4.254   8.066 -0.7490  0.5831 -0.9286
  467MOL0    Cl62954   8.564   4.364   8.005  0.3297  0.1711 -0.4254
  467MOL0     C62955   9.020   4.209   9.086  0.0443  0.0905  0.5855
  467MOL0     C62956   9.012   4.250   9.219  0.3068  0.6743 -0.0989
  467MOL0     O62957   9.136   4.586   9.393 -0.4110  0.1047  0.0561
  467MOL0     C62958   9.253   4.384   9.663  0.2182  0.8456  1.4722
  467MOL0     C62959   9.303   4.381   9.787  0.2924  0.4578 -0.1057
  467MOL0     N62960   9.818   4.565   9.668 -0.0572 -0.4569 -0.3149
  467MOL0     N62961   9.821   4.539   9.551 -0.2576 -0.3463  0.1307
  467MOL0     C62962   9.322   3.646   8.598  0.0442 -0.3529  1.3925
  467MOL0     C62963   9.281   3.557   8.505  0.3847  0.8463 -0.2985
  467MOL0     C62964   9.219   3.377   8.067  0.1098  0.6416  0.0524
  467MOL0     C62965   9.331   3.298   8.062 -0.2812  1.0185 -0.6051
  467MOL0     C62966   9.338   3.185   7.973  1.3512 -0.7343 -0.9844
  467MOL0     C62967   9.245   3.163   7.876  0.5774 -0.0716 -0.0078
  467MOL0     O62968   9.252   3.049   7.790  0.1712  0.1074  0.4392
  467MOL0     C62969   9.156   3.047   7.679 -0.0052  1.5516 -0.7266
  467MOL0     C62970   9.026   2.989   7.729  0.0158 -0.3549 -0.0458
  467MOL0     C62971   8.901   2.989   7.630 -0.2449  0.0253  0.2236
  467MOL0     C62972   8.773   2.976   7.711  0.1861 -0.8536 -0.7455
  467MOL0     C62973   8.735   3.098   7.775  0.0286 -0.6876 -0.2616
  467MOL0     C62974   8.701   3.195   7.841  0.2843 -0.0528  0.5635
  467MOL0     C62975   9.136   3.251   7.872 -0.4857  1.0011  0.1581
  467MOL0     C62976   9.120   3.355   7.966  0.6853  0.1896  0.0263
  467MOL0     C62977   8.996   3.449   7.944 -0.0761 -0.1176 -0.6578
  467MOL0     H62978   9.340   3.736   8.221  1.9412 -1.0605 -0.0619
  467MOL0     H62979   9.429   3.893   8.390  0.2135  0.7066  0.7763
  467MOL0     H62980   9.294   3.889   8.780 -0.0897 -3.2005 -1.5673
  467MOL0     H62981   9.413   3.780   8.844 -0.2992  0.2126 -0.4917
  467MOL0     H62982   9.436   4.079   8.757 -0.3865  0.9002  0.8807
  467MOL0     H62983   9.567   4.000   8.835 -0.8711  2.5767  3.7300
  467MOL0     H62984   9.443   3.956   9.045  0.6053 -1.6366 -0.7268
  467MOL0     H62985   9.314   4.071   8.993 -0.0516 -0.1033 -3.9792
  467MOL0     H62986   9.601   4.144   8.968 -1.0348 -0.4957 -1.6844
  467MOL0     H62987   9.463   4.248   8.985 -3.1079 -2.4815 -0.5254
  467MOL0     H62988   9.413   4.175   9.212 -0.1182  5.4362 -1.9573
  467MOL0     H62989   9.557   4.072   9.216 -2.2232  0.5258  2.9814
  467MOL0     H62990   9.682   4.299   9.162  1.2916 -0.0182  0.9846
  467MOL0     H62991   9.530   4.379   9.171  1.6728  0.9478 -0.4170
  467MOL0     H62992   9.658   4.237   9.406 -1.8612 -1.2864  2.5154
  467MOL0     H62993   9.491   4.308   9.399 -0.5641 -0.1677 -0.8169
  467MOL0     H62994   9.733   4.468   9.299 -0.8904 -0.9999 -0.1397
  467MOL0     H62995   9.579   4.535   9.343  1.5910  2.0252 -2.3190
  467MOL0     H62996   9.528   4.409   9.632  0.5134 -1.7773  0.7602
  467MOL0     H62997   9.718   4.594   9.915 -0.5159  1.4399 -0.0789
  467MOL0     H62998   9.554   4.599   9.843 -1.1639 -1.3816  0.2347
  467MOL0     H62999   9.546   4.355   9.851 -2.1133  2.8132  1.0396
  467MOL0     H63000   9.716   4.347   9.915  0.1262 -0.1210 -3.3614
  467MOL0     H63001   9.581   4.525  10.093  2.8967 -0.4434  1.1289
  467MOL0     H63002   9.609   4.354  10.128  2.8686  1.9704 -1.2242
  467MOL0     H63003   9.374   4.431  10.163  0.0501 -1.7448  1.3523
  467MOL0     H63004   9.386   4.307  10.037  3.7470 -0.6566 -0.4961
  467MOL0     H63005   9.236   4.706   9.853 -3.3695 -0.8094  0.2972
  467MOL0     H63006   9.171   4.726   9.648 -1.2413 -1.3105  2.0272
  467MOL0     H63007   9.276   4.471   9.195  1.3461 -1.6567 -0.6779
  467MOL0     H63008   9.256   4.418   8.967 -1.7198  0.3004  0.1587
  467MOL0     H63009   9.111   4.032   8.859 -0.7056 -2.0578 -1.0485
  467MOL0     H63010   8.957   4.106   8.853  0.3492  1.9929 -1.4278
  467MOL0     H63011   9.173   4.101   8.644 -0.1822 -1.7651 -0.6615
  467MOL0     H63012   9.037   3.997   8.652 -0.6759  0.0681 -0.8680
  467MOL0     H63013   8.879   4.223   8.646 -0.1765  2.6399 -0.8007
  467MOL0     H63014   9.016   4.302   8.597 -1.6096  0.5788 -3.3817
  467MOL0     H63015   8.899   4.061   8.451 -1.8206  0.5671  2.7338
  467MOL0     H63016   9.044   4.148   8.405  0.4125 -0.4667  0.8553
  467MOL0     H63017   8.893   4.363   8.398  2.6024 -1.2610 -0.1306
  467MOL0     H63018   8.756   4.241   8.411 -0.2288  0.3618 -0.5151
  467MOL0     H63019   8.968   4.237   8.200  0.6395 -2.7632  2.7998
  467MOL0     H63020   8.830   4.135   8.217  2.2792 -0.5476 -0.1435
  467MOL0     H63021   8.839   4.409   8.109 -0.2438 -1.6017 -1.4777
  467MOL0     H63022   8.714   4.404   8.227  1.0767 -0.5232  2.0405
  467MOL0     H63023   8.755   4.219   7.984 -1.0391 -1.0746 -0.4667
  467MOL0     H63024   8.653   4.167   8.119  4.8973  0.6764  4.6958
  467MOL0     H63025   8.940   4.145   9.050 -0.9915  1.9217 -0.5173
  467MOL0     H63026   8.934   4.219   9.287 -1.3898  4.6043  0.0504
  467MOL0     H63027   9.247   4.295   9.602  1.1014  3.2552 -2.5137
  467MOL0     H63028   9.337   4.282   9.813 -1.0728 -0.4901 -1.7435
  467MOL0     H63029   9.347   3.627   8.702 -0.5402  2.4970  2.1461
  467MOL0     H63030   9.267   3.454   8.536 -1.1335  1.5640  1.5907
  467MOL0     H63031   9.399   3.306   8.147 -3.3651  2.2087  1.9549
  467MOL0     H63032   9.418   3.112   7.983  0.3244 -1.5591  2.0879
  467MOL0     H63033   9.185   2.980   7.598  0.0956  1.6150 -0.7433
  467MOL0     H63034   9.141   3.142   7.627 -0.9426 -0.2089 -3.9150
  467MOL0     H63035   8.998   3.031   7.825  0.6368  3.2230 -1.2881
  467MOL0     H63036   9.034   2.885   7.761 -0.9181 -0.3227  0.3216
  467MOL0     H63037   8.910   2.907   7.558  0.2810  0.6187 -0.3998
  467MOL0     H63038   8.891   3.084   7.576  1.8884 -0.7545 -1.7462
  467MOL0     H63039   8.690   2.936   7.653  1.2539 -2.2043 -1.4168
  467MOL0     H63040   8.787   2.904   7.792 -0.4431 -2.4722 -2.0253
  467MOL0     H63041   8.673   3.282   7.896 -1.5113 -0.6811  0.6913
  467MOL0     H63042   9.056   3.237   7.799  0.1325 -2.2512 -0.0322
  467MOL0     H63043   9.021   3.530   7.875 -1.2257  1.4474  0.6805
  467MOL0     H63044   8.907   3.390   7.922  0.7022 -1.7019  0.2219
  467MOL0     H63045   8.954   3.505   8.027  0.0217 -1.2943  0.2071
  468MOL0     O63046  10.440  10.838   6.385  0.2813 -0.8980  0.0524
  468MOL0     C63047  10.383  10.741   6.366  0.7247 -0.3135 -0.2933
  468MOL0     O63048  10.251  10.737   6.327 -0.1010 -0.3436 -0.2634
  468MOL0     C63049  10.192  10.846   6.263  0.4283 -0.8189  0.3868
  468MOL0     C63050  10.233  10.883   6.133 -0.1980  0.6977 -0.6746
  468MOL0     C63051  10.177  10.997   6.083  0.0787 -1.3483  0.0856
  468MOL0     C63052  10.074  11.066   6.144  0.8524 -0.3377 -0.2307
  468MOL0     O63053  10.004  11.169   6.090 -0.6202  0.1095  0.1861
  468MOL0     C63054  10.048  11.228   5.976 -0.4555  0.2914  0.1575
  468MOL0     C63055   9.940  11.311   5.918  0.1295  0.5098 -0.2865
  468MOL0     C63056   9.903  11.436   5.994 -0.3235  0.0360 -0.5128
  468MOL0     C63057   9.807  11.518   5.911  0.1049  0.5902  0.4124
  468MOL0     C63058   9.769  11.654   5.983 -0.3068 -0.3987 -0.5673
  468MOL0     C63059   9.637  11.720   5.935  1.0016  0.8522 -0.0525
  468MOL0     C63060   9.627  11.755   5.783  0.1889  0.3102 -0.1004
  468MOL0     C63061   9.531  11.858   5.737 -0.1078 -1.4113  0.4378
  468MOL0     N63062   9.561  11.981   5.806 -0.3493 -0.3155  0.5119
  468MOL0     C63063   9.667  12.064   5.768 -0.0910 -0.5365 -0.2643
  468MOL0     C63064   9.668  12.166   5.867  0.4558 -0.4519 -0.1248
  468MOL0     C63065   9.757  12.285   5.858 -0.4820 -0.9257 -0.1962
  468MOL0     C63066   9.888  12.255   5.920 -1.1792 -0.0247 -0.2329
  468MOL0     C63067   9.941  12.388   5.978  0.0007  0.0556 -0.1724
  468MOL0     C63068  10.077  12.380   6.036  0.4139 -0.1885 -0.3175
  468MOL0     O63069  10.069  12.360   6.181  0.5905 -0.2322 -0.9108
  468MOL0     C63070  10.127  12.449   6.270 -0.1220 -0.2024 -1.0074
  468MOL0     C63071  10.045  12.511   6.369  0.8155 -0.4559 -0.2827
  468MOL0     C63072  10.076  12.620   6.447  0.0276  0.4060  0.3626
  468MOL0     C63073  10.212  12.668   6.434  0.7619  1.1533  0.4236
  468MOL0     C63074  10.259  12.769   6.532 -0.0967  0.0174 -0.4375
  468MOL0     O63075  10.174  12.816   6.631  0.0161 -0.2352  0.0287
  468MOL0     C63076  10.218  12.895   6.741 -0.3701 -0.1159  0.7274
  468MOL0     C63077  10.271  12.827   6.862  0.5855 -0.7683  1.1153
  468MOL0     C63078  10.283  12.896   6.980 -0.3101 -0.2713  0.2031
  468MOL0     C63079  10.258  13.038   6.991  0.8298  0.3035 -0.5279
  468MOL0     O63080  10.288  13.112   7.107  0.1434 -0.6276 -1.0339
  468MOL0     C63081  10.252  13.063   7.236 -0.3550 -0.2571  0.7124
  468MOL0     C63082  10.372  13.001   7.299 -0.3239  0.9526  0.0235
  468MOL0     C63083  10.511  13.080   7.302  1.4688 -0.3209  0.1643
  468MOL0     C63084  10.612  12.977   7.339  0.2683 -0.5592 -0.1813
  468MOL0     C63085  10.754  13.034   7.352  0.0722  0.8616 -0.1711
  468MOL0     C63086  10.822  13.037   7.215 -0.1587  0.1936  0.1061
  468MOL0     C63087  10.955  13.121   7.223 -0.1400  0.3612  0.0582
  468MOL0     C63088  11.077  13.037   7.265  0.8545  0.2425 -0.5881
  468MOL0    Cl63089  11.244  13.092   7.218 -0.1182  0.2522 -0.2078
  468MOL0     C63090  10.217  13.112   6.876 -0.0416  0.5633  0.2968
  468MOL0     C63091  10.190  13.033   6.757  0.4172 -0.4044  0.3263
  468MOL0     O63092  10.378  12.802   6.518 -0.4954 -0.5403  0.0729
  468MOL0     C63093  10.297  12.597   6.346  0.1535  0.2426 -0.9813
  468MOL0     C63094  10.253  12.502   6.261  0.4688  1.2448 -0.5736
  468MOL0     N63095   9.557  12.143   5.951  0.5710 -0.7390 -0.3143
  468MOL0     N63096   9.488  12.047   5.906  0.1385  0.4017  0.0383
  468MOL0     C63097  10.034  11.026   6.275  0.6976 -0.7519  0.1426
  468MOL0     C63098  10.091  10.912   6.328 -0.7780 -0.5093  0.1259
  468MOL0     C63099  10.434  10.603   6.401 -0.2146  0.6452  0.9373
  468MOL0     C63100  10.365  10.484   6.367  0.0764 -0.8271  0.5471
  468MOL0     C63101  10.428  10.360   6.381 -0.4993  0.4302 -0.2844
  468MOL0     C63102  10.555  10.348   6.435  0.9102 -0.3995  0.4080
  468MOL0     O63103  10.607  10.222   6.442 -0.2188 -0.7491 -0.1792
  468MOL0     C63104  10.736  10.197   6.506  0.8470 -0.8509 -0.1354
  468MOL0     C63105  10.754  10.050   6.512 -0.5691  0.4833  0.1446
  468MOL0     C63106  10.627   9.974   6.553  0.5836  0.1868 -0.8582
  468MOL0     C63107  10.636   9.824   6.571 -0.0288 -0.3221 -0.6523
  468MOL0     C63108  10.711   9.747   6.470 -1.2182 -0.6922  0.1695
  468MOL0     C63109  10.781   9.687   6.397  0.5559 -0.2384  0.0753
  468MOL0     C63110  10.623  10.459   6.459 -0.8949 -0.5835  0.8629
  468MOL0     C63111  10.574  10.586   6.447  0.3574 -0.6244 -0.3279
  468MOL0     C63112  10.660  10.693   6.491  0.3965 -0.9600 -0.7446
  468MOL0     H63113  10.310  10.820   6.092  0.0309 -1.3616  2.5443
  468MOL0     H63114  10.205  11.025   5.981 -1.4210 -1.4943 -0.3831
  468MOL0     H63115  10.132  11.296   5.995 -0.1076  0.9168 -3.0608
  468MOL0     H63116  10.074  11.153   5.901 -0.2460 -2.8994  3.2092
  468MOL0     H63117   9.849  11.251   5.912 -0.8946  1.9900 -0.0464
  468MOL0     H63118   9.978  11.348   5.822 -0.1465  1.8760  0.1047
  468MOL0     H63119  10.000  11.482   6.013 -0.5108  1.4893 -2.6678
  468MOL0     H63120   9.861  11.412   6.092  1.7908 -2.0939 -0.0320
  468MOL0     H63121   9.864  11.530   5.819  0.0295 -1.3041  0.0728
  468MOL0     H63122   9.718  11.456   5.890  0.1735  1.1774 -1.9246
  468MOL0     H63123   9.767  11.639   6.092  4.3378 -2.2044 -0.5095
  468MOL0     H63124   9.852  11.723   5.969 -1.4256  1.1004 -0.1533
  468MOL0     H63125   9.578  11.629   5.950  0.8383  1.1245  0.9922
  468MOL0     H63126   9.612  11.799   6.006 -1.2049 -2.4587  3.2417
  468MOL0     H63127   9.587  11.666   5.734  0.4591 -0.3161  0.8071
  468MOL0     H63128   9.723  11.768   5.732 -0.6697 -0.4461 -2.0482
  468MOL0     H63129   9.533  11.875   5.629 -0.0334  4.3920  1.0080
  468MOL0     H63130   9.432  11.819   5.765 -0.9107  0.8597  1.0200
  468MOL0     H63131   9.722  12.056   5.675  2.3221  0.9197  0.9276
  468MOL0     H63132   9.761  12.318   5.754 -2.4348 -1.1556 -0.3842
  468MOL0     H63133   9.698  12.358   5.914  3.8228  2.7904 -0.0234
  468MOL0     H63134   9.862  12.195   6.008 -2.1416  2.3145  1.1658
  468MOL0     H63135   9.968  12.200   5.868  1.2728  0.3984  2.8207
  468MOL0     H63136   9.871  12.426   6.052 -0.2237  2.4748 -1.5383
  468MOL0     H63137   9.948  12.460   5.896 -1.9137  1.3753  0.7702
  468MOL0     H63138  10.113  12.482   6.025 -0.8972  0.3228 -0.0475
  468MOL0     H63139  10.134  12.302   5.985  0.6752 -0.1013 -0.1614
  468MOL0     H63140   9.952  12.457   6.380 -0.2554  0.9545 -1.8892
  468MOL0     H63141   9.998  12.664   6.508  1.2138  1.3756  1.2220
  468MOL0     H63142  10.282  12.720   6.878  2.5972 -0.5908  1.1429
  468MOL0     H63143  10.302  12.847   7.075 -1.6789  0.5381  0.9218
  468MOL0     H63144  10.239  13.152   7.298  1.7443 -1.8865  3.7446
  468MOL0     H63145  10.165  12.996   7.236  0.1080 -0.8740 -0.3592
  468MOL0     H63146  10.341  12.982   7.402 -2.5035  0.6861 -0.6285
  468MOL0     H63147  10.382  12.900   7.258 -0.1571  0.8422  0.3300
  468MOL0     H63148  10.539  13.130   7.208 -0.9159 -3.1893 -2.2836
  468MOL0     H63149  10.502  13.159   7.377 -0.8250 -0.0556 -0.3212
  468MOL0     H63150  10.604  12.881   7.285 -1.1964 -2.4632  3.1178
  468MOL0     H63151  10.597  12.940   7.440  2.9775 -0.5992  0.2732
  468MOL0     H63152  10.801  12.979   7.434 -2.2825  1.2757  1.5541
  468MOL0     H63153  10.740  13.134   7.394 -6.0690 -0.9486  3.4940
  468MOL0     H63154  10.842  12.934   7.181 -2.7242  0.2512 -1.8621
  468MOL0     H63155  10.764  13.083   7.135  1.4297  2.4770  0.1590
  468MOL0     H63156  10.940  13.210   7.285 -2.3698  0.3299 -0.3583
  468MOL0     H63157  10.989  13.160   7.126 -0.1175 -0.7336 -0.3897
  468MOL0     H63158  11.088  13.037   7.374  2.4097  4.3443 -0.5835
  468MOL0     H63159  11.066  12.932   7.234  1.1027 -0.4489  1.4956
  468MOL0     H63160  10.188  13.216   6.886 -1.2601  0.0746  2.4927
  468MOL0     H63161  10.135  13.088   6.681 -0.1165 -2.1186 -0.5934
  468MOL0     H63162  10.400  12.630   6.341  0.1510  0.0938 -3.7131
  468MOL0     H63163  10.322  12.442   6.202 -0.3646 -0.1782 -0.1579
  468MOL0     H63164   9.967  11.085   6.337 -0.1064 -2.4322  0.9522
  468MOL0     H63165  10.078  10.865   6.425 -1.6761  3.8796  2.4088
  468MOL0     H63166  10.261  10.490   6.340 -2.0118 -4.3451  6.0704
  468MOL0     H63167  10.374  10.277   6.337  1.3547 -0.1400 -1.6175
  468MOL0     H63168  10.724  10.245   6.604 -0.8939  1.2724 -1.2872
  468MOL0     H63169  10.811  10.253   6.449 -0.3559  3.6399  2.1645
  468MOL0     H63170  10.830  10.023   6.586 -0.7548 -1.3650 -0.3058
  468MOL0     H63171  10.788  10.024   6.412 -3.7448 -2.3141 -0.3665
  468MOL0     H63172  10.535   9.993   6.497  1.4909  2.4231 -1.6622
  468MOL0     H63173  10.611  10.008   6.656  1.9031 -2.5505  0.3727
  468MOL0     H63174  10.688   9.796   6.663 -1.3057 -2.2560 -0.4611
  468MOL0     H63175  10.541   9.770   6.574  0.4998 -1.5212 -3.0341
  468MOL0     H63176  10.855   9.626   6.349  0.3185 -0.2428 -0.2925
  468MOL0     H63177  10.727  10.448   6.488 -0.7732  0.4343  0.8380
  468MOL0     H63178  10.751  10.654   6.538  0.6984  0.4416 -0.1077
  468MOL0     H63179  10.695  10.742   6.400  3.1882  2.2508  1.7942
  468MOL0     H63180  10.598  10.749   6.561 -2.1048 -2.1103 -1.9025
  469MOL0     O63181   8.046   2.597   0.831  0.1082  0.0387 -0.0525
  469MOL0     C63182   8.002   2.712   0.844 -0.4767  1.4985  0.1547
  469MOL0     O63183   7.979   2.779   0.953 -0.1184  0.4058 -0.4363
  469MOL0     C63184   8.010   2.728   1.073 -0.1470  0.9273  0.8088
  469MOL0     C63185   8.135   2.697   1.123  1.0714 -0.0220  0.7816
  469MOL0     C63186   8.151   2.643   1.247  0.2306 -0.4640  0.9754
  469MOL0     C63187   8.046   2.638   1.336  0.5276 -0.0495  0.2990
  469MOL0     O63188   8.046   2.595   1.463  0.5108  0.6113  0.0845
  469MOL0     C63189   8.131   2.677   1.552 -0.1940 -0.4225 -0.2691
  469MOL0     C63190   8.052   2.807   1.574 -0.0896  0.3632 -0.0028
  469MOL0     C63191   7.936   2.774   1.668 -0.4365 -0.3331  0.1254
  469MOL0     C63192   7.972   2.788   1.823 -0.1055 -0.0488 -0.2234
  469MOL0     C63193   7.979   2.937   1.871  0.4454 -1.1416  0.3281
  469MOL0     C63194   7.846   3.011   1.873 -0.0905  0.1697 -0.8328
  469MOL0     C63195   7.862   3.160   1.913  0.4358 -0.0842 -0.6263
  469MOL0     C63196   7.741   3.254   1.877  0.4367 -0.1384  0.2930
  469MOL0     N63197   7.659   3.297   1.992  0.0331 -0.1809  0.0942
  469MOL0     C63198   7.574   3.209   2.054 -0.3067 -0.1334 -0.0447
  469MOL0     C63199   7.527   3.281   2.160 -0.1735 -0.8057  0.2451
  469MOL0     C63200   7.438   3.235   2.278 -0.9175 -0.0390  0.4810
  469MOL0     C63201   7.445   3.330   2.404  0.0546  0.8077  0.1812
  469MOL0     C63202   7.565   3.301   2.493 -0.0836  0.3349 -0.6453
  469MOL0     C63203   7.701   3.313   2.427  0.3211 -0.1823  0.1791
  469MOL0     O63204   7.802   3.306   2.527  0.1456 -0.5499 -0.3308
  469MOL0     C63205   7.924   3.364   2.500 -0.3470 -0.5408 -0.6702
  469MOL0     C63206   7.980   3.378   2.370  0.0058  0.9467 -0.5200
  469MOL0     C63207   8.104   3.445   2.360  1.5615 -0.1230  0.0270
  469MOL0     C63208   8.165   3.499   2.473  0.8066 -0.5501  1.3203
  469MOL0     C63209   8.295   3.559   2.449 -0.8977 -0.5378 -0.4011
  469MOL0     O63210   8.347   3.610   2.563 -0.6978 -0.5206  0.5065
  469MOL0     C63211   8.477   3.659   2.562  0.4654  0.9315 -0.2322
  469MOL0     C63212   8.585   3.587   2.514 -0.6303  0.3040  0.6301
  469MOL0     C63213   8.713   3.651   2.506 -1.1946 -0.0706  0.6597
  469MOL0     C63214   8.732   3.787   2.537  0.3686 -1.1251 -0.5707
  469MOL0     O63215   8.850   3.856   2.559 -0.1082  0.4595 -0.4314
  469MOL0     C63216   8.971   3.777   2.595  0.6350 -0.6116 -0.0951
  469MOL0     C63217   9.096   3.863   2.583  0.5654 -0.6093 -0.8456
  469MOL0     C63218   9.159   3.843   2.444 -0.4043  0.3996  0.5835
  469MOL0     C63219   9.273   3.939   2.427  0.1327  0.0614 -0.6785
  469MOL0     C63220   9.325   3.946   2.287 -0.6619 -0.3887  0.4354
  469MOL0     C63221   9.405   4.075   2.259 -0.1395  0.1093  0.2749
  469MOL0     C63222   9.427   4.094   2.116 -0.5941 -0.1562  0.2807
  469MOL0     C63223   9.504   4.220   2.082  0.6493 -0.3490 -1.0287
  469MOL0    Cl63224   9.677   4.212   2.129 -0.0754  0.1802  0.1727
  469MOL0     C63225   8.623   3.855   2.591 -0.2836  0.5452 -0.1384
  469MOL0     C63226   8.497   3.792   2.605  0.2110  0.4289 -0.4291
  469MOL0     O63227   8.350   3.559   2.340  0.5374  0.5889  0.2861
  469MOL0     C63228   8.109   3.481   2.601  0.0954 -1.3057 -0.1450
  469MOL0     C63229   7.994   3.406   2.604 -0.0972 -0.3246 -0.1906
  469MOL0     N63230   7.544   3.419   2.135 -0.1749  0.6739 -0.1399
  469MOL0     N63231   7.627   3.428   2.041  0.0993 -0.0316  0.0719
  469MOL0     C63232   7.917   2.666   1.293 -0.0727  0.4466  1.2727
  469MOL0     C63233   7.900   2.702   1.159 -0.0548  0.0561 -0.8742
  469MOL0     C63234   7.945   2.770   0.717 -0.1383  0.0241  0.3406
  469MOL0     C63235   8.035   2.788   0.600 -0.6367  0.2524 -0.2600
  469MOL0     C63236   8.008   2.851   0.482 -0.5082 -0.2898  0.3529
  469MOL0     C63237   7.883   2.908   0.473  0.0810 -0.0388 -0.3936
  469MOL0     O63238   7.854   2.973   0.357  0.4536 -0.9036 -0.2939
  469MOL0     C63239   7.874   2.910   0.232  0.2112 -0.3615  0.1693
  469MOL0     C63240   7.765   2.944   0.135 -0.2041 -0.5905  0.4103
  469MOL0     C63241   7.796   2.876   0.002  0.0207 -0.0288 -0.7720
  469MOL0     C63242   7.671   2.841  -0.076  0.3002 -0.6209 -0.1871
  469MOL0     C63243   7.731   2.810  -0.205  0.4230 -0.9438  0.4508
  469MOL0     C63244   7.768   2.784  -0.315 -0.5929  0.4377 -0.7087
  469MOL0     C63245   7.794   2.893   0.572 -0.6717  0.0660  0.4562
  469MOL0     C63246   7.813   2.823   0.692 -0.1910 -0.6853 -0.0729
  469MOL0     C63247   7.701   2.823   0.802 -1.1688 -1.3874  0.3181
  469MOL0     H63248   8.213   2.716   1.050 -0.5165  2.4339 -0.3852
  469MOL0     H63249   8.249   2.610   1.281  0.3691 -2.0682 -0.8293
  469MOL0     H63250   8.143   2.611   1.639 -1.4928  0.3328  0.5141
  469MOL0     H63251   8.227   2.712   1.513 -0.9683  3.4984  0.9816
  469MOL0     H63252   8.022   2.847   1.477 -0.5080  1.0742  0.4077
  469MOL0     H63253   8.115   2.880   1.624  2.5493 -3.6202  3.1152
  469MOL0     H63254   7.909   2.669   1.652 -2.0298  0.4061 -2.7123
  469MOL0     H63255   7.847   2.832   1.640 -1.0299 -0.2072  2.0794
  469MOL0     H63256   7.900   2.733   1.884 -2.9013  2.2798 -1.2084
  469MOL0     H63257   8.068   2.740   1.841  0.6208  0.1310 -3.1571
  469MOL0     H63258   8.024   2.949   1.970  0.1233  1.8627  0.1974
  469MOL0     H63259   8.048   2.994   1.808  0.7365  0.7991  2.2881
  469MOL0     H63260   7.796   3.007   1.775 -0.6364 -2.4925 -0.5289
  469MOL0     H63261   7.785   2.960   1.948 -1.4597  1.4939 -0.9797
  469MOL0     H63262   7.948   3.197   1.858  0.2898 -0.5408 -1.1738
  469MOL0     H63263   7.871   3.172   2.022 -1.5510  0.1509 -0.4506
  469MOL0     H63264   7.794   3.344   1.843  2.6009 -1.4559  0.0411
  469MOL0     H63265   7.680   3.218   1.793 -0.0781  1.3714 -0.0270
  469MOL0     H63266   7.588   3.103   2.037  0.3904  0.1802 -1.6594
  469MOL0     H63267   7.335   3.230   2.243 -0.9308 -3.9919  0.7137
  469MOL0     H63268   7.472   3.133   2.297  3.4186  0.8694 -1.1404
  469MOL0     H63269   7.428   3.436   2.384 -0.5164  0.7451  0.3050
  469MOL0     H63270   7.350   3.308   2.454 -0.5950 -3.3445 -2.3308
  469MOL0     H63271   7.562   3.197   2.528  0.8224 -0.0669 -1.7072
  469MOL0     H63272   7.556   3.370   2.577  0.4708 -3.9266  3.3132
  469MOL0     H63273   7.707   3.415   2.389  1.8592 -0.2514  0.1922
  469MOL0     H63274   7.718   3.235   2.352 -3.6392  0.3648 -1.5321
  469MOL0     H63275   7.922   3.344   2.284 -1.3781 -2.7889  1.6945
  469MOL0     H63276   8.146   3.463   2.261  0.4179  0.0554 -0.4401
  469MOL0     H63277   8.566   3.483   2.489  1.3558 -0.5077  2.2544
  469MOL0     H63278   8.800   3.588   2.490 -3.0153 -3.1156  1.9581
  469MOL0     H63279   8.960   3.725   2.691  0.8743 -0.0543  0.2395
  469MOL0     H63280   8.975   3.690   2.530 -2.2923 -1.5510  0.8236
  469MOL0     H63281   9.066   3.966   2.602  1.8551 -0.4976  0.8641
  469MOL0     H63282   9.176   3.841   2.655  4.3165  2.9501 -3.4960
  469MOL0     H63283   9.196   3.741   2.434 -1.1716  0.1907 -0.2736
  469MOL0     H63284   9.084   3.863   2.367  0.9780  0.8615 -0.6829
  469MOL0     H63285   9.355   3.902   2.489  1.2433 -0.4482 -2.3836
  469MOL0     H63286   9.251   4.040   2.464 -0.0637  0.2456 -1.2816
  469MOL0     H63287   9.240   3.955   2.220  1.6769  1.8278 -2.5146
  469MOL0     H63288   9.381   3.855   2.266 -3.0158 -1.2720 -2.6062
  469MOL0     H63289   9.364   4.163   2.310  0.6696 -0.8477  2.7621
  469MOL0     H63290   9.500   4.051   2.307 -0.7685 -3.3675  0.0332
  469MOL0     H63291   9.327   4.102   2.071 -0.5018  3.1483  0.3654
  469MOL0     H63292   9.488   4.018   2.066  0.4638  0.9025 -0.0869
  469MOL0     H63293   9.498   4.246   1.976 -0.4436 -0.4764 -1.0102
  469MOL0     H63294   9.455   4.295   2.144 -0.6914 -2.6045  0.8464
  469MOL0     H63295   8.633   3.960   2.617  2.3448  0.4349 -0.4094
  469MOL0     H63296   8.404   3.837   2.637 -0.8862 -1.8668 -0.1713
  469MOL0     H63297   8.166   3.520   2.685  0.7137  0.5071 -1.3409
  469MOL0     H63298   7.940   3.400   2.698  0.1196  2.3322  0.1753
  469MOL0     H63299   7.828   2.667   1.353 -0.9631 -0.1524  0.0159
  469MOL0     H63300   7.806   2.738   1.119  0.2684  1.2192 -0.6461
  469MOL0     H63301   8.135   2.745   0.602 -1.6491 -2.3021  2.7393
  469MOL0     H63302   8.086   2.851   0.406  0.4760  0.4297  1.3388
  469MOL0     H63303   7.867   2.801   0.238 -0.3275 -0.2771  1.3525
  469MOL0     H63304   7.977   2.943   0.212  0.5425 -0.2144  2.0083
  469MOL0     H63305   7.784   3.050   0.114  1.7039 -1.0295 -0.2886
  469MOL0     H63306   7.667   2.928   0.181 -0.2649  2.7486  1.6920
  469MOL0     H63307   7.870   2.796   0.009 -0.0393 -0.0994 -0.9458
  469MOL0     H63308   7.841   2.958  -0.055 -0.6969  0.1330 -1.1188
  469MOL0     H63309   7.624   2.754  -0.029 -0.3552 -0.0734  0.1780
  469MOL0     H63310   7.609   2.930  -0.085  1.2692  0.0555 -0.2746
  469MOL0     H63311   7.800   2.754  -0.412 -3.1490 -0.3115 -1.3869
  469MOL0     H63312   7.703   2.948   0.552 -1.5772 -1.6116 -0.3129
  469MOL0     H63313   7.623   2.899   0.793  1.2767  1.2912  0.1227
  469MOL0     H63314   7.652   2.725   0.798 -1.9768 -0.9949  0.3781
  469MOL0     H63315   7.751   2.841   0.897 -0.4647 -0.6437 -0.1734
  470MOL0     O63316   5.969   5.741   8.574 -0.8133  0.0425 -0.2799
  470MOL0     C63317   5.934   5.624   8.587  0.0495 -0.2420 -0.8193
  470MOL0     O63318   5.922   5.525   8.484 -0.9880 -0.1466  0.3626
  470MOL0     C63319   5.944   5.542   8.348  0.0992 -0.9406 -0.2188
  470MOL0     C63320   5.868   5.463   8.261  0.6259  0.5345 -0.3092
  470MOL0     C63321   5.898   5.466   8.121 -0.5677  0.3213  0.5464
  470MOL0     C63322   5.995   5.551   8.077  0.3809  0.2388  0.1206
  470MOL0     O63323   6.021   5.557   7.943 -0.5156 -0.7580  0.9526
  470MOL0     C63324   6.058   5.435   7.878 -0.2366 -0.9679  0.3641
  470MOL0     C63325   5.999   5.449   7.737  0.5420 -0.8996 -0.2215
  470MOL0     C63326   5.851   5.409   7.739  0.1210  0.7294  0.8713
  470MOL0     C63327   5.842   5.254   7.713  1.1199  0.7893 -1.1636
  470MOL0     C63328   5.698   5.204   7.681  1.0529  0.7962 -0.0389
  470MOL0     C63329   5.689   5.064   7.624  0.5062 -0.9707 -0.0308
  470MOL0     C63330   5.538   5.013   7.616  0.5613 -0.9038  0.4218
  470MOL0     C63331   5.505   4.900   7.713  0.3279 -0.0612 -0.4409
  470MOL0     N63332   5.497   4.941   7.860 -0.3319  0.1023  0.0445
  470MOL0     C63333   5.605   4.926   7.939 -0.1470 -0.4313  0.0267
  470MOL0     C63334   5.594   5.024   8.035  0.1214 -0.1850 -0.6837
  470MOL0     C63335   5.681   5.050   8.156 -0.0231  0.3554  0.2265
  470MOL0     C63336   5.606   5.110   8.283  0.2089  0.0066  0.9401
  470MOL0     C63337   5.683   5.131   8.413 -0.0453  0.0758  0.2706
  470MOL0     C63338   5.756   5.009   8.469  0.5374 -0.1917 -0.0895
  470MOL0     O63339   5.798   5.044   8.607 -0.7204  0.1458  0.0159
  470MOL0     C63340   5.714   5.057   8.714  0.8726  1.0388 -0.3505
  470MOL0     C63341   5.579   5.031   8.701  0.0109  0.0465 -0.7742
  470MOL0     C63342   5.490   5.049   8.812 -0.2652 -0.0007  0.1705
  470MOL0     C63343   5.549   5.107   8.934  0.6408  0.8920  0.1038
  470MOL0     C63344   5.457   5.149   9.037 -0.2080  0.5481 -0.6720
  470MOL0     O63345   5.326   5.095   9.017  1.1310 -0.1480  0.0519
  470MOL0     C63346   5.226   5.114   9.114 -0.4477 -0.4592 -0.1841
  470MOL0     C63347   5.093   5.136   9.071  0.4494 -0.3683 -0.2436
  470MOL0     C63348   4.990   5.147   9.168 -0.2300  1.0562  0.0815
  470MOL0     C63349   5.013   5.161   9.309  0.0163 -0.7067 -0.2710
  470MOL0     O63350   4.911   5.191   9.401  0.1709  0.4940  0.5137
  470MOL0     C63351   4.953   5.171   9.541 -0.0385 -0.8065 -0.4302
  470MOL0     C63352   5.041   5.291   9.593  1.0637 -0.2935  0.0800
  470MOL0     C63353   4.978   5.416   9.655  0.9076 -0.1941  0.4534
  470MOL0     C63354   4.905   5.397   9.793  0.0002 -0.2580  0.1341
  470MOL0     C63355   4.858   5.526   9.857  0.0029 -0.1114  0.8446
  470MOL0     C63356   4.969   5.626   9.882  0.5708 -0.2683  0.3396
  470MOL0     C63357   4.921   5.755   9.953 -0.7682  0.9065  0.6152
  470MOL0     C63358   5.012   5.876   9.946 -0.3135 -0.1269 -0.4234
  470MOL0    Cl63359   4.923   6.012  10.029 -0.1584 -0.0489  0.1642
  470MOL0     C63360   5.143   5.124   9.344 -0.3534 -0.1620 -0.0726
  470MOL0     C63361   5.244   5.101   9.244 -0.2273 -0.3158 -0.5332
  470MOL0     O63362   5.500   5.203   9.142 -0.3416  0.0035 -0.3647
  470MOL0     C63363   5.688   5.126   8.946  0.3327  0.7560  0.8292
  470MOL0     C63364   5.764   5.097   8.837 -0.4030  0.7022 -0.9216
  470MOL0     N63365   5.478   5.103   7.998 -0.3141  0.5334 -0.1166
  470MOL0     N63366   5.414   5.044   7.896 -0.1630 -0.3719  0.3604
  470MOL0     C63367   6.065   5.630   8.166 -0.8802 -0.4616 -0.0209
  470MOL0     C63368   6.042   5.634   8.300 -0.6221  0.7094 -0.3601
  470MOL0     C63369   5.910   5.593   8.737 -0.5185  0.3700 -0.9405
  470MOL0     C63370   5.953   5.682   8.845  0.5881  0.0720 -1.1757
  470MOL0     C63371   5.952   5.650   8.980  0.5411  0.7099 -0.0790
  470MOL0     C63372   5.898   5.526   9.021  0.7858  0.3798  0.5299
  470MOL0     O63373   5.879   5.502   9.154  0.4621 -0.7626  0.2805
  470MOL0     C63374   5.758   5.425   9.203  0.2945 -0.4110  0.4894
  470MOL0     C63375   5.708   5.496   9.329 -0.8659 -0.3525 -0.0172
  470MOL0     C63376   5.582   5.444   9.393  0.7073  0.4298 -0.1078
  470MOL0     C63377   5.544   5.555   9.495 -0.4023  0.7752 -0.2569
  470MOL0     C63378   5.445   5.508   9.588 -0.1526 -1.1630  0.1246
  470MOL0     C63379   5.357   5.456   9.654 -0.2566  0.3530 -0.0474
  470MOL0     C63380   5.851   5.442   8.917  0.6031  0.1622  0.7054
  470MOL0     C63381   5.856   5.468   8.782 -0.1690  0.2778 -0.2484
  470MOL0     C63382   5.777   5.374   8.687 -1.0553  0.2022  0.4650
  470MOL0     H63383   5.807   5.391   8.315 -1.2383  1.4160 -1.1902
  470MOL0     H63384   5.854   5.399   8.048  1.0448  0.0782 -0.2296
  470MOL0     H63385   6.166   5.422   7.886  0.2406  2.2348  0.2337
  470MOL0     H63386   6.011   5.348   7.926  0.2621  0.2265  3.2257
  470MOL0     H63387   6.055   5.405   7.653  2.9570 -1.4009  1.5381
  470MOL0     H63388   6.005   5.556   7.715  4.6941 -1.2133 -1.4836
  470MOL0     H63389   5.806   5.469   7.659  4.1654  1.8506 -0.8204
  470MOL0     H63390   5.798   5.437   7.831 -0.8509 -0.9482  0.8606
  470MOL0     H63391   5.909   5.225   7.632  1.6754  4.2015 -2.1001
  470MOL0     H63392   5.878   5.199   7.801  1.8214  1.0216 -1.3031
  470MOL0     H63393   5.652   5.216   7.780  0.7650  0.1299 -0.0871
  470MOL0     H63394   5.645   5.273   7.615  1.0067  3.0759  2.2181
  470MOL0     H63395   5.743   5.061   7.529 -1.0274 -0.8365 -0.9329
  470MOL0     H63396   5.745   4.998   7.692  2.8204 -0.6825 -1.5357
  470MOL0     H63397   5.531   4.978   7.513 -1.4664  0.7234 -0.0546
  470MOL0     H63398   5.471   5.098   7.631 -0.1748 -1.7143  1.8797
  470MOL0     H63399   5.408   4.860   7.680  0.6560 -0.9010 -0.4124
  470MOL0     H63400   5.578   4.822   7.692 -1.0983 -1.1701 -1.5124
  470MOL0     H63401   5.682   4.849   7.935  0.5559 -0.1602  4.0010
  470MOL0     H63402   5.729   4.953   8.174  0.7666  0.4102 -1.4130
  470MOL0     H63403   5.766   5.113   8.130  3.2197 -3.7191 -0.0957
  470MOL0     H63404   5.571   5.210   8.256 -0.2871  0.1344  2.0163
  470MOL0     H63405   5.511   5.063   8.309 -0.1725 -0.7218 -1.5529
  470MOL0     H63406   5.617   5.170   8.490 -1.0145 -0.8655 -0.0636
  470MOL0     H63407   5.765   5.200   8.389 -0.7118  1.6682  2.3148
  470MOL0     H63408   5.853   4.989   8.422  0.0512  3.1510 -2.8987
  470MOL0     H63409   5.700   4.915   8.469  0.7111 -0.3488  2.0414
  470MOL0     H63410   5.540   5.004   8.603 -1.4432  1.1852 -0.5412
  470MOL0     H63411   5.383   5.045   8.796  0.0165 -1.4780 -1.6823
  470MOL0     H63412   5.057   5.150   8.970 -0.7242 -0.9802  0.0690
  470MOL0     H63413   4.891   5.173   9.130 -0.4625  1.7493  1.1143
  470MOL0     H63414   4.868   5.159   9.609  1.1030 -3.2610  0.7057
  470MOL0     H63415   5.017   5.084   9.559 -2.0664 -2.3799 -0.4815
  470MOL0     H63416   5.125   5.260   9.656  0.1718 -0.2462  1.3238
  470MOL0     H63417   5.092   5.335   9.506 -0.6941  1.2915 -0.2197
  470MOL0     H63418   5.056   5.493   9.652  2.5951 -1.7826  1.4555
  470MOL0     H63419   4.893   5.447   9.593 -0.8844  2.1243  3.7570
  470MOL0     H63420   4.966   5.329   9.853  1.3583 -0.1838 -1.1151
  470MOL0     H63421   4.813   5.343   9.771 -1.1398  0.7593  2.1534
  470MOL0     H63422   4.804   5.491   9.945  0.1005 -0.7081  0.6735
  470MOL0     H63423   4.787   5.569   9.785  1.4938  0.2140 -0.4946
  470MOL0     H63424   5.040   5.580   9.952  2.9170  1.5238 -0.7211
  470MOL0     H63425   5.015   5.651   9.786  2.1640 -0.5876  0.9760
  470MOL0     H63426   4.901   5.734  10.059  2.6671  2.1884  1.6361
  470MOL0     H63427   4.828   5.795   9.912 -0.2425  1.0381 -0.4655
  470MOL0     H63428   5.098   5.849  10.008  1.2399  1.9537 -1.5672
  470MOL0     H63429   5.043   5.895   9.843  2.4085 -1.4807  0.0454
  470MOL0     H63430   5.182   5.116   9.445  1.3950  3.1559 -0.3258
  470MOL0     H63431   5.340   5.074   9.289  0.5197  3.2532  0.3558
  470MOL0     H63432   5.737   5.165   9.034  0.5022  2.7617 -0.1030
  470MOL0     H63433   5.870   5.106   8.858 -0.7441 -0.4016  1.6309
  470MOL0     H63434   6.143   5.689   8.120 -1.0120  0.4075  0.8534
  470MOL0     H63435   6.092   5.698   8.371  2.1694 -0.6207 -0.9893
  470MOL0     H63436   6.018   5.762   8.810  0.9489 -0.4114 -1.6201
  470MOL0     H63437   5.993   5.713   9.059 -1.0005  2.2036 -0.4106
  470MOL0     H63438   5.786   5.326   9.240  1.7967 -0.4134 -0.5521
  470MOL0     H63439   5.680   5.432   9.127  1.9118 -2.0062 -1.4478
  470MOL0     H63440   5.688   5.601   9.305 -0.4181 -0.2528  0.0472
  470MOL0     H63441   5.787   5.500   9.404  0.4863 -0.9206 -1.3605
  470MOL0     H63442   5.603   5.353   9.449 -0.5065 -1.2488 -2.1987
  470MOL0     H63443   5.505   5.434   9.315 -0.0807  1.1475  0.5512
  470MOL0     H63444   5.629   5.582   9.558  0.6271  3.2154 -2.5423
  470MOL0     H63445   5.514   5.638   9.431 -0.5814 -1.7091 -3.6499
  470MOL0     H63446   5.290   5.407   9.721 -0.3814  1.4582  0.6510
  470MOL0     H63447   5.809   5.347   8.948  1.5198 -0.0982  1.1809
  470MOL0     H63448   5.713   5.419   8.610  0.8114  0.7803 -0.8374
  470MOL0     H63449   5.846   5.308   8.634 -0.8165  1.6645 -1.1276
  470MOL0     H63450   5.695   5.324   8.739 -1.3265 -0.2716 -0.3963
  471MOL0     O63451   1.120   9.454   5.791 -0.6176  0.2082  1.1714
  471MOL0     C63452   1.084   9.413   5.896 -0.0614 -0.1383 -0.1838
  471MOL0     O63453   1.119   9.294   5.943 -0.6833  0.3478 -1.1206
  471MOL0     C63454   1.184   9.203   5.867 -0.3869 -0.7350 -0.1520
  471MOL0     C63455   1.322   9.195   5.883  0.0334 -0.2031  0.0187
  471MOL0     C63456   1.399   9.102   5.809  0.5333  0.4886 -0.5869
  471MOL0     C63457   1.339   9.036   5.703  0.2346 -0.3528 -0.2929
  471MOL0     O63458   1.403   8.950   5.616 -0.3888  0.5819  0.0352
  471MOL0     C63459   1.545   8.918   5.630 -0.7187 -0.1430 -0.4611
  471MOL0     C63460   1.626   8.993   5.528  0.3435  0.2193 -0.1652
  471MOL0     C63461   1.660   9.135   5.571 -0.6865  0.9914 -0.2104
  471MOL0     C63462   1.729   9.217   5.463 -0.5721 -0.1440  0.0214
  471MOL0     C63463   1.753   9.352   5.522 -0.2647 -0.0098  0.1769
  471MOL0     C63464   1.789   9.445   5.401 -1.0163  0.2312 -1.1856
  471MOL0     C63465   1.855   9.569   5.464 -0.2998 -0.0471  1.3378
  471MOL0     C63466   2.000   9.554   5.513 -0.9868 -0.0221 -0.6095
  471MOL0     N63467   2.063   9.686   5.537  0.9109 -0.0384 -0.3493
  471MOL0     C63468   1.999   9.785   5.607 -0.6072 -0.1432  0.3406
  471MOL0     C63469   2.074   9.893   5.578  0.5022  0.0727  0.6614
  471MOL0     C63470   2.042  10.040   5.614  0.5120 -0.1161  0.0861
  471MOL0     C63471   1.898  10.075   5.573  0.0520 -0.4819 -0.9000
  471MOL0     C63472   1.882  10.069   5.417 -0.4479  1.0829  0.6060
  471MOL0     C63473   1.738  10.078   5.378 -0.0286 -0.5461 -0.0669
  471MOL0     O63474   1.691  10.218   5.400  0.3069  0.8971  0.3947
  471MOL0     C63475   1.558  10.247   5.377 -0.2550  0.1680 -0.6535
  471MOL0     C63476   1.519  10.374   5.402  0.6953 -0.5322 -0.0203
  471MOL0     C63477   1.382  10.416   5.391 -0.4174 -0.2612  0.3609
  471MOL0     C63478   1.293  10.328   5.328  0.0980  0.9192  0.2471
  471MOL0     C63479   1.150  10.372   5.316 -0.0131 -0.3884  0.6761
  471MOL0     O63480   1.133  10.504   5.262  0.2460  0.5824 -0.0047
  471MOL0     C63481   1.010  10.530   5.208  0.0094  0.8705  0.4969
  471MOL0     C63482   0.897  10.572   5.280  0.7365  0.5225  0.3738
  471MOL0     C63483   0.782  10.601   5.210  0.1421  0.6286 -0.2340
  471MOL0     C63484   0.781  10.597   5.070 -1.0935  0.1164 -0.1235
  471MOL0     O63485   0.664  10.616   5.006 -0.2682  0.2387 -0.3610
  471MOL0     C63486   0.649  10.566   4.874 -0.5337  0.0509 -0.2103
  471MOL0     C63487   0.509  10.593   4.833  0.0383 -0.6184  0.6807
  471MOL0     C63488   0.403  10.512   4.910 -0.0102  0.2295  0.0658
  471MOL0     C63489   0.398  10.537   5.063 -0.0858 -0.5911  0.1955
  471MOL0     C63490   0.253  10.534   5.123 -0.5817 -0.6803  0.6687
  471MOL0     C63491   0.240  10.535   5.271 -1.0850 -1.0486  0.0065
  471MOL0     C63492   0.276  10.677   5.322  0.0365  0.3473 -0.6625
  471MOL0     C63493   0.221  10.702   5.463  0.4355 -1.4208  0.4481
  471MOL0    Cl63494   0.288  10.575   5.574  0.1282  0.2866  0.0430
  471MOL0     C63495   0.898  10.565   4.999  0.5068  0.7131 -1.0684
  471MOL0     C63496   1.009  10.531   5.067  0.0312  0.4756  0.1604
  471MOL0     O63497   1.060  10.285   5.336  0.4152  1.4818 -0.0024
  471MOL0     C63498   1.330  10.196   5.296 -0.7640  0.7494  0.0916
  471MOL0     C63499   1.462  10.157   5.322 -0.3045  0.1951  0.3060
  471MOL0     N63500   2.192   9.855   5.522 -0.0250  0.3245 -0.3370
  471MOL0     N63501   2.182   9.734   5.486  0.0890  0.1947 -0.3551
  471MOL0     C63502   1.192   9.042   5.689  0.9152 -0.5566  0.2468
  471MOL0     C63503   1.116   9.112   5.778  0.0402  0.4199 -0.6701
  471MOL0     C63504   0.991   9.505   5.971 -0.3394  1.0913  0.4540
  471MOL0     C63505   1.026   9.526   6.108  0.7306  0.8493  0.6479
  471MOL0     C63506   0.967   9.616   6.190  0.2803 -1.2902  1.0733
  471MOL0     C63507   0.860   9.690   6.129  0.6938  0.4056  0.4090
  471MOL0     O63508   0.785   9.768   6.211  0.4396 -0.4572 -0.0066
  471MOL0     C63509   0.841   9.898   6.222 -0.8892  0.4214  1.3707
  471MOL0     C63510   0.766   9.991   6.321 -0.4518 -0.2518  0.7540
  471MOL0     C63511   0.629  10.030   6.257  1.0801  0.8429  0.2239
  471MOL0     C63512   0.536  10.100   6.362  0.2511 -0.3879 -0.1436
  471MOL0     C63513   0.611  10.202   6.433 -0.0405  0.3798 -0.3640
  471MOL0     C63514   0.657  10.298   6.499  1.3909  0.7897  0.4763
  471MOL0     C63515   0.809   9.663   5.998  0.0833 -0.0265  0.5936
  471MOL0     C63516   0.892   9.585   5.913 -0.5413  1.0961 -0.9235
  471MOL0     C63517   0.870   9.588   5.759 -0.3127 -0.6687 -0.0320
  471MOL0     H63518   1.373   9.264   5.950  0.6680  1.7523 -2.3087
  471MOL0     H63519   1.507   9.093   5.824  0.5645  1.1516 -0.3488
  471MOL0     H63520   1.591   8.940   5.726 -0.1615  2.1282 -1.1888
  471MOL0     H63521   1.561   8.813   5.607 -1.3287 -0.8473  1.9874
  471MOL0     H63522   1.562   8.997   5.439 -2.7763 -1.7613  1.8333
  471MOL0     H63523   1.714   8.937   5.494  1.3241 -0.7480  3.5727
  471MOL0     H63524   1.728   9.130   5.657 -1.3680 -1.2376  0.2697
  471MOL0     H63525   1.565   9.185   5.592 -1.0454  0.0038  0.6140
  471MOL0     H63526   1.822   9.173   5.425 -0.3641  0.2103  0.1217
  471MOL0     H63527   1.662   9.229   5.377  3.3712  1.3930 -3.2138
  471MOL0     H63528   1.674   9.403   5.578 -0.4646 -0.5267  0.3703
  471MOL0     H63529   1.836   9.352   5.593 -1.3797  1.7371  1.5548
  471MOL0     H63530   1.865   9.392   5.342  1.1057  2.3796 -0.5631
  471MOL0     H63531   1.704   9.473   5.338 -0.9918  1.9413 -0.5084
  471MOL0     H63532   1.804   9.607   5.552  1.8530  0.9161  2.2425
  471MOL0     H63533   1.850   9.646   5.386 -1.2530  0.6254  2.0391
  471MOL0     H63534   2.007   9.491   5.602 -1.5998 -0.4318 -0.8499
  471MOL0     H63535   2.055   9.507   5.430  2.9429  0.9932  1.1532
  471MOL0     H63536   1.897   9.786   5.645 -1.2773 -3.5823 -0.9835
  471MOL0     H63537   2.039  10.041   5.724  1.9639  2.1442  0.1662
  471MOL0     H63538   2.115  10.108   5.569  3.0327 -2.3343  0.5775
  471MOL0     H63539   1.847  10.002   5.637  0.1567  1.2394  1.2582
  471MOL0     H63540   1.872  10.178   5.599  0.8725  0.3603 -3.1949
  471MOL0     H63541   1.925   9.980   5.370 -1.7601  0.0077  1.3703
  471MOL0     H63542   1.930  10.156   5.373 -1.2583  0.8819 -0.7531
  471MOL0     H63543   1.675  10.005   5.430 -1.2001 -0.7610 -1.7014
  471MOL0     H63544   1.728  10.047   5.274 -2.3892 -2.9972  0.7816
  471MOL0     H63545   1.582  10.450   5.446 -1.1276  2.2738 -1.9327
  471MOL0     H63546   1.354  10.516   5.422  0.1292 -0.3232  1.0719
  471MOL0     H63547   0.894  10.586   5.388  2.4794 -0.8549  0.6308
  471MOL0     H63548   0.692  10.623   5.267  0.6884 -1.1964  1.4571
  471MOL0     H63549   0.722  10.613   4.807  0.8710 -0.7334  0.7236
  471MOL0     H63550   0.670  10.458   4.870 -0.5907 -0.3477  4.7441
  471MOL0     H63551   0.497  10.701   4.836  0.1236 -0.5738 -0.3029
  471MOL0     H63552   0.497  10.577   4.725  0.0988  0.6730  0.4702
  471MOL0     H63553   0.305  10.524   4.864  0.4174  1.1075 -0.6408
  471MOL0     H63554   0.422  10.406   4.889 -3.0431 -0.1824 -1.0107
  471MOL0     H63555   0.443  10.634   5.089 -3.9186  1.3899  0.2341
  471MOL0     H63556   0.462  10.461   5.108 -0.6762 -0.6628  0.9356
  471MOL0     H63557   0.210  10.436   5.100 -0.8740 -0.5338  0.5810
  471MOL0     H63558   0.189  10.611   5.079 -1.0408 -1.3018  0.2129
  471MOL0     H63559   0.137  10.516   5.302 -0.8382 -2.7528 -0.1152
  471MOL0     H63560   0.305  10.460   5.318  1.0944  0.3339 -0.6279
  471MOL0     H63561   0.235  10.763   5.268  0.4343  2.7096  2.5636
  471MOL0     H63562   0.385  10.682   5.334 -0.3565  2.0670  5.0137
  471MOL0     H63563   0.257  10.801   5.493 -0.2265 -0.6130 -1.2857
  471MOL0     H63564   0.112  10.698   5.456  0.3798  0.8890 -1.2373
  471MOL0     H63565   0.906  10.557   4.892 -0.6612 -0.1949 -1.1101
  471MOL0     H63566   1.101  10.506   5.014  0.1162 -4.4372  2.0902
  471MOL0     H63567   1.267  10.120   5.251  0.8103 -1.0017  0.7021
  471MOL0     H63568   1.490  10.054   5.304  0.5710 -0.0768  2.8428
  471MOL0     H63569   1.141   9.005   5.601 -3.6024  2.6923  1.1531
  471MOL0     H63570   1.007   9.113   5.782 -0.0566 -0.6234 -1.9513
  471MOL0     H63571   1.109   9.465   6.142  0.5621  0.7873  0.9531
  471MOL0     H63572   0.999   9.636   6.292  2.2240 -2.1721  0.6791
  471MOL0     H63573   0.832   9.932   6.118  0.1048  1.5119  1.6234
  471MOL0     H63574   0.946   9.895   6.252 -0.3015  1.2295 -0.4440
  471MOL0     H63575   0.834  10.074   6.344 -0.4310 -0.9653  3.6673
  471MOL0     H63576   0.752   9.952   6.422  0.6503  2.6713  2.1693
  471MOL0     H63577   0.576   9.942   6.218  0.1560  2.3924 -2.2204
  471MOL0     H63578   0.644  10.108   6.182 -3.4605  2.7525  0.9713
  471MOL0     H63579   0.447  10.149   6.320 -1.7620 -0.5656  3.4945
  471MOL0     H63580   0.489  10.024   6.426 -1.4571  0.0831 -0.7683
  471MOL0     H63581   0.687  10.360   6.582 -1.0868 -0.6614  2.6341
  471MOL0     H63582   0.720   9.705   5.955  0.6949 -0.1685 -0.8529
  471MOL0     H63583   0.804   9.672   5.733  2.8029  2.0107  0.0032
  471MOL0     H63584   0.965   9.594   5.705 -0.2534 -0.7603  0.0641
  471MOL0     H63585   0.823   9.494   5.729 -1.8805  0.6852 -2.1133
  472MOL0     O63586   2.081   7.616   2.973  0.0279 -0.3836  0.6015
  472MOL0     C63587   2.032   7.687   2.875  0.4238 -0.0882 -0.2986
  472MOL0     O63588   1.989   7.818   2.876 -0.6811 -0.2357  0.1740
  472MOL0     C63589   1.934   7.879   2.990  1.0202 -1.1383 -0.4156
  472MOL0     C63590   1.829   7.979   2.974 -0.1920  0.3795  0.4142
  472MOL0     C63591   1.771   8.044   3.084 -0.8189  1.5062 -0.0712
  472MOL0     C63592   1.823   8.013   3.206 -0.2815 -0.0167 -0.2589
  472MOL0     O63593   1.758   8.073   3.309 -0.7689 -0.0104  0.1228
  472MOL0     C63594   1.805   8.054   3.444  0.0002  0.8908 -0.4235
  472MOL0     C63595   1.720   8.126   3.545 -0.0315 -1.1215  0.6815
  472MOL0     C63596   1.710   8.286   3.517  0.7423  0.1778 -0.1507
  472MOL0     C63597   1.747   8.378   3.632 -0.2605  0.4188  0.2866
  472MOL0     C63598   1.718   8.522   3.588 -0.0319  0.4290 -0.1724
  472MOL0     C63599   1.756   8.620   3.700 -0.9306 -0.8023 -0.2588
  472MOL0     C63600   1.743   8.766   3.654 -1.4068 -0.1517  0.2107
  472MOL0     C63601   1.616   8.812   3.716  0.7834 -0.0589  0.5846
  472MOL0     N63602   1.623   8.950   3.757 -0.9150  0.8227 -0.1870
  472MOL0     C63603   1.617   8.993   3.885 -0.2862 -1.2774 -1.0336
  472MOL0     C63604   1.665   9.122   3.894 -0.1257 -0.6054  0.0969
  472MOL0     C63605   1.692   9.209   4.017  0.7219 -0.1180 -0.5157
  472MOL0     C63606   1.837   9.226   4.052  0.3084 -0.1912  0.8422
  472MOL0     C63607   1.918   9.100   4.087 -0.3303 -0.3831  0.6484
  472MOL0     C63608   2.072   9.125   4.065 -0.7705  1.1771 -0.0795
  472MOL0     O63609   2.147   9.005   4.104 -0.1215  0.4286  0.1914
  472MOL0     C63610   2.154   8.891   4.031  1.2812  0.4060  0.9327
  472MOL0     C63611   2.220   8.779   4.090 -0.3077  0.7219 -0.0840
  472MOL0     C63612   2.239   8.663   4.031 -0.4347  0.9682  0.3065
  472MOL0     C63613   2.178   8.645   3.909 -0.5639 -0.0202  0.5500
  472MOL0     C63614   2.159   8.511   3.840 -0.1980 -0.4097  0.5769
  472MOL0     O63615   2.228   8.406   3.884 -0.3914  0.7854  0.4785
  472MOL0     C63616   2.190   8.290   3.822  1.0913  1.2749 -0.3580
  472MOL0     C63617   2.083   8.198   3.866 -0.6002 -0.2879  0.5353
  472MOL0     C63618   2.058   8.074   3.800  0.6244  0.5251  1.4166
  472MOL0     C63619   2.136   8.037   3.686  0.2325  1.1997 -1.3851
  472MOL0     O63620   2.117   7.919   3.615 -0.0874  0.6627 -0.7002
  472MOL0     C63621   2.084   7.807   3.697  0.2115  0.9686  0.3837
  472MOL0     C63622   2.103   7.682   3.618 -0.0032 -0.2989 -0.2812
  472MOL0     C63623   2.042   7.557   3.686 -0.0203  0.2275  0.1102
  472MOL0     C63624   2.080   7.426   3.610  0.4989  0.3449 -0.2670
  472MOL0     C63625   2.021   7.308   3.690 -0.3260 -0.4711  0.2425
  472MOL0     C63626   2.057   7.275   3.832  0.3868 -0.5147 -0.5176
  472MOL0     C63627   1.978   7.160   3.890 -0.0612 -0.5597  0.7028
  472MOL0     C63628   2.062   7.081   3.987 -0.5954  0.2075 -0.7727
  472MOL0    Cl63629   2.052   7.158   4.151  0.2230 -0.3861  0.6594
  472MOL0     C63630   2.237   8.124   3.641 -0.4412  0.3075 -0.0814
  472MOL0     C63631   2.270   8.239   3.718  0.5158  0.0660  1.2860
  472MOL0     O63632   2.077   8.511   3.751  0.4382 -0.4556 -0.7162
  472MOL0     C63633   2.094   8.749   3.850 -0.1127  0.3888  0.0627
  472MOL0     C63634   2.093   8.881   3.904 -0.6999 -0.1604  0.5426
  472MOL0     N63635   1.684   9.162   3.765  0.9125 -0.3924  0.6492
  472MOL0     N63636   1.664   9.058   3.691 -0.6011 -0.1159  0.0251
  472MOL0     C63637   1.926   7.916   3.225  0.7606 -0.1403  0.3268
  472MOL0     C63638   1.985   7.851   3.120 -0.4822  0.1261  0.2933
  472MOL0     C63639   2.017   7.649   2.732  0.6102  0.2834 -0.5138
  472MOL0     C63640   1.916   7.712   2.658  0.0692 -0.1371  0.2821
  472MOL0     C63641   1.897   7.680   2.521 -0.6038 -0.4729  0.1807
  472MOL0     C63642   1.972   7.582   2.446  0.6282 -1.1903 -0.1440
  472MOL0     O63643   1.954   7.571   2.306 -0.0756 -0.3099 -0.3598
  472MOL0     C63644   2.049   7.496   2.233  0.3086 -0.0292  0.2971
  472MOL0     C63645   2.033   7.537   2.081  0.9412 -0.3311  0.0522
  472MOL0     C63646   2.114   7.660   2.045  0.2228  0.1856 -0.8247
  472MOL0     C63647   2.121   7.677   1.890  0.0129 -0.6647 -0.7104
  472MOL0     C63648   1.995   7.729   1.836  0.8254 -0.2881  0.6282
  472MOL0     C63649   1.886   7.736   1.782 -0.4244 -0.8205 -0.0211
  472MOL0     C63650   2.066   7.516   2.532 -0.2946 -0.1089 -0.2780
  472MOL0     C63651   2.084   7.543   2.668 -1.1904  0.2315 -1.0085
  472MOL0     C63652   2.198   7.477   2.749 -0.4645 -0.6618  0.9560
  472MOL0     H63653   1.804   8.012   2.874  0.1381  3.2417  1.1915
  472MOL0     H63654   1.684   8.108   3.078 -1.9080 -0.0299 -1.3530
  472MOL0     H63655   1.786   7.948   3.466 -0.0630  0.9371 -0.2554
  472MOL0     H63656   1.911   8.078   3.462 -0.1977 -0.1406  2.8483
  472MOL0     H63657   1.758   8.107   3.646  1.1474  0.1691  0.5096
  472MOL0     H63658   1.621   8.083   3.528 -0.1536 -0.0339 -1.8755
  472MOL0     H63659   1.608   8.313   3.489  0.3562 -0.4812  0.5914
  472MOL0     H63660   1.774   8.312   3.432  1.0188  1.7514  0.5035
  472MOL0     H63661   1.695   8.351   3.724 -0.4609  1.6175  0.5420
  472MOL0     H63662   1.852   8.370   3.662 -0.6683  3.3289  3.0137
  472MOL0     H63663   1.784   8.539   3.501 -0.3986  2.0311 -0.1617
  472MOL0     H63664   1.614   8.532   3.558 -0.8058 -0.0241  2.1827
  472MOL0     H63665   1.714   8.593   3.797  0.1959  0.4011  0.5957
  472MOL0     H63666   1.864   8.623   3.714 -1.0181  1.1553  0.2295
  472MOL0     H63667   1.730   8.770   3.545 -3.5723 -0.4610  0.4067
  472MOL0     H63668   1.829   8.833   3.663 -3.3654  3.2872 -3.6761
  472MOL0     H63669   1.535   8.789   3.646  0.1920  1.3496  0.7780
  472MOL0     H63670   1.596   8.754   3.807  1.6023  0.5414  1.1581
  472MOL0     H63671   1.594   8.943   3.979  2.0513  0.2923  0.5012
  472MOL0     H63672   1.646   9.307   4.005 -2.5254 -1.1854  1.8132
  472MOL0     H63673   1.649   9.170   4.109  1.9536  2.4409  1.2676
  472MOL0     H63674   1.892   9.284   3.978 -0.6294 -2.2194 -1.5813
  472MOL0     H63675   1.835   9.290   4.141 -0.4074 -0.2425  0.8712
  472MOL0     H63676   1.898   9.008   4.031 -1.3137  1.2684 -1.9104
  472MOL0     H63677   1.898   9.072   4.191 -5.0543 -0.5820 -0.1070
  472MOL0     H63678   2.118   9.197   4.133  2.9214 -0.7857 -0.2341
  472MOL0     H63679   2.091   9.161   3.964  1.7071  0.5008  0.0727
  472MOL0     H63680   2.245   8.810   4.191  2.3632  3.2148 -1.3519
  472MOL0     H63681   2.288   8.575   4.073 -2.5250  0.2106  1.3137
  472MOL0     H63682   2.013   8.231   3.942 -1.6623 -0.0559 -0.5147
  472MOL0     H63683   1.980   8.013   3.844  0.4387  0.5312  1.1041
  472MOL0     H63684   2.149   7.799   3.785 -1.3765  1.3698  1.6272
  472MOL0     H63685   1.980   7.820   3.728 -1.2948 -3.3420 -1.9350
  472MOL0     H63686   2.054   7.697   3.521 -1.8209 -4.3311 -0.1781
  472MOL0     H63687   2.207   7.653   3.603 -0.6866 -2.4612 -1.1154
  472MOL0     H63688   2.085   7.551   3.786  2.0076 -1.8352 -0.7799
  472MOL0     H63689   1.934   7.576   3.686  0.1010  1.0114 -0.9234
  472MOL0     H63690   2.186   7.413   3.585 -0.1039 -0.5578 -2.7032
  472MOL0     H63691   2.041   7.440   3.508 -1.9298 -0.1217  0.5433
  472MOL0     H63692   2.017   7.219   3.627  2.6726 -1.0233  0.6747
  472MOL0     H63693   1.915   7.333   3.683  0.2029  1.4186 -2.8927
  472MOL0     H63694   2.164   7.255   3.837  0.1091 -2.1891 -0.7868
  472MOL0     H63695   2.040   7.349   3.912  1.5756 -1.0734  0.2812
  472MOL0     H63696   1.932   7.094   3.815  0.1065 -3.7421  3.1852
  472MOL0     H63697   1.892   7.209   3.936  0.5001  2.1643 -0.9057
  472MOL0     H63698   2.031   6.977   3.999  2.8002 -0.8262 -0.0529
  472MOL0     H63699   2.168   7.076   3.960 -0.2894 -1.8479  0.6238
  472MOL0     H63700   2.298   8.101   3.555  3.2412 -0.0180  2.3809
  472MOL0     H63701   2.361   8.286   3.680  2.0847 -2.0038  2.2990
  472MOL0     H63702   2.029   8.730   3.766 -0.2963 -2.0000  0.6794
  472MOL0     H63703   2.033   8.958   3.857 -0.4039  0.6712  1.4948
  472MOL0     H63704   1.954   7.892   3.327 -0.2416  1.2039  0.9562
  472MOL0     H63705   2.068   7.786   3.145  0.2651  0.9134 -0.0864
  472MOL0     H63706   1.850   7.791   2.692  0.4047  0.1242  0.3306
  472MOL0     H63707   1.812   7.714   2.463  0.6700 -0.7143 -1.9226
  472MOL0     H63708   2.015   7.392   2.227 -0.7027  0.0745  2.8762
  472MOL0     H63709   2.151   7.499   2.272 -0.7579 -0.3190  3.4273
  472MOL0     H63710   1.928   7.557   2.059  0.6525  1.6253  2.6762
  472MOL0     H63711   2.050   7.455   2.010 -1.9364 -0.2008 -0.9245
  472MOL0     H63712   2.211   7.641   2.091 -0.1567 -1.4702 -0.6357
  472MOL0     H63713   2.071   7.748   2.092 -0.2211 -0.2598 -0.3900
  472MOL0     H63714   2.209   7.734   1.858  0.2034  0.3069  1.3652
  472MOL0     H63715   2.132   7.578   1.845 -2.1933 -0.3237 -2.1335
  472MOL0     H63716   1.795   7.739   1.726 -1.8189  3.8121  1.9776
  472MOL0     H63717   2.147   7.452   2.500  0.8182  1.1370 -0.0397
  472MOL0     H63718   2.161   7.417   2.832  0.7866  1.4994  3.2118
  472MOL0     H63719   2.250   7.416   2.674 -0.5685  1.2793 -0.7809
  472MOL0     H63720   2.279   7.546   2.774  0.5733 -1.5904  0.2669
  473MOL0     O63721   2.678   0.512   1.898  0.6260 -0.4780  0.0577
  473MOL0     C63722   2.614   0.446   1.816 -0.1458  1.5884 -0.9627
  473MOL0     O63723   2.547   0.484   1.701  0.3048 -0.1175 -0.3639
  473MOL0     C63724   2.515   0.618   1.686  0.5992  0.1032  1.0382
  473MOL0     C63725   2.544   0.685   1.565  0.6692 -0.0953  0.2056
  473MOL0     C63726   2.517   0.819   1.548  0.3997  0.1039  0.5204
  473MOL0     C63727   2.448   0.891   1.648 -0.3899 -0.0712  0.9233
  473MOL0     O63728   2.421   1.030   1.659 -0.8670  0.4221 -0.0740
  473MOL0     C63729   2.461   1.113   1.551  0.6040 -0.1425 -0.2318
  473MOL0     C63730   2.446   1.260   1.577  0.2892 -0.7016 -0.5246
  473MOL0     C63731   2.555   1.305   1.678  0.2604  0.5800 -0.3002
  473MOL0     C63732   2.568   1.454   1.658  0.5765  0.3924 -0.7802
  473MOL0     C63733   2.632   1.525   1.780 -0.4781  0.0620 -0.2614
  473MOL0     C63734   2.633   1.676   1.766 -0.0593 -0.3575  0.4835
  473MOL0     C63735   2.761   1.740   1.843  0.7790  0.3481 -0.8904
  473MOL0     C63736   2.872   1.791   1.749  0.8307 -0.2573 -0.5958
  473MOL0     N63737   2.977   1.839   1.834 -0.1460  0.9817 -1.2395
  473MOL0     C63738   2.969   1.961   1.893 -0.1660  0.6931  1.0632
  473MOL0     C63739   3.088   1.971   1.950 -0.6808 -0.5473  0.8708
  473MOL0     C63740   3.139   2.104   2.007  0.0435  0.1748  0.0901
  473MOL0     C63741   3.196   2.088   2.157 -0.0662  0.7253  0.0179
  473MOL0     C63742   3.346   2.102   2.180 -0.0655  0.1385 -0.9233
  473MOL0     C63743   3.437   2.003   2.112 -0.3684  0.7203  0.5550
  473MOL0     O63744   3.571   2.071   2.088  0.4763  0.7253 -0.0746
  473MOL0     C63745   3.661   2.019   2.175  0.1886  0.5253 -0.2935
  473MOL0     C63746   3.665   2.060   2.311 -0.7203  0.8687 -0.7407
  473MOL0     C63747   3.764   2.020   2.401  0.4923  1.1269 -0.0610
  473MOL0     C63748   3.856   1.911   2.360  0.2975 -0.6703  0.0105
  473MOL0     C63749   3.949   1.837   2.449  0.4480 -0.1255 -0.4057
  473MOL0     O63750   3.952   1.867   2.580  0.1405  0.2405 -0.5811
  473MOL0     C63751   4.032   1.791   2.656 -0.4424 -0.1300  0.6193
  473MOL0     C63752   4.174   1.784   2.648 -0.8314 -0.6120 -0.0789
  473MOL0     C63753   4.235   1.707   2.746 -0.1713  0.5370 -1.0655
  473MOL0     C63754   4.169   1.647   2.854  0.5412  0.0679  1.0809
  473MOL0     O63755   4.227   1.563   2.947 -0.0996  0.4236  0.7556
  473MOL0     C63756   4.332   1.628   3.024  0.8153 -0.0867  0.7417
  473MOL0     C63757   4.291   1.655   3.165 -0.1212 -0.1227 -0.3877
  473MOL0     C63758   4.256   1.520   3.233 -0.4197  0.0928  0.0581
  473MOL0     C63759   4.268   1.529   3.386  0.5016  0.5912  1.0160
  473MOL0     C63760   4.246   1.407   3.462  0.8701  0.7480 -0.2648
  473MOL0     C63761   4.285   1.431   3.615 -0.1376  1.1983 -0.5162
  473MOL0     C63762   4.309   1.302   3.696  0.6422 -0.3425  0.8536
  473MOL0     C63763   4.194   1.208   3.708  0.2137  0.1383 -0.1442
  473MOL0    Cl63764   4.195   1.108   3.565  0.1477  0.3019  0.5045
  473MOL0     C63765   4.029   1.647   2.842  0.6576 -0.1615 -0.0531
  473MOL0     C63766   3.967   1.718   2.745  0.5181  0.9379 -0.9222
  473MOL0     O63767   4.018   1.755   2.391  0.5167  0.1070 -0.4620
  473MOL0     C63768   3.847   1.872   2.222 -1.1565 -0.6864  0.1065
  473MOL0     C63769   3.749   1.926   2.134  0.4881  0.2849  0.0188
  473MOL0     N63770   3.163   1.851   1.946  0.1775 -0.0218  0.3902
  473MOL0     N63771   3.092   1.769   1.873  0.0739 -0.0686 -0.2772
  473MOL0     C63772   2.399   0.817   1.763 -0.7182 -0.1754 -1.0217
  473MOL0     C63773   2.442   0.677   1.786 -0.1030 -0.9849 -0.6774
  473MOL0     C63774   2.633   0.305   1.835 -0.3304  0.2628 -0.3659
  473MOL0     C63775   2.765   0.260   1.835 -0.0792 -0.6093  0.7030
  473MOL0     C63776   2.784   0.120   1.826 -0.0549  0.8274 -0.7351
  473MOL0     C63777   2.674   0.032   1.838 -0.0961 -0.7941  0.1039
  473MOL0     O63778   2.689  -0.100   1.847 -0.3634 -0.4906 -0.2749
  473MOL0     C63779   2.803  -0.164   1.773 -0.0916 -0.0088 -0.5734
  473MOL0     C63780   2.799  -0.320   1.742 -0.1309  0.3404 -0.4525
  473MOL0     C63781   2.904  -0.364   1.653  0.5768 -1.0278  0.6393
  473MOL0     C63782   3.046  -0.345   1.714 -0.4888 -0.0656  0.2558
  473MOL0     C63783   3.060  -0.395   1.848 -0.1916  0.3561  1.2666
  473MOL0     C63784   3.098  -0.427   1.959 -0.0531 -0.3116  0.0666
  473MOL0     C63785   2.544   0.088   1.852 -0.5966  1.1661 -0.9246
  473MOL0     C63786   2.526   0.219   1.855 -0.2630 -0.2919 -0.3291
  473MOL0     C63787   2.379   0.262   1.858  0.5325  0.1042 -1.1678
  473MOL0     H63788   2.598   0.641   1.482 -1.2196 -0.2811 -0.9853
  473MOL0     H63789   2.545   0.853   1.449  1.1412 -3.4509 -0.6467
  473MOL0     H63790   2.567   1.093   1.532  1.0956  1.5590  0.5381
  473MOL0     H63791   2.400   1.093   1.463 -0.6561  0.9475  0.3508
  473MOL0     H63792   2.349   1.287   1.620  0.9165  1.9595 -0.5678
  473MOL0     H63793   2.456   1.311   1.480  1.1697 -1.8202 -1.0394
  473MOL0     H63794   2.650   1.254   1.660  0.6845  0.5754  1.7764
  473MOL0     H63795   2.518   1.271   1.775 -0.4618 -1.2447 -1.1570
  473MOL0     H63796   2.625   1.478   1.568  1.5306  0.0702 -0.2718
  473MOL0     H63797   2.462   1.481   1.651  0.4047 -0.3505 -1.1559
  473MOL0     H63798   2.591   1.483   1.873 -2.1803  1.6640 -0.2198
  473MOL0     H63799   2.735   1.489   1.788 -0.9912 -3.1003 -4.4026
  473MOL0     H63800   2.621   1.706   1.661 -6.2178 -0.4290  0.7880
  473MOL0     H63801   2.547   1.717   1.820  0.4123 -0.5955  1.4498
  473MOL0     H63802   2.817   1.670   1.906  0.6234 -0.0743 -1.2200
  473MOL0     H63803   2.736   1.823   1.910 -2.4954  0.1619 -1.6884
  473MOL0     H63804   2.894   1.710   1.679  1.5943  0.5278 -1.2957
  473MOL0     H63805   2.829   1.874   1.692  0.2561  0.9212  1.4630
  473MOL0     H63806   2.903   2.046   1.878 -0.0668  0.5082 -0.5728
  473MOL0     H63807   3.195   2.178   1.950 -3.8065  1.8175 -1.9211
  473MOL0     H63808   3.045   2.159   2.017 -0.5308 -1.1613  4.2584
  473MOL0     H63809   3.159   2.159   2.231 -1.3612 -0.9343  1.0463
  473MOL0     H63810   3.159   1.988   2.182 -1.2124  0.0792 -3.7140
  473MOL0     H63811   3.357   2.094   2.288 -1.1913 -0.7856 -0.8604
  473MOL0     H63812   3.377   2.204   2.155 -3.0166  1.8992  1.7694
  473MOL0     H63813   3.390   1.986   2.014 -3.8912  0.0360  2.2305
  473MOL0     H63814   3.434   1.903   2.155 -1.2416  0.2771 -0.4780
  473MOL0     H63815   3.594   2.140   2.329 -1.0815  0.0827  1.5944
  473MOL0     H63816   3.768   2.056   2.503 -2.0471  2.1300 -0.2306
  473MOL0     H63817   4.234   1.818   2.564  2.6837 -4.3599  0.6343
  473MOL0     H63818   4.343   1.697   2.737  0.0577  0.9710  0.7775
  473MOL0     H63819   4.423   1.569   3.011 -0.3572 -1.3241 -3.3078
  473MOL0     H63820   4.343   1.733   2.995  1.7088 -0.8779 -2.1046
  473MOL0     H63821   4.361   1.718   3.221  0.2635 -1.6818  0.9514
  473MOL0     H63822   4.194   1.707   3.162  0.0361  0.1628 -0.5637
  473MOL0     H63823   4.163   1.472   3.200  0.2525 -0.7391 -0.6723
  473MOL0     H63824   4.329   1.446   3.199  0.7545  0.8210  0.9217
  473MOL0     H63825   4.208   1.610   3.428 -2.1482 -0.7033  0.0063
  473MOL0     H63826   4.373   1.558   3.393  0.7501  0.3739 -1.0196
  473MOL0     H63827   4.298   1.327   3.408  1.6678  2.5938 -2.3682
  473MOL0     H63828   4.142   1.371   3.460  2.0445 -3.2860 -3.9542
  473MOL0     H63829   4.370   1.499   3.624 -2.0344  3.5655  0.9588
  473MOL0     H63830   4.194   1.474   3.656 -1.8422 -1.7958 -0.8311
  473MOL0     H63831   4.331   1.332   3.798 -0.2847  3.3839  0.0974
  473MOL0     H63832   4.407   1.257   3.676 -0.3364 -1.4561 -2.1218
  473MOL0     H63833   4.194   1.152   3.802  1.7396  0.9147  0.3468
  473MOL0     H63834   4.105   1.270   3.713 -0.0236 -0.2244  0.2765
  473MOL0     H63835   3.971   1.590   2.914  2.9585 -0.1356  1.9455
  473MOL0     H63836   3.860   1.732   2.741  0.3182  0.2136  1.0158
  473MOL0     H63837   3.891   1.777   2.195 -1.7427 -0.9419  0.0349
  473MOL0     H63838   3.744   1.902   2.029  1.5788 -1.2653  0.2893
  473MOL0     H63839   2.334   0.856   1.841 -1.5433 -4.3558  0.6766
  473MOL0     H63840   2.410   0.637   1.881  0.5303  2.2597  1.0371
  473MOL0     H63841   2.855   0.321   1.838  1.2659 -1.6373 -5.4706
  473MOL0     H63842   2.889   0.091   1.831 -0.1087  0.7844  0.3948
  473MOL0     H63843   2.896  -0.159   1.830  1.1420  4.3149 -2.5521
  473MOL0     H63844   2.817  -0.120   1.674  1.1430 -0.2201 -0.5064
  473MOL0     H63845   2.707  -0.350   1.692 -1.0440  1.2128  0.6594
  473MOL0     H63846   2.803  -0.387   1.829  3.2215 -0.0712 -0.7976
  473MOL0     H63847   2.902  -0.299   1.565  2.5508  0.9286  1.9287
  473MOL0     H63848   2.895  -0.470   1.631  4.9520 -0.5301 -6.9872
  473MOL0     H63849   3.110  -0.396   1.641  0.6832  1.4495  0.1724
  473MOL0     H63850   3.067  -0.238   1.709  0.8584 -0.3627 -2.6733
  473MOL0     H63851   3.134  -0.449   2.057 -1.5312  1.8412  1.1814
  473MOL0     H63852   2.468   0.012   1.844  1.7709 -1.2361 -2.4661
  473MOL0     H63853   2.329   0.228   1.767 -3.3237  0.0653  0.7591
  473MOL0     H63854   2.319   0.217   1.938  1.3915 -0.9962 -1.1302
  473MOL0     H63855   2.356   0.368   1.872  0.0208 -0.3945  3.1576
  474MOL0     O63856   8.530   7.652   3.004  0.6145  0.8196 -0.1660
  474MOL0     C63857   8.512   7.528   3.019  0.9728 -0.0380 -0.0520
  474MOL0     O63858   8.515   7.433   2.922 -0.0272  0.3775  0.4019
  474MOL0     C63859   8.531   7.477   2.794 -0.2410  0.8368 -0.8718
  474MOL0     C63860   8.601   7.387   2.706  0.1172 -0.1496  0.4000
  474MOL0     C63861   8.606   7.417   2.562 -0.4270 -0.0830 -0.8748
  474MOL0     C63862   8.558   7.540   2.516  0.1711  0.2957 -1.0991
  474MOL0     O63863   8.589   7.591   2.398  0.4406 -0.0482  0.1736
  474MOL0     C63864   8.562   7.720   2.357 -1.1181  0.1693  1.1190
  474MOL0     C63865   8.592   7.736   2.205  1.2762 -0.6813 -0.3293
  474MOL0     C63866   8.675   7.854   2.162  0.0770 -0.1999 -0.3080
  474MOL0     C63867   8.711   7.864   2.017  0.5944  0.0376  0.9906
  474MOL0     C63868   8.791   7.992   1.967 -0.3102  0.0058  0.8347
  474MOL0     C63869   8.734   8.135   1.981 -0.5261 -0.3123 -0.1971
  474MOL0     C63870   8.840   8.246   1.958  0.6297 -0.3157  0.5313
  474MOL0     C63871   8.781   8.383   1.955 -0.3272  1.0432 -0.5825
  474MOL0     N63872   8.747   8.432   1.825  1.2135  0.2565 -0.3786
  474MOL0     C63873   8.624   8.428   1.757 -0.9997 -0.1915  0.5693
  474MOL0     C63874   8.651   8.515   1.655  0.1604 -0.2390 -0.0651
  474MOL0     C63875   8.561   8.542   1.534  0.0171 -0.6529  0.5785
  474MOL0     C63876   8.493   8.677   1.523  0.2172  1.3175  0.4162
  474MOL0     C63877   8.400   8.695   1.396 -0.6606 -0.1943 -0.0439
  474MOL0     C63878   8.393   8.841   1.345 -0.3834 -0.0493  0.1412
  474MOL0     O63879   8.507   8.878   1.271 -0.4808  0.2486 -0.6840
  474MOL0     C63880   8.531   8.814   1.153  0.3141  0.3965  1.1513
  474MOL0     C63881   8.651   8.747   1.136 -0.2092 -0.8863 -0.2355
  474MOL0     C63882   8.691   8.692   1.015  0.1290 -0.7921 -1.2786
  474MOL0     C63883   8.616   8.698   0.901 -0.7673  0.4090  0.1953
  474MOL0     C63884   8.657   8.610   0.783  0.2948 -0.8867 -0.2498
  474MOL0     O63885   8.554   8.573   0.698 -0.1985 -0.3381  0.1295
  474MOL0     C63886   8.589   8.469   0.614 -0.2332  0.9800  0.3135
  474MOL0     C63887   8.606   8.330   0.647 -0.6866 -0.3093  0.0686
  474MOL0     C63888   8.641   8.231   0.560  1.3500 -0.0787  0.9048
  474MOL0     C63889   8.672   8.266   0.433 -0.6218 -0.2583 -0.0315
  474MOL0     O63890   8.718   8.181   0.334  0.6605 -0.2768  0.6788
  474MOL0     C63891   8.808   8.081   0.386 -0.1108 -0.0843  0.8923
  474MOL0     C63892   8.945   8.099   0.328  0.1981 -0.7531 -0.2750
  474MOL0     C63893   9.029   7.982   0.385 -0.3208 -0.1599  1.3694
  474MOL0     C63894   9.177   8.011   0.354  0.8245  0.8000 -0.3923
  474MOL0     C63895   9.270   7.885   0.379 -0.6298 -0.0769 -0.4266
  474MOL0     C63896   9.418   7.900   0.309 -0.8640  0.5538 -0.8961
  474MOL0     C63897   9.474   8.034   0.312 -0.4488  0.2345 -0.3388
  474MOL0     C63898   9.614   8.034   0.253  0.7531 -0.0527 -0.4910
  474MOL0    Cl63899   9.708   8.165   0.314  0.1786  0.1793 -0.3011
  474MOL0     C63900   8.649   8.393   0.390  0.9504  0.1371  1.1699
  474MOL0     C63901   8.610   8.496   0.478 -0.6887  0.1656  0.2806
  474MOL0     O63902   8.780   8.596   0.768 -0.3036 -0.5014  0.0769
  474MOL0     C63903   8.504   8.775   0.907 -0.4797  0.9208  0.3013
  474MOL0     C63904   8.460   8.834   1.027  0.2539  0.3085  0.6155
  474MOL0     N63905   8.775   8.568   1.666 -0.6382 -0.2015 -0.1151
  474MOL0     N63906   8.838   8.505   1.756  0.3137  0.7842 -0.1457
  474MOL0     C63907   8.482   7.630   2.606 -0.7098  0.0364  0.2503
  474MOL0     C63908   8.473   7.592   2.738  0.0390  0.6143  0.0646
  474MOL0     C63909   8.475   7.479   3.165  0.2032 -0.3533 -0.9273
  474MOL0     C63910   8.402   7.358   3.170 -0.2588  0.0979  0.6219
  474MOL0     C63911   8.370   7.301   3.292  1.0534  0.0969  0.4278
  474MOL0     C63912   8.410   7.354   3.408  0.3069 -0.1960  0.1216
  474MOL0     O63913   8.383   7.275   3.520 -0.8353 -0.2754 -0.8187
  474MOL0     C63914   8.432   7.301   3.644  0.7849  0.6355  0.3505
  474MOL0     C63915   8.362   7.213   3.744  0.7757  0.1704  0.4671
  474MOL0     C63916   8.218   7.263   3.767  0.9458 -0.6632  1.0533
  474MOL0     C63917   8.192   7.401   3.838  0.6576 -0.0550 -0.5483
  474MOL0     C63918   8.283   7.422   3.954 -0.3902  0.3968 -1.0091
  474MOL0     C63919   8.352   7.455   4.054 -0.2713  1.5252  0.6264
  474MOL0     C63920   8.482   7.476   3.406  1.1309 -1.4162 -0.4198
  474MOL0     C63921   8.526   7.540   3.285  0.4800  0.2139  0.1549
  474MOL0     C63922   8.589   7.678   3.293 -1.0023 -0.2762  0.0581
  474MOL0     H63923   8.658   7.301   2.740  0.8188  0.0030 -0.3719
  474MOL0     H63924   8.653   7.356   2.486 -1.6485 -1.2839 -0.7057
  474MOL0     H63925   8.459   7.753   2.375 -1.9847 -1.3498 -0.6592
  474MOL0     H63926   8.626   7.775   2.425 -1.8663  0.1642  1.8415
  474MOL0     H63927   8.497   7.734   2.152  1.0439  0.1234  0.0344
  474MOL0     H63928   8.667   7.658   2.184  0.8249 -1.2803  0.2592
  474MOL0     H63929   8.771   7.849   2.214  1.2225  5.2744 -1.2242
  474MOL0     H63930   8.626   7.943   2.205  0.3819 -1.2580  2.4819
  474MOL0     H63931   8.768   7.775   1.989  0.8468 -0.6476  3.4341
  474MOL0     H63932   8.615   7.864   1.964  0.5729 -0.2972  1.0241
  474MOL0     H63933   8.890   7.988   2.014  1.2305  1.7940 -2.0028
  474MOL0     H63934   8.826   7.988   1.863  2.6564  2.9158  1.5520
  474MOL0     H63935   8.640   8.143   1.926 -0.5353  6.2673 -0.0687
  474MOL0     H63936   8.706   8.143   2.086 -0.3186  3.1274 -0.2864
  474MOL0     H63937   8.888   8.222   1.863  0.5475  1.3860  0.0381
  474MOL0     H63938   8.920   8.238   2.032 -1.6016  1.0405  3.3054
  474MOL0     H63939   8.694   8.381   2.022 -0.2570  1.1294 -0.4872
  474MOL0     H63940   8.860   8.438   2.007 -2.2525  0.9484  2.6949
  474MOL0     H63941   8.525   8.392   1.782 -0.3236 -1.6578  1.2371
  474MOL0     H63942   8.617   8.519   1.443  2.9950 -0.5565  2.2734
  474MOL0     H63943   8.476   8.474   1.547 -0.1289 -0.4352  0.7726
  474MOL0     H63944   8.443   8.711   1.614  1.5050  0.4696  1.4848
  474MOL0     H63945   8.576   8.746   1.506  2.2645 -1.5579 -2.4935
  474MOL0     H63946   8.294   8.679   1.418 -0.9327 -0.3365 -1.3783
  474MOL0     H63947   8.428   8.631   1.312 -1.7045 -0.6561 -0.0588
  474MOL0     H63948   8.383   8.904   1.434 -0.7615 -2.8395  2.2056
  474MOL0     H63949   8.298   8.850   1.292 -1.1326 -0.4831  1.3482
  474MOL0     H63950   8.718   8.738   1.221  3.5289 -0.1159 -2.8293
  474MOL0     H63951   8.781   8.632   1.018  1.1824  0.6415 -2.5026
  474MOL0     H63952   8.590   8.292   0.748  1.7651  0.3352  0.7506
  474MOL0     H63953   8.639   8.125   0.580  0.1878 -0.0345  1.0712
  474MOL0     H63954   8.812   8.082   0.496  2.4996  0.1943  0.8681
  474MOL0     H63955   8.782   7.981   0.350  1.4013 -0.5057  0.8847
  474MOL0     H63956   8.939   8.092   0.219 -3.1927 -0.3787 -0.2176
  474MOL0     H63957   8.985   8.196   0.360 -1.2034  0.2781 -1.4726
  474MOL0     H63958   9.003   7.965   0.490 -4.7474  2.6002  1.0107
  474MOL0     H63959   9.002   7.890   0.334  3.8848 -1.7757  1.6708
  474MOL0     H63960   9.204   8.092   0.422 -0.2584  0.5530  0.3598
  474MOL0     H63961   9.178   8.039   0.248  1.2936 -0.2267 -0.6681
  474MOL0     H63962   9.233   7.794   0.331 -1.5232  0.4722 -0.7998
  474MOL0     H63963   9.277   7.870   0.487  0.8977  0.0847 -0.4824
  474MOL0     H63964   9.477   7.820   0.355 -3.8351 -1.2475  0.0926
  474MOL0     H63965   9.408   7.868   0.204 -5.5085  1.8474 -1.0679
  474MOL0     H63966   9.469   8.063   0.418 -2.9479 -0.6740 -0.1332
  474MOL0     H63967   9.410   8.101   0.254  2.6417  2.0476 -1.9075
  474MOL0     H63968   9.674   7.947   0.279  0.1548  0.0874  1.5372
  474MOL0     H63969   9.604   8.044   0.145  1.2729  0.8081 -0.4712
  474MOL0     H63970   8.660   8.431   0.289  1.0832 -2.2919  0.2129
  474MOL0     H63971   8.600   8.592   0.429 -1.2816 -2.0471 -4.5281
  474MOL0     H63972   8.428   8.770   0.830  1.2744 -1.0883 -1.4589
  474MOL0     H63973   8.375   8.901   1.017 -1.2188 -1.2410  2.2078
  474MOL0     H63974   8.426   7.717   2.574  1.6615  1.0144 -1.6241
  474MOL0     H63975   8.406   7.653   2.798 -2.4823 -2.0500  0.2072
  474MOL0     H63976   8.366   7.322   3.074  0.0335 -0.8006  0.8338
  474MOL0     H63977   8.307   7.213   3.299  1.1840  0.0757  1.4757
  474MOL0     H63978   8.411   7.402   3.681  1.4000  0.4282  1.3014
  474MOL0     H63979   8.536   7.268   3.653 -0.0509 -1.8429  2.2388
  474MOL0     H63980   8.413   7.203   3.841 -0.4806 -1.0881  1.0310
  474MOL0     H63981   8.363   7.110   3.708 -1.8493 -0.7682  2.7551
  474MOL0     H63982   8.158   7.185   3.816 -1.4372  1.0751  1.0980
  474MOL0     H63983   8.178   7.289   3.669  3.0812  0.0443  0.3218
  474MOL0     H63984   8.219   7.481   3.769  5.8071 -2.1919 -1.4184
  474MOL0     H63985   8.090   7.388   3.875  0.9777 -1.3189 -0.0536
  474MOL0     H63986   8.403   7.469   4.147  1.4549 -0.2448  0.0313
  474MOL0     H63987   8.510   7.521   3.501  2.8806 -0.6845 -1.2223
  474MOL0     H63988   8.680   7.672   3.233 -0.2018 -1.8986  1.3393
  474MOL0     H63989   8.520   7.746   3.244 -1.1981  0.9962  1.9898
  474MOL0     H63990   8.604   7.716   3.395  2.2184  0.6662 -0.6659
  475MOL0     O63991  10.378   5.395   9.496 -0.0235 -0.1635 -0.5773
  475MOL0     C63992  10.291   5.311   9.460 -0.0911 -0.2752 -0.1844
  475MOL0     O63993  10.166   5.290   9.519 -0.0777 -0.1962 -0.2871
  475MOL0     C63994  10.126   5.327   9.641 -1.0932  0.6286 -0.9251
  475MOL0     C63995  10.077   5.449   9.676 -1.0080  0.0817 -0.6491
  475MOL0     C63996  10.032   5.475   9.810  0.4530 -0.4843 -0.2468
  475MOL0     C63997  10.040   5.373   9.907  0.4929  0.5138  0.0500
  475MOL0     O63998  10.024   5.395  10.040 -0.1195  0.1485 -0.6067
  475MOL0     C63999   9.897   5.424  10.098  0.5692  0.8111 -0.1240
  475MOL0     C64000   9.924   5.474  10.237 -0.2453 -1.1569  0.3107
  475MOL0     C64001   9.795   5.470  10.324  1.0381 -0.1258  0.2427
  475MOL0     C64002   9.811   5.542  10.455  0.2042  0.1973  0.0229
  475MOL0     C64003   9.719   5.480  10.561 -0.2001  0.6337  0.9600
  475MOL0     C64004   9.744   5.533  10.697 -0.5608 -0.4930 -0.9698
  475MOL0     C64005   9.638   5.499  10.798 -0.1512  0.0624  1.7922
  475MOL0     C64006   9.668   5.540  10.936 -0.0078  0.9870 -0.0243
  475MOL0     N64007   9.758   5.446  10.998 -0.0017  0.1362  0.4942
  475MOL0     C64008   9.735   5.316  11.030 -0.4235 -1.4010  0.4116
  475MOL0     C64009   9.850   5.269  11.073  0.2814 -0.1459  0.1635
  475MOL0     C64010   9.864   5.147  11.150 -1.0422 -0.6424  0.5734
  475MOL0     C64011  10.011   5.129  11.193  0.1073 -0.4809  0.6836
  475MOL0     C64012  10.039   5.193  11.331 -0.1065 -0.3648  0.4400
  475MOL0     C64013  10.179   5.148  11.360 -0.6243 -0.7803 -0.7225
  475MOL0     O64014  10.180   5.021  11.410  0.3826  0.3446  0.1404
  475MOL0     C64015  10.124   5.005  11.535 -1.1439 -0.3656 -0.5485
  475MOL0     C64016  10.038   4.908  11.565 -0.0002  0.0892 -0.1052
  475MOL0     C64017  10.002   4.880  11.704  0.7316 -0.2583 -0.8123
  475MOL0     C64018  10.059   4.948  11.812 -0.7728 -0.4263  0.6479
  475MOL0     C64019  10.032   4.923  11.956 -1.1054 -0.1494 -0.7308
  475MOL0     O64020   9.963   4.812  11.973 -0.5699  0.2190  0.1110
  475MOL0     C64021   9.911   4.757  12.078 -0.2800 -0.4834 -0.7306
  475MOL0     C64022   9.859   4.629  12.057  0.2670 -0.0530  0.3974
  475MOL0     C64023   9.788   4.558  12.149 -0.1860  0.5748 -0.0002
  475MOL0     C64024   9.767   4.612  12.276 -0.8637 -0.9280 -0.0243
  475MOL0     O64025   9.681   4.539  12.355  1.0659 -0.1765  0.2290
  475MOL0     C64026   9.617   4.601  12.470  0.2210 -0.7676  0.0827
  475MOL0     C64027   9.688   4.591  12.605  0.1350 -1.1828  0.4609
  475MOL0     C64028   9.596   4.628  12.726  0.6289  0.2713  0.3610
  475MOL0     C64029   9.569   4.776  12.730 -0.7667 -0.2224  0.8931
  475MOL0     C64030   9.472   4.822  12.842  0.1696  0.1475  1.3928
  475MOL0     C64031   9.466   4.985  12.853 -0.2796  0.8396  0.0383
  475MOL0     C64032   9.405   5.018  12.985  0.5212  0.8751 -0.2148
  475MOL0     C64033   9.295   5.133  12.966 -0.1057  0.1670 -0.2579
  475MOL0    Cl64034   9.371   5.285  12.929 -0.5826 -0.4171 -0.6518
  475MOL0     C64035   9.833   4.730  12.307 -0.9256  0.3366 -0.1495
  475MOL0     C64036   9.902   4.805  12.214  0.1105 -0.0858 -0.0593
  475MOL0     O64037  10.071   4.993  12.048 -1.1470  0.8279  0.2360
  475MOL0     C64038  10.163   5.037  11.773  0.4053 -0.0361 -0.1694
  475MOL0     C64039  10.184   5.074  11.644 -0.2871  0.2806  0.0577
  475MOL0     N64040   9.948   5.367  11.056 -0.5846 -0.0447 -0.2317
  475MOL0     N64041   9.894   5.475  11.001  0.4068 -0.3648  0.0084
  475MOL0     C64042  10.070   5.247   9.863  0.9342  0.6678 -0.2360
  475MOL0     C64043  10.117   5.223   9.741  0.0999 -0.1352 -0.3559
  475MOL0     C64044  10.327   5.242   9.341 -0.3688 -0.0705 -0.0814
  475MOL0     C64045  10.223   5.219   9.250 -0.6797  0.2451 -0.5307
  475MOL0     C64046  10.239   5.165   9.123 -0.1022 -0.3004  1.1815
  475MOL0     C64047  10.360   5.107   9.091 -0.1237  0.0426 -0.4130
  475MOL0     O64048  10.394   5.043   8.980 -0.7932  0.5976 -0.5564
  475MOL0     C64049  10.300   4.985   8.899  1.0192 -0.5331  0.4345
  475MOL0     C64050  10.260   5.082   8.789 -0.6217 -0.4469 -0.1837
  475MOL0     C64051  10.388   5.105   8.692 -0.0461 -0.0448 -0.4177
  475MOL0     C64052  10.383   5.242   8.630  0.1904 -0.7697  0.4331
  475MOL0     C64053  10.409   5.347   8.725  0.1442  0.7130  0.1936
  475MOL0     C64054  10.436   5.432   8.802  0.0938 -0.0880 -0.0854
  475MOL0     C64055  10.463   5.117   9.195 -0.3757  0.5638  0.1353
  475MOL0     C64056  10.448   5.181   9.319 -0.6500 -0.3809  0.8026
  475MOL0     C64057  10.568   5.201   9.407 -0.8562 -0.5633 -0.9847
  475MOL0     H64058  10.090   5.526   9.601  0.2531  0.9459  0.4042
  475MOL0     H64059  10.001   5.577   9.834  0.5050 -0.7163  0.8709
  475MOL0     H64060   9.836   5.493  10.039 -2.1914  0.0426  1.6049
  475MOL0     H64061   9.835   5.334  10.106 -0.2983  1.4107  0.0707
  475MOL0     H64062   9.959   5.577  10.231 -0.6607 -1.0653 -0.6816
  475MOL0     H64063  10.009   5.430  10.291  2.1044  3.0198  0.4466
  475MOL0     H64064   9.770   5.364  10.338  1.9221 -0.1250  2.0533
  475MOL0     H64065   9.710   5.511  10.269  0.7316 -1.9421 -0.7292
  475MOL0     H64066   9.915   5.531  10.487 -0.7141 -0.9124  2.9819
  475MOL0     H64067   9.782   5.647  10.457  0.1833  0.1887  0.3469
  475MOL0     H64068   9.617   5.510  10.536  0.0370  1.1692  0.6338
  475MOL0     H64069   9.734   5.372  10.549 -0.2218  0.4364  2.5407
  475MOL0     H64070   9.846   5.503  10.722 -0.8129  0.3159  1.1968
  475MOL0     H64071   9.749   5.642  10.692  0.8219 -0.5813 -2.2519
  475MOL0     H64072   9.624   5.391  10.799 -1.9910  0.1902 -0.5237
  475MOL0     H64073   9.547   5.550  10.765 -0.3566 -2.2735 -1.7943
  475MOL0     H64074   9.705   5.643  10.942 -0.3004  1.0385  1.4742
  475MOL0     H64075   9.578   5.531  10.998  1.0384  0.9796  1.5421
  475MOL0     H64076   9.638   5.272  11.048 -2.4583  1.5823 -2.3856
  475MOL0     H64077   9.797   5.155  11.237  1.5133  2.2797  2.5409
  475MOL0     H64078   9.846   5.067  11.078  2.4714 -1.3140  0.2658
  475MOL0     H64079  10.025   5.021  11.183 -2.4567 -0.7736 -0.7758
  475MOL0     H64080  10.081   5.184  11.130  2.8050 -3.8108  0.4920
  475MOL0     H64081   9.967   5.165  11.408 -2.3391  1.9162 -0.6723
  475MOL0     H64082  10.039   5.301  11.318  1.0935 -0.0053  2.9233
  475MOL0     H64083  10.227   5.205  11.439 -2.9524 -2.5372  2.1546
  475MOL0     H64084  10.241   5.154  11.270  1.8553  2.1333  1.0043
  475MOL0     H64085   9.983   4.848  11.493 -1.6096  0.7622  0.5196
  475MOL0     H64086   9.942   4.792  11.724  3.6010 -2.2735 -0.2757
  475MOL0     H64087   9.899   4.581  11.968  0.4871  0.2337  0.3387
  475MOL0     H64088   9.771   4.452  12.136  2.2201  0.3550 -2.1305
  475MOL0     H64089   9.593   4.703  12.437  1.3658 -0.6457 -0.3910
  475MOL0     H64090   9.526   4.545  12.494  0.1117 -0.0230  1.5054
  475MOL0     H64091   9.733   4.492  12.617  1.8547 -0.3566  1.3251
  475MOL0     H64092   9.768   4.666  12.597 -0.9335 -0.0991 -0.3362
  475MOL0     H64093   9.498   4.581  12.724 -1.2982  3.9274 -0.2686
  475MOL0     H64094   9.644   4.602  12.820 -0.2946  2.7538  1.5993
  475MOL0     H64095   9.533   4.807  12.631  1.8948 -0.8400 -0.3412
  475MOL0     H64096   9.666   4.823  12.746  1.0051 -3.0610 -0.6136
  475MOL0     H64097   9.515   4.767  12.926 -1.8488 -2.4656  0.8353
  475MOL0     H64098   9.377   4.772  12.819  1.1692 -0.0576 -3.2009
  475MOL0     H64099   9.568   5.023  12.843 -0.8541  2.5539  0.4679
  475MOL0     H64100   9.403   5.003  12.765 -0.8988 -1.8881 -0.1775
  475MOL0     H64101   9.484   5.042  13.056  1.5021  1.4370 -1.4621
  475MOL0     H64102   9.361   4.933  13.039 -0.8015  2.1162  0.7403
  475MOL0     H64103   9.227   5.085  12.894  0.4516 -3.2157  1.2455
  475MOL0     H64104   9.252   5.152  13.065 -1.9300  0.1782 -1.0217
  475MOL0     H64105   9.818   4.771  12.407  4.0990  1.1403  0.5506
  475MOL0     H64106   9.956   4.891  12.252  3.0523 -2.3250  1.2183
  475MOL0     H64107  10.226   5.081  11.850  0.8081  2.2908 -1.7343
  475MOL0     H64108  10.267   5.141  11.628 -0.4057  0.5344  0.4906
  475MOL0     H64109  10.068   5.169   9.939  1.6854  2.6209  1.8855
  475MOL0     H64110  10.124   5.120   9.707  4.7402 -0.4019  0.7297
  475MOL0     H64111  10.125   5.253   9.282  0.3789  3.1079  0.0406
  475MOL0     H64112  10.152   5.159   9.059 -0.0252  1.0478  0.9219
  475MOL0     H64113  10.209   4.968   8.958  0.6373  1.4761  0.5084
  475MOL0     H64114  10.328   4.890   8.854 -2.4288 -0.6512 -1.8659
  475MOL0     H64115  10.215   5.171   8.833 -0.1930 -0.3799  0.1251
  475MOL0     H64116  10.187   5.033   8.723 -0.3591  1.0741 -1.6777
  475MOL0     H64117  10.392   5.037   8.606  4.1750  1.8478 -1.9627
  475MOL0     H64118  10.475   5.091   8.757 -0.6489 -0.3738  0.3310
  475MOL0     H64119  10.460   5.251   8.553  0.4708  0.8298  0.8488
  475MOL0     H64120  10.287   5.251   8.578  0.6961  2.0752 -0.2079
  475MOL0     H64121  10.468   5.505   8.873  0.1537  0.2465 -0.4582
  475MOL0     H64122  10.561   5.081   9.168 -1.0376 -1.5232  0.3649
  475MOL0     H64123  10.617   5.297   9.392 -1.0073 -0.2507  0.4468
  475MOL0     H64124  10.538   5.188   9.511  2.3146  0.6600  0.1999
  475MOL0     H64125  10.634   5.116   9.387 -2.0005 -1.7532  0.0718
  476MOL0     O64126   9.671   6.375   1.492  0.4205 -1.0096 -0.2224
  476MOL0     C64127   9.568   6.442   1.459  0.6388 -0.5261 -1.0114
  476MOL0     O64128   9.469   6.473   1.552 -0.1988  0.4515 -0.1334
  476MOL0     C64129   9.463   6.395   1.669  1.2298 -0.2283  0.1352
  476MOL0     C64130   9.410   6.270   1.677 -0.3377  0.6311 -0.4750
  476MOL0     C64131   9.387   6.201   1.794 -0.6512 -0.7352 -1.1178
  476MOL0     C64132   9.404   6.275   1.916  0.1319 -0.2537  0.1956
  476MOL0     O64133   9.367   6.236   2.042  0.3656 -0.2587 -0.8648
  476MOL0     C64134   9.366   6.097   2.074  0.0958  0.6367 -1.1227
  476MOL0     C64135   9.256   6.060   2.163  0.3460 -0.7619 -0.2357
  476MOL0     C64136   9.126   6.055   2.088 -0.1245 -0.8978  0.1796
  476MOL0     C64137   8.996   6.039   2.171 -0.4719  0.9686 -0.4702
  476MOL0     C64138   8.937   6.167   2.216  0.9786 -0.4880 -0.3907
  476MOL0     C64139   8.783   6.176   2.187 -0.2926 -0.5291  0.1450
  476MOL0     C64140   8.700   6.057   2.250  0.0768 -1.0403  0.4475
  476MOL0     C64141   8.724   6.036   2.401 -1.0755 -1.0498 -0.4379
  476MOL0     N64142   8.643   5.923   2.450 -0.5279 -0.0446 -1.0745
  476MOL0     C64143   8.514   5.942   2.485 -1.1997  1.6792 -0.7059
  476MOL0     C64144   8.466   5.818   2.520 -0.4111  0.1993  0.8088
  476MOL0     C64145   8.334   5.777   2.569 -0.2282 -0.0826 -0.3106
  476MOL0     C64146   8.264   5.692   2.464 -0.2975 -1.0604  0.2391
  476MOL0     C64147   8.132   5.626   2.515 -0.5441  0.0365  0.4045
  476MOL0     C64148   8.137   5.500   2.599 -0.4163 -0.3409  0.5153
  476MOL0     O64149   8.178   5.385   2.529 -0.1103  0.1977  0.7741
  476MOL0     C64150   8.187   5.269   2.601  0.3094  0.7786  0.1154
  476MOL0     C64151   8.076   5.218   2.672  0.5731 -0.8643  0.0233
  476MOL0     C64152   8.102   5.104   2.754 -0.0221 -0.3740 -0.2928
  476MOL0     C64153   8.233   5.042   2.755 -0.3266  0.6430 -0.8914
  476MOL0     C64154   8.245   4.920   2.843  0.0224  0.1798  0.3501
  476MOL0     O64155   8.137   4.842   2.852  0.2910 -0.2447 -0.0722
  476MOL0     C64156   8.130   4.729   2.916 -1.0978 -0.0719  0.0139
  476MOL0     C64157   8.067   4.713   3.040 -0.0999 -0.0256 -0.3222
  476MOL0     C64158   8.053   4.582   3.100 -0.2266 -0.1316  0.1543
  476MOL0     C64159   8.102   4.464   3.029 -1.0956 -0.0552  0.1830
  476MOL0     O64160   8.109   4.339   3.070  0.6499 -0.2751 -0.1093
  476MOL0     C64161   8.037   4.311   3.196 -0.1897 -0.3623 -0.1765
  476MOL0     C64162   8.115   4.197   3.260 -0.1617  0.6581  0.6162
  476MOL0     C64163   8.267   4.234   3.306  1.0169  0.1954  0.9319
  476MOL0     C64164   8.341   4.103   3.351  0.3221 -0.0210 -0.5897
  476MOL0     C64165   8.416   4.136   3.480 -0.2909  0.5069 -0.5858
  476MOL0     C64166   8.503   4.012   3.506 -0.2972  0.2533  0.0060
  476MOL0     C64167   8.557   4.009   3.652  0.9130  0.3739 -0.1553
  476MOL0     C64168   8.590   3.859   3.670  0.4138 -0.6297 -0.4993
  476MOL0    Cl64169   8.731   3.829   3.557  0.6171  0.2532 -0.2322
  476MOL0     C64170   8.172   4.487   2.911  0.7352  0.1205 -0.0305
  476MOL0     C64171   8.197   4.618   2.855 -0.9717  0.4466 -0.6855
  476MOL0     O64172   8.347   4.904   2.912 -0.4470 -0.0524  0.4167
  476MOL0     C64173   8.338   5.086   2.679 -0.0421  0.8134 -0.3699
  476MOL0     C64174   8.309   5.200   2.607 -0.0391 -0.4577 -0.3083
  476MOL0     N64175   8.563   5.718   2.492  0.8355  1.1009 -0.0470
  476MOL0     N64176   8.666   5.791   2.451 -0.0472 -0.5073 -0.6781
  476MOL0     C64177   9.457   6.404   1.905  0.1123 -0.2764 -1.5773
  476MOL0     C64178   9.480   6.467   1.783 -0.3421  0.6740 -1.0038
  476MOL0     C64179   9.536   6.468   1.317  0.4268  0.6169 -0.3801
  476MOL0     C64180   9.414   6.419   1.252  0.2803 -0.1487 -0.0703
  476MOL0     C64181   9.387   6.444   1.116  0.0379 -0.1457 -0.4761
  476MOL0     C64182   9.468   6.524   1.034 -0.5570 -0.7856  0.4421
  476MOL0     O64183   9.448   6.532   0.899 -0.7616 -1.1618  0.1513
  476MOL0     C64184   9.520   6.626   0.814  0.0937 -0.2386  0.0762
  476MOL0     C64185   9.464   6.629   0.679 -0.1033 -0.2570  0.3776
  476MOL0     C64186   9.325   6.681   0.684 -0.1878 -0.6146  0.3975
  476MOL0     C64187   9.251   6.655   0.545 -0.8705  0.1900  0.7222
  476MOL0     C64188   9.142   6.755   0.535  0.4425  0.4565 -0.3845
  476MOL0     C64189   9.072   6.852   0.532 -1.2657  0.5282  0.7589
  476MOL0     C64190   9.592   6.567   1.090  0.7665  0.3559 -0.4628
  476MOL0     C64191   9.629   6.536   1.229  0.1025 -0.4188  0.0633
  476MOL0     C64192   9.767   6.590   1.272  0.7596  0.3129  0.2023
  476MOL0     H64193   9.382   6.232   1.579  1.2749  0.3520 -0.8455
  476MOL0     H64194   9.324   6.112   1.796 -1.3018 -0.2761 -0.8003
  476MOL0     H64195   9.365   6.025   1.991  0.2717  0.4132 -0.9325
  476MOL0     H64196   9.460   6.087   2.128 -1.9218 -0.3363  2.5367
  476MOL0     H64197   9.239   6.146   2.228  0.7509 -1.8520  1.3697
  476MOL0     H64198   9.267   5.976   2.233 -0.6326  0.8655  1.9733
  476MOL0     H64199   9.141   5.972   2.019 -1.8649 -0.1721 -1.1445
  476MOL0     H64200   9.115   6.143   2.024  0.3116 -0.0285  1.2756
  476MOL0     H64201   8.917   5.994   2.110  1.0190  1.6050 -3.0497
  476MOL0     H64202   9.019   5.975   2.257 -0.4106  1.7817  0.1248
  476MOL0     H64203   8.958   6.179   2.322  4.5241 -4.9372 -0.3043
  476MOL0     H64204   8.984   6.245   2.155  0.6700 -0.0889 -0.1207
  476MOL0     H64205   8.748   6.274   2.221  2.9592  1.5172 -1.7494
  476MOL0     H64206   8.760   6.163   2.081  0.4152  2.3267 -0.4579
  476MOL0     H64207   8.720   5.959   2.206 -0.3858 -2.8030  3.7862
  476MOL0     H64208   8.596   6.085   2.232  0.3819  0.9856  1.5876
  476MOL0     H64209   8.827   6.001   2.411 -0.2700  1.2082 -0.1700
  476MOL0     H64210   8.716   6.122   2.468 -0.6055 -1.9149  0.7533
  476MOL0     H64211   8.449   6.029   2.479 -2.0137  0.9894 -3.6600
  476MOL0     H64212   8.341   5.722   2.663  1.3230 -2.9047 -1.9304
  476MOL0     H64213   8.270   5.864   2.586  3.1066  2.9695 -1.9053
  476MOL0     H64214   8.252   5.744   2.369  3.1030 -2.9399 -1.4358
  476MOL0     H64215   8.338   5.623   2.422  1.7650  1.6506 -0.8896
  476MOL0     H64216   8.079   5.604   2.423 -1.0384  3.7093 -0.3083
  476MOL0     H64217   8.073   5.705   2.562  0.1806 -1.2623  3.8685
  476MOL0     H64218   8.040   5.491   2.649 -0.1356  3.7407  2.1893
  476MOL0     H64219   8.208   5.510   2.683  3.4707 -1.2794 -2.3581
  476MOL0     H64220   7.980   5.266   2.655  0.5260 -1.6446 -2.3583
  476MOL0     H64221   8.023   5.062   2.815 -1.2430  1.2433 -0.6869
  476MOL0     H64222   8.016   4.801   3.077  3.1076  0.6984  2.9715
  476MOL0     H64223   8.001   4.577   3.195  1.1099  0.9892  0.9865
  476MOL0     H64224   8.028   4.397   3.263  5.1612 -0.2814  0.8273
  476MOL0     H64225   7.936   4.272   3.178 -0.2927 -0.5460  0.7095
  476MOL0     H64226   8.070   4.153   3.350 -1.4753 -2.3179 -1.3504
  476MOL0     H64227   8.124   4.109   3.197  3.6055  0.5566  1.1143
  476MOL0     H64228   8.318   4.284   3.224 -0.2078  1.3490  0.8431
  476MOL0     H64229   8.258   4.310   3.384  0.9586  2.4520 -1.1786
  476MOL0     H64230   8.406   4.067   3.270 -1.9957 -3.3394 -1.1531
  476MOL0     H64231   8.272   4.022   3.373 -0.0064  0.6190  0.8155
  476MOL0     H64232   8.344   4.161   3.559  1.7215 -0.3496  1.6575
  476MOL0     H64233   8.489   4.216   3.469  0.6558 -0.3303 -0.5732
  476MOL0     H64234   8.435   3.928   3.487 -1.9790  1.5082  0.2283
  476MOL0     H64235   8.574   4.004   3.423 -1.2024 -1.1361 -0.6785
  476MOL0     H64236   8.476   4.045   3.716  0.9901  0.0655  0.1208
  476MOL0     H64237   8.633   4.086   3.664 -1.1929  2.9384 -2.2264
  476MOL0     H64238   8.621   3.846   3.774 -1.6052  2.8859  0.7045
  476MOL0     H64239   8.512   3.791   3.635 -1.1178  1.8286 -2.1914
  476MOL0     H64240   8.215   4.401   2.861 -0.0129  0.2171 -0.8622
  476MOL0     H64241   8.262   4.641   2.771 -0.3929  2.0451  0.1449
  476MOL0     H64242   8.440   5.050   2.683 -0.3484  0.0377  1.8559
  476MOL0     H64243   8.385   5.256   2.554  0.8429 -0.7517  0.6065
  476MOL0     H64244   9.479   6.466   1.991 -0.5784  0.1870 -1.7191
  476MOL0     H64245   9.520   6.567   1.797  2.9949 -0.8268  1.0948
  476MOL0     H64246   9.346   6.359   1.312 -0.1965 -0.4126 -0.8695
  476MOL0     H64247   9.313   6.394   1.054 -2.1883 -2.2615  3.4425
  476MOL0     H64248   9.629   6.610   0.813  0.2433  0.6465 -2.2833
  476MOL0     H64249   9.501   6.727   0.852 -1.8077 -0.0912 -1.2005
  476MOL0     H64250   9.459   6.524   0.649  3.1845  0.0174 -1.6079
  476MOL0     H64251   9.528   6.676   0.604  0.5360 -0.4017  0.8180
  476MOL0     H64252   9.336   6.789   0.698  0.4048 -0.9540  3.1705
  476MOL0     H64253   9.266   6.615   0.749  1.2063 -2.7070 -0.3580
  476MOL0     H64254   9.323   6.672   0.465 -1.5233 -0.1625  0.0504
  476MOL0     H64255   9.229   6.548   0.535  0.8255 -0.0787 -0.6914
  476MOL0     H64256   9.004   6.934   0.524 -2.4545 -0.2885  1.9347
  476MOL0     H64257   9.654   6.621   1.020 -1.5772  0.4047 -2.6604
  476MOL0     H64258   9.757   6.649   1.363 -1.7689  1.0121 -0.4605
  476MOL0     H64259   9.823   6.497   1.287 -0.1333 -1.0786 -3.8226
  476MOL0     H64260   9.819   6.641   1.190  0.0249  0.6607 -0.0549
  477MOL0     O64261  10.353   4.928   6.546 -0.6354 -0.1954  0.5777
  477MOL0     C64262  10.286   5.035   6.552  0.2318  0.6135  0.3537
  477MOL0     O64263  10.152   5.038   6.573 -0.5384  0.3458  0.3300
  477MOL0     C64264  10.083   4.924   6.599 -0.1332 -0.1284  0.5927
  477MOL0     C64265  10.005   4.936   6.723 -1.0880 -0.7315  0.0833
  477MOL0     C64266   9.938   4.818   6.766  1.3802 -0.5593 -0.4443
  477MOL0     C64267   9.925   4.706   6.684 -0.2502  0.4980  0.1142
  477MOL0     O64268   9.850   4.594   6.718 -0.3125 -1.1296  0.4323
  477MOL0     C64269   9.896   4.503   6.822  0.3635  0.3662  1.2217
  477MOL0     C64270   9.905   4.353   6.783  0.6782 -0.4991 -0.4286
  477MOL0     C64271  10.054   4.318   6.743  0.2230 -0.3884 -0.0887
  477MOL0     C64272  10.053   4.163   6.743  0.2548  0.5727 -0.2602
  477MOL0     C64273  10.147   4.103   6.647 -0.0418 -0.3290  0.7979
  477MOL0     C64274  10.297   4.163   6.669  0.6369  0.0885  0.4066
  477MOL0     C64275  10.390   4.070   6.585  0.2275  0.0105  0.2143
  477MOL0     C64276  10.548   4.102   6.599  1.2321  0.9938 -0.3719
  477MOL0     N64277  10.604   4.187   6.494  0.1225 -0.2120 -0.2989
  477MOL0     C64278  10.602   4.178   6.354  0.3492  0.7197  0.1247
  477MOL0     C64279  10.674   4.282   6.308 -0.1854  0.0328  0.1072
  477MOL0     C64280  10.725   4.287   6.167  0.2823  0.2170 -0.0579
  477MOL0     C64281  10.849   4.204   6.137  1.0604 -0.3733 -0.3492
  477MOL0     C64282  10.972   4.237   6.223 -0.3437  0.2109 -0.8621
  477MOL0     C64283  11.022   4.386   6.246 -0.0046  0.5304  0.2934
  477MOL0     O64284  11.066   4.446   6.117  0.7432 -0.0959 -0.5927
  477MOL0     C64285  11.155   4.549   6.119  0.6071  0.0806 -0.7974
  477MOL0     C64286  11.201   4.589   5.989  1.4567  0.1421  1.0870
  477MOL0     C64287  11.276   4.706   5.962  0.7983  0.1258 -0.3631
  477MOL0     C64288  11.318   4.785   6.080  0.3548 -0.5022  0.6109
  477MOL0     C64289  11.396   4.912   6.072 -0.6314 -0.3471  0.6767
  477MOL0     O64290  11.453   4.959   6.184  0.5068  0.3133  0.0683
  477MOL0     C64291  11.511   5.087   6.188 -0.0957  0.0510 -0.6297
  477MOL0     C64292  11.477   5.170   6.300  0.5366 -0.8204  0.5865
  477MOL0     C64293  11.517   5.307   6.297  0.6654 -0.1400 -0.0923
  477MOL0     C64294  11.587   5.361   6.187 -0.4737  0.2758 -0.0648
  477MOL0     O64295  11.605   5.500   6.175 -0.1245  0.1402  0.2407
  477MOL0     C64296  11.488   5.570   6.144  0.1048 -0.3161 -0.4424
  477MOL0     C64297  11.531   5.713   6.116 -0.6999  0.3277  0.6294
  477MOL0     C64298  11.629   5.768   6.222  0.2986 -1.3759  1.0012
  477MOL0     C64299  11.767   5.777   6.154  0.0630  0.6604 -0.5213
  477MOL0     C64300  11.864   5.878   6.215  0.1505  0.9522 -0.4917
  477MOL0     C64301  12.013   5.840   6.175  1.1279 -0.6918  0.0690
  477MOL0     C64302  12.046   5.878   6.024 -0.7847 -0.1717 -0.3428
  477MOL0     C64303  12.094   5.757   5.946 -0.7489  0.1356  0.0406
  477MOL0    Cl64304  12.210   5.803   5.820 -0.0826  0.0730 -0.1634
  477MOL0     C64305  11.638   5.267   6.090  0.1059 -0.3824 -0.3334
  477MOL0     C64306  11.601   5.136   6.091 -0.9460  0.6668  0.3390
  477MOL0     O64307  11.409   4.953   5.959 -0.3633 -0.7245  0.1161
  477MOL0     C64308  11.283   4.739   6.208  0.1453 -0.3565  0.0140
  477MOL0     C64309  11.200   4.624   6.224 -0.0794  0.1494 -1.1438
  477MOL0     N64310  10.694   4.371   6.412  0.1746  0.9809  0.9753
  477MOL0     N64311  10.659   4.306   6.520 -0.5922 -1.0650  1.0693
  477MOL0     C64312   9.996   4.699   6.567 -0.3792  0.3646 -0.1905
  477MOL0     C64313  10.070   4.810   6.521 -0.6415 -0.1458  0.3497
  477MOL0     C64314  10.364   5.156   6.531 -1.0351 -0.6333  0.2436
  477MOL0     C64315  10.306   5.277   6.566  0.0105 -0.5219  1.0271
  477MOL0     C64316  10.357   5.404   6.544  0.4413 -0.2183  0.3305
  477MOL0     C64317  10.484   5.403   6.478  1.7980 -1.0159  0.1963
  477MOL0     O64318  10.539   5.529   6.439  0.9022  0.5427 -0.1674
  477MOL0     C64319  10.663   5.523   6.382  0.2438 -0.0213  0.3279
  477MOL0     C64320  10.718   5.672   6.346  0.4912  0.0191 -0.5778
  477MOL0     C64321  10.749   5.678   6.197 -0.1731 -0.0055 -0.1929
  477MOL0     C64322  10.812   5.812   6.151 -0.7561 -0.6834  0.2439
  477MOL0     C64323  10.799   5.829   6.006 -0.5749 -0.9939 -0.4403
  477MOL0     C64324  10.793   5.803   5.888 -0.9488 -0.2847 -0.5191
  477MOL0     C64325  10.546   5.277   6.460 -0.4395  0.3128  0.1447
  477MOL0     C64326  10.496   5.159   6.486  0.2396 -0.4912  0.2030
  477MOL0     C64327  10.584   5.028   6.451 -0.3954  0.7702  0.1857
  477MOL0     H64328  10.001   5.030   6.777  2.0003 -0.5219  0.1462
  477MOL0     H64329   9.886   4.830   6.860 -0.6132 -1.9216 -1.3032
  477MOL0     H64330   9.990   4.531   6.872 -0.5446  1.3391  2.4726
  477MOL0     H64331   9.813   4.499   6.894 -0.2466 -2.8632  0.4816
  477MOL0     H64332   9.843   4.333   6.695  0.3291  1.7584 -0.7514
  477MOL0     H64333   9.872   4.279   6.856  0.8375  0.8000  0.9979
  477MOL0     H64334  10.123   4.369   6.811  2.6057  0.0002 -2.6099
  477MOL0     H64335  10.071   4.353   6.640  1.9754 -1.5938 -0.2623
  477MOL0     H64336  10.080   4.139   6.846 -0.7839  2.4570  0.4940
  477MOL0     H64337   9.953   4.126   6.721 -0.0771  1.4822 -0.3224
  477MOL0     H64338  10.157   3.994   6.654  1.2631 -0.4376 -1.4919
  477MOL0     H64339  10.114   4.125   6.545 -2.0841  0.3745  1.5540
  477MOL0     H64340  10.320   4.264   6.633  0.9101  0.1576  0.7681
  477MOL0     H64341  10.317   4.157   6.776  0.4870  2.5309  0.6284
  477MOL0     H64342  10.363   4.091   6.481 -1.2205 -0.0665  0.5572
  477MOL0     H64343  10.370   3.964   6.600 -0.9342  0.6100  4.3884
  477MOL0     H64344  10.561   4.163   6.689  1.5877  2.7123 -1.5239
  477MOL0     H64345  10.604   4.008   6.601  2.9166  1.9629  0.6392
  477MOL0     H64346  10.587   4.095   6.286  1.8327  1.5486 -1.2819
  477MOL0     H64347  10.640   4.236   6.119  0.5528 -2.2010  1.7964
  477MOL0     H64348  10.735   4.391   6.135 -1.7271 -0.0545 -1.7475
  477MOL0     H64349  10.826   4.098   6.148 -0.0975 -0.1726 -0.6850
  477MOL0     H64350  10.866   4.217   6.029  0.0760 -1.1925 -0.6206
  477MOL0     H64351  11.053   4.186   6.168  0.7770  0.6462  0.3300
  477MOL0     H64352  10.958   4.194   6.322 -1.7177  2.1968 -0.1614
  477MOL0     H64353  11.101   4.396   6.321 -1.6404 -0.4108  2.2554
  477MOL0     H64354  10.933   4.442   6.278 -3.3924 -3.8425 -0.4379
  477MOL0     H64355  11.154   4.533   5.908  3.6937  0.0082 -0.1957
  477MOL0     H64356  11.315   4.736   5.865  2.9826 -1.9374 -0.1970
  477MOL0     H64357  11.406   5.133   6.373  2.1969 -4.3329  0.6247
  477MOL0     H64358  11.493   5.369   6.383  2.4818  1.8476 -0.9308
  477MOL0     H64359  11.442   5.532   6.053  3.5481  0.3204 -2.6541
  477MOL0     H64360  11.418   5.561   6.228  1.0351 -1.1664  0.2678
  477MOL0     H64361  11.556   5.735   6.012  0.4077 -2.1539  0.3055
  477MOL0     H64362  11.440   5.771   6.134  0.0415  0.9593  2.5620
  477MOL0     H64363  11.577   5.861   6.248 -0.1633 -1.2166 -0.3783
  477MOL0     H64364  11.630   5.708   6.313 -1.5922 -3.5068 -0.2808
  477MOL0     H64365  11.755   5.804   6.049  3.8295  1.8160 -0.8081
  477MOL0     H64366  11.797   5.672   6.158 -1.8721  0.1000  1.2367
  477MOL0     H64367  11.861   5.873   6.324  0.9997  0.6990 -0.4712
  477MOL0     H64368  11.839   5.980   6.184  0.5303 -0.0028 -4.6749
  477MOL0     H64369  12.099   5.876   6.232  1.3283  0.5996 -0.9871
  477MOL0     H64370  12.017   5.732   6.189  2.3728 -0.5231  1.1904
  477MOL0     H64371  12.121   5.958   6.021 -0.7430 -0.2446 -1.7430
  477MOL0     H64372  11.963   5.931   5.975 -2.2066 -1.9534  0.0081
  477MOL0     H64373  12.150   5.690   6.010 -0.4996  1.2306  1.0089
  477MOL0     H64374  12.008   5.708   5.900 -0.8115  1.1588 -0.9981
  477MOL0     H64375  11.700   5.299   6.006 -2.6367 -3.3932 -3.8553
  477MOL0     H64376  11.645   5.069   6.018  2.4016  3.6352 -0.6843
  477MOL0     H64377  11.317   4.802   6.289 -1.0633  0.5547 -0.1497
  477MOL0     H64378  11.162   4.603   6.324  1.1299  0.1974 -0.6571
  477MOL0     H64379   9.986   4.605   6.515 -4.5062  1.6562 -2.2325
  477MOL0     H64380  10.129   4.804   6.430 -0.9833  1.2265  0.0198
  477MOL0     H64381  10.200   5.277   6.593 -0.5757  0.8854 -1.0206
  477MOL0     H64382  10.315   5.499   6.576  4.9307  0.6639  4.9329
  477MOL0     H64383  10.671   5.462   6.291  2.8127 -1.2490  1.2589
  477MOL0     H64384  10.738   5.482   6.451  0.1184 -0.1473  0.3884
  477MOL0     H64385  10.815   5.682   6.396  2.2637 -5.5962 -2.1764
  477MOL0     H64386  10.659   5.754   6.389 -1.1977 -1.8068  0.7189
  477MOL0     H64387  10.664   5.656   6.132 -1.4365  3.1291  0.2095
  477MOL0     H64388  10.827   5.604   6.182 -1.2485 -0.7998 -2.2153
  477MOL0     H64389  10.763   5.893   6.206  0.0994 -0.5440  0.8099
  477MOL0     H64390  10.920   5.808   6.166 -0.5247  0.3584 -0.9705
  477MOL0     H64391  10.794   5.793   5.781 -2.6514 -1.4690 -0.4742
  477MOL0     H64392  10.651   5.283   6.431  0.1248 -1.3709  1.6297
  477MOL0     H64393  10.581   4.955   6.532  0.0790  0.8240  0.2553
  477MOL0     H64394  10.542   4.977   6.364 -1.9452  3.4521 -0.7504
  477MOL0     H64395  10.690   5.055   6.448 -0.2212  0.0823  0.0492
  478MOL0     O64396   1.500   5.676   7.471 -0.2601  0.6041 -0.4600
  478MOL0     C64397   1.533   5.559   7.504  0.9127  0.4335 -0.4736
  478MOL0     O64398   1.528   5.448   7.428 -0.2843  0.1513 -0.1851
  478MOL0     C64399   1.502   5.447   7.291 -0.5733 -0.8643  0.4675
  478MOL0     C64400   1.510   5.562   7.205  0.1159 -0.3473  0.0324
  478MOL0     C64401   1.420   5.568   7.089 -1.0072 -0.4349 -0.2353
  478MOL0     C64402   1.346   5.462   7.053  0.4465 -0.9381  0.3773
  478MOL0     O64403   1.285   5.466   6.934 -0.7607  0.1303 -0.1310
  478MOL0     C64404   1.145   5.427   6.934  0.1523 -1.2568 -0.8728
  478MOL0     C64405   1.082   5.451   6.796  0.3206  0.3946  0.1331
  478MOL0     C64406   0.934   5.480   6.825  0.2640 -0.0412  0.8926
  478MOL0     C64407   0.842   5.427   6.703 -0.0901 -0.0303 -0.6335
  478MOL0     C64408   0.787   5.290   6.747 -0.1300 -1.0218 -0.0701
  478MOL0     C64409   0.727   5.205   6.646  0.0275 -0.2032  0.0342
  478MOL0     C64410   0.640   5.100   6.706  0.0078  0.5439 -0.7585
  478MOL0     C64411   0.601   4.994   6.601 -0.0202 -1.0819  0.5484
  478MOL0     N64412   0.531   4.881   6.659  0.4860 -0.1543  0.2984
  478MOL0     C64413   0.394   4.864   6.654 -0.6785 -0.6592  1.0505
  478MOL0     C64414   0.359   4.744   6.721  0.4433 -0.9898 -0.0853
  478MOL0     C64415   0.221   4.675   6.711  0.5037 -0.3414  0.5459
  478MOL0     C64416   0.188   4.594   6.834  0.4758 -0.0380 -0.2186
  478MOL0     C64417   0.034   4.569   6.882  0.3115  0.5427 -1.4289
  478MOL0     C64418   0.042   4.533   7.028 -0.3438  0.3939 -0.6209
  478MOL0     O64419   0.130   4.417   7.045 -0.1728  0.2238  0.2313
  478MOL0     C64420   0.096   4.296   6.990  0.9288 -0.4982  0.3503
  478MOL0     C64421   0.186   4.196   6.968 -0.4577  0.5933 -0.2032
  478MOL0     C64422   0.158   4.073   6.895 -0.1074  1.1759  0.0164
  478MOL0     C64423   0.029   4.049   6.851  1.0941  0.6034  0.7731
  478MOL0     C64424  -0.006   3.930   6.770  0.2932 -0.0830  0.7444
  478MOL0     O64425  -0.138   3.915   6.740 -0.1056  1.3737  0.0979
  478MOL0     C64426  -0.168   3.811   6.650 -0.3399  0.5958 -0.9598
  478MOL0     C64427  -0.230   3.684   6.690 -0.5044 -1.0992 -0.1303
  478MOL0     C64428  -0.269   3.589   6.603  0.2241 -0.5365  1.3109
  478MOL0     C64429  -0.256   3.603   6.468  0.5273  0.6436  1.0627
  478MOL0     O64430  -0.289   3.504   6.380  0.4012 -0.2439  1.2969
  478MOL0     C64431  -0.416   3.433   6.398 -0.8557 -0.0177  0.0657
  478MOL0     C64432  -0.427   3.321   6.301 -1.2626 -1.1365  1.0960
  478MOL0     C64433  -0.554   3.247   6.330  1.0254  0.4618 -0.0116
  478MOL0     C64434  -0.534   3.145   6.442 -0.6572  0.2925  0.9448
  478MOL0     C64435  -0.486   3.018   6.376  0.3067 -0.0865 -0.0195
  478MOL0     C64436  -0.452   2.903   6.463 -0.0186 -0.9384  1.1370
  478MOL0     C64437  -0.533   2.878   6.591  0.9767  1.0416  1.2386
  478MOL0     C64438  -0.486   2.739   6.650  0.0709 -1.1254  0.0655
  478MOL0    Cl64439  -0.571   2.679   6.797  0.4413  0.1486 -0.0843
  478MOL0     C64440  -0.195   3.720   6.426 -0.8013 -0.2539  0.6607
  478MOL0     C64441  -0.150   3.815   6.507  0.7349 -0.1002 -1.7976
  478MOL0     O64442   0.082   3.842   6.750 -1.0866  0.7626 -0.2422
  478MOL0     C64443  -0.067   4.147   6.882  0.0899  0.1079 -1.4286
  478MOL0     C64444  -0.032   4.257   6.963  0.5823  0.3411  0.8707
  478MOL0     N64445   0.486   4.694   6.761  0.1843 -0.1306  0.1664
  478MOL0     N64446   0.585   4.774   6.732  0.3189 -0.3954  0.6275
  478MOL0     C64447   1.338   5.344   7.129 -0.8224 -0.1398  0.7823
  478MOL0     C64448   1.413   5.338   7.246 -0.1172 -0.5268  0.0242
  478MOL0     C64449   1.606   5.553   7.632  0.3730  0.6574 -0.2422
  478MOL0     C64450   1.698   5.445   7.656 -0.3993 -0.5117 -0.3234
  478MOL0     C64451   1.776   5.435   7.778 -0.6754 -0.2232  0.0785
  478MOL0     C64452   1.766   5.527   7.874  0.4668  0.9770 -0.5090
  478MOL0     O64453   1.831   5.539   7.991 -0.1388  0.2515 -0.0641
  478MOL0     C64454   1.966   5.508   8.004 -1.7825  0.5104  0.2998
  478MOL0     C64455   2.053   5.630   7.968  0.6178  0.8658  0.8509
  478MOL0     C64456   2.200   5.611   7.991 -0.9984  0.5929  0.6307
  478MOL0     C64457   2.246   5.580   8.140 -0.4297  1.2419  0.9038
  478MOL0     C64458   2.227   5.693   8.222 -0.5044  0.1124  0.1572
  478MOL0     C64459   2.228   5.783   8.307  0.5313  0.0178 -0.5840
  478MOL0     C64460   1.658   5.624   7.859 -0.1209 -0.7253  0.4331
  478MOL0     C64461   1.585   5.634   7.745 -0.7153  0.6837  0.7004
  478MOL0     C64462   1.483   5.740   7.738  0.0019 -1.2448 -0.6722
  478MOL0     H64463   1.551   5.658   7.234  0.9265 -1.0505  1.3208
  478MOL0     H64464   1.420   5.664   7.037 -0.8079  0.0127  0.5671
  478MOL0     H64465   1.131   5.323   6.965 -0.7080 -0.9139 -0.0735
  478MOL0     H64466   1.098   5.491   7.009  2.1762  3.0477 -2.8996
  478MOL0     H64467   1.092   5.361   6.734 -1.4425 -1.0052  1.7591
  478MOL0     H64468   1.120   5.534   6.736  2.0554 -2.1041 -2.5213
  478MOL0     H64469   0.926   5.588   6.839 -1.7076 -0.0716  0.2868
  478MOL0     H64470   0.900   5.434   6.918 -0.0467 -1.6904 -0.0108
  478MOL0     H64471   0.763   5.503   6.700  2.2041  2.7049  1.6750
  478MOL0     H64472   0.902   5.404   6.615  2.9731  1.4582  0.9151
  478MOL0     H64473   0.862   5.226   6.794 -0.5343  0.5572  2.9702
  478MOL0     H64474   0.711   5.321   6.820 -1.3870 -1.5935 -1.0901
  478MOL0     H64475   0.668   5.275   6.586  0.7234 -0.0507 -0.4905
  478MOL0     H64476   0.798   5.161   6.575  0.3410  2.2161 -1.2622
  478MOL0     H64477   0.556   5.164   6.734 -0.8465 -0.5031 -0.8476
  478MOL0     H64478   0.691   5.047   6.788  0.8247  0.1899 -1.4733
  478MOL0     H64479   0.548   5.038   6.516  1.2419 -1.6863 -0.6039
  478MOL0     H64480   0.691   4.953   6.554 -0.2333  1.2851 -2.1966
  478MOL0     H64481   0.334   4.930   6.592  3.1011  2.9844  0.8741
  478MOL0     H64482   0.146   4.752   6.695  1.1361  0.4149  1.0931
  478MOL0     H64483   0.219   4.615   6.620 -1.1902 -0.1380  0.4152
  478MOL0     H64484   0.230   4.494   6.816 -0.4682 -0.4338 -0.2718
  478MOL0     H64485   0.255   4.635   6.911  4.4728 -0.1628 -3.2852
  478MOL0     H64486  -0.010   4.493   6.818 -0.0831 -0.0542 -0.4711
  478MOL0     H64487  -0.037   4.651   6.869 -2.6199 -1.8052 -1.4288
  478MOL0     H64488  -0.058   4.503   7.059  1.1681 -3.1244  1.4268
  478MOL0     H64489   0.069   4.621   7.088 -0.8999  3.4145 -4.3743
  478MOL0     H64490   0.289   4.210   7.001  0.5239  0.0730 -2.7464
  478MOL0     H64491   0.245   4.014   6.868 -0.7210 -0.1502  0.8581
  478MOL0     H64492  -0.237   3.662   6.797 -1.1487  0.7604  0.2418
  478MOL0     H64493  -0.321   3.507   6.651  2.2942 -0.4028  4.0080
  478MOL0     H64494  -0.429   3.400   6.501  0.2495 -1.8417 -0.3424
  478MOL0     H64495  -0.500   3.502   6.384  1.1343  2.8210  1.2182
  478MOL0     H64496  -0.413   3.366   6.203  1.7461 -0.5842  1.7072
  478MOL0     H64497  -0.341   3.255   6.313  1.7178  2.4875  1.3662
  478MOL0     H64498  -0.638   3.317   6.347  1.3070  0.3904  1.9988
  478MOL0     H64499  -0.577   3.191   6.240  0.1376 -0.9809  1.0607
  478MOL0     H64500  -0.620   3.125   6.507 -1.0865  1.8907  0.8907
  478MOL0     H64501  -0.462   3.186   6.513 -1.3171  4.5457 -0.5921
  478MOL0     H64502  -0.394   3.032   6.318  1.2285  1.6073  1.7367
  478MOL0     H64503  -0.567   2.993   6.307 -1.1795  1.5556  1.0670
  478MOL0     H64504  -0.475   2.821   6.393 -1.7740  0.0009  0.5399
  478MOL0     H64505  -0.347   2.911   6.493 -0.4037 -0.9924  2.5368
  478MOL0     H64506  -0.638   2.867   6.562  1.1721  1.7306  0.2110
  478MOL0     H64507  -0.514   2.960   6.660 -0.8064  3.0231 -0.4994
  478MOL0     H64508  -0.501   2.656   6.579  0.8562 -1.0393 -0.2216
  478MOL0     H64509  -0.383   2.750   6.685  0.3631 -3.2903  0.0180
  478MOL0     H64510  -0.203   3.741   6.320 -1.9752  2.7346  1.2449
  478MOL0     H64511  -0.097   3.903   6.472  1.3354 -0.2674 -1.3381
  478MOL0     H64512  -0.167   4.133   6.843 -1.0230  0.3738  1.1539
  478MOL0     H64513  -0.120   4.318   6.978  0.7891  0.9813 -0.3938
  478MOL0     H64514   1.293   5.251   7.094  1.6629  0.1040 -4.0169
  478MOL0     H64515   1.410   5.245   7.301  0.1447  0.3653  1.6059
  478MOL0     H64516   1.729   5.373   7.580 -0.0166  0.3414 -1.0028
  478MOL0     H64517   1.856   5.362   7.789 -0.1228  0.1379 -1.3143
  478MOL0     H64518   1.995   5.424   7.939  1.9735  0.6394  1.5927
  478MOL0     H64519   1.980   5.470   8.106  1.4079  0.6235 -0.0016
  478MOL0     H64520   2.005   5.714   8.019  0.3505 -1.1316  4.1958
  478MOL0     H64521   2.043   5.636   7.859 -0.6406 -0.5338  0.8507
  478MOL0     H64522   2.257   5.697   7.957 -0.4133 -0.2384 -0.5988
  478MOL0     H64523   2.223   5.523   7.929 -0.8122  2.0227 -1.4339
  478MOL0     H64524   2.193   5.489   8.168  0.7867  0.2299  0.0369
  478MOL0     H64525   2.352   5.550   8.136 -1.4168 -2.7496 -2.1387
  478MOL0     H64526   2.224   5.865   8.375  3.3378  0.2280 -0.5616
  478MOL0     H64527   1.661   5.694   7.942  1.3404  2.3838 -2.0372
  478MOL0     H64528   1.453   5.786   7.833  0.5212 -0.9465 -0.6487
  478MOL0     H64529   1.509   5.817   7.664 -1.6790 -0.3929 -0.4310
  478MOL0     H64530   1.392   5.687   7.706  0.3208 -1.7586 -0.7383
  479MOL0     O64531   3.161   5.366   3.377  0.5422  0.1767 -0.6375
  479MOL0     C64532   3.069   5.313   3.315  0.0496  0.5295  0.1450
  479MOL0     O64533   3.093   5.263   3.191 -0.4804 -0.0578 -0.3808
  479MOL0     C64534   2.994   5.190   3.134 -0.0411  0.2940  0.6165
  479MOL0     C64535   2.863   5.233   3.086  0.4847 -0.3203  0.5532
  479MOL0     C64536   2.789   5.141   3.007 -1.2860 -0.4786 -0.1687
  479MOL0     C64537   2.829   5.012   2.999  0.0978 -0.2119  0.1127
  479MOL0     O64538   2.762   4.931   2.907  0.0337 -0.4463  0.1846
  479MOL0     C64539   2.753   4.967   2.768  0.2003  0.7630  0.7245
  479MOL0     C64540   2.885   4.950   2.683  0.3057  0.2598 -0.1357
  479MOL0     C64541   2.919   4.798   2.645  0.3803 -0.9619  0.2397
  479MOL0     C64542   3.050   4.740   2.690  0.6235 -0.1007  0.4098
  479MOL0     C64543   3.171   4.816   2.646 -0.5316 -0.4036 -0.2574
  479MOL0     C64544   3.277   4.716   2.587  0.5172 -0.6938 -0.4084
  479MOL0     C64545   3.409   4.781   2.553  0.4465 -0.3328  0.3159
  479MOL0     C64546   3.527   4.704   2.607 -0.0079  0.0524  0.0344
  479MOL0     N64547   3.651   4.776   2.590 -0.0206  0.1846 -0.1992
  479MOL0     C64548   3.715   4.790   2.466 -0.5776 -0.7005 -0.0155
  479MOL0     C64549   3.840   4.841   2.499  1.2895 -0.1671 -0.3336
  479MOL0     C64550   3.945   4.874   2.399  0.2457 -1.3041  0.5500
  479MOL0     C64551   3.919   5.008   2.326 -0.4707  0.4785 -0.8382
  479MOL0     C64552   4.035   5.110   2.363 -0.0856 -0.4726  0.6109
  479MOL0     C64553   3.997   5.242   2.307 -0.0919 -0.2460  0.3684
  479MOL0     O64554   4.103   5.336   2.312  0.5825 -1.1545 -0.1316
  479MOL0     C64555   4.045   5.461   2.344  0.0493 -0.0554 -0.1359
  479MOL0     C64556   3.933   5.507   2.267 -0.1899 -0.0842  0.0055
  479MOL0     C64557   3.884   5.640   2.283  1.1648  0.4261  0.6657
  479MOL0     C64558   3.933   5.724   2.382 -0.1375  0.1161 -0.1236
  479MOL0     C64559   3.907   5.879   2.395 -1.0597  0.3683  0.2087
  479MOL0     O64560   3.794   5.920   2.336  0.2648  0.0997 -0.5645
  479MOL0     C64561   3.760   6.048   2.355 -0.1520 -0.3707  0.7244
  479MOL0     C64562   3.654   6.092   2.433  0.1140 -0.2724 -0.3219
  479MOL0     C64563   3.614   6.230   2.443 -0.7409 -0.7052  0.6112
  479MOL0     C64564   3.676   6.330   2.368  0.0666  0.1412  0.1980
  479MOL0     O64565   3.633   6.464   2.388  0.3299  0.8989  0.1874
  479MOL0     C64566   3.698   6.567   2.310 -0.1039  0.2138  1.0150
  479MOL0     C64567   3.609   6.699   2.344 -0.1888  1.0202 -0.0222
  479MOL0     C64568   3.672   6.808   2.254  0.0391 -0.4288 -0.2720
  479MOL0     C64569   3.575   6.830   2.131  0.7586 -0.7918 -0.5898
  479MOL0     C64570   3.641   6.922   2.031  0.5344  0.1038  0.2605
  479MOL0     C64571   3.567   6.952   1.897  0.2793 -1.3996  0.7086
  479MOL0     C64572   3.422   6.979   1.916  0.6851 -0.0982  0.7656
  479MOL0     C64573   3.336   6.862   1.887 -0.2032  0.5839  0.0603
  479MOL0    Cl64574   3.165   6.915   1.873 -0.3487  0.1994 -0.0499
  479MOL0     C64575   3.772   6.284   2.278  0.1070  0.1093  0.0360
  479MOL0     C64576   3.812   6.151   2.269 -0.3032  0.0102  0.4411
  479MOL0     O64577   3.981   5.949   2.469  0.3354 -0.1500  0.2116
  479MOL0     C64578   4.034   5.672   2.458 -1.3094  0.5806 -0.9076
  479MOL0     C64579   4.090   5.542   2.444  0.2002 -0.2604  0.1389
  479MOL0     N64580   3.851   4.841   2.638 -0.1097 -0.3187  0.3722
  479MOL0     N64581   3.740   4.797   2.690 -0.4111  0.3337 -0.2007
  479MOL0     C64582   2.949   4.966   3.050  0.9754  0.8490  0.0276
  479MOL0     C64583   3.033   5.057   3.110 -0.0546 -0.4789 -0.3445
  479MOL0     C64584   2.938   5.332   3.387 -0.2864  0.3575  0.9316
  479MOL0     C64585   2.882   5.462   3.398 -0.8283  0.6202 -0.1538
  479MOL0     C64586   2.757   5.489   3.450  0.2666 -0.2393  0.9648
  479MOL0     C64587   2.682   5.392   3.504  0.3900 -0.5847 -0.1159
  479MOL0     O64588   2.554   5.395   3.556 -0.3019  0.3883 -0.3776
  479MOL0     C64589   2.475   5.510   3.534  0.6580  0.9269  0.4165
  479MOL0     C64590   2.397   5.508   3.400  0.3269  0.6072 -1.5999
  479MOL0     C64591   2.468   5.583   3.294 -1.2457  0.4613 -0.0031
  479MOL0     C64592   2.394   5.582   3.161  0.4830  0.3526  0.4081
  479MOL0     C64593   2.410   5.446   3.097  1.2582 -0.7961 -1.0536
  479MOL0     C64594   2.427   5.343   3.042  0.3548  0.6105 -0.1906
  479MOL0     C64595   2.745   5.264   3.499 -0.1635  0.9063 -0.6744
  479MOL0     C64596   2.872   5.232   3.455  0.7987  0.1654  0.1977
  479MOL0     C64597   2.924   5.092   3.477  0.2135  0.2577 -0.2539
  479MOL0     H64598   2.821   5.328   3.116 -0.3071 -1.5797  3.8941
  479MOL0     H64599   2.702   5.178   2.953  0.4667 -0.7211 -3.3843
  479MOL0     H64600   2.682   4.898   2.722  0.7423 -2.0391  3.6954
  479MOL0     H64601   2.734   5.074   2.754 -1.8711  0.5471  1.6248
  479MOL0     H64602   2.969   4.993   2.738  2.5842 -3.3813 -0.4363
  479MOL0     H64603   2.867   4.999   2.586  0.2640 -2.6026 -1.6879
  479MOL0     H64604   2.931   4.804   2.536 -0.1208  0.2217  0.2346
  479MOL0     H64605   2.838   4.734   2.681 -2.3880  0.9623 -2.0930
  479MOL0     H64606   3.057   4.722   2.797  0.8422 -1.8626  0.1234
  479MOL0     H64607   3.054   4.639   2.649  2.0600 -0.8841  2.3360
  479MOL0     H64608   3.144   4.897   2.577 -1.4969  1.5339  2.2566
  479MOL0     H64609   3.211   4.872   2.730  0.9167  1.0676 -1.8583
  479MOL0     H64610   3.301   4.641   2.664 -0.0926  1.4922  2.0282
  479MOL0     H64611   3.231   4.665   2.502  0.7098  0.0936 -0.9894
  479MOL0     H64612   3.416   4.872   2.614  2.0890 -1.1490  1.4177
  479MOL0     H64613   3.411   4.799   2.446 -3.8643 -1.8564 -0.2314
  479MOL0     H64614   3.499   4.697   2.713  2.0892 -0.3924  0.5981
  479MOL0     H64615   3.537   4.602   2.568 -1.0232 -1.1991  2.8040
  479MOL0     H64616   3.678   4.770   2.366 -0.8625 -1.4782  0.2438
  479MOL0     H64617   4.048   4.878   2.433  0.1485  0.5723  0.7650
  479MOL0     H64618   3.952   4.793   2.326  2.4775  1.0621 -2.1015
  479MOL0     H64619   3.918   4.985   2.219  1.5889 -0.5852 -0.6958
  479MOL0     H64620   3.828   5.058   2.359  0.2250  1.4078 -0.2390
  479MOL0     H64621   4.132   5.097   2.314 -0.0041  0.9891  0.3329
  479MOL0     H64622   4.049   5.123   2.471 -2.8377  1.5986  0.8282
  479MOL0     H64623   3.909   5.273   2.363  2.2179 -0.0620  4.2154
  479MOL0     H64624   3.975   5.220   2.202  0.5794  0.2439  0.1198
  479MOL0     H64625   3.885   5.440   2.197 -1.2166 -2.8385  3.1126
  479MOL0     H64626   3.799   5.677   2.227  0.8534  1.2067  1.6306
  479MOL0     H64627   3.594   6.027   2.495  0.5474 -0.1980  0.1889
  479MOL0     H64628   3.531   6.257   2.507 -2.4814  1.4322 -2.3003
  479MOL0     H64629   3.802   6.587   2.335  0.8741  3.4637 -4.1052
  479MOL0     H64630   3.705   6.538   2.205  1.3467 -1.5031  1.5315
  479MOL0     H64631   3.507   6.682   2.306  0.4944  1.8882 -2.4318
  479MOL0     H64632   3.615   6.720   2.451  2.9571  1.0817 -0.1285
  479MOL0     H64633   3.686   6.892   2.323 -0.2803  2.5370 -3.5673
  479MOL0     H64634   3.775   6.786   2.224  0.7548  1.1564  0.8768
  479MOL0     H64635   3.477   6.869   2.157  0.5206 -1.3231 -0.6804
  479MOL0     H64636   3.563   6.732   2.083 -3.0643 -0.2306 -1.0367
  479MOL0     H64637   3.740   6.889   1.999  1.3831  2.5428  0.1453
  479MOL0     H64638   3.655   7.018   2.081  0.1647  0.5185 -0.4136
  479MOL0     H64639   3.607   7.036   1.839 -0.4267 -1.2467  0.4339
  479MOL0     H64640   3.592   6.864   1.836  2.1979 -0.8167  0.5950
  479MOL0     H64641   3.387   7.068   1.863 -2.0796 -0.9399  1.0264
  479MOL0     H64642   3.402   7.004   2.020 -3.7083 -1.3840  0.4531
  479MOL0     H64643   3.365   6.816   1.792 -0.5351  2.1406 -0.8258
  479MOL0     H64644   3.357   6.786   1.962  0.3173  0.7090  0.0439
  479MOL0     H64645   3.822   6.347   2.205  1.2530 -3.1542 -2.2070
  479MOL0     H64646   3.883   6.121   2.193 -1.9594  0.5844 -1.4383
  479MOL0     H64647   4.082   5.735   2.532  2.1341  0.3561 -2.7266
  479MOL0     H64648   4.169   5.529   2.517 -0.2380 -1.7966  0.3686
  479MOL0     H64649   2.978   4.862   3.053  0.0954  0.5939 -0.0199
  479MOL0     H64650   3.132   5.030   3.144  0.4318  0.0646 -1.2791
  479MOL0     H64651   2.942   5.548   3.371  0.8768  0.1343  1.7765
  479MOL0     H64652   2.723   5.591   3.463 -0.3963 -0.4901  1.2724
  479MOL0     H64653   2.530   5.604   3.540  4.1543 -0.6863 -2.7298
  479MOL0     H64654   2.405   5.516   3.618  1.6993 -0.6708  1.4522
  479MOL0     H64655   2.298   5.550   3.420  0.4977  0.9377 -1.4477
  479MOL0     H64656   2.383   5.403   3.372 -0.3458 -0.4603  2.1520
  479MOL0     H64657   2.568   5.540   3.281 -1.3901  0.2113 -0.2904
  479MOL0     H64658   2.478   5.688   3.323  1.0949  0.3799 -0.3013
  479MOL0     H64659   2.287   5.599   3.176 -1.4828 -3.3834 -5.6569
  479MOL0     H64660   2.425   5.661   3.092  1.3158  0.0109  0.3825
  479MOL0     H64661   2.455   5.245   3.011  1.3766 -0.8901  4.5298
  479MOL0     H64662   2.689   5.188   3.553  1.3921 -0.6551 -1.1688
  479MOL0     H64663   2.881   5.022   3.404 -2.7861  0.7320  0.9206
  479MOL0     H64664   3.033   5.081   3.481  0.1117 -1.3435 -0.8290
  479MOL0     H64665   2.887   5.053   3.573 -0.4228 -3.1506 -1.7122
  480MOL0     O64666   3.869  11.404   2.687 -0.2287 -0.3687 -0.1015
  480MOL0     C64667   3.972  11.460   2.742 -0.6278  0.5729  0.0127
  480MOL0     O64668   4.044  11.570   2.694 -1.1400  0.3163  0.1281
  480MOL0     C64669   3.990  11.630   2.577  0.3223 -1.4077 -0.5799
  480MOL0     C64670   3.964  11.763   2.582  0.6906 -0.1215  0.2474
  480MOL0     C64671   3.911  11.834   2.477  0.5567 -0.1552 -0.1820
  480MOL0     C64672   3.885  11.768   2.351 -0.3066  0.6634 -0.3094
  480MOL0     O64673   3.844  11.847   2.246 -0.3736  0.7586 -0.3507
  480MOL0     C64674   3.812  11.784   2.126 -0.5638 -0.5678 -0.1544
  480MOL0     C64675   3.727  11.881   2.041  0.4957 -0.7385 -0.7780
  480MOL0     C64676   3.806  11.994   1.975  0.0652 -0.2202 -0.4000
  480MOL0     C64677   3.710  12.102   1.918  0.3437 -0.4556  0.3454
  480MOL0     C64678   3.788  12.230   1.907 -0.0319  0.1708  1.0974
  480MOL0     C64679   3.918  12.228   1.824  0.7169 -0.0285 -0.5894
  480MOL0     C64680   3.918  12.241   1.671  1.0111 -0.5829 -0.6040
  480MOL0     C64681   4.033  12.324   1.620  0.6606  0.4042  0.0547
  480MOL0     N64682   4.000  12.464   1.621 -0.5390  0.5477  0.3619
  480MOL0     C64683   4.023  12.548   1.720  0.5952  0.1661  0.0285
  480MOL0     C64684   3.971  12.664   1.687  0.2763 -1.4863  0.1494
  480MOL0     C64685   3.939  12.786   1.778  0.6666  0.5558 -0.2030
  480MOL0     C64686   3.995  12.774   1.922 -0.1699 -0.9229  0.7846
  480MOL0     C64687   4.021  12.912   1.992 -0.8678 -0.0417  0.1836
  480MOL0     C64688   3.919  12.940   2.105 -0.1759 -0.0167 -0.9165
  480MOL0     O64689   3.944  12.848   2.209 -0.4327 -0.1342 -0.5738
  480MOL0     C64690   3.853  12.819   2.299  0.3504  0.0010 -0.3443
  480MOL0     C64691   3.885  12.732   2.394 -0.0846 -0.1174 -0.0901
  480MOL0     C64692   3.794  12.690   2.484 -0.5365 -1.2190 -0.4288
  480MOL0     C64693   3.665  12.749   2.486 -0.0687  0.6510  0.4275
  480MOL0     C64694   3.562  12.702   2.589 -0.1045 -0.2934  0.7353
  480MOL0     O64695   3.609  12.602   2.667  0.1689  0.4733 -0.5809
  480MOL0     C64696   3.527  12.534   2.752 -0.7910 -0.0671 -0.1478
  480MOL0     C64697   3.389  12.561   2.782 -0.2682  0.9614 -0.9255
  480MOL0     C64698   3.325  12.487   2.890 -0.8478 -0.2118  0.7018
  480MOL0     C64699   3.395  12.385   2.957 -0.1042 -0.6161  0.6130
  480MOL0     O64700   3.330  12.322   3.058 -0.1697 -0.4921 -0.1207
  480MOL0     C64701   3.410  12.257   3.160 -0.0646  0.1790 -0.1647
  480MOL0     C64702   3.306  12.180   3.247 -0.0633  0.2971  0.7201
  480MOL0     C64703   3.234  12.062   3.173 -0.6908  0.6275 -0.4705
  480MOL0     C64704   3.150  11.979   3.269  0.3498 -0.0599  0.9705
  480MOL0     C64705   3.236  11.861   3.334  0.6792 -0.6525  0.4353
  480MOL0     C64706   3.251  11.741   3.232  1.0309 -0.0504  1.3066
  480MOL0     C64707   3.120  11.654   3.220 -0.4261 -1.0173  0.5535
  480MOL0     C64708   3.162  11.511   3.198  0.2510  0.3384 -0.1540
  480MOL0    Cl64709   3.187  11.421   3.346  0.2990  0.0040 -0.1006
  480MOL0     C64710   3.524  12.353   2.920 -0.5185  1.1509 -0.8771
  480MOL0     C64711   3.591  12.428   2.818 -0.2939  0.3045 -0.4949
  480MOL0     O64712   3.452  12.761   2.596  0.7001 -0.1191 -0.2361
  480MOL0     C64713   3.629  12.846   2.390  0.5312  1.5455 -0.4684
  480MOL0     C64714   3.718  12.873   2.296  0.5785 -0.2420  0.3328
  480MOL0     N64715   3.931  12.661   1.559 -0.2979  0.1975  0.4025
  480MOL0     N64716   3.951  12.539   1.521 -0.5117 -0.0322  0.8955
  480MOL0     C64717   3.926  11.634   2.350  0.5849  0.6375  0.4641
  480MOL0     C64718   3.967  11.571   2.462 -0.9820  0.5705  0.6164
  480MOL0     C64719   4.022  11.385   2.871 -0.0065 -0.6080  1.1708
  480MOL0     C64720   4.158  11.419   2.903 -0.0237 -0.2795  1.3607
  480MOL0     C64721   4.223  11.342   2.995 -1.2331  0.6239 -0.2501
  480MOL0     C64722   4.164  11.225   3.050 -0.1231 -0.2235  0.8916
  480MOL0     O64723   4.241  11.152   3.138  0.6631 -0.1144  0.4794
  480MOL0     C64724   4.196  11.045   3.215  0.8112  0.8597 -0.5159
  480MOL0     C64725   4.311  10.995   3.313 -0.2826 -0.0197  0.4577
  480MOL0     C64726   4.258  10.893   3.413 -0.0460 -0.0475 -0.2678
  480MOL0     C64727   4.204  10.751   3.356  0.3388  0.0788 -0.0352
  480MOL0     C64728   4.188  10.637   3.450 -1.1077  0.8144 -0.2778
  480MOL0     C64729   4.171  10.538   3.522 -0.5737 -0.2711 -0.1834
  480MOL0     C64730   4.028  11.195   3.015  0.2693  0.5764 -0.0643
  480MOL0     C64731   3.961  11.277   2.936  1.0605 -0.0615 -0.8245
  480MOL0     C64732   3.808  11.236   2.920  0.9169  0.0898 -0.3030
  480MOL0     H64733   3.980  11.825   2.669  3.9699  1.0283 -1.0087
  480MOL0     H64734   3.885  11.939   2.484  0.3352 -0.3260  2.5627
  480MOL0     H64735   3.900  11.738   2.081 -0.9142  1.5016 -3.2101
  480MOL0     H64736   3.757  11.693   2.152  1.4198 -0.8244  4.0716
  480MOL0     H64737   3.642  11.923   2.096 -0.9031 -2.4203 -1.5376
  480MOL0     H64738   3.671  11.817   1.971 -4.5838 -1.1076  3.0245
  480MOL0     H64739   3.857  11.950   1.888 -1.4188  1.5641 -2.2892
  480MOL0     H64740   3.877  12.030   2.049 -1.4774  1.4605  0.3343
  480MOL0     H64741   3.681  12.070   1.817  1.2784 -0.9457  0.2264
  480MOL0     H64742   3.624  12.124   1.983  0.0940 -0.0878 -0.1032
  480MOL0     H64743   3.721  12.304   1.862 -0.5154  1.0378  3.1382
  480MOL0     H64744   3.811  12.265   2.008  0.4553 -0.9850  1.3977
  480MOL0     H64745   3.990  12.293   1.874 -0.4893  1.8211 -1.1466
  480MOL0     H64746   3.974  12.135   1.837 -0.1523 -0.6716 -1.2780
  480MOL0     H64747   3.818  12.282   1.651  1.4866  1.7375  1.3103
  480MOL0     H64748   3.939  12.140   1.634  1.7999 -0.6979  0.1401
  480MOL0     H64749   4.129  12.293   1.662  0.5850 -0.1345 -0.1568
  480MOL0     H64750   4.040  12.298   1.513  1.6627  2.6333 -0.4614
  480MOL0     H64751   4.062  12.522   1.818  2.2964 -0.5732 -0.7972
  480MOL0     H64752   3.977  12.875   1.727 -2.4200  1.3328 -1.3698
  480MOL0     H64753   3.831  12.803   1.784  0.4263 -0.7889 -0.5121
  480MOL0     H64754   3.926  12.719   1.987  0.4903  1.0704  3.3140
  480MOL0     H64755   4.097  12.733   1.919 -0.1910 -0.9299 -0.5984
  480MOL0     H64756   4.043  12.996   1.926  0.6532 -1.2578 -0.9510
  480MOL0     H64757   4.117  12.893   2.041 -0.7526 -1.9592 -0.6615
  480MOL0     H64758   3.818  12.936   2.065 -1.2458 -0.1724  1.6305
  480MOL0     H64759   3.941  13.036   2.151 -0.7738  1.4938 -3.5892
  480MOL0     H64760   3.988  12.696   2.393 -0.8548 -2.5460  0.8528
  480MOL0     H64761   3.820  12.604   2.545  1.4348  1.0210  2.1598
  480MOL0     H64762   3.330  12.634   2.728  0.7220  0.9091 -2.1117
  480MOL0     H64763   3.220  12.493   2.917 -1.4838 -0.9705 -1.4399
  480MOL0     H64764   3.477  12.185   3.112 -2.1143 -2.3865  0.5937
  480MOL0     H64765   3.464  12.328   3.223 -2.0483  1.9855 -0.4196
  480MOL0     H64766   3.355  12.144   3.338 -3.4092  0.1336  2.6077
  480MOL0     H64767   3.232  12.257   3.271  0.5006  1.4181 -0.9615
  480MOL0     H64768   3.178  12.104   3.088 -0.1491 -1.1422 -1.7758
  480MOL0     H64769   3.312  11.997   3.131 -2.8908 -4.3728  2.3082
  480MOL0     H64770   3.069  11.946   3.203  0.7517  0.6561  0.0962
  480MOL0     H64771   3.102  12.046   3.340 -1.3515 -4.4681  4.4319
  480MOL0     H64772   3.183  11.828   3.424 -2.8417 -0.7428 -1.4733
  480MOL0     H64773   3.336  11.896   3.360  1.4763 -1.1701 -1.7486
  480MOL0     H64774   3.293  11.784   3.141 -0.2001 -1.7426 -0.1555
  480MOL0     H64775   3.327  11.681   3.283  2.9080  0.0996 -1.1673
  480MOL0     H64776   3.052  11.699   3.148  1.1125  3.2575  1.4641
  480MOL0     H64777   3.070  11.661   3.317  1.5641  0.3929  1.5688
  480MOL0     H64778   3.091  11.456   3.136 -0.6766 -1.6364  2.4471
  480MOL0     H64779   3.260  11.509   3.150  0.9612  0.5671  1.2138
  480MOL0     H64780   3.583  12.269   2.955 -0.4545  2.0814  1.4451
  480MOL0     H64781   3.689  12.394   2.786  0.5681 -0.1361  2.2610
  480MOL0     H64782   3.529  12.886   2.383 -1.1971 -2.1974  0.5318
  480MOL0     H64783   3.673  12.930   2.215 -1.1110  0.2458  1.5763
  480MOL0     H64784   3.922  11.563   2.267  0.3768 -0.5809  1.4746
  480MOL0     H64785   3.985  11.464   2.457  4.1279  1.1384  1.3793
  480MOL0     H64786   4.201  11.509   2.861  0.0439 -0.0540  1.9135
  480MOL0     H64787   4.308  11.386   3.046 -0.4833 -0.8213 -0.1938
  480MOL0     H64788   4.171  10.961   3.150  0.1007  0.1808  0.6067
  480MOL0     H64789   4.100  11.069   3.262 -0.1433  1.3420 -2.5979
  480MOL0     H64790   4.351  11.083   3.364 -0.9540  0.7387 -0.2979
  480MOL0     H64791   4.395  10.948   3.260  0.2010  2.0785 -0.7765
  480MOL0     H64792   4.171  10.942   3.458 -0.6748 -0.8250 -0.6148
  480MOL0     H64793   4.327  10.870   3.495 -0.9135 -1.4393  0.1134
  480MOL0     H64794   4.111  10.764   3.300  0.3455 -2.7648 -0.8869
  480MOL0     H64795   4.280  10.718   3.284  0.9095  1.7132 -0.2208
  480MOL0     H64796   4.147  10.451   3.580 -1.4373 -0.0735 -0.2195
  480MOL0     H64797   3.985  11.110   3.068  0.8317  1.8310  2.5829
  480MOL0     H64798   3.787  11.140   2.969 -1.3174  1.5642  1.8683
  480MOL0     H64799   3.735  11.308   2.958 -0.2425 -1.8272  1.3217
  480MOL0     H64800   3.787  11.218   2.815 -0.7845 -1.2098  0.2061
  481MOL0     O64801   4.372   5.724   4.205 -0.3147 -0.5245  0.3006
  481MOL0     C64802   4.399   5.609   4.246  0.7135  0.7110 -0.5481
  481MOL0     O64803   4.372   5.559   4.366 -0.2052 -0.6148  0.7576
  481MOL0     C64804   4.361   5.652   4.469 -0.0307 -0.4235  0.4065
  481MOL0     C64805   4.470   5.741   4.506  0.4592  0.1903 -0.2357
  481MOL0     C64806   4.446   5.831   4.613 -1.2338  0.4887  1.1416
  481MOL0     C64807   4.345   5.822   4.699 -0.5199 -0.1647 -0.0975
  481MOL0     O64808   4.340   5.896   4.820  0.5723  0.3613 -0.2983
  481MOL0     C64809   4.218   5.964   4.835  0.6215 -0.1538 -0.3058
  481MOL0     C64810   4.214   6.086   4.940 -0.0809  0.1686 -0.5475
  481MOL0     C64811   4.251   6.054   5.074  0.5233 -0.1737 -0.1883
  481MOL0     C64812   4.144   5.948   5.135 -0.1302 -0.4872  0.6584
  481MOL0     C64813   4.021   6.010   5.195 -0.5084 -0.4337 -0.9325
  481MOL0     C64814   3.969   5.926   5.305 -0.2651 -0.1640  0.3785
  481MOL0     C64815   3.842   5.987   5.342  0.7135 -0.0698 -0.0511
  481MOL0     C64816   3.857   6.108   5.428  0.1295  0.4945  0.9403
  481MOL0     N64817   3.723   6.159   5.461  0.8532  0.0683  0.3426
  481MOL0     C64818   3.667   6.257   5.386 -0.4503 -0.0444 -0.9395
  481MOL0     C64819   3.546   6.287   5.447  0.0595 -0.4287 -0.1054
  481MOL0     C64820   3.442   6.396   5.406 -0.8367  0.2155  0.0340
  481MOL0     C64821   3.477   6.534   5.474 -0.3922 -0.4848 -0.3922
  481MOL0     C64822   3.538   6.638   5.380  0.5483  0.3343  0.5581
  481MOL0     C64823   3.534   6.777   5.456 -0.5379  0.6301  0.1084
  481MOL0     O64824   3.637   6.865   5.417  0.1109  0.1109 -0.9696
  481MOL0     C64825   3.598   6.957   5.323 -1.6141  1.0496  0.7496
  481MOL0     C64826   3.480   6.943   5.238  0.1489  0.6592 -0.8730
  481MOL0     C64827   3.440   7.042   5.156 -0.7704 -1.1145  1.0638
  481MOL0     C64828   3.522   7.160   5.142 -0.0297 -0.0256 -0.2328
  481MOL0     C64829   3.468   7.266   5.063  1.0894  0.1246 -0.1964
  481MOL0     O64830   3.559   7.366   5.037 -0.1474  0.1621 -0.1727
  481MOL0     C64831   3.519   7.489   4.994  0.8347  0.6001 -0.2145
  481MOL0     C64832   3.477   7.503   4.867  0.1844 -0.0454  0.9219
  481MOL0     C64833   3.455   7.624   4.814 -0.3273 -0.6563 -0.4126
  481MOL0     C64834   3.491   7.732   4.892  0.4316  0.0627  0.1152
  481MOL0     O64835   3.497   7.862   4.844 -0.5773  0.2771  0.2852
  481MOL0     C64836   3.385   7.912   4.777  0.0869 -0.0999  0.4858
  481MOL0     C64837   3.381   8.062   4.798 -0.5907  0.0979  0.1139
  481MOL0     C64838   3.269   8.138   4.721 -0.7704  0.6455  0.4037
  481MOL0     C64839   3.142   8.065   4.747 -0.2579 -0.0707 -0.2243
  481MOL0     C64840   3.026   8.153   4.695  0.6871  0.2827  0.6152
  481MOL0     C64841   2.876   8.115   4.722  0.3328 -0.6440  0.7496
  481MOL0     C64842   2.840   7.967   4.701  0.0821  0.5856  0.0315
  481MOL0     C64843   2.688   7.919   4.700 -0.1041  0.3127 -0.2942
  481MOL0    Cl64844   2.648   7.906   4.869  0.0912 -0.0191 -0.3071
  481MOL0     C64845   3.549   7.718   5.029 -0.5863 -0.7558  0.2907
  481MOL0     C64846   3.564   7.594   5.075  0.2019  0.6046 -0.5087
  481MOL0     O64847   3.344   7.271   5.042 -0.1824  0.0825 -0.1429
  481MOL0     C64848   3.631   7.178   5.221 -0.3128 -0.5537 -0.0556
  481MOL0     C64849   3.673   7.073   5.306  0.4483  0.1727 -0.7274
  481MOL0     N64850   3.529   6.202   5.554  0.1028 -0.3394  0.3264
  481MOL0     N64851   3.630   6.125   5.560 -0.0518 -0.1663  0.6471
  481MOL0     C64852   4.236   5.747   4.650 -0.7767 -0.5350  0.1378
  481MOL0     C64853   4.249   5.660   4.545  0.2153  0.1263 -0.5820
  481MOL0     C64854   4.419   5.510   4.138 -0.7312 -0.4998 -0.1833
  481MOL0     C64855   4.469   5.564   4.020 -0.2121  0.5726  1.3447
  481MOL0     C64856   4.502   5.483   3.909 -0.8374  0.2132  0.1076
  481MOL0     C64857   4.501   5.343   3.924 -0.3869  0.0682  0.0960
  481MOL0     O64858   4.536   5.263   3.822  0.0763 -0.7798 -0.0243
  481MOL0     C64859   4.673   5.231   3.829 -0.3359 -0.4823  0.1423
  481MOL0     C64860   4.759   5.333   3.764 -0.7046  0.1633  0.0939
  481MOL0     C64861   4.741   5.354   3.616  0.0680 -0.0056 -0.2651
  481MOL0     C64862   4.820   5.480   3.568  0.3843  0.3957  0.1062
  481MOL0     C64863   4.965   5.469   3.585  1.3701  0.9175  0.0191
  481MOL0     C64864   5.087   5.452   3.606  0.6367 -0.5573  1.0227
  481MOL0     C64865   4.458   5.287   4.045 -1.6749 -0.1796  0.0922
  481MOL0     C64866   4.423   5.365   4.155  0.5311  1.1101 -0.2057
  481MOL0     C64867   4.368   5.283   4.274 -0.8316 -0.1352  0.0271
  481MOL0     H64868   4.563   5.739   4.450  0.1320  2.6077 -0.9756
  481MOL0     H64869   4.532   5.896   4.628 -2.1879  1.8432  0.9739
  481MOL0     H64870   4.185   5.995   4.736 -1.9778 -0.1425  0.4834
  481MOL0     H64871   4.146   5.892   4.875  0.8386 -0.1823  0.0453
  481MOL0     H64872   4.120   6.141   4.955  0.0385 -0.1379  1.6180
  481MOL0     H64873   4.279   6.168   4.909  0.2300  1.4223  2.9225
  481MOL0     H64874   4.258   6.134   5.148 -0.8278 -0.3415  0.1435
  481MOL0     H64875   4.353   6.013   5.067  0.0476 -1.8489  1.5901
  481MOL0     H64876   4.123   5.863   5.070 -0.9380  0.8431 -0.9074
  481MOL0     H64877   4.197   5.899   5.217  0.9879  1.0934  0.9299
  481MOL0     H64878   4.052   6.110   5.227  1.5039 -1.3845  0.2190
  481MOL0     H64879   3.940   6.026   5.122 -0.3736 -2.9123 -1.7280
  481MOL0     H64880   3.942   5.825   5.273 -0.9929 -0.5513  2.1206
  481MOL0     H64881   4.050   5.925   5.379  0.4564  2.3441 -0.2734
  481MOL0     H64882   3.794   5.908   5.400 -0.0271 -0.5520 -1.2662
  481MOL0     H64883   3.778   6.009   5.256  3.1011  3.0932 -1.1962
  481MOL0     H64884   3.905   6.090   5.524 -1.6070 -1.4553  1.5069
  481MOL0     H64885   3.901   6.186   5.364 -2.1593 -0.9845 -2.7400
  481MOL0     H64886   3.721   6.310   5.308  1.1545 -1.0553 -0.5432
  481MOL0     H64887   3.433   6.408   5.298  1.2827 -0.3704 -0.2662
  481MOL0     H64888   3.351   6.355   5.450 -1.7051  1.2395 -0.7544
  481MOL0     H64889   3.379   6.573   5.504 -1.3545 -1.6473 -1.9333
  481MOL0     H64890   3.547   6.527   5.558 -0.3953 -0.2337 -0.3661
  481MOL0     H64891   3.483   6.649   5.286 -0.7334  1.8233  1.4285
  481MOL0     H64892   3.641   6.615   5.355  0.2071  0.0449 -0.6103
  481MOL0     H64893   3.554   6.767   5.563 -1.4814  0.5326  0.2850
  481MOL0     H64894   3.434   6.820   5.446  0.4267  2.3777 -3.8902
  481MOL0     H64895   3.419   6.853   5.233 -1.0533  1.4839 -1.4762
  481MOL0     H64896   3.356   7.021   5.090 -0.2043  0.9646 -0.4111
  481MOL0     H64897   3.466   7.420   4.798  0.3047  0.2580  0.5379
  481MOL0     H64898   3.413   7.618   4.713 -2.0927  1.3850  0.1247
  481MOL0     H64899   3.397   7.891   4.670  0.0088 -1.0898  0.6595
  481MOL0     H64900   3.302   7.855   4.819 -0.3986  0.8345  0.8150
  481MOL0     H64901   3.361   8.084   4.904 -0.5696 -0.6608  0.2861
  481MOL0     H64902   3.481   8.100   4.776 -0.5933  0.7051  1.0686
  481MOL0     H64903   3.262   8.246   4.739 -0.9995  1.0621 -1.8535
  481MOL0     H64904   3.299   8.128   4.616 -2.8418 -2.6403 -0.0001
  481MOL0     H64905   3.126   8.061   4.855 -0.9575  1.0700 -0.2638
  481MOL0     H64906   3.131   7.968   4.698  1.1649 -0.5461  0.3385
  481MOL0     H64907   3.029   8.166   4.586 -2.1316  0.8274  0.5173
  481MOL0     H64908   3.032   8.252   4.742  1.2191 -0.2058  1.5820
  481MOL0     H64909   2.855   8.141   4.826  2.5805 -4.0260  2.2213
  481MOL0     H64910   2.817   8.178   4.654 -1.0370  1.0466  3.3369
  481MOL0     H64911   2.896   7.909   4.776 -0.9502  2.0651  2.0302
  481MOL0     H64912   2.883   7.937   4.605 -0.3884 -0.6193  0.1729
  481MOL0     H64913   2.630   7.996   4.648 -0.6834 -0.0681 -0.2149
  481MOL0     H64914   2.694   7.825   4.646  3.0439  0.3058 -0.0745
  481MOL0     H64915   3.590   7.804   5.079  0.8835 -0.3119 -1.5689
  481MOL0     H64916   3.594   7.561   5.174 -0.7771  2.2727  0.3827
  481MOL0     H64917   3.687   7.271   5.222 -4.9773  2.6357  2.1001
  481MOL0     H64918   3.760   7.085   5.369  0.6175 -2.0688 -0.4456
  481MOL0     H64919   4.159   5.742   4.726  0.2366  0.5927  1.2813
  481MOL0     H64920   4.173   5.584   4.533 -0.6776  0.9674 -0.4343
  481MOL0     H64921   4.477   5.669   3.996 -3.3143  0.3186 -1.7671
  481MOL0     H64922   4.524   5.542   3.820 -0.5618  1.2324  0.8231
  481MOL0     H64923   4.674   5.127   3.797 -2.4534 -0.9803  1.4575
  481MOL0     H64924   4.720   5.228   3.929  0.7027 -1.3230 -0.3516
  481MOL0     H64925   4.851   5.277   3.781 -2.1498 -2.1144  0.8276
  481MOL0     H64926   4.773   5.425   3.821  1.5637  2.9729 -4.3824
  481MOL0     H64927   4.632   5.355   3.603 -0.0253 -0.8909  0.3664
  481MOL0     H64928   4.781   5.262   3.574 -2.7512 -1.3320 -0.2257
  481MOL0     H64929   4.798   5.496   3.462 -0.1475 -0.7360  0.0289
  481MOL0     H64930   4.782   5.566   3.625 -1.3901 -1.6816  2.2251
  481MOL0     H64931   5.187   5.421   3.625  0.7140 -0.0858  1.4135
  481MOL0     H64932   4.463   5.180   4.058  1.3386 -0.0144  1.0877
  481MOL0     H64933   4.391   5.176   4.270 -1.9064 -0.3496 -1.0544
  481MOL0     H64934   4.407   5.321   4.369  0.8237  1.0561 -1.0673
  481MOL0     H64935   4.260   5.298   4.279 -0.8545 -0.7109  2.3813
  482MOL0     O64936   5.365   4.992   7.194  0.2221  0.0271 -0.4584
  482MOL0     C64937   5.361   4.985   7.077 -0.7367  0.2776 -0.4393
  482MOL0     O64938   5.299   4.885   7.004 -0.2623  0.2680  0.6260
  482MOL0     C64939   5.250   4.770   7.060  0.5623  0.2099 -0.4672
  482MOL0     C64940   5.134   4.721   6.982 -0.1875 -0.4928  0.1628
  482MOL0     C64941   5.080   4.597   7.019  0.5084 -1.1542 -1.2520
  482MOL0     C64942   5.123   4.527   7.126 -0.7280 -0.8334 -0.1904
  482MOL0     O64943   5.068   4.413   7.169  0.5847  0.1364  0.0743
  482MOL0     C64944   4.926   4.430   7.213 -0.6425 -0.5144  0.3951
  482MOL0     C64945   4.906   4.332   7.324 -0.1952  0.1477 -1.0197
  482MOL0     C64946   4.777   4.356   7.405  0.3486 -0.1624  1.0947
  482MOL0     C64947   4.736   4.247   7.513 -0.7451 -0.2975  0.9042
  482MOL0     C64948   4.659   4.136   7.447  0.4946  0.9603 -0.2895
  482MOL0     C64949   4.576   4.059   7.549 -0.7227  0.2941 -1.0885
  482MOL0     C64950   4.448   4.131   7.588 -0.0581 -0.3859  0.0893
  482MOL0     C64951   4.357   4.081   7.696  0.1619 -0.0759 -0.4664
  482MOL0     N64952   4.417   4.122   7.826 -0.0260  0.6122  0.0640
  482MOL0     C64953   4.442   4.248   7.880  1.4644 -0.0886 -0.3266
  482MOL0     C64954   4.514   4.237   7.991  0.2472 -0.6213  0.0220
  482MOL0     C64955   4.569   4.349   8.075 -0.5160  0.1374  0.7188
  482MOL0     C64956   4.710   4.410   8.038 -0.1014 -0.9187 -0.3591
  482MOL0     C64957   4.730   4.405   7.884  0.1244 -0.4089 -0.0445
  482MOL0     C64958   4.852   4.490   7.854  0.2538  0.8634 -0.3428
  482MOL0     O64959   4.975   4.440   7.915 -0.4481 -0.2971  0.2657
  482MOL0     C64960   5.009   4.475   8.045  0.3840  0.7100 -0.4226
  482MOL0     C64961   4.966   4.585   8.117 -0.9252  0.5600 -0.1978
  482MOL0     C64962   5.003   4.613   8.254  1.2176  0.0149 -0.2529
  482MOL0     C64963   5.100   4.530   8.319  0.9109 -0.2252 -0.1358
  482MOL0     C64964   5.151   4.549   8.459  0.2275 -0.9176 -0.5135
  482MOL0     O64965   5.100   4.649   8.537 -0.0888 -0.0147  0.3037
  482MOL0     C64966   5.092   4.639   8.671 -0.3506 -0.6463 -0.7219
  482MOL0     C64967   5.147   4.751   8.729 -0.5284  0.5052 -0.9807
  482MOL0     C64968   5.140   4.755   8.870 -0.2475 -0.2451 -0.7170
  482MOL0     C64969   5.087   4.653   8.952  0.0073  0.1672  0.2984
  482MOL0     O64970   5.090   4.677   9.091  0.5753  0.4807  0.1445
  482MOL0     C64971   5.086   4.564   9.174 -0.5426 -0.7798 -0.9760
  482MOL0     C64972   5.172   4.589   9.295 -0.0185 -0.3595 -0.9918
  482MOL0     C64973   5.299   4.670   9.263  0.0628 -1.2549  1.0217
  482MOL0     C64974   5.408   4.648   9.366  0.0360 -0.1452  0.1937
  482MOL0     C64975   5.511   4.765   9.384  0.4582  0.4681  0.5111
  482MOL0     C64976   5.623   4.795   9.275  0.1551 -0.0665  0.1540
  482MOL0     C64977   5.687   4.931   9.308 -0.4937  0.7138  0.6620
  482MOL0     C64978   5.823   4.953   9.230  0.0071  0.5645 -1.0506
  482MOL0    Cl64979   5.930   5.073   9.323  0.0170 -0.1551 -0.1067
  482MOL0     C64980   5.050   4.534   8.883 -0.3831 -0.0266  0.2896
  482MOL0     C64981   5.062   4.525   8.744 -0.7409 -0.5489 -0.1588
  482MOL0     O64982   5.212   4.449   8.496  0.9975  0.4356 -1.4371
  482MOL0     C64983   5.142   4.414   8.244  0.3531  0.1918 -0.3424
  482MOL0     C64984   5.100   4.385   8.114 -0.0720 -0.5612  0.2797
  482MOL0     N64985   4.529   4.100   8.007 -0.0918  0.4755  0.4384
  482MOL0     N64986   4.474   4.030   7.916 -0.4119  0.6213 -0.3014
  482MOL0     C64987   5.229   4.575   7.203 -0.4021  0.1013  0.2705
  482MOL0     C64988   5.303   4.696   7.170 -0.5972 -0.6440  1.3555
  482MOL0     C64989   5.441   5.082   7.008 -0.4992 -0.7336 -0.1003
  482MOL0     C64990   5.380   5.153   6.908  1.1801 -0.1826  0.8339
  482MOL0     C64991   5.440   5.243   6.829  0.3802 -0.2647 -0.0545
  482MOL0     C64992   5.579   5.274   6.843  0.1723 -0.2101 -0.5596
  482MOL0     O64993   5.651   5.366   6.771 -0.1602 -0.6684 -0.5014
  482MOL0     C64994   5.604   5.425   6.646 -0.2056 -0.1499 -0.4763
  482MOL0     C64995   5.562   5.317   6.545 -0.3131 -0.3160 -0.9646
  482MOL0     C64996   5.681   5.254   6.478  0.3208  0.8340 -0.0511
  482MOL0     C64997   5.774   5.166   6.557 -0.0570  0.3473 -0.0518
  482MOL0     C64998   5.740   5.027   6.562  0.1218  0.8979 -0.0991
  482MOL0     C64999   5.728   4.905   6.556  0.4526  0.2399  0.1741
  482MOL0     C65000   5.634   5.218   6.957  0.0839  0.2792  0.3205
  482MOL0     C65001   5.576   5.110   7.035 -0.2633 -0.3483 -0.2298
  482MOL0     C65002   5.653   5.051   7.149  0.3792  0.3273  0.0533
  482MOL0     H65003   5.093   4.783   6.903  0.7623  0.5518  0.4728
  482MOL0     H65004   4.993   4.557   6.968 -1.0530  1.7745 -1.1301
  482MOL0     H65005   4.897   4.528   7.253  0.8748  0.0283  0.2310
  482MOL0     H65006   4.861   4.412   7.127  0.5519  0.0829 -0.6607
  482MOL0     H65007   4.991   4.352   7.391 -0.2417 -0.7917 -0.6654
  482MOL0     H65008   4.904   4.228   7.291  1.3948  0.1864 -1.3148
  482MOL0     H65009   4.697   4.349   7.330 -0.2725 -2.2453  1.8665
  482MOL0     H65010   4.772   4.451   7.457  2.1107 -0.1990  1.4040
  482MOL0     H65011   4.824   4.195   7.553  0.0750 -1.3845 -1.9742
  482MOL0     H65012   4.688   4.295   7.598 -2.6482 -1.7837  0.7378
  482MOL0     H65013   4.587   4.174   7.374 -0.8948  3.7070  2.2606
  482MOL0     H65014   4.728   4.063   7.405 -2.2285 -2.7771  1.1683
  482MOL0     H65015   4.545   3.962   7.509  1.9092 -0.9927 -0.2373
  482MOL0     H65016   4.629   4.041   7.643 -0.3053 -0.6265 -1.4829
  482MOL0     H65017   4.395   4.139   7.493  1.0059  0.7170 -0.4363
  482MOL0     H65018   4.477   4.228   7.628  0.5612 -0.6559  0.3161
  482MOL0     H65019   4.260   4.130   7.701  0.0523 -0.2692 -0.6739
  482MOL0     H65020   4.358   3.972   7.693  1.4366 -0.0807 -0.3236
  482MOL0     H65021   4.395   4.334   7.834  1.3289 -1.7756 -3.5994
  482MOL0     H65022   4.486   4.420   8.075 -1.0174 -0.3695  3.2817
  482MOL0     H65023   4.578   4.301   8.172 -0.2903 -4.0282 -1.1438
  482MOL0     H65024   4.700   4.511   8.077 -2.1555 -0.9166 -0.8168
  482MOL0     H65025   4.783   4.350   8.093 -1.0424 -0.3364  1.6099
  482MOL0     H65026   4.648   4.462   7.839 -0.3178  0.2942  1.5708
  482MOL0     H65027   4.733   4.301   7.851 -3.8958 -0.5610 -0.4324
  482MOL0     H65028   4.829   4.590   7.892 -0.8604  0.8292 -0.8931
  482MOL0     H65029   4.864   4.486   7.745  1.9221 -0.4348 -0.1453
  482MOL0     H65030   4.892   4.657   8.085 -0.2288  1.0158 -0.8314
  482MOL0     H65031   4.955   4.695   8.306 -1.7656 -1.2305 -0.8510
  482MOL0     H65032   5.210   4.817   8.671 -0.6982  1.6379  0.0797
  482MOL0     H65033   5.176   4.844   8.921 -1.2333  0.3901 -1.1116
  482MOL0     H65034   4.982   4.542   9.197 -0.7808 -0.2511 -1.5058
  482MOL0     H65035   5.132   4.478   9.125  2.7927  1.0165 -1.2992
  482MOL0     H65036   5.123   4.632   9.382  2.4745 -0.2394  0.4477
  482MOL0     H65037   5.212   4.494   9.330  4.5958  1.2270 -1.3056
  482MOL0     H65038   5.334   4.639   9.164 -0.0363 -0.7772  0.8353
  482MOL0     H65039   5.260   4.771   9.251 -0.7636 -1.5592  1.0843
  482MOL0     H65040   5.467   4.559   9.344 -1.7480 -1.6883  1.2748
  482MOL0     H65041   5.348   4.617   9.452  0.3432 -2.3087 -0.3136
  482MOL0     H65042   5.566   4.759   9.478  0.3461 -0.4671  0.5197
  482MOL0     H65043   5.455   4.857   9.402 -0.4175  0.9570 -3.6941
  482MOL0     H65044   5.693   4.711   9.269 -2.3630 -2.8774  4.3757
  482MOL0     H65045   5.567   4.803   9.182  0.2850  0.1037  0.0911
  482MOL0     H65046   5.697   4.963   9.412  0.1748 -0.7359  1.0798
  482MOL0     H65047   5.619   5.002   9.260  0.2984 -0.5552 -2.6445
  482MOL0     H65048   5.869   4.854   9.230  1.1375  1.0655 -0.1560
  482MOL0     H65049   5.813   4.977   9.124  1.2812  0.1333 -1.2793
  482MOL0     H65050   5.003   4.446   8.926 -0.9609 -0.2848 -0.8452
  482MOL0     H65051   5.031   4.436   8.689 -1.9727  0.3384 -0.9740
  482MOL0     H65052   5.211   4.344   8.291 -0.5461 -0.7945 -0.4411
  482MOL0     H65053   5.134   4.295   8.064 -0.2844  0.8673 -2.6324
  482MOL0     H65054   5.252   4.518   7.292  0.1443  3.2422  2.2999
  482MOL0     H65055   5.392   4.732   7.219 -0.6407  2.5622 -0.6404
  482MOL0     H65056   5.279   5.113   6.901  1.1752 -0.2381  1.1984
  482MOL0     H65057   5.375   5.291   6.756 -0.2476 -0.2354  0.5190
  482MOL0     H65058   5.674   5.491   6.594  0.0110  0.0546  0.0606
  482MOL0     H65059   5.516   5.482   6.678 -0.9450  0.3648 -3.1581
  482MOL0     H65060   5.505   5.360   6.461  2.4060 -1.0606 -3.3647
  482MOL0     H65061   5.500   5.242   6.594  1.7843 -1.8555 -0.5474
  482MOL0     H65062   5.747   5.327   6.431  0.7428 -0.6234 -1.8133
  482MOL0     H65063   5.643   5.186   6.401  0.4533  1.6140 -0.8095
  482MOL0     H65064   5.874   5.181   6.515 -1.6734  1.3697 -3.9587
  482MOL0     H65065   5.778   5.186   6.665  1.6030 -1.9302  0.3800
  482MOL0     H65066   5.710   4.799   6.564 -0.9339  0.3920 -0.5567
  482MOL0     H65067   5.733   5.248   6.990  1.4131 -3.4335  0.2204
  482MOL0     H65068   5.616   4.949   7.156 -0.0365  0.6028  4.2899
  482MOL0     H65069   5.761   5.046   7.140  0.4070 -0.9697  0.9529
  482MOL0     H65070   5.622   5.103   7.241 -4.1422 -0.9861 -0.4557
  483MOL0     O65071   3.802   7.372   7.114 -0.2603  0.6678  0.9956
  483MOL0     C65072   3.917   7.397   7.158  0.2930 -0.4494 -0.5792
  483MOL0     O65073   3.962   7.322   7.268 -0.1166 -0.4456  0.9491
  483MOL0     C65074   3.901   7.202   7.316 -0.7996 -0.1990 -0.3426
  483MOL0     C65075   3.768   7.195   7.349  0.0195 -0.2896 -0.0326
  483MOL0     C65076   3.710   7.073   7.398 -0.5089  0.6319 -0.5976
  483MOL0     C65077   3.794   6.953   7.397  0.1197 -0.1531 -0.4706
  483MOL0     O65078   3.759   6.830   7.444  0.0659 -0.6698  0.7108
  483MOL0     C65079   3.621   6.803   7.408 -0.4808 -0.3063 -0.2962
  483MOL0     C65080   3.594   6.650   7.377 -0.5624 -0.8561 -0.5991
  483MOL0     C65081   3.716   6.585   7.300 -0.6928 -0.0052 -1.1113
  483MOL0     C65082   3.760   6.656   7.171  1.0939  0.5680  0.3812
  483MOL0     C65083   3.849   6.571   7.074 -0.5965 -0.5162  1.3177
  483MOL0     C65084   3.848   6.635   6.938 -0.2756 -0.1858  0.4326
  483MOL0     C65085   3.929   6.554   6.837  0.6578 -0.3205  0.1885
  483MOL0     C65086   4.073   6.522   6.871 -0.4337 -0.3504  0.6722
  483MOL0     N65087   4.142   6.646   6.871  0.3355 -0.7778 -0.0222
  483MOL0     C65088   4.186   6.719   6.982 -0.1967  0.4188  0.3000
  483MOL0     C65089   4.285   6.794   6.938 -0.2919  0.2031 -0.9268
  483MOL0     C65090   4.356   6.900   7.017 -0.2485  0.2565 -0.3039
  483MOL0     C65091   4.255   6.998   7.078  0.5904 -0.0655 -0.5421
  483MOL0     C65092   4.212   7.102   6.975 -0.0185 -0.4488 -1.0154
  483MOL0     C65093   4.073   7.072   6.917 -0.5815  0.5860 -1.9249
  483MOL0     O65094   4.079   7.099   6.775 -0.3789 -0.1369 -0.7747
  483MOL0     C65095   3.983   7.033   6.704  0.4833 -0.3515 -1.0150
  483MOL0     C65096   4.016   6.921   6.638  0.4909  0.0696  0.7419
  483MOL0     C65097   3.918   6.854   6.573 -0.2112  1.2215 -1.1864
  483MOL0     C65098   3.782   6.900   6.568 -0.4152  0.3882 -0.0261
  483MOL0     C65099   3.690   6.826   6.494 -0.2670 -0.1093 -0.1713
  483MOL0     O65100   3.707   6.693   6.471  0.0552 -0.6038 -0.6106
  483MOL0     C65101   3.598   6.622   6.438  0.4455  0.9184  0.3124
  483MOL0     C65102   3.575   6.579   6.305 -0.7867  0.3875 -0.4609
  483MOL0     C65103   3.457   6.510   6.265 -1.3505 -0.8603  0.3961
  483MOL0     C65104   3.366   6.486   6.365 -0.0027 -0.1218  0.4373
  483MOL0     O65105   3.257   6.410   6.340 -0.4999 -0.2219  0.2786
  483MOL0     C65106   3.203   6.405   6.210  0.6747 -0.1848  0.5335
  483MOL0     C65107   3.095   6.292   6.204 -0.1559 -0.0769 -0.7312
  483MOL0     C65108   3.152   6.150   6.240 -1.0227 -0.4554  0.1665
  483MOL0     C65109   3.031   6.054   6.283  0.1692 -0.5781  0.0662
  483MOL0     C65110   2.962   5.983   6.156 -0.0484  0.9520 -0.4599
  483MOL0     C65111   2.836   5.898   6.185  0.9644  0.4938 -0.1591
  483MOL0     C65112   2.833   5.774   6.097 -0.1784 -0.3990  0.2353
  483MOL0     C65113   2.723   5.665   6.126 -0.1322 -0.1030 -0.5933
  483MOL0    Cl65114   2.718   5.562   5.977  0.3526  0.2294 -0.0382
  483MOL0     C65115   3.391   6.508   6.500 -0.1838 -0.4051  0.1526
  483MOL0     C65116   3.503   6.586   6.535 -0.3544  0.3342  0.7108
  483MOL0     O65117   3.584   6.883   6.470  0.6321 -0.4067  0.1306
  483MOL0     C65118   3.752   7.017   6.637 -0.0262 -0.6265 -0.2887
  483MOL0     C65119   3.852   7.079   6.711  0.2240 -0.9045 -0.3849
  483MOL0     N65120   4.299   6.766   6.802  0.9484  0.1776 -0.3491
  483MOL0     N65121   4.221   6.684   6.763 -0.0708 -0.2846 -0.4899
  483MOL0     C65122   3.931   6.967   7.358 -0.1203  1.4461 -0.1507
  483MOL0     C65123   3.985   7.089   7.322 -0.0768 -0.1754 -0.1128
  483MOL0     C65124   3.983   7.525   7.122 -0.8037  0.4136  0.6959
  483MOL0     C65125   4.026   7.614   7.219 -0.1133 -1.6850 -0.8912
  483MOL0     C65126   4.083   7.738   7.185 -0.8313 -0.4616  0.7379
  483MOL0     C65127   4.085   7.784   7.055 -0.5399 -0.4349  0.1677
  483MOL0     O65128   4.129   7.905   7.011  0.4000  0.6461 -0.3921
  483MOL0     C65129   4.043   8.016   7.015  0.1269  0.4150  0.7681
  483MOL0     C65130   4.097   8.121   7.109 -0.4390 -0.0795  0.4945
  483MOL0     C65131   4.250   8.154   7.098  0.0352 -0.5212  0.0980
  483MOL0     C65132   4.308   8.256   7.189  0.3318  0.1049  0.1673
  483MOL0     C65133   4.271   8.222   7.331 -0.4741  1.0520  0.6022
  483MOL0     C65134   4.228   8.177   7.436  0.3175 -0.2163  0.0773
  483MOL0     C65135   4.050   7.690   6.950 -0.1240  0.7818 -0.2523
  483MOL0     C65136   4.003   7.557   6.982  0.1565 -0.4165 -0.3683
  483MOL0     C65137   3.988   7.460   6.865 -0.0216 -1.1473  0.9242
  483MOL0     H65138   3.702   7.281   7.347 -1.8256 -1.6373  0.1809
  483MOL0     H65139   3.615   7.069   7.451 -1.1899 -0.6582 -1.8484
  483MOL0     H65140   3.547   6.829   7.485 -0.1029  1.7300 -0.5641
  483MOL0     H65141   3.590   6.856   7.318 -2.3981 -1.2420 -0.2470
  483MOL0     H65142   3.507   6.639   7.312 -0.0432  1.2659 -1.7475
  483MOL0     H65143   3.583   6.596   7.471  0.5657 -2.3709 -1.2786
  483MOL0     H65144   3.674   6.489   7.267  0.2888 -0.7712 -0.2312
  483MOL0     H65145   3.804   6.578   7.364 -1.5571 -0.2218  0.0888
  483MOL0     H65146   3.671   6.691   7.117  0.8900  0.2654  0.5172
  483MOL0     H65147   3.812   6.746   7.204  1.2512  0.2983  0.8755
  483MOL0     H65148   3.951   6.565   7.111  0.9043  1.5164 -2.0791
  483MOL0     H65149   3.810   6.471   7.051  0.6169 -0.8367  0.5772
  483MOL0     H65150   3.746   6.649   6.900  0.5341 -1.3591 -2.4990
  483MOL0     H65151   3.900   6.731   6.944  3.1059 -1.8858  0.6765
  483MOL0     H65152   3.931   6.603   6.739  2.0493  1.1494  0.8943
  483MOL0     H65153   3.868   6.464   6.823  2.2029 -1.1060 -2.1374
  483MOL0     H65154   4.082   6.488   6.975 -1.2329  2.4241  1.7380
  483MOL0     H65155   4.126   6.456   6.801  0.1891  0.1229  0.6892
  483MOL0     H65156   4.144   6.712   7.081 -4.2131  0.7172 -1.1815
  483MOL0     H65157   4.388   6.840   7.103 -3.6433  0.3438  1.1972
  483MOL0     H65158   4.439   6.951   6.968 -0.2423  0.8969  0.3381
  483MOL0     H65159   4.176   6.936   7.123  0.3313 -0.5879 -1.6703
  483MOL0     H65160   4.295   7.052   7.163 -0.2451  2.8423 -1.8672
  483MOL0     H65161   4.292   7.127   6.905  0.9666  2.5118  0.9464
  483MOL0     H65162   4.205   7.200   7.023  0.1204 -1.4144  1.1004
  483MOL0     H65163   3.998   7.136   6.965  1.4174  0.2231  2.1498
  483MOL0     H65164   4.046   6.966   6.929 -0.8678  0.9008  0.9033
  483MOL0     H65165   4.121   6.896   6.650 -0.0475 -2.6023  0.5308
  483MOL0     H65166   3.940   6.755   6.536 -3.0148  0.8422 -2.1356
  483MOL0     H65167   3.638   6.620   6.226 -1.3277  2.8466  0.2787
  483MOL0     H65168   3.443   6.481   6.161  1.9576 -0.9639 -0.1357
  483MOL0     H65169   3.158   6.497   6.171 -2.1317 -0.3367  3.0575
  483MOL0     H65170   3.285   6.371   6.146  0.7347  1.0870 -0.0849
  483MOL0     H65171   3.021   6.333   6.273 -0.0179  0.5452 -0.9538
  483MOL0     H65172   3.047   6.282   6.106 -0.3210 -0.0476 -0.6554
  483MOL0     H65173   3.210   6.114   6.154  0.7218  1.7926  0.3381
  483MOL0     H65174   3.218   6.159   6.327  2.0813  1.2805 -2.1637
  483MOL0     H65175   2.948   6.116   6.321  0.9678 -0.3727  1.5672
  483MOL0     H65176   3.066   5.982   6.357  1.3859 -0.2779 -0.1958
  483MOL0     H65177   3.052   5.935   6.116  1.3492  1.7799  1.4706
  483MOL0     H65178   2.933   6.065   6.090  0.4569  2.2693  0.8879
  483MOL0     H65179   2.850   5.862   6.287  0.0549  0.8960  0.1162
  483MOL0     H65180   2.739   5.948   6.173  1.7948  1.8980 -1.4816
  483MOL0     H65181   2.928   5.725   6.120 -0.3980 -0.7284  0.4607
  483MOL0     H65182   2.831   5.796   5.990 -0.7416  0.2707  0.3716
  483MOL0     H65183   2.750   5.597   6.207  0.6758 -0.9897 -1.5729
  483MOL0     H65184   2.627   5.718   6.129  0.4167  0.8863  1.8546
  483MOL0     H65185   3.303   6.497   6.563 -0.9509 -1.9324 -1.1329
  483MOL0     H65186   3.523   6.625   6.634  2.0914  0.2326  0.3300
  483MOL0     H65187   3.653   7.060   6.641 -0.1522 -1.0262  1.3734
  483MOL0     H65188   3.834   7.177   6.754  0.1934 -1.1400  0.1504
  483MOL0     H65189   3.993   6.878   7.365  1.8573  2.3572 -3.7339
  483MOL0     H65190   4.087   7.105   7.290 -0.8384  0.7448 -2.2080
  483MOL0     H65191   4.005   7.585   7.322 -0.3911 -2.0634 -1.0525
  483MOL0     H65192   4.101   7.818   7.257 -2.8194  1.7730 -1.0657
  483MOL0     H65193   3.943   7.982   7.043 -0.1367 -1.1796 -1.8226
  483MOL0     H65194   4.038   8.047   6.911  0.2778 -0.8002  0.3808
  483MOL0     H65195   4.068   8.077   7.205  0.9440  2.2401  2.0853
  483MOL0     H65196   4.042   8.214   7.092 -3.1691 -1.8761 -1.3937
  483MOL0     H65197   4.281   8.190   7.000  1.2798 -0.9752  0.3001
  483MOL0     H65198   4.302   8.058   7.105  3.2951  0.9079 -1.9049
  483MOL0     H65199   4.416   8.236   7.182  0.5801  1.8717 -1.7915
  483MOL0     H65200   4.274   8.355   7.160 -1.8222 -0.9673 -1.2536
  483MOL0     H65201   4.190   8.142   7.530  1.8143 -0.8549  0.4675
  483MOL0     H65202   4.064   7.719   6.846  0.4084  1.0976 -0.0982
  483MOL0     H65203   3.921   7.512   6.796  2.9916  1.5242 -0.2926
  483MOL0     H65204   4.081   7.446   6.809 -0.9280  0.6395 -1.1889
  483MOL0     H65205   3.944   7.364   6.892 -0.6103 -0.9255  0.7701
  484MOL0     O65206  11.107   8.132   1.889 -0.1680  0.3442  0.6253
  484MOL0     C65207  11.198   8.190   1.951  0.4176  0.2600 -0.8144
  484MOL0     O65208  11.190   8.242   2.069 -0.7233 -0.3794 -0.4145
  484MOL0     C65209  11.061   8.253   2.112  0.1334  0.6364  0.1272
  484MOL0     C65210  10.962   8.331   2.055  0.4393 -0.6515 -0.3579
  484MOL0     C65211  10.832   8.347   2.111 -0.3200  0.9878  0.2951
  484MOL0     C65212  10.795   8.250   2.216 -1.1319  0.0984  0.3369
  484MOL0     O65213  10.664   8.232   2.265  0.7486 -0.6911 -0.6142
  484MOL0     C65214  10.577   8.341   2.244 -0.1072  0.4261 -1.1293
  484MOL0     C65215  10.453   8.327   2.347  0.5097  0.9222  0.4577
  484MOL0     C65216  10.498   8.365   2.488 -0.5706  0.2682  0.4007
  484MOL0     C65217  10.404   8.300   2.594  0.1049 -0.2160 -1.0643
  484MOL0     C65218  10.441   8.157   2.633 -0.0966  0.1137 -0.1657
  484MOL0     C65219  10.374   8.114   2.756  0.9673  0.2688 -0.4256
  484MOL0     C65220  10.413   8.175   2.891  0.0643 -0.6882  0.6633
  484MOL0     C65221  10.559   8.145   2.922 -0.3870  0.4546 -0.7599
  484MOL0     N65222  10.613   8.011   2.896 -0.0763 -0.5420 -0.8035
  484MOL0     C65223  10.565   7.885   2.920  0.7307  0.4184 -0.6074
  484MOL0     C65224  10.652   7.787   2.879  0.2433  0.2324 -0.1169
  484MOL0     C65225  10.614   7.639   2.872 -1.0967 -0.2628 -0.9605
  484MOL0     C65226  10.743   7.548   2.876 -0.3649 -0.7398  0.1150
  484MOL0     C65227  10.846   7.560   2.990  1.1217  0.9725  0.6416
  484MOL0     C65228  10.816   7.493   3.117  0.0541  0.1919  0.4657
  484MOL0     O65229  10.831   7.351   3.113 -0.1037  0.4201  0.3385
  484MOL0     C65230  10.779   7.281   3.223  0.2838 -0.5546  0.6285
  484MOL0     C65231  10.683   7.182   3.201 -0.0648  0.1108  0.7287
  484MOL0     C65232  10.603   7.145   3.314 -0.3574 -0.2396 -0.1239
  484MOL0     C65233  10.637   7.186   3.444  0.0964  0.2177 -1.0668
  484MOL0     C65234  10.564   7.144   3.563  0.0086  0.4294 -0.3516
  484MOL0     O65235  10.458   7.054   3.541  0.9165  0.2831 -0.8249
  484MOL0     C65236  10.402   6.995   3.659 -0.2717 -0.5643 -0.4809
  484MOL0     C65237  10.482   6.929   3.761 -0.1052 -0.6964  0.6547
  484MOL0     C65238  10.413   6.867   3.863  0.4461  0.4458 -0.6959
  484MOL0     C65239  10.282   6.885   3.883 -0.0207  0.1460  0.3518
  484MOL0     O65240  10.218   6.832   3.992 -0.0689 -0.7717 -0.2836
  484MOL0     C65241  10.196   6.930   4.099 -0.8996 -0.6121  0.0959
  484MOL0     C65242  10.264   6.864   4.212  0.1698 -0.2091 -0.1169
  484MOL0     C65243  10.169   6.884   4.331 -1.0504 -0.4627  0.0082
  484MOL0     C65244  10.248   6.830   4.452  0.9236  0.2105 -0.5763
  484MOL0     C65245  10.181   6.845   4.594 -0.4139  0.3956  0.8079
  484MOL0     C65246  10.251   6.756   4.699  0.0650 -0.5115 -0.7668
  484MOL0     C65247  10.215   6.609   4.705  0.3328 -0.9269 -0.6012
  484MOL0     C65248  10.292   6.544   4.821  0.0479  0.8146  0.3755
  484MOL0    Cl65249  10.227   6.608   4.982  0.1023  0.3031  0.1649
  484MOL0     C65250  10.206   6.952   3.789  0.3375  0.4740  0.2433
  484MOL0     C65251  10.270   6.998   3.676  1.0921  0.2831 -0.8979
  484MOL0     O65252  10.586   7.193   3.673 -0.6405 -0.2998  0.0103
  484MOL0     C65253  10.754   7.271   3.462 -0.3921 -0.0833 -0.6523
  484MOL0     C65254  10.813   7.323   3.350  0.7543 -0.4324 -0.1242
  484MOL0     N65255  10.764   7.851   2.841 -0.5298 -0.4560  0.8131
  484MOL0     N65256  10.734   7.980   2.845 -0.1124 -0.1222 -0.6147
  484MOL0     C65257  10.904   8.181   2.273  0.8644  0.4901 -0.5027
  484MOL0     C65258  11.038   8.178   2.225  0.1867  0.6301 -0.3570
  484MOL0     C65259  11.342   8.169   1.906  0.6361 -0.3353 -0.0889
  484MOL0     C65260  11.444   8.250   1.970 -0.0131  0.0454 -0.0522
  484MOL0     C65261  11.574   8.243   1.918 -1.1692 -0.3583 -1.0878
  484MOL0     C65262  11.614   8.164   1.805 -1.0078  0.6016 -1.2425
  484MOL0     O65263  11.746   8.147   1.764 -0.4389  0.2535  0.4215
  484MOL0     C65264  11.850   8.235   1.818 -0.2355  1.3392 -0.6183
  484MOL0     C65265  11.929   8.163   1.933  0.1197 -0.2266  0.1442
  484MOL0     C65266  11.945   8.010   1.917  0.1637  0.3863  0.2422
  484MOL0     C65267  12.021   7.932   2.033  0.2656  0.3223  0.1238
  484MOL0     C65268  12.135   8.014   2.076 -0.3624 -0.6961 -1.0137
  484MOL0     C65269  12.230   8.069   2.114 -0.9517 -0.0470  1.2173
  484MOL0     C65270  11.510   8.084   1.757 -0.9146 -0.5565  0.3568
  484MOL0     C65271  11.376   8.082   1.793 -0.6286  0.6812 -0.7842
  484MOL0     C65272  11.281   7.999   1.706  0.7219  0.3606 -0.0888
  484MOL0     H65273  10.972   8.403   1.975 -1.9155 -1.1484 -1.1763
  484MOL0     H65274  10.760   8.414   2.065  0.1852  1.5744  0.3278
  484MOL0     H65275  10.623   8.438   2.267  1.7604 -0.7374  0.3415
  484MOL0     H65276  10.550   8.340   2.138  1.3901 -0.4730 -1.5376
  484MOL0     H65277  10.405   8.228   2.346 -0.0547  1.1800  1.2478
  484MOL0     H65278  10.374   8.394   2.311 -1.3162 -1.3712 -0.0792
  484MOL0     H65279  10.479   8.470   2.512 -1.7690  0.1657 -0.0262
  484MOL0     H65280  10.606   8.350   2.492 -0.5509 -0.7389 -2.2983
  484MOL0     H65281  10.417   8.367   2.679  0.2679  1.5399 -2.4303
  484MOL0     H65282  10.298   8.303   2.568  0.1476 -0.2044 -1.2395
  484MOL0     H65283  10.419   8.092   2.548  1.8160 -0.7947  0.0019
  484MOL0     H65284  10.550   8.151   2.644  0.3926 -1.9278 -4.3255
  484MOL0     H65285  10.266   8.132   2.748  0.9480  0.5385  0.3376
  484MOL0     H65286  10.386   8.006   2.765 -0.3534  0.2470  2.1781
  484MOL0     H65287  10.344   8.132   2.964 -0.7768 -4.3875 -1.9821
  484MOL0     H65288  10.386   8.280   2.885 -3.9684 -1.6374 -1.7574
  484MOL0     H65289  10.616   8.213   2.858 -0.6391 -0.2339 -1.7479
  484MOL0     H65290  10.584   8.145   3.028  0.0549  0.3774 -0.8624
  484MOL0     H65291  10.466   7.864   2.959  1.3789  1.4012  1.7817
  484MOL0     H65292  10.546   7.608   2.952 -2.2193 -1.3894 -2.2914
  484MOL0     H65293  10.565   7.610   2.778 -0.9246 -2.0859 -0.5116
  484MOL0     H65294  10.703   7.447   2.883 -3.2245 -0.4727 -5.8916
  484MOL0     H65295  10.802   7.558   2.784  0.8690  0.6426  1.0173
  484MOL0     H65296  10.874   7.663   3.014  3.7393  0.9231 -1.6402
  484MOL0     H65297  10.935   7.515   2.945  0.3632 -0.5812  0.6336
  484MOL0     H65298  10.723   7.535   3.156  1.2991  0.3392  3.6449
  484MOL0     H65299  10.898   7.538   3.175 -1.4650 -0.4750  3.3220
  484MOL0     H65300  10.659   7.142   3.103 -0.9477 -0.1280  1.0362
  484MOL0     H65301  10.526   7.072   3.292 -2.7229  0.9406  3.4345
  484MOL0     H65302  10.590   6.925   3.762 -0.1026 -3.3435 -0.7165
  484MOL0     H65303  10.463   6.805   3.936 -2.8607 -2.0012 -0.2616
  484MOL0     H65304  10.243   7.026   4.077 -1.4991 -0.1964  0.5846
  484MOL0     H65305  10.090   6.943   4.122 -0.7233  2.2160 -0.2526
  484MOL0     H65306  10.279   6.758   4.193  0.2032 -0.4315  1.1030
  484MOL0     H65307  10.361   6.916   4.219 -0.3483  0.8737 -0.6511
  484MOL0     H65308  10.152   6.991   4.341  1.0983 -0.3381  4.3172
  484MOL0     H65309  10.081   6.820   4.316 -2.4886  1.3964  0.1966
  484MOL0     H65310  10.346   6.879   4.452 -1.0498  4.7099 -2.2356
  484MOL0     H65311  10.259   6.722   4.441  1.9853  0.0831  1.3114
  484MOL0     H65312  10.073   6.830   4.606 -0.3127  0.0842  1.4052
  484MOL0     H65313  10.201   6.947   4.628  0.5104 -0.0021  1.4859
  484MOL0     H65314  10.360   6.765   4.699 -0.1221  3.1263  0.5637
  484MOL0     H65315  10.231   6.791   4.800  3.5972 -1.5992  0.4640
  484MOL0     H65316  10.244   6.559   4.612  1.1822  0.3630 -1.0662
  484MOL0     H65317  10.107   6.599   4.718  0.4532  0.6228  2.3373
  484MOL0     H65318  10.298   6.435   4.823  2.5147  0.7856 -2.2350
  484MOL0     H65319  10.397   6.566   4.803  0.0343 -0.1276 -0.9948
  484MOL0     H65320  10.102   6.973   3.815  0.1465  1.2654 -1.0715
  484MOL0     H65321  10.199   7.045   3.608 -0.0182  1.7714  1.1869
  484MOL0     H65322  10.776   7.303   3.564  1.3852  2.3322 -1.6966
  484MOL0     H65323  10.895   7.390   3.375  2.0103 -2.5157  1.6737
  484MOL0     H65324  10.874   8.112   2.351 -1.9607  2.6271  0.4672
  484MOL0     H65325  11.111   8.110   2.267 -0.9374 -0.6092 -0.3203
  484MOL0     H65326  11.420   8.332   2.036 -0.4572  0.3949 -0.6417
  484MOL0     H65327  11.649   8.298   1.974 -2.3802  1.0656 -0.8092
  484MOL0     H65328  11.816   8.333   1.850  0.8127  0.4641  3.9236
  484MOL0     H65329  11.930   8.253   1.745  2.8394 -2.1066  1.5245
  484MOL0     H65330  11.871   8.161   2.025 -1.5769  0.6728 -0.8542
  484MOL0     H65331  12.028   8.209   1.937  1.1011 -2.0797 -1.0879
  484MOL0     H65332  12.003   7.988   1.826  0.0794 -2.0633  0.7323
  484MOL0     H65333  11.850   7.964   1.889  0.4703 -0.0475 -0.0944
  484MOL0     H65334  11.939   7.916   2.103 -1.0269  0.4638 -1.3027
  484MOL0     H65335  12.049   7.832   1.999  1.4264 -0.1392  2.2271
  484MOL0     H65336  12.318   8.112   2.157 -0.9758  1.7715 -0.4199
  484MOL0     H65337  11.539   8.014   1.680 -3.2691 -0.9084 -0.3122
  484MOL0     H65338  11.216   7.941   1.772 -2.8290  2.1378 -1.7036
  484MOL0     H65339  11.225   8.070   1.642 -2.4294 -2.3882 -0.6744
  484MOL0     H65340  11.335   7.923   1.650 -0.3944 -0.7959  0.3643
  485MOL0     O65341  11.139   2.619   0.575  0.4604 -0.6093 -0.2143
  485MOL0     C65342  11.196   2.690   0.488 -0.0660 -0.5415 -0.2427
  485MOL0     O65343  11.173   2.825   0.482  1.0498 -0.0382  0.1857
  485MOL0     C65344  11.074   2.885   0.561 -0.9011 -0.5963 -0.1986
  485MOL0     C65345  10.940   2.873   0.526  0.3274 -0.2867 -0.6403
  485MOL0     C65346  10.843   2.944   0.585  0.6783  0.3180 -0.2381
  485MOL0     C65347  10.882   3.034   0.681  0.0640 -0.6888  0.1380
  485MOL0     O65348  10.791   3.116   0.740  0.1153 -0.6763  0.7946
  485MOL0     C65349  10.656   3.067   0.751 -0.6165  0.2989  1.0482
  485MOL0     C65350  10.588   3.089   0.884 -0.5045  0.3248  0.6025
  485MOL0     C65351  10.647   2.979   0.981 -0.0707 -0.8166  0.0519
  485MOL0     C65352  10.798   3.001   1.016  0.8123 -0.0421  0.2330
  485MOL0     C65353  10.829   2.947   1.152 -0.2405  1.0805 -0.1455
  485MOL0     C65354  10.943   2.845   1.135  0.4834  0.2341  0.0097
  485MOL0     C65355  11.006   2.805   1.266  0.0325 -0.1352 -0.8737
  485MOL0     C65356  10.919   2.704   1.343  0.1228  0.3944 -0.0346
  485MOL0     N65357  10.988   2.663   1.470 -0.0489 -1.1047  0.0626
  485MOL0     C65358  10.987   2.747   1.579 -0.6490 -0.2973 -0.2698
  485MOL0     C65359  11.052   2.672   1.673 -0.2565  0.0177  0.8741
  485MOL0     C65360  11.060   2.717   1.815 -0.1737  0.3226 -0.3715
  485MOL0     C65361  11.137   2.620   1.913 -0.0266  0.1389  0.3448
  485MOL0     C65362  11.269   2.567   1.858  0.2604 -1.0218 -0.1031
  485MOL0     C65363  11.363   2.520   1.977  0.0419  0.3092 -0.5007
  485MOL0     O65364  11.308   2.409   2.051  0.0581 -0.0574 -0.0947
  485MOL0     C65365  11.303   2.285   1.994 -0.7728 -0.3270  0.5969
  485MOL0     C65366  11.351   2.256   1.869  0.5288 -0.2774  0.5797
  485MOL0     C65367  11.351   2.123   1.822  0.0816 -1.2320 -0.3005
  485MOL0     C65368  11.304   2.019   1.902 -0.0203 -0.4943 -0.6139
  485MOL0     C65369  11.314   1.876   1.842  0.4240  0.5710  0.5944
  485MOL0     O65370  11.247   1.788   1.910 -0.6310  0.4098  0.2592
  485MOL0     C65371  11.262   1.655   1.881  0.3266 -0.3652 -0.2552
  485MOL0     C65372  11.160   1.556   1.903 -0.6350  0.1680 -0.1691
  485MOL0     C65373  11.186   1.416   1.896 -0.0964 -0.3260 -0.0460
  485MOL0     C65374  11.312   1.374   1.872  0.5638 -1.0289  0.1224
  485MOL0     O65375  11.333   1.241   1.865  0.1360 -0.0642 -0.7944
  485MOL0     C65376  11.368   1.173   1.990 -1.0851  0.2252  0.1672
  485MOL0     C65377  11.261   1.066   2.015 -0.5046 -0.2222  0.3487
  485MOL0     C65378  11.254   0.960   1.902 -0.4197 -0.8206 -0.7723
  485MOL0     C65379  11.136   0.876   1.931 -0.8811 -0.0579 -0.0418
  485MOL0     C65380  11.140   0.744   1.842 -0.2046  0.0270  0.3056
  485MOL0     C65381  11.011   0.670   1.845  0.0902 -0.0587  0.9293
  485MOL0     C65382  10.997   0.548   1.753 -0.1162 -0.1916  0.1862
  485MOL0     C65383  10.851   0.500   1.740 -0.4796  0.2510 -0.8361
  485MOL0    Cl65384  10.791   0.438   1.900  0.0286  0.2035 -0.3586
  485MOL0     C65385  11.411   1.466   1.851  0.5067  0.9822 -0.4193
  485MOL0     C65386  11.395   1.604   1.859  1.1330  0.5994  0.2023
  485MOL0     O65387  11.345   1.858   1.723  0.2432 -0.4713  0.5111
  485MOL0     C65388  11.252   2.040   2.034  0.8227 -0.2274  0.3954
  485MOL0     C65389  11.243   2.176   2.070 -0.0930 -0.0927  0.2889
  485MOL0     N65390  11.092   2.549   1.611 -0.1819  0.6000  0.2505
  485MOL0     N65391  11.057   2.550   1.490  0.1945  0.1694 -0.9603
  485MOL0     C65392  11.008   3.057   0.731  0.2453 -0.6279  1.0852
  485MOL0     C65393  11.111   2.984   0.662  0.6620 -0.0798 -0.5893
  485MOL0     C65394  11.312   2.618   0.414  0.5251  1.6033 -0.0797
  485MOL0     C65395  11.308   2.477   0.390  0.6691 -0.5482 -0.8767
  485MOL0     C65396  11.410   2.408   0.319  0.4415  0.2216  0.2308
  485MOL0     C65397  11.529   2.466   0.283  0.3791 -0.3979 -0.0690
  485MOL0     O65398  11.619   2.388   0.212  0.3398 -0.8022 -0.8631
  485MOL0     C65399  11.749   2.428   0.178  0.3964  0.1738  0.0182
  485MOL0     C65400  11.813   2.322   0.080 -0.6217 -0.6766  0.4296
  485MOL0     C65401  11.854   2.190   0.133  0.4532  0.0508 -0.1045
  485MOL0     C65402  11.972   2.130   0.044  0.0690  0.4823 -0.3726
  485MOL0     C65403  11.917   2.110  -0.104  0.1615  0.2231  0.0740
  485MOL0     C65404  11.877   2.094  -0.217  0.6791  0.0337 -1.1930
  485MOL0     C65405  11.528   2.611   0.308 -0.3469  1.1351  0.6825
  485MOL0     C65406  11.428   2.682   0.368 -0.5230 -0.3526 -0.7635
  485MOL0     C65407  11.450   2.829   0.374 -0.0539 -0.2332  0.0162
  485MOL0     H65408  10.933   2.813   0.436  3.8206 -0.0366 -1.2041
  485MOL0     H65409  10.745   2.944   0.538  0.4700 -1.4831  0.1201
  485MOL0     H65410  10.605   3.109   0.664 -1.1253 -2.4246 -0.0830
  485MOL0     H65411  10.653   2.958   0.739  0.2853  0.0928  2.4407
  485MOL0     H65412  10.481   3.069   0.882 -0.3620 -0.5432  1.0459
  485MOL0     H65413  10.606   3.188   0.928 -1.4589  0.6151  0.3447
  485MOL0     H65414  10.637   2.879   0.938  4.9114 -1.9219  0.8018
  485MOL0     H65415  10.590   2.973   1.074 -0.9308 -3.5084 -0.5666
  485MOL0     H65416  10.862   2.973   0.932 -1.3826 -3.0748 -0.5893
  485MOL0     H65417  10.816   3.108   1.031  0.5926 -0.0934  0.8835
  485MOL0     H65418  10.857   3.034   1.212  0.5633  1.9284 -1.6711
  485MOL0     H65419  10.739   2.919   1.207 -2.5768  2.9470 -2.7365
  485MOL0     H65420  10.908   2.760   1.075  0.1513  1.6861 -1.9757
  485MOL0     H65421  11.025   2.888   1.078 -0.5009  3.1035  0.5888
  485MOL0     H65422  11.021   2.896   1.325  0.4405 -0.9322  0.2886
  485MOL0     H65423  11.111   2.780   1.250 -0.5083 -2.1720 -1.6082
  485MOL0     H65424  10.825   2.757   1.357  0.2702  1.2905 -1.9718
  485MOL0     H65425  10.898   2.614   1.285 -2.5664  0.3824  0.8551
  485MOL0     H65426  10.942   2.844   1.600  0.0632 -0.3293  1.6845
  485MOL0     H65427  11.121   2.807   1.808  1.9431 -1.1342 -1.6036
  485MOL0     H65428  10.961   2.733   1.860  0.3240 -0.1528  0.9615
  485MOL0     H65429  11.159   2.685   1.998  4.6851  0.1213 -0.6089
  485MOL0     H65430  11.070   2.540   1.946  2.7412 -1.1582  3.2662
  485MOL0     H65431  11.320   2.647   1.804 -2.7528  0.6045 -0.7275
  485MOL0     H65432  11.254   2.485   1.787  2.7497  1.4411 -3.8844
  485MOL0     H65433  11.396   2.601   2.042  3.7107 -1.7436  0.4891
  485MOL0     H65434  11.456   2.486   1.932  1.2117  1.3423  1.0682
  485MOL0     H65435  11.398   2.333   1.810  2.3204 -1.7630 -0.0252
  485MOL0     H65436  11.399   2.103   1.726  0.8951  0.3726 -0.2648
  485MOL0     H65437  11.067   1.589   1.947  0.1795  1.2159  0.8310
  485MOL0     H65438  11.102   1.349   1.914  0.0679 -0.1394  1.6578
  485MOL0     H65439  11.473   1.142   1.986 -0.8906  0.6666  1.3183
  485MOL0     H65440  11.373   1.246   2.072  0.4696  3.2104 -2.3546
  485MOL0     H65441  11.285   1.020   2.112  4.8892 -1.1565 -1.1218
  485MOL0     H65442  11.170   1.126   2.025  0.3818  1.2543 -0.0813
  485MOL0     H65443  11.246   1.010   1.805 -1.8718 -0.2295 -0.3810
  485MOL0     H65444  11.342   0.896   1.910 -1.3381 -1.9954  0.5486
  485MOL0     H65445  11.035   0.918   1.918 -0.4930  1.5891  1.8462
  485MOL0     H65446  11.130   0.848   2.036  0.2272 -2.0725 -0.4729
  485MOL0     H65447  11.221   0.676   1.868 -0.7672 -0.7206  0.1326
  485MOL0     H65448  11.144   0.773   1.736  3.7827  2.2254  0.8584
  485MOL0     H65449  11.000   0.635   1.948  3.2544 -0.7269  1.1520
  485MOL0     H65450  10.942   0.751   1.822 -1.2390 -0.7572  2.3005
  485MOL0     H65451  11.061   0.468   1.792  0.1504 -0.1576 -0.1815
  485MOL0     H65452  11.029   0.587   1.656 -1.8899  4.0697  1.0976
  485MOL0     H65453  10.785   0.565   1.681  2.1949  3.9391 -0.1359
  485MOL0     H65454  10.852   0.407   1.683 -1.2575  1.6624 -3.3100
  485MOL0     H65455  11.511   1.431   1.826  0.8606  1.4061  0.3905
  485MOL0     H65456  11.484   1.666   1.856  1.0973  0.7133 -3.5969
  485MOL0     H65457  11.205   1.965   2.097  1.7672 -2.4996 -1.4714
  485MOL0     H65458  11.196   2.217   2.158  0.9728  1.7005  0.0638
  485MOL0     H65459  11.036   3.136   0.800  1.0951  0.7013 -0.6954
  485MOL0     H65460  11.216   2.995   0.686  0.9042 -3.4814  0.3312
  485MOL0     H65461  11.214   2.430   0.415  0.2648  0.1465 -1.0644
  485MOL0     H65462  11.378   2.310   0.286  2.2689  0.2618 -1.8914
  485MOL0     H65463  11.820   2.433   0.261  3.2645  1.7500 -2.3228
  485MOL0     H65464  11.761   2.523   0.124 -4.0132 -0.6729 -2.9343
  485MOL0     H65465  11.905   2.364   0.038  0.2752 -1.3489  1.6755
  485MOL0     H65466  11.756   2.323  -0.014 -0.9761 -1.8579  0.6200
  485MOL0     H65467  11.762   2.131   0.127  0.6972 -0.5256  1.3803
  485MOL0     H65468  11.878   2.192   0.239  0.6280 -1.1241 -0.1004
  485MOL0     H65469  12.050   2.204   0.061  0.2539  0.7816 -2.2832
  485MOL0     H65470  12.010   2.037   0.086 -2.3947 -1.3109 -1.8072
  485MOL0     H65471  11.841   2.094  -0.318  0.4033  1.1362 -1.1030
  485MOL0     H65472  11.604   2.663   0.250 -0.2607 -1.4451 -1.7289
  485MOL0     H65473  11.430   2.879   0.469  1.3106  3.7283 -1.5595
  485MOL0     H65474  11.557   2.845   0.358 -0.4621  1.9620 -0.9118
  485MOL0     H65475  11.391   2.884   0.300 -1.5216 -0.2439  1.1521
  486MOL0     O65476   9.025   6.522  10.191 -0.2160  0.6364 -0.0670
  486MOL0     C65477   9.113   6.440  10.175  0.8077 -0.2166  0.1764
  486MOL0     O65478   9.242   6.472  10.161 -0.0985  0.3419 -0.4901
  486MOL0     C65479   9.291   6.597  10.156  0.5975 -0.2468  0.0316
  486MOL0     C65480   9.234   6.683  10.062 -0.7891  0.5164  0.0702
  486MOL0     C65481   9.306   6.796  10.030 -0.5952  0.7665 -0.2885
  486MOL0     C65482   9.435   6.829  10.086  0.0495 -0.2984 -0.8786
  486MOL0     O65483   9.494   6.936  10.033 -0.7705 -0.0927  0.2208
  486MOL0     C65484   9.618   6.992  10.093 -0.2736 -0.4324  0.7355
  486MOL0     C65485   9.632   7.143  10.058 -0.4865 -0.4433 -0.0214
  486MOL0     C65486   9.763   7.203  10.105  0.2361  0.2242 -0.3355
  486MOL0     C65487   9.789   7.201  10.257 -0.7852 -0.1112  0.0549
  486MOL0     C65488   9.920   7.281  10.290  0.3581  0.1884  0.6310
  486MOL0     C65489   9.899   7.382  10.405  0.3262  0.8283  0.2919
  486MOL0     C65490  10.026   7.440  10.456 -0.0457  0.5492 -0.3155
  486MOL0     C65491  10.119   7.346  10.529  0.5272 -0.5127  0.1630
  486MOL0     N65492  10.053   7.237  10.601  0.3434 -0.4611  0.1082
  486MOL0     C65493  10.012   7.253  10.730  0.5149  0.1289 -0.4111
  486MOL0     C65494   9.949   7.132  10.750 -0.6444 -0.4454  0.3013
  486MOL0     C65495   9.851   7.118  10.860  0.4166  0.2959  0.6732
  486MOL0     C65496   9.887   6.983  10.934  0.9685  0.1415  1.1552
  486MOL0     C65497   9.800   6.956  11.058 -0.2984  0.6746 -0.1923
  486MOL0     C65498   9.860   6.854  11.163  0.4342  0.4574  0.7258
  486MOL0     O65499   9.861   6.729  11.079  0.6447 -0.0922  0.1457
  486MOL0     C65500   9.979   6.657  11.077  1.1829 -0.3365 -0.5814
  486MOL0     C65501  10.058   6.637  11.192  1.0867 -0.8524  0.8779
  486MOL0     C65502  10.163   6.546  11.181 -0.0253 -0.2282 -0.7662
  486MOL0     C65503  10.203   6.483  11.060 -0.3864 -0.1035  0.2350
  486MOL0     C65504  10.318   6.378  11.052 -0.4364 -0.1925  0.0712
  486MOL0     O65505  10.364   6.322  11.173  0.3347  0.2150  0.7447
  486MOL0     C65506  10.428   6.194  11.162 -0.2866 -0.0444  0.6581
  486MOL0     C65507  10.338   6.087  11.126 -0.3215  0.2259  0.3041
  486MOL0     C65508  10.380   5.950  11.130 -0.5156 -0.2950 -0.5562
  486MOL0     C65509  10.522   5.919  11.144 -0.7760  0.2927 -0.7064
  486MOL0     O65510  10.581   5.795  11.157 -0.2681 -0.4810  0.5603
  486MOL0     C65511  10.526   5.699  11.070  0.1779 -0.0391  0.3463
  486MOL0     C65512  10.605   5.566  11.071  0.6143 -0.0448  0.3006
  486MOL0     C65513  10.521   5.450  11.005 -0.1553  0.2606  1.2402
  486MOL0     C65514  10.560   5.309  11.042 -0.3549  0.7795  0.2663
  486MOL0     C65515  10.456   5.204  11.000  0.6963 -0.4326 -0.0520
  486MOL0     C65516  10.531   5.076  10.961 -0.5135 -0.2804  0.1907
  486MOL0     C65517  10.439   4.955  10.966  0.0019 -0.4912 -0.2509
  486MOL0     C65518  10.514   4.821  10.934 -0.2261 -0.7363  0.1878
  486MOL0    Cl65519  10.609   4.767  11.072 -0.0453  0.4759 -0.1094
  486MOL0     C65520  10.603   6.032  11.160  0.8178  0.5513 -0.2131
  486MOL0     C65521  10.562   6.162  11.182 -0.2454  0.1351  0.5615
  486MOL0     O65522  10.363   6.338  10.946 -0.0273 -0.1228 -0.0061
  486MOL0     C65523  10.129   6.508  10.943 -0.4022 -0.5718  0.3984
  486MOL0     C65524  10.021   6.595  10.959  0.3062  0.3312 -0.0366
  486MOL0     N65525   9.965   7.054  10.631 -0.7739 -0.4233  0.2568
  486MOL0     N65526  10.038   7.117  10.549 -0.2855 -0.0764 -0.4801
  486MOL0     C65527   9.473   6.747  10.194 -0.5353  0.9390  0.0227
  486MOL0     C65528   9.404   6.629  10.219  0.0320  1.3810 -0.2397
  486MOL0     C65529   9.085   6.287  10.146 -0.2383 -0.9729  0.4713
  486MOL0     C65530   9.193   6.196  10.106  0.4853 -0.4942 -0.7724
  486MOL0     C65531   9.162   6.061  10.084  0.1897  0.1472 -0.3894
  486MOL0     C65532   9.044   6.006  10.122  0.7198 -0.5537  0.8339
  486MOL0     O65533   9.038   5.875  10.092  0.2128  0.1198  0.5351
  486MOL0     C65534   8.911   5.815  10.068  0.4350 -1.1529  0.7227
  486MOL0     C65535   8.911   5.757   9.924  0.7707 -0.8828  0.9666
  486MOL0     C65536   8.942   5.861   9.820 -0.2533  0.7963 -0.3229
  486MOL0     C65537   8.980   5.803   9.682  0.5370 -0.3264 -0.2104
  486MOL0     C65538   8.979   5.911   9.578  0.4440  0.2397 -1.2687
  486MOL0     C65539   8.978   5.996   9.491 -0.8084 -0.2950  0.0104
  486MOL0     C65540   8.945   6.093  10.168 -0.5200 -0.2805 -0.7832
  486MOL0     C65541   8.958   6.228  10.177 -0.5805  1.1414  0.6474
  486MOL0     C65542   8.825   6.291  10.213 -0.1043 -0.9626 -0.4910
  486MOL0     H65543   9.136   6.682  10.015 -1.7863 -0.7228  2.0363
  486MOL0     H65544   9.268   6.874   9.966 -5.0802 -1.5465 -0.8047
  486MOL0     H65545   9.635   6.983  10.201  2.2021 -3.0743  0.2610
  486MOL0     H65546   9.702   6.932  10.056 -1.9390 -0.9326 -2.5809
  486MOL0     H65547   9.545   7.183  10.111 -0.4145  0.4189 -0.5314
  486MOL0     H65548   9.627   7.165   9.950  1.2255  2.2138  0.3534
  486MOL0     H65549   9.753   7.307  10.072 -1.8667  0.1416 -0.1243
  486MOL0     H65550   9.853   7.159  10.062 -0.0044 -0.4642 -0.1547
  486MOL0     H65551   9.697   7.229  10.310 -0.7010 -2.8456  1.8952
  486MOL0     H65552   9.802   7.099  10.295 -2.6241 -0.5411 -0.4044
  486MOL0     H65553   9.994   7.205  10.315 -0.6100 -1.6823 -1.8164
  486MOL0     H65554   9.949   7.337  10.200 -2.1018 -0.7758 -0.8456
  486MOL0     H65555   9.818   7.455  10.397  0.6486  1.2150  0.5236
  486MOL0     H65556   9.870   7.314  10.486  0.3785 -1.0138 -1.1652
  486MOL0     H65557   9.996   7.521  10.523 -1.7626  0.2761 -0.6918
  486MOL0     H65558  10.077   7.488  10.372 -2.7713  0.7380 -1.9874
  486MOL0     H65559  10.195   7.308  10.461 -1.1161  0.0857 -2.1407
  486MOL0     H65560  10.183   7.406  10.594  2.7033  0.1877 -2.4237
  486MOL0     H65561   9.996   7.344  10.787 -0.7597 -1.0476  1.2149
  486MOL0     H65562   9.872   7.193  10.937  5.2820  0.3903 -0.4515
  486MOL0     H65563   9.748   7.120  10.824  0.6890  1.6499 -0.1067
  486MOL0     H65564   9.861   6.908  10.859  0.4839  0.9540  0.5003
  486MOL0     H65565   9.994   6.975  10.960  1.8669 -1.1270 -2.3933
  486MOL0     H65566   9.704   6.923  11.018 -0.5372 -2.3795  2.4765
  486MOL0     H65567   9.779   7.051  11.107  0.3089  1.4125 -1.3196
  486MOL0     H65568   9.788   6.843  11.244 -1.8728 -2.1199 -1.4173
  486MOL0     H65569   9.961   6.879  11.197  0.6785 -0.2542  0.5519
  486MOL0     H65570  10.029   6.687  11.285 -0.5955 -0.1135  0.0081
  486MOL0     H65571  10.222   6.537  11.272 -0.1552  3.3881 -0.1568
  486MOL0     H65572  10.235   6.117  11.111 -0.9560  0.4511  4.1054
  486MOL0     H65573  10.311   5.869  11.110  0.4570 -1.7506  1.5907
  486MOL0     H65574  10.425   5.671  11.100  0.1593 -1.2371 -0.7240
  486MOL0     H65575  10.527   5.744  10.971 -1.2004  2.9975  1.5858
  486MOL0     H65576  10.703   5.578  11.023  1.8893 -3.7889  1.5948
  486MOL0     H65577  10.628   5.545  11.175 -0.1632  1.8225  0.8905
  486MOL0     H65578  10.418   5.453  11.042  0.5553  1.1859  3.2844
  486MOL0     H65579  10.524   5.459  10.896 -2.0427  1.9643  1.2595
  486MOL0     H65580  10.573   5.298  11.150  0.2850 -0.1042  0.1114
  486MOL0     H65581  10.655   5.279  10.996  0.3998  0.0196  2.2227
  486MOL0     H65582  10.388   5.243  10.924 -0.0911  2.6717  2.0366
  486MOL0     H65583  10.408   5.165  11.090  3.9349  0.6858  2.3196
  486MOL0     H65584  10.573   5.077  10.860 -1.8480  1.3832 -0.4057
  486MOL0     H65585  10.602   5.055  11.042 -2.4481 -0.6533  1.8848
  486MOL0     H65586  10.359   4.963  10.892  2.2017 -0.1293 -2.7250
  486MOL0     H65587  10.401   4.934  11.066 -3.0061  1.7364 -0.8012
  486MOL0     H65588  10.444   4.744  10.900  0.0661 -0.2274 -1.6427
  486MOL0     H65589  10.572   4.852  10.847 -1.1093  0.2821 -0.0570
  486MOL0     H65590  10.709   6.008  11.162  0.3455 -1.8339  1.3884
  486MOL0     H65591  10.628   6.246  11.202 -2.4141  2.1808 -0.3785
  486MOL0     H65592  10.154   6.453  10.853  1.4786  1.5191 -0.4210
  486MOL0     H65593   9.952   6.597  10.876 -1.9773 -1.1850  1.7003
  486MOL0     H65594   9.564   6.776  10.246 -0.0771 -0.1487 -0.1358
  486MOL0     H65595   9.442   6.554  10.287 -3.4652 -2.0775 -1.7478
  486MOL0     H65596   9.297   6.226  10.099  1.9494 -4.5475  0.7513
  486MOL0     H65597   9.241   6.005  10.035 -0.4781 -1.0368 -0.1299
  486MOL0     H65598   8.828   5.886  10.079 -0.1572 -0.8985 -3.7202
  486MOL0     H65599   8.898   5.732  10.139 -0.4097 -0.3702  1.5108
  486MOL0     H65600   8.820   5.701   9.900 -1.4618  2.4461  0.9558
  486MOL0     H65601   8.998   5.692   9.930  1.1796 -0.4112  0.3074
  486MOL0     H65602   9.021   5.926   9.860  1.3811 -1.3372  0.1082
  486MOL0     H65603   8.850   5.921   9.814 -1.1742  0.0333  3.3788
  486MOL0     H65604   9.080   5.762   9.667  2.0704  3.2275 -0.7843
  486MOL0     H65605   8.910   5.724   9.654 -2.1061  0.7175  2.7892
  486MOL0     H65606   8.969   6.083   9.429 -2.8445 -1.1631 -0.9701
  486MOL0     H65607   8.863   6.041  10.215 -0.4771 -0.0797 -0.4858
  486MOL0     H65608   8.746   6.242  10.156 -1.3750  2.8579 -2.3439
  486MOL0     H65609   8.830   6.294  10.322  0.7640  0.5959 -0.5479
  486MOL0     H65610   8.812   6.395  10.183 -0.1417 -0.5041  1.0296
  487MOL0     O65611   2.254   0.469   6.921 -0.4214 -0.6375 -0.5334
  487MOL0     C65612   2.351   0.418   6.868  0.2428  0.4177  0.0115
  487MOL0     O65613   2.468   0.410   6.933 -0.7703 -0.0492  0.3434
  487MOL0     C65614   2.554   0.312   6.903  0.5134  0.2108 -0.5286
  487MOL0     C65615   2.522   0.185   6.856 -0.3984  0.2342 -0.4028
  487MOL0     C65616   2.625   0.102   6.813  0.7279  0.5748 -0.7979
  487MOL0     C65617   2.759   0.142   6.802 -0.4068  1.1633 -0.8632
  487MOL0     O65618   2.857   0.053   6.774  0.4187 -0.6228  0.0679
  487MOL0     C65619   2.906  -0.014   6.894  0.7576 -0.7717  0.0712
  487MOL0     C65620   3.028   0.049   6.951 -0.8008  0.5494 -0.6923
  487MOL0     C65621   3.136   0.062   6.844 -0.0513  0.5855 -0.2019
  487MOL0     C65622   3.266   0.012   6.903  0.3614 -0.1439 -0.3756
  487MOL0     C65623   3.387   0.027   6.804  0.4150 -0.6383 -0.5521
  487MOL0     C65624   3.519   0.063   6.877  0.3111  0.7837  0.1469
  487MOL0     C65625   3.580  -0.065   6.935 -0.3468  0.4928 -1.1486
  487MOL0     C65626   3.708  -0.040   7.005 -0.3884 -0.0317  0.2986
  487MOL0     N65627   3.811  -0.028   6.898 -0.6658  0.3038  0.2361
  487MOL0     C65628   3.801  -0.050   6.756 -1.1518  0.3818 -1.3170
  487MOL0     C65629   3.924  -0.021   6.702 -1.1333  0.5779  0.5523
  487MOL0     C65630   3.975  -0.046   6.568 -0.4988  0.0918  0.0260
  487MOL0     C65631   4.040  -0.179   6.567 -0.6498  0.0097  0.1950
  487MOL0     C65632   4.148  -0.195   6.451 -0.2782  0.2819 -0.9380
  487MOL0     C65633   4.123  -0.328   6.388 -0.0280  0.1479  0.5784
  487MOL0     O65634   4.157  -0.435   6.473  0.0113  0.5776 -0.1643
  487MOL0     C65635   4.156  -0.562   6.411  0.9031 -0.8103  0.0942
  487MOL0     C65636   4.153  -0.590   6.278  0.1124 -0.1488  0.5511
  487MOL0     C65637   4.162  -0.715   6.226 -0.1445  0.2543 -0.2760
  487MOL0     C65638   4.168  -0.821   6.312  0.3203 -0.4452 -0.0107
  487MOL0     C65639   4.186  -0.961   6.267 -0.6146  0.9571  0.1622
  487MOL0     O65640   4.207  -0.979   6.133 -0.0160 -0.3464  0.0515
  487MOL0     C65641   4.258  -1.092   6.083  0.3681  0.4874 -0.7513
  487MOL0     C65642   4.372  -1.080   6.010 -0.5860 -0.2051 -1.2401
  487MOL0     C65643   4.459  -1.191   5.992  0.0524  0.1098 -0.6266
  487MOL0     C65644   4.426  -1.318   6.047 -0.7501 -0.8926 -0.5399
  487MOL0     O65645   4.513  -1.428   6.028  0.0587 -0.4773  0.0639
  487MOL0     C65646   4.509  -1.530   6.126 -0.0628 -0.6387  1.1451
  487MOL0     C65647   4.424  -1.640   6.069 -0.5345 -0.0391  0.3573
  487MOL0     C65648   4.497  -1.728   5.955  0.4117 -0.7645  0.6745
  487MOL0     C65649   4.411  -1.843   5.903  0.0358 -0.2958 -0.5477
  487MOL0     C65650   4.476  -1.926   5.789 -0.3605 -1.0581  0.6502
  487MOL0     C65651   4.443  -1.869   5.646 -0.1812  0.2756 -0.5328
  487MOL0     C65652   4.510  -1.951   5.536 -0.1188  0.4270  0.5297
  487MOL0     C65653   4.438  -2.090   5.501 -0.0289 -0.2619  0.6652
  487MOL0    Cl65654   4.474  -2.233   5.600 -0.1977 -0.6624 -0.2073
  487MOL0     C65655   4.311  -1.333   6.118 -0.0392 -0.1521 -0.4646
  487MOL0     C65656   4.219  -1.224   6.125 -0.0836  0.0697 -0.1529
  487MOL0     O65657   4.203  -1.048   6.352 -0.5659 -0.0321 -0.4123
  487MOL0     C65658   4.163  -0.791   6.450  0.2962  0.6436  0.1632
  487MOL0     C65659   4.160  -0.662   6.506 -0.5059  0.2353  0.8089
  487MOL0     N65660   4.005   0.016   6.798 -0.0121 -0.2905 -0.4255
  487MOL0     N65661   3.937   0.041   6.905  0.1008 -0.5763  0.3095
  487MOL0     C65662   2.790   0.271   6.845  0.0768 -0.2687 -0.1254
  487MOL0     C65663   2.683   0.353   6.884  0.9585 -0.6816  0.1145
  487MOL0     C65664   2.334   0.379   6.729  0.2972 -0.0560  0.2423
  487MOL0     C65665   2.417   0.436   6.633 -1.2754 -0.6713  0.5655
  487MOL0     C65666   2.388   0.429   6.496 -0.5650 -0.9696 -0.6239
  487MOL0     C65667   2.282   0.355   6.455  0.5781  0.2698  0.4075
  487MOL0     O65668   2.242   0.340   6.325 -0.4961  0.7428  0.1355
  487MOL0     C65669   2.313   0.398   6.216 -0.0167  1.0392  0.1181
  487MOL0     C65670   2.304   0.307   6.089  0.6234  0.4675  0.0077
  487MOL0     C65671   2.156   0.293   6.045  0.9418  0.8627  0.7441
  487MOL0     C65672   2.112   0.436   5.992  0.3922 -0.1919  0.5599
  487MOL0     C65673   1.987   0.419   5.919 -1.3686 -0.7299  0.3632
  487MOL0     C65674   1.883   0.415   5.859  0.0174 -0.5696  0.7196
  487MOL0     C65675   2.199   0.287   6.555  0.2144 -0.6253 -0.0312
  487MOL0     C65676   2.224   0.298   6.692 -0.9819 -0.3261  1.3703
  487MOL0     C65677   2.131   0.222   6.783 -0.0796 -0.0897 -0.4815
  487MOL0     H65678   2.417   0.156   6.860  0.2915 -2.3543  3.4373
  487MOL0     H65679   2.602   0.010   6.758  0.0953  0.9229 -1.1354
  487MOL0     H65680   2.835  -0.017   6.977 -0.0949 -0.0487 -0.6055
  487MOL0     H65681   2.928  -0.118   6.871  2.8820 -0.8225  2.0039
  487MOL0     H65682   3.072   0.002   7.039  3.0722 -0.1829 -2.7811
  487MOL0     H65683   3.000   0.154   6.969 -1.1249  1.3857 -4.9766
  487MOL0     H65684   3.158   0.165   6.817 -3.2395  1.2584 -0.5738
  487MOL0     H65685   3.111   0.007   6.753  0.5207 -1.9229  1.0430
  487MOL0     H65686   3.281   0.063   6.998 -1.2678 -1.4366  0.6290
  487MOL0     H65687   3.252  -0.093   6.929 -0.1211 -0.1517 -0.6561
  487MOL0     H65688   3.387  -0.065   6.744 -0.5040  0.7250 -2.7993
  487MOL0     H65689   3.365   0.114   6.742  1.9758  0.6050  0.5728
  487MOL0     H65690   3.581   0.105   6.797  0.4483  1.7444  0.7501
  487MOL0     H65691   3.504   0.134   6.959 -0.9538  0.3496  0.3093
  487MOL0     H65692   3.579  -0.150   6.866  0.5808  0.8485 -1.6114
  487MOL0     H65693   3.506  -0.089   7.012 -1.1445  1.4235 -1.5978
  487MOL0     H65694   3.714   0.049   7.068  1.1136 -0.4789  0.8288
  487MOL0     H65695   3.737  -0.125   7.067  4.5574  0.6987 -0.5844
  487MOL0     H65696   3.719  -0.098   6.704 -2.2755  2.5654 -1.6449
  487MOL0     H65697   3.898  -0.051   6.490  0.4670  0.8705 -1.0113
  487MOL0     H65698   4.049   0.033   6.553 -2.2631  2.4571  2.8299
  487MOL0     H65699   4.086  -0.205   6.662 -2.6944 -0.7510  1.0254
  487MOL0     H65700   3.962  -0.255   6.555 -1.2096  0.9406 -3.0388
  487MOL0     H65701   4.246  -0.190   6.499 -0.4337 -0.8710 -0.4758
  487MOL0     H65702   4.136  -0.109   6.384  1.1421  1.9401  0.8109
  487MOL0     H65703   4.175  -0.330   6.291  1.7840 -0.8506  1.5288
  487MOL0     H65704   4.015  -0.326   6.373  0.1345  1.1911 -0.6778
  487MOL0     H65705   4.157  -0.506   6.209  0.9534  0.7412  1.6589
  487MOL0     H65706   4.151  -0.731   6.119  2.1403  0.3985 -0.5756
  487MOL0     H65707   4.407  -0.984   5.975 -0.5926  0.9824  1.7343
  487MOL0     H65708   4.558  -1.189   5.946  0.1751  3.1199 -0.4692
  487MOL0     H65709   4.603  -1.572   6.162 -0.3712 -1.2588  1.2582
  487MOL0     H65710   4.467  -1.487   6.218 -2.5528 -0.7570  0.1626
  487MOL0     H65711   4.394  -1.703   6.154 -1.1199  0.2524  0.3759
  487MOL0     H65712   4.336  -1.597   6.021  0.3484 -0.0576 -1.3230
  487MOL0     H65713   4.530  -1.672   5.867  0.2038 -2.9249 -0.8442
  487MOL0     H65714   4.592  -1.771   5.987  1.2660  0.6210  0.1083
  487MOL0     H65715   4.305  -1.819   5.888  0.1421  0.1560 -0.5821
  487MOL0     H65716   4.413  -1.914   5.987  0.9428 -1.3596 -1.4459
  487MOL0     H65717   4.439  -2.029   5.787  1.6375 -1.9203 -3.8233
  487MOL0     H65718   4.584  -1.914   5.807 -0.6882  5.6551  0.5183
  487MOL0     H65719   4.336  -1.886   5.639 -0.5774 -1.0201  4.5261
  487MOL0     H65720   4.469  -1.765   5.623 -1.2943  0.2610 -2.0077
  487MOL0     H65721   4.614  -1.970   5.562 -0.6428 -2.3284  0.9395
  487MOL0     H65722   4.505  -1.888   5.446 -1.8393  0.4997  0.6479
  487MOL0     H65723   4.330  -2.078   5.505 -0.0049  1.1582 -1.4167
  487MOL0     H65724   4.462  -2.111   5.396  0.5622 -2.8718  1.2531
  487MOL0     H65725   4.275  -1.420   6.172 -0.2871  1.7013  2.5419
  487MOL0     H65726   4.119  -1.241   6.164  0.4549 -1.1297  0.7768
  487MOL0     H65727   4.181  -0.877   6.514  2.9581  0.6830 -0.4468
  487MOL0     H65728   4.167  -0.639   6.612 -0.3008  0.3007  0.7811
  487MOL0     H65729   2.892   0.306   6.851 -1.3452  5.5481 -2.8623
  487MOL0     H65730   2.696   0.454   6.923  2.1249 -1.3418  1.5418
  487MOL0     H65731   2.506   0.486   6.670 -0.7743 -0.4054 -0.9227
  487MOL0     H65732   2.436   0.501   6.431 -0.5990  0.3635  0.7765
  487MOL0     H65733   2.417   0.414   6.246  0.4370 -2.9726  1.2375
  487MOL0     H65734   2.267   0.494   6.192 -1.1719  0.7934  1.2174
  487MOL0     H65735   2.342   0.206   6.112  1.9066  1.3933  2.2728
  487MOL0     H65736   2.354   0.349   6.001  0.4931 -2.6117 -1.6829
  487MOL0     H65737   2.087   0.267   6.126 -0.4636 -0.2339 -0.7468
  487MOL0     H65738   2.154   0.217   5.967 -1.8302  2.9379 -1.4393
  487MOL0     H65739   2.084   0.508   6.069  1.1227 -0.3695  1.0051
  487MOL0     H65740   2.195   0.480   5.935 -1.9093  0.7032 -2.3457
  487MOL0     H65741   1.785   0.401   5.817  0.0734 -0.4956  0.5613
  487MOL0     H65742   2.107   0.251   6.509  0.3526 -3.5444  1.7127
  487MOL0     H65743   2.051   0.285   6.824  0.2600 -1.2719  2.1563
  487MOL0     H65744   2.097   0.130   6.736  2.7265 -0.3674 -2.1941
  487MOL0     H65745   2.195   0.190   6.865  1.2199 -3.9773 -2.7698
  488MOL0     O65746   5.964   5.443   1.620  0.5823  0.2566 -0.8090
  488MOL0     C65747   6.027   5.514   1.542  0.8415  0.7060  0.1098
  488MOL0     O65748   6.043   5.642   1.544  0.6434 -0.0244 -0.5176
  488MOL0     C65749   5.981   5.704   1.655 -0.2863  0.4698  0.4177
  488MOL0     C65750   5.849   5.739   1.669  0.5549 -0.7692  1.2741
  488MOL0     C65751   5.793   5.787   1.795  0.8726 -0.6327  0.8237
  488MOL0     C65752   5.869   5.784   1.910  0.0448 -0.0358 -0.1455
  488MOL0     O65753   5.819   5.804   2.041  0.1453 -1.1457  0.0499
  488MOL0     C65754   5.676   5.815   2.054  0.4152 -0.5767 -0.0729
  488MOL0     C65755   5.639   5.782   2.204  0.4004  0.5270 -0.0684
  488MOL0     C65756   5.485   5.750   2.215 -0.2656  1.1272  1.2869
  488MOL0     C65757   5.412   5.873   2.167  1.1891 -1.7260 -0.2067
  488MOL0     C65758   5.257   5.850   2.194  0.2087 -0.4870  0.0273
  488MOL0     C65759   5.171   5.945   2.105  0.4412 -0.2754  0.6203
  488MOL0     C65760   5.019   5.913   2.115  1.3692 -0.2737 -0.7526
  488MOL0     C65761   4.984   5.791   2.025 -0.6585 -0.7077 -0.8125
  488MOL0     N65762   4.867   5.718   2.052  0.6721  0.1468 -0.2939
  488MOL0     C65763   4.811   5.613   1.985  0.3736 -0.6051 -0.5701
  488MOL0     C65764   4.704   5.574   2.065 -0.1175 -0.9658  0.0472
  488MOL0     C65765   4.628   5.444   2.049 -0.5465  0.9137  0.6879
  488MOL0     C65766   4.597   5.404   2.190 -0.4363  0.7162  0.3822
  488MOL0     C65767   4.555   5.259   2.205  0.0068 -0.0974  0.2692
  488MOL0     C65768   4.655   5.159   2.146 -1.1848 -0.5411  0.7712
  488MOL0     O65769   4.587   5.034   2.165 -0.1712 -0.4859 -0.5064
  488MOL0     C65770   4.653   4.916   2.166 -0.2594 -0.2004 -0.5927
  488MOL0     C65771   4.788   4.897   2.140 -0.6650 -0.1029  0.8717
  488MOL0     C65772   4.853   4.771   2.136 -0.0683  0.7403  0.6570
  488MOL0     C65773   4.775   4.661   2.185  0.1133 -0.8935  0.6784
  488MOL0     C65774   4.826   4.521   2.177 -0.1667  0.4283  0.5611
  488MOL0     O65775   4.732   4.423   2.216 -0.2231  0.7269 -0.0372
  488MOL0     C65776   4.775   4.290   2.202 -0.7259 -0.0789  0.6384
  488MOL0     C65777   4.728   4.202   2.300 -0.8601  0.5106  0.4463
  488MOL0     C65778   4.743   4.061   2.285 -1.1907  0.3477  0.3239
  488MOL0     C65779   4.820   4.000   2.180  0.7511 -0.6127  0.4087
  488MOL0     O65780   4.844   3.868   2.157  0.3982 -0.0390 -0.5815
  488MOL0     C65781   4.896   3.796   2.269  0.7081  0.4615 -0.0219
  488MOL0     C65782   4.877   3.651   2.254 -0.4113 -0.1128  0.7799
  488MOL0     C65783   4.738   3.614   2.318 -0.3074  0.1994 -0.3525
  488MOL0     C65784   4.659   3.525   2.215 -0.1934  1.1135 -0.1144
  488MOL0     C65785   4.551   3.461   2.287 -0.1784  1.2499 -0.3157
  488MOL0     C65786   4.455   3.405   2.185 -0.6933  0.4660 -0.8820
  488MOL0     C65787   4.334   3.338   2.250  0.6285 -0.0555  0.4218
  488MOL0     C65788   4.250   3.270   2.143 -0.0280  1.1535  0.0688
  488MOL0    Cl65789   4.174   3.390   2.038  0.5011 -0.1198  0.5300
  488MOL0     C65790   4.874   4.087   2.093  0.4094 -0.2308 -0.5176
  488MOL0     C65791   4.853   4.234   2.097  0.4547  0.4748 -0.3878
  488MOL0     O65792   4.931   4.499   2.118  0.2110  0.4390  0.4299
  488MOL0     C65793   4.643   4.683   2.233 -0.8963 -0.7063  0.5893
  488MOL0     C65794   4.578   4.803   2.215  0.5132 -0.5198  0.0738
  488MOL0     N65795   4.679   5.668   2.161 -0.3329  0.3965  0.2554
  488MOL0     N65796   4.782   5.745   2.154 -0.0665  0.1036 -0.6036
  488MOL0     C65797   6.007   5.740   1.891  0.0288 -1.1160 -1.2646
  488MOL0     C65798   6.057   5.691   1.772 -0.3793  0.4744 -1.3901
  488MOL0     C65799   6.101   5.453   1.425  0.1570  0.6906 -0.1432
  488MOL0     C65800   6.209   5.519   1.359  0.1366 -0.2904  0.3087
  488MOL0     C65801   6.267   5.475   1.243 -0.4953  0.4099  0.4649
  488MOL0     C65802   6.246   5.344   1.202  0.1354 -0.3707  0.3008
  488MOL0     O65803   6.315   5.278   1.096 -0.1390  0.0761 -0.1423
  488MOL0     C65804   6.388   5.357   0.989 -0.1595 -0.1735 -0.1107
  488MOL0     C65805   6.287   5.385   0.875 -0.4810  0.5157  0.6183
  488MOL0     C65806   6.364   5.449   0.750  1.0607  0.3157  0.3894
  488MOL0     C65807   6.258   5.493   0.650  1.0258  0.2395 -0.2818
  488MOL0     C65808   6.323   5.523   0.520  0.1171 -0.4619 -0.3906
  488MOL0     C65809   6.390   5.568   0.421  0.1626 -0.7621 -0.5373
  488MOL0     C65810   6.147   5.272   1.266  0.7266 -0.6312  1.5261
  488MOL0     C65811   6.078   5.313   1.375 -0.1181  0.0786 -0.4933
  488MOL0     C65812   5.988   5.205   1.439  0.1099  0.8071  0.1048
  488MOL0     H65813   5.795   5.727   1.576  1.0313 -0.1553  0.9126
  488MOL0     H65814   5.687   5.812   1.799  1.5980  2.9298  2.0658
  488MOL0     H65815   5.650   5.920   2.036  1.6909  0.0283  1.4415
  488MOL0     H65816   5.627   5.751   1.980  1.3330  0.9935 -2.1655
  488MOL0     H65817   5.677   5.867   2.263  2.2577  2.8726 -4.1860
  488MOL0     H65818   5.697   5.692   2.226  1.6290  1.4823  0.7911
  488MOL0     H65819   5.447   5.723   2.314  0.5422  0.8820  1.5338
  488MOL0     H65820   5.457   5.670   2.146 -1.6677  0.5428  2.4758
  488MOL0     H65821   5.435   5.955   2.236  3.4671  0.8598 -3.6634
  488MOL0     H65822   5.426   5.895   2.061  0.5713 -2.1208 -0.3706
  488MOL0     H65823   5.241   5.748   2.161  0.5078 -0.7024  0.5333
  488MOL0     H65824   5.229   5.864   2.299  0.0695 -3.6469  0.5053
  488MOL0     H65825   5.187   6.042   2.152 -1.9827 -0.5313  2.1553
  488MOL0     H65826   5.215   5.957   2.005 -1.0205  0.8356  0.0728
  488MOL0     H65827   4.977   5.992   2.052  1.5309 -1.6969 -2.7353
  488MOL0     H65828   4.978   5.905   2.216  0.6278  0.1345 -1.0081
  488MOL0     H65829   4.973   5.828   1.923 -0.3724 -0.2616 -0.6850
  488MOL0     H65830   5.072   5.727   2.023  2.8655  3.0468  5.0808
  488MOL0     H65831   4.859   5.562   1.902 -1.2346 -2.5714 -0.3712
  488MOL0     H65832   4.537   5.446   1.988  0.5241 -2.5719 -1.3230
  488MOL0     H65833   4.701   5.378   2.002 -1.5292 -0.3612  0.8948
  488MOL0     H65834   4.677   5.412   2.265 -2.8817 -1.5853  3.5090
  488MOL0     H65835   4.515   5.471   2.219 -0.8017  1.3616 -1.9625
  488MOL0     H65836   4.457   5.246   2.157 -1.1845 -2.2462  2.9723
  488MOL0     H65837   4.557   5.236   2.312  1.1037  0.2751  0.3419
  488MOL0     H65838   4.747   5.170   2.204 -1.6897 -2.1956  1.9499
  488MOL0     H65839   4.675   5.169   2.038 -0.9052  0.7105  0.9245
  488MOL0     H65840   4.837   4.989   2.109 -2.0232  0.6319  0.8559
  488MOL0     H65841   4.954   4.755   2.099 -0.6904  0.5626 -1.0932
  488MOL0     H65842   4.675   4.254   2.379 -3.6851 -0.9628 -0.3571
  488MOL0     H65843   4.686   3.997   2.352  1.6270 -1.6462  1.0071
  488MOL0     H65844   5.003   3.814   2.256  0.3181  0.6131 -4.1437
  488MOL0     H65845   4.852   3.830   2.364  0.9272 -0.5999  0.4780
  488MOL0     H65846   4.885   3.635   2.146 -2.7612  1.8784  0.2369
  488MOL0     H65847   4.942   3.591   2.320  1.1239  0.1990 -0.3855
  488MOL0     H65848   4.753   3.562   2.413 -3.1290  1.7959  1.1035
  488MOL0     H65849   4.679   3.703   2.340  0.1356  0.3588  0.2127
  488MOL0     H65850   4.734   3.462   2.164  1.1032  2.3637  0.1685
  488MOL0     H65851   4.609   3.584   2.137  0.3334  0.8214 -0.6898
  488MOL0     H65852   4.491   3.530   2.348 -2.3737  0.8913 -1.9746
  488MOL0     H65853   4.589   3.380   2.350 -2.3563 -0.0811 -0.6170
  488MOL0     H65854   4.423   3.476   2.108 -0.8651 -0.9107 -2.1155
  488MOL0     H65855   4.511   3.326   2.135 -0.8332 -0.3400  0.1928
  488MOL0     H65856   4.265   3.416   2.284 -0.0564  0.8786 -2.7285
  488MOL0     H65857   4.352   3.271   2.334 -2.9739  0.8915  2.1513
  488MOL0     H65858   4.310   3.200   2.085  0.1619  2.2703 -1.1460
  488MOL0     H65859   4.169   3.211   2.186 -0.3439  0.8319 -0.9357
  488MOL0     H65860   4.935   4.051   2.010 -1.4567  1.5141 -2.7936
  488MOL0     H65861   4.899   4.293   2.018 -0.9225  0.7035 -1.0390
  488MOL0     H65862   4.580   4.606   2.276 -0.4682 -1.2104  0.3308
  488MOL0     H65863   4.476   4.817   2.248  0.2369  3.2091 -1.8403
  488MOL0     H65864   6.061   5.735   1.985  0.2877 -3.9254 -1.4619
  488MOL0     H65865   6.154   5.645   1.752 -1.1698 -2.0176  0.0297
  488MOL0     H65866   6.234   5.616   1.400  1.3779  0.2605 -1.5732
  488MOL0     H65867   6.338   5.533   1.185 -0.6417  2.1459  1.9223
  488MOL0     H65868   6.472   5.302   0.944  0.1574  0.6078 -0.5017
  488MOL0     H65869   6.435   5.445   1.034 -0.2620 -1.3806  2.5557
  488MOL0     H65870   6.196   5.435   0.912  0.4354  1.4791  1.6435
  488MOL0     H65871   6.250   5.285   0.853  0.3322 -0.1024  1.9573
  488MOL0     H65872   6.435   5.373   0.714 -3.0333 -2.1644 -3.5153
  488MOL0     H65873   6.416   5.539   0.783 -1.9255  2.3363 -0.0831
  488MOL0     H65874   6.178   5.419   0.641 -1.4846  2.4931  1.8247
  488MOL0     H65875   6.206   5.577   0.698  1.3708 -0.0463  0.6089
  488MOL0     H65876   6.449   5.599   0.338  1.4999  2.4647  1.4229
  488MOL0     H65877   6.131   5.171   1.230  1.3136  0.3776 -1.9937
  488MOL0     H65878   5.985   5.113   1.380  0.2008 -0.9410  2.6408
  488MOL0     H65879   6.025   5.160   1.532  0.8507 -2.8576 -1.7539
  488MOL0     H65880   5.887   5.239   1.463 -1.2454 -2.1338 -0.8322
  489MOL0     O65881   3.381   1.201   5.858  0.3102  0.1749  0.1078
  489MOL0     C65882   3.265   1.208   5.889 -0.7944 -0.7572 -0.1872
  489MOL0     O65883   3.164   1.128   5.852  1.0809 -0.4970  0.5688
  489MOL0     C65884   3.194   0.993   5.806  0.3493 -0.3527 -0.8008
  489MOL0     C65885   3.303   0.924   5.855 -0.5961  0.3797 -0.3051
  489MOL0     C65886   3.334   0.791   5.810  0.4527 -0.3141  0.4252
  489MOL0     C65887   3.255   0.731   5.702  0.1840 -0.1232 -0.0211
  489MOL0     O65888   3.306   0.605   5.672  0.4647  0.1494  0.5351
  489MOL0     C65889   3.243   0.513   5.585  0.2324  0.1792  0.1560
  489MOL0     C65890   3.295   0.381   5.608  0.2618 -0.0312 -0.6404
  489MOL0     C65891   3.245   0.321   5.739  0.3804  0.2926 -0.0098
  489MOL0     C65892   3.321   0.205   5.792 -0.1487 -0.3821 -0.2970
  489MOL0     C65893   3.265   0.165   5.921 -0.2741  0.0421  0.2070
  489MOL0     C65894   3.319   0.029   5.981 -0.3197 -0.4715  0.0740
  489MOL0     C65895   3.454   0.047   6.043 -0.5364  0.7399  0.4548
  489MOL0     C65896   3.519  -0.090   6.087  0.6191  0.4299  0.2612
  489MOL0     N65897   3.665  -0.079   6.110 -0.2316  0.5176  0.0105
  489MOL0     C65898   3.760  -0.056   6.010 -0.6542 -0.4765 -0.2213
  489MOL0     C65899   3.878  -0.081   6.065  0.9748  0.5457  0.4362
  489MOL0     C65900   4.010  -0.068   5.998  0.9106  0.4843  0.0780
  489MOL0     C65901   4.103  -0.004   6.096  1.0010  0.2687 -0.2551
  489MOL0     C65902   4.241  -0.073   6.091  0.6057  0.0766  0.6692
  489MOL0     C65903   4.355  -0.000   6.153  0.0562  0.4039 -0.4067
  489MOL0     O65904   4.388   0.123   6.075 -0.7409  0.2881 -0.3093
  489MOL0     C65905   4.494   0.189   6.132 -0.4274 -0.6374  0.3698
  489MOL0     C65906   4.559   0.272   6.041 -0.5403  0.0646  0.9175
  489MOL0     C65907   4.681   0.350   6.077 -0.1389 -0.1294  0.2320
  489MOL0     C65908   4.733   0.332   6.203  0.6785 -1.0804  0.4123
  489MOL0     C65909   4.855   0.405   6.251  0.1496 -0.5025  0.4225
  489MOL0     O65910   4.926   0.491   6.166  0.1753 -0.6618 -0.1528
  489MOL0     C65911   5.021   0.575   6.208 -1.4906 -1.3045  0.6922
  489MOL0     C65912   5.021   0.640   6.327 -0.4304 -0.3116  0.4317
  489MOL0     C65913   5.108   0.739   6.356 -0.2389 -0.4232  0.6424
  489MOL0     C65914   5.228   0.766   6.277  0.7670  1.0180  0.7091
  489MOL0     O65915   5.317   0.859   6.322 -0.2322 -0.1361 -0.2057
  489MOL0     C65916   5.265   0.996   6.347  1.2356  0.5706 -0.0892
  489MOL0     C65917   5.373   1.107   6.341 -0.0159 -0.1800  0.1386
  489MOL0     C65918   5.457   1.122   6.473 -0.0895  0.1519 -0.0896
  489MOL0     C65919   5.547   0.994   6.490  0.3828  0.0603  0.3668
  489MOL0     C65920   5.656   0.970   6.380 -0.6414  0.0558  1.0669
  489MOL0     C65921   5.748   0.843   6.407  0.1496  0.4137  0.1620
  489MOL0     C65922   5.657   0.721   6.381  0.8382 -0.0926  0.8694
  489MOL0     C65923   5.731   0.596   6.406 -0.7624  0.2277 -0.3464
  489MOL0    Cl65924   5.770   0.582   6.591 -0.0468  0.3596  0.0135
  489MOL0     C65925   5.227   0.705   6.146  0.8687  0.0915 -0.7625
  489MOL0     C65926   5.120   0.619   6.113  1.0032 -0.6661  0.0308
  489MOL0     O65927   4.881   0.384   6.372  0.4333  0.3054  1.0907
  489MOL0     C65928   4.674   0.241   6.289 -0.0623 -0.0249  0.0411
  489MOL0     C65929   4.555   0.168   6.259 -0.4819 -0.5444  0.5697
  489MOL0     N65930   3.851  -0.109   6.202  0.3393 -0.4006 -0.1031
  489MOL0     N65931   3.728  -0.100   6.225  0.2378  0.4367 -0.1304
  489MOL0     C65932   3.141   0.800   5.659  1.0317 -0.8819 -0.7038
  489MOL0     C65933   3.114   0.930   5.704 -0.8586 -0.0461  1.4019
  489MOL0     C65934   3.225   1.340   5.955  0.0602  1.5594 -0.4728
  489MOL0     C65935   3.093   1.374   5.953 -0.3208  0.9368 -0.2322
  489MOL0     C65936   3.049   1.496   5.996  0.4644 -0.2006  0.4190
  489MOL0     C65937   3.133   1.579   6.078  0.8941 -0.0176 -0.8564
  489MOL0     O65938   3.109   1.684   6.170  0.4921  0.1340  0.7002
  489MOL0     C65939   3.002   1.774   6.126 -0.5708  0.0621 -0.0663
  489MOL0     C65940   2.946   1.865   6.246 -0.1320  0.4253  0.0763
  489MOL0     C65941   3.049   1.958   6.316  0.3915  0.5746  0.3790
  489MOL0     C65942   2.989   2.083   6.379  0.0901  0.8827 -0.2078
  489MOL0     C65943   2.967   2.199   6.293  0.3780  0.1715  1.1753
  489MOL0     C65944   2.921   2.291   6.222 -1.2472  0.7962 -0.2407
  489MOL0     C65945   3.263   1.527   6.088 -0.1015 -0.5069 -0.0008
  489MOL0     C65946   3.318   1.415   6.026  0.5657  0.2918  0.4404
  489MOL0     C65947   3.456   1.374   6.063 -0.2849  0.3651  0.1055
  489MOL0     H65948   3.383   0.956   5.921  1.4772 -0.7901 -2.0938
  489MOL0     H65949   3.425   0.737   5.832  1.1048  0.1738 -0.9985
  489MOL0     H65950   3.136   0.517   5.607  0.5678  0.0674  1.9366
  489MOL0     H65951   3.269   0.550   5.485  0.6542  0.7868  0.4808
  489MOL0     H65952   3.404   0.392   5.599  0.3047 -0.8011 -1.1358
  489MOL0     H65953   3.279   0.302   5.535  1.0327  1.1890 -2.1906
  489MOL0     H65954   3.139   0.297   5.727  0.0515  0.9585  1.4339
  489MOL0     H65955   3.257   0.394   5.819  2.2764 -0.3864  0.3806
  489MOL0     H65956   3.326   0.123   5.720  2.3241 -0.5992  0.0031
  489MOL0     H65957   3.428   0.228   5.791 -0.7694  2.9354 -1.7064
  489MOL0     H65958   3.273   0.248   5.991 -0.3905 -0.5691  0.9555
  489MOL0     H65959   3.158   0.144   5.912  0.1277 -1.3392 -2.1403
  489MOL0     H65960   3.248  -0.001   6.059 -1.6322  1.9571 -0.0721
  489MOL0     H65961   3.322  -0.040   5.896  2.9479  2.1916 -2.2392
  489MOL0     H65962   3.455   0.118   6.127  2.6779  2.0389 -0.5206
  489MOL0     H65963   3.521   0.090   5.968 -0.5033 -2.5116 -1.5712
  489MOL0     H65964   3.467  -0.131   6.175 -0.0251 -3.4365 -1.6873
  489MOL0     H65965   3.506  -0.168   6.012  2.1618  0.9216 -0.5685
  489MOL0     H65966   3.750  -0.030   5.905 -0.4444 -4.0841 -1.2450
  489MOL0     H65967   4.048  -0.159   5.951  1.2654  1.1188 -0.8993
  489MOL0     H65968   3.996   0.003   5.916  3.0993 -1.8668 -2.5619
  489MOL0     H65969   4.118   0.103   6.074  1.3757  0.9628  2.8536
  489MOL0     H65970   4.074  -0.001   6.201  1.9373  1.6183  0.0010
  489MOL0     H65971   4.267  -0.091   5.986 -2.7601 -1.2073 -0.1065
  489MOL0     H65972   4.234  -0.165   6.149  0.5289  1.9949  3.9173
  489MOL0     H65973   4.437  -0.071   6.146  0.7849  1.0306  1.2015
  489MOL0     H65974   4.330   0.011   6.259 -1.5866 -1.2870 -0.5689
  489MOL0     H65975   4.522   0.281   5.940 -3.1321 -2.6271  1.4972
  489MOL0     H65976   4.733   0.404   5.998  0.8382  3.8318  3.2827
  489MOL0     H65977   4.949   0.617   6.406 -0.8758  2.8026  1.0728
  489MOL0     H65978   5.107   0.789   6.452 -1.0357 -1.2953  1.1060
  489MOL0     H65979   5.187   1.014   6.272  1.1787 -0.7934 -0.3971
  489MOL0     H65980   5.222   0.993   6.448 -2.0318  2.5585 -1.2846
  489MOL0     H65981   5.449   1.094   6.264  1.8407  3.1305  1.2382
  489MOL0     H65982   5.320   1.200   6.319 -2.6842 -1.1821  1.8059
  489MOL0     H65983   5.525   1.207   6.465 -2.3657  2.2857  1.5809
  489MOL0     H65984   5.392   1.133   6.560 -1.0729 -1.7695 -0.5146
  489MOL0     H65985   5.487   0.904   6.509  2.1244 -1.1323  0.5139
  489MOL0     H65986   5.594   1.015   6.587 -1.4026 -2.0915  1.8083
  489MOL0     H65987   5.720   1.059   6.373 -5.2752  3.8775  2.3441
  489MOL0     H65988   5.611   0.943   6.283  0.1498 -2.1406  1.2486
  489MOL0     H65989   5.835   0.832   6.342 -1.2367 -1.6494 -1.5119
  489MOL0     H65990   5.794   0.849   6.506  1.2477 -0.8355 -0.2369
  489MOL0     H65991   5.626   0.721   6.276  0.9945 -3.2230  0.7234
  489MOL0     H65992   5.565   0.715   6.439  0.1019  1.3014 -0.1164
  489MOL0     H65993   5.670   0.508   6.381  1.3901 -0.9590 -1.8072
  489MOL0     H65994   5.821   0.596   6.343  1.1109 -1.8674  2.0787
  489MOL0     H65995   5.306   0.714   6.073 -0.9911 -1.7756 -3.1885
  489MOL0     H65996   5.124   0.573   6.014  1.7657 -1.5036  0.4400
  489MOL0     H65997   4.719   0.224   6.386 -2.0924  1.5210  1.3207
  489MOL0     H65998   4.522   0.092   6.329 -0.6918 -1.6522 -0.6885
  489MOL0     H65999   3.072   0.752   5.589 -1.8391  2.4429 -0.4601
  489MOL0     H66000   3.029   0.984   5.663 -1.5832 -0.8782  1.7690
  489MOL0     H66001   3.031   1.314   5.887  1.1965  0.9574 -1.7784
  489MOL0     H66002   2.945   1.526   5.986  0.7369  1.3750  1.9803
  489MOL0     H66003   2.921   1.713   6.086  1.9266 -3.7226  0.1799
  489MOL0     H66004   3.051   1.832   6.047 -1.0210  1.8084  0.8806
  489MOL0     H66005   2.917   1.797   6.327  2.0213  0.7148  1.1598
  489MOL0     H66006   2.866   1.932   6.214  0.3507  3.2500  4.1105
  489MOL0     H66007   3.133   1.985   6.251  2.8649 -2.6978  1.9407
  489MOL0     H66008   3.099   1.904   6.396 -0.0970  0.5041  0.6411
  489MOL0     H66009   2.889   2.060   6.417 -0.7152  2.6153 -1.1544
  489MOL0     H66010   3.041   2.118   6.469 -2.2736 -0.4459  1.8216
  489MOL0     H66011   2.872   2.370   6.168 -5.0855 -1.8017 -0.9211
  489MOL0     H66012   3.333   1.579   6.152 -1.1845 -0.1163  0.9028
  489MOL0     H66013   3.453   1.267   6.087  1.3896  0.6770  1.9943
  489MOL0     H66014   3.529   1.388   5.982 -1.0577 -4.2192 -1.7073
  489MOL0     H66015   3.498   1.418   6.154  1.9356  0.1060 -0.7294
  490MOL0     O66016   5.196   3.278   1.580 -0.2031 -0.0594  1.2545
  490MOL0     C66017   5.129   3.176   1.608  0.2449  0.3814 -0.5684
  490MOL0     O66018   4.994   3.184   1.657 -0.8509  0.0383  0.0068
  490MOL0     C66019   4.942   3.300   1.682  0.1250 -0.0330 -0.3676
  490MOL0     C66020   4.993   3.373   1.786 -0.3932  0.4612 -0.1848
  490MOL0     C66021   4.933   3.505   1.810 -0.0227  0.9382  0.7892
  490MOL0     C66022   4.833   3.553   1.724  0.1693 -0.8110 -0.5735
  490MOL0     O66023   4.749   3.660   1.747  0.3132 -0.7431  1.0593
  490MOL0     C66024   4.795   3.757   1.838  0.4395 -0.8208  0.1947
  490MOL0     C66025   4.682   3.862   1.822  0.8003  0.0990  0.2506
  490MOL0     C66026   4.578   3.806   1.918  0.4412  0.3068 -0.8587
  490MOL0     C66027   4.433   3.865   1.901 -0.6258  0.6056  0.6355
  490MOL0     C66028   4.336   3.774   1.971 -1.2197  0.9746 -1.4767
  490MOL0     C66029   4.192   3.827   1.936  1.2958 -0.7488  0.1493
  490MOL0     C66030   4.081   3.730   1.981 -0.0503 -0.0159  0.0883
  490MOL0     C66031   3.947   3.797   2.000  0.0060  0.3122  0.2866
  490MOL0     N66032   3.842   3.716   2.049  0.2273  0.4533 -0.0270
  490MOL0     C66033   3.806   3.603   1.987  0.5029  0.6409  1.0909
  490MOL0     C66034   3.718   3.558   2.073  1.4870 -0.1201  0.1272
  490MOL0     C66035   3.665   3.418   2.071 -0.1618  1.1403 -0.1177
  490MOL0     C66036   3.767   3.333   2.141 -0.0062 -0.5988  0.1041
  490MOL0     C66037   3.721   3.179   2.157 -0.5707 -0.2770 -0.6220
  490MOL0     C66038   3.618   3.161   2.255 -0.8525 -0.2137  0.2971
  490MOL0     O66039   3.678   3.188   2.383 -0.3782  0.4727 -1.3503
  490MOL0     C66040   3.600   3.186   2.489  0.7437 -0.3466 -0.1946
  490MOL0     C66041   3.660   3.196   2.612  0.5428  0.5585  0.2106
  490MOL0     C66042   3.596   3.218   2.729 -0.0508 -0.1526 -0.5425
  490MOL0     C66043   3.458   3.225   2.735  1.1501 -1.3106 -0.1159
  490MOL0     C66044   3.390   3.258   2.865  0.1021 -0.6006  0.2019
  490MOL0     O66045   3.255   3.254   2.856  0.3237  0.6620  0.3060
  490MOL0     C66046   3.179   3.315   2.959  0.2141 -0.1401  0.0921
  490MOL0     C66047   3.061   3.247   2.996  0.3747 -0.6715  0.2799
  490MOL0     C66048   2.987   3.295   3.100  0.0302 -0.6842  0.3191
  490MOL0     C66049   3.011   3.423   3.155  0.6175  0.5790  0.0247
  490MOL0     O66050   2.907   3.463   3.239 -0.0985  0.6447  0.1508
  490MOL0     C66051   2.858   3.593   3.214  0.1450 -0.2735 -0.7290
  490MOL0     C66052   2.924   3.702   3.301 -0.4902  0.1424 -0.4326
  490MOL0     C66053   2.874   3.838   3.258 -0.0286 -0.2283 -0.2172
  490MOL0     C66054   2.918   3.935   3.369 -0.0478 -0.6557 -0.1246
  490MOL0     C66055   2.859   4.073   3.337 -0.1038 -0.4717 -0.4832
  490MOL0     C66056   2.937   4.179   3.421 -0.6631 -0.3408  0.7715
  490MOL0     C66057   2.917   4.167   3.579  1.6285  0.3344  0.3015
  490MOL0     C66058   3.009   4.269   3.656 -0.5181  0.2927  1.1479
  490MOL0    Cl66059   3.007   4.243   3.834 -0.0185  0.4162  0.2338
  490MOL0     C66060   3.118   3.491   3.108 -1.4092  0.3733 -0.5934
  490MOL0     C66061   3.205   3.441   3.012 -0.2148  0.2969 -0.1527
  490MOL0     O66062   3.453   3.282   2.973  0.4153  0.2041  0.7940
  490MOL0     C66063   3.390   3.206   2.610  0.2842 -0.9723  0.1188
  490MOL0     C66064   3.463   3.185   2.492  0.3235  0.6849  0.3317
  490MOL0     N66065   3.695   3.644   2.174 -0.1097 -0.6124  0.6794
  490MOL0     N66066   3.769   3.746   2.156 -0.0358 -0.5151 -0.2742
  490MOL0     C66067   4.799   3.484   1.612  0.2407  0.5522  0.3865
  490MOL0     C66068   4.835   3.344   1.601 -0.1907  0.4741  0.8301
  490MOL0     C66069   5.193   3.042   1.589 -0.3070  0.2578  0.2486
  490MOL0     C66070   5.104   2.938   1.613 -0.4504  0.9336 -0.1226
  490MOL0     C66071   5.139   2.803   1.583 -0.0449 -0.9547  0.3629
  490MOL0     C66072   5.267   2.778   1.534  0.2945  0.1433  0.6296
  490MOL0     O66073   5.319   2.655   1.508 -0.3730  1.0747  0.3536
  490MOL0     C66074   5.334   2.576   1.630  0.1765  0.2631 -0.1221
  490MOL0     C66075   5.463   2.504   1.613  0.3650 -0.3425 -0.1533
  490MOL0     C66076   5.511   2.430   1.740  0.4054  0.8851 -0.7226
  490MOL0     C66077   5.632   2.343   1.693 -0.3955 -0.0051 -0.4242
  490MOL0     C66078   5.589   2.218   1.639  0.1688  0.4004 -0.1904
  490MOL0     C66079   5.555   2.111   1.596 -0.3333  0.4238 -0.5593
  490MOL0     C66080   5.356   2.882   1.522  0.1957  0.0523 -0.5188
  490MOL0     C66081   5.325   3.013   1.548  0.0004 -0.0257  0.1849
  490MOL0     C66082   5.437   3.107   1.538  0.5757 -0.2226  0.1566
  490MOL0     H66083   5.079   3.326   1.831  0.2914  0.0303 -1.8842
  490MOL0     H66084   4.966   3.568   1.892  0.3512 -0.9911  2.1856
  490MOL0     H66085   4.819   3.731   1.942  3.8433  2.8322  0.5555
  490MOL0     H66086   4.880   3.813   1.800 -1.1325  1.7124  0.1421
  490MOL0     H66087   4.653   3.869   1.716  2.8192  0.7134 -0.3072
  490MOL0     H66088   4.716   3.963   1.846 -1.6279  0.5695  1.9759
  490MOL0     H66089   4.598   3.832   2.023 -1.7323 -1.8660  0.2036
  490MOL0     H66090   4.565   3.698   1.917 -3.5816  0.6226 -0.6516
  490MOL0     H66091   4.437   3.970   1.930  1.1025  0.9268 -0.6115
  490MOL0     H66092   4.417   3.873   1.793  0.3578  1.5239  0.5375
  490MOL0     H66093   4.357   3.669   1.947  6.7744  1.6970 -0.3870
  490MOL0     H66094   4.354   3.766   2.078  3.9128 -0.6035 -2.1687
  490MOL0     H66095   4.177   3.922   1.988 -1.3332  0.0396 -1.8617
  490MOL0     H66096   4.180   3.850   1.830  1.4788  0.9700  0.4765
  490MOL0     H66097   4.104   3.692   2.081 -2.9163  1.5245  1.4579
  490MOL0     H66098   4.061   3.651   1.909 -3.6825  0.9636 -0.1932
  490MOL0     H66099   3.968   3.882   2.065 -1.7116  0.6929  0.3887
  490MOL0     H66100   3.916   3.833   1.902  0.0483  0.1988  0.2316
  490MOL0     H66101   3.833   3.556   1.893 -0.7931  2.1067 -0.0642
  490MOL0     H66102   3.568   3.404   2.119  1.1605 -1.8682  2.0142
  490MOL0     H66103   3.647   3.385   1.968 -1.0699 -1.9399  0.9299
  490MOL0     H66104   3.861   3.330   2.085  0.0457 -0.7276  0.1976
  490MOL0     H66105   3.802   3.380   2.234  1.0798 -0.7799 -0.1997
  490MOL0     H66106   3.806   3.111   2.169  0.3168  0.9945  0.6218
  490MOL0     H66107   3.679   3.147   2.060  0.3224 -0.7543 -0.8622
  490MOL0     H66108   3.585   3.056   2.254 -0.9588 -0.1878  0.7143
  490MOL0     H66109   3.538   3.225   2.219  1.7333  2.9566 -0.2936
  490MOL0     H66110   3.765   3.206   2.638  0.8741 -2.6248  0.5304
  490MOL0     H66111   3.655   3.227   2.820  0.9410 -1.6078 -1.0092
  490MOL0     H66112   3.027   3.155   2.948  0.7989 -0.1951 -0.9746
  490MOL0     H66113   2.896   3.247   3.133  1.2936 -1.6414  2.6328
  490MOL0     H66114   2.867   3.611   3.107  3.6266 -0.9512 -0.6756
  490MOL0     H66115   2.753   3.593   3.245 -0.3381  2.7574 -2.0252
  490MOL0     H66116   2.902   3.690   3.408  1.6398  0.9527  0.1739
  490MOL0     H66117   3.034   3.696   3.303 -0.4341  1.0401  0.0619
  490MOL0     H66118   2.922   3.883   3.170  1.3395 -2.5562 -0.7546
  490MOL0     H66119   2.766   3.831   3.243 -0.4181  0.1868  2.1014
  490MOL0     H66120   3.025   3.939   3.389 -0.2521 -0.9893  1.1686
  490MOL0     H66121   2.869   3.904   3.462  0.2288 -0.2135  0.1712
  490MOL0     H66122   2.758   4.088   3.379  1.0816  1.6881  1.9116
  490MOL0     H66123   2.882   4.090   3.232 -1.1215 -0.9269 -0.7973
  490MOL0     H66124   3.045   4.168   3.412 -0.7445 -1.2968  0.8111
  490MOL0     H66125   2.904   4.280   3.397 -0.0161 -0.5033 -0.8916
  490MOL0     H66126   2.928   4.065   3.615 -0.0852  0.1973  0.5050
  490MOL0     H66127   2.817   4.203   3.607  0.9320 -0.8555 -0.5371
  490MOL0     H66128   3.113   4.256   3.625 -1.6616 -1.1738 -2.4657
  490MOL0     H66129   2.970   4.368   3.628 -2.2646 -1.4602 -3.5979
  490MOL0     H66130   3.135   3.591   3.147  1.1145 -0.4438  0.5726
  490MOL0     H66131   3.289   3.486   2.960  0.7472 -0.1794  0.9502
  490MOL0     H66132   3.282   3.211   2.606  0.3362 -0.1315 -0.5261
  490MOL0     H66133   3.394   3.166   2.411  1.1738  0.3480 -0.3282
  490MOL0     H66134   4.731   3.523   1.537  1.4007  2.1452  0.0952
  490MOL0     H66135   4.779   3.285   1.530 -2.2872 -1.6249  3.9593
  490MOL0     H66136   4.998   2.950   1.634 -0.4206 -1.1263  1.5785
  490MOL0     H66137   5.064   2.728   1.606  1.6021 -3.5472 -2.0851
  490MOL0     H66138   5.248   2.510   1.642  0.0612  0.0859 -1.6348
  490MOL0     H66139   5.335   2.647   1.713 -1.0601  1.8219 -1.3686
  490MOL0     H66140   5.544   2.574   1.589  1.8133 -1.8457  0.1120
  490MOL0     H66141   5.432   2.438   1.532 -1.8202 -1.9240  1.8588
  490MOL0     H66142   5.434   2.357   1.769 -0.1472  0.2923 -3.4042
  490MOL0     H66143   5.541   2.502   1.817 -3.6336  1.0997  0.9342
  490MOL0     H66144   5.703   2.390   1.624  1.4815  3.9502  3.6696
  490MOL0     H66145   5.690   2.312   1.781  1.2292  2.8769 -0.3544
  490MOL0     H66146   5.510   2.023   1.555  1.9311 -2.8410  3.1786
  490MOL0     H66147   5.453   2.859   1.478  0.8974  3.1238 -0.8075
  490MOL0     H66148   5.412   3.181   1.462  0.4979 -0.5457 -0.1317
  490MOL0     H66149   5.446   3.153   1.637 -0.2352 -2.2434  1.2358
  490MOL0     H66150   5.538   3.069   1.523  0.7686 -0.0872  1.0451
  491MOL0     O66151   7.440  10.120   0.553 -0.8692 -0.2501  0.9019
  491MOL0     C66152   7.509  10.204   0.603 -1.5443  0.5832  0.0842
  491MOL0     O66153   7.617  10.266   0.546 -0.1800  0.7505 -0.5082
  491MOL0     C66154   7.689  10.202   0.446 -0.2531  0.7550 -0.5331
  491MOL0     C66155   7.823  10.251   0.438  1.1122 -0.3814 -1.1901
  491MOL0     C66156   7.913  10.206   0.354  0.3988  0.5667 -0.2481
  491MOL0     C66157   7.883  10.102   0.268 -0.4302  0.4427 -0.0671
  491MOL0     O66158   7.971  10.056   0.173 -0.0465 -1.0937 -0.5944
  491MOL0     C66159   7.942  10.082   0.035 -0.0743  0.2779  0.0165
  491MOL0     C66160   8.061  10.065  -0.063 -0.4334 -0.1519 -0.5617
  491MOL0     C66161   8.021  10.111  -0.207  0.1497 -0.1978 -0.5183
  491MOL0     C66162   7.924  10.018  -0.272  1.0131  1.3975 -0.1742
  491MOL0     C66163   7.850  10.072  -0.388 -0.1971 -0.1723  0.0789
  491MOL0     C66164   7.754   9.975  -0.454  0.4613 -0.2287 -0.4132
  491MOL0     C66165   7.836   9.902  -0.558  0.6269 -0.4060  0.4508
  491MOL0     C66166   7.813   9.748  -0.564 -0.0371 -0.2364 -0.3487
  491MOL0     N66167   7.902   9.681  -0.468 -0.3463  0.0427 -0.9899
  491MOL0     C66168   7.873   9.650  -0.332 -0.6113 -0.7865 -1.0567
  491MOL0     C66169   7.985   9.596  -0.287  0.2886  0.6792 -0.4575
  491MOL0     C66170   8.028   9.567  -0.137  0.1000  0.0614 -0.0403
  491MOL0     C66171   8.161   9.639  -0.112 -0.5167 -0.0906  0.2207
  491MOL0     C66172   8.226   9.619   0.029  0.0500  0.4441  0.0517
  491MOL0     C66173   8.128   9.684   0.133 -1.3249  0.6063 -0.1810
  491MOL0     O66174   8.171   9.646   0.263 -0.4327  0.4365  0.0309
  491MOL0     C66175   8.226   9.745   0.342  0.8026 -0.6342 -0.3887
  491MOL0     C66176   8.136   9.820   0.425 -0.3696 -0.5724  0.2875
  491MOL0     C66177   8.185   9.923   0.507  0.0819  0.1671  0.5440
  491MOL0     C66178   8.328   9.939   0.516  0.2970 -0.1261 -0.0731
  491MOL0     C66179   8.385  10.041   0.603  0.4520  0.3645  0.2385
  491MOL0     O66180   8.514  10.077   0.575 -0.9871  0.3075 -0.1592
  491MOL0     C66181   8.566  10.174   0.660  0.0997  1.0885  0.0984
  491MOL0     C66182   8.589  10.302   0.611 -0.3513 -1.4140 -0.0163
  491MOL0     C66183   8.661  10.398   0.697  0.8712  0.6108  0.7260
  491MOL0     C66184   8.703  10.361   0.829 -0.4750 -0.3246  0.7364
  491MOL0     O66185   8.788  10.448   0.900 -0.7712  0.0248  0.6481
  491MOL0     C66186   8.840  10.418   1.033  0.0485  0.8275 -0.4306
  491MOL0     C66187   8.742  10.473   1.132  0.8993 -0.0388  0.2171
  491MOL0     C66188   8.718  10.618   1.100 -0.1219 -0.8139  0.1526
  491MOL0     C66189   8.605  10.678   1.185 -0.2243 -0.3319 -0.3018
  491MOL0     C66190   8.578  10.825   1.151  0.6414 -0.3724 -0.3086
  491MOL0     C66191   8.553  10.931   1.258 -0.3586 -0.2587  0.7821
  491MOL0     C66192   8.420  10.927   1.333 -0.3853 -0.1145  0.4095
  491MOL0     C66193   8.300  10.965   1.250  0.1118  0.6063  0.1552
  491MOL0    Cl66194   8.151  10.876   1.291 -0.0813  0.0173 -0.3711
  491MOL0     C66195   8.672  10.235   0.874 -0.1504 -0.3736  0.2863
  491MOL0     C66196   8.598  10.149   0.789  0.5162 -0.2030 -0.0990
  491MOL0     O66197   8.318  10.087   0.690  0.3415 -0.0445 -0.3717
  491MOL0     C66198   8.416   9.861   0.440 -0.0736 -0.2890 -0.2805
  491MOL0     C66199   8.363   9.771   0.352 -0.0829 -0.7161 -0.1365
  491MOL0     N66200   8.067   9.579  -0.393  0.3939  0.0912  1.4166
  491MOL0     N66201   8.015   9.622  -0.501 -0.8058 -0.2513  0.1744
  491MOL0     C66202   7.754  10.051   0.266 -0.5855  0.0546 -0.2060
  491MOL0     C66203   7.652  10.109   0.351 -0.5381  0.2884  0.7206
  491MOL0     C66204   7.459  10.270   0.723 -0.2739  0.0983  0.6082
  491MOL0     C66205   7.519  10.388   0.765 -0.8836 -0.6508 -0.3070
  491MOL0     C66206   7.483  10.446   0.890 -0.8511 -1.2936  0.0039
  491MOL0     C66207   7.392  10.393   0.979 -0.3203 -0.0218  0.8265
  491MOL0     O66208   7.365  10.476   1.088  0.1182  0.0441 -0.5058
  491MOL0     C66209   7.259  10.434   1.181  0.0145 -1.3133 -0.0364
  491MOL0     C66210   7.314  10.316   1.274 -0.7010 -0.5911 -0.7689
  491MOL0     C66211   7.434  10.378   1.360  0.3618 -0.0212 -0.5339
  491MOL0     C66212   7.495  10.285   1.468  1.0680  0.6782  0.3312
  491MOL0     C66213   7.397  10.233   1.560  0.7040  0.2866  0.9092
  491MOL0     C66214   7.320  10.176   1.639  1.8804  0.4805 -0.3595
  491MOL0     C66215   7.328  10.282   0.930 -0.4419 -0.0502  0.3192
  491MOL0     C66216   7.353  10.229   0.802 -0.0842  0.6309 -0.9070
  491MOL0     C66217   7.237  10.140   0.761  0.8084  0.3838  0.5726
  491MOL0     H66218   7.855  10.330   0.505 -2.0893  0.1614 -0.1046
  491MOL0     H66219   8.005  10.262   0.368  0.5925 -0.2291  2.1750
  491MOL0     H66220   7.864  10.009   0.014 -1.5879  1.2461  1.8738
  491MOL0     H66221   7.897  10.181   0.021 -1.4269 -0.6941 -3.6061
  491MOL0     H66222   8.095   9.962  -0.077 -0.2348 -0.2417  0.4604
  491MOL0     H66223   8.152  10.115  -0.026 -0.5500 -0.4845  0.2081
  491MOL0     H66224   8.112  10.119  -0.267 -0.3499 -1.8746 -1.5862
  491MOL0     H66225   7.975  10.210  -0.203 -0.7542 -0.6156 -0.2119
  491MOL0     H66226   7.985   9.930  -0.296  0.8199  0.9570  0.9270
  491MOL0     H66227   7.845  10.003  -0.198  0.5812  2.3903 -0.4218
  491MOL0     H66228   7.801  10.165  -0.358  0.4770  1.0545 -2.4038
  491MOL0     H66229   7.928  10.105  -0.457  1.3473 -0.8297  1.4293
  491MOL0     H66230   7.720   9.902  -0.379 -2.0465 -0.2160 -1.4543
  491MOL0     H66231   7.673  10.025  -0.507 -0.6830 -1.8467 -0.2836
  491MOL0     H66232   7.942   9.917  -0.537  0.1363  1.3802  1.9283
  491MOL0     H66233   7.803   9.951  -0.651 -4.5960 -4.5767 -0.3900
  491MOL0     H66234   7.710   9.714  -0.549  0.5871 -1.1778  2.4817
  491MOL0     H66235   7.840   9.720  -0.666 -1.9771 -0.1103 -0.9286
  491MOL0     H66236   7.784   9.672  -0.274 -0.2301 -3.4189  0.7286
  491MOL0     H66237   7.946   9.602  -0.073  1.5585  1.8668  0.9574
  491MOL0     H66238   8.038   9.459  -0.122  0.0308  0.2637  1.7276
  491MOL0     H66239   8.229   9.597  -0.187 -0.3433  0.2781  0.1722
  491MOL0     H66240   8.151   9.748  -0.116  1.4104  0.3165  3.1343
  491MOL0     H66241   8.319   9.677   0.027 -1.5448  3.2713 -3.3032
  491MOL0     H66242   8.240   9.511   0.042 -1.4818  0.1237 -0.7425
  491MOL0     H66243   8.025   9.648   0.132 -1.7561  1.8347 -1.0776
  491MOL0     H66244   8.124   9.793   0.132 -1.1915  0.6057 -1.4105
  491MOL0     H66245   8.031   9.804   0.402  0.1862 -0.5800 -2.5373
  491MOL0     H66246   8.111   9.969   0.571  1.2655  1.7728  0.8184
  491MOL0     H66247   8.568  10.324   0.506  4.0722  3.8409 -0.2947
  491MOL0     H66248   8.675  10.494   0.649 -1.3361 -0.3966 -2.3246
  491MOL0     H66249   8.854  10.313   1.058  2.0535  1.1526  0.0011
  491MOL0     H66250   8.938  10.463   1.048  0.5757 -1.2721  4.0119
  491MOL0     H66251   8.666  10.399   1.157  1.5240 -0.9366 -0.4553
  491MOL0     H66252   8.784  10.470   1.234 -0.1809  2.9765  0.8507
  491MOL0     H66253   8.815  10.668   1.109 -0.5982  0.0663  0.5218
  491MOL0     H66254   8.679  10.637   0.999 -1.2717 -1.7486  0.4008
  491MOL0     H66255   8.632  10.671   1.290 -1.5622  1.8318  0.2505
  491MOL0     H66256   8.513  10.619   1.186 -1.2991  1.3005  0.1562
  491MOL0     H66257   8.495  10.819   1.081  1.5118 -0.1246 -1.3959
  491MOL0     H66258   8.663  10.868   1.098 -1.1017 -0.0479 -3.0252
  491MOL0     H66259   8.622  10.897   1.336  0.4675  2.0993  1.1789
  491MOL0     H66260   8.570  11.027   1.207  2.9779 -0.8251  0.5632
  491MOL0     H66261   8.424  10.992   1.421 -0.7831 -1.6682  1.6182
  491MOL0     H66262   8.406  10.825   1.370 -0.8961 -0.5452 -0.9189
  491MOL0     H66263   8.284  11.073   1.248  3.3575  1.1875  0.8622
  491MOL0     H66264   8.330  10.935   1.149  1.3946  1.2129  0.3398
  491MOL0     H66265   8.695  10.203   0.975 -1.8472  3.7374  2.2137
  491MOL0     H66266   8.580  10.050   0.831  0.7092  0.4434  1.5542
  491MOL0     H66267   8.523   9.878   0.451 -0.3184  0.5759  1.0274
  491MOL0     H66268   8.414   9.696   0.292 -0.8311 -3.0887  2.0354
  491MOL0     H66269   7.707   9.977   0.202 -3.2361 -0.4628  2.1199
  491MOL0     H66270   7.553  10.068   0.338  0.4667 -1.6285 -1.7037
  491MOL0     H66271   7.599  10.428   0.704 -1.3958 -3.4617 -3.1346
  491MOL0     H66272   7.541  10.534   0.914  0.0676 -1.0088 -2.8226
  491MOL0     H66273   7.172  10.403   1.122 -1.0353  0.6969  0.3708
  491MOL0     H66274   7.240  10.521   1.245 -1.6812 -0.9216 -1.0294
  491MOL0     H66275   7.359  10.234   1.217 -1.5577  0.5786 -3.2962
  491MOL0     H66276   7.228  10.283   1.334 -0.3726  0.8453  0.5648
  491MOL0     H66277   7.400  10.470   1.409 -3.6826 -1.6090  0.0538
  491MOL0     H66278   7.515  10.407   1.293 -1.3578  0.3937 -2.5269
  491MOL0     H66279   7.544  10.210   1.404  0.6316  2.3223 -2.0297
  491MOL0     H66280   7.574  10.333   1.527  1.8999  3.1608 -2.5557
  491MOL0     H66281   7.260  10.110   1.698  2.2572 -1.8497 -2.4066
  491MOL0     H66282   7.240  10.254   0.988  0.4075 -1.0633  1.1778
  491MOL0     H66283   7.154  10.141   0.832 -0.0975  0.1850 -0.4537
  491MOL0     H66284   7.203  10.184   0.667 -1.8209  4.2302  3.0529
  491MOL0     H66285   7.267  10.035   0.768  0.8878  0.4587  1.4816
  492MOL0     O66286  11.232   0.059   9.718  1.2903  0.1861  0.4487
  492MOL0     C66287  11.161   0.134   9.787 -0.2550 -0.5571  0.0516
  492MOL0     O66288  11.144   0.125   9.922 -1.1128 -0.1463 -0.2909
  492MOL0     C66289  11.229   0.052  10.003  0.3285 -0.8160 -0.8229
  492MOL0     C66290  11.364   0.060   9.983  0.7078  0.2649 -0.4453
  492MOL0     C66291  11.438   0.004  10.085 -0.3798  0.5762 -0.8167
  492MOL0     C66292  11.390  -0.067  10.196  0.4103 -0.6315  0.4563
  492MOL0     O66293  11.479  -0.132  10.283 -0.3856 -1.2116 -0.2005
  492MOL0     C66294  11.487  -0.273  10.273  0.4691  0.6686 -0.9299
  492MOL0     C66295  11.623  -0.311  10.322 -0.5329 -0.5111  0.5607
  492MOL0     C66296  11.730  -0.297  10.212  0.9560  0.8653 -0.3956
  492MOL0     C66297  11.859  -0.352  10.252  0.3955 -0.3729 -0.4306
  492MOL0     C66298  11.871  -0.504  10.255  0.2556  0.5790 -0.0328
  492MOL0     C66299  11.831  -0.568  10.112 -0.1612 -0.3217 -0.0424
  492MOL0     C66300  11.907  -0.700  10.084 -0.2853  0.6620  0.8715
  492MOL0     C66301  11.828  -0.789   9.985 -2.2519  0.4986 -0.4169
  492MOL0     N66302  11.862  -0.764   9.845  0.7678 -0.4040  0.0620
  492MOL0     C66303  11.773  -0.737   9.746  0.6827 -0.7373  0.7574
  492MOL0     C66304  11.842  -0.744   9.627 -0.2465  0.3102 -0.6854
  492MOL0     C66305  11.770  -0.736   9.501  0.1174 -0.4168  0.2491
  492MOL0     C66306  11.832  -0.627   9.415 -0.5653  0.7262 -0.1025
  492MOL0     C66307  11.765  -0.649   9.280 -0.3461 -0.0083 -0.2933
  492MOL0     C66308  11.777  -0.521   9.198  0.0457  0.5497  0.6829
  492MOL0     O66309  11.702  -0.546   9.075  0.1797  0.6527 -0.0815
  492MOL0     C66310  11.686  -0.434   8.996 -0.0868  1.0082 -0.1662
  492MOL0     C66311  11.724  -0.302   9.027 -0.0061  0.4123 -1.3965
  492MOL0     C66312  11.710  -0.197   8.931 -0.3908  0.8832 -0.3432
  492MOL0     C66313  11.660  -0.227   8.802  0.1143 -0.0181  0.2926
  492MOL0     C66314  11.644  -0.118   8.709 -0.5196 -0.4953  0.0644
  492MOL0     O66315  11.597   0.008   8.751 -0.4513  0.1776 -0.1368
  492MOL0     C66316  11.599   0.117   8.657 -1.1468  0.3157  0.5481
  492MOL0     C66317  11.707   0.138   8.571 -0.2871  0.3034  0.1488
  492MOL0     C66318  11.701   0.226   8.461  0.6250  0.3380 -0.3261
  492MOL0     C66319  11.586   0.295   8.437  1.1856 -0.1719 -0.2953
  492MOL0     O66320  11.570   0.379   8.325 -0.5809 -0.7091 -0.4137
  492MOL0     C66321  11.566   0.310   8.202  0.6749  0.7462  0.5165
  492MOL0     C66322  11.533   0.401   8.088 -0.1224  0.4882  0.5873
  492MOL0     C66323  11.382   0.447   8.099 -0.0576 -0.1640  1.1868
  492MOL0     C66324  11.325   0.513   7.976  0.1803  1.2718 -0.1613
  492MOL0     C66325  11.168   0.526   7.991 -0.5046  0.9357 -0.4080
  492MOL0     C66326  11.105   0.520   7.855  0.0161  0.2148  1.3581
  492MOL0     C66327  11.168   0.628   7.761 -0.9439 -0.7365  1.0144
  492MOL0     C66328  11.089   0.629   7.630 -1.1889  0.3665  0.1752
  492MOL0    Cl66329  10.920   0.687   7.650  0.5185 -0.2841 -0.3482
  492MOL0     C66330  11.470   0.281   8.520  0.1792 -0.3680 -0.4166
  492MOL0     C66331  11.479   0.185   8.623 -0.5320  1.3291  0.3602
  492MOL0     O66332  11.668  -0.145   8.593 -0.1116 -0.2153 -0.3740
  492MOL0     C66333  11.617  -0.359   8.767  0.0823 -1.0443 -0.2265
  492MOL0     C66334  11.629  -0.461   8.865 -0.2178 -0.5614 -0.8565
  492MOL0     N66335  11.973  -0.751   9.656 -0.2679 -0.9025  0.2043
  492MOL0     N66336  11.983  -0.759   9.784 -0.3534  0.5559 -0.2636
  492MOL0     C66337  11.249  -0.076  10.210  0.0828  0.7564 -0.1609
  492MOL0     C66338  11.176  -0.006  10.116  0.6929 -0.8279  0.7654
  492MOL0     C66339  11.068   0.230   9.726  1.6095  0.4110  0.0318
  492MOL0     C66340  11.011   0.324   9.809  0.2493 -0.4784  0.1349
  492MOL0     C66341  10.908   0.412   9.766 -0.6588  0.3108 -0.7268
  492MOL0     C66342  10.868   0.406   9.637 -0.3641  0.6881 -0.2945
  492MOL0     O66343  10.784   0.499   9.601  0.0865 -0.6152 -0.1110
  492MOL0     C66344  10.725   0.508   9.471  0.8263 -0.1362 -0.2270
  492MOL0     C66345  10.594   0.428   9.471 -0.5278  1.3116 -0.1887
  492MOL0     C66346  10.469   0.520   9.471 -0.2792  0.0396  0.2722
  492MOL0     C66347  10.352   0.427   9.511 -0.5025  0.2353 -1.0522
  492MOL0     C66348  10.224   0.496   9.492 -0.1790  0.1332 -0.8535
  492MOL0     C66349  10.113   0.545   9.491 -0.6392 -0.5897 -0.8316
  492MOL0     C66350  10.908   0.297   9.559 -0.0497 -0.4718 -0.7275
  492MOL0     C66351  11.009   0.212   9.602  0.3440  0.1913  0.6928
  492MOL0     C66352  11.059   0.108   9.503  0.5059  0.1135  0.0966
  492MOL0     H66353  11.405   0.124   9.906 -0.4271  3.4541  1.4050
  492MOL0     H66354  11.541   0.032  10.102 -0.8972  1.2291  1.6915
  492MOL0     H66355  11.413  -0.324  10.336  2.3378 -3.0961 -1.5756
  492MOL0     H66356  11.476  -0.294  10.167 -2.3711 -0.0217 -0.5796
  492MOL0     H66357  11.624  -0.404  10.379 -0.4321 -2.1567 -1.9774
  492MOL0     H66358  11.645  -0.232  10.395 -0.8042 -0.0586  0.1571
  492MOL0     H66359  11.740  -0.195  10.176  1.4991  1.4076  1.1877
  492MOL0     H66360  11.695  -0.362  10.131 -0.9146  0.3693  0.7304
  492MOL0     H66361  11.926  -0.310  10.177  1.3176  3.7768  2.4092
  492MOL0     H66362  11.887  -0.313  10.350  2.5058 -1.5519 -0.5019
  492MOL0     H66363  11.971  -0.525  10.296 -1.3317 -0.7627  3.5914
  492MOL0     H66364  11.807  -0.543  10.335 -0.8314  1.8524 -0.2512
  492MOL0     H66365  11.726  -0.597  10.109 -0.1231 -0.6039  0.9608
  492MOL0     H66366  11.847  -0.505  10.024 -0.1194 -3.1250 -2.1620
  492MOL0     H66367  11.898  -0.758  10.177  0.3360 -1.8125 -0.5280
  492MOL0     H66368  12.008  -0.676  10.048  0.1720  0.5852  2.0392
  492MOL0     H66369  11.851  -0.891  10.016 -0.9180  0.9127  0.0356
  492MOL0     H66370  11.721  -0.773  10.003 -2.1052 -1.6459  3.0959
  492MOL0     H66371  11.668  -0.712   9.758  1.0097  2.0175 -1.2248
  492MOL0     H66372  11.774  -0.831   9.447 -0.8122 -0.9694  1.1206
  492MOL0     H66373  11.663  -0.721   9.520  0.8014  1.2706  3.5815
  492MOL0     H66374  11.812  -0.522   9.439 -2.9852  0.4548 -0.6664
  492MOL0     H66375  11.941  -0.639   9.412 -0.5811  0.6278 -2.2372
  492MOL0     H66376  11.660  -0.674   9.298  0.1416 -4.4944 -2.2121
  492MOL0     H66377  11.791  -0.738   9.221 -5.6102 -1.1021 -1.4853
  492MOL0     H66378  11.882  -0.504   9.174 -0.0675  0.9175  0.4267
  492MOL0     H66379  11.753  -0.435   9.260 -1.6980 -0.0875  0.9402
  492MOL0     H66380  11.737  -0.271   9.130  1.5976  0.0211 -1.4565
  492MOL0     H66381  11.723  -0.092   8.956 -1.3855  1.0810 -0.6294
  492MOL0     H66382  11.798   0.081   8.580 -0.8469 -0.6858 -0.2717
  492MOL0     H66383  11.768   0.219   8.376  0.3556 -0.9304 -0.4447
  492MOL0     H66384  11.659   0.257   8.182  0.4214  0.1628  0.8833
  492MOL0     H66385  11.486   0.236   8.205  0.7339  0.7249  2.9806
  492MOL0     H66386  11.608   0.480   8.096  0.2628  0.1875 -0.0105
  492MOL0     H66387  11.550   0.360   7.987  0.3072  1.9393  0.0476
  492MOL0     H66388  11.316   0.362   8.118 -0.1228 -0.3479  0.2150
  492MOL0     H66389  11.365   0.511   8.185 -2.9220  0.3212  0.3619
  492MOL0     H66390  11.339   0.442   7.893 -2.1722 -0.9071  1.1684
  492MOL0     H66391  11.387   0.601   7.956  1.5297  0.8619  1.9352
  492MOL0     H66392  11.155   0.620   8.045 -1.0289 -1.2202  3.6184
  492MOL0     H66393  11.139   0.454   8.068  3.4779  1.9857  2.3237
  492MOL0     H66394  11.118   0.425   7.803  1.1083  0.5058  1.0653
  492MOL0     H66395  10.997   0.533   7.863 -0.0263 -0.7082  2.4618
  492MOL0     H66396  11.275   0.625   7.737 -0.7544  5.5138 -0.8032
  492MOL0     H66397  11.169   0.722   7.817 -3.5687  0.0050 -0.0479
  492MOL0     H66398  11.137   0.702   7.564 -2.4836  3.4633  2.4519
  492MOL0     H66399  11.097   0.531   7.583  1.1664  0.8798 -0.6024
  492MOL0     H66400  11.372   0.327   8.520  0.3782  0.2518  2.7338
  492MOL0     H66401  11.387   0.162   8.675 -1.9477 -2.2505 -3.2214
  492MOL0     H66402  11.575  -0.378   8.669 -1.2885 -1.1572  0.3679
  492MOL0     H66403  11.597  -0.563   8.847 -0.1850 -1.3764  2.9104
  492MOL0     H66404  11.203  -0.134  10.289  1.1515  0.8810  0.5731
  492MOL0     H66405  11.071   0.003  10.139  0.2841  1.1487 -1.4841
  492MOL0     H66406  11.037   0.338   9.914 -0.0650  0.7221  0.0736
  492MOL0     H66407  10.845   0.471   9.831 -2.2393 -0.4342 -1.5481
  492MOL0     H66408  10.792   0.455   9.403  1.7323  2.1294 -1.2028
  492MOL0     H66409  10.712   0.608   9.428  0.5225 -0.7244 -1.5535
  492MOL0     H66410  10.598   0.360   9.556  4.2900 -3.5176 -3.5446
  492MOL0     H66411  10.590   0.366   9.381 -0.7617 -1.0144  1.3359
  492MOL0     H66412  10.454   0.569   9.375  1.8918  0.5505  0.1327
  492MOL0     H66413  10.479   0.597   9.548 -0.7705 -0.9969  1.4037
  492MOL0     H66414  10.346   0.339   9.446 -0.7524 -1.2208  0.8475
  492MOL0     H66415  10.371   0.395   9.614 -1.8438 -0.9906 -1.1430
  492MOL0     H66416  10.030   0.612   9.498 -0.5645 -0.6182  0.3884
  492MOL0     H66417  10.869   0.286   9.459  0.0957  0.7418 -0.9367
  492MOL0     H66418  10.998   0.110   9.412 -1.9653  2.1029  1.6473
  492MOL0     H66419  11.164   0.117   9.476 -0.1585 -1.9679 -3.7781
  492MOL0     H66420  11.048   0.005   9.536 -2.6158 -0.4658 -2.2610
  493MOL0     O66421  11.393   1.836   5.945 -0.1858 -0.1306 -0.5921
  493MOL0     C66422  11.325   1.769   6.023  0.5396  0.0737 -0.7787
  493MOL0     O66423  11.243   1.824   6.120  0.1401 -0.2240  0.1123
  493MOL0     C66424  11.236   1.956   6.144  0.4177 -0.1592 -0.0222
  493MOL0     C66425  11.205   1.992   6.278  1.2456  0.4556 -0.2281
  493MOL0     C66426  11.208   2.128   6.307 -1.0739 -0.4079  0.0246
  493MOL0     C66427  11.228   2.235   6.217  0.1895 -0.2746 -0.3944
  493MOL0     O66428  11.250   2.369   6.258 -0.9282 -0.3400  0.2797
  493MOL0     C66429  11.353   2.400   6.354  1.9311  0.3639  0.0761
  493MOL0     C66430  11.263   2.469   6.462  0.7699 -0.4809 -0.4281
  493MOL0     C66431  11.301   2.433   6.610  1.1849  0.0024 -0.3687
  493MOL0     C66432  11.450   2.424   6.626  0.3409  0.3742 -0.2924
  493MOL0     C66433  11.485   2.484   6.760  0.0879 -0.2118 -0.7672
  493MOL0     C66434  11.435   2.410   6.890  0.7201 -0.9502 -0.0704
  493MOL0     C66435  11.478   2.480   7.024 -0.5182 -0.1192 -0.5262
  493MOL0     C66436  11.426   2.400   7.143  0.6990  0.9625 -0.6767
  493MOL0     N66437  11.511   2.277   7.167  0.8665 -0.2242 -0.3428
  493MOL0     C66438  11.642   2.280   7.208  0.7468 -0.1472  0.4048
  493MOL0     C66439  11.677   2.148   7.205 -0.1759  0.5617 -1.0901
  493MOL0     C66440  11.811   2.096   7.238  0.2296  0.8093  1.5577
  493MOL0     C66441  11.927   2.195   7.264  0.5496  0.0132 -0.1471
  493MOL0     C66442  12.058   2.107   7.262  0.7341 -0.1254  0.5613
  493MOL0     C66443  12.159   2.177   7.351 -0.5674  0.1103  0.5985
  493MOL0     O66444  12.189   2.314   7.300  0.0140  0.4184 -0.3589
  493MOL0     C66445  12.256   2.336   7.184 -0.6722 -0.4588  0.1580
  493MOL0     C66446  12.360   2.245   7.129 -0.8033 -0.4869  0.1578
  493MOL0     C66447  12.428   2.296   7.011 -0.9838 -0.4795 -0.3730
  493MOL0     C66448  12.399   2.424   6.946  0.3744 -0.0669 -0.7447
  493MOL0     C66449  12.476   2.478   6.820 -1.1723 -0.6145 -1.4003
  493MOL0     O66450  12.424   2.592   6.753  0.0533  0.5364 -0.3790
  493MOL0     C66451  12.517   2.659   6.686 -0.3214 -0.1763  0.4026
  493MOL0     C66452  12.485   2.672   6.551 -0.3855  0.1182  0.3451
  493MOL0     C66453  12.572   2.743   6.475 -0.1981  0.2129  0.2004
  493MOL0     C66454  12.693   2.802   6.523 -0.3689  0.0974  0.2626
  493MOL0     O66455  12.776   2.885   6.451 -0.6321 -0.2240 -0.0128
  493MOL0     C66456  12.698   3.004   6.431 -0.1473  0.2139  0.0045
  493MOL0     C66457  12.763   3.121   6.346 -0.4673  1.2806 -0.7346
  493MOL0     C66458  12.662   3.190   6.256  0.2685  0.5318  0.7094
  493MOL0     C66459  12.723   3.297   6.163 -0.0914  0.3162 -0.6484
  493MOL0     C66460  12.815   3.269   6.045 -1.3364  0.1621  0.7121
  493MOL0     C66461  12.769   3.157   5.936 -0.6479  0.1809  0.4288
  493MOL0     C66462  12.834   3.163   5.801 -0.5373 -1.1491 -0.4901
  493MOL0     C66463  12.772   3.266   5.708 -0.0924  0.8543  0.7098
  493MOL0    Cl66464  12.878   3.259   5.553 -0.1412 -0.2412 -0.0774
  493MOL0     C66465  12.722   2.785   6.657  1.1891 -0.5935 -0.2680
  493MOL0     C66466  12.636   2.718   6.742  1.3286 -0.5044  1.3543
  493MOL0     O66467  12.590   2.424   6.801  0.7462  0.2621  0.0653
  493MOL0     C66468  12.295   2.502   7.000 -0.1632  0.3242  0.6218
  493MOL0     C66469  12.219   2.456   7.114 -0.2936  1.0611  0.8847
  493MOL0     N66470  11.572   2.080   7.156 -0.2283 -0.9572  1.0924
  493MOL0     N66471  11.473   2.159   7.140  0.0284 -0.1693  0.1181
  493MOL0     C66472  11.256   2.186   6.087  0.1187 -0.1930 -1.4935
  493MOL0     C66473  11.244   2.057   6.049  0.5270  1.3677  0.7130
  493MOL0     C66474  11.332   1.623   6.038 -0.2376  0.6953 -0.2588
  493MOL0     C66475  11.268   1.556   6.148  0.0476 -0.1052 -0.4949
  493MOL0     C66476  11.282   1.423   6.175  0.7769  1.0835  0.4876
  493MOL0     C66477  11.362   1.345   6.094 -0.3094  0.3178  0.3151
  493MOL0     O66478  11.370   1.209   6.115 -0.1408 -0.2996  0.7188
  493MOL0     C66479  11.512   1.173   6.127 -0.1769  0.1114  0.9151
  493MOL0     C66480  11.544   1.091   6.258 -0.9364 -0.0610  0.6337
  493MOL0     C66481  11.460   0.964   6.266 -0.0421  0.0589 -0.2579
  493MOL0     C66482  11.480   0.900   6.402  0.3407 -0.2694 -0.1965
  493MOL0     C66483  11.617   0.874   6.434 -0.1402  0.5885  0.0434
  493MOL0     C66484  11.733   0.853   6.474 -0.4036  0.3713 -0.3493
  493MOL0     C66485  11.413   1.395   5.976 -0.3498 -1.3311  0.2400
  493MOL0     C66486  11.391   1.540   5.944  0.0407 -0.3453  0.2219
  493MOL0     C66487  11.447   1.585   5.809  1.0459  0.0360 -0.3118
  493MOL0     H66488  11.194   1.910   6.349  5.5945 -1.0188 -0.9732
  493MOL0     H66489  11.172   2.160   6.404 -2.3546  0.1820 -0.6112
  493MOL0     H66490  11.390   2.305   6.394 -1.3514 -0.8738  0.5168
  493MOL0     H66491  11.428   2.467   6.311  2.3058  1.2162  1.9530
  493MOL0     H66492  11.158   2.451   6.441  0.6182  0.6344 -0.6520
  493MOL0     H66493  11.267   2.578   6.464 -1.8038 -0.3138  2.1100
  493MOL0     H66494  11.247   2.341   6.637 -0.3862  1.4865  1.9329
  493MOL0     H66495  11.264   2.509   6.679 -0.8532 -0.8064 -0.4961
  493MOL0     H66496  11.495   2.325   6.620  2.6917  1.4024 -0.9773
  493MOL0     H66497  11.494   2.489   6.549 -1.4853 -1.4606 -3.0705
  493MOL0     H66498  11.594   2.490   6.765 -0.0427  2.8228  1.9597
  493MOL0     H66499  11.455   2.589   6.771 -0.8547 -0.6287  1.0327
  493MOL0     H66500  11.326   2.416   6.883  0.7255  0.1623  0.5715
  493MOL0     H66501  11.492   2.317   6.888  3.2281  0.4616  0.0660
  493MOL0     H66502  11.444   2.584   7.028  0.0783  0.0498  0.5053
  493MOL0     H66503  11.587   2.488   7.028 -0.3317 -1.7693 -1.7906
  493MOL0     H66504  11.433   2.461   7.234  0.5741  0.6016 -0.4239
  493MOL0     H66505  11.322   2.371   7.125 -0.0183  2.4667  0.6727
  493MOL0     H66506  11.695   2.374   7.221  2.7705 -0.9066 -1.6274
  493MOL0     H66507  11.794   2.030   7.323 -0.2478 -0.1507  0.7439
  493MOL0     H66508  11.840   2.026   7.158 -1.3355  0.6513  1.1071
  493MOL0     H66509  11.934   2.268   7.183 -2.5148 -1.1195 -1.5538
  493MOL0     H66510  11.904   2.238   7.362 -4.2402 -2.7683  0.2354
  493MOL0     H66511  12.103   2.092   7.164  0.9194 -0.7626  0.7373
  493MOL0     H66512  12.043   2.002   7.291  1.8330 -0.9734 -1.7288
  493MOL0     H66513  12.250   2.117   7.360  0.4447  1.1202 -1.8169
  493MOL0     H66514  12.120   2.198   7.451 -0.5982  1.6996  0.2730
  493MOL0     H66515  12.374   2.150   7.180  0.3674 -0.4477 -0.0534
  493MOL0     H66516  12.494   2.228   6.959  1.3474  1.6408 -0.3938
  493MOL0     H66517  12.402   2.626   6.498  2.2208 -2.1019 -2.1594
  493MOL0     H66518  12.546   2.756   6.371  1.9830  0.7428 -0.3255
  493MOL0     H66519  12.599   2.991   6.386 -0.6429  0.8264  0.8791
  493MOL0     H66520  12.672   3.050   6.527  0.6221  3.3525 -1.1821
  493MOL0     H66521  12.828   3.191   6.399 -0.0598 -0.1530  0.6961
  493MOL0     H66522  12.830   3.063   6.282 -0.5825  2.6544 -2.1657
  493MOL0     H66523  12.621   3.119   6.184  2.9946  1.9850 -2.5433
  493MOL0     H66524  12.583   3.238   6.314 -1.5321 -1.8237  0.3583
  493MOL0     H66525  12.781   3.359   6.232  0.4142 -3.6726  2.8857
  493MOL0     H66526  12.639   3.358   6.128 -1.1902 -0.5473  0.4006
  493MOL0     H66527  12.912   3.236   6.083 -2.3593 -3.7207  0.4034
  493MOL0     H66528  12.828   3.367   5.998  0.4319  2.6800  5.6552
  493MOL0     H66529  12.788   3.055   5.969  0.2340 -1.4051 -4.2616
  493MOL0     H66530  12.663   3.181   5.925 -0.4383  0.3772 -1.6920
  493MOL0     H66531  12.838   3.063   5.757 -0.6833 -2.2511  1.8206
  493MOL0     H66532  12.940   3.183   5.820 -1.0454  3.0870 -1.1399
  493MOL0     H66533  12.668   3.249   5.679  1.2603 -3.1682 -2.7471
  493MOL0     H66534  12.781   3.360   5.763  2.0023  0.8335  0.5003
  493MOL0     H66535  12.823   2.814   6.686  2.1679 -3.6448 -0.1509
  493MOL0     H66536  12.673   2.700   6.842  0.0514 -1.3933  1.6909
  493MOL0     H66537  12.260   2.591   6.950 -1.7415  1.4005  3.4545
  493MOL0     H66538  12.133   2.508   7.155 -2.0011  0.1244 -1.3080
  493MOL0     H66539  11.279   2.259   6.011  1.7031 -1.6274 -2.4872
  493MOL0     H66540  11.271   2.038   5.946 -0.1505  0.3018  0.7179
  493MOL0     H66541  11.208   1.616   6.216  1.5600  0.1281  0.6726
  493MOL0     H66542  11.223   1.379   6.255 -2.0643  1.3278 -1.3616
  493MOL0     H66543  11.577   1.261   6.128  0.2325  0.0445 -3.2578
  493MOL0     H66544  11.547   1.128   6.034 -1.6174 -3.1650  1.8070
  493MOL0     H66545  11.536   1.165   6.338  0.0841 -0.3937  1.0724
  493MOL0     H66546  11.652   1.076   6.263 -0.4186  1.0665 -3.5704
  493MOL0     H66547  11.492   0.889   6.193 -1.9146  1.7885 -3.0171
  493MOL0     H66548  11.352   0.972   6.252 -0.0671  0.1133 -0.0298
  493MOL0     H66549  11.429   0.955   6.481  1.6015  1.3452 -0.4464
  493MOL0     H66550  11.440   0.799   6.395 -0.2201 -0.0313 -0.6241
  493MOL0     H66551  11.829   0.835   6.518  1.3027  2.6564 -2.7924
  493MOL0     H66552  11.463   1.329   5.906 -3.2874 -1.6140 -1.7628
  493MOL0     H66553  11.544   1.631   5.827 -0.1185  3.5534 -2.0567
  493MOL0     H66554  11.442   1.495   5.747  1.2531 -0.3582  0.2328
  493MOL0     H66555  11.379   1.659   5.766  1.6330 -0.1224 -1.5336
  494MOL0     O66556   3.448   9.907   1.252  0.7593  0.2292  0.3819
  494MOL0     C66557   3.464   9.929   1.135 -0.2538  0.1299  0.7046
  494MOL0     O66558   3.388  10.024   1.059 -0.2460 -0.3125  0.5400
  494MOL0     C66559   3.313  10.125   1.128  0.9705 -0.1371 -0.6123
  494MOL0     C66560   3.352  10.193   1.247  0.0040  0.5505 -0.8991
  494MOL0     C66561   3.271  10.277   1.316  0.2746 -0.4492 -0.6224
  494MOL0     C66562   3.139  10.299   1.269 -0.1233  0.0912 -0.6253
  494MOL0     O66563   3.052  10.387   1.326 -0.2927  0.2208  0.3368
  494MOL0     C66564   3.080  10.416   1.465 -0.0689  0.5963 -0.5524
  494MOL0     C66565   3.135  10.557   1.489  1.2107 -0.3913  0.5619
  494MOL0     C66566   3.028  10.665   1.437  0.1610  0.1780  0.2656
  494MOL0     C66567   3.088  10.803   1.445 -0.2876 -0.9741  0.1973
  494MOL0     C66568   2.999  10.898   1.343 -0.7782 -1.0790 -0.2062
  494MOL0     C66569   3.066  10.927   1.208  0.2362 -0.3886  0.3885
  494MOL0     C66570   3.058  10.816   1.110  0.1808 -0.3615 -0.0537
  494MOL0     C66571   3.165  10.835   0.991 -0.0813  0.9034 -0.4702
  494MOL0     N66572   3.299  10.784   1.018  0.0058  0.7573  0.0679
  494MOL0     C66573   3.330  10.696   1.115  0.5616  0.0603  0.4489
  494MOL0     C66574   3.463  10.678   1.111  0.8052 -1.2331 -0.0436
  494MOL0     C66575   3.537  10.600   1.214  1.2794  0.0878  0.7224
  494MOL0     C66576   3.677  10.664   1.215 -0.1812  0.6630 -1.6653
  494MOL0     C66577   3.771  10.586   1.314  0.2413  0.1382 -0.4041
  494MOL0     C66578   3.817  10.452   1.280 -0.8556 -0.0201 -0.4662
  494MOL0     O66579   3.866  10.386   1.402 -0.0009  0.1889 -0.4807
  494MOL0     C66580   3.879  10.248   1.408  0.3051 -0.5005  0.5775
  494MOL0     C66581   3.940  10.188   1.518 -0.1604 -0.6091 -0.1221
  494MOL0     C66582   3.979  10.052   1.522  0.9890 -0.0582  0.4053
  494MOL0     C66583   3.946   9.969   1.412  0.0928 -0.5679 -0.0186
  494MOL0     C66584   3.990   9.828   1.409  0.3543 -0.2969 -0.2420
  494MOL0     O66585   3.966   9.765   1.288  0.1693 -0.2722 -0.1464
  494MOL0     C66586   4.031   9.643   1.262 -0.5935  0.3054  0.2728
  494MOL0     C66587   4.015   9.527   1.337  0.7064  0.6897 -0.1321
  494MOL0     C66588   4.085   9.411   1.320 -0.4145  0.3096  0.5429
  494MOL0     C66589   4.173   9.410   1.202  0.4024 -0.6586 -1.4911
  494MOL0     O66590   4.242   9.292   1.167 -0.2404 -0.2867  0.3926
  494MOL0     C66591   4.250   9.279   1.024  0.5730 -0.2963  0.4964
  494MOL0     C66592   4.299   9.143   0.991 -0.3440 -0.2767  0.1580
  494MOL0     C66593   4.195   9.029   1.024 -0.2339  0.3188  0.0495
  494MOL0     C66594   4.237   8.886   0.978  0.8288 -1.0337  0.2831
  494MOL0     C66595   4.129   8.793   1.044 -0.3624 -0.0823  0.1323
  494MOL0     C66596   4.040   8.722   0.943 -1.0218 -0.3221 -0.1431
  494MOL0     C66597   4.108   8.626   0.839 -0.6719  0.0644  1.0455
  494MOL0     C66598   4.059   8.633   0.689  0.5187  0.4572 -0.4267
  494MOL0    Cl66599   3.893   8.560   0.668 -0.2723 -0.6835  0.3286
  494MOL0     C66600   4.176   9.521   1.115 -0.1333  0.1223  0.4926
  494MOL0     C66601   4.115   9.642   1.151  0.2689  0.5012 -1.0196
  494MOL0     O66602   4.069   9.778   1.496 -0.1599  0.8802 -0.0251
  494MOL0     C66603   3.883  10.026   1.294  0.1503  0.1503  0.0065
  494MOL0     C66604   3.854  10.164   1.292 -0.5676  0.5323 -0.1662
  494MOL0     N66605   3.499  10.741   0.996  0.5302  0.4693 -0.2593
  494MOL0     N66606   3.402  10.801   0.935  0.4897  0.0447  0.6940
  494MOL0     C66607   3.098  10.225   1.157  0.1618  0.0062  0.6084
  494MOL0     C66608   3.180  10.142   1.085  0.1226  0.0713  0.4920
  494MOL0     C66609   3.575   9.855   1.065  0.4864 -0.1709  0.0473
  494MOL0     C66610   3.616   9.906   0.947  0.3906  0.1214 -0.2478
  494MOL0     C66611   3.698   9.834   0.855 -0.1755  0.0036  0.1366
  494MOL0     C66612   3.761   9.722   0.902 -0.9915  0.0399 -0.8010
  494MOL0     O66613   3.862   9.653   0.833 -0.7606 -0.3799 -0.2476
  494MOL0     C66614   3.948   9.723   0.744  0.2823 -0.4932  1.0956
  494MOL0     C66615   4.091   9.670   0.751  0.0320  0.2901  0.0887
  494MOL0     C66616   4.105   9.539   0.677  0.6759 -0.0631 -0.4737
  494MOL0     C66617   4.092   9.526   0.527  0.2879  0.2126 -0.3939
  494MOL0     C66618   4.197   9.595   0.456 -0.0978  0.3550 -0.4303
  494MOL0     C66619   4.275   9.670   0.389  0.1613 -0.1265 -0.5685
  494MOL0     C66620   3.733   9.664   1.025 -0.1612 -0.1901  0.0718
  494MOL0     C66621   3.639   9.734   1.111 -0.2829  0.1646 -0.7295
  494MOL0     C66622   3.589   9.668   1.236 -0.3517 -0.2382 -0.0822
  494MOL0     H66623   3.453  10.169   1.276 -0.8332 -1.3843  0.6431
  494MOL0     H66624   3.318  10.317   1.406  1.8251  2.6368 -2.6305
  494MOL0     H66625   2.988  10.400   1.521  0.3437 -3.2370 -0.7025
  494MOL0     H66626   3.154  10.354   1.515  0.7724  1.8127 -0.2436
  494MOL0     H66627   3.225  10.565   1.427 -0.7211 -2.5961 -2.7943
  494MOL0     H66628   3.160  10.583   1.593  4.1456  1.0248 -0.3753
  494MOL0     H66629   2.947  10.656   1.509 -2.0282  0.5193 -2.0287
  494MOL0     H66630   2.977  10.655   1.341 -2.5508  3.1682  1.2269
  494MOL0     H66631   3.094  10.846   1.545 -0.3713  4.0777 -1.7088
  494MOL0     H66632   3.191  10.807   1.409 -0.4624 -0.2652 -0.2287
  494MOL0     H66633   2.897  10.857   1.343 -1.9003  1.4349  1.8989
  494MOL0     H66634   2.997  11.000   1.382 -1.6987 -1.7185  1.4891
  494MOL0     H66635   3.011  11.011   1.164 -1.8614 -1.7167  0.3509
  494MOL0     H66636   3.169  10.958   1.229 -0.6109  2.6277  0.6341
  494MOL0     H66637   2.960  10.829   1.062  0.6332  2.5934 -0.3901
  494MOL0     H66638   3.067  10.719   1.159  0.8383 -0.5630 -0.5514
  494MOL0     H66639   3.128  10.767   0.914  0.2187 -0.3169  0.4333
  494MOL0     H66640   3.169  10.941   0.966  0.0952  1.1386  0.4890
  494MOL0     H66641   3.269  10.635   1.181 -0.6318 -1.2532 -1.7180
  494MOL0     H66642   3.494  10.585   1.314 -0.4161  1.1183  0.1914
  494MOL0     H66643   3.543  10.499   1.173  3.9721 -0.2159  1.6536
  494MOL0     H66644   3.722  10.682   1.117  0.0941  1.5781 -1.3844
  494MOL0     H66645   3.654  10.762   1.256 -0.1350  0.4893 -1.2141
  494MOL0     H66646   3.716  10.576   1.408  0.5124 -0.6194 -0.3214
  494MOL0     H66647   3.864  10.643   1.324 -0.0606  1.6191 -4.2764
  494MOL0     H66648   3.889  10.453   1.198 -1.0552 -0.1739 -0.6413
  494MOL0     H66649   3.723  10.403   1.256 -0.4035 -2.2872  1.9259
  494MOL0     H66650   3.962  10.250   1.604 -1.5811 -0.6017  0.2616
  494MOL0     H66651   4.017  10.027   1.621 -3.2314  0.4157  2.3517
  494MOL0     H66652   3.958   9.538   1.429 -1.1434  1.1347 -1.2667
  494MOL0     H66653   4.076   9.313   1.366  0.6540  0.6198  1.4766
  494MOL0     H66654   4.155   9.283   0.971 -0.6315 -2.6156  2.2556
  494MOL0     H66655   4.333   9.337   0.984 -0.5749 -0.4569 -2.3088
  494MOL0     H66656   4.317   9.133   0.884  0.8403 -0.0820  0.3338
  494MOL0     H66657   4.397   9.115   1.031 -0.7304 -0.3388  1.0977
  494MOL0     H66658   4.183   9.015   1.132  0.9555 -0.0616  0.1367
  494MOL0     H66659   4.096   9.059   0.987 -0.1347  0.8198  0.1855
  494MOL0     H66660   4.333   8.851   1.016 -0.0707 -0.0734  3.7508
  494MOL0     H66661   4.230   8.883   0.869  1.2506  3.6346 -0.0696
  494MOL0     H66662   4.060   8.863   1.092 -0.5498 -0.7041  0.7786
  494MOL0     H66663   4.176   8.736   1.124 -0.2046 -0.9221 -0.5385
  494MOL0     H66664   3.959   8.668   0.993 -2.1481  1.6060  0.2095
  494MOL0     H66665   3.974   8.795   0.896 -1.5295 -0.5240  0.2518
  494MOL0     H66666   4.112   8.519   0.863  1.4345 -1.1204 -3.5847
  494MOL0     H66667   4.216   8.636   0.833 -0.8320  1.1525 -0.6570
  494MOL0     H66668   4.061   8.739   0.664 -0.4998  0.0337 -2.4764
  494MOL0     H66669   4.132   8.581   0.627  0.6185  2.0818 -1.7091
  494MOL0     H66670   4.228   9.514   1.020  0.5168  1.4316  0.7239
  494MOL0     H66671   4.135   9.740   1.111 -0.3477  0.4081 -1.5820
  494MOL0     H66672   3.860   9.957   1.213 -0.6449  1.9521 -1.3610
  494MOL0     H66673   3.802  10.201   1.204 -1.0892  0.2081  0.0026
  494MOL0     H66674   2.991  10.228   1.138  0.5215 -1.0954 -2.1233
  494MOL0     H66675   3.158  10.096   0.989  3.5232  3.2032 -2.0914
  494MOL0     H66676   3.568   9.995   0.905  1.6773  0.0199 -2.0686
  494MOL0     H66677   3.714   9.878   0.757  3.6122  3.4358  1.9575
  494MOL0     H66678   3.957   9.829   0.768  1.5365 -0.9293  2.6960
  494MOL0     H66679   3.911   9.710   0.641  0.2109 -1.0048  1.1824
  494MOL0     H66680   4.127   9.662   0.854  4.3186  0.5369 -1.1729
  494MOL0     H66681   4.157   9.736   0.695 -0.6504 -1.4900 -3.0297
  494MOL0     H66682   4.019   9.478   0.709 -1.6613  2.0842 -2.2253
  494MOL0     H66683   4.196   9.488   0.709 -0.1738 -3.8470 -3.2809
  494MOL0     H66684   4.102   9.422   0.496  1.7586 -0.1512  1.1894
  494MOL0     H66685   3.992   9.563   0.500  1.1171  2.1665 -1.0259
  494MOL0     H66686   4.334   9.740   0.334  0.5606 -0.5177 -0.6474
  494MOL0     H66687   3.782   9.578   1.066 -1.5097  0.5458  3.5545
  494MOL0     H66688   3.622   9.698   1.335 -2.6835 -1.7526  1.2511
  494MOL0     H66689   3.481   9.678   1.246 -0.2997  0.8818 -0.5294
  494MOL0     H66690   3.596   9.560   1.223 -0.0485 -0.0163 -2.1404
  495MOL0     O66691  10.136   9.802   7.328  0.9914 -0.2589 -0.1954
  495MOL0     C66692  10.096   9.902   7.390 -0.5844 -0.2549  0.1848
  495MOL0     O66693  10.187   9.995   7.443  0.1981 -0.3701  0.0462
  495MOL0     C66694  10.312   9.955   7.467  0.0588  0.3032  0.5670
  495MOL0     C66695  10.412  10.025   7.399  0.6180 -0.1765 -0.2279
  495MOL0     C66696  10.542   9.995   7.437  1.0015  0.8843  0.1995
  495MOL0     C66697  10.573   9.885   7.523  0.2936 -0.7606  0.1895
  495MOL0     O66698  10.695   9.845   7.515 -0.2334 -0.4415 -1.4936
  495MOL0     C66699  10.760   9.789   7.638 -0.2831 -0.0349 -0.1883
  495MOL0     C66700  10.914   9.789   7.627  0.3892 -0.1421 -0.1277
  495MOL0     C66701  10.991   9.914   7.676  1.3776  0.1858  0.5167
  495MOL0     C66702  10.919  10.045   7.643  0.6266 -1.1774 -0.6082
  495MOL0     C66703  10.995  10.176   7.682  0.6041 -0.4405  0.5731
  495MOL0     C66704  10.970  10.205   7.829 -0.7375  0.1557 -0.1927
  495MOL0     C66705  11.068  10.305   7.886 -0.3500  0.1078 -0.2907
  495MOL0     C66706  11.223  10.275   7.892 -0.0593 -0.3461 -0.4177
  495MOL0     N66707  11.274  10.377   7.982 -0.4585  0.0106  0.2792
  495MOL0     C66708  11.295  10.351   8.118 -0.0971 -0.4232  0.7926
  495MOL0     C66709  11.356  10.462   8.167  0.4346 -0.9511 -0.1290
  495MOL0     C66710  11.392  10.493   8.306 -0.0437  0.9473 -0.1665
  495MOL0     C66711  11.361  10.629   8.358  1.1118 -0.2282 -0.4657
  495MOL0     C66712  11.209  10.660   8.346  0.6065  0.6410  0.4140
  495MOL0     C66713  11.167  10.797   8.406 -0.5906 -0.1705 -0.3980
  495MOL0     O66714  11.027  10.818   8.403 -0.2119  0.0490  0.1339
  495MOL0     C66715  10.965  10.903   8.489  0.3566  0.9892  0.2501
  495MOL0     C66716  11.042  10.996   8.555  0.2169  1.2523 -0.3550
  495MOL0     C66717  10.974  11.083   8.642  0.0868 -0.4060 -0.2983
  495MOL0     C66718  10.829  11.086   8.659 -0.6101  0.4070  0.2736
  495MOL0     C66719  10.763  11.188   8.746 -0.2644 -0.3782 -0.0235
  495MOL0     O66720  10.626  11.188   8.751 -0.2894 -0.5011  0.1430
  495MOL0     C66721  10.561  11.281   8.832 -0.1417  0.7713 -0.0020
  495MOL0     C66722  10.564  11.262   8.971 -0.1854  0.1064 -0.0908
  495MOL0     C66723  10.493  11.343   9.057 -0.0297 -0.2142  0.7671
  495MOL0     C66724  10.427  11.456   8.998 -0.4590 -0.5800  0.6748
  495MOL0     O66725  10.342  11.540   9.058  0.0646  0.1383  0.1899
  495MOL0     C66726  10.322  11.522   9.201 -0.0571  0.2775  0.5755
  495MOL0     C66727  10.225  11.624   9.258 -0.6395 -0.5723 -0.3149
  495MOL0     C66728  10.181  11.588   9.401  0.5084  0.4094  0.4538
  495MOL0     C66729  10.288  11.577   9.507 -0.6168 -0.5385  0.4523
  495MOL0     C66730  10.215  11.568   9.645 -0.9535 -0.6722  0.4488
  495MOL0     C66731  10.160  11.702   9.698 -0.5608 -0.0438 -0.8556
  495MOL0     C66732  10.112  11.689   9.838 -0.1994  0.1072 -1.1977
  495MOL0     C66733  10.100  11.826   9.915  1.2222  0.3473  0.0469
  495MOL0    Cl66734  10.256  11.899   9.948  0.2916 -0.5349 -0.2239
  495MOL0     C66735  10.427  11.470   8.856  0.2363  1.6317 -0.1641
  495MOL0     C66736  10.489  11.374   8.771 -0.5216 -0.7742 -0.6918
  495MOL0     O66737  10.833  11.273   8.791 -0.6900 -0.5571  0.1675
  495MOL0     C66738  10.757  10.988   8.589  0.0081  0.2275  0.6899
  495MOL0     C66739  10.825  10.898   8.500  0.1488 -1.0306 -0.1549
  495MOL0     N66740  11.384  10.544   8.058  0.1548 -0.1635 -0.5002
  495MOL0     N66741  11.337  10.485   7.951  0.3247 -0.9279 -0.5056
  495MOL0     C66742  10.471   9.815   7.593  1.0254  0.2753 -0.2818
  495MOL0     C66743  10.332   9.860   7.569 -0.0667  0.2099 -0.6706
  495MOL0     C66744   9.957   9.914   7.451 -0.4363  0.4541 -0.6428
  495MOL0     C66745   9.918  10.039   7.504  1.2202 -0.1837  0.2162
  495MOL0     C66746   9.799  10.054   7.578 -0.2089  0.8635  0.5411
  495MOL0     C66747   9.710   9.947   7.574  0.1053  0.1562  0.4590
  495MOL0     O66748   9.581   9.948   7.616 -0.6762 -0.5891 -0.3115
  495MOL0     C66749   9.527  10.076   7.644  1.0704 -0.3509  0.7301
  495MOL0     C66750   9.371  10.061   7.629 -0.6079  0.5694 -0.8618
  495MOL0     C66751   9.322   9.986   7.753  0.5531 -0.8909  0.2257
  495MOL0     C66752   9.166   9.998   7.767  0.3446 -0.0413 -0.8952
  495MOL0     C66753   9.113   9.907   7.870  0.1832 -0.5234 -0.0827
  495MOL0     C66754   9.081   9.837   7.962  0.8979  0.4076 -0.0668
  495MOL0     C66755   9.749   9.828   7.519  0.1941  0.4920 -0.2146
  495MOL0     C66756   9.865   9.808   7.452  1.0636  0.8638 -0.1901
  495MOL0     C66757   9.880   9.669   7.404  0.8195 -0.3411  0.3391
  495MOL0     H66758  10.399  10.091   7.314  0.7998  0.7399  0.4410
  495MOL0     H66759  10.617  10.045   7.375  0.8739 -0.6913 -1.2827
  495MOL0     H66760  10.735   9.842   7.730  1.8699 -2.0891  1.7089
  495MOL0     H66761  10.730   9.685   7.655  2.7459 -1.0983 -0.5930
  495MOL0     H66762  10.931   9.769   7.520 -5.1854  0.4046 -1.4299
  495MOL0     H66763  10.951   9.702   7.681  0.6942 -0.8587 -1.4314
  495MOL0     H66764  11.089   9.917   7.629  1.3423 -0.1786  0.4107
  495MOL0     H66765  11.014   9.901   7.782  1.6927 -2.8455  0.1735
  495MOL0     H66766  10.898  10.054   7.536  0.2065 -0.7667 -0.4955
  495MOL0     H66767  10.832  10.036   7.709  1.5546  1.4310  1.1580
  495MOL0     H66768  11.102  10.163   7.665  0.1497  0.1570 -3.7279
  495MOL0     H66769  10.954  10.262   7.629 -0.2537 -0.4417  1.2056
  495MOL0     H66770  10.872  10.248   7.850 -0.8542 -0.1829 -0.0352
  495MOL0     H66771  10.989  10.117   7.891  0.7458  1.3378  1.1024
  495MOL0     H66772  11.025  10.326   7.984 -0.7006 -1.0309 -0.1888
  495MOL0     H66773  11.067  10.402   7.835  0.9777  0.8334  0.9773
  495MOL0     H66774  11.250  10.178   7.935 -0.7971 -1.3162 -2.0525
  495MOL0     H66775  11.273  10.293   7.797  1.2268  0.1643  0.3262
  495MOL0     H66776  11.273  10.262   8.175 -0.4767 -0.4924  0.5424
  495MOL0     H66777  11.340  10.417   8.365 -1.8064  2.8371  0.8931
  495MOL0     H66778  11.500  10.481   8.321 -0.2467  1.2318  1.6880
  495MOL0     H66779  11.394  10.644   8.461 -1.6622 -0.4002  0.5267
  495MOL0     H66780  11.417  10.702   8.299  1.6538  0.2241  0.5768
  495MOL0     H66781  11.146  10.584   8.392 -0.9891 -0.2001 -2.8506
  495MOL0     H66782  11.194  10.661   8.238  1.1603  0.1639  0.3287
  495MOL0     H66783  11.224  10.880   8.365  0.3672  0.5620  2.2292
  495MOL0     H66784  11.205  10.796   8.509  0.9643 -2.9015 -0.8979
  495MOL0     H66785  11.146  11.017   8.532 -0.1388  2.3454 -1.0525
  495MOL0     H66786  11.025  11.161   8.698  4.0059 -1.0686 -2.5846
  495MOL0     H66787  10.611  11.173   9.011  1.1937  0.1717 -1.4524
  495MOL0     H66788  10.495  11.319   9.163  1.1697 -0.0046  0.8118
  495MOL0     H66789  10.284  11.423   9.230  0.7660  0.1538  1.2593
  495MOL0     H66790  10.413  11.541   9.259 -0.1375  0.7753  0.5372
  495MOL0     H66791  10.275  11.721   9.252 -2.4390  0.4576  0.4449
  495MOL0     H66792  10.139  11.642   9.192 -1.6091 -1.3833  0.6832
  495MOL0     H66793  10.098  11.653   9.430 -2.0532 -1.6609 -1.5734
  495MOL0     H66794  10.129  11.492   9.385 -1.3701  1.6946 -2.0178
  495MOL0     H66795  10.357  11.661   9.496 -1.2258  0.0409  0.9734
  495MOL0     H66796  10.358  11.493   9.496  3.2147  2.2473  1.4963
  495MOL0     H66797  10.289  11.534   9.717  1.5190  3.6478  0.2629
  495MOL0     H66798  10.131  11.498   9.653 -1.2207 -0.4964 -0.5806
  495MOL0     H66799  10.233  11.779   9.676  0.6800 -0.8577  0.2610
  495MOL0     H66800  10.070  11.734   9.645 -0.5918 -1.8773 -2.0207
  495MOL0     H66801  10.183  11.623   9.889 -1.0901  0.8952  1.1995
  495MOL0     H66802  10.014  11.643   9.831 -0.3690 -0.1023  1.3635
  495MOL0     H66803  10.044  11.905   9.865  1.2859  0.0888 -0.4377
  495MOL0     H66804  10.055  11.813  10.014  1.8497  0.3269  0.3337
  495MOL0     H66805  10.365  11.542   8.806  0.0878 -0.5604 -3.4254
  495MOL0     H66806  10.489  11.377   8.663  0.9477 -2.2279 -0.7695
  495MOL0     H66807  10.648  10.981   8.591  0.0037  0.0635 -0.0096
  495MOL0     H66808  10.757  10.823   8.462 -1.5793  0.8205 -0.8393
  495MOL0     H66809  10.494   9.725   7.648 -3.4367  0.4547  2.3099
  495MOL0     H66810  10.258   9.807   7.628 -0.5274 -0.9038 -2.2067
  495MOL0     H66811   9.982  10.126   7.501  0.9440  0.1011  1.7857
  495MOL0     H66812   9.774  10.152   7.619  1.5779  1.6655 -0.1755
  495MOL0     H66813   9.555  10.145   7.564 -0.5157 -0.1430  0.3030
  495MOL0     H66814   9.572  10.127   7.729 -1.0436  4.1175 -0.5015
  495MOL0     H66815   9.356  10.012   7.532  1.0826 -2.5248  0.2924
  495MOL0     H66816   9.318  10.157   7.631 -3.7201 -1.0327  0.2935
  495MOL0     H66817   9.370  10.031   7.840  3.6969 -0.5172 -1.5412
  495MOL0     H66818   9.346   9.879   7.748 -0.0244 -1.1226  1.8240
  495MOL0     H66819   9.137  10.099   7.795  1.6079  0.7041 -2.1672
  495MOL0     H66820   9.115   9.972   7.674 -0.8061  0.2864 -0.3697
  495MOL0     H66821   9.043   9.774   8.041  0.3396  0.6308 -0.1524
  495MOL0     H66822   9.676   9.749   7.499  3.8242 -3.6510  1.2211
  495MOL0     H66823   9.810   9.590   7.428 -2.0985  1.4563 -1.6004
  495MOL0     H66824   9.884   9.672   7.294  0.1993 -0.0504  0.3246
  495MOL0     H66825   9.982   9.640   7.431  1.2213  1.0192  0.3956
  496MOL0     O66826   3.111   5.247   9.455 -0.3475 -0.5940  0.2330
  496MOL0     C66827   2.995   5.281   9.481 -0.8140 -1.3363  0.5146
  496MOL0     O66828   2.945   5.261   9.607  0.0894  0.0052  0.7462
  496MOL0     C66829   3.038   5.248   9.709  1.2100 -0.0471 -0.3136
  496MOL0     C66830   3.023   5.135   9.794 -0.2285 -1.6736  0.1183
  496MOL0     C66831   3.103   5.119   9.910 -0.3790 -0.1223 -0.1181
  496MOL0     C66832   3.223   5.207   9.936 -0.6831 -0.5293 -0.0236
  496MOL0     O66833   3.327   5.193  10.031 -0.7822  0.3022  0.0580
  496MOL0     C66834   3.333   5.063  10.094 -1.2221  0.2185 -0.9407
  496MOL0     C66835   3.480   5.053  10.153 -0.1482 -0.4838  0.0181
  496MOL0     C66836   3.515   4.913  10.192 -0.4119  0.1934  0.7369
  496MOL0     C66837   3.636   4.910  10.298 -0.6743 -0.5304  0.3401
  496MOL0     C66838   3.669   4.766  10.338  0.8213  0.5869 -0.3923
  496MOL0     C66839   3.783   4.758  10.443  0.3327 -0.2267 -0.7447
  496MOL0     C66840   3.918   4.812  10.397 -0.0604 -0.6463 -0.9167
  496MOL0     C66841   4.012   4.725  10.308  0.2954 -0.5787 -0.4220
  496MOL0     N66842   4.062   4.612  10.389  0.3917 -0.2564  0.8647
  496MOL0     C66843   4.011   4.485  10.419 -0.7177 -0.3242  0.7278
  496MOL0     C66844   4.107   4.421  10.498 -1.2843 -0.6625  0.1350
  496MOL0     C66845   4.118   4.287  10.570 -0.1534  0.0692  0.0987
  496MOL0     C66846   3.983   4.236  10.625 -0.9612  0.9172 -0.3888
  496MOL0     C66847   3.910   4.327  10.724  0.0487 -0.5580  0.3029
  496MOL0     C66848   3.763   4.379  10.689  0.5578  0.3575  0.5540
  496MOL0     O66849   3.691   4.438  10.799  0.7514 -0.8171 -0.8513
  496MOL0     C66850   3.556   4.448  10.794  0.1624 -0.0419  1.2684
  496MOL0     C66851   3.481   4.455  10.670 -0.5351 -0.2768 -0.1253
  496MOL0     C66852   3.344   4.470  10.673 -0.3312 -0.5434  1.4067
  496MOL0     C66853   3.274   4.494  10.797 -0.2313 -0.0945 -0.0969
  496MOL0     C66854   3.131   4.510  10.798 -0.2452  0.9826 -1.1336
  496MOL0     O66855   3.058   4.510  10.684 -0.3516  0.4378 -0.2987
  496MOL0     C66856   2.936   4.571  10.670 -0.4701  0.1504 -0.0445
  496MOL0     C66857   2.836   4.511  10.585 -0.6402 -0.1156  0.2966
  496MOL0     C66858   2.718   4.577  10.560 -0.2733 -0.4886  0.8230
  496MOL0     C66859   2.687   4.702  10.621  0.6211  0.2067  0.0501
  496MOL0     O66860   2.583   4.776  10.580  0.5239  0.0874  0.3232
  496MOL0     C66861   2.556   4.917  10.618 -0.2863 -0.8450  1.0857
  496MOL0     C66862   2.423   4.966  10.563  0.4082 -0.3397 -1.0181
  496MOL0     C66863   2.399   5.117  10.558  0.2322 -0.2714 -0.0626
  496MOL0     C66864   2.281   5.163  10.475  2.0005  0.1651  0.1566
  496MOL0     C66865   2.307   5.173  10.325 -0.8271  1.6429  0.8541
  496MOL0     C66866   2.195   5.249  10.260 -0.1340 -0.1193  0.4040
  496MOL0     C66867   2.235   5.316  10.136 -0.5299  0.6299  0.4895
  496MOL0     C66868   2.280   5.215  10.026 -0.7097  0.0795  1.2825
  496MOL0    Cl66869   2.143   5.145   9.938  0.2385 -0.1424 -0.3257
  496MOL0     C66870   2.782   4.752  10.712 -0.3262 -0.7020 -0.1088
  496MOL0     C66871   2.905   4.688  10.743  0.3966 -0.1546  0.2820
  496MOL0     O66872   3.088   4.538  10.905  0.4557  0.3781 -0.1766
  496MOL0     C66873   3.345   4.494  10.918  0.1617 -0.4606 -0.1448
  496MOL0     C66874   3.487   4.464  10.919  1.0225 -0.4701 -0.4205
  496MOL0     N66875   4.216   4.510  10.501  0.8121 -0.2223 -0.2513
  496MOL0     N66876   4.179   4.622  10.447 -0.5478  0.2130  0.0366
  496MOL0     C66877   3.223   5.316   9.857 -0.3781 -0.1863 -0.5697
  496MOL0     C66878   3.134   5.339   9.746  0.3010 -0.5453 -0.0588
  496MOL0     C66879   2.907   5.320   9.368  1.0567 -0.6341  0.7851
  496MOL0     C66880   2.801   5.232   9.334 -1.2713 -0.2043  0.0741
  496MOL0     C66881   2.724   5.256   9.223 -0.1408 -0.0270  0.5476
  496MOL0     C66882   2.745   5.375   9.158  0.4100 -0.1456  0.9242
  496MOL0     O66883   2.669   5.402   9.053 -0.4622  0.7182  0.5086
  496MOL0     C66884   2.734   5.374   8.925 -0.2848 -0.1382 -0.4927
  496MOL0     C66885   2.674   5.452   8.807 -0.1231  0.1374  0.1432
  496MOL0     C66886   2.531   5.402   8.784  0.4667  0.2690 -0.4623
  496MOL0     C66887   2.481   5.460   8.649  0.5100 -0.2348  0.2584
  496MOL0     C66888   2.457   5.609   8.638 -0.1337  0.3809  0.5770
  496MOL0     C66889   2.465   5.730   8.613  0.1272  0.6034  1.2362
  496MOL0     C66890   2.847   5.463   9.195 -0.8474  0.7543 -0.6920
  496MOL0     C66891   2.930   5.441   9.305  0.2583 -0.4030 -0.1960
  496MOL0     C66892   3.046   5.533   9.349 -0.3001 -0.1626 -0.8718
  496MOL0     H66893   2.943   5.068   9.762 -1.0283 -0.7986  0.2468
  496MOL0     H66894   3.096   5.025   9.965  1.5479  0.2748  0.9034
  496MOL0     H66895   3.252   5.059  10.168 -1.1818  0.7433 -0.8654
  496MOL0     H66896   3.315   4.988  10.016 -4.8398  1.8955 -1.9528
  496MOL0     H66897   3.481   5.110  10.246 -0.1483 -0.2165 -0.1441
  496MOL0     H66898   3.551   5.097  10.083  0.9285  0.1751  1.4744
  496MOL0     H66899   3.542   4.854  10.103  2.8149  1.8448  0.4471
  496MOL0     H66900   3.427   4.861  10.232 -0.7432  0.4199  0.3083
  496MOL0     H66901   3.732   4.941  10.257 -0.0914 -3.5973 -0.8799
  496MOL0     H66902   3.608   4.966  10.387 -2.2783 -1.8637  0.7349
  496MOL0     H66903   3.585   4.715  10.385  1.3708 -0.3088 -0.3541
  496MOL0     H66904   3.694   4.703  10.252 -0.2968 -0.5711  0.0981
  496MOL0     H66905   3.765   4.822  10.529  0.5855 -1.3733  0.1874
  496MOL0     H66906   3.793   4.656  10.481  0.8138 -0.6725 -1.9989
  496MOL0     H66907   3.975   4.827  10.489 -0.6827 -1.3435 -0.4051
  496MOL0     H66908   3.916   4.909  10.346  2.5751 -0.3349 -0.5498
  496MOL0     H66909   3.954   4.673  10.231 -0.2114 -0.1952 -0.3042
  496MOL0     H66910   4.085   4.790  10.260 -0.3486  0.4080 -0.0950
  496MOL0     H66911   3.913   4.457  10.381 -0.6558  1.9038 -1.3383
  496MOL0     H66912   4.154   4.204  10.508  2.4323 -0.9894  2.7909
  496MOL0     H66913   4.184   4.290  10.658 -0.7112 -2.9196  0.7089
  496MOL0     H66914   3.931   4.238  10.528 -1.9396 -1.0056  0.0618
  496MOL0     H66915   3.988   4.139  10.673 -0.6023  1.4803  0.7431
  496MOL0     H66916   3.962   4.420  10.747 -1.4962  0.0706  1.4060
  496MOL0     H66917   3.906   4.264  10.814  3.2684 -1.5287 -0.1202
  496MOL0     H66918   3.703   4.295  10.653 -1.0127  1.4342  0.5627
  496MOL0     H66919   3.765   4.465  10.620  2.1191  1.0302  1.3818
  496MOL0     H66920   3.539   4.464  10.579  0.6518  0.3509  0.6707
  496MOL0     H66921   3.285   4.481  10.583  1.6204  0.1224  0.1455
  496MOL0     H66922   2.870   4.426  10.526 -0.6575  0.4004 -0.4796
  496MOL0     H66923   2.655   4.530  10.485 -0.2920  0.3312  0.3028
  496MOL0     H66924   2.545   4.944  10.724 -0.5413  3.5185  0.1328
  496MOL0     H66925   2.623   4.989  10.570 -1.8490 -0.2844 -0.3703
  496MOL0     H66926   2.406   4.925  10.463  0.6354 -1.5661 -0.5740
  496MOL0     H66927   2.334   4.917  10.604  0.6248 -0.9110 -1.2217
  496MOL0     H66928   2.377   5.130  10.665  2.2570  2.3395  0.1062
  496MOL0     H66929   2.489   5.175  10.537  0.9606 -1.0534  0.7853
  496MOL0     H66930   2.249   5.254  10.527  0.9161  0.0610 -0.3058
  496MOL0     H66931   2.191   5.103  10.493 -0.5322  2.2299 -4.0074
  496MOL0     H66932   2.308   5.075  10.277 -3.9563  3.0902 -2.6960
  496MOL0     H66933   2.403   5.223  10.307 -1.3855  2.4466  0.0104
  496MOL0     H66934   2.105   5.187  10.261 -1.2510  1.4525  1.1704
  496MOL0     H66935   2.174   5.326  10.335  1.5029  1.0969 -0.3003
  496MOL0     H66936   2.327   5.374  10.150  0.4497 -0.9997  1.0480
  496MOL0     H66937   2.159   5.381  10.092  0.3064  0.0209 -2.0324
  496MOL0     H66938   2.341   5.263   9.949 -1.1654 -2.9920 -1.1385
  496MOL0     H66939   2.354   5.146  10.067  0.9393  0.0947 -1.4903
  496MOL0     H66940   2.766   4.855  10.741 -1.3086 -0.7502 -0.4205
  496MOL0     H66941   2.975   4.728  10.816 -1.0168  0.8298  1.1469
  496MOL0     H66942   3.305   4.508  11.017  1.4410 -0.1359  0.3451
  496MOL0     H66943   3.534   4.476  11.016  1.3885 -1.1559 -0.5080
  496MOL0     H66944   3.284   5.405   9.867 -0.1580 -0.2840 -1.0253
  496MOL0     H66945   3.151   5.432   9.692  2.3313  2.6052  5.2010
  496MOL0     H66946   2.781   5.137   9.383  0.9606 -0.8781 -0.2041
  496MOL0     H66947   2.636   5.199   9.193  0.3068 -0.7831  0.6420
  496MOL0     H66948   2.744   5.267   8.903  1.6106  0.0099 -0.5662
  496MOL0     H66949   2.840   5.398   8.933  0.0343 -1.3879 -0.6485
  496MOL0     H66950   2.723   5.427   8.712  0.6614  2.2220 -0.0479
  496MOL0     H66951   2.682   5.558   8.832 -0.5146 -0.4586  3.3039
  496MOL0     H66952   2.457   5.437   8.857 -1.3085  1.8292 -2.8747
  496MOL0     H66953   2.516   5.295   8.768  0.5587  0.4313 -1.7515
  496MOL0     H66954   2.543   5.413   8.572 -1.9168  1.4811 -2.9713
  496MOL0     H66955   2.381   5.416   8.649 -1.0448  2.8183 -2.9666
  496MOL0     H66956   2.489   5.832   8.592  4.5003 -0.8331 -2.2187
  496MOL0     H66957   2.855   5.557   9.141 -1.7200 -0.2633 -2.7056
  496MOL0     H66958   3.012   5.611   9.418  2.5567 -0.6924  1.3333
  496MOL0     H66959   3.128   5.481   9.399 -1.5047 -1.2810 -0.0038
  496MOL0     H66960   3.082   5.567   9.251 -2.5028 -1.3818 -2.1867
  497MOL0     O66961   7.688  11.348   1.321  0.3005 -0.1038  0.1278
  497MOL0     C66962   7.729  11.461   1.297 -0.1897  0.0192 -0.4156
  497MOL0     O66963   7.833  11.495   1.217  0.6488  0.5395  0.3738
  497MOL0     C66964   7.859  11.393   1.119  0.1401  0.6386  0.7035
  497MOL0     C66965   7.807  11.390   0.984 -0.2952 -0.6289  0.6512
  497MOL0     C66966   7.840  11.287   0.895 -1.1700  0.1611  0.5434
  497MOL0     C66967   7.935  11.193   0.927  0.2742  0.7081 -0.0715
  497MOL0     O66968   7.966  11.097   0.835  0.2785 -0.3392  0.3023
  497MOL0     C66969   7.971  10.964   0.886  0.5138  0.0938  0.0093
  497MOL0     C66970   7.978  10.872   0.772 -0.6969  0.6923  0.2096
  497MOL0     C66971   8.007  10.726   0.820 -0.4453 -0.0785  0.6587
  497MOL0     C66972   8.159  10.687   0.838  0.1989  0.5563  0.2412
  497MOL0     C66973   8.182  10.559   0.920  0.6528 -0.3902  0.3155
  497MOL0     C66974   8.331  10.530   0.917 -0.7509 -0.2268 -1.0024
  497MOL0     C66975   8.365  10.428   1.025 -0.4879  0.0652  0.3533
  497MOL0     C66976   8.279  10.297   1.021  0.0082  0.3749 -0.5984
  497MOL0     N66977   8.343  10.212   1.111  0.5017  0.2706 -0.6730
  497MOL0     C66978   8.379  10.081   1.077  0.5629  0.4736 -0.2794
  497MOL0     C66979   8.416  10.027   1.196 -0.2316  0.4270 -0.4354
  497MOL0     C66980   8.452   9.888   1.217  0.3060 -0.4366 -0.1699
  497MOL0     C66981   8.419   9.839   1.355 -0.4104 -0.0360 -0.0758
  497MOL0     C66982   8.420   9.689   1.353 -0.6124  0.9640  0.1267
  497MOL0     C66983   8.414   9.614   1.488 -0.4777 -0.0515 -0.6382
  497MOL0     O66984   8.274   9.614   1.532 -0.2396 -0.1809  0.0710
  497MOL0     C66985   8.226   9.693   1.634 -0.9149 -0.5610  0.5093
  497MOL0     C66986   8.287   9.807   1.686 -0.3653  0.8095 -0.5544
  497MOL0     C66987   8.239   9.869   1.799  0.1123  0.1874 -0.5248
  497MOL0     C66988   8.118   9.829   1.860  0.3579 -0.0008 -1.6513
  497MOL0     C66989   8.065   9.906   1.980  0.3143  0.5174  0.1694
  497MOL0     O66990   8.147   9.999   2.042  0.1514  1.0258 -0.1702
  497MOL0     C66991   8.117  10.037   2.167  0.1752 -0.0029  0.2189
  497MOL0     C66992   8.070   9.941   2.260 -0.2195 -0.2104 -0.5240
  497MOL0     C66993   8.017   9.987   2.386 -0.0292 -0.3113 -0.3487
  497MOL0     C66994   8.001  10.123   2.416 -0.5637  0.3785 -0.8030
  497MOL0     O66995   7.941  10.144   2.532 -0.0443 -0.3582 -0.6006
  497MOL0     C66996   7.926  10.279   2.563 -0.1951 -0.0166 -0.1436
  497MOL0     C66997   7.874  10.294   2.701  0.9918 -0.2925  0.5342
  497MOL0     C66998   7.822  10.436   2.723  0.2339 -0.7676  0.7081
  497MOL0     C66999   7.797  10.466   2.865 -0.5007  0.3258  0.5300
  497MOL0     C67000   7.777  10.612   2.911  0.4835 -0.7642 -0.3525
  497MOL0     C67001   7.724  10.602   3.059  0.2559  0.5560 -1.3775
  497MOL0     C67002   7.618  10.708   3.109 -0.8601 -0.4677  0.1296
  497MOL0     C67003   7.660  10.837   3.069 -0.0237 -0.5128  0.7790
  497MOL0    Cl67004   7.534  10.957   3.106  0.2288  0.0893 -0.4252
  497MOL0     C67005   8.040  10.220   2.319  0.4044 -0.2705 -0.5629
  497MOL0     C67006   8.103  10.175   2.202  0.0806 -0.0597  0.0871
  497MOL0     O67007   7.950   9.877   2.022  0.5939 -0.2232  0.2551
  497MOL0     C67008   8.056   9.719   1.800  0.3644 -0.2443 -0.5759
  497MOL0     C67009   8.106   9.658   1.692 -1.1039  0.8924  0.6078
  497MOL0     N67010   8.395  10.113   1.305 -0.0551 -0.0700 -0.6319
  497MOL0     N67011   8.347  10.228   1.249  0.3681  1.3756  0.3949
  497MOL0     C67012   7.977  11.186   1.062  0.5632 -0.8755 -0.4204
  497MOL0     C67013   7.939  11.286   1.153  0.3169 -0.0320  0.4313
  497MOL0     C67014   7.689  11.570   1.395 -0.5300 -0.1596 -0.8552
  497MOL0     C67015   7.670  11.542   1.536 -0.7208 -0.6329 -0.0103
  497MOL0     C67016   7.647  11.642   1.633  0.3724  1.4382 -0.5573
  497MOL0     C67017   7.643  11.779   1.600 -0.1415 -0.7507 -0.5100
  497MOL0     O67018   7.618  11.884   1.685 -0.0097 -0.1403 -0.2923
  497MOL0     C67019   7.476  11.883   1.727 -0.2354  0.5441 -1.0507
  497MOL0     C67020   7.467  11.984   1.838  0.6748 -1.0688 -0.6316
  497MOL0     C67021   7.501  11.926   1.979 -0.4640 -0.4353 -0.2283
  497MOL0     C67022   7.517  12.029   2.091 -0.0940  0.4885 -0.2389
  497MOL0     C67023   7.570  11.955   2.198  0.2653 -0.5922 -0.3392
  497MOL0     C67024   7.598  11.904   2.305  0.6024  0.2659 -0.6066
  497MOL0     C67025   7.662  11.809   1.465  0.6626 -0.7461  1.6260
  497MOL0     C67026   7.700  11.712   1.366  0.8628 -0.3242  0.0168
  497MOL0     C67027   7.721  11.777   1.233 -0.3252 -0.1985 -1.6715
  497MOL0     H67028   7.751  11.477   0.952 -0.4336 -0.5692  1.0444
  497MOL0     H67029   7.805  11.275   0.792  1.2809  0.4005 -0.3734
  497MOL0     H67030   8.060  10.955   0.950  0.1593 -1.9890  0.2732
  497MOL0     H67031   7.876  10.944   0.935 -0.8098 -0.3550 -2.5416
  497MOL0     H67032   8.066  10.889   0.709  0.0911 -0.9759  0.8037
  497MOL0     H67033   7.882  10.878   0.720 -0.1965  0.7382 -0.7226
  497MOL0     H67034   7.978  10.650   0.748  5.4983 -2.2622  0.0174
  497MOL0     H67035   7.969  10.715   0.922  0.2034  1.2362  1.0722
  497MOL0     H67036   8.198  10.657   0.740  1.5826  0.1721  0.8793
  497MOL0     H67037   8.209  10.781   0.864  2.5308  0.1201 -2.2106
  497MOL0     H67038   8.136  10.579   1.017  2.3307 -0.7143  1.1994
  497MOL0     H67039   8.126  10.475   0.877 -0.5728  0.3076  0.4900
  497MOL0     H67040   8.368  10.511   0.816 -1.9667  4.1210 -2.4863
  497MOL0     H67041   8.394  10.615   0.946  0.2237 -1.9913  2.6267
  497MOL0     H67042   8.365  10.467   1.127 -1.8812 -1.6184  1.0330
  497MOL0     H67043   8.468  10.400   1.000 -1.2403 -0.4907 -2.5302
  497MOL0     H67044   8.181  10.326   1.060 -2.1602 -0.0299 -5.1810
  497MOL0     H67045   8.268  10.250   0.923  3.5325 -0.3455 -0.8005
  497MOL0     H67046   8.364  10.042   0.977  0.1035  0.4311 -0.1941
  497MOL0     H67047   8.390   9.837   1.142 -2.7769  0.1471  1.7896
  497MOL0     H67048   8.558   9.873   1.194  0.4636  0.1987  0.1427
  497MOL0     H67049   8.488   9.887   1.425 -1.1993  1.1019 -0.0485
  497MOL0     H67050   8.323   9.877   1.393  0.6993  1.0229  1.8395
  497MOL0     H67051   8.510   9.645   1.309  1.0389  1.9101  2.3371
  497MOL0     H67052   8.334   9.667   1.290  0.5879  1.0517 -1.6065
  497MOL0     H67053   8.487   9.653   1.560 -0.8233  1.0108 -0.8481
  497MOL0     H67054   8.439   9.509   1.469 -0.8716  0.0107 -1.5208
  497MOL0     H67055   8.385   9.839   1.653 -0.1781  1.7382  0.7971
  497MOL0     H67056   8.296   9.946   1.851 -2.4441  0.9812  1.2874
  497MOL0     H67057   8.077   9.833   2.246 -0.0183 -0.0684 -1.5455
  497MOL0     H67058   7.998   9.911   2.462 -0.4337  0.5881  0.4721
  497MOL0     H67059   8.024  10.328   2.565 -0.3061  0.1795  0.9865
  497MOL0     H67060   7.860  10.312   2.482  0.8918  0.7989 -0.7175
  497MOL0     H67061   7.787  10.231   2.719 -0.1487  1.3772  1.1315
  497MOL0     H67062   7.954  10.270   2.771  0.9357 -4.3868 -0.5699
  497MOL0     H67063   7.899  10.508   2.694  0.9122 -1.4090  0.8842
  497MOL0     H67064   7.732  10.462   2.666 -0.9197  0.8963  3.1336
  497MOL0     H67065   7.888  10.434   2.916  1.5030  0.8286 -2.4788
  497MOL0     H67066   7.727  10.390   2.900  1.6275 -0.9645  2.2311
  497MOL0     H67067   7.708  10.658   2.840  0.2530 -2.4063 -1.2389
  497MOL0     H67068   7.871  10.668   2.908 -0.4526  0.8479 -0.9778
  497MOL0     H67069   7.672  10.506   3.065  2.6432 -0.7493  0.4649
  497MOL0     H67070   7.810  10.584   3.124 -1.2427  0.2010  0.6035
  497MOL0     H67071   7.621  10.700   3.218 -1.4416  0.9197  0.2624
  497MOL0     H67072   7.520  10.679   3.071 -0.7164  0.3223 -0.8741
  497MOL0     H67073   7.752  10.865   3.121 -0.2294  1.0706  0.3478
  497MOL0     H67074   7.668  10.844   2.960 -1.4263 -1.4061  0.5945
  497MOL0     H67075   8.040  10.328   2.326 -4.4439 -0.0188 -1.3653
  497MOL0     H67076   8.139  10.251   2.133  0.8868 -1.2604 -0.8625
  497MOL0     H67077   7.971   9.669   1.846  0.7622  0.6464  1.2158
  497MOL0     H67078   8.056   9.569   1.658 -2.1613  2.2934 -1.7573
  497MOL0     H67079   8.047  11.105   1.080  2.0943  0.0601 -1.8346
  497MOL0     H67080   7.967  11.277   1.258  1.8766  1.4664  0.1836
  497MOL0     H67081   7.689  11.444   1.581  1.5185 -0.6667 -0.9144
  497MOL0     H67082   7.649  11.608   1.736  1.7886 -2.6204 -1.7281
  497MOL0     H67083   7.439  11.782   1.744 -1.6576  0.6309 -3.1787
  497MOL0     H67084   7.418  11.926   1.644 -0.1471  1.2432 -0.7608
  497MOL0     H67085   7.369  12.034   1.834  2.1738  2.5810  2.0809
  497MOL0     H67086   7.532  12.071   1.821  0.2636 -0.7080 -0.3758
  497MOL0     H67087   7.590  11.863   1.965 -0.9400 -0.8601 -1.5103
  497MOL0     H67088   7.422  11.857   2.009 -1.5886 -0.3728 -2.7722
  497MOL0     H67089   7.595  12.104   2.076  1.2276  0.3847  4.4267
  497MOL0     H67090   7.423  12.078   2.115  0.1689 -0.6692  3.8797
  497MOL0     H67091   7.603  11.850   2.397  0.4273  0.8667 -0.2402
  497MOL0     H67092   7.646  11.913   1.439  1.6032 -0.9021  0.2972
  497MOL0     H67093   7.746  11.882   1.249 -4.2393  0.3861  2.5915
  497MOL0     H67094   7.805  11.729   1.181  0.3106 -1.9682  0.8079
  497MOL0     H67095   7.631  11.775   1.171  0.9174 -2.4519 -3.5972
  498MOL0     O67096   8.860   6.819   2.943  0.1792  0.6534  1.1924
  498MOL0     C67097   8.912   6.920   2.891 -0.0195  0.8746 -0.1973
  498MOL0     O67098   8.867   6.984   2.789  0.4496 -0.7976  0.4722
  498MOL0     C67099   8.746   6.966   2.732 -0.7488 -0.1115 -0.2633
  498MOL0     C67100   8.733   6.857   2.640  0.6122  1.2305  0.2833
  498MOL0     C67101   8.619   6.836   2.567  0.7561  0.3235 -0.5904
  498MOL0     C67102   8.503   6.903   2.605  0.5048 -1.1372  0.0518
  498MOL0     O67103   8.376   6.885   2.536 -0.3384  0.8881  0.6738
  498MOL0     C67104   8.375   6.817   2.409 -0.1786 -0.4236  0.4108
  498MOL0     C67105   8.449   6.901   2.307 -0.4165 -0.1471  0.3096
  498MOL0     C67106   8.348   7.000   2.244 -0.2560 -0.0761 -0.7651
  498MOL0     C67107   8.347   7.136   2.313  0.6427  0.2281  0.6066
  498MOL0     C67108   8.248   7.232   2.272 -0.0762  0.4317 -0.1088
  498MOL0     C67109   8.297   7.379   2.311 -0.1183 -0.7952  0.5691
  498MOL0     C67110   8.177   7.473   2.275 -1.6140 -0.4679 -1.0910
  498MOL0     C67111   8.224   7.613   2.291  0.3159 -0.4830  0.0699
  498MOL0     N67112   8.123   7.711   2.247  0.9625 -0.3809 -0.1045
  498MOL0     C67113   8.087   7.727   2.115  0.4399  0.3809 -0.0079
  498MOL0     C67114   7.977   7.810   2.118  0.6268 -0.2580  0.4076
  498MOL0     C67115   7.908   7.869   1.997 -1.1024 -0.0851 -0.1363
  498MOL0     C67116   8.013   7.923   1.894 -0.2312  0.1171 -0.6752
  498MOL0     C67117   7.941   7.996   1.780 -0.6147  0.6821 -0.5489
  498MOL0     C67118   8.043   8.080   1.699 -0.3153  0.1746  0.5995
  498MOL0     O67119   8.007   8.113   1.564  0.5338 -0.2837  0.4232
  498MOL0     C67120   7.928   8.218   1.524 -0.4500  0.3457  0.2539
  498MOL0     C67121   7.875   8.201   1.400 -0.6699 -0.2792 -0.5018
  498MOL0     C67122   7.788   8.297   1.347 -0.1665 -0.2139 -0.8624
  498MOL0     C67123   7.751   8.412   1.423 -0.0766  0.6199  1.1544
  498MOL0     C67124   7.655   8.515   1.365  0.3115 -0.8201  1.0260
  498MOL0     O67125   7.565   8.463   1.269 -0.2189  0.5925  0.3243
  498MOL0     C67126   7.460   8.524   1.203 -0.4387 -0.2970  0.2888
  498MOL0     C67127   7.342   8.451   1.190 -1.4793 -0.9062 -0.0432
  498MOL0     C67128   7.238   8.508   1.114 -0.0729  0.2253  0.0197
  498MOL0     C67129   7.249   8.637   1.058  0.0717  0.3242  0.5539
  498MOL0     O67130   7.147   8.696   0.984 -0.2130  0.0524 -0.2174
  498MOL0     C67131   7.018   8.695   1.046  0.0203  0.6379  0.4968
  498MOL0     C67132   6.952   8.817   0.985 -0.0077 -0.4303 -1.7430
  498MOL0     C67133   6.794   8.792   1.010 -0.0876 -0.3719  0.9708
  498MOL0     C67134   6.726   8.696   0.908  0.0429 -0.2831  0.5796
  498MOL0     C67135   6.579   8.681   0.921  0.0666 -0.0883 -0.9394
  498MOL0     C67136   6.508   8.819   0.926 -0.3811  0.5378  0.5427
  498MOL0     C67137   6.359   8.810   0.884 -0.3964  1.0497  0.3973
  498MOL0     C67138   6.279   8.751   1.002  0.2733 -1.3040  0.1360
  498MOL0    Cl67139   6.240   8.879   1.111  0.1510 -0.1122  0.0482
  498MOL0     C67140   7.364   8.701   1.078 -0.3390 -1.0547 -0.1404
  498MOL0     C67141   7.469   8.648   1.147  0.2330  1.0326 -0.3029
  498MOL0     O67142   7.649   8.618   1.419  1.1521 -0.2440 -0.1232
  498MOL0     C67143   7.802   8.421   1.547  0.0129  0.5567  0.2840
  498MOL0     C67144   7.887   8.328   1.602 -0.8205  0.1623  0.7051
  498MOL0     N67145   7.950   7.849   2.246  0.4485  0.5713 -0.2788
  498MOL0     N67146   8.042   7.794   2.322 -0.0756  0.6483  0.7067
  498MOL0     C67147   8.506   7.004   2.707 -0.9321  0.5921 -0.4012
  498MOL0     C67148   8.633   7.042   2.767  0.5518  1.3066 -0.0322
  498MOL0     C67149   9.046   6.945   2.964  1.3377  1.2703 -0.0923
  498MOL0     C67150   9.054   6.923   3.104  0.7150  0.1816  0.3044
  498MOL0     C67151   9.165   6.961   3.172  1.0080  1.2597 -0.4197
  498MOL0     C67152   9.280   7.010   3.115  0.1624 -0.2404 -1.3979
  498MOL0     O67153   9.380   7.053   3.201  0.1234 -1.1013 -0.1497
  498MOL0     C67154   9.476   7.130   3.136 -0.3809 -0.6239  0.0054
  498MOL0     C67155   9.549   7.205   3.247  0.5442  0.0296  0.4680
  498MOL0     C67156   9.686   7.256   3.197 -0.2087  0.3504  1.4032
  498MOL0     C67157   9.740   7.370   3.294  0.2044 -0.5651 -0.9838
  498MOL0     C67158   9.763   7.314   3.429  0.0824 -0.2670 -0.6854
  498MOL0     C67159   9.792   7.277   3.542 -0.3518 -0.5179 -0.8377
  498MOL0     C67160   9.277   7.013   2.979 -0.4437 -0.3964  0.0692
  498MOL0     C67161   9.167   6.984   2.902  0.1842 -1.4476  0.5532
  498MOL0     C67162   9.191   6.989   2.741  0.5325 -0.6807 -0.1106
  498MOL0     H67163   8.806   6.777   2.630 -2.7355 -2.1614  0.7546
  498MOL0     H67164   8.608   6.747   2.505  0.9124 -1.9900  2.4411
  498MOL0     H67165   8.414   6.715   2.410 -1.1032 -0.9947 -3.8635
  498MOL0     H67166   8.270   6.810   2.379  0.3440  0.2590 -1.7192
  498MOL0     H67167   8.496   6.848   2.224  0.7967  1.8241 -0.3483
  498MOL0     H67168   8.544   6.939   2.346  0.3628  1.0014 -2.4642
  498MOL0     H67169   8.243   6.969   2.239 -0.2190 -0.2689 -0.3601
  498MOL0     H67170   8.384   7.021   2.143  1.7499  3.4807  0.4800
  498MOL0     H67171   8.340   7.109   2.419 -0.5966 -0.5635  0.3409
  498MOL0     H67172   8.453   7.161   2.299  0.2946  1.4507  0.0465
  498MOL0     H67173   8.238   7.228   2.163  0.0530  0.3233 -0.1163
  498MOL0     H67174   8.154   7.206   2.322  1.7306 -2.1643  2.2623
  498MOL0     H67175   8.309   7.381   2.420 -1.3917  0.3061  0.7202
  498MOL0     H67176   8.392   7.398   2.261 -0.3064 -1.1219  0.0798
  498MOL0     H67177   8.099   7.440   2.345 -0.0169 -1.1576  0.4336
  498MOL0     H67178   8.143   7.472   2.171 -2.1786 -0.9013 -0.9097
  498MOL0     H67179   8.239   7.625   2.398  1.4819 -1.5080  0.0515
  498MOL0     H67180   8.323   7.629   2.247 -0.6104 -2.9064 -3.3647
  498MOL0     H67181   8.142   7.701   2.026 -0.6271  1.4339 -1.0132
  498MOL0     H67182   7.856   7.789   1.944  1.0685 -2.0560  0.5824
  498MOL0     H67183   7.829   7.942   2.021 -0.2607  2.2093 -3.6472
  498MOL0     H67184   8.072   7.999   1.946 -2.0783  0.4182  1.1064
  498MOL0     H67185   8.082   7.849   1.853 -0.7812 -0.7363 -0.0899
  498MOL0     H67186   7.860   8.057   1.821  1.0598  1.7316  1.3970
  498MOL0     H67187   7.898   7.917   1.717 -2.4958 -0.6296  2.1687
  498MOL0     H67188   8.143   8.037   1.690  1.1264  3.4998 -0.6950
  498MOL0     H67189   8.066   8.170   1.756  0.2458  0.5262 -0.1544
  498MOL0     H67190   7.897   8.106   1.354  1.0448 -0.6642  0.9988
  498MOL0     H67191   7.741   8.276   1.252 -1.8939 -1.6624  0.2261
  498MOL0     H67192   7.327   8.359   1.246 -1.1608 -0.8085  0.2072
  498MOL0     H67193   7.145   8.453   1.109  0.8157 -1.2269 -1.6280
  498MOL0     H67194   6.970   8.609   1.000  0.6373  1.5155 -1.9732
  498MOL0     H67195   7.027   8.683   1.154  0.6757 -1.2639  0.2628
  498MOL0     H67196   6.986   8.908   1.036  0.2437 -1.3058 -0.2697
  498MOL0     H67197   6.953   8.819   0.876 -5.1836 -1.7395 -2.0701
  498MOL0     H67198   6.766   8.760   1.111  1.5523 -1.7404  1.0476
  498MOL0     H67199   6.757   8.894   1.003  1.5980  0.1561 -1.3173
  498MOL0     H67200   6.783   8.603   0.908  4.8286  2.2032 -2.6532
  498MOL0     H67201   6.741   8.733   0.806 -2.6847  0.8572  0.4970
  498MOL0     H67202   6.556   8.639   1.019  0.9925 -1.3893 -1.2570
  498MOL0     H67203   6.547   8.614   0.841  1.3766 -1.0533 -0.6805
  498MOL0     H67204   6.514   8.875   1.019 -1.9739  0.0008  1.0039
  498MOL0     H67205   6.546   8.874   0.840 -3.6891  1.4722 -0.5012
  498MOL0     H67206   6.342   8.741   0.801 -0.5438  1.5455  0.0163
  498MOL0     H67207   6.316   8.904   0.850 -0.0374  0.8883 -0.5320
  498MOL0     H67208   6.183   8.709   0.970  0.6918 -0.7565 -2.0157
  498MOL0     H67209   6.328   8.664   1.047  1.0904 -0.4525  0.9357
  498MOL0     H67210   7.378   8.800   1.035 -2.0007  0.1861  1.9963
  498MOL0     H67211   7.553   8.710   1.175 -0.7185  1.2226  2.4282
  498MOL0     H67212   7.737   8.485   1.607 -2.0502  1.7629 -2.9637
  498MOL0     H67213   7.909   8.331   1.708  0.6649  4.5694  0.4757
  498MOL0     H67214   8.407   7.046   2.720 -0.8971  0.4696  0.3393
  498MOL0     H67215   8.643   7.116   2.846 -0.1176  3.8603 -2.1926
  498MOL0     H67216   8.983   6.858   3.154 -0.8640  0.0282 -2.0348
  498MOL0     H67217   9.159   6.948   3.280  1.8709  0.6017 -0.4349
  498MOL0     H67218   9.428   7.194   3.061  1.5321  3.0072  1.6087
  498MOL0     H67219   9.551   7.067   3.087 -1.1718 -1.5428 -0.0458
  498MOL0     H67220   9.569   7.130   3.324 -0.5873 -0.9898 -0.1759
  498MOL0     H67221   9.481   7.278   3.292 -0.7458 -1.0475  0.3561
  498MOL0     H67222   9.664   7.305   3.101  0.6418 -0.3822  0.8139
  498MOL0     H67223   9.765   7.184   3.173 -0.9439 -0.5249  1.5484
  498MOL0     H67224   9.828   7.427   3.262 -1.2562  2.1037 -0.5551
  498MOL0     H67225   9.658   7.441   3.309  0.2451 -0.3699 -1.6551
  498MOL0     H67226   9.835   7.250   3.636 -1.8895 -0.9223 -0.2233
  498MOL0     H67227   9.357   7.048   2.915 -0.1400  1.1575  1.2434
  498MOL0     H67228   9.219   7.091   2.714  0.5905 -0.1416  1.8892
  498MOL0     H67229   9.273   6.920   2.719  2.9602  2.1491 -0.4197
  498MOL0     H67230   9.097   6.951   2.698  2.9717 -5.0890 -2.2330
  499MOL0     O67231   4.474   7.185  11.336  0.3491  0.0699  1.0588
  499MOL0     C67232   4.370   7.140  11.386 -0.8559 -0.7204  0.2076
  499MOL0     O67233   4.338   7.150  11.518  0.7834 -0.8411 -0.0499
  499MOL0     C67234   4.437   7.156  11.599 -0.5701  0.0651 -0.3575
  499MOL0     C67235   4.441   7.254  11.701  0.5131  0.3698 -0.3594
  499MOL0     C67236   4.528   7.242  11.818 -0.4092  0.1814 -0.5556
  499MOL0     C67237   4.605   7.128  11.833 -0.3503  0.2676 -0.7414
  499MOL0     O67238   4.689   7.108  11.946  0.5799  0.2856 -0.0200
  499MOL0     C67239   4.624   7.114  12.077 -0.7177  0.4783 -0.1946
  499MOL0     C67240   4.648   7.247  12.157 -0.5304  0.6127  0.3124
  499MOL0     C67241   4.797   7.262  12.192 -0.2104 -0.9622 -0.1156
  499MOL0     C67242   4.826   7.403  12.250 -0.3944 -0.6132  0.6683
  499MOL0     C67243   4.966   7.419  12.315 -0.9445  0.7176 -0.0026
  499MOL0     C67244   4.994   7.552  12.378  0.7685 -0.3139  0.8605
  499MOL0     C67245   5.127   7.558  12.450 -0.9411  0.1711  0.0473
  499MOL0     C67246   5.115   7.670  12.561 -0.4477  0.7167 -0.4120
  499MOL0     N67247   5.111   7.803  12.506  0.0387 -0.0204  0.1899
  499MOL0     C67248   5.213   7.847  12.429  0.4834  0.2556 -0.4202
  499MOL0     C67249   5.169   7.953  12.361  0.1179  0.2694  1.0437
  499MOL0     C67250   5.241   8.038  12.255  0.9685 -0.3619 -0.1338
  499MOL0     C67251   5.297   7.977  12.131 -0.2887  0.1503  0.9651
  499MOL0     C67252   5.185   7.996  12.017  0.7178 -0.3674 -0.5866
  499MOL0     C67253   5.217   7.912  11.894 -0.3693  0.3867  0.2003
  499MOL0     O67254   5.241   7.774  11.922  0.0980 -0.0486 -0.3943
  499MOL0     C67255   5.304   7.708  11.813 -0.0601  0.6457 -0.0602
  499MOL0     C67256   5.341   7.573  11.844 -0.4279  0.8528  0.1639
  499MOL0     C67257   5.380   7.488  11.740  0.0776 -0.0990 -0.0837
  499MOL0     C67258   5.412   7.532  11.614  0.5675 -0.4591  0.8547
  499MOL0     C67259   5.475   7.441  11.515  0.4594 -0.2940 -0.3428
  499MOL0     O67260   5.474   7.486  11.385  0.0882  0.5431  0.4396
  499MOL0     C67261   5.538   7.404  11.293 -1.0561  0.7831  0.2011
  499MOL0     C67262   5.517   7.271  11.256 -0.5502  0.0392  0.6077
  499MOL0     C67263   5.598   7.198  11.172  0.4038  0.4425  0.6774
  499MOL0     C67264   5.715   7.253  11.125  0.0493  0.6762 -0.5485
  499MOL0     O67265   5.815   7.193  11.047 -0.5862 -0.0237  0.3676
  499MOL0     C67266   5.813   7.051  11.047  0.4786  0.3283  0.3047
  499MOL0     C67267   5.946   6.991  11.006 -0.2212  0.0916  0.7058
  499MOL0     C67268   6.054   6.992  11.120 -0.4959 -0.4213  0.4581
  499MOL0     C67269   6.106   6.845  11.147 -0.3448 -0.1168  0.2104
  499MOL0     C67270   6.245   6.856  11.208  0.6969  0.5857  0.5187
  499MOL0     C67271   6.235   6.882  11.354  0.0832  0.4859  0.2387
  499MOL0     C67272   6.379   6.898  11.417 -0.2226 -0.2134 -0.2551
  499MOL0     C67273   6.370   6.921  11.569 -0.1982  0.1564  0.7957
  499MOL0    Cl67274   6.279   7.074  11.599 -0.1059 -0.1969 -0.2580
  499MOL0     C67275   5.740   7.394  11.156  0.5410  0.3843 -0.9116
  499MOL0     C67276   5.653   7.465  11.235 -0.2002 -0.8222  0.3533
  499MOL0     O67277   5.495   7.321  11.549  0.6722 -0.0820  0.2827
  499MOL0     C67278   5.382   7.664  11.587 -0.2358 -0.1916 -1.1029
  499MOL0     C67279   5.326   7.752  11.684 -0.4472  0.1520 -0.1439
  499MOL0     N67280   5.039   7.965  12.377 -0.0010  0.4505 -0.5926
  499MOL0     N67281   5.001   7.873  12.465 -0.8843  0.5415 -0.9286
  499MOL0     C67282   4.595   7.028  11.737 -0.1728 -0.4065  0.2020
  499MOL0     C67283   4.517   7.045  11.616 -0.4316  0.1019 -0.1081
  499MOL0     C67284   4.277   7.056  11.309  0.8336  0.1961 -0.6610
  499MOL0     C67285   4.262   6.925  11.363 -0.1024 -0.5990  0.4455
  499MOL0     C67286   4.176   6.837  11.319  0.4619 -0.7404  0.2041
  499MOL0     C67287   4.091   6.875  11.212  0.5420 -0.0284 -0.7640
  499MOL0     O67288   4.003   6.769  11.173  0.2153 -0.1395  0.2421
  499MOL0     C67289   3.884   6.794  11.092 -0.3862 -0.2646  0.3201
  499MOL0     C67290   3.797   6.672  11.054 -0.8201 -0.7620  0.1809
  499MOL0     C67291   3.698   6.698  10.943 -0.5181  0.2834 -0.9419
  499MOL0     C67292   3.602   6.586  10.907 -0.4914 -0.0996 -0.3276
  499MOL0     C67293   3.544   6.600  10.771  0.4306  0.6308  0.4179
  499MOL0     C67294   3.493   6.616  10.664 -0.0491  0.5397  0.1989
  499MOL0     C67295   4.109   6.996  11.151  0.1971  0.0686 -0.1123
  499MOL0     C67296   4.201   7.084  11.199  0.8595 -0.1920 -0.5618
  499MOL0     C67297   4.224   7.205  11.121  0.2456  0.3231  0.0472
  499MOL0     H67298   4.358   7.324  11.705 -0.3591 -0.6471 -0.1107
  499MOL0     H67299   4.532   7.323  11.890  3.1448 -0.1122 -0.2737
  499MOL0     H67300   4.515   7.104  12.069 -0.4952 -1.3611 -1.3842
  499MOL0     H67301   4.658   7.037  12.147 -0.0199  2.8482  2.2610
  499MOL0     H67302   4.590   7.247  12.250 -0.8719  2.0091  0.1159
  499MOL0     H67303   4.615   7.328  12.091 -1.5805  0.0504  0.1259
  499MOL0     H67304   4.868   7.245  12.110  2.4294 -2.7420  2.3572
  499MOL0     H67305   4.826   7.176  12.253 -0.5207 -0.4032  0.8355
  499MOL0     H67306   4.804   7.470  12.166  0.2921 -1.2057 -0.0109
  499MOL0     H67307   4.745   7.421  12.321 -2.0422  0.5728 -1.3955
  499MOL0     H67308   4.974   7.335  12.384 -1.3683  0.8507  0.2162
  499MOL0     H67309   5.034   7.409  12.230 -1.9849 -1.7222 -0.6172
  499MOL0     H67310   4.982   7.624  12.296 -1.2694 -3.0751 -1.4809
  499MOL0     H67311   4.914   7.586  12.444  0.5692 -0.1523  0.5389
  499MOL0     H67312   5.215   7.570  12.387  1.4153 -2.2747  2.5804
  499MOL0     H67313   5.137   7.459  12.495 -0.2101 -1.1592 -2.8282
  499MOL0     H67314   5.024   7.650  12.619  1.6646 -2.9408  2.0769
  499MOL0     H67315   5.203   7.663  12.625 -1.5436  2.5961  1.4305
  499MOL0     H67316   5.308   7.797  12.439  0.3041 -0.1688 -0.7900
  499MOL0     H67317   5.178   8.125  12.234  0.4011 -0.3833  1.3280
  499MOL0     H67318   5.336   8.076  12.294  1.8622  1.0216 -3.2952
  499MOL0     H67319   5.392   8.025  12.103 -0.9312  0.6322 -0.4407
  499MOL0     H67320   5.311   7.869  12.146 -5.5642 -0.9338 -0.1565
  499MOL0     H67321   5.169   8.102  11.998  0.9620 -0.1596  0.2853
  499MOL0     H67322   5.097   7.945  12.057  1.4173  0.3708  2.1176
  499MOL0     H67323   5.308   7.955  11.850 -0.0942  1.4133  1.6825
  499MOL0     H67324   5.135   7.925  11.823  2.3685 -0.9386 -3.5073
  499MOL0     H67325   5.309   7.526  11.937  0.5944  1.2163  0.7181
  499MOL0     H67326   5.400   7.384  11.761 -1.8405 -0.6950 -0.9657
  499MOL0     H67327   5.437   7.220  11.308  0.2779 -1.1690  0.7417
  499MOL0     H67328   5.562   7.100  11.145  3.4470 -0.2182 -1.5414
  499MOL0     H67329   5.784   7.013  11.145 -1.4900  0.9485 -0.0074
  499MOL0     H67330   5.740   7.017  10.973 -0.5012 -0.4217  1.5940
  499MOL0     H67331   5.920   6.886  10.992 -1.9115  0.1962  2.6748
  499MOL0     H67332   5.973   7.030  10.907 -3.0573 -0.4545 -0.3882
  499MOL0     H67333   6.142   7.048  11.090 -0.4575  0.3041  1.8199
  499MOL0     H67334   6.005   7.030  11.211 -4.0871 -2.7655 -0.2676
  499MOL0     H67335   6.106   6.796  11.049 -1.9641  1.1556 -0.4806
  499MOL0     H67336   6.039   6.783  11.206  1.0563  0.1959  2.2383
  499MOL0     H67337   6.308   6.923  11.148 -1.0505 -2.0845 -5.0152
  499MOL0     H67338   6.285   6.755  11.191 -2.0648 -0.4058 -0.5906
  499MOL0     H67339   6.170   6.965  11.383  2.6003  2.1525  1.5221
  499MOL0     H67340   6.200   6.787  11.395  2.4766  0.8276  3.5299
  499MOL0     H67341   6.435   6.984  11.378 -0.2621 -0.7902 -1.6574
  499MOL0     H67342   6.440   6.813  11.383 -0.4830 -0.2699 -0.5910
  499MOL0     H67343   6.307   6.839  11.606 -4.2022  2.6356  0.1224
  499MOL0     H67344   6.466   6.924  11.622  0.2713 -0.0551 -0.0214
  499MOL0     H67345   5.833   7.442  11.127  1.0852  0.3298  0.6252
  499MOL0     H67346   5.674   7.565  11.270 -2.0956 -0.0869 -0.4601
  499MOL0     H67347   5.412   7.710  11.494  1.9189  0.6789 -0.0438
  499MOL0     H67348   5.300   7.847  11.638  0.3334  0.0694 -0.7861
  499MOL0     H67349   4.665   6.947  11.756  5.3697  4.0576  1.9656
  499MOL0     H67350   4.509   6.961  11.548 -0.1172 -0.9053  1.0580
  499MOL0     H67351   4.327   6.883  11.440 -0.0757 -0.0063  0.7547
  499MOL0     H67352   4.179   6.733  11.349  2.9026 -0.6980  0.2369
  499MOL0     H67353   3.907   6.840  10.996  1.6238 -1.7458  0.0299
  499MOL0     H67354   3.817   6.856  11.153 -0.4000 -1.2251  1.3221
  499MOL0     H67355   3.730   6.647  11.138 -1.0712  0.9866  0.5388
  499MOL0     H67356   3.857   6.581  11.041  4.2749  2.4651 -1.8427
  499MOL0     H67357   3.752   6.717  10.850  0.8824  2.2354  0.1948
  499MOL0     H67358   3.650   6.794  10.962  2.1136  1.3480  0.9771
  499MOL0     H67359   3.650   6.488  10.898 -0.4862 -0.5915  3.4832
  499MOL0     H67360   3.529   6.586  10.988  1.7449 -0.6296  1.8207
  499MOL0     H67361   3.450   6.614  10.566 -3.4966  1.3593  1.5221
  499MOL0     H67362   4.049   7.019  11.064 -0.2066  1.7132  0.5632
  499MOL0     H67363   4.319   7.189  11.070 -0.5137 -2.0313 -0.7390
  499MOL0     H67364   4.151   7.226  11.042  0.9032  1.9644 -0.1667
  499MOL0     H67365   4.237   7.296  11.181 -0.0395  0.1129  0.4315
  500MOL0     O67366   6.510   0.644   4.431 -0.4149  0.2517 -0.0507
  500MOL0     C67367   6.554   0.603   4.314 -0.0318  0.1388 -0.2477
  500MOL0     O67368   6.595   0.479   4.292  0.9137 -0.5006 -0.4415
  500MOL0     C67369   6.555   0.384   4.376  0.4182  0.2751 -0.1228
  500MOL0     C67370   6.657   0.300   4.421 -0.1892  0.0229 -0.3192
  500MOL0     C67371   6.641   0.200   4.508 -0.1841  0.0392  0.5351
  500MOL0     C67372   6.517   0.175   4.562 -0.1255  0.9237  0.2924
  500MOL0     O67373   6.497   0.092   4.673  0.4387  0.4271  0.9736
  500MOL0     C67374   6.416  -0.016   4.653  0.0331 -0.3823  0.6685
  500MOL0     C67375   6.417  -0.105   4.774 -0.0394  0.7543  1.0255
  500MOL0     C67376   6.308  -0.075   4.875  0.5257  0.3943  0.0221
  500MOL0     C67377   6.337  -0.108   5.023 -0.0643  0.8620  0.2507
  500MOL0     C67378   6.437  -0.013   5.091  0.5683  0.7153  0.2640
  500MOL0     C67379   6.461  -0.045   5.241  0.2935  0.2279  2.0157
  500MOL0     C67380   6.580   0.023   5.304 -0.1845 -0.3786  1.2267
  500MOL0     C67381   6.617  -0.023   5.443  1.0278 -0.0064  0.0123
  500MOL0     N67382   6.713   0.077   5.509  0.1640  0.4215  1.4140
  500MOL0     C67383   6.839   0.103   5.472 -1.2140  1.0299 -0.3639
  500MOL0     C67384   6.903   0.165   5.568 -0.6748 -0.4055  0.4986
  500MOL0     C67385   7.049   0.204   5.569 -0.2681  0.5169 -0.5725
  500MOL0     C67386   7.081   0.291   5.458 -0.5375 -0.8302  0.3484
  500MOL0     C67387   7.229   0.336   5.435 -0.7686 -0.0293  1.2225
  500MOL0     C67388   7.273   0.464   5.504 -0.0383  0.4914 -0.2438
  500MOL0     O67389   7.408   0.502   5.479  0.3299 -0.1522  1.4402
  500MOL0     C67390   7.472   0.574   5.568 -0.4712  0.4638 -0.1700
  500MOL0     C67391   7.592   0.515   5.596 -1.0738  0.1434 -1.0806
  500MOL0     C67392   7.673   0.567   5.706  0.7313 -0.7463 -0.5006
  500MOL0     C67393   7.620   0.670   5.786 -0.4688  0.9168 -0.4442
  500MOL0     C67394   7.708   0.704   5.907  0.6218 -0.2384  0.1099
  500MOL0     O67395   7.803   0.634   5.948  0.1132  0.2793 -0.2478
  500MOL0     C67396   7.859   0.664   6.072 -1.7250  0.3592  0.3128
  500MOL0     C67397   7.951   0.767   6.091 -0.7147 -0.3576  0.2031
  500MOL0     C67398   8.017   0.778   6.217  1.1371 -0.0163 -0.6904
  500MOL0     C67399   7.986   0.699   6.328  0.3218  0.3469 -0.0691
  500MOL0     O67400   8.044   0.723   6.455  0.5365 -0.5157 -0.3562
  500MOL0     C67401   7.965   0.692   6.569  0.8573  1.5395  0.0749
  500MOL0     C67402   8.050   0.707   6.695 -0.0961  0.3351 -0.1883
  500MOL0     C67403   7.973   0.714   6.825 -0.0076 -0.1984 -0.9334
  500MOL0     C67404   7.873   0.820   6.837 -0.4064  1.0236  1.0011
  500MOL0     C67405   7.827   0.825   6.981  0.0721 -0.4303 -0.4204
  500MOL0     C67406   7.726   0.720   7.014  0.1408  0.0049  0.8852
  500MOL0     C67407   7.679   0.733   7.159  0.2167  0.0951 -0.1699
  500MOL0     C67408   7.636   0.589   7.217  0.0764 -0.1633 -0.6457
  500MOL0    Cl67409   7.510   0.524   7.106  0.0900  0.3984 -0.3869
  500MOL0     C67410   7.897   0.585   6.302 -0.7035  0.1114  0.2056
  500MOL0     C67411   7.839   0.566   6.178  0.4104 -0.2836  0.2795
  500MOL0     O67412   7.659   0.801   5.970  0.0103  0.5189  0.7892
  500MOL0     C67413   7.500   0.742   5.749 -0.8475 -0.0947 -0.7545
  500MOL0     C67414   7.426   0.690   5.640  0.1501 -0.1969 -0.2911
  500MOL0     N67415   6.812   0.190   5.670  0.1284 -0.3383 -0.2180
  500MOL0     N67416   6.695   0.144   5.624 -0.0892  0.0025 -0.3448
  500MOL0     C67417   6.409   0.245   4.513  0.6241 -0.2763 -0.6264
  500MOL0     C67418   6.419   0.346   4.418  0.8319  0.0139  0.9725
  500MOL0     C67419   6.564   0.697   4.200  1.2452 -0.8735  0.5690
  500MOL0     C67420   6.674   0.686   4.119 -0.1302  0.2695  0.4168
  500MOL0     C67421   6.685   0.769   4.005  0.7406  0.6814 -0.3487
  500MOL0     C67422   6.583   0.859   3.973  0.6415 -0.2341 -0.1385
  500MOL0     O67423   6.603   0.928   3.847  0.7517 -0.7091 -0.6525
  500MOL0     C67424   6.487   0.985   3.782  0.4487 -0.2786 -0.2028
  500MOL0     C67425   6.486   1.141   3.809 -0.2546  0.2073  0.1115
  500MOL0     C67426   6.582   1.224   3.732  0.8897  0.0759  0.8643
  500MOL0     C67427   6.738   1.208   3.767  0.1593  0.3505 -0.8105
  500MOL0     C67428   6.813   1.308   3.685  0.1323  0.0783 -0.3356
  500MOL0     C67429   6.868   1.402   3.626  0.6502 -0.2535 -0.6168
  500MOL0     C67430   6.466   0.862   4.053 -0.7160 -1.1055  0.4900
  500MOL0     C67431   6.457   0.783   4.168  0.0528 -0.4369  0.7546
  500MOL0     C67432   6.327   0.790   4.244  0.0333 -0.4823 -0.3471
  500MOL0     H67433   6.749   0.322   4.369 -1.6197  1.9478 -2.2461
  500MOL0     H67434   6.720   0.136   4.547 -1.8356 -2.0630  0.5774
  500MOL0     H67435   6.317   0.009   4.614  0.7391 -1.0367 -1.7187
  500MOL0     H67436   6.474  -0.064   4.574  1.5778  2.8608 -0.3710
  500MOL0     H67437   6.521  -0.101   4.808  1.7346 -2.2526 -3.2290
  500MOL0     H67438   6.402  -0.207   4.736 -1.6088  0.6952  1.7200
  500MOL0     H67439   6.214  -0.120   4.842  0.1462  0.1894  1.3344
  500MOL0     H67440   6.289   0.032   4.872  1.1740  0.5352  0.7280
  500MOL0     H67441   6.252  -0.109   5.092 -0.7304  0.9041 -0.5580
  500MOL0     H67442   6.374  -0.211   5.013 -1.3559 -0.0953  3.7570
  500MOL0     H67443   6.530  -0.025   5.035  0.0051 -1.3831 -0.3220
  500MOL0     H67444   6.403   0.091   5.085 -0.7684  0.2384 -1.1657
  500MOL0     H67445   6.372  -0.024   5.302 -1.0262 -0.3439  0.3778
  500MOL0     H67446   6.480  -0.152   5.252 -0.6229  0.0661  2.1084
  500MOL0     H67447   6.552   0.129   5.305 -4.4413 -1.1254 -3.1034
  500MOL0     H67448   6.668   0.006   5.242 -0.4841  2.8922 -0.3544
  500MOL0     H67449   6.526  -0.031   5.503  2.1457 -1.8789  1.5777
  500MOL0     H67450   6.653  -0.126   5.432 -1.9911 -1.0829 -0.8853
  500MOL0     H67451   6.882   0.082   5.375  1.7625  0.6033  0.9310
  500MOL0     H67452   7.065   0.249   5.667  1.0885  1.0432 -1.0141
  500MOL0     H67453   7.112   0.115   5.558  2.1453  1.5589  3.0314
  500MOL0     H67454   7.039   0.254   5.363 -1.5984 -2.3194  1.3469
  500MOL0     H67455   7.020   0.382   5.462 -0.7800 -1.0005  0.5840
  500MOL0     H67456   7.262   0.346   5.331  0.3049 -0.0372  1.5453
  500MOL0     H67457   7.288   0.255   5.479  1.3229 -0.6017 -2.2871
  500MOL0     H67458   7.264   0.476   5.612  0.7159  0.7249 -0.2002
  500MOL0     H67459   7.210   0.544   5.463 -0.8052  0.6449  1.1683
  500MOL0     H67460   7.626   0.419   5.559  1.0762  0.2464  0.4375
  500MOL0     H67461   7.758   0.508   5.739  2.7455  2.5273  0.5965
  500MOL0     H67462   7.973   0.823   6.001  1.0163  1.1875  1.4840
  500MOL0     H67463   8.084   0.864   6.228 -0.7858  1.4135  0.3433
  500MOL0     H67464   7.869   0.742   6.576  0.2542  1.4078 -4.3183
  500MOL0     H67465   7.948   0.584   6.569  1.8931  1.2915  2.8766
  500MOL0     H67466   8.116   0.621   6.706 -0.9907 -0.0794  2.7043
  500MOL0     H67467   8.112   0.796   6.680  2.1469 -1.1814 -0.3670
  500MOL0     H67468   7.934   0.615   6.848 -0.6808  0.0350 -1.0471
  500MOL0     H67469   8.044   0.747   6.902 -0.1982 -2.7143  0.4086
  500MOL0     H67470   7.789   0.801   6.769  0.6584 -2.9325  0.5131
  500MOL0     H67471   7.916   0.918   6.816 -0.4621  0.6630 -0.9491
  500MOL0     H67472   7.767   0.916   6.992 -3.6985 -2.6730 -0.8189
  500MOL0     H67473   7.915   0.829   7.046  0.5312 -4.4008 -0.5682
  500MOL0     H67474   7.634   0.717   6.955  1.1000  2.2427 -0.8208
  500MOL0     H67475   7.771   0.620   7.004 -1.4057 -0.5155 -1.8986
  500MOL0     H67476   7.608   0.813   7.181 -0.6595 -0.6590 -0.1529
  500MOL0     H67477   7.763   0.749   7.227  0.1538  0.2268 -0.1232
  500MOL0     H67478   7.711   0.510   7.216  0.0670 -0.1844  0.1286
  500MOL0     H67479   7.608   0.600   7.322  0.1157 -3.1571 -0.2365
  500MOL0     H67480   7.873   0.517   6.384  1.5165 -1.5102 -0.3873
  500MOL0     H67481   7.778   0.476   6.167  1.3483 -0.8861 -0.1441
  500MOL0     H67482   7.465   0.833   5.797  4.0384  2.6035 -1.7121
  500MOL0     H67483   7.331   0.734   5.612  1.4134  4.5026  1.8331
  500MOL0     H67484   6.309   0.224   4.550  1.4830 -0.3406  1.8128
  500MOL0     H67485   6.332   0.409   4.407  1.8843  2.1271  3.5911
  500MOL0     H67486   6.752   0.617   4.150 -0.5102  0.6330  2.3540
  500MOL0     H67487   6.769   0.770   3.937 -0.3705  1.4386 -1.7916
  500MOL0     H67488   6.395   0.943   3.824 -1.5268  0.1302 -3.7455
  500MOL0     H67489   6.474   0.964   3.675  0.6674 -0.2946 -0.2284
  500MOL0     H67490   6.492   1.151   3.918 -1.2841  1.3662  0.0760
  500MOL0     H67491   6.390   1.169   3.765 -1.0106 -2.6170 -0.2176
  500MOL0     H67492   6.567   1.332   3.743 -1.7318 -0.2820  1.4732
  500MOL0     H67493   6.546   1.207   3.630 -0.2029  1.4513  0.9953
  500MOL0     H67494   6.758   1.241   3.869  3.7266  0.1188 -1.2743
  500MOL0     H67495   6.764   1.102   3.756 -1.2909 -0.6468  3.4275
  500MOL0     H67496   6.905   1.479   3.561  2.5613  0.7570  1.4922
  500MOL0     H67497   6.379   0.926   4.042 -0.2689 -0.2807  1.5586
  500MOL0     H67498   6.286   0.691   4.267 -0.6194  0.1247  1.2514
  500MOL0     H67499   6.361   0.828   4.341  0.4768 -0.7637 -0.3908
  500MOL0     H67500   6.254   0.858   4.199  1.2614  0.1427 -1.4445
  501MOL0     O67501  10.975   9.827   6.849  0.0016  0.4758  0.5733
  501MOL0     C67502  11.060   9.915   6.878  0.0506  0.5828 -0.2225
  501MOL0     O67503  11.042  10.020   6.963  0.0210  0.4724  0.8045
  501MOL0     C67504  10.922  10.084   6.973 -0.4816 -0.4267 -0.3100
  501MOL0     C67505  10.846  10.128   6.869 -0.8305  0.0760 -0.8767
  501MOL0     C67506  10.733  10.211   6.890 -0.4510  0.0222  0.0904
  501MOL0     C67507  10.685  10.235   7.021 -0.2762  0.4607  0.9814
  501MOL0     O67508  10.562  10.297   7.060 -0.6042  0.8655 -0.0093
  501MOL0     C67509  10.454  10.262   6.969  0.9762 -0.1328  0.6801
  501MOL0     C67510  10.308  10.288   7.022 -0.0970  0.9538 -0.4729
  501MOL0     C67511  10.297  10.418   7.097 -0.9220  0.6440 -0.6243
  501MOL0     C67512  10.323  10.549   7.020  0.1692 -0.0190  0.2688
  501MOL0     C67513  10.227  10.568   6.913  0.2631  0.1577  0.1774
  501MOL0     C67514  10.299  10.573   6.781 -0.8134 -0.7046  0.1298
  501MOL0     C67515  10.202  10.637   6.684  0.3336  0.4159 -0.0316
  501MOL0     C67516  10.068  10.555   6.669  0.0857 -0.2050 -1.0801
  501MOL0     N67517   9.982  10.567   6.549 -0.4427  0.2619  0.0582
  501MOL0     C67518   9.867  10.642   6.543 -0.3092 -0.3648 -0.8798
  501MOL0     C67519   9.830  10.635   6.412 -0.8584 -0.0704 -0.0833
  501MOL0     C67520   9.718  10.715   6.349 -0.5993  0.7609  0.1850
  501MOL0     C67521   9.761  10.788   6.220  1.1220  0.4925  0.2730
  501MOL0     C67522   9.635  10.849   6.159 -0.3628  0.3141  1.0249
  501MOL0     C67523   9.684  10.921   6.032 -0.4495 -0.0647 -0.8064
  501MOL0     O67524   9.597  11.013   5.973 -0.2657  0.2844  0.2163
  501MOL0     C67525   9.556  11.130   6.043 -0.0098  0.2915 -0.0648
  501MOL0     C67526   9.472  11.215   5.967  0.5849 -0.2710 -1.2778
  501MOL0     C67527   9.430  11.347   6.007 -0.1661  0.3692  0.4109
  501MOL0     C67528   9.460  11.381   6.146 -0.0584 -0.2157  0.4915
  501MOL0     C67529   9.404  11.503   6.209 -0.4575 -0.3754  0.5521
  501MOL0     O67530   9.312  11.574   6.134 -0.4871  0.0364 -0.1529
  501MOL0     C67531   9.245  11.679   6.191  0.9884  0.0684  1.5557
  501MOL0     C67532   9.149  11.655   6.281  0.2740 -0.1950 -0.7160
  501MOL0     C67533   9.060  11.759   6.320  0.9346 -0.8728  0.6293
  501MOL0     C67534   9.070  11.884   6.258  0.9075  0.0521 -0.0752
  501MOL0     O67535   8.984  11.988   6.265  0.8035  0.3568  0.6625
  501MOL0     C67536   8.891  11.988   6.377  0.1917 -0.1897 -0.6950
  501MOL0     C67537   8.828  12.122   6.434  0.1353 -0.1329 -0.6324
  501MOL0     C67538   8.776  12.115   6.575  0.0025  0.7052 -0.3422
  501MOL0     C67539   8.706  12.235   6.602 -0.4455  0.0337 -0.5305
  501MOL0     C67540   8.660  12.255   6.750  0.1058  0.0052  0.5197
  501MOL0     C67541   8.730  12.383   6.815  0.0678 -0.7968  1.0306
  501MOL0     C67542   8.702  12.390   6.964  0.7801  0.1784 -0.5550
  501MOL0     C67543   8.574  12.458   6.980 -0.6614  0.2779  0.7254
  501MOL0    Cl67544   8.601  12.631   6.957 -0.6326  0.4774 -0.4442
  501MOL0     C67545   9.170  11.914   6.162 -0.0342  1.1391 -0.3743
  501MOL0     C67546   9.252  11.806   6.120 -0.4447 -0.8953 -1.1154
  501MOL0     O67547   9.446  11.536   6.325  0.7116  0.6666  0.0997
  501MOL0     C67548   9.541  11.298   6.228  0.6571 -0.3905 -0.5314
  501MOL0     C67549   9.601  11.178   6.172  0.3399 -0.8626  0.0208
  501MOL0     N67550   9.932  10.561   6.346 -0.4197 -0.6316  0.2796
  501MOL0     N67551  10.018  10.514   6.424  0.2958 -1.1643 -0.1900
  501MOL0     C67552  10.765  10.204   7.121  0.0169  0.2356  0.0133
  501MOL0     C67553  10.889  10.138   7.101  0.8258  0.1664 -0.1908
  501MOL0     C67554  11.194   9.889   6.838  0.1474  1.1926 -0.5386
  501MOL0     C67555  11.299   9.969   6.907  0.4447 -0.4387 -0.0835
  501MOL0     C67556  11.441   9.949   6.879  0.2960  0.3014 -0.2661
  501MOL0     C67557  11.482   9.845   6.791 -0.2288 -1.4786 -0.5680
  501MOL0     O67558  11.616   9.821   6.760 -1.0211 -0.4548  0.7871
  501MOL0     C67559  11.647   9.751   6.632 -0.7559  1.1701 -0.4803
  501MOL0     C67560  11.600   9.827   6.498  0.8031 -0.7597 -0.1717
  501MOL0     C67561  11.660   9.747   6.381  0.3692 -0.1979 -0.1579
  501MOL0     C67562  11.585   9.787   6.259 -0.0073  0.5900  0.1154
  501MOL0     C67563  11.607   9.683   6.142 -0.0891  0.8558  0.0329
  501MOL0     C67564  11.619   9.622   6.045  0.8656  0.8603  0.3030
  501MOL0     C67565  11.378   9.767   6.734  0.2600  0.2305  0.5730
  501MOL0     C67566  11.237   9.780   6.755  0.4625 -0.4852  0.3883
  501MOL0     C67567  11.154   9.698   6.660  0.8851  0.4180 -0.4575
  501MOL0     H67568  10.898  10.104   6.778 -0.5500 -2.9966 -0.0118
  501MOL0     H67569  10.663  10.238   6.812  1.7868  0.7492 -1.8089
  501MOL0     H67570  10.463  10.336   6.889  1.7471 -2.5638 -1.5828
  501MOL0     H67571  10.446  10.159   6.934  2.8342 -0.3779  0.8423
  501MOL0     H67572  10.292  10.204   7.092  4.4048  1.0211  0.9188
  501MOL0     H67573  10.233  10.274   6.943 -0.2670 -3.1871  0.1580
  501MOL0     H67574  10.362  10.412   7.184 -1.8542 -0.8247  0.0265
  501MOL0     H67575  10.197  10.431   7.139 -1.3544 -0.8075 -1.1311
  501MOL0     H67576  10.313  10.627   7.096 -0.2853  2.8920 -2.5452
  501MOL0     H67577  10.430  10.562   6.999  0.2100  2.8609  1.6522
  501MOL0     H67578  10.151  10.491   6.900 -0.5304  0.8896  0.3080
  501MOL0     H67579  10.172  10.662   6.926  4.5024  3.0140 -0.6066
  501MOL0     H67580  10.381  10.645   6.782 -1.8447  0.5419  1.9171
  501MOL0     H67581  10.338  10.480   6.740 -0.3581 -0.3144 -0.3450
  501MOL0     H67582  10.251  10.613   6.589  1.0832 -1.2834  0.7393
  501MOL0     H67583  10.188  10.743   6.707 -1.0955  0.3100 -0.3577
  501MOL0     H67584  10.085  10.447   6.676 -2.3557 -0.6982 -2.0481
  501MOL0     H67585  10.011  10.580   6.759  2.2216  2.6021 -0.3446
  501MOL0     H67586   9.816  10.692   6.624  4.4695 -2.7745  4.2612
  501MOL0     H67587   9.655  10.631   6.316  0.2651  0.9463 -2.1029
  501MOL0     H67588   9.669  10.775   6.426  1.3200  0.4628  1.7218
  501MOL0     H67589   9.836  10.863   6.242  1.6642 -0.1623  0.6783
  501MOL0     H67590   9.809  10.708   6.162 -1.2741 -1.4461  0.7849
  501MOL0     H67591   9.609  10.917   6.241 -0.1503 -2.0649  3.1942
  501MOL0     H67592   9.558  10.775   6.137  0.1671  0.5986 -2.2921
  501MOL0     H67593   9.712  10.845   5.958  3.2030  1.3192 -1.0415
  501MOL0     H67594   9.777  10.979   6.037 -0.9834  1.0293 -2.6586
  501MOL0     H67595   9.435  11.175   5.874 -0.6639 -0.0064 -0.9079
  501MOL0     H67596   9.366  11.398   5.936 -0.1509 -2.3733 -1.7321
  501MOL0     H67597   9.150  11.551   6.313 -0.2561  0.5576  1.9752
  501MOL0     H67598   8.979  11.722   6.382  1.7889 -2.5243  0.8164
  501MOL0     H67599   8.812  11.922   6.340  0.9810 -1.7001  0.2151
  501MOL0     H67600   8.925  11.933   6.464  1.2983 -0.3348 -1.2069
  501MOL0     H67601   8.892  12.210   6.427 -1.6451  1.3292  0.4919
  501MOL0     H67602   8.743  12.142   6.367 -2.9023 -0.0805  2.9535
  501MOL0     H67603   8.714  12.024   6.576  0.2925  0.4677 -1.5923
  501MOL0     H67604   8.861  12.116   6.643  0.1637  0.4318 -0.5312
  501MOL0     H67605   8.620  12.228   6.534 -0.3114  0.7051 -0.7757
  501MOL0     H67606   8.762  12.320   6.563  0.7825 -1.4951 -2.2921
  501MOL0     H67607   8.700  12.174   6.813  1.8141  1.7276  1.7946
  501MOL0     H67608   8.552  12.254   6.763  0.2034 -4.4263  3.2829
  501MOL0     H67609   8.837  12.369   6.801  0.8727  0.6770  4.5045
  501MOL0     H67610   8.707  12.476   6.763  0.0898 -3.2606 -3.9391
  501MOL0     H67611   8.776  12.455   7.012  1.0159 -0.6699  0.2788
  501MOL0     H67612   8.689  12.288   7.003 -1.9656  0.5823 -0.2360
  501MOL0     H67613   8.502  12.431   6.902 -0.2584 -0.6672  0.6532
  501MOL0     H67614   8.528  12.438   7.077  0.8595  1.7989  1.8054
  501MOL0     H67615   9.170  12.008   6.108  0.7179  0.5503 -1.4436
  501MOL0     H67616   9.330  11.831   6.049 -1.1396  4.5762 -0.4366
  501MOL0     H67617   9.578  11.330   6.325  2.1567 -0.3720 -1.0869
  501MOL0     H67618   9.672  11.110   6.218  4.1182  0.6234 -2.9681
  501MOL0     H67619  10.745  10.231   7.225  0.9225 -2.2673  0.9210
  501MOL0     H67620  10.951  10.128   7.188 -3.9197  0.5687  3.6762
  501MOL0     H67621  11.276  10.045   6.980 -1.7477 -1.2183  0.1131
  501MOL0     H67622  11.515  10.017   6.918  0.3050  1.3578 -2.0097
  501MOL0     H67623  11.607   9.649   6.631 -1.3026  1.3483  1.0069
  501MOL0     H67624  11.756   9.749   6.637 -0.6208  0.3622 -2.7582
  501MOL0     H67625  11.628   9.932   6.497  2.4189 -1.1626  0.3427
  501MOL0     H67626  11.490   9.822   6.497  0.6634 -1.4100  3.6443
  501MOL0     H67627  11.655   9.641   6.406  2.0848 -0.1446  0.5452
  501MOL0     H67628  11.764   9.779   6.367 -0.5028  3.2382  0.3171
  501MOL0     H67629  11.477   9.793   6.275  0.0118 -2.0602  1.7414
  501MOL0     H67630  11.620   9.885   6.223  0.2053  0.9248  1.2011
  501MOL0     H67631  11.643   9.591   5.945  1.4570  1.7082  0.1619
  501MOL0     H67632  11.406   9.691   6.661  3.0809 -0.9976  2.7274
  501MOL0     H67633  11.079   9.642   6.718  1.9251  0.1290  0.6393
  501MOL0     H67634  11.108   9.769   6.591  2.6064  1.8037 -0.2443
  501MOL0     H67635  11.201   9.617   6.603 -1.0322 -2.1197  1.3348
  502MOL0     O67636   3.997   4.998  10.073  0.0027  0.4523 -0.7122
  502MOL0     C67637   4.077   4.995   9.976  0.0566 -0.2658 -1.7436
  502MOL0     O67638   4.211   5.010   9.988 -0.5777 -0.1937  1.0374
  502MOL0     C67639   4.263   4.984  10.115  0.6322  0.1505 -1.0065
  502MOL0     C67640   4.336   4.862  10.133  0.4667 -0.1218 -0.4125
  502MOL0     C67641   4.397   4.830  10.254 -0.7447  0.6010  0.3075
  502MOL0     C67642   4.387   4.915  10.364 -0.1081  0.3627  0.8231
  502MOL0     O67643   4.478   4.899  10.461  0.4037  0.6717  0.4738
  502MOL0     C67644   4.581   4.995  10.481 -0.3917 -0.1997 -0.5420
  502MOL0     C67645   4.689   4.930  10.565 -0.1587 -0.1150  0.5557
  502MOL0     C67646   4.746   4.809  10.500  0.0397  0.5800  0.3914
  502MOL0     C67647   4.799   4.827  10.345  0.4494  0.2285  0.3883
  502MOL0     C67648   4.875   4.701  10.290  0.4793 -0.5240 -0.2587
  502MOL0     C67649   4.990   4.745  10.196 -0.7545  0.4936  0.4489
  502MOL0     C67650   5.093   4.633  10.162 -0.6782 -0.4612  0.1845
  502MOL0     C67651   5.188   4.650  10.048 -0.3316 -0.5686 -0.0374
  502MOL0     N67652   5.311   4.568  10.068  0.0426 -0.3580  0.7204
  502MOL0     C67653   5.434   4.598  10.019  1.1147 -0.3213 -0.4114
  502MOL0     C67654   5.503   4.481  10.043 -0.0136  0.2118  0.2441
  502MOL0     C67655   5.654   4.466  10.021  0.1360  0.3461 -0.3848
  502MOL0     C67656   5.731   4.422  10.148  0.7318  0.2091  0.4140
  502MOL0     C67657   5.753   4.279  10.159 -0.2283 -0.0147 -0.2242
  502MOL0     C67658   5.861   4.239  10.259  0.1104  0.3756 -0.2556
  502MOL0     O67659   5.849   4.103  10.292 -0.5392 -0.5157  0.2303
  502MOL0     C67660   5.925   4.057  10.389 -0.5893  0.7204  0.3736
  502MOL0     C67661   5.903   3.922  10.416 -0.4397 -0.4894 -0.1754
  502MOL0     C67662   5.966   3.847  10.519  0.2322  0.2674 -0.3966
  502MOL0     C67663   6.066   3.913  10.580 -0.4139 -0.6087 -0.8653
  502MOL0     C67664   6.152   3.832  10.671  0.8135  0.2428 -0.5140
  502MOL0     O67665   6.123   3.702  10.683 -1.1362  0.1945  0.5590
  502MOL0     C67666   6.209   3.631  10.757 -0.0843  0.1700  0.6585
  502MOL0     C67667   6.215   3.664  10.891  0.0398 -0.8089 -0.0601
  502MOL0     C67668   6.299   3.603  10.975 -0.4338 -0.3862 -1.0051
  502MOL0     C67669   6.379   3.495  10.927  0.5249  0.4513  0.0938
  502MOL0     O67670   6.468   3.426  11.008 -0.6927 -0.0544 -0.4421
  502MOL0     C67671   6.431   3.409  11.146 -0.4158 -0.2250 -0.4665
  502MOL0     C67672   6.511   3.502  11.238 -0.1798  0.8083  1.2177
  502MOL0     C67673   6.664   3.512  11.215 -0.2031  0.7525 -0.3738
  502MOL0     C67674   6.743   3.383  11.212  0.1903  0.1510 -0.6079
  502MOL0     C67675   6.855   3.398  11.311  0.6368 -0.0312  0.3368
  502MOL0     C67676   6.959   3.283  11.315  1.0927  0.2855 -0.1022
  502MOL0     C67677   7.065   3.299  11.430 -0.5720 -0.3152  0.4965
  502MOL0     C67678   7.110   3.160  11.464  0.3483 -0.0474  0.3031
  502MOL0    Cl67679   7.177   3.163  11.634  0.0694 -0.2879  0.4435
  502MOL0     C67680   6.368   3.453  10.794 -0.6706 -0.1615  0.4579
  502MOL0     C67681   6.296   3.527  10.698  0.1119 -0.3455  0.4182
  502MOL0     O67682   6.257   3.884  10.714  0.1109 -0.1083 -0.7689
  502MOL0     C67683   6.109   4.045  10.547  0.0841  0.3903  0.9206
  502MOL0     C67684   6.027   4.121  10.454 -0.7685  0.3609  0.4828
  502MOL0     N67685   5.421   4.384  10.105 -0.6257 -0.1866  1.0421
  502MOL0     N67686   5.303   4.440  10.119 -0.2952  0.5817  0.1366
  502MOL0     C67687   4.324   5.036  10.341  1.2160 -0.6107 -0.8835
  502MOL0     C67688   4.266   5.072  10.225 -0.1300  0.1770  0.0781
  502MOL0     C67689   4.024   5.002   9.837  0.5578  0.2392  0.2942
  502MOL0     C67690   4.121   4.989   9.730  0.0768  0.7794  1.2601
  502MOL0     C67691   4.081   4.994   9.598  0.6771 -0.2559 -0.0420
  502MOL0     C67692   3.945   5.012   9.555  0.3445  0.2104 -0.5342
  502MOL0     O67693   3.898   5.043   9.429  0.2133 -0.0680 -0.4981
  502MOL0     C67694   3.962   4.983   9.321  0.4514 -0.0710  0.2566
  502MOL0     C67695   3.911   5.045   9.190 -0.5526 -0.7405 -0.5133
  502MOL0     C67696   3.770   4.994   9.165 -0.0464  0.3659  0.5369
  502MOL0     C67697   3.700   5.048   9.038  0.5947  0.2112  1.0975
  502MOL0     C67698   3.714   4.965   8.923 -1.5083  0.4185 -0.0306
  502MOL0     C67699   3.716   4.880   8.850 -0.7733  1.0082  0.0629
  502MOL0     C67700   3.849   5.029   9.655 -0.7258 -0.6747 -0.0727
  502MOL0     C67701   3.883   5.012   9.796 -0.5584 -0.5582  0.2786
  502MOL0     C67702   3.766   4.982   9.889  0.9041  0.8145 -0.4871
  502MOL0     H67703   4.367   4.804  10.047 -1.7319 -0.4581 -1.0603
  502MOL0     H67704   4.457   4.740  10.244  1.1479  1.7506  0.8518
  502MOL0     H67705   4.625   5.030  10.387 -1.4378 -1.0595 -1.3740
  502MOL0     H67706   4.546   5.085  10.532  0.6587 -0.1056  0.0598
  502MOL0     H67707   4.650   4.910  10.665  1.7122 -2.3163  0.9292
  502MOL0     H67708   4.769   5.003  10.572 -0.5700  0.7100 -2.3539
  502MOL0     H67709   4.668   4.732  10.493  2.2617 -1.8711  0.9526
  502MOL0     H67710   4.828   4.761  10.554  0.5417 -0.1820 -1.0019
  502MOL0     H67711   4.722   4.858  10.273  1.3579  0.5791 -0.4511
  502MOL0     H67712   4.853   4.919  10.326 -2.1394  1.7307 -0.2440
  502MOL0     H67713   4.910   4.640  10.374  1.1733  0.2342  0.0194
  502MOL0     H67714   4.798   4.642  10.238  0.4523 -1.2470  0.5775
  502MOL0     H67715   4.939   4.790  10.110 -0.3395  1.6845  0.8058
  502MOL0     H67716   5.054   4.825  10.235  0.2296  1.1399 -2.2942
  502MOL0     H67717   5.036   4.542  10.139  1.5351 -1.6228 -0.9497
  502MOL0     H67718   5.155   4.605  10.248 -1.5423 -0.6053  0.7821
  502MOL0     H67719   5.145   4.609   9.956 -0.1381 -1.2182  0.1508
  502MOL0     H67720   5.214   4.755  10.031 -0.2528 -0.4975  0.4928
  502MOL0     H67721   5.470   4.691   9.977 -0.0338 -0.4427 -1.7656
  502MOL0     H67722   5.660   4.388   9.945 -3.4589 -0.1881 -0.2902
  502MOL0     H67723   5.709   4.553   9.984  0.0755  0.4070 -0.3324
  502MOL0     H67724   5.818   4.485  10.166  2.5322 -2.1278  0.3041
  502MOL0     H67725   5.662   4.449  10.229 -1.3069 -3.1746 -0.0340
  502MOL0     H67726   5.758   4.237  10.058 -2.4765  0.9714 -0.8225
  502MOL0     H67727   5.655   4.247  10.198  0.9176 -0.7552  2.2078
  502MOL0     H67728   5.838   4.297  10.349  4.6855  3.6270 -0.8361
  502MOL0     H67729   5.960   4.268  10.223  1.2626  0.3801  2.6815
  502MOL0     H67730   5.819   3.867  10.375  0.6016 -3.2895  1.1710
  502MOL0     H67731   5.939   3.754  10.567 -1.5308  2.7778  4.1048
  502MOL0     H67732   6.160   3.749  10.931 -1.0230 -1.3332 -0.3864
  502MOL0     H67733   6.315   3.644  11.074 -2.5986 -1.0267 -0.3222
  502MOL0     H67734   6.322   3.417  11.155 -0.4523 -1.0836  0.0127
  502MOL0     H67735   6.453   3.306  11.175 -0.3547  0.0647  0.5634
  502MOL0     H67736   6.469   3.600  11.216  0.1975  0.5956 -0.5640
  502MOL0     H67737   6.495   3.467  11.341  5.5933 -2.5443  1.4182
  502MOL0     H67738   6.679   3.553  11.114  0.8618  2.3292  0.3923
  502MOL0     H67739   6.703   3.596  11.273 -0.3366  3.7612 -4.1923
  502MOL0     H67740   6.780   3.354  11.113 -0.1266 -1.3696 -0.3091
  502MOL0     H67741   6.682   3.306  11.260  0.4880  0.9512  1.1423
  502MOL0     H67742   6.818   3.421  11.412  0.5063 -1.7308  0.7080
  502MOL0     H67743   6.907   3.488  11.277  1.2449 -0.6183 -0.2827
  502MOL0     H67744   6.899   3.192  11.326 -1.5098  1.9388  0.3015
  502MOL0     H67745   7.002   3.277  11.214 -0.1514 -0.5290 -0.6243
  502MOL0     H67746   7.015   3.357  11.508  0.1581 -0.8427  1.3664
  502MOL0     H67747   7.139   3.375  11.404 -0.7684 -0.8083 -1.6999
  502MOL0     H67748   7.026   3.090  11.450 -1.3451  1.6786  1.2946
  502MOL0     H67749   7.185   3.138  11.387  0.1067  0.1291  0.0119
  502MOL0     H67750   6.416   3.359  10.766  1.0271  0.9743 -0.6465
  502MOL0     H67751   6.296   3.494  10.594 -0.9720  3.7562 -1.0626
  502MOL0     H67752   6.199   4.083  10.594  2.6187 -1.7671 -1.7840
  502MOL0     H67753   6.056   4.221  10.421 -2.1985  0.6186 -0.0786
  502MOL0     H67754   4.331   5.115  10.415  0.0212 -0.1022 -1.2878
  502MOL0     H67755   4.214   5.164  10.201 -0.0369  0.2074 -0.0076
  502MOL0     H67756   4.229   4.989   9.746 -0.2905  1.6072  4.2956
  502MOL0     H67757   4.167   5.001   9.531 -0.0016  4.7032 -0.7640
  502MOL0     H67758   3.936   4.877   9.308 -0.2351  0.0169  0.8831
  502MOL0     H67759   4.071   4.982   9.329  0.5613  1.6800 -0.6226
  502MOL0     H67760   3.981   5.029   9.107 -1.8843 -0.8367 -1.6667
  502MOL0     H67761   3.921   5.153   9.200  3.7293 -0.7734 -2.2042
  502MOL0     H67762   3.708   5.029   9.249 -1.5823  0.7513 -0.7008
  502MOL0     H67763   3.777   4.885   9.169  0.8003  0.3540 -0.8101
  502MOL0     H67764   3.591   5.051   9.047  0.6209 -0.6271  1.8504
  502MOL0     H67765   3.734   5.151   9.027 -1.5233  0.8960  0.6615
  502MOL0     H67766   3.718   4.797   8.781  2.9663  0.4476  0.6329
  502MOL0     H67767   3.745   5.039   9.625 -0.1816  4.1041 -1.2796
  502MOL0     H67768   3.670   5.001   9.840  1.3025  0.4051 -1.4553
  502MOL0     H67769   3.767   4.877   9.918  0.9939  1.1851  0.9556
  502MOL0     H67770   3.766   5.052   9.973 -0.7199  0.2284  0.0296
  503MOL0     O67771   5.260   1.942   4.853  0.1991  0.1522 -0.8646
  503MOL0     C67772   5.266   2.063   4.871 -0.1253  0.3030  0.1408
  503MOL0     O67773   5.344   2.126   4.968 -0.7778  0.0198  0.2867
  503MOL0     C67774   5.424   2.050   5.048  0.2464  0.0473  0.7147
  503MOL0     C67775   5.392   2.021   5.181 -0.5320 -0.1368 -1.3984
  503MOL0     C67776   5.489   1.962   5.264 -0.0900 -0.4162 -1.0281
  503MOL0     C67777   5.622   1.923   5.219  0.3355  0.2089 -0.4065
  503MOL0     O67778   5.698   1.866   5.314 -0.5871 -0.4971  0.0817
  503MOL0     C67779   5.845   1.862   5.288 -0.1328  0.1629 -0.3546
  503MOL0     C67780   5.882   1.743   5.209 -1.5834 -0.1606 -0.7564
  503MOL0     C67781   6.032   1.758   5.169 -0.3270  0.0712  0.6408
  503MOL0     C67782   6.049   1.850   5.041  0.8099  0.6768 -1.1561
  503MOL0     C67783   6.178   1.833   4.969  0.2360 -0.9528 -1.0376
  503MOL0     C67784   6.224   1.683   4.940 -0.5220 -0.0642 -0.0703
  503MOL0     C67785   6.348   1.680   4.850  0.6712 -0.8714 -0.2599
  503MOL0     C67786   6.413   1.542   4.838  0.2686 -0.5339  0.0684
  503MOL0     N67787   6.373   1.487   4.703 -0.4633  0.0322  0.2633
  503MOL0     C67788   6.456   1.474   4.590 -0.0827  1.0030  0.3783
  503MOL0     C67789   6.373   1.427   4.492 -0.7775 -0.4154 -0.5959
  503MOL0     C67790   6.429   1.407   4.351 -0.7350  0.1495 -0.4257
  503MOL0     C67791   6.398   1.538   4.274  0.4321  0.4713 -0.4301
  503MOL0     C67792   6.257   1.540   4.203  0.4874 -0.0222  0.6552
  503MOL0     C67793   6.235   1.434   4.089 -0.9760 -0.3239 -0.3134
  503MOL0     O67794   6.101   1.408   4.028  0.0741  0.2423  0.2913
  503MOL0     C67795   6.050   1.486   3.931  0.7617 -0.5330  0.2067
  503MOL0     C67796   5.918   1.459   3.884  0.3929 -0.4336 -0.6384
  503MOL0     C67797   5.842   1.533   3.793 -0.4883 -0.6934  0.3551
  503MOL0     C67798   5.920   1.633   3.728 -0.2718 -0.3929  0.6924
  503MOL0     C67799   5.863   1.723   3.630 -0.4706 -0.3191  0.3459
  503MOL0     O67800   5.941   1.830   3.577 -0.2114 -1.0103 -0.7549
  503MOL0     C67801   5.880   1.931   3.497 -0.2648  0.0333 -0.0180
  503MOL0     C67802   5.749   1.961   3.469 -0.0478  0.5697 -0.7434
  503MOL0     C67803   5.719   2.060   3.381 -0.1889 -0.7256  0.4685
  503MOL0     C67804   5.811   2.143   3.314 -0.3621 -0.0982  0.2946
  503MOL0     O67805   5.769   2.240   3.224  0.6243 -0.2730 -0.9050
  503MOL0     C67806   5.648   2.303   3.252 -0.0268  0.7721 -0.1457
  503MOL0     C67807   5.608   2.411   3.164 -0.4774 -0.6093 -0.6948
  503MOL0     C67808   5.480   2.468   3.220  0.9217  0.2306 -0.2550
  503MOL0     C67809   5.352   2.412   3.154  0.1873 -0.0989  0.4207
  503MOL0     C67810   5.234   2.511   3.183  1.2537 -0.6888 -0.3258
  503MOL0     C67811   5.103   2.456   3.147  0.8424  1.3455 -0.2042
  503MOL0     C67812   4.969   2.538   3.185  1.0939 -0.4420  1.4752
  503MOL0     C67813   4.944   2.672   3.108  0.3008  0.1189  0.1437
  503MOL0    Cl67814   4.886   2.637   2.944 -0.2728  0.2724  0.2412
  503MOL0     C67815   5.943   2.127   3.354  0.1187  0.5000  0.3560
  503MOL0     C67816   5.975   2.024   3.439  0.6523  0.4401  0.1668
  503MOL0     O67817   5.743   1.710   3.605  0.1243  0.4545 -0.1013
  503MOL0     C67818   6.051   1.659   3.773  0.5290 -0.3876  1.0305
  503MOL0     C67819   6.117   1.587   3.869  0.3652  0.3202  0.2953
  503MOL0     N67820   6.245   1.412   4.551  0.3071 -0.1509  0.2868
  503MOL0     N67821   6.247   1.451   4.674  0.1727 -0.4259 -0.2168
  503MOL0     C67822   5.652   1.964   5.089  0.4559  0.1422 -0.4587
  503MOL0     C67823   5.555   2.024   5.010 -0.6136  1.0820  0.3916
  503MOL0     C67824   5.186   2.156   4.782  0.5167  0.3384 -0.0325
  503MOL0     C67825   5.218   2.294   4.788 -0.3782 -0.2499 -0.5018
  503MOL0     C67826   5.162   2.382   4.699 -0.9930 -0.5665  0.7844
  503MOL0     C67827   5.087   2.352   4.592  0.0631  0.1675  0.9795
  503MOL0     O67828   5.059   2.436   4.484 -0.0124  0.0955 -0.4886
  503MOL0     C67829   5.135   2.552   4.480  0.0439  0.2945  0.7028
  503MOL0     C67830   5.111   2.620   4.343 -1.0758  0.9459 -0.5483
  503MOL0     C67831   5.179   2.553   4.220 -0.6353 -0.5317 -0.0908
  503MOL0     C67832   5.209   2.646   4.103 -0.2592 -0.5950 -0.6686
  503MOL0     C67833   5.352   2.679   4.084 -0.3909  0.4031 -0.1046
  503MOL0     C67834   5.462   2.734   4.082 -0.1426 -0.6104  0.5490
  503MOL0     C67835   5.047   2.217   4.584  0.8486 -0.3602  0.1758
  503MOL0     C67836   5.094   2.118   4.677 -0.0277  0.4772  0.4305
  503MOL0     C67837   5.042   1.977   4.658 -0.2827  0.0687  1.2688
  503MOL0     H67838   5.303   2.069   5.221 -0.1949 -2.5223  2.7572
  503MOL0     H67839   5.464   1.931   5.365 -2.4910  0.4828 -1.2883
  503MOL0     H67840   5.882   1.956   5.245 -0.5819  1.5931  2.2085
  503MOL0     H67841   5.888   1.858   5.388 -1.7276  1.3012  0.4108
  503MOL0     H67842   5.826   1.729   5.116  0.1584  3.6666 -2.6065
  503MOL0     H67843   5.881   1.657   5.275  1.4548 -0.4182 -0.8906
  503MOL0     H67844   6.062   1.655   5.146 -0.2882  0.5837 -1.9676
  503MOL0     H67845   6.088   1.798   5.253 -1.9930 -0.6312  2.1454
  503MOL0     H67846   5.966   1.830   4.973 -0.3650 -1.6214  0.7983
  503MOL0     H67847   6.060   1.956   5.065  2.4928  0.6134 -1.5415
  503MOL0     H67848   6.176   1.887   4.874  0.7850 -2.1658 -1.7635
  503MOL0     H67849   6.256   1.876   5.033 -1.4766 -2.5944  2.4631
  503MOL0     H67850   6.257   1.633   5.032  2.1449  0.4786 -0.6401
  503MOL0     H67851   6.140   1.628   4.898  0.5433 -1.6398 -0.2387
  503MOL0     H67852   6.410   1.754   4.900 -0.5727 -0.9307  1.4738
  503MOL0     H67853   6.328   1.728   4.754 -0.6134 -0.8768 -0.0205
  503MOL0     H67854   6.522   1.544   4.853  0.5595 -1.9396 -1.4867
  503MOL0     H67855   6.369   1.474   4.911 -0.9566  3.7511  3.7353
  503MOL0     H67856   6.561   1.502   4.576  0.7735 -1.9386  0.2689
  503MOL0     H67857   6.536   1.390   4.362 -0.6804  0.1575 -0.9128
  503MOL0     H67858   6.394   1.318   4.298  1.7750 -1.4417  0.4535
  503MOL0     H67859   6.412   1.635   4.322  1.6086  0.2732 -0.3408
  503MOL0     H67860   6.481   1.533   4.203  4.1446 -0.3669  3.5362
  503MOL0     H67861   6.246   1.635   4.150  2.0281  1.0122  2.0825
  503MOL0     H67862   6.185   1.530   4.286 -2.4799 -3.5443 -2.0218
  503MOL0     H67863   6.273   1.334   4.111  2.7510  0.6922 -1.3589
  503MOL0     H67864   6.300   1.450   4.002  0.5407 -1.3789  0.5919
  503MOL0     H67865   5.865   1.380   3.937 -0.4999 -0.7763 -1.9874
  503MOL0     H67866   5.736   1.520   3.774 -1.0650  4.6183 -1.8001
  503MOL0     H67867   5.667   1.898   3.503  0.6210  0.5020  0.8426
  503MOL0     H67868   5.611   2.069   3.372  0.0529  0.4823 -2.1620
  503MOL0     H67869   5.574   2.223   3.240  0.1119  0.2717  1.8698
  503MOL0     H67870   5.649   2.332   3.358 -0.9597 -1.1313  0.4459
  503MOL0     H67871   5.680   2.493   3.172 -1.5622  0.2685  0.6774
  503MOL0     H67872   5.597   2.390   3.057  0.4056 -1.3481 -0.6520
  503MOL0     H67873   5.483   2.461   3.330 -0.8080 -0.0625 -0.1908
  503MOL0     H67874   5.482   2.575   3.198  0.8898  0.3171  0.1503
  503MOL0     H67875   5.333   2.307   3.179 -1.1230  0.6003  2.6253
  503MOL0     H67876   5.353   2.399   3.045 -3.2790 -1.5875  0.4282
  503MOL0     H67877   5.246   2.615   3.151 -1.2183  0.6003  2.4180
  503MOL0     H67878   5.245   2.527   3.291 -2.2340 -0.7394  0.1541
  503MOL0     H67879   5.092   2.427   3.042 -2.9212 -1.4696  0.7687
  503MOL0     H67880   5.100   2.362   3.203  2.3216  0.8029 -0.9703
  503MOL0     H67881   4.955   2.559   3.291 -5.1288 -0.7055  1.0917
  503MOL0     H67882   4.887   2.476   3.146 -0.0557  2.0913 -0.4012
  503MOL0     H67883   4.867   2.737   3.149 -0.2866  2.7328 -4.4244
  503MOL0     H67884   5.033   2.735   3.103  0.3449 -0.0127 -1.1758
  503MOL0     H67885   6.022   2.184   3.306 -1.5305  3.0005  0.4379
  503MOL0     H67886   6.082   2.014   3.454  0.9020  0.3308 -1.4252
  503MOL0     H67887   6.119   1.725   3.719 -0.4110 -0.1174  0.1416
  503MOL0     H67888   6.222   1.606   3.892  1.2554 -5.1074  2.1895
  503MOL0     H67889   5.752   1.955   5.047  0.3200  2.0357 -1.2855
  503MOL0     H67890   5.594   2.065   4.918  1.1335  0.1181  0.6566
  503MOL0     H67891   5.294   2.327   4.858 -1.2875 -1.5574  1.1459
  503MOL0     H67892   5.193   2.486   4.708  2.4399 -1.5908  2.7008
  503MOL0     H67893   5.242   2.538   4.495 -0.1549 -1.5830  0.6454
  503MOL0     H67894   5.105   2.614   4.565 -0.2585 -0.5438  1.2222
  503MOL0     H67895   5.165   2.716   4.348  1.4649 -0.2208 -3.0246
  503MOL0     H67896   5.009   2.653   4.325 -1.3936 -0.3874 -1.3277
  503MOL0     H67897   5.125   2.462   4.190 -0.9849  0.3490 -2.3004
  503MOL0     H67898   5.275   2.510   4.248 -2.5269 -4.1012  1.7088
  503MOL0     H67899   5.180   2.589   4.014 -0.6131 -4.8328  1.8988
  503MOL0     H67900   5.141   2.732   4.094  2.2220  1.3256 -2.8887
  503MOL0     H67901   5.554   2.788   4.084 -0.1896 -0.5400  0.7665
  503MOL0     H67902   4.975   2.185   4.510  0.9845 -2.2709  0.8057
  503MOL0     H67903   4.950   1.977   4.598 -0.2444  1.9551  1.1247
  503MOL0     H67904   5.114   1.915   4.605 -1.6478  0.9076 -1.8601
  503MOL0     H67905   5.023   1.940   4.759  2.4079  1.5880  2.4274
  504MOL0     O67906   2.614   9.335   5.350  0.0257 -0.1596 -0.5037
  504MOL0     C67907   2.709   9.395   5.392 -0.6066 -0.8944 -1.3723
  504MOL0     O67908   2.840   9.351   5.389  0.1846  0.5995  0.5126
  504MOL0     C67909   2.853   9.219   5.362 -0.6915 -0.6993  0.4076
  504MOL0     C67910   2.933   9.174   5.260 -0.3059  1.9520  0.6008
  504MOL0     C67911   2.962   9.039   5.237  0.1291 -0.1609  0.6404
  504MOL0     C67912   2.903   8.945   5.313 -0.9100 -0.3698 -0.1913
  504MOL0     O67913   2.919   8.813   5.294 -0.2169  0.4323 -0.2770
  504MOL0     C67914   3.033   8.762   5.219  0.1107  0.2761 -0.3974
  504MOL0     C67915   3.082   8.626   5.270 -0.0477  0.9904 -0.3342
  504MOL0     C67916   3.194   8.647   5.378  0.3671  0.9114 -0.3532
  504MOL0     C67917   3.241   8.516   5.439  1.1582  0.3189  0.0189
  504MOL0     C67918   3.154   8.472   5.563  0.1514  0.0589  0.9332
  504MOL0     C67919   3.219   8.350   5.628  0.6606 -0.2937 -0.0532
  504MOL0     C67920   3.177   8.215   5.559  0.2427  0.0271 -0.0206
  504MOL0     C67921   3.252   8.101   5.641  0.5371 -0.1418  1.3547
  504MOL0     N67922   3.206   8.075   5.786  0.1667  0.8551  0.2338
  504MOL0     C67923   3.286   8.002   5.872  0.3528 -0.2842 -0.4813
  504MOL0     C67924   3.224   8.003   5.992 -0.0564 -0.4514 -0.0139
  504MOL0     C67925   3.288   7.962   6.125 -0.1298 -0.5832 -0.7426
  504MOL0     C67926   3.367   7.828   6.128 -0.3370 -0.3919  0.2281
  504MOL0     C67927   3.289   7.707   6.072  0.1364  0.1142 -0.9849
  504MOL0     C67928   3.376   7.583   6.046 -0.3624 -0.8288  0.0345
  504MOL0     O67929   3.428   7.530   6.167  0.0046 -0.4844 -0.1333
  504MOL0     C67930   3.500   7.410   6.159  0.2589 -0.8467 -1.4062
  504MOL0     C67931   3.519   7.335   6.043 -0.5926 -0.3143  0.4213
  504MOL0     C67932   3.576   7.210   6.036  1.2453  0.6581 -1.0072
  504MOL0     C67933   3.619   7.160   6.161 -0.5982  0.5302 -0.1571
  504MOL0     C67934   3.704   7.036   6.166 -0.3291 -0.0630 -0.9855
  504MOL0     O67935   3.815   7.030   6.249  0.2154  0.1377  0.7415
  504MOL0     C67936   3.903   6.927   6.233 -0.0591 -0.2062 -0.2990
  504MOL0     C67937   4.039   6.957   6.261 -0.1341 -0.2460  0.1488
  504MOL0     C67938   4.144   6.860   6.238 -0.8845  0.6026 -0.2941
  504MOL0     C67939   4.103   6.726   6.197  0.8130  0.3958  0.0381
  504MOL0     O67940   4.185   6.625   6.178  0.9862 -0.2784 -0.5148
  504MOL0     C67941   4.319   6.635   6.208  0.6584 -0.0286 -0.6727
  504MOL0     C67942   4.424   6.532   6.164  0.2184 -0.3314  0.0586
  504MOL0     C67943   4.379   6.385   6.167 -0.4147 -0.2100  0.3518
  504MOL0     C67944   4.496   6.292   6.206  0.3204  0.3097 -0.2671
  504MOL0     C67945   4.453   6.146   6.199  0.6795  0.8280  0.2423
  504MOL0     C67946   4.375   6.096   6.320 -0.9382  0.3725 -0.2908
  504MOL0     C67947   4.395   5.945   6.347 -0.8280  0.0436  0.5684
  504MOL0     C67948   4.319   5.906   6.472  0.1252 -0.3960  0.0468
  504MOL0    Cl67949   4.335   5.724   6.477  0.4373 -0.1717 -0.0351
  504MOL0     C67950   3.972   6.703   6.180 -0.7317  0.5819  0.3458
  504MOL0     C67951   3.875   6.802   6.195 -0.2301  0.1817 -0.1160
  504MOL0     O67952   3.668   6.946   6.088  0.3090  0.0652 -0.4488
  504MOL0     C67953   3.620   7.235   6.278  0.7665 -1.1381 -0.6781
  504MOL0     C67954   3.558   7.362   6.274  1.1350  0.9951 -0.6078
  504MOL0     N67955   3.102   8.069   5.970  0.5855  0.7866  0.0823
  504MOL0     N67956   3.091   8.104   5.843  0.6224  0.0786  0.0950
  504MOL0     C67957   2.843   8.987   5.431  0.7962 -0.1617 -1.0596
  504MOL0     C67958   2.816   9.121   5.460 -0.0468  0.1226  0.6566
  504MOL0     C67959   2.689   9.540   5.440  0.3130  0.2444 -0.0929
  504MOL0     C67960   2.797   9.632   5.432 -0.6254  0.1657  0.4787
  504MOL0     C67961   2.781   9.770   5.461  0.0502 -0.2654 -0.0417
  504MOL0     C67962   2.660   9.819   5.511  0.1338  0.2978  0.0766
  504MOL0     O67963   2.639   9.950   5.511 -0.0992  0.3516 -0.2836
  504MOL0     C67964   2.508  10.008   5.491  0.8518 -0.1348 -0.6203
  504MOL0     C67965   2.514  10.137   5.408  0.8456 -0.0678 -0.0437
  504MOL0     C67966   2.371  10.185   5.386  0.0019  1.1111 -0.4119
  504MOL0     C67967   2.359  10.293   5.284  0.4081  0.1073 -0.4967
  504MOL0     C67968   2.229  10.333   5.284  0.5419 -0.1535 -1.4179
  504MOL0     C67969   2.113  10.383   5.294 -0.5384 -1.0230 -0.3250
  504MOL0     C67970   2.559   9.723   5.524  1.1224 -0.2423  0.6510
  504MOL0     C67971   2.566   9.586   5.497 -0.5722 -1.4608  0.7831
  504MOL0     C67972   2.448   9.498   5.544 -0.3087 -0.1247  0.5659
  504MOL0     H67973   2.955   9.257   5.195  0.5041  1.2813 -0.0005
  504MOL0     H67974   3.014   9.033   5.142 -0.8554  1.7434 -0.0707
  504MOL0     H67975   3.013   8.751   5.112  2.5050 -2.1868 -0.7075
  504MOL0     H67976   3.123   8.824   5.222  1.8987 -2.1330 -0.9102
  504MOL0     H67977   3.121   8.580   5.179  0.9081  0.7896  0.1662
  504MOL0     H67978   3.005   8.557   5.307  3.2858 -2.5052  0.7794
  504MOL0     H67979   3.148   8.706   5.458 -5.5499 -2.9696 -0.2248
  504MOL0     H67980   3.275   8.706   5.333  1.9335 -0.5351  0.4661
  504MOL0     H67981   3.242   8.441   5.360  1.2073 -0.6923  0.9598
  504MOL0     H67982   3.346   8.530   5.468  1.1858 -1.4616  0.8597
  504MOL0     H67983   3.152   8.549   5.640 -2.7586  1.2698 -0.2162
  504MOL0     H67984   3.052   8.447   5.531  0.6639 -1.0753  0.0998
  504MOL0     H67985   3.327   8.369   5.631  0.0813  4.3216 -0.7399
  504MOL0     H67986   3.177   8.356   5.728 -0.3266  1.7314 -0.5415
  504MOL0     H67987   3.216   8.221   5.457 -2.6146  2.8126 -1.1040
  504MOL0     H67988   3.068   8.203   5.561  0.0254  1.6867  2.6769
  504MOL0     H67989   3.233   8.005   5.592 -0.3388 -0.6481  2.6360
  504MOL0     H67990   3.357   8.123   5.617  0.2748 -1.2331 -1.0800
  504MOL0     H67991   3.389   7.977   5.850  1.9379  0.6663  4.6092
  504MOL0     H67992   3.350   8.046   6.159 -2.6825  0.5568  1.5034
  504MOL0     H67993   3.202   7.951   6.192 -0.9084  2.9519 -0.9343
  504MOL0     H67994   3.447   7.840   6.055 -1.8348 -2.3577 -1.9098
  504MOL0     H67995   3.410   7.814   6.227  1.9584  1.7924 -0.3780
  504MOL0     H67996   3.235   7.730   5.979  0.1164  3.1886 -0.3025
  504MOL0     H67997   3.235   7.689   6.165  2.5746  3.4411  1.2808
  504MOL0     H67998   3.456   7.618   5.980 -0.0179  0.2668  0.9949
  504MOL0     H67999   3.304   7.514   6.001 -1.9249 -0.3118  1.5766
  504MOL0     H68000   3.484   7.372   5.947  1.1720  4.1755  1.2669
  504MOL0     H68001   3.587   7.144   5.950 -1.5717  0.8714 -1.6160
  504MOL0     H68002   4.059   7.051   6.310 -1.2146 -0.9181  1.9679
  504MOL0     H68003   4.247   6.887   6.259 -0.8384  1.6470 -1.7020
  504MOL0     H68004   4.347   6.732   6.166 -2.4012  1.2147 -0.1073
  504MOL0     H68005   4.308   6.630   6.317 -0.5398 -0.4319 -0.7956
  504MOL0     H68006   4.465   6.560   6.066 -2.0269 -1.9228 -1.4444
  504MOL0     H68007   4.504   6.530   6.238  1.7891 -0.4790 -1.5730
  504MOL0     H68008   4.291   6.363   6.228 -0.3880 -3.3248 -0.5476
  504MOL0     H68009   4.340   6.359   6.068  1.7942  1.0003 -0.9285
  504MOL0     H68010   4.507   6.312   6.313 -2.1238  0.4828  0.0097
  504MOL0     H68011   4.586   6.323   6.152  0.7483  2.2193  1.4629
  504MOL0     H68012   4.552   6.100   6.195  0.4527 -0.1401  3.5214
  504MOL0     H68013   4.408   6.112   6.106  2.1568 -3.2877  0.8272
  504MOL0     H68014   4.416   6.141   6.411  1.0455 -1.1164 -0.3760
  504MOL0     H68015   4.269   6.122   6.313 -1.0086  0.7008  1.4710
  504MOL0     H68016   4.501   5.921   6.359 -0.1428  3.2516  1.8828
  504MOL0     H68017   4.378   5.887   6.255 -0.3635  0.3751  0.2673
  504MOL0     H68018   4.362   5.938   6.567 -2.6220 -1.1507  1.6371
  504MOL0     H68019   4.215   5.938   6.468  0.2178 -0.2290 -1.6066
  504MOL0     H68020   3.934   6.604   6.160  2.1316 -1.0207  2.2117
  504MOL0     H68021   3.780   6.761   6.164  0.1414 -1.9677  1.3800
  504MOL0     H68022   3.680   7.203   6.363  2.2412  0.8185 -0.9039
  504MOL0     H68023   3.541   7.417   6.366 -2.6459 -0.5272 -0.1873
  504MOL0     H68024   2.803   8.919   5.505 -0.3897  1.0204 -0.5572
  504MOL0     H68025   2.778   9.157   5.555 -0.5014  0.5860  0.3021
  504MOL0     H68026   2.894   9.595   5.398 -0.8298  0.1631 -0.1051
  504MOL0     H68027   2.859   9.845   5.466 -0.3409  0.5603 -3.8417
  504MOL0     H68028   2.468  10.020   5.592  1.1235 -0.4698 -0.4713
  504MOL0     H68029   2.442   9.938   5.439  1.7750 -0.7361 -1.0049
  504MOL0     H68030   2.542  10.120   5.304 -3.9664  0.9626 -1.7471
  504MOL0     H68031   2.593  10.200   5.450 -0.0943  1.5372 -0.6210
  504MOL0     H68032   2.327  10.216   5.482  1.2777 -0.3708  0.7053
  504MOL0     H68033   2.307  10.105   5.348 -2.4341  2.6095  0.2859
  504MOL0     H68034   2.432  10.373   5.297 -0.4963  0.6582  1.4755
  504MOL0     H68035   2.378  10.247   5.186  0.9489  1.7482 -1.2009
  504MOL0     H68036   2.015  10.413   5.322  0.1754 -0.2673  1.5047
  504MOL0     H68037   2.463   9.760   5.560  2.2985  2.7783  0.9936
  504MOL0     H68038   2.407   9.536   5.638  1.9753  1.3877  1.0303
  504MOL0     H68039   2.365   9.497   5.473 -1.4507  0.7071  1.8315
  504MOL0     H68040   2.472   9.393   5.564  2.4228  0.4686  0.7037
  505MOL0     O68041   8.016   3.153   1.411 -0.6496 -0.2076 -0.9260
  505MOL0     C68042   8.084   3.234   1.475  0.2577  0.3401  0.1292
  505MOL0     O68043   8.214   3.211   1.490  0.4146  0.3776 -0.4620
  505MOL0     C68044   8.282   3.099   1.429  0.6691 -0.9394  1.3433
  505MOL0     C68045   8.382   3.028   1.499 -0.2916 -1.0548 -0.3390
  505MOL0     C68046   8.455   2.924   1.436  0.3905  0.3613  0.2975
  505MOL0     C68047   8.438   2.904   1.300  0.7951  0.2972  0.0763
  505MOL0     O68048   8.517   2.821   1.234  0.1888  0.6715 -0.1275
  505MOL0     C68049   8.595   2.865   1.116 -0.0339  0.1149  0.4246
  505MOL0     C68050   8.740   2.838   1.128  0.3155  0.0940  0.0425
  505MOL0     C68051   8.811   2.889   0.995  0.0340  0.2020  0.4176
  505MOL0     C68052   8.758   2.850   0.854 -0.0015 -0.1790  0.5579
  505MOL0     C68053   8.874   2.844   0.750 -0.0925 -0.4303  0.7970
  505MOL0     C68054   8.817   2.820   0.612 -0.9876  0.6666 -0.5341
  505MOL0     C68055   8.933   2.800   0.502  0.4375 -0.3684 -0.7178
  505MOL0     C68056   9.028   2.907   0.494  0.4761 -0.6204 -0.1613
  505MOL0     N68057   9.100   2.906   0.373  0.3333 -0.7456  0.1340
  505MOL0     C68058   9.040   2.923   0.246 -0.1294 -0.6348  0.2283
  505MOL0     C68059   9.149   2.956   0.168 -0.4514 -0.2608 -0.5743
  505MOL0     C68060   9.168   2.974   0.026  0.7062 -0.8945 -0.0508
  505MOL0     C68061   9.144   3.120  -0.019 -0.3550 -0.8845  0.0818
  505MOL0     C68062   9.193   3.143  -0.163 -0.7705  0.5222 -0.1373
  505MOL0     C68063   9.108   3.066  -0.252 -0.7753  0.6051  0.1683
  505MOL0     O68064   9.147   3.109  -0.387  0.1337  0.3421  0.0397
  505MOL0     C68065   9.049   3.106  -0.485  0.2070  0.7029  0.8975
  505MOL0     C68066   9.060   3.195  -0.587 -0.5820 -0.0903  0.2726
  505MOL0     C68067   8.978   3.189  -0.699 -0.1361  0.5459  0.9831
  505MOL0     C68068   8.876   3.101  -0.710  0.0445  0.6777 -0.3828
  505MOL0     C68069   8.779   3.087  -0.826 -0.2985  0.4821  0.5527
  505MOL0     O68070   8.746   3.203  -0.896 -0.3351  0.3451  0.1097
  505MOL0     C68071   8.668   3.183  -1.006 -0.2794  0.3168  0.5964
  505MOL0     C68072   8.537   3.165  -0.991  0.4221  1.0445  0.7204
  505MOL0     C68073   8.453   3.151  -1.102  0.0127  0.1581 -0.3390
  505MOL0     C68074   8.508   3.157  -1.232 -1.1015 -0.0458 -0.4575
  505MOL0     O68075   8.426   3.131  -1.333  0.4476 -0.5184 -0.4867
  505MOL0     C68076   8.430   3.217  -1.443  0.5090 -0.1505 -0.6257
  505MOL0     C68077   8.325   3.328  -1.439  0.2834  0.9247  0.3235
  505MOL0     C68078   8.184   3.264  -1.454  0.3499  0.2005 -0.1791
  505MOL0     C68079   8.091   3.284  -1.334 -0.0517 -0.3117 -0.6263
  505MOL0     C68080   7.944   3.226  -1.359  0.1031  0.3711  0.0048
  505MOL0     C68081   7.830   3.318  -1.328 -0.1344 -0.3416  0.0744
  505MOL0     C68082   7.682   3.258  -1.350 -0.9799 -0.8545 -0.1912
  505MOL0     C68083   7.575   3.367  -1.336  0.3040 -1.3569 -0.4524
  505MOL0    Cl68084   7.408   3.293  -1.301  0.5705  0.4835  0.4169
  505MOL0     C68085   8.648   3.158  -1.252  0.0707 -0.6159  0.2331
  505MOL0     C68086   8.725   3.161  -1.128  0.8109  0.5494  1.3437
  505MOL0     O68087   8.745   2.971  -0.860  0.1826  0.9386  0.5508
  505MOL0     C68088   8.865   3.007  -0.607 -0.3345 -0.1464 -0.0067
  505MOL0     C68089   8.949   3.009  -0.497 -0.2495 -0.2534 -0.1148
  505MOL0     N68090   9.259   2.946   0.246 -0.3998 -0.0946 -0.4031
  505MOL0     N68091   9.236   2.911   0.361 -0.4210  0.5924 -0.7845
  505MOL0     C68092   8.335   2.962   1.231 -0.1140 -0.1511 -0.3630
  505MOL0     C68093   8.253   3.061   1.290  0.1926 -0.1138 -0.6036
  505MOL0     C68094   8.015   3.352   1.540 -0.3734 -0.6542  0.1408
  505MOL0     C68095   7.875   3.353   1.542 -0.0372 -0.7356  0.0237
  505MOL0     C68096   7.802   3.465   1.586 -0.0380  0.2674 -1.1739
  505MOL0     C68097   7.874   3.570   1.637  0.9621  0.1813 -0.0881
  505MOL0     O68098   7.796   3.680   1.679  0.6300  0.4594  0.0034
  505MOL0     C68099   7.867   3.792   1.741  0.9839 -0.1318 -0.8126
  505MOL0     C68100   7.775   3.884   1.825 -0.5412 -0.3543  0.3422
  505MOL0     C68101   7.642   3.913   1.748 -0.6602  0.5174 -0.7840
  505MOL0     C68102   7.540   3.987   1.837 -0.3893 -0.3131  0.1496
  505MOL0     C68103   7.461   3.893   1.928 -0.6229 -0.6962  1.0645
  505MOL0     C68104   7.389   3.827   2.004  0.6327  0.3180  0.1336
  505MOL0     C68105   8.017   3.573   1.631 -0.3825 -0.0083  0.3322
  505MOL0     C68106   8.085   3.460   1.586 -1.1769 -0.3394  0.8375
  505MOL0     C68107   8.229   3.481   1.584 -0.8551  0.6690 -0.0805
  505MOL0     H68108   8.405   3.075   1.595  0.2878 -1.2750 -0.3607
  505MOL0     H68109   8.538   2.873   1.483  0.4686 -3.3881 -3.2943
  505MOL0     H68110   8.546   2.821   1.029 -3.8635  1.9572  1.4290
  505MOL0     H68111   8.586   2.974   1.108  0.2610  0.2219  1.4095
  505MOL0     H68112   8.763   2.731   1.131  0.7605  0.0761 -2.3230
  505MOL0     H68113   8.782   2.891   1.213  3.2451 -1.2316 -0.4469
  505MOL0     H68114   8.908   2.839   1.006 -0.8047 -1.6526 -0.1679
  505MOL0     H68115   8.817   2.997   1.009 -2.4813  0.7806 -2.0387
  505MOL0     H68116   8.720   2.748   0.861  0.5762 -0.2971  2.5297
  505MOL0     H68117   8.688   2.929   0.822  2.4009  2.4372  1.3552
  505MOL0     H68118   8.931   2.937   0.742  0.9876 -1.1854 -0.7848
  505MOL0     H68119   8.943   2.761   0.770 -1.7601 -2.0166  0.2149
  505MOL0     H68120   8.763   2.725   0.611  0.5912 -0.2782 -1.9943
  505MOL0     H68121   8.755   2.903   0.577  0.4748  1.6250 -0.9476
  505MOL0     H68122   8.891   2.784   0.402  1.5565 -4.0605 -0.7573
  505MOL0     H68123   8.993   2.713   0.530 -0.7024 -0.1064  3.1481
  505MOL0     H68124   8.976   3.003   0.499  1.8567  0.3913 -3.0008
  505MOL0     H68125   9.082   2.917   0.588 -0.8296  1.9107  0.4125
  505MOL0     H68126   8.938   2.916   0.210 -0.6611  2.6848  0.7117
  505MOL0     H68127   9.263   2.929  -0.003  1.3829 -0.5281  1.5162
  505MOL0     H68128   9.100   2.910  -0.032  1.5230  0.0823 -2.2212
  505MOL0     H68129   9.045   3.162   0.003 -0.5579 -2.0454  1.5389
  505MOL0     H68130   9.213   3.178   0.043  1.7104 -2.6672 -0.4255
  505MOL0     H68131   9.293   3.099  -0.172 -1.0743 -0.2089 -0.0423
  505MOL0     H68132   9.186   3.245  -0.200 -1.9300  0.1746 -0.9500
  505MOL0     H68133   9.003   3.093  -0.232 -0.3198  1.0014  2.2629
  505MOL0     H68134   9.117   2.959  -0.233 -0.8959  0.3007 -1.3709
  505MOL0     H68135   9.142   3.267  -0.591  0.2974 -1.1165 -2.1803
  505MOL0     H68136   8.992   3.262  -0.778 -1.5006  1.0661  1.1991
  505MOL0     H68137   8.481   3.163  -0.898 -3.6279  1.7351 -1.4927
  505MOL0     H68138   8.350   3.119  -1.092 -0.4186  2.1290  3.0593
  505MOL0     H68139   8.525   3.265  -1.470 -0.6234  1.2878 -2.3170
  505MOL0     H68140   8.407   3.138  -1.516  2.8404 -1.5632  0.0499
  505MOL0     H68141   8.330   3.406  -1.361  2.7498  1.0248  0.1327
  505MOL0     H68142   8.332   3.384  -1.532 -3.4260  1.6475  0.3331
  505MOL0     H68143   8.148   3.324  -1.538  0.6198 -1.3468 -1.4468
  505MOL0     H68144   8.182   3.159  -1.482  0.1913  0.5463 -1.5213
  505MOL0     H68145   8.079   3.388  -1.302 -1.4866 -0.4725 -0.5996
  505MOL0     H68146   8.131   3.236  -1.244 -0.6686 -1.9984 -1.1993
  505MOL0     H68147   7.925   3.152  -1.281 -1.4800 -0.6754 -1.2988
  505MOL0     H68148   7.936   3.192  -1.463 -1.9229  0.7462 -0.0126
  505MOL0     H68149   7.842   3.343  -1.222  2.3385  3.1877 -0.8589
  505MOL0     H68150   7.837   3.406  -1.393  2.2216  0.4679  1.3262
  505MOL0     H68151   7.656   3.185  -1.272 -3.6634  2.1979  2.0439
  505MOL0     H68152   7.677   3.204  -1.445 -4.2898 -0.3873 -0.4192
  505MOL0     H68153   7.602   3.435  -1.255 -2.4119 -1.4415  0.6327
  505MOL0     H68154   7.579   3.436  -1.420  1.1421  1.0232  1.4115
  505MOL0     H68155   8.692   3.151  -1.351  1.8252  2.1277  0.7051
  505MOL0     H68156   8.830   3.162  -1.158  0.2597  1.8755 -0.7700
  505MOL0     H68157   8.781   2.940  -0.618  0.2987 -0.8925 -0.3304
  505MOL0     H68158   8.964   2.941  -0.414  3.1004  1.1200  0.6053
  505MOL0     H68159   8.333   2.935   1.125  1.7271  0.2844 -0.5358
  505MOL0     H68160   8.179   3.110   1.228  1.4798  0.1763 -1.9811
  505MOL0     H68161   7.816   3.266   1.517 -1.1860  0.1719 -0.5366
  505MOL0     H68162   7.694   3.465   1.592  0.0448 -0.2291  2.2808
  505MOL0     H68163   7.908   3.853   1.660  0.4711  0.8674 -0.3350
  505MOL0     H68164   7.957   3.771   1.800  0.7317  2.4726  0.6254
  505MOL0     H68165   7.834   3.973   1.848  0.2315 -0.4087 -1.2802
  505MOL0     H68166   7.763   3.830   1.919  1.8411 -0.6126  0.5418
  505MOL0     H68167   7.609   3.817   1.707 -1.0165 -0.2766  1.2489
  505MOL0     H68168   7.659   3.976   1.660 -1.8116 -1.7012 -2.6898
  505MOL0     H68169   7.594   4.061   1.896  0.3304  0.7118 -1.7132
  505MOL0     H68170   7.475   4.045   1.771 -0.6660 -0.9360 -0.1322
  505MOL0     H68171   7.321   3.762   2.055 -2.7608  2.2680 -1.5543
  505MOL0     H68172   8.056   3.671   1.658 -1.3136  0.0316  1.6572
  505MOL0     H68173   8.262   3.459   1.482 -2.7264  1.5557 -0.9161
  505MOL0     H68174   8.269   3.579   1.612  1.8184 -0.4009  0.2092
  505MOL0     H68175   8.272   3.402   1.646  0.5698  0.2331 -1.5466
  506MOL0     O68176   7.607   9.528  10.295 -0.6051  0.9410  0.4620
  506MOL0     C68177   7.628   9.539  10.412  0.5156 -0.6011  0.9849
  506MOL0     O68178   7.751   9.535  10.470 -0.0298 -0.4745 -0.2290
  506MOL0     C68179   7.860   9.511  10.393  0.4188 -0.4892 -1.4029
  506MOL0     C68180   7.950   9.621  10.384 -0.2004 -0.4756  0.0423
  506MOL0     C68181   8.072   9.606  10.310 -0.8144  0.4547  0.1491
  506MOL0     C68182   8.109   9.482  10.253  0.3636  0.8197  0.9695
  506MOL0     O68183   8.226   9.446  10.200  0.2448 -0.6103 -0.2960
  506MOL0     C68184   8.324   9.551  10.168 -0.8407  0.5008  0.2864
  506MOL0     C68185   8.286   9.627  10.045  0.1190  1.1120  0.3972
  506MOL0     C68186   8.308   9.529   9.927 -0.7128  0.0351 -0.3200
  506MOL0     C68187   8.452   9.537   9.873  0.1460  0.2639  0.8657
  506MOL0     C68188   8.511   9.422   9.786 -0.1714 -1.1004  0.3403
  506MOL0     C68189   8.419   9.395   9.663  0.7617  0.3195  0.1273
  506MOL0     C68190   8.440   9.265   9.598 -0.2843  0.7338  0.4954
  506MOL0     C68191   8.572   9.255   9.521 -0.0308  0.6462 -0.0960
  506MOL0     N68192   8.703   9.268   9.596 -0.5270 -0.7756  0.6453
  506MOL0     C68193   8.743   9.183   9.689  0.8410  0.3273 -0.5959
  506MOL0     C68194   8.868   9.220   9.709 -0.3065 -1.0596 -0.0922
  506MOL0     C68195   8.970   9.150   9.788  0.9397  0.0833  0.1095
  506MOL0     C68196   9.037   9.208   9.925  0.5543 -0.5347  0.7266
  506MOL0     C68197   9.085   9.342   9.914 -0.5746  0.0561 -0.1000
  506MOL0     C68198   8.978   9.442   9.930 -0.0844  0.4956  0.6528
  506MOL0     O68199   8.937   9.435  10.064  1.1063 -0.2482 -0.5914
  506MOL0     C68200   8.852   9.535  10.098  0.0744  0.2237  0.9573
  506MOL0     C68201   8.812   9.647  10.019  0.3128 -0.5108 -0.8364
  506MOL0     C68202   8.715   9.737  10.063  0.5871  0.0338  0.3514
  506MOL0     C68203   8.662   9.723  10.193  0.3548  0.1137  0.5565
  506MOL0     C68204   8.563   9.821  10.240 -0.5663  0.3959 -0.7064
  506MOL0     O68205   8.505   9.779  10.353  0.9031 -0.8584 -0.3769
  506MOL0     C68206   8.392   9.845  10.407 -1.1874 -0.0375 -0.0298
  506MOL0     C68207   8.325   9.954  10.352 -0.2186 -0.1213 -0.1865
  506MOL0     C68208   8.194   9.998  10.387  0.0633 -0.1508  0.0138
  506MOL0     C68209   8.133   9.934  10.502 -0.2297 -0.5933 -0.2606
  506MOL0     O68210   8.007   9.963  10.544 -0.6990  0.7761 -0.1418
  506MOL0     C68211   7.951  10.091  10.520  1.0939 -0.5697 -0.5880
  506MOL0     C68212   7.974  10.188  10.641  0.0396  0.6637  0.9300
  506MOL0     C68213   7.886  10.318  10.617  0.2217  1.1257 -0.1452
  506MOL0     C68214   7.838  10.384  10.750 -0.4211  0.4276 -0.0791
  506MOL0     C68215   7.714  10.475  10.722  0.2672 -0.9493  0.0400
  506MOL0     C68216   7.670  10.540  10.864  0.1491  0.1653 -0.8237
  506MOL0     C68217   7.583  10.458  10.956  0.6325  0.2538  0.1422
  506MOL0     C68218   7.508  10.532  11.070 -0.4171 -0.5935  0.5527
  506MOL0    Cl68219   7.402  10.670  11.013 -0.0318  0.3743  0.4215
  506MOL0     C68220   8.204   9.821  10.559  0.1737  0.6352 -0.3748
  506MOL0     C68221   8.330   9.782  10.517 -0.2689 -0.0965 -0.0784
  506MOL0     O68222   8.533   9.913  10.169  0.2027  0.1282  0.2852
  506MOL0     C68223   8.702   9.614  10.269 -0.8853  0.4392 -0.9970
  506MOL0     C68224   8.807   9.521  10.227  0.7610 -0.2106  0.0429
  506MOL0     N68225   8.901   9.336   9.636  1.2424 -0.0538 -0.4473
  506MOL0     N68226   8.796   9.357   9.570 -0.1998  0.1822  0.8535
  506MOL0     C68227   8.016   9.377  10.277  0.0184  0.7118 -0.6684
  506MOL0     C68228   7.903   9.386  10.346  0.2002 -0.0809 -0.0530
  506MOL0     C68229   7.511   9.554  10.505 -0.2306 -0.7163 -0.2226
  506MOL0     C68230   7.542   9.602  10.633 -0.0849 -0.4207  0.3231
  506MOL0     C68231   7.455   9.621  10.738 -0.2579 -0.3605  0.2368
  506MOL0     C68232   7.315   9.603  10.710  0.2020  1.1951 -0.2077
  506MOL0     O68233   7.242   9.625  10.821 -0.0085  0.1428  0.8207
  506MOL0     C68234   7.103   9.583  10.841 -0.8483 -0.2127 -0.0955
  506MOL0     C68235   6.996   9.701  10.838 -0.2094 -1.1988 -0.0886
  506MOL0     C68236   7.004   9.816  10.946  0.8101  0.0224 -0.8349
  506MOL0     C68237   7.101   9.917  10.895 -0.5680  0.5508  0.7331
  506MOL0     C68238   7.147   9.999  11.004  0.1171  0.6219  0.4478
  506MOL0     C68239   7.175  10.078  11.093 -0.0429  0.4921  0.5123
  506MOL0     C68240   7.276   9.553  10.592  0.0816 -0.4096 -0.2193
  506MOL0     C68241   7.372   9.527  10.488 -0.2223  0.1804  0.2169
  506MOL0     C68242   7.299   9.464  10.366  0.2228 -0.7253  0.0562
  506MOL0     H68243   7.930   9.719  10.427  6.3506  1.1114  0.5811
  506MOL0     H68244   8.139   9.690  10.294  1.1526 -0.7207  1.8079
  506MOL0     H68245   8.343   9.628  10.244 -2.0900  2.2434 -1.0708
  506MOL0     H68246   8.421   9.502  10.154 -2.5365 -3.5005  1.4292
  506MOL0     H68247   8.346   9.718  10.041  2.9078 -0.5736  0.4148
  506MOL0     H68248   8.182   9.659  10.046 -0.7812 -1.4616  2.9414
  506MOL0     H68249   8.234   9.552   9.850 -1.3659 -0.2099  0.2270
  506MOL0     H68250   8.289   9.425   9.958  1.5976  0.1293  1.7685
  506MOL0     H68251   8.448   9.636   9.827 -0.2216 -0.8596 -1.6829
  506MOL0     H68252   8.515   9.543   9.963  2.1604 -0.1089 -0.4752
  506MOL0     H68253   8.609   9.467   9.766 -1.0676  0.1730 -1.4495
  506MOL0     H68254   8.523   9.328   9.840 -0.6260 -1.9640 -1.0042
  506MOL0     H68255   8.316   9.381   9.696  0.4262  0.1998 -0.9168
  506MOL0     H68256   8.423   9.473   9.587 -3.3541  0.6191 -0.0109
  506MOL0     H68257   8.354   9.245   9.534  1.7157  1.0408 -2.4763
  506MOL0     H68258   8.442   9.188   9.676  1.1564  1.9188  1.7118
  506MOL0     H68259   8.557   9.157   9.474  0.1405  0.9497 -0.8126
  506MOL0     H68260   8.580   9.329   9.441  0.9865  0.2992 -0.3295
  506MOL0     H68261   8.703   9.090   9.728  2.8206 -0.2477  0.1862
  506MOL0     H68262   8.923   9.056   9.817  0.7131 -0.0395 -0.6196
  506MOL0     H68263   9.053   9.134   9.719  1.2534 -3.7887  1.1679
  506MOL0     H68264   8.968   9.206  10.010  0.6648  3.4347  1.1254
  506MOL0     H68265   9.112   9.144   9.974 -0.4962 -0.7843  2.0834
  506MOL0     H68266   9.132   9.347   9.815 -0.1310  0.2129  0.1165
  506MOL0     H68267   9.156   9.356   9.996 -0.2725  0.7156 -0.4600
  506MOL0     H68268   8.884   9.425   9.877  0.2523 -1.1163  0.5097
  506MOL0     H68269   9.015   9.538   9.894  0.4283  0.5175  1.2072
  506MOL0     H68270   8.861   9.667   9.925 -2.3181 -0.8992 -2.3815
  506MOL0     H68271   8.678   9.821  10.005 -1.7908 -0.9740  0.3019
  506MOL0     H68272   8.353  10.018  10.269 -3.2686 -0.3664 -1.5780
  506MOL0     H68273   8.144  10.072  10.326 -1.1129 -0.4621  0.5713
  506MOL0     H68274   7.975  10.133  10.422 -0.3111 -2.2959 -1.7457
  506MOL0     H68275   7.842  10.082  10.513  1.1164 -0.6526 -0.8505
  506MOL0     H68276   7.942  10.144  10.735  2.6942 -4.7194 -0.2959
  506MOL0     H68277   8.078  10.198  10.670  0.3557  1.3783 -0.3570
  506MOL0     H68278   7.927  10.392  10.547  0.1797 -0.3488 -1.8093
  506MOL0     H68279   7.793  10.281  10.572  0.0559  2.5833 -1.0578
  506MOL0     H68280   7.918  10.452  10.778 -0.5973 -0.1104  1.8487
  506MOL0     H68281   7.816  10.300  10.817  0.8677 -0.6618 -0.9837
  506MOL0     H68282   7.632  10.419  10.677  0.2668 -2.2238  1.5553
  506MOL0     H68283   7.753  10.554  10.657  1.0174 -1.7482 -0.5057
  506MOL0     H68284   7.752  10.590  10.917 -0.4129  2.3527 -1.8734
  506MOL0     H68285   7.599  10.616  10.828  0.0440 -0.3671 -1.7688
  506MOL0     H68286   7.636  10.380  11.011  2.0424 -0.4572 -2.0834
  506MOL0     H68287   7.512  10.408  10.889  2.3228 -0.0587 -1.5062
  506MOL0     H68288   7.438  10.460  11.113  0.2660 -1.3832  0.3702
  506MOL0     H68289   7.578  10.568  11.146 -1.7100 -1.3794  2.1632
  506MOL0     H68290   8.166   9.769  10.647  2.1929  0.8481  0.6862
  506MOL0     H68291   8.376   9.694  10.563 -0.9594  0.8944  2.7397
  506MOL0     H68292   8.674   9.601  10.373  0.0814 -1.1828 -0.9092
  506MOL0     H68293   8.824   9.432  10.286 -1.7515 -0.4962  0.4811
  506MOL0     H68294   8.037   9.280  10.233 -0.5905  2.0968 -4.4154
  506MOL0     H68295   7.837   9.301  10.353 -1.3032  0.9635 -0.8542
  506MOL0     H68296   7.648   9.619  10.651 -0.3266  2.3116 -0.3946
  506MOL0     H68297   7.486   9.631  10.841  0.3248 -1.6615  0.2095
  506MOL0     H68298   7.095   9.531  10.936  0.5707 -1.9507 -0.8687
  506MOL0     H68299   7.070   9.501  10.777  0.9659 -0.8708 -0.2549
  506MOL0     H68300   6.896   9.657  10.848 -0.2499 -1.1092 -0.0981
  506MOL0     H68301   6.996   9.763  10.749 -0.0723  1.3082  1.5747
  506MOL0     H68302   7.024   9.772  11.045 -2.1700 -3.9997 -1.7830
  506MOL0     H68303   6.907   9.865  10.954  0.5303 -0.1601 -2.7951
  506MOL0     H68304   7.186   9.861  10.854 -1.6819 -2.9341  2.7436
  506MOL0     H68305   7.045   9.973  10.820 -1.0602  1.7339  1.9365
  506MOL0     H68306   7.184  10.153  11.168  2.4743  1.0634 -0.2757
  506MOL0     H68307   7.170   9.538  10.573 -0.4540  2.1331  0.3968
  506MOL0     H68308   7.206   9.420  10.404 -0.4900  0.6278 -0.0653
  506MOL0     H68309   7.267   9.545  10.300  0.1081 -2.7546 -2.5529
  506MOL0     H68310   7.361   9.392  10.312  0.9648  0.5320 -0.8345
  507MOL0     O68311   0.675   2.572   6.294  0.1392 -0.5278  0.3212
  507MOL0     C68312   0.608   2.674   6.308 -1.2096  0.6329 -0.2153
  507MOL0     O68313   0.496   2.688   6.385  0.4125  0.3390  0.3232
  507MOL0     C68314   0.456   2.578   6.453  0.3078  0.9548  0.2230
  507MOL0     C68315   0.324   2.513   6.446 -0.4796  0.1536  0.9484
  507MOL0     C68316   0.303   2.399   6.517 -0.7121 -0.2806  0.8655
  507MOL0     C68317   0.401   2.338   6.607  0.3069 -1.2050 -0.6313
  507MOL0     O68318   0.379   2.224   6.671  0.3859  0.5625 -0.1774
  507MOL0     C68319   0.448   2.185   6.792  0.0139  0.2132  0.4512
  507MOL0     C68320   0.387   2.049   6.831  0.1487 -0.1280 -0.0714
  507MOL0     C68321   0.237   2.052   6.861  0.6396 -0.9077  0.8414
  507MOL0     C68322   0.157   2.002   6.741  0.6852 -0.1138  0.1788
  507MOL0     C68323   0.014   1.997   6.779  0.5299 -0.0844  0.8002
  507MOL0     C68324  -0.027   1.875   6.858  0.9514 -1.1480 -0.1548
  507MOL0     C68325  -0.165   1.909   6.912 -0.0944  0.3228 -0.5992
  507MOL0     C68326  -0.273   1.927   6.807  0.6651 -0.5807  0.2246
  507MOL0     N68327  -0.291   1.805   6.733 -0.0861  0.4678  0.8001
  507MOL0     C68328  -0.316   1.684   6.780 -0.1606  0.3728 -0.6707
  507MOL0     C68329  -0.342   1.601   6.684 -0.4616  1.4589 -0.6636
  507MOL0     C68330  -0.380   1.461   6.708  0.7403 -0.2624 -0.2717
  507MOL0     C68331  -0.512   1.437   6.776  0.5703  0.0107  0.9500
  507MOL0     C68332  -0.518   1.368   6.907 -0.6830 -0.0281  0.0305
  507MOL0     C68333  -0.437   1.237   6.925  0.3203 -0.0727  0.2175
  507MOL0     O68334  -0.439   1.197   7.062  0.2877  0.1013 -0.2206
  507MOL0     C68335  -0.324   1.145   7.126  0.2739 -0.1585  0.3894
  507MOL0     C68336  -0.313   1.159   7.262  0.2020  0.1064  0.9187
  507MOL0     C68337  -0.214   1.090   7.326 -0.0358 -0.7105  0.5895
  507MOL0     C68338  -0.119   1.015   7.256  0.3018 -0.2791  0.6065
  507MOL0     C68339  -0.012   0.955   7.323 -0.3087 -0.8027  1.0621
  507MOL0     O68340   0.034   1.019   7.434 -0.0576 -0.2688  0.2832
  507MOL0     C68341   0.101   0.943   7.518  0.2559  0.0246 -0.4791
  507MOL0     C68342   0.222   0.994   7.569  0.4637 -0.4212  0.4513
  507MOL0     C68343   0.295   0.935   7.669  0.6495  0.6780  0.4264
  507MOL0     C68344   0.249   0.809   7.721  0.3131  0.5310 -0.0042
  507MOL0     O68345   0.333   0.726   7.794 -0.3917  0.2504 -0.3448
  507MOL0     C68346   0.432   0.788   7.880 -1.4618 -0.6511 -0.3225
  507MOL0     C68347   0.505   0.686   7.969  1.6414 -0.4715 -1.0812
  507MOL0     C68348   0.569   0.572   7.881 -0.0003 -0.3346 -1.0410
  507MOL0     C68349   0.694   0.618   7.786 -0.2967 -0.5041  0.3042
  507MOL0     C68350   0.815   0.650   7.860  0.5151 -0.2855 -0.2228
  507MOL0     C68351   0.919   0.755   7.806  0.0204  0.9224 -0.4270
  507MOL0     C68352   0.929   0.783   7.648  0.7447  0.0084  0.0352
  507MOL0     C68353   1.044   0.876   7.611 -0.6091  0.3764  0.9130
  507MOL0    Cl68354   1.056   0.867   7.424  0.2136 -0.1703 -0.0605
  507MOL0     C68355   0.128   0.752   7.663  0.1687  0.8014 -0.7770
  507MOL0     C68356   0.052   0.821   7.570  0.2540  0.0311 -0.6274
  507MOL0     O68357   0.025   0.842   7.287 -0.1868  0.1349 -0.8812
  507MOL0     C68358  -0.130   1.003   7.114  0.1590  0.5431  0.0119
  507MOL0     C68359  -0.226   1.081   7.050  0.9128  0.4663 -0.0609
  507MOL0     N68360  -0.343   1.671   6.567 -0.4397  0.4012  0.2778
  507MOL0     N68361  -0.313   1.797   6.596  0.9553 -0.3228  0.6233
  507MOL0     C68362   0.517   2.416   6.625 -0.4898 -0.5622  0.3313
  507MOL0     C68363   0.541   2.534   6.548 -0.8131  0.2125 -0.0706
  507MOL0     C68364   0.649   2.783   6.217 -1.2088 -0.0304 -0.1764
  507MOL0     C68365   0.562   2.895   6.193  0.3337  0.5752 -0.6287
  507MOL0     C68366   0.600   3.014   6.140 -0.1537 -0.1263 -0.8405
  507MOL0     C68367   0.728   3.019   6.087 -0.5925 -0.2519 -0.1595
  507MOL0     O68368   0.789   3.127   6.019 -0.6942  1.0148 -0.1616
  507MOL0     C68369   0.723   3.192   5.908 -0.2922 -0.2621  0.1953
  507MOL0     C68370   0.758   3.122   5.779  0.0604 -0.0805  0.1620
  507MOL0     C68371   0.715   3.207   5.647 -0.0738 -0.3490 -0.4433
  507MOL0     C68372   0.567   3.261   5.642 -0.8792 -0.5828  0.4751
  507MOL0     C68373   0.532   3.362   5.543 -0.4582 -0.8119 -0.5924
  507MOL0     C68374   0.492   3.433   5.459  0.5423 -0.3394 -1.0384
  507MOL0     C68375   0.807   2.905   6.091  0.7911 -0.2232 -0.5531
  507MOL0     C68376   0.761   2.784   6.142 -0.4339  1.1014 -0.1410
  507MOL0     C68377   0.860   2.669   6.118 -0.8972 -0.1822  0.2473
  507MOL0     H68378   0.246   2.570   6.396 -0.4302  0.1744  0.8942
  507MOL0     H68379   0.211   2.343   6.511 -0.3401 -0.7926 -0.2576
  507MOL0     H68380   0.556   2.182   6.774 -0.5681 -0.9611 -3.8794
  507MOL0     H68381   0.426   2.255   6.873 -0.2154 -1.2834  1.7295
  507MOL0     H68382   0.445   2.021   6.919 -0.1293  0.2516  0.2335
  507MOL0     H68383   0.405   1.970   6.757 -4.0585 -1.6041  0.1895
  507MOL0     H68384   0.213   2.152   6.900  1.4630  0.4476 -1.8607
  507MOL0     H68385   0.228   1.982   6.945  1.6365 -0.6292  1.2095
  507MOL0     H68386   0.180   2.064   6.653 -1.3509 -0.6396 -0.7822
  507MOL0     H68387   0.203   1.906   6.716 -0.3675 -0.0633 -2.2566
  507MOL0     H68388  -0.027   2.094   6.809 -1.4683  0.1719 -2.3245
  507MOL0     H68389  -0.037   1.981   6.684  1.1845 -0.8767  0.5703
  507MOL0     H68390  -0.035   1.780   6.803  1.2079 -0.9499 -0.5435
  507MOL0     H68391   0.030   1.859   6.950 -1.2015 -0.8793  1.3017
  507MOL0     H68392  -0.146   1.996   6.975  3.8194 -0.9699  0.2595
  507MOL0     H68393  -0.203   1.827   6.973 -1.2746  0.9371 -0.4839
  507MOL0     H68394  -0.364   1.951   6.863  0.8523 -0.6115  0.5429
  507MOL0     H68395  -0.251   2.016   6.748 -0.6681  0.8086  1.7446
  507MOL0     H68396  -0.317   1.658   6.886 -2.5549 -0.1333 -0.7539
  507MOL0     H68397  -0.384   1.391   6.624  0.8873  1.1239 -1.4841
  507MOL0     H68398  -0.298   1.422   6.768  1.4281 -1.8088 -2.1370
  507MOL0     H68399  -0.583   1.521   6.772 -1.0697 -1.3505  0.0313
  507MOL0     H68400  -0.557   1.367   6.705  2.2700 -0.5724  0.4091
  507MOL0     H68401  -0.623   1.364   6.940 -1.1639  0.7528 -1.3026
  507MOL0     H68402  -0.477   1.438   6.980 -0.5605 -1.2526  1.1715
  507MOL0     H68403  -0.332   1.259   6.903 -0.0915  1.2585 -0.5339
  507MOL0     H68404  -0.466   1.162   6.851  1.6339  1.2461 -1.7302
  507MOL0     H68405  -0.388   1.205   7.326 -0.3162 -0.7527  0.9507
  507MOL0     H68406  -0.221   1.096   7.434  0.3388 -0.0154  0.5823
  507MOL0     H68407   0.256   1.086   7.523  3.0372 -1.9625 -0.9751
  507MOL0     H68408   0.382   0.988   7.706  1.0366  0.0771  0.3753
  507MOL0     H68409   0.514   0.828   7.820 -0.1942  0.1314  1.8569
  507MOL0     H68410   0.401   0.883   7.926 -1.4811 -1.4211  1.3191
  507MOL0     H68411   0.578   0.732   8.036 -1.2107  0.3727  1.7086
  507MOL0     H68412   0.425   0.648   8.033 -1.5556  1.8343 -3.3835
  507MOL0     H68413   0.585   0.487   7.949 -0.1021  1.5160  1.4301
  507MOL0     H68414   0.487   0.532   7.822 -0.7759  0.5258 -0.5679
  507MOL0     H68415   0.647   0.704   7.738 -1.8882 -1.8624 -0.6638
  507MOL0     H68416   0.716   0.540   7.713 -1.8704 -0.2252 -0.5020
  507MOL0     H68417   0.861   0.554   7.886 -0.2708 -1.2254 -2.0803
  507MOL0     H68418   0.772   0.691   7.952  0.6857 -0.3131 -0.1294
  507MOL0     H68419   0.907   0.853   7.852  2.3895  2.8952 -3.6081
  507MOL0     H68420   1.013   0.706   7.834 -0.1383  1.2042  0.6495
  507MOL0     H68421   0.841   0.843   7.623  1.0623  0.9835  1.1490
  507MOL0     H68422   0.922   0.687   7.596  1.5556  0.9821 -1.9595
  507MOL0     H68423   1.016   0.972   7.656  1.3363 -0.0170  3.1625
  507MOL0     H68424   1.140   0.847   7.653 -0.5707 -1.6791 -0.4571
  507MOL0     H68425   0.088   0.655   7.692 -0.9872  1.1006 -1.3296
  507MOL0     H68426  -0.042   0.781   7.535  0.2573 -1.3740  0.8772
  507MOL0     H68427  -0.063   0.939   7.057 -0.3347  1.3630 -1.5489
  507MOL0     H68428  -0.243   1.081   6.942  0.5091 -1.6024 -0.0399
  507MOL0     H68429   0.592   2.373   6.691  1.9328 -0.3520 -2.0928
  507MOL0     H68430   0.633   2.588   6.566 -1.9573  1.8275  1.2978
  507MOL0     H68431   0.461   2.904   6.231  0.0710  0.9535 -1.4003
  507MOL0     H68432   0.541   3.104   6.146  1.0706  0.9776 -3.7107
  507MOL0     H68433   0.767   3.291   5.895  1.7877 -1.3513 -1.7678
  507MOL0     H68434   0.614   3.185   5.915 -0.3793 -2.0654 -1.9180
  507MOL0     H68435   0.712   3.023   5.782 -1.6902  0.4867 -2.8932
  507MOL0     H68436   0.866   3.111   5.768  0.0069  1.3505 -3.5660
  507MOL0     H68437   0.741   3.154   5.554 -1.3104 -1.1620 -0.3475
  507MOL0     H68438   0.788   3.287   5.634 -0.7903  0.3357 -0.3343
  507MOL0     H68439   0.495   3.180   5.629 -1.1137 -0.3740  0.4467
  507MOL0     H68440   0.546   3.310   5.738  0.7654 -0.5559  0.8522
  507MOL0     H68441   0.437   3.491   5.388 -1.3141 -2.8294 -1.8244
  507MOL0     H68442   0.899   2.918   6.035  0.0094  1.8001 -1.4828
  507MOL0     H68443   0.957   2.708   6.086  0.0062 -2.9408 -0.7081
  507MOL0     H68444   0.896   2.628   6.213  0.3316 -0.2450 -0.2285
  507MOL0     H68445   0.817   2.596   6.049 -0.4054 -0.1424 -0.1061
  508MOL0     O68446   0.382   7.517   2.585  0.0741 -1.0267  0.3058
  508MOL0     C68447   0.466   7.436   2.572 -0.6456  0.5209 -0.5920
  508MOL0     O68448   0.452   7.303   2.577  0.8006 -0.1716 -1.6665
  508MOL0     C68449   0.322   7.258   2.611  1.0360 -0.0945  0.2153
  508MOL0     C68450   0.250   7.182   2.512 -0.5407  0.0384 -0.1187
  508MOL0     C68451   0.114   7.159   2.526  0.0944  1.2015 -0.3600
  508MOL0     C68452   0.053   7.196   2.649  0.9501 -0.3205  0.3517
  508MOL0     O68453  -0.080   7.186   2.664  0.2803 -0.2518  0.7715
  508MOL0     C68454  -0.159   7.304   2.676 -0.7642  0.2390 -0.4354
  508MOL0     C68455  -0.286   7.271   2.748 -0.4793 -0.7323  0.2715
  508MOL0     C68456  -0.253   7.243   2.893 -1.1670 -0.2749  0.8328
  508MOL0     C68457  -0.373   7.262   2.984  0.9476 -0.0430 -0.1506
  508MOL0     C68458  -0.493   7.166   2.947  0.2969 -0.4961 -0.8153
  508MOL0     C68459  -0.497   7.033   3.013 -0.6426  0.6331 -0.4899
  508MOL0     C68460  -0.369   6.945   3.018 -0.0091 -0.4037 -0.4783
  508MOL0     C68461  -0.401   6.825   3.120 -0.3353 -0.1908 -0.8120
  508MOL0     N68462  -0.489   6.722   3.073  0.5821 -0.2126  0.7727
  508MOL0     C68463  -0.466   6.609   3.007  0.3740 -1.2237 -0.9924
  508MOL0     C68464  -0.581   6.545   2.999  0.2738  0.0129 -0.2747
  508MOL0     C68465  -0.591   6.397   2.967 -0.8911 -0.8243  0.5344
  508MOL0     C68466  -0.635   6.308   3.083 -0.1794 -0.5585  1.1653
  508MOL0     C68467  -0.640   6.158   3.033 -1.1447 -0.7395 -0.1876
  508MOL0     C68468  -0.499   6.085   3.030 -0.4162  0.4199  0.8920
  508MOL0     O68469  -0.515   5.953   2.975 -0.2862  0.8043 -0.8413
  508MOL0     C68470  -0.399   5.881   2.952 -0.6944  0.4994  0.4192
  508MOL0     C68471  -0.279   5.917   3.014 -0.0602 -0.3385 -0.7250
  508MOL0     C68472  -0.168   5.837   2.976 -0.0988 -0.2289  0.3907
  508MOL0     C68473  -0.163   5.727   2.880 -0.7078 -0.2766 -0.4382
  508MOL0     C68474  -0.044   5.655   2.835 -0.2927 -0.4205  0.4264
  508MOL0     O68475  -0.068   5.554   2.747 -0.4389  0.0453 -1.1725
  508MOL0     C68476   0.036   5.477   2.719  0.2512  0.5337 -0.2330
  508MOL0     C68477   0.079   5.472   2.597 -0.6244 -0.2516  0.2505
  508MOL0     C68478   0.185   5.396   2.558 -0.4039  0.3705  0.6331
  508MOL0     C68479   0.256   5.310   2.651  0.0831  0.3536 -0.8194
  508MOL0     O68480   0.359   5.224   2.611  0.5310 -0.2070 -0.0404
  508MOL0     C68481   0.441   5.260   2.510 -0.0756  0.0199  0.7296
  508MOL0     C68482   0.520   5.398   2.519 -0.1513  0.8891  0.2768
  508MOL0     C68483   0.648   5.385   2.440 -0.2591  0.5468  0.1027
  508MOL0     C68484   0.621   5.357   2.294 -0.5286  0.4650 -0.0725
  508MOL0     C68485   0.725   5.405   2.199 -0.0938 -0.0318 -0.5600
  508MOL0     C68486   0.737   5.561   2.191  0.0090  0.2806 -0.7019
  508MOL0     C68487   0.793   5.613   2.061  0.4276 -0.4599 -0.5702
  508MOL0     C68488   0.756   5.768   2.047 -0.0495  0.0701 -0.6832
  508MOL0    Cl68489   0.848   5.842   1.906  0.2901  0.3068 -0.3472
  508MOL0     C68490   0.198   5.310   2.783 -0.0736  0.1499  0.0162
  508MOL0     C68491   0.087   5.392   2.816  0.4368 -0.1687 -0.4100
  508MOL0     O68492   0.064   5.682   2.886 -0.0393 -0.7035 -1.0787
  508MOL0     C68493  -0.289   5.702   2.817  0.3198 -0.2753 -0.2715
  508MOL0     C68494  -0.402   5.775   2.866 -0.1263  0.0109  1.1269
  508MOL0     N68495  -0.686   6.629   3.041  0.2530  0.4100 -0.5091
  508MOL0     N68496  -0.626   6.739   3.088  0.4160 -0.6004 -0.5225
  508MOL0     C68497   0.130   7.249   2.750  0.2759 -0.0702 -0.7824
  508MOL0     C68498   0.263   7.284   2.731 -0.3611  0.7206  0.3454
  508MOL0     C68499   0.604   7.495   2.579  0.0755  0.7378  0.1143
  508MOL0     C68500   0.635   7.617   2.518  0.0764  0.2100  0.0720
  508MOL0     C68501   0.761   7.674   2.502 -0.2986 -0.0893  0.8225
  508MOL0     C68502   0.869   7.599   2.559  0.6893 -0.3164  0.2860
  508MOL0     O68503   1.001   7.647   2.549 -0.4008  0.3876  0.6430
  508MOL0     C68504   1.088   7.555   2.478  0.6527  1.2031  1.1170
  508MOL0     C68505   1.059   7.572   2.321 -0.7695 -0.2356 -0.8381
  508MOL0     C68506   1.116   7.698   2.254  0.2223 -0.6986  1.3227
  508MOL0     C68507   1.074   7.701   2.103 -0.0620 -0.5583  0.4532
  508MOL0     C68508   0.934   7.681   2.086 -1.3477 -0.2110 -0.4480
  508MOL0     C68509   0.816   7.670   2.067  0.1677  0.6068 -0.4398
  508MOL0     C68510   0.845   7.475   2.620  0.6321  0.0888 -0.6780
  508MOL0     C68511   0.714   7.423   2.631 -0.7038  1.0471 -1.6149
  508MOL0     C68512   0.719   7.287   2.709 -0.5813 -0.5190 -0.3243
  508MOL0     H68513   0.304   7.146   2.425  4.5021 -0.2766  2.7323
  508MOL0     H68514   0.082   7.102   2.439  1.5147 -0.8450  0.3887
  508MOL0     H68515  -0.120   7.391   2.730 -1.9664  0.5859 -0.1091
  508MOL0     H68516  -0.190   7.329   2.574  0.5872 -0.4889 -1.0586
  508MOL0     H68517  -0.333   7.189   2.692  0.1194 -1.2676  0.5478
  508MOL0     H68518  -0.353   7.358   2.748  2.9104  2.0972  0.0238
  508MOL0     H68519  -0.172   7.306   2.932 -1.2710  0.3191  0.1189
  508MOL0     H68520  -0.218   7.140   2.894  0.2791  0.0731 -2.0150
  508MOL0     H68521  -0.348   7.241   3.088  2.4918 -2.2522 -0.9036
  508MOL0     H68522  -0.424   7.358   2.970 -1.1008 -1.2981 -1.9389
  508MOL0     H68523  -0.589   7.212   2.971  1.1307 -0.3723  2.9848
  508MOL0     H68524  -0.494   7.154   2.839 -0.8009  3.2652 -1.3668
  508MOL0     H68525  -0.529   7.051   3.116  2.9682 -1.3177  1.1497
  508MOL0     H68526  -0.577   6.975   2.967 -0.2953 -1.1491  1.0495
  508MOL0     H68527  -0.289   7.009   3.057 -1.6674  0.3124  2.0259
  508MOL0     H68528  -0.354   6.900   2.920 -2.9517  1.3070 -1.8298
  508MOL0     H68529  -0.307   6.773   3.141 -1.3359 -0.9924  2.0415
  508MOL0     H68530  -0.421   6.873   3.216 -0.9751  0.5006 -1.2700
  508MOL0     H68531  -0.366   6.569   2.988  1.4188  0.3262  0.8766
  508MOL0     H68532  -0.668   6.377   2.892 -1.3924 -1.6234  1.2439
  508MOL0     H68533  -0.499   6.355   2.927  1.0482  1.8658  1.8086
  508MOL0     H68534  -0.572   6.315   3.172  1.3144 -0.8276  0.1682
  508MOL0     H68535  -0.741   6.324   3.103 -0.5186  0.8622 -1.4213
  508MOL0     H68536  -0.678   6.165   2.930 -0.0646  0.4128 -0.5277
  508MOL0     H68537  -0.715   6.118   3.101  1.4117  0.5959  3.7320
  508MOL0     H68538  -0.471   6.073   3.135 -1.6568 -0.1013  1.1746
  508MOL0     H68539  -0.428   6.142   2.968  2.6953 -1.9027  2.0108
  508MOL0     H68540  -0.261   6.001   3.082 -4.2625 -0.1232  0.4098
  508MOL0     H68541  -0.072   5.858   3.022  0.8759 -4.5606  0.6733
  508MOL0     H68542   0.002   5.511   2.532 -3.8733 -1.6434  3.0107
  508MOL0     H68543   0.192   5.404   2.450 -2.2515  3.7558  0.6264
  508MOL0     H68544   0.520   5.185   2.515 -1.3564 -1.3278  1.2838
  508MOL0     H68545   0.401   5.250   2.408  0.8202 -3.3501  0.5959
  508MOL0     H68546   0.450   5.477   2.491  1.1672  1.3016 -2.1043
  508MOL0     H68547   0.542   5.408   2.626  0.0824  0.9812  0.2197
  508MOL0     H68548   0.696   5.484   2.438 -0.9574  0.9365 -3.5016
  508MOL0     H68549   0.713   5.305   2.477  2.3583  0.2009 -4.5323
  508MOL0     H68550   0.529   5.406   2.262  0.6030  1.6471 -1.6887
  508MOL0     H68551   0.610   5.248   2.293 -3.9515  0.6565  1.9220
  508MOL0     H68552   0.699   5.361   2.102  0.9140  1.5678 -1.5915
  508MOL0     H68553   0.820   5.360   2.230 -0.7081 -2.5733 -2.1195
  508MOL0     H68554   0.637   5.604   2.201  0.5160  1.7214 -1.5887
  508MOL0     H68555   0.803   5.604   2.267  0.4515  1.4995 -1.7496
  508MOL0     H68556   0.744   5.556   1.982  0.5930  0.7464 -1.5756
  508MOL0     H68557   0.902   5.605   2.058  0.6674  0.0757  2.8305
  508MOL0     H68558   0.649   5.788   2.050 -0.8116 -3.5206  0.4811
  508MOL0     H68559   0.791   5.815   2.139  1.2925 -2.1062 -0.0050
  508MOL0     H68560   0.260   5.261   2.857  0.4614 -0.6534 -0.9544
  508MOL0     H68561   0.075   5.395   2.924  0.9024 -0.8366 -0.3303
  508MOL0     H68562  -0.303   5.619   2.748  0.8004 -1.3188  0.8578
  508MOL0     H68563  -0.499   5.746   2.828 -0.8725  3.5202 -0.0812
  508MOL0     H68564   0.070   7.258   2.840  0.2066 -0.7755 -0.7478
  508MOL0     H68565   0.338   7.315   2.803 -0.6326  1.4487  0.3239
  508MOL0     H68566   0.555   7.665   2.464  0.9895 -0.1396 -1.6670
  508MOL0     H68567   0.770   7.760   2.437 -2.1707 -2.6390 -3.1985
  508MOL0     H68568   1.072   7.449   2.500 -2.0707  1.7773  2.1863
  508MOL0     H68569   1.193   7.579   2.495  2.5429 -1.8336 -3.8320
  508MOL0     H68570   0.956   7.549   2.295 -0.4840 -0.4806 -1.8080
  508MOL0     H68571   1.119   7.492   2.275 -2.1363 -0.5709 -2.1024
  508MOL0     H68572   1.223   7.707   2.272  0.4538 -1.7583  0.5879
  508MOL0     H68573   1.072   7.791   2.292 -1.0891 -1.7507  2.5231
  508MOL0     H68574   1.114   7.794   2.062 -1.2059  0.6948  2.0730
  508MOL0     H68575   1.105   7.609   2.051 -3.2832 -0.4398 -1.9994
  508MOL0     H68576   0.711   7.668   2.049 -0.1863 -1.9743  1.3729
  508MOL0     H68577   0.929   7.423   2.665  0.1990  0.2119  0.2843
  508MOL0     H68578   0.749   7.215   2.632  0.8353  0.2652 -0.5311
  508MOL0     H68579   0.796   7.280   2.786  1.3883  0.7722 -2.0765
  508MOL0     H68580   0.620   7.252   2.739 -0.7298 -0.9002 -1.2193
  509MOL0     O68581   5.630  11.078   6.798  1.3448 -0.1569 -0.5345
  509MOL0     C68582   5.731  11.150   6.790 -0.1953 -0.6204  0.0356
  509MOL0     O68583   5.839  11.131   6.704 -0.4539  0.0020  0.5282
  509MOL0     C68584   5.964  11.197   6.716 -1.2314 -0.4538 -1.0404
  509MOL0     C68585   6.078  11.158   6.793  0.3645 -0.3079 -0.2950
  509MOL0     C68586   6.206  11.226   6.778 -0.3533  0.1757 -0.3492
  509MOL0     C68587   6.224  11.342   6.706 -0.0850  0.4086  0.0913
  509MOL0     O68588   6.342  11.402   6.697  0.2728 -0.6403 -0.2716
  509MOL0     C68589   6.397  11.424   6.574  0.8799  0.2106 -0.0356
  509MOL0     C68590   6.506  11.518   6.582  0.4651 -0.2574 -0.7602
  509MOL0     C68591   6.588  11.518   6.455  0.4850 -1.0625  1.1393
  509MOL0     C68592   6.679  11.642   6.437 -0.2381  0.3204  0.6592
  509MOL0     C68593   6.718  11.668   6.288  0.3409 -0.3811  0.0065
  509MOL0     C68594   6.796  11.797   6.269 -0.4603  0.7626 -0.2911
  509MOL0     C68595   6.830  11.818   6.121 -0.2337 -0.6655  0.0040
  509MOL0     C68596   6.908  11.951   6.095 -0.3538  0.4288  0.1646
  509MOL0     N68597   7.052  11.933   6.118  0.0529 -0.3050 -0.7839
  509MOL0     C68598   7.139  11.912   6.010 -0.5736 -0.1609 -0.4598
  509MOL0     C68599   7.258  11.881   6.063  0.4977  0.6544  0.0792
  509MOL0     C68600   7.381  11.842   5.990  0.1374  0.1449  0.4015
  509MOL0     C68601   7.341  11.718   5.902 -0.1773  0.2619  0.6193
  509MOL0     C68602   7.471  11.676   5.834  0.2148 -0.2086  1.5685
  509MOL0     C68603   7.462  11.557   5.738 -0.4782 -0.8769 -0.8255
  509MOL0     O68604   7.600  11.508   5.701 -1.0803 -0.2670 -0.1301
  509MOL0     C68605   7.672  11.445   5.794  0.4420  0.0866 -0.2287
  509MOL0     C68606   7.622  11.382   5.916 -0.1393 -0.5313 -0.1391
  509MOL0     C68607   7.704  11.327   6.015  0.7712  0.0017 -0.8301
  509MOL0     C68608   7.842  11.335   5.999  0.5520  0.3256  0.3289
  509MOL0     C68609   7.928  11.285   6.103  0.1102 -0.0224 -0.9862
  509MOL0     O68610   7.875  11.300   6.234  0.1140  0.5765  0.1461
  509MOL0     C68611   7.954  11.242   6.337  0.5367 -0.2385 -0.3080
  509MOL0     C68612   8.025  11.330   6.416 -1.0257  1.2143  0.5431
  509MOL0     C68613   8.104  11.280   6.523  0.8525 -0.7500  0.0832
  509MOL0     C68614   8.083  11.143   6.565  0.2160 -1.4812  0.1340
  509MOL0     O68615   8.154  11.073   6.655 -0.7782  0.1346  0.6012
  509MOL0     C68616   8.209  11.138   6.766  0.6460 -0.3788  0.3070
  509MOL0     C68617   8.286  11.045   6.848  0.1130 -0.1567 -0.0119
  509MOL0     C68618   8.429  11.031   6.795 -0.1122  0.7525 -0.2960
  509MOL0     C68619   8.461  10.886   6.751  0.0806  0.9334 -0.4324
  509MOL0     C68620   8.606  10.873   6.691  0.9061  1.2185  0.4917
  509MOL0     C68621   8.634  10.728   6.645  0.2545 -1.1288  0.2563
  509MOL0     C68622   8.778  10.687   6.619  0.2801 -0.0400  0.1995
  509MOL0     C68623   8.798  10.541   6.564  0.5929 -0.0386 -0.1646
  509MOL0    Cl68624   8.974  10.538   6.512  0.1759 -0.0191 -0.1992
  509MOL0     C68625   8.003  11.064   6.482 -0.5350 -0.3077  0.3057
  509MOL0     C68626   7.945  11.104   6.365 -0.8691  0.3429 -0.5570
  509MOL0     O68627   8.030  11.226   6.066  0.3015 -0.3406  0.6546
  509MOL0     C68628   7.888  11.376   5.873 -0.6520 -1.0912 -1.3391
  509MOL0     C68629   7.811  11.432   5.777  1.2731 -0.4054  0.4600
  509MOL0     N68630   7.241  11.879   6.200 -0.3438 -0.8354  0.1873
  509MOL0     N68631   7.119  11.905   6.231 -0.9183  0.7573  0.5078
  509MOL0     C68632   6.100  11.386   6.632 -0.3791  0.4768 -0.7920
  509MOL0     C68633   5.980  11.322   6.640 -0.4352  0.0491  0.6025
  509MOL0     C68634   5.753  11.248   6.908  0.1413 -0.1532 -0.7739
  509MOL0     C68635   5.734  11.382   6.880 -0.9536  1.4227  0.3260
  509MOL0     C68636   5.754  11.469   6.994  0.2306 -0.0935  0.5644
  509MOL0     C68637   5.810  11.440   7.115  0.0409 -0.6365  0.1317
  509MOL0     O68638   5.838  11.527   7.216  0.3424 -0.4534 -0.5886
  509MOL0     C68639   5.773  11.652   7.217  0.2890 -0.6529 -0.9332
  509MOL0     C68640   5.731  11.696   7.357  0.7978 -0.0038 -0.0208
  509MOL0     C68641   5.603  11.619   7.392  0.1244  0.0692 -0.5795
  509MOL0     C68642   5.568  11.640   7.544 -0.2727 -0.4014  0.5157
  509MOL0     C68643   5.528  11.783   7.575 -0.7861  0.3327 -0.1804
  509MOL0     C68644   5.500  11.888   7.583  0.8232 -0.1997 -0.3801
  509MOL0     C68645   5.835  11.299   7.124  0.3822  1.0784 -0.6035
  509MOL0     C68646   5.809  11.197   7.028 -0.5701 -0.2276  0.1958
  509MOL0     C68647   5.834  11.053   7.044  0.7335  0.6976 -1.4741
  509MOL0     H68648   6.091  11.084   6.871 -1.2172  1.4356  1.7620
  509MOL0     H68649   6.297  11.174   6.808 -1.0708 -1.6720 -1.1872
  509MOL0     H68650   6.430  11.323   6.549 -0.7111 -1.1116  2.7099
  509MOL0     H68651   6.325  11.458   6.499  0.3966  0.7864  0.6685
  509MOL0     H68652   6.568  11.487   6.666  1.7642  1.9325 -0.8266
  509MOL0     H68653   6.469  11.619   6.600 -1.4106 -0.1798 -4.0948
  509MOL0     H68654   6.523  11.512   6.368  1.7919  0.9416 -0.0440
  509MOL0     H68655   6.649  11.428   6.467 -0.8908 -2.4406 -1.4766
  509MOL0     H68656   6.631  11.736   6.466  1.3175  2.5858 -3.2671
  509MOL0     H68657   6.772  11.627   6.494  0.4013 -1.3165 -0.7253
  509MOL0     H68658   6.778  11.581   6.260 -2.2579 -2.1962 -0.2821
  509MOL0     H68659   6.620  11.669   6.239 -1.4209 -1.9677  3.1723
  509MOL0     H68660   6.743  11.881   6.314  1.6186 -0.1496  4.4187
  509MOL0     H68661   6.884  11.787   6.332 -1.4393 -1.5889  0.8277
  509MOL0     H68662   6.736  11.811   6.066 -1.3576  3.2933  1.0871
  509MOL0     H68663   6.899  11.741   6.086  1.2955  0.9531 -0.7107
  509MOL0     H68664   6.893  11.986   5.993 -1.2075  0.3481  0.2579
  509MOL0     H68665   6.871  12.020   6.172 -1.9106 -1.3436  1.0951
  509MOL0     H68666   7.106  11.927   5.908 -1.8208  2.2561  0.2159
  509MOL0     H68667   7.423  11.928   5.937  1.0758 -0.9671 -0.7390
  509MOL0     H68668   7.449  11.800   6.064 -2.1264 -3.7914  0.5473
  509MOL0     H68669   7.304  11.632   5.959 -1.9734 -1.6131 -3.0533
  509MOL0     H68670   7.263  11.734   5.827 -0.9057  0.6293  1.4432
  509MOL0     H68671   7.557  11.663   5.901  0.3419 -2.5927  1.0255
  509MOL0     H68672   7.491  11.762   5.770  0.6777 -0.2626  1.6370
  509MOL0     H68673   7.412  11.571   5.642 -1.3962 -1.5827 -0.4631
  509MOL0     H68674   7.409  11.476   5.790  3.9928 -3.6995 -0.0510
  509MOL0     H68675   7.515  11.376   5.937 -0.4072  3.1777  0.2378
  509MOL0     H68676   7.663  11.286   6.107 -0.9055 -0.4603 -1.7461
  509MOL0     H68677   8.034  11.435   6.388 -0.2982  0.6412 -1.5442
  509MOL0     H68678   8.168  11.355   6.568 -3.6301  3.5372  0.2290
  509MOL0     H68679   8.270  11.223   6.737 -0.1363 -1.2781 -5.0014
  509MOL0     H68680   8.116  11.157   6.820  0.0763  0.3275 -0.8832
  509MOL0     H68681   8.288  11.077   6.953  0.3994  1.9614 -0.6216
  509MOL0     H68682   8.238  10.948   6.859 -4.3610  2.0777  3.6062
  509MOL0     H68683   8.447  11.104   6.716  1.5794 -0.7981 -1.4307
  509MOL0     H68684   8.501  11.063   6.871 -0.4304  2.8802 -0.8131
  509MOL0     H68685   8.392  10.852   6.673  1.6469 -2.3914 -0.5154
  509MOL0     H68686   8.447  10.799   6.816  2.3351 -2.3361 -3.9007
  509MOL0     H68687   8.676  10.905   6.768  0.4875 -2.3630  2.6059
  509MOL0     H68688   8.613  10.935   6.602 -1.0925 -0.6934 -1.1172
  509MOL0     H68689   8.607  10.665   6.731  0.7229 -0.2368  1.0762
  509MOL0     H68690   8.572  10.712   6.556  2.9467  0.8663 -2.1597
  509MOL0     H68691   8.828  10.699   6.715 -1.8927 -2.2129  1.7189
  509MOL0     H68692   8.829  10.748   6.543  1.2604 -0.6618  0.3291
  509MOL0     H68693   8.794  10.457   6.634 -0.5497  0.1325 -0.0080
  509MOL0     H68694   8.729  10.516   6.483 -3.3188  1.0846  2.5678
  509MOL0     H68695   7.996  10.959   6.507  4.5444 -0.4941  2.2201
  509MOL0     H68696   7.913  11.026   6.296  1.1731 -2.1995  1.1553
  509MOL0     H68697   7.996  11.378   5.860 -0.5691  3.1795 -1.4676
  509MOL0     H68698   7.860  11.470   5.689  2.8039 -2.6610  0.2494
  509MOL0     H68699   6.111  11.471   6.565 -3.3837  1.0446 -0.7308
  509MOL0     H68700   5.900  11.354   6.574  0.3822 -2.2561 -1.6934
  509MOL0     H68701   5.697  11.421   6.786  0.4471  0.3665 -0.6890
  509MOL0     H68702   5.729  11.571   6.968 -3.2491 -1.4009 -2.0744
  509MOL0     H68703   5.690  11.673   7.149 -0.4042  2.1686  0.6290
  509MOL0     H68704   5.856  11.713   7.180  0.2882 -0.8168 -1.2050
  509MOL0     H68705   5.692  11.798   7.363 -1.0344 -0.6451 -0.4791
  509MOL0     H68706   5.813  11.675   7.428 -2.4871 -1.9102  3.6069
  509MOL0     H68707   5.613  11.512   7.374  0.0531  0.0578 -0.5525
  509MOL0     H68708   5.518  11.653   7.333  0.4473 -0.3739 -1.3065
  509MOL0     H68709   5.486  11.573   7.571 -1.3073 -0.5318 -2.5115
  509MOL0     H68710   5.656  11.608   7.601 -0.2935  0.9073  1.3167
  509MOL0     H68711   5.467  11.990   7.591  0.7444 -0.0906 -1.9040
  509MOL0     H68712   5.884  11.267   7.215 -2.3910  3.4785  1.9324
  509MOL0     H68713   5.866  11.023   7.144 -0.0493 -3.8109 -2.3530
  509MOL0     H68714   5.736  11.004   7.045  0.5798  0.8911  1.6183
  509MOL0     H68715   5.903  11.014   6.969  1.5590 -2.4814  0.7547
  510MOL0     O68716   4.305   1.113   0.649  0.0838 -0.2132  0.9455
  510MOL0     C68717   4.382   1.019   0.679 -0.1189 -0.0582  0.1155
  510MOL0     O68718   4.399   0.911   0.603  0.1364  0.1279 -0.6803
  510MOL0     C68719   4.296   0.861   0.528  0.1469  0.4349  0.6969
  510MOL0     C68720   4.307   0.847   0.390  0.6246 -0.0250  0.0127
  510MOL0     C68721   4.207   0.821   0.301 -0.5563 -0.3410  0.4525
  510MOL0     C68722   4.084   0.797   0.349  0.2728 -0.0697  0.1038
  510MOL0     O68723   3.997   0.749   0.249 -0.3406  0.7940  0.2667
  510MOL0     C68724   3.893   0.840   0.205 -0.4868 -0.1864 -0.8091
  510MOL0     C68725   3.784   0.745   0.164 -0.7997 -0.5120  1.1719
  510MOL0     C68726   3.706   0.698   0.280 -0.2580  0.7546  0.2511
  510MOL0     C68727   3.613   0.579   0.250 -0.0488  1.4972 -0.7949
  510MOL0     C68728   3.544   0.533   0.384 -0.7415  1.0862  0.0337
  510MOL0     C68729   3.488   0.392   0.371  0.4405  0.4668  0.5688
  510MOL0     C68730   3.415   0.351   0.500 -0.0003 -0.3455  0.0515
  510MOL0     C68731   3.290   0.451   0.535 -0.9331 -0.3193  0.3039
  510MOL0     N68732   3.175   0.438   0.448  0.0048  0.0913 -0.5845
  510MOL0     C68733   3.074   0.530   0.414  0.3276 -0.5226 -1.0252
  510MOL0     C68734   2.994   0.463   0.324  0.1589  0.4455 -0.4856
  510MOL0     C68735   2.874   0.538   0.269  0.0789 -0.3391  0.1869
  510MOL0     C68736   2.850   0.499   0.127 -0.7342 -0.5320  0.1376
  510MOL0     C68737   2.745   0.591   0.061  0.3083 -0.9539  0.0756
  510MOL0     C68738   2.764   0.605  -0.089 -0.3169 -0.1522 -0.4534
  510MOL0     O68739   2.891   0.665  -0.128 -0.4257  0.0237 -0.3270
  510MOL0     C68740   2.932   0.655  -0.256 -0.3722  0.3497 -0.1147
  510MOL0     C68741   2.843   0.615  -0.351  0.1558  0.5465 -0.0136
  510MOL0     C68742   2.888   0.605  -0.486 -0.1258 -0.6343 -0.5128
  510MOL0     C68743   3.019   0.644  -0.523  0.4535  0.6864 -0.2440
  510MOL0     C68744   3.057   0.651  -0.669 -0.0940  0.2457 -0.1687
  510MOL0     O68745   3.188   0.684  -0.701  0.1822 -0.2040 -0.5879
  510MOL0     C68746   3.237   0.693  -0.829  0.5444  0.6922 -0.4781
  510MOL0     C68747   3.168   0.729  -0.940 -0.5742 -0.4220  1.2825
  510MOL0     C68748   3.226   0.728  -1.069  0.3208  0.3558  0.2941
  510MOL0     C68749   3.363   0.687  -1.077 -0.3068  0.6046  0.0965
  510MOL0     O68750   3.411   0.707  -1.206 -1.2140  0.0331  0.0756
  510MOL0     C68751   3.547   0.685  -1.222 -1.1296  0.0340 -0.0068
  510MOL0     C68752   3.613   0.687  -1.361 -0.3338 -0.9988 -0.0768
  510MOL0     C68753   3.644   0.817  -1.417 -0.1093 -0.3463 -0.1370
  510MOL0     C68754   3.690   0.806  -1.565  0.1359 -0.2425  0.1803
  510MOL0     C68755   3.693   0.942  -1.639  1.2153 -0.4571 -1.3104
  510MOL0     C68756   3.821   1.020  -1.605 -0.1591 -0.6381 -0.2234
  510MOL0     C68757   3.844   1.119  -1.724 -0.4094 -0.1559 -0.3617
  510MOL0     C68758   3.973   1.205  -1.698 -1.2151  0.2170 -0.1287
  510MOL0    Cl68759   4.116   1.110  -1.735  0.3812 -0.2244  0.1423
  510MOL0     C68760   3.435   0.676  -0.958 -1.6382  0.0323  0.7359
  510MOL0     C68761   3.369   0.674  -0.834 -0.4283 -0.2178 -0.1701
  510MOL0     O68762   2.975   0.626  -0.745  0.6520 -0.7539 -0.3748
  510MOL0     C68763   3.105   0.676  -0.423  1.0479  0.5684  0.3599
  510MOL0     C68764   3.065   0.687  -0.291  0.7418  0.3218  0.8354
  510MOL0     N68765   3.062   0.345   0.295 -0.3915  0.9090  0.1179
  510MOL0     N68766   3.157   0.322   0.379  0.5193 -0.0674 -0.0673
  510MOL0     C68767   4.058   0.798   0.490  0.2538 -0.0991  0.0152
  510MOL0     C68768   4.162   0.841   0.576 -0.7832 -0.0364  0.4878
  510MOL0     C68769   4.470   1.044   0.800  0.5838 -0.0338  1.2097
  510MOL0     C68770   4.559   0.946   0.817  0.1396  0.2655  0.8403
  510MOL0     C68771   4.644   0.948   0.926 -0.6996 -1.1247 -0.8114
  510MOL0     C68772   4.653   1.058   1.018  0.8248 -0.5966 -0.2925
  510MOL0     O68773   4.735   1.064   1.123  0.6593 -0.2608 -0.4127
  510MOL0     C68774   4.879   1.020   1.115 -0.2496 -0.2122 -0.8330
  510MOL0     C68775   4.958   1.103   1.025  0.0699 -0.0274  0.4066
  510MOL0     C68776   4.935   1.258   1.048 -0.5259  0.7434 -0.0317
  510MOL0     C68777   5.031   1.356   0.977 -0.4419  0.2854  0.1883
  510MOL0     C68778   5.173   1.357   1.001 -0.8875  0.1147  0.3603
  510MOL0     C68779   5.292   1.356   1.040  0.2993  0.2448 -0.3502
  510MOL0     C68780   4.558   1.156   1.000 -0.9658 -0.4506  0.2558
  510MOL0     C68781   4.459   1.154   0.895  0.1286  0.9815  0.6741
  510MOL0     C68782   4.367   1.275   0.891  1.5565 -1.2204  0.4265
  510MOL0     H68783   4.396   0.875   0.334 -0.7032  0.7828 -1.7658
  510MOL0     H68784   4.217   0.813   0.193 -1.7306 -2.2594  0.4332
  510MOL0     H68785   3.860   0.907   0.284 -2.2793 -1.1390 -0.7048
  510MOL0     H68786   3.941   0.909   0.134 -1.4635  0.4114 -0.8992
  510MOL0     H68787   3.828   0.656   0.118 -1.7303  0.0215 -0.8397
  510MOL0     H68788   3.726   0.787   0.081  3.5036  2.5913 -0.6682
  510MOL0     H68789   3.637   0.776   0.312 -1.8546  0.3065 -1.8456
  510MOL0     H68790   3.772   0.672   0.363 -0.9264 -3.8408 -0.4076
  510MOL0     H68791   3.533   0.610   0.182 -1.7675 -1.9134 -0.5312
  510MOL0     H68792   3.674   0.498   0.208  0.5466  1.4421  0.1465
  510MOL0     H68793   3.614   0.537   0.467 -1.1833  0.3938  0.4439
  510MOL0     H68794   3.462   0.605   0.400 -1.0843  0.4492  1.2076
  510MOL0     H68795   3.421   0.384   0.285 -0.2121 -2.5488  1.2681
  510MOL0     H68796   3.573   0.327   0.349  0.1514  0.2465  0.0791
  510MOL0     H68797   3.489   0.358   0.579 -0.5082  2.8463  0.3872
  510MOL0     H68798   3.389   0.245   0.499 -1.0901 -0.1741  2.5260
  510MOL0     H68799   3.265   0.434   0.640  1.3724  2.1270  1.3872
  510MOL0     H68800   3.322   0.555   0.527 -0.1458 -0.6573 -1.5701
  510MOL0     H68801   3.046   0.620   0.466  0.2348  0.4781 -2.7256
  510MOL0     H68802   2.793   0.531   0.342  0.5628  1.9998  1.0414
  510MOL0     H68803   2.894   0.645   0.263  1.0608 -0.4648  1.0055
  510MOL0     H68804   2.942   0.504   0.068 -1.3565 -1.0405 -0.9030
  510MOL0     H68805   2.823   0.394   0.108  4.8479 -2.5547  1.4775
  510MOL0     H68806   2.757   0.694   0.095 -1.8879 -1.3339  2.2839
  510MOL0     H68807   2.643   0.553   0.069 -0.4782  0.5577 -1.9316
  510MOL0     H68808   2.681   0.664  -0.130  0.5048  1.4555  0.1089
  510MOL0     H68809   2.750   0.507  -0.137 -1.6540  0.4046 -1.2814
  510MOL0     H68810   2.736   0.606  -0.337 -0.2907  2.0872 -2.0037
  510MOL0     H68811   2.823   0.576  -0.568 -2.1884  2.9183 -0.2876
  510MOL0     H68812   3.063   0.757  -0.945 -0.8746 -1.5868  0.8299
  510MOL0     H68813   3.169   0.756  -1.157 -4.4278  0.9173  3.1952
  510MOL0     H68814   3.604   0.755  -1.160 -3.1815  0.3591  1.6209
  510MOL0     H68815   3.542   0.584  -1.182 -3.2574 -0.9558 -2.4850
  510MOL0     H68816   3.715   0.650  -1.342 -1.5084 -4.0403  0.9635
  510MOL0     H68817   3.558   0.616  -1.422  0.8087 -0.0795 -2.2778
  510MOL0     H68818   3.548   0.869  -1.411 -0.7146 -1.4683  0.2201
  510MOL0     H68819   3.724   0.867  -1.361  2.3405  1.3296 -4.6068
  510MOL0     H68820   3.612   0.740  -1.605  0.0799  0.4145 -0.8322
  510MOL0     H68821   3.779   0.743  -1.575 -0.5455 -0.8783 -3.6019
  510MOL0     H68822   3.605   1.003  -1.619  2.1354  0.6526 -0.4683
  510MOL0     H68823   3.676   0.924  -1.745 -1.8427  0.8195 -1.1293
  510MOL0     H68824   3.812   1.073  -1.509  0.8088 -0.4286 -0.2358
  510MOL0     H68825   3.915   0.963  -1.606  0.6594  0.6605 -1.4484
  510MOL0     H68826   3.764   1.193  -1.720 -1.5406 -1.0337 -3.6172
  510MOL0     H68827   3.845   1.061  -1.817  3.9996  1.7218 -1.7312
  510MOL0     H68828   3.982   1.291  -1.765  0.0009  0.5663  0.4559
  510MOL0     H68829   3.975   1.243  -1.596 -2.5126  0.8643 -0.3298
  510MOL0     H68830   3.543   0.665  -0.958 -1.7287 -1.1219 -0.8431
  510MOL0     H68831   3.418   0.652  -0.740  0.1979  0.6472 -0.2866
  510MOL0     H68832   3.209   0.688  -0.454  0.1048  0.4321 -3.3146
  510MOL0     H68833   3.139   0.717  -0.217  0.3016 -1.3976  2.0484
  510MOL0     H68834   3.963   0.765   0.531  2.1925 -1.8720  3.4965
  510MOL0     H68835   4.136   0.860   0.679  2.0438  2.8458  0.8141
  510MOL0     H68836   4.573   0.864   0.747 -1.0974  0.5647  0.2212
  510MOL0     H68837   4.708   0.862   0.943  4.4531  2.0882 -1.7250
  510MOL0     H68838   4.883   0.917   1.078 -1.3362 -0.9569  0.9582
  510MOL0     H68839   4.929   1.015   1.212 -0.7491 -2.4294 -0.6387
  510MOL0     H68840   4.924   1.074   0.925  2.1295 -2.1324  0.2291
  510MOL0     H68841   5.064   1.083   1.038 -0.0269 -2.1426 -1.6205
  510MOL0     H68842   4.957   1.271   1.155 -1.0375  1.4347 -0.0033
  510MOL0     H68843   4.830   1.278   1.024 -1.0902 -3.8266 -2.4473
  510MOL0     H68844   5.021   1.355   0.868  0.6487  1.4248  0.0542
  510MOL0     H68845   4.993   1.456   0.998  1.6129  1.0178  0.6466
  510MOL0     H68846   5.395   1.360   1.068  0.2472 -2.2137  0.4021
  510MOL0     H68847   4.554   1.223   1.085  3.0648 -2.4707  2.3057
  510MOL0     H68848   4.262   1.248   0.905  1.1277  0.0639 -0.1708
  510MOL0     H68849   4.393   1.348   0.968 -1.2759 -0.8159  1.1228
  510MOL0     H68850   4.374   1.312   0.788 -0.9184  3.5865  1.7020
  511MOL0     O68851   5.945   7.889   1.653 -0.0406  0.0349  0.0652
  511MOL0     C68852   6.038   7.809   1.661 -0.9800 -0.3644 -1.2743
  511MOL0     O68853   6.034   7.690   1.731 -0.3331  0.8617  0.4141
  511MOL0     C68854   5.917   7.649   1.794  0.5595 -0.8733 -0.2072
  511MOL0     C68855   5.840   7.735   1.886 -0.3980 -0.3208  0.1302
  511MOL0     C68856   5.729   7.681   1.953  0.3025  0.1377 -0.3365
  511MOL0     C68857   5.703   7.544   1.948  0.6906 -0.4497 -0.0690
  511MOL0     O68858   5.592   7.509   2.029 -0.6808 -0.0045  0.3862
  511MOL0     C68859   5.549   7.365   2.036 -0.8899 -1.5970  1.0628
  511MOL0     C68860   5.433   7.366   2.129  0.9073  0.3612 -0.2872
  511MOL0     C68861   5.323   7.273   2.066  0.7891 -0.2524  0.8020
  511MOL0     C68862   5.216   7.231   2.183 -0.9149 -0.4537  0.2235
  511MOL0     C68863   5.111   7.133   2.131 -0.5649  0.2594 -0.3240
  511MOL0     C68864   5.004   7.106   2.237 -0.4505  0.5309  0.2450
  511MOL0     C68865   5.046   7.070   2.375 -0.2101 -0.7935 -0.2723
  511MOL0     C68866   5.139   6.952   2.376 -0.7648 -0.1171  0.5341
  511MOL0     N68867   5.088   6.825   2.423  0.7405  0.3837  0.2918
  511MOL0     C68868   5.075   6.794   2.553  0.1197  0.3257 -0.2891
  511MOL0     C68869   5.033   6.664   2.549  0.0968  0.0084  0.4908
  511MOL0     C68870   5.008   6.564   2.666  0.7402 -0.8615 -0.0186
  511MOL0     C68871   5.142   6.495   2.704  0.1710 -0.0934  0.4189
  511MOL0     C68872   5.234   6.576   2.788  0.7818  0.0359  0.4631
  511MOL0     C68873   5.375   6.520   2.786  0.1749  0.1198 -0.1497
  511MOL0     O68874   5.450   6.599   2.882  0.3291 -0.9021 -0.3048
  511MOL0     C68875   5.432   6.568   3.016 -0.4915  0.1635 -0.5720
  511MOL0     C68876   5.373   6.450   3.061 -0.0970 -1.2692  0.3271
  511MOL0     C68877   5.357   6.419   3.199  0.5140  0.1491 -0.2597
  511MOL0     C68878   5.406   6.519   3.290 -0.8791 -0.8086 -0.7705
  511MOL0     C68879   5.387   6.506   3.441  0.8750 -1.1869  1.0893
  511MOL0     O68880   5.422   6.607   3.534 -0.2147 -0.0831 -0.1970
  511MOL0     C68881   5.454   6.578   3.664 -0.3287 -0.8130  0.6085
  511MOL0     C68882   5.515   6.454   3.694  0.0817  0.0723 -0.0797
  511MOL0     C68883   5.537   6.420   3.835 -0.2404  0.4086 -0.0605
  511MOL0     C68884   5.486   6.503   3.934  0.3465  0.9609 -0.1806
  511MOL0     O68885   5.489   6.466   4.067 -0.0691 -0.0942 -0.2956
  511MOL0     C68886   5.609   6.406   4.124  0.7996  0.4000 -1.2649
  511MOL0     C68887   5.587   6.364   4.266  0.1875 -0.6221 -0.2472
  511MOL0     C68888   5.711   6.313   4.341  0.0182  0.1822 -0.2426
  511MOL0     C68889   5.786   6.202   4.268 -0.5219 -0.9019 -0.3632
  511MOL0     C68890   5.902   6.142   4.336  0.2279 -0.5595  0.6342
  511MOL0     C68891   6.010   6.239   4.366 -0.4651 -0.3782  0.6100
  511MOL0     C68892   6.119   6.163   4.427  0.2413  0.4834  0.3276
  511MOL0     C68893   6.251   6.233   4.476  0.2900  0.5930  0.6093
  511MOL0    Cl68894   6.397   6.152   4.431  0.3319  0.6370 -0.1397
  511MOL0     C68895   5.416   6.627   3.902 -0.1714 -0.5204  0.3868
  511MOL0     C68896   5.395   6.666   3.761  0.5748  0.5153  0.0150
  511MOL0     O68897   5.342   6.400   3.481 -0.3935 -0.2084  0.3456
  511MOL0     C68898   5.464   6.640   3.249  0.1125 -0.3945  0.3431
  511MOL0     C68899   5.482   6.655   3.109 -0.2625  0.8097  0.4189
  511MOL0     N68900   4.994   6.626   2.422  0.1058 -0.6914 -0.7884
  511MOL0     N68901   5.028   6.731   2.346 -0.2154  1.1388  0.3601
  511MOL0     C68902   5.776   7.466   1.868  0.3307 -0.0984  0.5453
  511MOL0     C68903   5.881   7.513   1.799 -0.5475 -0.3884 -0.0843
  511MOL0     C68904   6.172   7.832   1.605  0.6053  0.4039  0.9217
  511MOL0     C68905   6.237   7.722   1.535  0.1270  0.5056 -1.2099
  511MOL0     C68906   6.360   7.736   1.464  0.4659 -1.0560  0.4399
  511MOL0     C68907   6.423   7.863   1.458 -0.0340 -0.1193 -0.1892
  511MOL0     O68908   6.532   7.891   1.387  0.3446  0.1614  0.3023
  511MOL0     C68909   6.608   7.807   1.297  1.2767 -0.3322 -0.2737
  511MOL0     C68910   6.732   7.882   1.244 -0.6273  0.8290 -0.1577
  511MOL0     C68911   6.699   8.016   1.186 -0.9571 -0.7605  0.2224
  511MOL0     C68912   6.786   8.084   1.077 -0.4261  0.0907 -0.4045
  511MOL0     C68913   6.926   8.115   1.121  0.0393  0.5051 -0.0056
  511MOL0     C68914   7.042   8.147   1.150 -0.1892 -0.7036  0.5776
  511MOL0     C68915   6.358   7.967   1.530 -0.4472  0.2788 -0.4208
  511MOL0     C68916   6.232   7.961   1.601  0.1398 -0.1098 -0.2352
  511MOL0     C68917   6.172   8.080   1.666 -0.5769 -0.0390  0.8056
  511MOL0     H68918   5.859   7.837   1.916 -0.4388 -0.5044  0.8125
  511MOL0     H68919   5.662   7.734   2.021  1.5394  2.1935 -0.6510
  511MOL0     H68920   5.516   7.339   1.935  1.9778  0.1567 -0.4464
  511MOL0     H68921   5.632   7.300   2.069 -1.4324 -2.5908  0.5283
  511MOL0     H68922   5.391   7.463   2.154  1.7999  1.0292 -1.2814
  511MOL0     H68923   5.471   7.322   2.222  1.4139  3.3646  1.0328
  511MOL0     H68924   5.375   7.187   2.024  3.3652  1.0052  1.2090
  511MOL0     H68925   5.280   7.323   1.979  1.2492  2.3828  1.9864
  511MOL0     H68926   5.283   7.187   2.257 -0.3373 -0.1918 -0.1319
  511MOL0     H68927   5.171   7.315   2.236  2.5030  1.6314  0.1238
  511MOL0     H68928   5.070   7.191   2.047  0.3849 -1.0934 -1.7652
  511MOL0     H68929   5.161   7.041   2.101  0.3487 -0.1059  2.1441
  511MOL0     H68930   4.934   7.190   2.245 -0.1123  0.7898  0.5505
  511MOL0     H68931   4.936   7.033   2.193 -0.5799  1.5421 -1.3334
  511MOL0     H68932   4.958   7.038   2.432  1.5595 -1.5534  2.1603
  511MOL0     H68933   5.091   7.150   2.435  2.8446 -2.9856  0.5803
  511MOL0     H68934   5.189   6.944   2.279  0.8559  1.7485  1.1586
  511MOL0     H68935   5.215   6.978   2.449 -0.9382  0.5961  0.4670
  511MOL0     H68936   5.096   6.855   2.640 -2.3271  1.2988 -0.3319
  511MOL0     H68937   4.963   6.619   2.750 -0.7683 -0.0500 -1.2988
  511MOL0     H68938   4.931   6.493   2.634 -0.4162  1.4117 -2.7057
  511MOL0     H68939   5.117   6.400   2.751 -1.2692 -0.1179 -0.3499
  511MOL0     H68940   5.179   6.467   2.605 -0.2504 -0.1626  0.2818
  511MOL0     H68941   5.187   6.570   2.887  1.8460  1.5013  1.0822
  511MOL0     H68942   5.242   6.680   2.757 -1.2662 -0.0954 -0.6621
  511MOL0     H68943   5.418   6.526   2.685 -3.6241 -0.5217 -2.0155
  511MOL0     H68944   5.374   6.412   2.805 -0.4948 -0.3270 -2.4244
  511MOL0     H68945   5.327   6.378   2.994 -1.3800 -1.2105  1.1117
  511MOL0     H68946   5.307   6.327   3.226  0.8401  0.2301  0.6317
  511MOL0     H68947   5.568   6.398   3.617  2.3783  0.3231  1.2146
  511MOL0     H68948   5.596   6.332   3.857  0.8209 -0.1527 -4.2680
  511MOL0     H68949   5.624   6.315   4.065 -0.0628 -1.9645  1.8965
  511MOL0     H68950   5.698   6.471   4.119  1.0591  0.0059 -1.9418
  511MOL0     H68951   5.553   6.459   4.309  4.4308  1.5979 -1.2733
  511MOL0     H68952   5.506   6.292   4.278 -1.2377  1.1522  1.4377
  511MOL0     H68953   5.786   6.391   4.357 -0.1157  0.5021 -1.1230
  511MOL0     H68954   5.672   6.285   4.439 -0.0246 -1.5466 -0.7231
  511MOL0     H68955   5.836   6.245   4.181  2.2009 -0.1661  1.4502
  511MOL0     H68956   5.707   6.133   4.236 -2.0380 -0.2833  1.8030
  511MOL0     H68957   5.958   6.073   4.272  4.3272  1.4373  1.7062
  511MOL0     H68958   5.871   6.088   4.426 -3.9098  0.8740  0.2579
  511MOL0     H68959   6.067   6.286   4.285  2.2629 -0.5892  2.2852
  511MOL0     H68960   5.990   6.324   4.431  1.5239  1.5505 -1.1045
  511MOL0     H68961   6.136   6.071   4.371  1.2045  2.5710 -3.1820
  511MOL0     H68962   6.083   6.130   4.525  2.8699 -1.7572  0.6717
  511MOL0     H68963   6.257   6.328   4.422 -0.7071 -1.0613 -2.7025
  511MOL0     H68964   6.263   6.254   4.583  0.0806  0.1982  0.7136
  511MOL0     H68965   5.386   6.692   3.984 -0.0830 -0.0246  0.0305
  511MOL0     H68966   5.352   6.759   3.725 -1.0480  0.5232  1.7716
  511MOL0     H68967   5.508   6.712   3.317  2.5107 -0.9990 -0.4536
  511MOL0     H68968   5.539   6.743   3.081 -1.4475  1.7401  0.8584
  511MOL0     H68969   5.751   7.362   1.848 -0.2924  0.0381  0.5929
  511MOL0     H68970   5.957   7.443   1.767  0.6759 -0.9485  3.5676
  511MOL0     H68971   6.195   7.622   1.540  0.3080  0.4418 -0.8771
  511MOL0     H68972   6.409   7.658   1.406  0.2886  1.5955 -3.6622
  511MOL0     H68973   6.549   7.781   1.209  0.8971 -1.0050  0.1723
  511MOL0     H68974   6.640   7.718   1.351  3.5206 -0.1566 -1.2117
  511MOL0     H68975   6.777   7.827   1.161 -1.5611  2.5978 -1.9213
  511MOL0     H68976   6.797   7.882   1.332 -0.7615  1.8048 -0.0517
  511MOL0     H68977   6.696   8.088   1.268  0.9163 -0.6676  0.2548
  511MOL0     H68978   6.599   8.017   1.141 -0.8331 -0.4308 -0.0532
  511MOL0     H68979   6.805   8.017   0.993  0.5986 -1.3718  0.9471
  511MOL0     H68980   6.740   8.176   1.038 -1.7474  0.2682  1.4455
  511MOL0     H68981   7.145   8.174   1.164  0.4669 -3.0377  0.7476
  511MOL0     H68982   6.412   8.061   1.528 -1.3194  0.7851 -1.8538
  511MOL0     H68983   6.143   8.075   1.771 -3.6955 -1.1116  0.0096
  511MOL0     H68984   6.254   8.152   1.662  1.1820 -1.8902  1.8596
  511MOL0     H68985   6.081   8.110   1.613  0.5459 -0.8041 -1.6767
  512MOL0     O68986  11.414   6.629   8.905 -0.3396 -0.3245  0.1372
  512MOL0     C68987  11.527   6.575   8.887 -0.3951 -0.1618  1.4733
  512MOL0     O68988  11.553   6.468   8.794  0.3182 -0.5774 -0.0125
  512MOL0     C68989  11.444   6.388   8.761 -0.4913  1.6460 -0.5365
  512MOL0     C68990  11.453   6.251   8.800  0.4793  0.3727  0.3828
  512MOL0     C68991  11.344   6.163   8.770 -0.3202  0.1806  0.3030
  512MOL0     C68992  11.238   6.206   8.684 -0.3889  1.2403 -0.5328
  512MOL0     O68993  11.150   6.108   8.661  0.6006  0.3064 -0.0354
  512MOL0     C68994  11.013   6.160   8.653 -0.3333 -0.7404 -0.6349
  512MOL0     C68995  10.915   6.041   8.682  1.0159 -0.1284  0.1808
  512MOL0     C68996  10.774   6.086   8.713  0.2531  0.3785 -0.1789
  512MOL0     C68997  10.686   5.961   8.731  0.9005 -1.0347 -0.1826
  512MOL0     C68998  10.542   5.996   8.773 -0.7938  0.2535  0.3080
  512MOL0     C68999  10.455   5.885   8.840  0.5164  1.4272  0.4484
  512MOL0     C69000  10.309   5.926   8.877 -0.0183  0.1857 -0.0527
  512MOL0     C69001  10.281   6.020   8.988  0.5695 -0.8968 -0.3529
  512MOL0     N69002  10.314   6.155   8.945 -0.2574 -0.4113 -0.1193
  512MOL0     C69003  10.421   6.236   8.999  0.2135  0.4679  0.9696
  512MOL0     C69004  10.421   6.337   8.909 -0.0942 -0.2820 -0.8862
  512MOL0     C69005  10.510   6.458   8.912 -0.3448  0.9575 -0.9415
  512MOL0     C69006  10.661   6.432   8.894 -0.0739  0.3215 -0.5726
  512MOL0     C69007  10.736   6.395   9.018  0.0707 -0.3180  0.6100
  512MOL0     C69008  10.817   6.511   9.080 -0.5694 -0.4552 -0.3390
  512MOL0     O69009  10.889   6.463   9.198  0.9029  1.1973  0.2277
  512MOL0     C69010  11.018   6.420   9.196  0.4492 -0.4884  0.3827
  512MOL0     C69011  11.064   6.343   9.299  0.5890  0.1090  0.4736
  512MOL0     C69012  11.198   6.308   9.321  0.1682 -0.0948  0.2107
  512MOL0     C69013  11.284   6.337   9.211  0.1513  0.1886 -0.6473
  512MOL0     C69014  11.440   6.302   9.225 -0.0036  0.6837  0.3910
  512MOL0     O69015  11.527   6.350   9.137  0.3723  0.1513  0.4009
  512MOL0     C69016  11.650   6.383   9.184 -1.0092 -0.2620  0.2376
  512MOL0     C69017  11.674   6.447   9.306  0.4578  0.4217 -0.1296
  512MOL0     C69018  11.794   6.492   9.344 -0.3025 -0.4970  1.0174
  512MOL0     C69019  11.909   6.464   9.271 -1.1809  0.1846  0.8124
  512MOL0     O69020  12.037   6.487   9.296 -0.0022 -0.4233 -0.5632
  512MOL0     C69021  12.060   6.544   9.419 -0.9070  0.5066  0.4879
  512MOL0     C69022  12.213   6.537   9.456  0.5277  0.4112 -0.1730
  512MOL0     C69023  12.244   6.631   9.570 -0.0080 -0.1205 -0.2289
  512MOL0     C69024  12.397   6.653   9.591  0.0229 -0.0213 -0.3434
  512MOL0     C69025  12.414   6.751   9.707  0.4618  0.5562  0.3742
  512MOL0     C69026  12.406   6.705   9.850  0.1554 -0.4043 -0.1735
  512MOL0     C69027  12.499   6.585   9.874 -0.1512  0.1832  0.5880
  512MOL0     C69028  12.521   6.592  10.026 -0.5637  0.0865 -0.5409
  512MOL0    Cl69029  12.621   6.448  10.067 -0.6118  0.1168 -0.4670
  512MOL0     C69030  11.887   6.396   9.147  0.4737 -0.2033 -0.0002
  512MOL0     C69031  11.765   6.367   9.103  1.3841  0.1858  0.3779
  512MOL0     O69032  11.471   6.249   9.329  0.2682  0.0773  0.5953
  512MOL0     C69033  11.238   6.415   9.109 -0.3189 -0.4095  0.0336
  512MOL0     C69034  11.101   6.454   9.093 -0.5104 -0.0648 -1.0089
  512MOL0     N69035  10.319   6.331   8.820  0.0773 -0.5248 -0.3122
  512MOL0     N69036  10.254   6.220   8.843  0.2623  0.2905  0.3824
  512MOL0     C69037  11.237   6.338   8.635  0.1644  0.6490  0.5684
  512MOL0     C69038  11.337   6.420   8.683 -0.5281  0.9103 -0.4436
  512MOL0     C69039  11.638   6.634   8.946  0.6748 -0.6015  0.3697
  512MOL0     C69040  11.767   6.606   8.896 -0.5150  1.0832  0.7857
  512MOL0     C69041  11.883   6.664   8.946 -0.3415  0.0639  0.2145
  512MOL0     C69042  11.875   6.740   9.063  1.1998 -0.0083  0.3766
  512MOL0     O69043  11.972   6.813   9.132 -0.5106  0.0325 -0.8178
  512MOL0     C69044  12.111   6.779   9.102 -0.0741 -0.2633  1.0155
  512MOL0     C69045  12.207   6.880   9.172  0.6419 -0.2677 -0.1360
  512MOL0     C69046  12.343   6.900   9.114 -0.2545 -0.5772 -0.1101
  512MOL0     C69047  12.436   6.792   9.147 -1.2041 -0.0809 -1.0413
  512MOL0     C69048  12.405   6.666   9.093 -0.8576 -0.2827 -0.0480
  512MOL0     C69049  12.371   6.558   9.058 -1.0278  0.4091  0.5397
  512MOL0     C69050  11.752   6.776   9.110 -0.7772  0.1794 -0.5947
  512MOL0     C69051  11.634   6.736   9.048  0.1593  0.1137  0.5508
  512MOL0     C69052  11.492   6.778   9.106 -0.4560  0.3034  0.5921
  512MOL0     H69053  11.540   6.226   8.859  2.1279  1.0506 -1.6520
  512MOL0     H69054  11.343   6.063   8.811  1.3052  0.3992  0.9635
  512MOL0     H69055  10.985   6.229   8.733 -1.5906 -0.2827 -1.4325
  512MOL0     H69056  10.992   6.198   8.552  1.6396 -1.5480 -1.4047
  512MOL0     H69057  10.952   5.978   8.763 -0.8519 -0.8573  0.5358
  512MOL0     H69058  10.915   5.979   8.591 -4.1551 -0.3453  0.0148
  512MOL0     H69059  10.737   6.163   8.644 -0.7170  0.5318  0.4962
  512MOL0     H69060  10.774   6.136   8.810  1.7212 -0.8252  0.4983
  512MOL0     H69061  10.688   5.912   8.633 -1.8473  1.1467 -1.4650
  512MOL0     H69062  10.727   5.886   8.799 -1.7196 -0.4903  2.1752
  512MOL0     H69063  10.557   6.064   8.858 -2.0471 -0.3093  1.0137
  512MOL0     H69064  10.495   6.050   8.690  2.7309  4.8354  0.8398
  512MOL0     H69065  10.434   5.797   8.778 -0.3307  1.8169  0.1572
  512MOL0     H69066  10.513   5.851   8.926 -0.3509 -2.6498 -0.3587
  512MOL0     H69067  10.258   5.834   8.907  0.6535  0.0172  0.6031
  512MOL0     H69068  10.261   5.976   8.793 -3.7998  2.0277  2.8912
  512MOL0     H69069  10.182   6.018   9.035  0.5508  0.6176 -0.3088
  512MOL0     H69070  10.347   6.006   9.074  2.6005  1.8384 -1.3347
  512MOL0     H69071  10.487   6.214   9.082  1.7908 -1.0468 -0.6114
  512MOL0     H69072  10.478   6.507   8.820 -0.2953  0.0510 -1.4549
  512MOL0     H69073  10.484   6.520   8.998 -1.5793  1.3179 -1.5572
  512MOL0     H69074  10.675   6.345   8.828  2.3766 -0.1467  0.4400
  512MOL0     H69075  10.687   6.520   8.834  2.5051 -2.0216 -3.2158
  512MOL0     H69076  10.802   6.311   8.995  0.7201  0.5278 -0.7068
  512MOL0     H69077  10.666   6.349   9.089 -1.3593 -1.1422 -1.2469
  512MOL0     H69078  10.755   6.599   9.098 -0.0704 -0.4422  1.4657
  512MOL0     H69079  10.883   6.538   8.997 -0.2132  0.4313  0.2217
  512MOL0     H69080  10.997   6.334   9.385 -0.5269 -3.5303 -0.5948
  512MOL0     H69081  11.244   6.273   9.413 -2.0470 -0.1490  1.3623
  512MOL0     H69082  11.598   6.477   9.378  1.6742  4.7714 -0.3410
  512MOL0     H69083  11.804   6.535   9.443 -0.3205  2.7288 -0.2769
  512MOL0     H69084  12.029   6.648   9.428 -1.4737  0.3333  0.5764
  512MOL0     H69085  12.016   6.489   9.503 -1.0494  0.1359  0.1783
  512MOL0     H69086  12.242   6.434   9.476 -0.7268  0.5221  2.8608
  512MOL0     H69087  12.271   6.584   9.376 -0.9467  4.0848  0.6701
  512MOL0     H69088  12.206   6.731   9.546  0.7859  0.8863  2.3259
  512MOL0     H69089  12.191   6.603   9.662  3.1195  3.5145  3.0105
  512MOL0     H69090  12.455   6.670   9.499  0.8226 -3.0132 -0.4906
  512MOL0     H69091  12.452   6.563   9.620  0.0646  0.6399  1.7865
  512MOL0     H69092  12.345   6.835   9.695  0.0838 -0.0502 -2.4302
  512MOL0     H69093  12.509   6.804   9.691 -0.7199  2.7796  0.3363
  512MOL0     H69094  12.427   6.792   9.913  4.1325 -0.5097 -1.0831
  512MOL0     H69095  12.305   6.667   9.868  0.1507 -0.7699 -0.9034
  512MOL0     H69096  12.597   6.584   9.827 -0.9003 -3.4127 -1.2361
  512MOL0     H69097  12.452   6.491   9.843 -1.1052  1.3655 -1.8347
  512MOL0     H69098  12.581   6.678  10.057  0.6141 -1.1580  0.7647
  512MOL0     H69099  12.431   6.598  10.088 -1.1409  2.7324 -1.5222
  512MOL0     H69100  11.974   6.373   9.086  1.5103  2.4157  0.3641
  512MOL0     H69101  11.759   6.331   9.000  2.0292 -0.8969  0.7014
  512MOL0     H69102  11.322   6.424   9.040  1.3770 -3.5858  1.4655
  512MOL0     H69103  11.070   6.517   9.010 -1.4634 -1.6273 -1.8742
  512MOL0     H69104  11.160   6.351   8.560 -0.5171  1.5043  1.3941
  512MOL0     H69105  11.361   6.525   8.666  2.6322  0.7565  2.0523
  512MOL0     H69106  11.784   6.534   8.816  2.1272  1.6509  0.7432
  512MOL0     H69107  11.981   6.638   8.906 -2.5535 -2.0195 -4.6214
  512MOL0     H69108  12.113   6.798   8.995 -1.9421  0.6903  1.1111
  512MOL0     H69109  12.140   6.673   9.109 -1.8130 -0.8406  0.0808
  512MOL0     H69110  12.226   6.846   9.274 -1.8354 -1.7625 -0.0955
  512MOL0     H69111  12.159   6.978   9.185 -0.7263 -1.2715  3.7920
  512MOL0     H69112  12.382   6.998   9.142  0.6073 -1.2669  1.1999
  512MOL0     H69113  12.319   6.907   9.007 -2.5964 -1.6497  0.2909
  512MOL0     H69114  12.534   6.829   9.114 -0.3766  0.5266  1.8087
  512MOL0     H69115  12.448   6.771   9.254  1.2951 -3.7840 -1.8836
  512MOL0     H69116  12.331   6.462   9.034 -1.0042 -0.8515  4.7649
  512MOL0     H69117  11.756   6.834   9.201  3.0971 -2.9646  1.6048
  512MOL0     H69118  11.428   6.823   9.029  0.9292 -0.1409 -0.8953
  512MOL0     H69119  11.441   6.690   9.146 -2.5624  0.2449 -1.9855
  512MOL0     H69120  11.507   6.849   9.187  0.7095  3.0291 -1.8147
  513MOL0     O69121   6.226   4.163   6.031 -0.3029 -0.4011  0.4340
  513MOL0     C69122   6.325   4.227   6.056 -0.1758  0.0133  1.5794
  513MOL0     O69123   6.395   4.216   6.167 -0.1548 -0.0299  0.6215
  513MOL0     C69124   6.369   4.114   6.268 -0.2051 -0.2033  0.4765
  513MOL0     C69125   6.247   4.047   6.284  0.3735 -0.2486 -0.4002
  513MOL0     C69126   6.240   3.935   6.366 -0.5206 -0.0593  0.3497
  513MOL0     C69127   6.356   3.899   6.446  0.3816 -0.6386  0.7284
  513MOL0     O69128   6.347   3.792   6.535 -0.3530 -0.2360 -0.1600
  513MOL0     C69129   6.236   3.798   6.623  0.6961  0.0331  0.2149
  513MOL0     C69130   6.262   3.707   6.751  0.1723 -0.1579  0.7474
  513MOL0     C69131   6.135   3.634   6.802  0.9130 -0.1522  0.3464
  513MOL0     C69132   6.160   3.536   6.921 -0.2743 -0.5055 -0.0983
  513MOL0     C69133   6.193   3.618   7.056 -0.3245  0.5006 -0.6000
  513MOL0     C69134   6.241   3.515   7.158 -0.1938  0.2286  0.2641
  513MOL0     C69135   6.143   3.413   7.216  0.0493  1.1360 -0.5062
  513MOL0     C69136   6.178   3.351   7.349 -0.8072  1.1747  0.4648
  513MOL0     N69137   6.059   3.282   7.411 -0.3386  0.0309 -0.2133
  513MOL0     C69138   6.018   3.153   7.383  0.8620  0.2634 -0.3927
  513MOL0     C69139   5.920   3.119   7.476  0.6916 -0.1876 -0.0945
  513MOL0     C69140   5.854   2.982   7.479 -1.2661 -1.0893 -0.8785
  513MOL0     C69141   5.760   2.966   7.360  0.3370  0.1880  0.1597
  513MOL0     C69142   5.691   2.834   7.363 -0.1966  1.0576 -0.4298
  513MOL0     C69143   5.586   2.809   7.252  0.5828 -0.5321 -0.9988
  513MOL0     O69144   5.480   2.898   7.275  0.2083  0.5846  0.7215
  513MOL0     C69145   5.370   2.883   7.197  1.0571  0.1268  0.1718
  513MOL0     C69146   5.312   2.765   7.149 -0.0710  0.4025  0.3391
  513MOL0     C69147   5.188   2.772   7.076  0.0200  0.1813  0.0286
  513MOL0     C69148   5.120   2.893   7.048 -0.1330  0.8582 -0.5622
  513MOL0     C69149   4.989   2.900   6.975 -0.6491 -0.3251 -0.8744
  513MOL0     O69150   4.944   3.029   6.944 -0.0162  0.5109  0.1760
  513MOL0     C69151   4.835   3.029   6.864  0.2261 -0.0826  0.2102
  513MOL0     C69152   4.713   2.959   6.883 -0.1278 -0.2694 -0.4654
  513MOL0     C69153   4.601   2.976   6.799  0.8035  0.2504 -0.0776
  513MOL0     C69154   4.612   3.073   6.693  0.3305  0.4367 -0.4347
  513MOL0     O69155   4.497   3.104   6.623  0.0258 -0.3618  0.5694
  513MOL0     C69156   4.490   3.141   6.487 -0.0106 -0.1534 -1.1268
  513MOL0     C69157   4.435   3.284   6.478  0.2130 -0.7647  0.2742
  513MOL0     C69158   4.303   3.308   6.558  1.0120  0.9956 -0.1966
  513MOL0     C69159   4.181   3.233   6.496 -0.5769 -0.6909 -0.2475
  513MOL0     C69160   4.063   3.261   6.597  0.0403 -0.2358 -0.6284
  513MOL0     C69161   3.953   3.153   6.594  0.3054  0.0987  0.2291
  513MOL0     C69162   3.818   3.207   6.630 -0.2182  0.2861  0.4147
  513MOL0     C69163   3.695   3.127   6.592 -0.5580 -0.6136  0.4629
  513MOL0    Cl69164   3.546   3.223   6.652  0.0442  0.0427  0.0531
  513MOL0     C69165   4.729   3.144   6.669 -0.4693 -0.3381 -0.7662
  513MOL0     C69166   4.837   3.121   6.756  0.0283  0.1950  0.7155
  513MOL0     O69167   4.938   2.792   6.943 -0.6777  0.1400 -0.9575
  513MOL0     C69168   5.190   3.008   7.093 -0.2661 -0.5364 -0.2042
  513MOL0     C69169   5.310   2.999   7.162 -1.1306 -0.4908  0.0227
  513MOL0     N69170   5.905   3.234   7.555  0.0246  0.1762  0.1044
  513MOL0     N69171   5.982   3.333   7.509  0.0380  0.5247 -0.0112
  513MOL0     C69172   6.473   3.974   6.436  0.2599 -0.4234 -0.1384
  513MOL0     C69173   6.480   4.078   6.349 -0.1823 -1.0114  0.2691
  513MOL0     C69174   6.382   4.319   5.956 -0.6150  0.1872  0.6111
  513MOL0     C69175   6.459   4.427   6.003  0.5114  0.6305  0.2908
  513MOL0     C69176   6.527   4.511   5.914  0.3876 -0.1307 -0.1539
  513MOL0     C69177   6.508   4.501   5.779  0.1598 -0.0317  0.2976
  513MOL0     O69178   6.578   4.590   5.694 -0.4969 -0.7053 -0.0772
  513MOL0     C69179   6.561   4.564   5.553  0.6576  0.5792 -0.7163
  513MOL0     C69180   6.635   4.444   5.500 -0.2964 -1.5485  0.2622
  513MOL0     C69181   6.591   4.393   5.364 -0.4336  0.1398 -0.3200
  513MOL0     C69182   6.693   4.278   5.322  0.4122 -0.2302 -0.1508
  513MOL0     C69183   6.668   4.260   5.178 -0.1891  1.4276  0.7365
  513MOL0     C69184   6.639   4.230   5.062 -0.4619  0.5208 -0.6508
  513MOL0     C69185   6.419   4.401   5.726 -0.5212  0.0577  0.0725
  513MOL0     C69186   6.362   4.304   5.813  0.0091 -0.0667  0.6866
  513MOL0     C69187   6.275   4.213   5.743  0.3031  0.1715 -0.5585
  513MOL0     H69188   6.160   4.075   6.226 -2.0116 -2.6583  1.6947
  513MOL0     H69189   6.150   3.876   6.378  1.1596 -3.1203 -0.9287
  513MOL0     H69190   6.213   3.898   6.662 -0.7502  0.4318 -1.5162
  513MOL0     H69191   6.147   3.761   6.572  1.0265 -1.4196  0.6408
  513MOL0     H69192   6.310   3.770   6.826  1.0745  1.7593 -1.3154
  513MOL0     H69193   6.329   3.626   6.723  0.8169  0.5670  0.1761
  513MOL0     H69194   6.081   3.584   6.721 -0.2187 -1.2836  1.7450
  513MOL0     H69195   6.055   3.698   6.839 -2.4366 -3.2406 -0.8874
  513MOL0     H69196   6.075   3.470   6.936  0.2970 -1.2972 -0.2536
  513MOL0     H69197   6.247   3.474   6.894 -2.2163 -3.1027 -0.7400
  513MOL0     H69198   6.276   3.687   7.039  1.1907  0.1031  3.8042
  513MOL0     H69199   6.109   3.672   7.099  2.1060  4.1589 -0.0511
  513MOL0     H69200   6.319   3.457   7.109 -1.7180 -0.9227 -0.9245
  513MOL0     H69201   6.279   3.570   7.245 -2.7665 -1.8054  2.9136
  513MOL0     H69202   6.115   3.345   7.136 -1.2476  2.3651 -1.1528
  513MOL0     H69203   6.056   3.473   7.246  1.4908  2.0703  2.1596
  513MOL0     H69204   6.249   3.271   7.329 -3.7092 -0.9737 -2.3670
  513MOL0     H69205   6.221   3.426   7.416 -2.8496  1.7416  1.2495
  513MOL0     H69206   6.055   3.093   7.301 -0.1224 -2.1285  0.8358
  513MOL0     H69207   5.938   2.913   7.490  0.2206  1.0648  4.5189
  513MOL0     H69208   5.802   2.967   7.573 -0.1025  0.0926 -0.0106
  513MOL0     H69209   5.691   3.050   7.355 -0.1671 -0.2948 -1.6330
  513MOL0     H69210   5.817   2.972   7.266  0.5983  2.0791  0.4121
  513MOL0     H69211   5.640   2.818   7.458 -1.2925 -1.7223 -1.3495
  513MOL0     H69212   5.768   2.757   7.357  1.8193  2.5540  3.4034
  513MOL0     H69213   5.543   2.712   7.277  2.3010 -0.8605  1.0163
  513MOL0     H69214   5.623   2.801   7.150  1.2299 -1.8067 -0.6821
  513MOL0     H69215   5.361   2.671   7.173 -0.1986 -0.2109 -1.6325
  513MOL0     H69216   5.131   2.686   7.042  1.1026 -0.7650  0.5319
  513MOL0     H69217   4.704   2.896   6.971  1.1438  0.0994 -0.0480
  513MOL0     H69218   4.514   2.914   6.819  0.6572  0.5563  0.2372
  513MOL0     H69219   4.589   3.128   6.442  0.2444 -1.6580 -0.1683
  513MOL0     H69220   4.422   3.070   6.441 -2.7593  2.2538 -1.0647
  513MOL0     H69221   4.505   3.352   6.528  0.3413 -2.6681  2.9191
  513MOL0     H69222   4.421   3.304   6.372 -2.0420 -2.8876  0.1026
  513MOL0     H69223   4.321   3.278   6.662 -0.3268 -1.6411 -0.6364
  513MOL0     H69224   4.285   3.416   6.561  2.0107  1.1624  0.6598
  513MOL0     H69225   4.195   3.124   6.495 -1.6171 -0.8366 -0.4075
  513MOL0     H69226   4.166   3.281   6.399  0.4619 -2.3191 -1.2672
  513MOL0     H69227   4.025   3.363   6.589  0.4147 -0.1850 -1.9834
  513MOL0     H69228   4.110   3.251   6.696  0.7654 -1.2394 -1.0550
  513MOL0     H69229   3.952   3.119   6.491  1.5889  0.3618  0.1131
  513MOL0     H69230   3.973   3.060   6.647 -0.2473 -0.5731 -0.7173
  513MOL0     H69231   3.807   3.299   6.571 -0.6824 -0.5487 -0.8334
  513MOL0     H69232   3.807   3.223   6.738 -1.2128 -2.5709  0.8060
  513MOL0     H69233   3.689   3.120   6.483  2.8279  1.4877 -0.0031
  513MOL0     H69234   3.695   3.036   6.651 -1.7740  0.8528  2.8843
  513MOL0     H69235   4.718   3.226   6.599 -0.2032  0.5203  0.1678
  513MOL0     H69236   4.926   3.182   6.747 -0.6040  0.9748 -0.5349
  513MOL0     H69237   5.143   3.104   7.075 -2.3170 -1.1149  1.5661
  513MOL0     H69238   5.358   3.095   7.177 -0.0305 -0.4308 -3.2492
  513MOL0     H69239   6.563   3.955   6.494 -1.3022  1.6147  3.2200
  513MOL0     H69240   6.571   4.137   6.340 -2.4066  2.6610 -0.2685
  513MOL0     H69241   6.462   4.435   6.112  1.3557 -1.4877  0.4915
  513MOL0     H69242   6.593   4.592   5.945  0.2473  0.4126 -1.2110
  513MOL0     H69243   6.619   4.645   5.508  3.4475  0.9897  3.1327
  513MOL0     H69244   6.452   4.567   5.539  0.2968 -0.8054  1.3640
  513MOL0     H69245   6.612   4.361   5.567 -0.8440 -0.9006  0.8854
  513MOL0     H69246   6.741   4.471   5.504 -0.7460  0.5987 -1.1661
  513MOL0     H69247   6.599   4.466   5.283 -1.7054 -0.5821 -1.1171
  513MOL0     H69248   6.488   4.356   5.366  0.1523 -1.5536  1.2285
  513MOL0     H69249   6.796   4.308   5.343  0.0767  1.1140 -0.3196
  513MOL0     H69250   6.681   4.182   5.372  3.2895  0.2466  1.7054
  513MOL0     H69251   6.615   4.194   4.964 -0.8934 -1.3434  0.0957
  513MOL0     H69252   6.411   4.380   5.620 -2.2385 -1.8219  0.5085
  513MOL0     H69253   6.292   4.192   5.637  0.5802 -1.2689 -0.2498
  513MOL0     H69254   6.290   4.117   5.794 -2.3872  1.0719  2.2804
  513MOL0     H69255   6.170   4.244   5.753  0.6316  0.9587  0.6200
  514MOL0     O69256   1.418   6.571   5.532 -0.1904  0.2929 -0.4326
  514MOL0     C69257   1.408   6.463   5.589 -0.5757  0.1058  0.0551
  514MOL0     O69258   1.482   6.416   5.694 -0.0189 -0.2401  0.1482
  514MOL0     C69259   1.530   6.522   5.771  0.0619  1.0032 -0.8199
  514MOL0     C69260   1.449   6.541   5.884 -0.2298  0.4742 -0.1861
  514MOL0     C69261   1.502   6.631   5.983 -0.0913 -0.7370 -0.3403
  514MOL0     C69262   1.628   6.697   5.964  0.4122  0.5785 -0.1243
  514MOL0     O69263   1.700   6.770   6.055 -0.0816 -0.7625  0.7456
  514MOL0     C69264   1.641   6.782   6.187  0.5644 -0.5533 -0.7634
  514MOL0     C69265   1.666   6.661   6.285 -0.3521 -0.6077 -0.7806
  514MOL0     C69266   1.818   6.639   6.303  1.2643 -0.2880 -0.7945
  514MOL0     C69267   1.858   6.508   6.239 -0.8048 -1.6038  0.5540
  514MOL0     C69268   2.003   6.498   6.178 -0.1267  1.2689 -1.3764
  514MOL0     C69269   2.086   6.428   6.284 -0.9025 -0.3591  0.3089
  514MOL0     C69270   2.224   6.410   6.225  0.5664  0.4686 -0.2989
  514MOL0     C69271   2.325   6.344   6.322 -0.0339  1.4382 -0.4800
  514MOL0     N69272   2.461   6.337   6.269 -0.2515 -0.5941  1.0359
  514MOL0     C69273   2.528   6.436   6.205  0.9837  0.2413  0.3531
  514MOL0     C69274   2.641   6.373   6.155 -0.0899 -0.2943 -0.2916
  514MOL0     C69275   2.750   6.426   6.070 -0.0707  0.3958  0.2319
  514MOL0     C69276   2.774   6.366   5.936 -0.3822 -0.2691 -1.1657
  514MOL0     C69277   2.677   6.433   5.839 -0.3253 -0.6760  0.6560
  514MOL0     C69278   2.709   6.385   5.691  0.4264 -0.7070 -0.4273
  514MOL0     O69279   2.849   6.409   5.659  0.5016 -1.1768 -1.0611
  514MOL0     C69280   2.879   6.459   5.537  0.6329  0.6083 -0.2998
  514MOL0     C69281   2.985   6.543   5.542  0.3714 -0.4503 -1.1433
  514MOL0     C69282   3.031   6.613   5.436  0.8546 -0.0125  0.2472
  514MOL0     C69283   2.959   6.619   5.311  0.0286 -0.6041  0.3549
  514MOL0     C69284   3.002   6.713   5.195  0.8724  0.1237 -0.8580
  514MOL0     O69285   2.942   6.679   5.081 -0.5314  0.4478 -0.0382
  514MOL0     C69286   2.952   6.770   4.977  0.3393 -0.3955  0.0327
  514MOL0     C69287   2.937   6.731   4.849 -0.4553 -1.0100 -0.1064
  514MOL0     C69288   2.930   6.824   4.740  0.3268  1.0025  0.2377
  514MOL0     C69289   2.944   6.965   4.764 -0.5949  0.3566  0.5328
  514MOL0     O69290   2.939   7.050   4.660  0.4783  0.0109 -0.1496
  514MOL0     C69291   2.824   7.041   4.580  0.2549  0.3981  0.9689
  514MOL0     C69292   2.840   7.138   4.469 -0.6336 -0.3460  0.4068
  514MOL0     C69293   2.876   7.274   4.515 -0.1420 -0.3857 -0.6372
  514MOL0     C69294   2.762   7.326   4.610 -0.1150 -0.5408 -1.1476
  514MOL0     C69295   2.802   7.468   4.661 -0.6755  0.3221 -0.1195
  514MOL0     C69296   2.902   7.453   4.768  0.3936  0.1916  0.3632
  514MOL0     C69297   2.937   7.594   4.828 -1.2012  0.1462 -0.1851
  514MOL0     C69298   3.082   7.601   4.899 -0.8706  0.0125 -0.0235
  514MOL0    Cl69299   3.098   7.761   4.969  0.4336  0.3572  0.6047
  514MOL0     C69300   2.970   7.012   4.892 -0.6782 -1.2205 -0.1296
  514MOL0     C69301   2.955   6.914   4.989 -0.3389  0.6901  0.5247
  514MOL0     O69302   3.093   6.795   5.213 -0.1533 -0.3997 -0.9533
  514MOL0     C69303   2.856   6.530   5.307 -0.0827  0.0441 -0.0214
  514MOL0     C69304   2.813   6.444   5.415 -0.1665 -1.1403 -0.3317
  514MOL0     N69305   2.627   6.244   6.200 -0.4177  0.5859 -0.3053
  514MOL0     N69306   2.533   6.223   6.278  0.0387  0.3768 -0.3209
  514MOL0     C69307   1.702   6.669   5.845  0.0847 -0.6580  0.6152
  514MOL0     C69308   1.654   6.583   5.752  0.1592 -0.0525 -0.0372
  514MOL0     C69309   1.319   6.366   5.526 -0.2856  0.0004 -0.1275
  514MOL0     C69310   1.328   6.340   5.389  0.2477 -0.5371 -0.1062
  514MOL0     C69311   1.242   6.249   5.332 -0.3275  0.9809 -0.1471
  514MOL0     C69312   1.130   6.193   5.395 -0.3454  0.3688 -0.3518
  514MOL0     O69313   1.023   6.131   5.335 -0.7778  0.0007  0.7344
  514MOL0     C69314   1.012   6.113   5.191 -0.2425 -0.3125 -0.4214
  514MOL0     C69315   1.065   5.975   5.143 -0.1472 -0.4872  0.2589
  514MOL0     C69316   0.985   5.911   5.029  0.6769 -0.2755  0.7168
  514MOL0     C69317   0.971   5.989   4.897  1.0484  0.3086 -0.2442
  514MOL0     C69318   1.092   6.048   4.842 -0.4682 -1.4588 -0.3324
  514MOL0     C69319   1.183   6.117   4.790 -0.6843 -0.7640 -1.2736
  514MOL0     C69320   1.102   6.241   5.530  1.2058 -0.3639  0.0332
  514MOL0     C69321   1.199   6.319   5.597  0.3497 -0.2281  0.1033
  514MOL0     C69322   1.183   6.365   5.737  0.2019 -0.6033 -0.0530
  514MOL0     H69323   1.361   6.482   5.909  0.0336 -0.0131 -0.4106
  514MOL0     H69324   1.444   6.640   6.074 -1.4018  4.4686 -1.3535
  514MOL0     H69325   1.680   6.875   6.230  1.3020 -0.5662 -1.3803
  514MOL0     H69326   1.533   6.790   6.196  0.6948  1.1103 -0.3859
  514MOL0     H69327   1.625   6.566   6.249 -0.0754 -0.3512 -1.7918
  514MOL0     H69328   1.629   6.710   6.375  4.2884 -1.2428  1.8068
  514MOL0     H69329   1.848   6.629   6.408  1.1629 -1.6498 -0.8692
  514MOL0     H69330   1.877   6.720   6.260  0.1404 -0.6108 -3.1114
  514MOL0     H69331   1.844   6.429   6.313  2.6386 -1.6628  1.3216
  514MOL0     H69332   1.791   6.499   6.154 -0.5799 -0.9711  0.3012
  514MOL0     H69333   1.990   6.439   6.086  1.6915 -1.9441  0.2374
  514MOL0     H69334   2.057   6.587   6.147 -1.2600  2.6348  0.3721
  514MOL0     H69335   2.086   6.486   6.376  0.4346  0.8407 -0.4097
  514MOL0     H69336   2.055   6.328   6.316  1.6358 -2.4376 -2.9917
  514MOL0     H69337   2.266   6.510   6.208  2.8027 -0.6251 -1.6740
  514MOL0     H69338   2.220   6.358   6.128 -2.7169  0.5689 -0.3339
  514MOL0     H69339   2.318   6.401   6.414 -1.7422  0.4536  0.0621
  514MOL0     H69340   2.308   6.239   6.350  1.4231  1.7282  1.7253
  514MOL0     H69341   2.505   6.535   6.165  2.8372 -0.2535 -2.2840
  514MOL0     H69342   2.741   6.535   6.069 -0.9771  0.3219 -0.7947
  514MOL0     H69343   2.839   6.415   6.133 -2.9338 -0.2572  4.5475
  514MOL0     H69344   2.881   6.376   5.915 -0.0526 -0.9637  0.0840
  514MOL0     H69345   2.753   6.260   5.956  1.6967 -0.8231 -1.6323
  514MOL0     H69346   2.680   6.543   5.843 -3.9691 -0.4597  0.4286
  514MOL0     H69347   2.577   6.402   5.871 -0.7074 -2.4153 -1.9613
  514MOL0     H69348   2.654   6.455   5.628 -0.3834  0.7461  1.7628
  514MOL0     H69349   2.667   6.287   5.671 -0.0022 -0.2197 -2.0183
  514MOL0     H69350   3.032   6.563   5.639  0.0143  2.7931 -1.5121
  514MOL0     H69351   3.117   6.675   5.460 -0.5060  2.7425 -1.4236
  514MOL0     H69352   2.931   6.624   4.839 -0.4010 -1.8783  5.6674
  514MOL0     H69353   2.925   6.782   4.640  0.6602  1.3434  0.0757
  514MOL0     H69354   2.833   6.941   4.535  0.2122  1.2231 -0.9731
  514MOL0     H69355   2.732   7.058   4.636 -0.8480  0.3399 -0.7544
  514MOL0     H69356   2.926   7.108   4.408 -0.6037 -0.7899  0.6628
  514MOL0     H69357   2.745   7.128   4.416 -2.1543  0.1264  2.8510
  514MOL0     H69358   2.968   7.267   4.573  0.0919 -1.2846 -1.0916
  514MOL0     H69359   2.896   7.349   4.438  0.9890  1.2453  1.1941
  514MOL0     H69360   2.719   7.257   4.684 -1.8505 -0.2933 -1.8705
  514MOL0     H69361   2.664   7.323   4.562 -0.7222 -2.8833  0.0429
  514MOL0     H69362   2.709   7.514   4.696 -1.1738  0.7643 -1.9060
  514MOL0     H69363   2.848   7.529   4.583  2.7595  0.7572  2.0275
  514MOL0     H69364   2.868   7.383   4.845  1.5397  0.5871  1.2552
  514MOL0     H69365   2.985   7.403   4.716 -1.3427 -1.4830 -0.9578
  514MOL0     H69366   2.858   7.626   4.897 -1.6636  0.0787 -0.6705
  514MOL0     H69367   2.948   7.661   4.742  2.1840 -1.9751 -1.5881
  514MOL0     H69368   3.095   7.521   4.973  1.2394  0.4906  0.1942
  514MOL0     H69369   3.162   7.588   4.826 -0.7566 -1.2137  0.2924
  514MOL0     H69370   2.981   7.119   4.907 -0.6807 -0.8670 -2.3614
  514MOL0     H69371   2.960   6.938   5.095  0.5510 -5.2877  2.2059
  514MOL0     H69372   2.784   6.536   5.226  1.3869  3.8274 -1.2669
  514MOL0     H69373   2.717   6.394   5.413 -1.0208  0.3767  0.7961
  514MOL0     H69374   1.798   6.714   5.823  0.6762 -2.2463 -0.2161
  514MOL0     H69375   1.706   6.565   5.658  0.5986  0.9316  0.0049
  514MOL0     H69376   1.412   6.380   5.334  0.1222 -0.7632 -0.4674
  514MOL0     H69377   1.258   6.233   5.226 -1.4727 -3.5792  0.1726
  514MOL0     H69378   1.064   6.194   5.137 -0.7490 -0.3995 -1.0530
  514MOL0     H69379   0.907   6.101   5.165 -0.2424 -1.1687 -0.0523
  514MOL0     H69380   1.080   5.898   5.219  1.4868  0.0008  0.4748
  514MOL0     H69381   1.159   5.992   5.091  0.9873  1.5766  2.7422
  514MOL0     H69382   0.883   5.886   5.061  0.2362  0.3340 -0.1978
  514MOL0     H69383   1.042   5.818   5.018  1.7448 -0.2686  4.6736
  514MOL0     H69384   0.925   5.920   4.826  1.2479 -2.7081  2.3029
  514MOL0     H69385   0.901   6.072   4.913  1.1783  0.1553  1.2470
  514MOL0     H69386   1.280   6.144   4.751  0.9150 -2.7981  1.0454
  514MOL0     H69387   1.012   6.207   5.579  0.6910 -0.8781 -1.2366
  514MOL0     H69388   1.203   6.472   5.732  0.3911 -0.5575  1.2462
  514MOL0     H69389   1.082   6.360   5.779 -0.9269 -1.5797 -2.6606
  514MOL0     H69390   1.248   6.313   5.808 -0.4606 -1.1241  0.1934
  515MOL0     O69391   1.029   2.607   1.816  1.0407 -0.3072  0.3341
  515MOL0     C69392   1.079   2.499   1.815  0.7768  0.1535 -0.1980
  515MOL0     O69393   1.214   2.472   1.823 -0.0708 -0.1314  0.1021
  515MOL0     C69394   1.306   2.564   1.872 -0.6134 -0.4224  0.1939
  515MOL0     C69395   1.278   2.693   1.907  0.3824 -1.0364 -0.7563
  515MOL0     C69396   1.388   2.791   1.941 -0.3568 -0.5259 -0.2847
  515MOL0     C69397   1.521   2.749   1.939 -0.1206  0.0531  0.0028
  515MOL0     O69398   1.624   2.826   1.966  0.9739  0.6119 -0.3831
  515MOL0     C69399   1.651   2.938   1.880  0.1526 -0.5263  0.0773
  515MOL0     C69400   1.636   3.068   1.947  0.0989 -0.9861 -0.6088
  515MOL0     C69401   1.686   3.192   1.876 -1.1855 -0.1900 -0.2014
  515MOL0     C69402   1.634   3.208   1.733 -0.0777 -0.1645 -0.6385
  515MOL0     C69403   1.681   3.346   1.679 -0.5514  0.4703  0.3451
  515MOL0     C69404   1.632   3.366   1.532 -0.3001 -0.3823 -0.4281
  515MOL0     C69405   1.475   3.375   1.522  0.2031  0.3327 -0.5933
  515MOL0     C69406   1.389   3.282   1.430  1.4090 -0.3488  0.8560
  515MOL0     N69407   1.430   3.142   1.412 -0.5688 -0.0317  0.7683
  515MOL0     C69408   1.433   3.043   1.505 -0.2590  0.3431  0.1794
  515MOL0     C69409   1.482   2.937   1.443 -0.0506 -0.5206  0.7488
  515MOL0     C69410   1.542   2.816   1.505 -0.2446 -0.6034  0.3164
  515MOL0     C69411   1.432   2.715   1.554 -0.1294  0.2633 -2.0730
  515MOL0     C69412   1.349   2.652   1.439  0.0339  0.0577 -0.2475
  515MOL0     C69413   1.233   2.552   1.482  0.1426  0.1339 -0.7138
  515MOL0     O69414   1.161   2.473   1.382  0.2817 -0.8626  0.4173
  515MOL0     C69415   1.126   2.350   1.427  0.2422 -0.7604 -0.6984
  515MOL0     C69416   1.216   2.250   1.411  0.3297 -0.0993  0.0457
  515MOL0     C69417   1.186   2.123   1.436 -0.4398  0.4211 -0.9489
  515MOL0     C69418   1.069   2.080   1.480 -0.3861  0.6731 -0.8343
  515MOL0     C69419   1.037   1.939   1.497 -0.1335 -0.6635  0.0950
  515MOL0     O69420   0.923   1.914   1.561  0.4678  0.2968 -0.5504
  515MOL0     C69421   0.902   1.781   1.578  1.2574  0.0679 -0.2755
  515MOL0     C69422   0.868   1.699   1.466  0.7996  0.2645  0.2175
  515MOL0     C69423   0.877   1.561   1.486  0.0584  0.2752  1.0543
  515MOL0     C69424   0.914   1.499   1.607  0.6463  0.2202  0.1433
  515MOL0     O69425   0.912   1.366   1.613 -0.3358 -0.0450 -0.2172
  515MOL0     C69426   0.845   1.321   1.731  0.4820 -0.3053  0.5039
  515MOL0     C69427   0.797   1.179   1.727 -0.7987  0.3177  0.8517
  515MOL0     C69428   0.666   1.153   1.651 -0.1156 -0.2550 -0.2198
  515MOL0     C69429   0.666   1.203   1.512 -0.7988 -0.6511  0.3178
  515MOL0     C69430   0.547   1.159   1.434  0.1711  0.7150 -0.4803
  515MOL0     C69431   0.581   1.093   1.299 -0.4887  0.5291 -0.2753
  515MOL0     C69432   0.454   1.022   1.245 -0.0173  0.1959  0.3229
  515MOL0     C69433   0.422   0.878   1.295 -0.7035 -0.1358  0.6674
  515MOL0    Cl69434   0.271   0.814   1.215  0.0029  0.1480 -0.6892
  515MOL0     C69435   0.951   1.583   1.711  0.7661 -0.1008 -0.7372
  515MOL0     C69436   0.935   1.722   1.701 -0.3396 -0.1108  0.8448
  515MOL0     O69437   1.103   1.852   1.447 -0.3462 -0.4871  0.4337
  515MOL0     C69438   0.968   2.177   1.497  0.7416 -0.0726 -1.4097
  515MOL0     C69439   0.992   2.311   1.462 -0.1155 -0.2498 -0.1489
  515MOL0     N69440   1.500   2.964   1.308 -0.0077 -0.4445 -0.3702
  515MOL0     N69441   1.475   3.095   1.292 -0.1115 -0.2020 -0.1939
  515MOL0     C69442   1.544   2.612   1.925 -0.4653 -0.6674  0.8270
  515MOL0     C69443   1.445   2.526   1.874  0.9305 -0.7089 -0.5666
  515MOL0     C69444   0.987   2.379   1.825 -0.3446  0.0043  0.3607
  515MOL0     C69445   0.847   2.402   1.853 -0.9711 -0.3538  0.5344
  515MOL0     C69446   0.764   2.294   1.871  0.4578 -1.0792 -0.5572
  515MOL0     C69447   0.805   2.160   1.868 -0.9241  0.4524 -0.0349
  515MOL0     O69448   0.728   2.056   1.909  0.2283  0.3480  0.4265
  515MOL0     C69449   0.668   1.972   1.813 -0.4514 -1.5251  0.1644
  515MOL0     C69450   0.609   1.850   1.886 -0.3430 -0.0825 -0.5057
  515MOL0     C69451   0.727   1.760   1.956 -0.8894 -0.2809  0.8128
  515MOL0     C69452   0.702   1.701   2.089  0.2438  0.4602 -0.7033
  515MOL0     C69453   0.697   1.817   2.179  0.0204  0.7086 -1.0775
  515MOL0     C69454   0.680   1.916   2.244 -0.0365 -0.1080 -0.3433
  515MOL0     C69455   0.946   2.138   1.841 -0.2728  0.2878 -0.8660
  515MOL0     C69456   1.037   2.242   1.825  0.4791  0.5199  0.0844
  515MOL0     C69457   1.179   2.199   1.808  0.0896 -0.1747 -0.4426
  515MOL0     H69458   1.179   2.733   1.924  0.7126 -0.9774  1.3774
  515MOL0     H69459   1.361   2.892   1.969  0.3833 -0.1528 -0.8907
  515MOL0     H69460   1.754   2.932   1.844 -0.4900 -3.1713 -1.6106
  515MOL0     H69461   1.592   2.937   1.789 -1.7821  2.2094  1.1634
  515MOL0     H69462   1.667   3.064   2.052 -1.5400  5.0219  0.4562
  515MOL0     H69463   1.530   3.076   1.971  0.4391  1.3873  0.3882
  515MOL0     H69464   1.795   3.182   1.878 -0.8227  1.9449 -2.8044
  515MOL0     H69465   1.668   3.284   1.932  0.1821 -0.9612  1.6092
  515MOL0     H69466   1.668   3.120   1.678  2.6716 -0.6120  1.5416
  515MOL0     H69467   1.526   3.195   1.736  0.3287 -5.7191  0.6896
  515MOL0     H69468   1.659   3.431   1.744 -0.0220  1.3335 -0.5754
  515MOL0     H69469   1.790   3.351   1.682 -0.5972  1.4221  1.4488
  515MOL0     H69470   1.674   3.466   1.516  2.4648 -0.4146  4.6147
  515MOL0     H69471   1.686   3.299   1.464  1.2553  0.6897 -0.2944
  515MOL0     H69472   1.447   3.477   1.495 -1.2978  1.7181  4.9506
  515MOL0     H69473   1.436   3.358   1.623 -1.1696  0.0882 -1.1402
  515MOL0     H69474   1.288   3.290   1.473  1.7378  2.0281  1.3689
  515MOL0     H69475   1.378   3.335   1.335  0.0060  1.8861  2.1739
  515MOL0     H69476   1.428   3.063   1.611  1.0493  0.7303  0.1904
  515MOL0     H69477   1.601   2.764   1.429  1.8547  0.4086  1.1778
  515MOL0     H69478   1.607   2.853   1.585 -0.6701  0.3315  0.2542
  515MOL0     H69479   1.487   2.640   1.612 -0.7516  0.7063 -0.8828
  515MOL0     H69480   1.358   2.765   1.617 -1.4950 -2.3536 -1.4733
  515MOL0     H69481   1.430   2.608   1.380 -0.7212 -0.1811 -1.1381
  515MOL0     H69482   1.300   2.719   1.368  2.8059 -0.8205 -3.2138
  515MOL0     H69483   1.172   2.618   1.544  4.5283  3.1146  0.9130
  515MOL0     H69484   1.279   2.479   1.549 -1.2102  0.6354  0.8315
  515MOL0     H69485   1.322   2.263   1.390  0.5085  0.8670  1.4548
  515MOL0     H69486   1.265   2.051   1.421 -0.8187 -0.0577 -0.6794
  515MOL0     H69487   0.853   1.740   1.366  2.4146  0.4445  0.0244
  515MOL0     H69488   0.860   1.495   1.401  2.4851  2.8847 -1.7529
  515MOL0     H69489   0.898   1.334   1.826 -2.2943  1.9079  1.9112
  515MOL0     H69490   0.747   1.369   1.738  0.4114 -0.5838  1.7623
  515MOL0     H69491   0.868   1.114   1.676 -3.1330 -0.9015 -1.0135
  515MOL0     H69492   0.786   1.152   1.833 -1.2055  0.2155  0.7854
  515MOL0     H69493   0.662   1.044   1.650 -2.0634 -0.2292 -1.3114
  515MOL0     H69494   0.575   1.191   1.699 -0.7261 -0.8412 -0.8752
  515MOL0     H69495   0.761   1.168   1.472  0.1131 -0.7833  2.4257
  515MOL0     H69496   0.683   1.311   1.518  4.2875 -1.0345 -2.4434
  515MOL0     H69497   0.466   1.233   1.437 -0.2335  0.2597  0.0663
  515MOL0     H69498   0.500   1.075   1.485 -0.0706  2.1705  1.8370
  515MOL0     H69499   0.602   1.170   1.224 -1.2291 -1.0427 -2.1865
  515MOL0     H69500   0.675   1.039   1.306 -0.0256  0.7174 -3.5738
  515MOL0     H69501   0.456   1.013   1.136  0.2142 -0.6782  0.3969
  515MOL0     H69502   0.363   1.082   1.257  0.0688  0.3232  0.3479
  515MOL0     H69503   0.507   0.812   1.274 -0.7355  1.0727 -4.6986
  515MOL0     H69504   0.404   0.881   1.403  1.3885 -1.2163  1.0971
  515MOL0     H69505   0.993   1.532   1.797  0.4746  2.9317  1.3613
  515MOL0     H69506   0.956   1.794   1.780  1.1366  2.0061 -1.3410
  515MOL0     H69507   0.870   2.150   1.536  0.2041 -0.2487 -2.8080
  515MOL0     H69508   0.908   2.379   1.470 -0.0395 -0.3826  2.9033
  515MOL0     H69509   1.647   2.576   1.925 -1.1336 -2.6841  1.1528
  515MOL0     H69510   1.477   2.426   1.845 -0.1608 -1.7055  1.4336
  515MOL0     H69511   0.805   2.502   1.852 -1.4841 -0.5049  2.2200
  515MOL0     H69512   0.657   2.308   1.885  0.6328  0.6933 -0.8654
  515MOL0     H69513   0.736   1.941   1.733  0.7809  1.1315  0.0784
  515MOL0     H69514   0.579   2.025   1.777 -0.3041 -1.0206  0.5346
  515MOL0     H69515   0.565   1.793   1.803  0.0702 -1.7541  0.3683
  515MOL0     H69516   0.517   1.870   1.941  0.0174  1.4520 -0.4276
  515MOL0     H69517   0.813   1.826   1.945 -2.5349  1.4597 -4.4112
  515MOL0     H69518   0.751   1.676   1.891  1.9385  1.1333 -0.1116
  515MOL0     H69519   0.607   1.648   2.085  0.0191  0.8205 -0.1639
  515MOL0     H69520   0.784   1.633   2.114 -0.0635  0.3555  0.0275
  515MOL0     H69521   0.663   2.018   2.272  0.1354 -0.1952  0.0755
  515MOL0     H69522   0.976   2.035   1.824 -2.2412 -0.7039  1.2109
  515MOL0     H69523   1.230   2.236   1.719 -1.6572 -1.4136 -2.0174
  515MOL0     H69524   1.227   2.241   1.897 -1.1001 -0.5038  0.3814
  515MOL0     H69525   1.199   2.092   1.809 -0.6975 -0.3469  1.1145
  516MOL0     O69526   8.092   5.171   3.675  0.2800  0.2318 -0.0399
  516MOL0     C69527   8.100   5.114   3.783 -1.2462 -0.1423 -0.5555
  516MOL0     O69528   7.993   5.074   3.858 -0.4313 -0.0531 -0.1102
  516MOL0     C69529   7.868   5.113   3.812  0.2803  0.1053  0.1620
  516MOL0     C69530   7.782   5.200   3.883  0.0784 -0.0004  0.3299
  516MOL0     C69531   7.658   5.219   3.825  0.0290  0.9186 -0.2526
  516MOL0     C69532   7.613   5.162   3.709 -0.6957 -0.6439 -0.2538
  516MOL0     O69533   7.485   5.204   3.672  0.0193 -0.4374 -0.1854
  516MOL0     C69534   7.401   5.135   3.573 -0.7082  0.0509  0.1600
  516MOL0     C69535   7.278   5.109   3.663 -0.2688 -1.0208 -0.0251
  516MOL0     C69536   7.181   5.230   3.638  1.2304 -0.4163 -0.2219
  516MOL0     C69537   7.056   5.221   3.721 -0.0250  0.0748 -0.3346
  516MOL0     C69538   7.085   5.238   3.871  0.5841  0.8639  0.6858
  516MOL0     C69539   6.952   5.241   3.947  0.1067 -0.1566  0.6814
  516MOL0     C69540   6.964   5.317   4.081  0.0396  0.2392  0.5168
  516MOL0     C69541   6.837   5.371   4.127  0.6862  0.5972  0.2027
  516MOL0     N69542   6.861   5.420   4.269 -0.1757  0.6391  0.1560
  516MOL0     C69543   6.909   5.546   4.307  0.6963  1.1404  0.3217
  516MOL0     C69544   6.923   5.532   4.440 -0.7516 -0.4759 -0.7306
  516MOL0     C69545   6.995   5.621   4.540  0.0490  0.4907  0.1235
  516MOL0     C69546   6.911   5.740   4.564 -0.1728  0.2057 -0.2079
  516MOL0     C69547   6.793   5.709   4.655 -0.3009 -0.1273  0.3822
  516MOL0     C69548   6.708   5.830   4.683  0.7976 -1.0110  0.4738
  516MOL0     O69549   6.772   5.948   4.748 -0.7281 -0.1978 -0.0873
  516MOL0     C69550   6.791   6.057   4.672  0.3165 -0.2013  0.3983
  516MOL0     C69551   6.697   6.111   4.579  0.6072  0.5979  0.6288
  516MOL0     C69552   6.741   6.217   4.497 -0.4913 -1.2972  0.3316
  516MOL0     C69553   6.857   6.280   4.526  0.0462  0.5960 -0.6181
  516MOL0     C69554   6.895   6.411   4.469 -0.0592 -0.4100 -0.4153
  516MOL0     O69555   6.812   6.460   4.374 -0.0127 -0.8204  1.1810
  516MOL0     C69556   6.831   6.580   4.317 -0.0540 -0.6753  1.1446
  516MOL0     C69557   6.853   6.698   4.394 -0.0500  0.6887  0.4766
  516MOL0     C69558   6.887   6.824   4.337  0.2953  0.4827 -0.5991
  516MOL0     C69559   6.894   6.833   4.199 -0.1974  0.4540  0.1516
  516MOL0     O69560   6.921   6.948   4.126 -0.1325  0.0780 -0.1378
  516MOL0     C69561   7.058   7.009   4.121  0.2980  0.9966 -0.5266
  516MOL0     C69562   7.039   7.153   4.157 -0.5521 -0.5590  0.1025
  516MOL0     C69563   6.950   7.223   4.049 -0.8776  0.4111 -0.2392
  516MOL0     C69564   6.847   7.316   4.109  0.2291 -0.2815 -0.5893
  516MOL0     C69565   6.910   7.436   4.183 -0.0229  0.2756  0.0201
  516MOL0     C69566   7.016   7.513   4.105 -0.0024 -0.1938  0.8685
  516MOL0     C69567   7.015   7.666   4.121 -0.1520 -0.4157  0.4696
  516MOL0     C69568   7.101   7.740   4.006  0.4277 -0.1820  0.5187
  516MOL0    Cl69569   7.266   7.675   4.018 -0.0480  0.2907 -0.2965
  516MOL0     C69570   6.856   6.726   4.119 -0.0676 -0.0300 -0.1345
  516MOL0     C69571   6.833   6.598   4.174  0.3464  0.0333  0.1583
  516MOL0     O69572   7.011   6.456   4.494  0.2739  0.0998  0.3984
  516MOL0     C69573   6.948   6.237   4.628  0.0706  0.1562  0.2990
  516MOL0     C69574   6.911   6.122   4.703 -0.0723  0.3085  0.9904
  516MOL0     N69575   6.887   5.402   4.478  0.0823 -0.1468 -0.9669
  516MOL0     N69576   6.861   5.331   4.373  0.1615 -0.1113  0.5408
  516MOL0     C69577   7.701   5.079   3.648  0.1329  0.3220 -0.3211
  516MOL0     C69578   7.825   5.046   3.702 -0.3682 -0.4913  0.5019
  516MOL0     C69579   8.239   5.052   3.806 -0.4614 -0.4417  1.5360
  516MOL0     C69580   8.246   4.935   3.885  0.6601  0.7708 -0.7750
  516MOL0     C69581   8.363   4.853   3.897  0.9611  0.2000  0.2273
  516MOL0     C69582   8.481   4.884   3.852  0.9567 -0.0746  0.0527
  516MOL0     O69583   8.584   4.817   3.912 -0.0674 -0.3978 -0.2555
  516MOL0     C69584   8.718   4.867   3.890  0.7536 -0.4626  0.2615
  516MOL0     C69585   8.764   4.986   3.972  0.4231  0.2211 -0.8767
  516MOL0     C69586   8.913   5.009   3.940 -0.0318 -1.1082 -0.1579
  516MOL0     C69587   8.933   5.156   3.892 -0.0412 -0.2635  0.2282
  516MOL0     C69588   8.872   5.177   3.764  0.2604 -0.5250  1.0384
  516MOL0     C69589   8.812   5.184   3.654  0.1326 -0.6210 -0.7210
  516MOL0     C69590   8.486   5.004   3.775 -0.2598 -0.0365  0.5048
  516MOL0     C69591   8.374   5.091   3.763  0.0389  0.2061  0.3081
  516MOL0     C69592   8.410   5.226   3.693  0.5148 -0.8311 -0.1579
  516MOL0     H69593   7.820   5.263   3.963  4.4085  0.9895 -2.2318
  516MOL0     H69594   7.592   5.297   3.863  1.3523  1.4399  1.0395
  516MOL0     H69595   7.378   5.205   3.493 -0.0378  0.4178  0.2754
  516MOL0     H69596   7.436   5.043   3.526  0.7943  0.5539  0.2148
  516MOL0     H69597   7.319   5.104   3.765  3.7336  2.5426 -1.1153
  516MOL0     H69598   7.220   5.022   3.633 -1.5280 -0.2514  0.0945
  516MOL0     H69599   7.155   5.221   3.532  0.1821 -2.8700  0.1850
  516MOL0     H69600   7.227   5.328   3.655 -0.0053  0.1191  0.1261
  516MOL0     H69601   6.996   5.303   3.681  3.5438  2.5267 -1.1013
  516MOL0     H69602   7.010   5.122   3.712  1.9088 -0.7354 -1.8294
  516MOL0     H69603   7.140   5.152   3.912  1.0151  2.4551  3.7349
  516MOL0     H69604   7.144   5.329   3.885 -1.8322  2.2431  2.4688
  516MOL0     H69605   6.884   5.298   3.883  2.3737  1.4105 -0.4929
  516MOL0     H69606   6.909   5.142   3.963 -1.9105  0.5411 -0.1046
  516MOL0     H69607   7.034   5.401   4.072 -1.0040  1.7023  4.1549
  516MOL0     H69608   7.003   5.243   4.150  1.7358 -0.8166 -1.4618
  516MOL0     H69609   6.800   5.454   4.066  3.7159  1.6578 -0.3538
  516MOL0     H69610   6.772   5.283   4.124  2.6452 -0.8981 -0.8176
  516MOL0     H69611   6.924   5.633   4.243  1.2016  1.3434  0.7110
  516MOL0     H69612   7.024   5.570   4.632 -0.5864 -2.4582 -1.2007
  516MOL0     H69613   7.092   5.652   4.500  0.7547 -3.5531 -1.7856
  516MOL0     H69614   6.967   5.812   4.624 -0.0365 -1.8162  2.2806
  516MOL0     H69615   6.879   5.785   4.470  3.3783  1.8814 -0.7944
  516MOL0     H69616   6.838   5.677   4.749 -1.7300 -2.7680  0.2367
  516MOL0     H69617   6.735   5.633   4.603  3.3559 -1.0879 -2.7198
  516MOL0     H69618   6.633   5.803   4.757 -2.6461  2.3304 -1.4337
  516MOL0     H69619   6.646   5.855   4.596 -0.9250 -4.1576  0.6512
  516MOL0     H69620   6.609   6.048   4.568  0.7749 -0.2386  3.2722
  516MOL0     H69621   6.682   6.259   4.417 -0.6231 -2.2459 -0.0771
  516MOL0     H69622   6.841   6.686   4.502 -0.3952  0.0728  0.3701
  516MOL0     H69623   6.905   6.913   4.397  1.8440 -1.9724  2.9247
  516MOL0     H69624   7.118   6.961   4.198  1.7410  0.4474 -1.9272
  516MOL0     H69625   7.106   6.995   4.023 -3.1487 -1.4609 -2.0590
  516MOL0     H69626   6.989   7.167   4.253 -0.0454 -1.2778  0.4802
  516MOL0     H69627   7.130   7.211   4.171 -1.6830  1.3472 -0.1287
  516MOL0     H69628   7.012   7.287   3.987 -1.3206  1.6176  0.5395
  516MOL0     H69629   6.902   7.145   3.989  0.5917 -0.3929 -0.4162
  516MOL0     H69630   6.777   7.274   4.181  1.1331  0.9170  1.0498
  516MOL0     H69631   6.783   7.364   4.034  0.5359 -0.2017 -0.8017
  516MOL0     H69632   6.957   7.407   4.277 -1.5737  0.0024  0.7399
  516MOL0     H69633   6.827   7.504   4.202  1.3005  1.7317  0.7507
  516MOL0     H69634   7.109   7.469   4.141 -0.4514 -2.8683 -0.9794
  516MOL0     H69635   7.011   7.497   3.997  3.4443 -4.5159  1.0960
  516MOL0     H69636   7.047   7.708   4.217 -1.2095 -1.2478  1.2167
  516MOL0     H69637   6.913   7.703   4.106  0.6137  3.2987  3.0885
  516MOL0     H69638   7.062   7.717   3.907 -2.7864  1.1512  1.3289
  516MOL0     H69639   7.096   7.848   4.023 -2.0722  0.4167 -2.9555
  516MOL0     H69640   6.846   6.749   4.013 -0.4375  0.4163 -0.0084
  516MOL0     H69641   6.823   6.512   4.109 -2.4490 -0.0282  0.5299
  516MOL0     H69642   7.035   6.286   4.672 -0.0763 -1.2900  2.3317
  516MOL0     H69643   6.974   6.090   4.786 -0.2003  0.1062  1.0111
  516MOL0     H69644   7.660   5.014   3.572 -2.8762  0.8975  0.6764
  516MOL0     H69645   7.886   4.972   3.651  2.6224  2.8894 -1.3792
  516MOL0     H69646   8.153   4.905   3.932  1.4427  0.5347  0.6615
  516MOL0     H69647   8.340   4.762   3.951 -2.0237  0.3055 -0.7294
  516MOL0     H69648   8.732   4.883   3.783  1.3442  0.2772  0.4436
  516MOL0     H69649   8.783   4.781   3.914  1.7950  0.2260 -0.0267
  516MOL0     H69650   8.749   4.984   4.080  2.1751  1.8683 -0.5525
  516MOL0     H69651   8.699   5.072   3.952 -2.5212 -2.1641 -2.3142
  516MOL0     H69652   8.944   4.952   3.852  4.0524  0.0440  0.3287
  516MOL0     H69653   8.985   4.992   4.020  3.5145  3.2321 -2.0324
  516MOL0     H69654   8.902   5.224   3.972 -0.0232 -0.5659  0.4940
  516MOL0     H69655   9.040   5.172   3.876 -0.4084  2.0053 -0.2843
  516MOL0     H69656   8.765   5.192   3.558 -1.5095 -1.0872 -0.0024
  516MOL0     H69657   8.584   5.034   3.739 -0.2933 -0.0787  0.3791
  516MOL0     H69658   8.428   5.211   3.587 -1.2494  0.1523 -0.6343
  516MOL0     H69659   8.322   5.290   3.700 -0.8350 -2.5082 -1.1996
  516MOL0     H69660   8.499   5.271   3.739  1.7510 -2.5981 -0.6858
  517MOL0     O69661   8.219   4.827   1.414 -0.3061 -0.2302  0.1020
  517MOL0     C69662   8.218   4.703   1.398 -0.3230  0.2108 -0.8918
  517MOL0     O69663   8.228   4.647   1.277 -0.3178 -0.3283  0.7061
  517MOL0     C69664   8.189   4.714   1.160 -0.2880 -0.2065  0.6927
  517MOL0     C69665   8.075   4.791   1.167  1.1068  0.1562  0.2156
  517MOL0     C69666   8.038   4.873   1.058 -0.6536  0.2083  0.0283
  517MOL0     C69667   8.112   4.858   0.934  0.0614  0.5451 -0.3801
  517MOL0     O69668   8.068   4.931   0.822  0.6928  0.4270 -0.7240
  517MOL0     C69669   8.136   4.920   0.697 -0.2965 -0.7848  1.4663
  517MOL0     C69670   8.240   5.041   0.681 -0.2365  1.4355 -0.8176
  517MOL0     C69671   8.323   5.024   0.549 -0.8207 -0.2617 -0.0542
  517MOL0     C69672   8.242   5.068   0.425 -0.0294 -0.2153  0.4367
  517MOL0     C69673   8.184   5.209   0.438  0.1508 -0.6456 -0.2928
  517MOL0     C69674   8.137   5.255   0.295  0.9195  0.2697 -1.1568
  517MOL0     C69675   8.009   5.347   0.286 -0.5359  0.0825 -0.0672
  517MOL0     C69676   7.879   5.273   0.276 -0.3633 -0.7237 -0.6585
  517MOL0     N69677   7.850   5.173   0.373  0.0288  0.7970  0.6800
  517MOL0     C69678   7.775   5.205   0.483  0.5916  0.2994 -0.3797
  517MOL0     C69679   7.768   5.087   0.551 -0.2444 -0.3639 -0.5807
  517MOL0     C69680   7.694   5.084   0.688 -0.5842 -0.2956  0.0065
  517MOL0     C69681   7.778   5.134   0.813 -0.7832  0.7813  0.4986
  517MOL0     C69682   7.689   5.176   0.925  0.1423  0.2334  0.8425
  517MOL0     C69683   7.764   5.223   1.038  0.0916  0.4959  0.3452
  517MOL0     O69684   7.677   5.249   1.148 -0.8704  0.0553  0.2234
  517MOL0     C69685   7.666   5.378   1.203 -0.8391 -0.4734  0.1964
  517MOL0     C69686   7.533   5.401   1.230 -0.4359 -0.7537 -0.2488
  517MOL0     C69687   7.482   5.525   1.276  0.6375  0.2433  0.6488
  517MOL0     C69688   7.579   5.631   1.296  0.5174  0.4564 -0.5737
  517MOL0     C69689   7.541   5.755   1.356  0.5360 -0.2306 -0.0999
  517MOL0     O69690   7.425   5.754   1.429 -0.1341  0.9860 -0.5317
  517MOL0     C69691   7.418   5.845   1.535  0.1197 -0.0259 -0.5837
  517MOL0     C69692   7.471   5.812   1.662  0.1872 -0.3330  0.6935
  517MOL0     C69693   7.480   5.903   1.765  0.1681  0.2073 -0.2379
  517MOL0     C69694   7.436   6.041   1.741  1.2251  0.1141  0.9244
  517MOL0     O69695   7.433   6.138   1.835 -0.2248 -0.8819 -0.4985
  517MOL0     C69696   7.495   6.111   1.962 -0.1268 -0.4675  1.0956
  517MOL0     C69697   7.462   6.223   2.068  0.0096 -0.6215  0.1484
  517MOL0     C69698   7.312   6.236   2.104 -0.8316 -0.3530  0.1406
  517MOL0     C69699   7.299   6.320   2.227  0.5579  0.5332  0.4084
  517MOL0     C69700   7.159   6.373   2.255 -0.7333  0.1414  1.2444
  517MOL0     C69701   7.117   6.485   2.144 -0.0696  0.1983  0.0274
  517MOL0     C69702   6.985   6.562   2.152 -0.2777  0.2531 -0.2004
  517MOL0     C69703   6.868   6.501   2.073 -0.2344 -0.7217 -0.0250
  517MOL0    Cl69704   6.911   6.498   1.904  0.2557 -0.1371 -0.3172
  517MOL0     C69705   7.377   6.076   1.620 -0.3964  0.8252 -0.4233
  517MOL0     C69706   7.370   5.979   1.523 -0.0022  0.6489 -0.2309
  517MOL0     O69707   7.624   5.852   1.353  0.7121 -0.0061  0.3276
  517MOL0     C69708   7.717   5.611   1.265 -0.0450  1.1823  0.4587
  517MOL0     C69709   7.765   5.479   1.215  0.1318 -1.0255 -0.0876
  517MOL0     N69710   7.839   4.988   0.487  0.0007  0.2618  0.1128
  517MOL0     N69711   7.882   5.044   0.377 -0.0701  0.3222 -1.2636
  517MOL0     C69712   8.223   4.779   0.930  0.4304  1.2734  0.3505
  517MOL0     C69713   8.258   4.707   1.042 -0.9743  0.3265  0.0394
  517MOL0     C69714   8.224   4.625   1.524 -0.7145  0.4491 -0.4284
  517MOL0     C69715   8.242   4.685   1.649 -0.3623  0.8461  0.0829
  517MOL0     C69716   8.231   4.612   1.763 -0.8511  1.1791  0.0758
  517MOL0     C69717   8.208   4.469   1.763  0.2956 -0.5085  0.6928
  517MOL0     O69718   8.200   4.384   1.869 -0.2988  0.1992 -0.3100
  517MOL0     C69719   8.205   4.432   2.001  0.4149  0.4112  0.0921
  517MOL0     C69720   8.086   4.513   2.048 -0.4879  0.4319 -0.1107
  517MOL0     C69721   7.989   4.426   2.132  1.1855 -0.1210  0.8982
  517MOL0     C69722   7.891   4.361   2.037  0.2889 -0.7978  0.5535
  517MOL0     C69723   7.831   4.248   2.101 -0.6005 -0.3486  0.6731
  517MOL0     C69724   7.791   4.157   2.170 -0.0281 -0.4409  0.6526
  517MOL0     C69725   8.199   4.414   1.643  0.2617  0.9804  0.9959
  517MOL0     C69726   8.210   4.484   1.524  0.4410 -0.4604  0.5859
  517MOL0     C69727   8.218   4.400   1.397 -0.3877  0.3034 -0.3388
  517MOL0     H69728   8.001   4.793   1.247 -0.2905 -1.0982 -0.9732
  517MOL0     H69729   7.939   4.916   1.065  0.6338  3.4526  0.2559
  517MOL0     H69730   8.195   4.830   0.681  0.8689  0.0699  0.8012
  517MOL0     H69731   8.062   4.945   0.620 -0.8515 -1.2608  1.8322
  517MOL0     H69732   8.301   5.031   0.771 -1.5828  0.9167  0.0777
  517MOL0     H69733   8.192   5.139   0.691  1.2065  1.9885  1.4111
  517MOL0     H69734   8.359   4.922   0.535 -0.0304 -0.0112  0.1303
  517MOL0     H69735   8.409   5.090   0.542 -1.6075  0.6690 -1.5243
  517MOL0     H69736   8.313   5.069   0.342 -0.4418 -0.1497  0.0809
  517MOL0     H69737   8.163   4.995   0.403  0.3500 -0.1308 -1.3933
  517MOL0     H69738   8.094   5.204   0.498  0.6261  1.4488  0.7030
  517MOL0     H69739   8.246   5.287   0.484  3.3934 -1.5850 -2.6837
  517MOL0     H69740   8.217   5.315   0.250  1.6824 -0.7675 -1.2089
  517MOL0     H69741   8.139   5.168   0.229 -2.7670 -0.4792 -0.5137
  517MOL0     H69742   8.018   5.399   0.191  3.6314  0.0265  0.1317
  517MOL0     H69743   8.010   5.419   0.368  0.0128  0.7177 -0.6277
  517MOL0     H69744   7.797   5.343   0.261  1.3408  1.1043 -2.1241
  517MOL0     H69745   7.883   5.218   0.181 -2.3606  0.2278 -1.3382
  517MOL0     H69746   7.732   5.302   0.504 -0.0581 -0.0134 -0.2608
  517MOL0     H69747   7.601   5.138   0.673 -0.2059  1.6597  3.6794
  517MOL0     H69748   7.651   4.983   0.695 -0.2900 -0.4298 -0.0820
  517MOL0     H69749   7.847   5.055   0.844  2.5075  2.6552 -1.4649
  517MOL0     H69750   7.828   5.221   0.771 -0.0253 -0.1853 -0.6856
  517MOL0     H69751   7.625   5.092   0.952  0.7784 -0.5898 -0.1465
  517MOL0     H69752   7.624   5.255   0.884  0.8384 -0.3303 -1.4977
  517MOL0     H69753   7.809   5.320   1.015 -2.2312  2.5814  3.6905
  517MOL0     H69754   7.835   5.154   1.085 -1.2709 -1.1852  0.0432
  517MOL0     H69755   7.466   5.317   1.210 -0.4138  0.0958 -5.0124
  517MOL0     H69756   7.376   5.548   1.283  0.3995 -1.0507  1.6257
  517MOL0     H69757   7.490   5.706   1.675  3.5587 -0.0364 -0.7797
  517MOL0     H69758   7.504   5.865   1.864 -2.8572  0.1300  0.5612
  517MOL0     H69759   7.448   6.021   2.003  1.5903 -2.0671 -0.3147
  517MOL0     H69760   7.600   6.101   1.935 -0.3135  4.5525 -3.0724
  517MOL0     H69761   7.529   6.198   2.151  2.3054 -1.7391 -1.9294
  517MOL0     H69762   7.487   6.322   2.029 -1.8278  0.3578  1.2817
  517MOL0     H69763   7.264   6.277   2.015 -2.1844 -1.6979  0.2019
  517MOL0     H69764   7.278   6.132   2.115  0.8710 -1.4325 -3.3188
  517MOL0     H69765   7.357   6.413   2.221 -0.4328  1.0984 -0.8281
  517MOL0     H69766   7.346   6.252   2.299 -1.1685 -3.3511 -1.8411
  517MOL0     H69767   7.180   6.416   2.354  1.4842  1.3243  0.3145
  517MOL0     H69768   7.083   6.295   2.268  0.5757 -2.1337 -2.9820
  517MOL0     H69769   7.190   6.566   2.152  0.7850 -0.3329 -1.7752
  517MOL0     H69770   7.129   6.450   2.041 -1.0727 -1.6587  0.4887
  517MOL0     H69771   6.999   6.660   2.106  3.4069  1.0333  2.2204
  517MOL0     H69772   6.963   6.583   2.257 -1.4599  0.5261 -0.4870
  517MOL0     H69773   6.838   6.400   2.103  2.7483 -2.0972 -1.3178
  517MOL0     H69774   6.779   6.562   2.092 -1.7511 -2.9023  0.1670
  517MOL0     H69775   7.328   6.172   1.623  0.8197  1.4432  2.2307
  517MOL0     H69776   7.323   6.000   1.428  2.7498  1.5779 -1.4954
  517MOL0     H69777   7.791   5.691   1.263  3.6501 -1.9358  0.7110
  517MOL0     H69778   7.867   5.465   1.182  0.0451 -3.1126  0.3816
  517MOL0     H69779   8.293   4.765   0.849 -1.3317 -1.5605 -0.8365
  517MOL0     H69780   8.358   4.664   1.053 -0.7442  0.3362 -1.6614
  517MOL0     H69781   8.253   4.793   1.654 -1.8787  1.0263 -0.2681
  517MOL0     H69782   8.262   4.662   1.854 -3.0185  1.3929  0.7660
  517MOL0     H69783   8.296   4.491   2.017 -1.0190  2.8997 -0.2406
  517MOL0     H69784   8.213   4.337   2.055 -3.9635  0.5190  1.3410
  517MOL0     H69785   8.045   4.547   1.952  2.0117  0.7623 -1.1400
  517MOL0     H69786   8.109   4.606   2.101 -2.6750  1.4215 -0.7694
  517MOL0     H69787   7.930   4.470   2.213 -0.9819 -1.7951  0.3397
  517MOL0     H69788   8.051   4.346   2.173  1.0247 -2.0716 -2.3229
  517MOL0     H69789   7.804   4.424   2.017  0.5884 -0.8026 -0.8617
  517MOL0     H69790   7.927   4.336   1.937 -0.1020 -0.5935  0.3590
  517MOL0     H69791   7.740   4.079   2.223  0.0318 -0.5456  0.5582
  517MOL0     H69792   8.196   4.306   1.634  0.4300  1.0019  0.6464
  517MOL0     H69793   8.143   4.429   1.323  2.0656  0.5342 -2.9010
  517MOL0     H69794   8.305   4.422   1.334 -0.5101 -2.1719 -1.4836
  517MOL0     H69795   8.197   4.297   1.425 -0.8541  0.9127  1.7487
  518MOL0     O69796   1.634   3.238   8.477 -0.1096  0.7582  0.8332
  518MOL0     C69797   1.539   3.312   8.510  0.0616 -0.5687 -0.4087
  518MOL0     O69798   1.422   3.270   8.566 -0.1853 -0.4953  0.3568
  518MOL0     C69799   1.401   3.151   8.625 -0.9507  0.0883  0.4409
  518MOL0     C69800   1.272   3.100   8.631 -0.4901  0.0573 -0.4998
  518MOL0     C69801   1.236   2.990   8.712 -0.1917 -0.8211  0.2982
  518MOL0     C69802   1.330   2.910   8.787  0.1235  0.2786 -0.1375
  518MOL0     O69803   1.316   2.797   8.856  0.1474  0.3944 -0.1159
  518MOL0     C69804   1.176   2.761   8.873 -0.0871  0.2677 -0.8052
  518MOL0     C69805   1.139   2.658   8.981 -0.0508  0.0430 -0.0497
  518MOL0     C69806   1.138   2.726   9.122 -0.4982  0.4614  0.8395
  518MOL0     C69807   1.143   2.620   9.232  0.2915  0.3203  0.2685
  518MOL0     C69808   1.003   2.559   9.265 -0.9581 -0.2667  0.2789
  518MOL0     C69809   1.016   2.488   9.405 -0.3872  0.8328 -0.3949
  518MOL0     C69810   0.872   2.490   9.471 -0.1248  0.0026 -1.1344
  518MOL0     C69811   0.835   2.380   9.566  0.4771  0.0982  0.3381
  518MOL0     N69812   0.694   2.381   9.598 -0.8078 -0.3475  0.8858
  518MOL0     C69813   0.639   2.455   9.690 -0.1382  0.3510 -0.0304
  518MOL0     C69814   0.511   2.416   9.705 -0.3677 -0.1107 -0.8655
  518MOL0     C69815   0.412   2.467   9.802  1.2554  0.0733 -0.0715
  518MOL0     C69816   0.275   2.464   9.735  0.6406 -0.6938  0.3539
  518MOL0     C69817   0.147   2.516   9.814 -0.1786 -0.4132  0.2314
  518MOL0     C69818   0.093   2.447   9.931 -0.4406  0.4295 -0.5385
  518MOL0     O69819  -0.019   2.520   9.982 -0.0771  0.2597  0.5153
  518MOL0     C69820  -0.072   2.463  10.092 -0.1282 -0.1343  0.0355
  518MOL0     C69821  -0.021   2.349  10.165 -0.5925 -0.3944  0.4511
  518MOL0     C69822  -0.087   2.306  10.278 -0.1537 -0.4037  0.1232
  518MOL0     C69823  -0.220   2.356  10.314  0.1758 -0.4912 -0.4029
  518MOL0     C69824  -0.299   2.302  10.429  0.3035  0.6165  1.1696
  518MOL0     O69825  -0.233   2.209  10.511  0.2101 -0.6561 -0.2095
  518MOL0     C69826  -0.312   2.136  10.602 -0.1790 -1.1744  0.4187
  518MOL0     C69827  -0.288   2.001  10.627  0.1323  0.1418  0.3792
  518MOL0     C69828  -0.335   1.937  10.747  0.2273  0.2748  0.1082
  518MOL0     C69829  -0.404   2.004  10.842 -0.4712  0.0417  0.2279
  518MOL0     O69830  -0.471   1.959  10.957 -0.1566  0.8407 -0.1718
  518MOL0     C69831  -0.480   1.815  10.974 -0.5270 -0.8230 -0.2139
  518MOL0     C69832  -0.573   1.798  11.088 -0.3318  0.3647  0.3094
  518MOL0     C69833  -0.705   1.885  11.085  0.9984  0.0485  0.5851
  518MOL0     C69834  -0.824   1.811  11.151 -0.3359 -0.5104 -0.4466
  518MOL0     C69835  -0.933   1.913  11.197  0.7563 -0.2255 -0.3599
  518MOL0     C69836  -1.029   1.963  11.084 -0.3476  0.1788 -0.6406
  518MOL0     C69837  -1.142   2.056  11.145 -0.6048 -0.8437  0.0638
  518MOL0     C69838  -1.113   2.182  11.229  0.0283  0.3359 -0.2089
  518MOL0    Cl69839  -1.013   2.293  11.133 -0.0952 -0.4382 -0.2409
  518MOL0     C69840  -0.425   2.131  10.811  0.2402  0.0232 -0.0190
  518MOL0     C69841  -0.372   2.207  10.710 -0.3809 -0.7359  0.0716
  518MOL0     O69842  -0.417   2.336  10.434  0.2129  0.5437  0.4290
  518MOL0     C69843  -0.275   2.456  10.233  0.1124  0.9839 -0.0635
  518MOL0     C69844  -0.201   2.508  10.124  0.1557 -0.9713 -0.1300
  518MOL0     N69845   0.495   2.308   9.617  0.3727 -0.0615 -0.6309
  518MOL0     N69846   0.605   2.291   9.551  0.2302  0.5324  0.4001
  518MOL0     C69847   1.453   2.965   8.772 -0.0304  0.8435  0.1299
  518MOL0     C69848   1.496   3.082   8.697 -0.2411  0.0030 -1.5024
  518MOL0     C69849   1.547   3.459   8.486  0.2188 -0.1934 -0.5388
  518MOL0     C69850   1.447   3.540   8.540  0.4495  0.2782  0.7116
  518MOL0     C69851   1.434   3.677   8.511 -0.1003  0.5762 -0.4373
  518MOL0     C69852   1.531   3.730   8.431 -1.2740 -0.8979 -0.1586
  518MOL0     O69853   1.515   3.866   8.422  0.1189  0.5599  0.7243
  518MOL0     C69854   1.601   3.951   8.356 -0.6641  0.7877 -0.6377
  518MOL0     C69855   1.550   3.987   8.218 -0.1917  0.6071  0.4402
  518MOL0     C69856   1.647   4.077   8.133  0.7342 -0.8456 -0.2325
  518MOL0     C69857   1.802   4.048   8.151 -0.3742 -1.0087  0.2095
  518MOL0     C69858   1.843   3.909   8.125 -0.1789 -0.0428  0.9602
  518MOL0     C69859   1.865   3.788   8.096 -0.3002  0.0077  0.1043
  518MOL0     C69860   1.636   3.659   8.378 -0.2833  0.8594  0.7444
  518MOL0     C69861   1.644   3.521   8.404 -0.0046 -0.2100 -0.0083
  518MOL0     C69862   1.764   3.453   8.332  0.4119  0.1023 -0.9211
  518MOL0     H69863   1.193   3.138   8.568 -0.0030 -0.2330 -1.3099
  518MOL0     H69864   1.142   2.935   8.719  1.4343 -3.5949  2.3020
  518MOL0     H69865   1.126   2.853   8.905 -1.4799 -1.0667  1.0917
  518MOL0     H69866   1.129   2.718   8.784 -0.7592 -1.2490  0.2406
  518MOL0     H69867   1.216   2.580   8.980  0.5504  0.6374 -0.8621
  518MOL0     H69868   1.036   2.625   8.968 -0.7256  2.2365 -0.5520
  518MOL0     H69869   1.067   2.809   9.130  0.0214  1.2379 -1.6707
  518MOL0     H69870   1.233   2.780   9.125 -0.4589  0.5657 -1.0099
  518MOL0     H69871   1.207   2.537   9.200  0.1072 -0.3394  1.5577
  518MOL0     H69872   1.187   2.665   9.321  2.3365 -3.5336  1.4331
  518MOL0     H69873   0.924   2.634   9.265  0.0368  0.9342 -2.9018
  518MOL0     H69874   0.975   2.488   9.186 -2.1274  0.5022 -0.0166
  518MOL0     H69875   1.042   2.382   9.394  2.0016  1.2863  0.2414
  518MOL0     H69876   1.093   2.533   9.468 -1.3832  1.4367  0.4228
  518MOL0     H69877   0.793   2.487   9.396 -1.1684 -0.5138 -0.0487
  518MOL0     H69878   0.862   2.576   9.538 -0.4076  0.4600 -1.7539
  518MOL0     H69879   0.859   2.287   9.514 -0.8044  0.3907 -0.8205
  518MOL0     H69880   0.892   2.390   9.659 -0.7672  2.7642  0.9312
  518MOL0     H69881   0.701   2.528   9.742  1.0251 -0.5138 -0.1406
  518MOL0     H69882   0.409   2.395   9.884  1.0100  0.2408  0.0645
  518MOL0     H69883   0.432   2.570   9.834  0.2609  1.7263 -4.1435
  518MOL0     H69884   0.281   2.532   9.650 -1.1445  1.9276  2.1735
  518MOL0     H69885   0.253   2.360   9.708  1.9677 -1.8251  3.2279
  518MOL0     H69886   0.074   2.533   9.734 -2.6772 -1.1522  2.2486
  518MOL0     H69887   0.167   2.618   9.848  0.3957 -0.2624 -0.5095
  518MOL0     H69888   0.172   2.444  10.006 -1.3446  2.2821  0.5483
  518MOL0     H69889   0.064   2.345   9.905 -1.7538  0.7976 -0.5842
  518MOL0     H69890   0.080   2.319  10.137  0.7682  4.6135 -1.0376
  518MOL0     H69891  -0.048   2.221  10.333 -1.6613 -0.5250  1.0685
  518MOL0     H69892  -0.237   1.950  10.545 -1.1852 -0.5167 -0.0705
  518MOL0     H69893  -0.318   1.831  10.763 -1.2633  0.4304  3.4738
  518MOL0     H69894  -0.529   1.782  10.882 -0.1853  0.8080 -1.0306
  518MOL0     H69895  -0.387   1.760  10.993  0.0873  0.0263 -0.6793
  518MOL0     H69896  -0.601   1.693  11.080 -1.6303  0.8062 -2.2353
  518MOL0     H69897  -0.520   1.820  11.181  0.7063 -2.2650  0.4320
  518MOL0     H69898  -0.687   1.987  11.120  0.6890  0.8006 -1.2756
  518MOL0     H69899  -0.727   1.898  10.978 -0.4550 -1.0345  0.7236
  518MOL0     H69900  -0.785   1.741  11.225  2.6928  0.8444 -0.5858
  518MOL0     H69901  -0.875   1.752  11.074 -1.3195  2.0668 -1.9088
  518MOL0     H69902  -0.892   2.000  11.249 -0.0846 -0.3995  0.6204
  518MOL0     H69903  -0.998   1.854  11.262  1.8699 -0.3907  0.6319
  518MOL0     H69904  -0.974   2.022  11.009 -0.3472  0.9311 -0.0589
  518MOL0     H69905  -1.084   1.879  11.042  1.5931 -2.1483  1.1988
  518MOL0     H69906  -1.209   1.987  11.198 -1.0792 -2.4704 -2.4700
  518MOL0     H69907  -1.191   2.102  11.059  1.1130 -1.3017 -1.2189
  518MOL0     H69908  -1.207   2.234  11.251  1.1786  1.4207  2.7552
  518MOL0     H69909  -1.063   2.166  11.325  1.6843 -0.5736 -1.1951
  518MOL0     H69910  -0.482   2.193  10.880  0.1462  1.4855 -1.3419
  518MOL0     H69911  -0.385   2.315  10.711  0.5418 -0.6170  0.7427
  518MOL0     H69912  -0.381   2.475  10.237 -0.6374 -2.5905  2.0415
  518MOL0     H69913  -0.250   2.583  10.062  0.9799 -0.3041  0.0043
  518MOL0     H69914   1.516   2.915   8.845 -0.7710  2.2731  1.8258
  518MOL0     H69915   1.598   3.111   8.721  0.9930 -5.1067  0.8389
  518MOL0     H69916   1.361   3.501   8.594 -1.8719  2.1885 -1.3594
  518MOL0     H69917   1.352   3.734   8.555  0.0256 -0.2601  0.9448
  518MOL0     H69918   1.695   3.895   8.352 -2.4367 -2.5264  0.0023
  518MOL0     H69919   1.614   4.040   8.418  1.2852 -0.0308  0.2121
  518MOL0     H69920   1.452   4.033   8.223 -0.0985  0.6199  3.7465
  518MOL0     H69921   1.538   3.888   8.171 -0.7594  2.1674 -3.0463
  518MOL0     H69922   1.624   4.179   8.163 -1.5912 -1.8774  1.8185
  518MOL0     H69923   1.623   4.063   8.027  0.8280 -1.7155 -0.1499
  518MOL0     H69924   1.853   4.111   8.077  1.3402 -3.4825 -0.8382
  518MOL0     H69925   1.835   4.099   8.243  0.4915  0.0207 -0.6305
  518MOL0     H69926   1.913   3.699   8.064  0.5960 -1.2455  4.3439
  518MOL0     H69927   1.709   3.706   8.313 -1.9498  3.8562  0.8968
  518MOL0     H69928   1.810   3.518   8.257  1.4286 -0.6994 -1.0151
  518MOL0     H69929   1.844   3.434   8.404 -0.2315 -0.9535 -0.4416
  518MOL0     H69930   1.741   3.359   8.281  1.5052 -0.1220 -1.0213
  519MOL0     O69931   6.663   0.612   8.056  0.1748  0.5523 -0.2637
  519MOL0     C69932   6.747   0.697   8.036  0.3939 -0.1549  0.2358
  519MOL0     O69933   6.880   0.677   8.054 -0.1756  0.1296  0.2397
  519MOL0     C69934   6.925   0.555   8.076 -0.1577  0.2320 -0.5863
  519MOL0     C69935   6.894   0.439   7.997  0.7140 -0.3384  0.1244
  519MOL0     C69936   6.951   0.313   8.035  0.2041 -0.0723 -0.4387
  519MOL0     C69937   7.044   0.302   8.141 -0.1027  0.3280  1.6055
  519MOL0     O69938   7.092   0.188   8.196  0.1427  0.0494  0.4025
  519MOL0     C69939   7.153   0.094   8.106 -0.1085 -0.3788  0.0948
  519MOL0     C69940   7.049  -0.018   8.087 -0.3463  1.1731  0.5945
  519MOL0     C69941   7.039  -0.109   8.211 -0.0431  0.4333 -0.1196
  519MOL0     C69942   7.075  -0.252   8.180  0.2510  0.1767  0.1512
  519MOL0     C69943   7.057  -0.344   8.299 -0.0649  0.2041 -0.3937
  519MOL0     C69944   7.115  -0.482   8.276 -0.0284  0.4310 -1.2495
  519MOL0     C69945   7.114  -0.557   8.412 -0.7507  0.6872  0.8909
  519MOL0     C69946   7.156  -0.710   8.392 -0.4163 -0.4242  0.4934
  519MOL0     N69947   7.158  -0.781   8.524  0.1193 -0.4144 -0.1143
  519MOL0     C69948   7.082  -0.877   8.576 -0.2385 -0.0971  0.1866
  519MOL0     C69949   7.133  -0.898   8.698 -0.0566  0.6392  0.0715
  519MOL0     C69950   7.099  -1.012   8.791 -0.8378  0.3969  0.7046
  519MOL0     C69951   7.202  -1.131   8.809 -0.2764  0.9440  1.6895
  519MOL0     C69952   7.144  -1.242   8.902 -0.2000 -0.2586  0.1324
  519MOL0     C69953   7.113  -1.184   9.044 -0.0066 -0.5097  1.3282
  519MOL0     O69954   7.072  -1.300   9.120  0.3970  0.4870 -0.2910
  519MOL0     C69955   6.993  -1.286   9.241  0.8079 -0.5620  0.4731
  519MOL0     C69956   6.919  -1.391   9.302 -0.0883 -0.3643  0.4228
  519MOL0     C69957   6.821  -1.376   9.400  0.2906  0.4832 -0.6558
  519MOL0     C69958   6.789  -1.249   9.447  0.2858 -1.1339  1.5266
  519MOL0     C69959   6.693  -1.235   9.558 -0.0112 -0.4313  0.7305
  519MOL0     O69960   6.607  -1.341   9.577 -0.9022 -0.4903  0.1212
  519MOL0     C69961   6.495  -1.326   9.658 -0.3357 -1.0511 -0.4900
  519MOL0     C69962   6.414  -1.205   9.652 -0.3604 -0.1431 -0.0965
  519MOL0     C69963   6.313  -1.184   9.740  0.2713  1.8104  0.2549
  519MOL0     C69964   6.269  -1.286   9.821  0.0268 -0.3173  0.6073
  519MOL0     O69965   6.162  -1.265   9.905  0.6857  0.0380  0.1509
  519MOL0     C69966   6.047  -1.193   9.854  0.9767 -0.4676  0.0950
  519MOL0     C69967   5.940  -1.200   9.956  0.6575  0.0488  0.9208
  519MOL0     C69968   5.965  -1.116  10.078  0.4642 -0.6286  0.7542
  519MOL0     C69969   5.833  -1.093  10.158 -0.4841 -0.8532 -0.7417
  519MOL0     C69970   5.738  -0.992  10.091 -0.6740  0.5780  0.2236
  519MOL0     C69971   5.782  -0.848  10.109 -1.1873  0.1150  0.6855
  519MOL0     C69972   5.673  -0.753  10.072  0.2010  0.0306 -1.1017
  519MOL0     C69973   5.725  -0.616  10.020 -0.1285 -0.1572  0.0305
  519MOL0    Cl69974   5.585  -0.527   9.969  0.1127 -0.0896  0.1810
  519MOL0     C69975   6.344  -1.403   9.825  0.1047 -0.5725  0.6182
  519MOL0     C69976   6.453  -1.426   9.742 -0.3367 -0.1681  0.8300
  519MOL0     O69977   6.700  -1.132   9.628 -0.4247 -0.0566  0.2057
  519MOL0     C69978   6.873  -1.142   9.400  0.9815  0.0114  0.1428
  519MOL0     C69979   6.970  -1.160   9.308 -0.0900  0.4653  0.7759
  519MOL0     N69980   7.239  -0.808   8.716 -0.2320 -0.3619 -0.2723
  519MOL0     N69981   7.249  -0.739   8.609  0.3470 -0.5498 -1.7077
  519MOL0     C69982   7.064   0.419   8.216 -0.3985 -0.7714 -0.0968
  519MOL0     C69983   7.005   0.535   8.190 -0.5593 -0.7949  0.4820
  519MOL0     C69984   6.696   0.832   7.984  0.2773  0.3998 -0.9334
  519MOL0     C69985   6.799   0.929   7.976 -0.3600 -0.0306  0.7391
  519MOL0     C69986   6.765   1.057   7.939 -0.5827 -0.1715 -0.3996
  519MOL0     C69987   6.637   1.094   7.928  0.6660 -0.3464 -0.0453
  519MOL0     O69988   6.619   1.235   7.900  1.1044  0.1503  0.6996
  519MOL0     C69989   6.497   1.295   7.862  0.2133 -0.7118  0.7165
  519MOL0     C69990   6.495   1.434   7.815  0.1098  0.9930 -0.3418
  519MOL0     C69991   6.612   1.476   7.713 -0.2487  0.5247  0.0198
  519MOL0     C69992   6.622   1.624   7.689  0.7487 -0.2460 -0.1611
  519MOL0     C69993   6.504   1.688   7.626 -0.1273  1.0389 -1.1702
  519MOL0     C69994   6.421   1.752   7.569  0.4790  0.5004  0.9197
  519MOL0     C69995   6.530   1.006   7.933  0.0998 -0.6920  0.3049
  519MOL0     C69996   6.562   0.868   7.959 -0.4041  0.1326  1.1241
  519MOL0     C69997   6.456   0.762   7.922  0.0127  0.2330 -0.0479
  519MOL0     H69998   6.818   0.441   7.919  1.0831  3.5107 -0.3051
  519MOL0     H69999   6.926   0.225   7.976 -0.8467  1.6171 -2.6501
  519MOL0     H70000   7.160   0.143   8.009 -0.4744  0.7583  0.6256
  519MOL0     H70001   7.248   0.049   8.136  0.1629  0.1314 -0.0056
  519MOL0     H70002   7.069  -0.073   7.995  1.6860  2.1722  0.3823
  519MOL0     H70003   6.952   0.027   8.064  1.2677  3.9790 -1.3226
  519MOL0     H70004   6.941  -0.099   8.257  0.2352 -1.7493  1.0967
  519MOL0     H70005   7.111  -0.079   8.289  0.0201 -1.1317  0.4601
  519MOL0     H70006   7.003  -0.286   8.106  0.1843 -0.8353  0.6593
  519MOL0     H70007   7.175  -0.260   8.136  0.2619 -1.2146  0.3834
  519MOL0     H70008   7.099  -0.311   8.394 -0.5545 -2.1838  0.7422
  519MOL0     H70009   6.949  -0.347   8.317 -0.6479 -2.7376 -3.3776
  519MOL0     H70010   7.075  -0.533   8.188 -1.3267  2.8710 -2.1654
  519MOL0     H70011   7.216  -0.455   8.243  0.3146  2.9770  1.5063
  519MOL0     H70012   7.009  -0.564   8.444 -0.3151 -1.1599  2.1168
  519MOL0     H70013   7.183  -0.510   8.482  1.0050 -3.9200  2.6886
  519MOL0     H70014   7.081  -0.751   8.324  0.9864 -0.1897 -1.2661
  519MOL0     H70015   7.251  -0.720   8.338  1.0241  2.8228  2.1265
  519MOL0     H70016   6.990  -0.916   8.532  0.5541  0.1771 -1.8233
  519MOL0     H70017   7.103  -0.961   8.888  1.5895 -3.3619  2.8245
  519MOL0     H70018   6.996  -1.043   8.773 -0.2277 -0.4407 -1.6108
  519MOL0     H70019   7.234  -1.169   8.711 -3.0219 -0.0406  1.1005
  519MOL0     H70020   7.288  -1.089   8.862  0.7589 -2.0263  2.5996
  519MOL0     H70021   7.218  -1.322   8.916  1.6576  1.2332 -0.6271
  519MOL0     H70022   7.050  -1.271   8.854 -0.4584  0.4547  0.2002
  519MOL0     H70023   7.033  -1.110   9.034  0.2474 -0.2075  1.4752
  519MOL0     H70024   7.202  -1.140   9.091  1.1709 -2.7274  1.2982
  519MOL0     H70025   6.941  -1.489   9.259  3.1743  0.5394 -0.2351
  519MOL0     H70026   6.761  -1.462   9.427  0.2647  0.5982 -0.3466
  519MOL0     H70027   6.437  -1.129   9.578 -1.3365  2.6117  2.2540
  519MOL0     H70028   6.260  -1.090   9.753 -0.8071  1.3924 -0.9279
  519MOL0     H70029   6.055  -1.086   9.832 -1.3266 -0.8342 -3.4165
  519MOL0     H70030   6.012  -1.246   9.765 -0.6670  0.2745  0.2538
  519MOL0     H70031   5.848  -1.173   9.903  0.9110  1.7885  1.3051
  519MOL0     H70032   5.923  -1.302   9.990  2.9764 -0.8467 -0.3891
  519MOL0     H70033   6.041  -1.171  10.133  2.3186  0.9551 -0.1094
  519MOL0     H70034   6.011  -1.021  10.050  1.2625 -1.1484  0.2411
  519MOL0     H70035   5.866  -1.056  10.255 -4.2734 -2.0863  1.1945
  519MOL0     H70036   5.789  -1.191  10.176  1.6402 -1.7500 -0.1532
  519MOL0     H70037   5.641  -1.010  10.139 -1.1425  0.3155 -0.7909
  519MOL0     H70038   5.731  -1.008   9.983  0.6364  2.3417 -0.1720
  519MOL0     H70039   5.810  -0.835  10.214  4.0894  0.0537 -0.4092
  519MOL0     H70040   5.878  -0.827  10.060 -1.1843  0.4470  0.8324
  519MOL0     H70041   5.620  -0.761  10.167  2.8614 -0.4674  0.4512
  519MOL0     H70042   5.592  -0.781  10.005 -1.6380  2.8877 -0.2772
  519MOL0     H70043   5.779  -0.548  10.086  1.3677  1.4007 -2.6408
  519MOL0     H70044   5.795  -0.636   9.939  0.5470 -3.1641  1.2005
  519MOL0     H70045   6.302  -1.485   9.882  1.7720 -0.6427  1.7879
  519MOL0     H70046   6.511  -1.517   9.754 -1.5136 -1.5937 -2.8850
  519MOL0     H70047   6.861  -1.049   9.455 -0.1281  1.6652 -2.6989
  519MOL0     H70048   7.035  -1.073   9.297 -2.0708  2.4561  3.5533
  519MOL0     H70049   7.120   0.418   8.309  0.5090 -3.0870 -0.6039
  519MOL0     H70050   7.034   0.614   8.258 -0.0613 -1.1304  0.6625
  519MOL0     H70051   6.904   0.905   7.989 -0.0987 -0.7456 -2.1002
  519MOL0     H70052   6.838   1.137   7.945 -0.6002  0.2812 -4.0533
  519MOL0     H70053   6.434   1.289   7.951  1.4773  2.4616  1.9558
  519MOL0     H70054   6.450   1.233   7.785  2.3022  0.1294 -1.3533
  519MOL0     H70055   6.509   1.502   7.900 -0.9704  1.0129 -0.1565
  519MOL0     H70056   6.394   1.446   7.774 -0.7214  0.6786  1.5191
  519MOL0     H70057   6.586   1.430   7.618 -1.0015  3.2069 -1.1938
  519MOL0     H70058   6.707   1.437   7.748  0.6899  1.8450 -0.9715
  519MOL0     H70059   6.651   1.678   7.780 -0.7386  2.1286 -1.0196
  519MOL0     H70060   6.705   1.633   7.618  0.3743  0.9143 -0.4569
  519MOL0     H70061   6.346   1.811   7.520  1.8150  2.7041  1.3732
  519MOL0     H70062   6.426   1.035   7.923  0.7003  2.5046  2.0710
  519MOL0     H70063   6.508   0.675   7.879 -0.7283  0.1940 -0.9007
  519MOL0     H70064   6.405   0.729   8.013  3.8897  0.3189  2.4000
  519MOL0     H70065   6.382   0.802   7.853 -0.8313 -0.4774  0.4164
  520MOL0     O70066   7.791   5.505   9.202 -0.5277  0.2432  0.4957
  520MOL0     C70067   7.899   5.465   9.257  0.6810 -0.2161 -0.2215
  520MOL0     O70068   8.007   5.413   9.192 -0.4022  0.2466 -0.4873
  520MOL0     C70069   7.996   5.375   9.061  0.3009 -0.9938 -0.6882
  520MOL0     C70070   8.045   5.257   9.034 -0.0566  0.5074 -0.1662
  520MOL0     C70071   8.030   5.206   8.905 -0.0305  0.0905  0.1431
  520MOL0     C70072   7.983   5.290   8.800  0.0472  0.0347 -0.3871
  520MOL0     O70073   7.978   5.254   8.672  0.0087  0.0799 -0.3708
  520MOL0     C70074   8.093   5.207   8.604  0.3371 -0.1755  0.2563
  520MOL0     C70075   8.105   5.265   8.459 -0.3616  0.4192  0.0992
  520MOL0     C70076   8.211   5.207   8.373 -0.0173 -0.1486 -0.5211
  520MOL0     C70077   8.169   5.219   8.226  1.1753  0.3812 -0.8097
  520MOL0     C70078   8.294   5.205   8.139 -0.0148 -0.0017 -0.2992
  520MOL0     C70079   8.369   5.335   8.136  0.0117 -0.1786 -0.2186
  520MOL0     C70080   8.314   5.437   8.040  0.3391 -0.0798  0.1289
  520MOL0     C70081   8.359   5.576   8.078 -0.2972 -0.4759 -0.5753
  520MOL0     N70082   8.300   5.670   7.984  0.6093  0.3444 -0.2049
  520MOL0     C70083   8.175   5.722   7.991  1.6829 -1.0165 -0.0588
  520MOL0     C70084   8.163   5.807   7.887 -1.2690 -0.0526 -0.6269
  520MOL0     C70085   8.033   5.884   7.853  0.6571  0.6530  0.6893
  520MOL0     C70086   7.922   5.790   7.800  0.4296 -0.6403  0.0736
  520MOL0     C70087   7.790   5.860   7.738  0.2886  0.1099 -0.9199
  520MOL0     C70088   7.831   5.945   7.619  0.7406 -0.0531 -0.3693
  520MOL0     O70089   7.718   5.975   7.538  0.4419 -1.0437  0.2602
  520MOL0     C70090   7.640   6.088   7.559  0.1250 -0.9038  0.0378
  520MOL0     C70091   7.512   6.080   7.511  0.2440 -0.6084 -0.2139
  520MOL0     C70092   7.420   6.173   7.547  0.8593 -0.6103  0.3136
  520MOL0     C70093   7.459   6.276   7.637 -0.6038  0.5827  0.0085
  520MOL0     C70094   7.355   6.383   7.674  0.7537  0.4969 -0.2765
  520MOL0     O70095   7.375   6.458   7.788 -0.5620 -0.7872 -0.8726
  520MOL0     C70096   7.333   6.586   7.796 -0.0617 -0.6742 -0.7815
  520MOL0     C70097   7.403   6.690   7.724 -0.9089 -0.2411 -0.1108
  520MOL0     C70098   7.357   6.818   7.729  0.1398 -0.3883 -0.1220
  520MOL0     C70099   7.236   6.858   7.803 -0.2357  0.5249  0.0707
  520MOL0     O70100   7.206   6.998   7.823  0.0278  0.0910 -0.6452
  520MOL0     C70101   7.218   7.083   7.712 -1.2988 -0.1510 -0.5468
  520MOL0     C70102   7.155   7.223   7.732  0.3791  0.4876  0.0425
  520MOL0     C70103   7.018   7.221   7.798 -1.0493 -0.2618 -0.3835
  520MOL0     C70104   6.927   7.132   7.720  1.3110 -0.1499  0.0818
  520MOL0     C70105   6.780   7.190   7.707 -0.9389  0.2411 -0.2464
  520MOL0     C70106   6.766   7.300   7.603  0.4586 -0.7203  0.2042
  520MOL0     C70107   6.715   7.243   7.467  0.1226  0.2518 -0.4254
  520MOL0     C70108   6.721   7.349   7.363 -0.0199 -0.6534 -0.6189
  520MOL0    Cl70109   6.628   7.487   7.399 -0.0706  0.2482 -0.2843
  520MOL0     C70110   7.169   6.753   7.875 -0.2685  0.4866  0.5617
  520MOL0     C70111   7.213   6.620   7.869 -0.3169  0.8072 -0.0611
  520MOL0     O70112   7.264   6.398   7.593  0.5045  0.1333  0.2403
  520MOL0     C70113   7.591   6.288   7.683 -0.9201  0.1831  0.4863
  520MOL0     C70114   7.681   6.200   7.639  0.4913  0.0516 -0.1875
  520MOL0     N70115   8.284   5.787   7.822  0.5558 -0.2690  0.5170
  520MOL0     N70116   8.364   5.707   7.879  0.9490  0.4488 -1.1788
  520MOL0     C70117   7.942   5.417   8.833 -0.2083  0.0368 -0.8324
  520MOL0     C70118   7.945   5.459   8.966 -0.1815 -0.4941  0.5806
  520MOL0     C70119   7.913   5.476   9.414 -0.0221 -0.1720  0.6979
  520MOL0     C70120   8.037   5.486   9.478 -0.7613 -0.7017 -0.5902
  520MOL0     C70121   8.051   5.504   9.614 -1.3012 -0.5625  1.0977
  520MOL0     C70122   7.938   5.534   9.685 -0.3063  0.2924 -0.5006
  520MOL0     O70123   7.967   5.567   9.811  0.0790  0.1457 -0.6678
  520MOL0     C70124   7.853   5.580   9.902 -1.1165 -0.1497 -0.4287
  520MOL0     C70125   7.877   5.613  10.047 -0.5463  0.1558  0.2687
  520MOL0     C70126   7.954   5.509  10.123  0.6668  0.5125  0.7128
  520MOL0     C70127   7.945   5.525  10.273  0.4352  0.0785  0.8984
  520MOL0     C70128   7.845   5.442  10.322 -0.6735  0.0861  0.4172
  520MOL0     C70129   7.749   5.399  10.372  0.1970  1.2317 -0.8151
  520MOL0     C70130   7.812   5.509   9.628  0.8813  0.0857 -0.1058
  520MOL0     C70131   7.797   5.475   9.495 -0.2357 -0.0372 -0.0828
  520MOL0     C70132   7.656   5.454   9.447 -0.0130 -0.8002 -0.5939
  520MOL0     H70133   8.063   5.190   9.117 -2.4913  0.3306  0.2749
  520MOL0     H70134   8.029   5.100   8.882  2.1649  0.2545 -0.8863
  520MOL0     H70135   8.183   5.235   8.659  0.7036 -1.6424  0.4368
  520MOL0     H70136   8.076   5.099   8.601  1.4600 -0.3979  1.2523
  520MOL0     H70137   8.114   5.374   8.468 -3.6467  0.9364 -1.4043
  520MOL0     H70138   8.008   5.254   8.410 -0.1253 -2.8594  0.1810
  520MOL0     H70139   8.216   5.099   8.391 -2.5991 -0.0025  1.7809
  520MOL0     H70140   8.309   5.255   8.383 -0.5710  0.7057  1.2822
  520MOL0     H70141   8.102   5.136   8.204 -2.1952  1.5570  3.5480
  520MOL0     H70142   8.118   5.316   8.216 -0.4387 -0.1847  1.1670
  520MOL0     H70143   8.348   5.126   8.193 -3.2937 -4.0619 -2.3927
  520MOL0     H70144   8.267   5.159   8.044 -1.9356  0.8159 -0.2005
  520MOL0     H70145   8.361   5.382   8.234 -3.8663 -2.5304  0.8212
  520MOL0     H70146   8.471   5.315   8.102  0.1851  0.3118  0.0105
  520MOL0     H70147   8.205   5.435   8.042  0.2312  1.9496 -0.6457
  520MOL0     H70148   8.341   5.418   7.935 -0.9112 -0.9273 -0.0675
  520MOL0     H70149   8.333   5.600   8.181 -1.2431 -1.1000 -0.6502
  520MOL0     H70150   8.468   5.583   8.072 -0.0127 -1.5947  1.9804
  520MOL0     H70151   8.101   5.685   8.062  0.0982  0.4796 -0.8381
  520MOL0     H70152   8.000   5.932   7.946 -4.5957  0.3353 -0.7304
  520MOL0     H70153   8.042   5.966   7.781  0.4403 -0.9819 -1.2998
  520MOL0     H70154   7.946   5.721   7.719 -1.1793 -1.0997 -0.0534
  520MOL0     H70155   7.916   5.723   7.886 -2.1477  2.3482  2.5124
  520MOL0     H70156   7.736   5.920   7.812  1.2949 -0.6279  0.4725
  520MOL0     H70157   7.721   5.783   7.704  0.6633 -1.5711  1.7961
  520MOL0     H70158   7.907   5.897   7.556  2.1263  1.1827  0.2996
  520MOL0     H70159   7.874   6.038   7.658 -1.0136 -0.0365  1.7092
  520MOL0     H70160   7.480   6.017   7.428 -0.2723 -0.3894 -0.1836
  520MOL0     H70161   7.321   6.166   7.504 -0.4685  4.0861  2.0266
  520MOL0     H70162   7.488   6.666   7.661 -2.0060 -1.1092 -1.3130
  520MOL0     H70163   7.417   6.896   7.683 -0.5862 -0.0811 -0.5734
  520MOL0     H70164   7.325   7.097   7.694 -0.0661 -3.1913  3.1274
  520MOL0     H70165   7.177   7.035   7.623 -1.3498 -1.6781  0.2767
  520MOL0     H70166   7.227   7.271   7.799  0.7238 -1.6100  1.2404
  520MOL0     H70167   7.141   7.280   7.640 -2.0376  0.6972  0.4717
  520MOL0     H70168   7.028   7.191   7.902 -1.4099  0.3448 -0.1701
  520MOL0     H70169   6.975   7.321   7.799  4.0372  2.2963 -2.4582
  520MOL0     H70170   6.908   7.040   7.776  0.3734  0.7397  1.2966
  520MOL0     H70171   6.969   7.113   7.621 -0.2235  3.6682 -1.4994
  520MOL0     H70172   6.755   7.233   7.804  2.8570  3.8175 -0.5452
  520MOL0     H70173   6.709   7.114   7.673  2.9859 -2.1531 -4.2606
  520MOL0     H70174   6.703   7.376   7.651 -1.7860 -2.3212 -0.0785
  520MOL0     H70175   6.863   7.347   7.583 -0.5312  0.8026 -1.3782
  520MOL0     H70176   6.613   7.205   7.467  0.6650 -1.2832 -0.2693
  520MOL0     H70177   6.783   7.163   7.435 -1.1931 -1.2075  0.3200
  520MOL0     H70178   6.827   7.373   7.355 -0.1111  0.0577  0.1780
  520MOL0     H70179   6.684   7.318   7.265 -0.5611  1.5413 -1.1499
  520MOL0     H70180   7.078   6.790   7.922 -0.4208  0.9485 -0.0807
  520MOL0     H70181   7.166   6.533   7.914 -0.3150 -0.2717 -2.0217
  520MOL0     H70182   7.615   6.379   7.738  3.5381  0.0080 -0.8247
  520MOL0     H70183   7.783   6.231   7.659  1.4879 -2.8320 -0.2963
  520MOL0     H70184   7.910   5.488   8.757 -1.2849 -1.2322 -1.6113
  520MOL0     H70185   7.913   5.560   8.989  0.3988 -0.0295 -0.5285
  520MOL0     H70186   8.132   5.480   9.426 -2.3913 -3.3127 -3.6177
  520MOL0     H70187   8.148   5.511   9.661 -1.4658  1.0495  1.2588
  520MOL0     H70188   7.791   5.489   9.901 -0.6056 -0.4954 -0.8935
  520MOL0     H70189   7.785   5.650   9.851 -2.1214 -0.8348 -0.0716
  520MOL0     H70190   7.779   5.612  10.095 -1.5687 -1.9128 -1.6836
  520MOL0     H70191   7.935   5.706  10.057  0.7534 -0.7030  1.0636
  520MOL0     H70192   8.061   5.526  10.109  1.1317 -0.5254  2.6784
  520MOL0     H70193   7.921   5.406  10.103 -1.3632  0.5150  3.4852
  520MOL0     H70194   8.045   5.506  10.312  1.2553  1.5381 -0.3556
  520MOL0     H70195   7.922   5.629  10.300  0.4410  0.8312 -1.6922
  520MOL0     H70196   7.663   5.349  10.411  1.2956 -2.5852 -2.7787
  520MOL0     H70197   7.722   5.519   9.688 -1.5585 -2.1411 -3.0638
  520MOL0     H70198   7.611   5.552   9.428  1.5443  0.4337  1.5595
  520MOL0     H70199   7.659   5.389   9.359  2.1642 -1.5088 -0.0558
  520MOL0     H70200   7.594   5.410   9.526  1.7275  1.3028  2.1319
  521MOL0     O70201   2.451   3.307   2.767 -0.0421  0.3268  0.2688
  521MOL0     C70202   2.558   3.248   2.754 -0.4780 -0.0227  1.9661
  521MOL0     O70203   2.626   3.178   2.850 -0.6590 -0.8299  0.9736
  521MOL0     C70204   2.613   3.194   2.988  0.4699  0.8286  0.4407
  521MOL0     C70205   2.549   3.306   3.041  1.1297  0.9236  1.0124
  521MOL0     C70206   2.521   3.302   3.177 -0.2903 -0.2589 -0.0181
  521MOL0     C70207   2.547   3.191   3.259 -0.2477  0.1902  0.3774
  521MOL0     O70208   2.527   3.183   3.390 -0.1743  0.7587 -0.9407
  521MOL0     C70209   2.520   3.301   3.473 -0.2294  0.8411  0.3093
  521MOL0     C70210   2.473   3.259   3.613 -0.1971  0.3548  0.6513
  521MOL0     C70211   2.438   3.372   3.705 -0.3705  0.7281  0.1663
  521MOL0     C70212   2.322   3.474   3.671  0.5497 -0.1229  0.5530
  521MOL0     C70213   2.339   3.619   3.725 -0.6045 -0.0480 -0.6034
  521MOL0     C70214   2.337   3.614   3.876  0.7632 -0.7367 -0.2228
  521MOL0     C70215   2.342   3.752   3.933 -0.7354 -0.3935 -0.3539
  521MOL0     C70216   2.257   3.761   4.058 -0.0757  0.3856  0.2892
  521MOL0     N70217   2.279   3.904   4.115 -0.0933  0.5088  1.0077
  521MOL0     C70218   2.202   4.011   4.087 -0.0826 -0.4845  0.0061
  521MOL0     C70219   2.246   4.098   4.184 -0.6146 -0.7473 -0.4113
  521MOL0     C70220   2.210   4.241   4.215  0.1257  0.6694  0.1895
  521MOL0     C70221   2.082   4.244   4.303 -0.6082 -0.6036 -0.1259
  521MOL0     C70222   2.026   4.390   4.312 -0.7427 -0.1895  0.2499
  521MOL0     C70223   1.924   4.398   4.427  0.1177 -0.3113 -0.1648
  521MOL0     O70224   1.834   4.511   4.419  0.0640  0.0369  0.5294
  521MOL0     C70225   1.733   4.505   4.333  1.5211  0.2316 -0.2971
  521MOL0     C70226   1.705   4.407   4.241 -1.0683  0.2381  0.1945
  521MOL0     C70227   1.596   4.413   4.158  0.4206  0.2656  0.4037
  521MOL0     C70228   1.507   4.520   4.160 -0.0061 -0.4577  0.0813
  521MOL0     C70229   1.387   4.534   4.077  0.3089  0.0250  1.2551
  521MOL0     O70230   1.366   4.431   3.989 -0.4757  0.0039 -0.1264
  521MOL0     C70231   1.285   4.449   3.891  0.2886 -1.1878  0.7861
  521MOL0     C70232   1.179   4.368   3.874 -0.1950  0.4551  0.9415
  521MOL0     C70233   1.090   4.378   3.763 -0.3903 -0.2056  0.7331
  521MOL0     C70234   1.111   4.474   3.665 -0.2334  0.1503 -0.3763
  521MOL0     O70235   1.021   4.492   3.567  0.3112  0.0730 -0.5148
  521MOL0     C70236   0.957   4.620   3.540  1.0464 -0.2771  0.7887
  521MOL0     C70237   0.948   4.660   3.385  0.7597 -0.2151 -0.4751
  521MOL0     C70238   0.846   4.578   3.311 -0.1005  1.2631  0.8162
  521MOL0     C70239   0.867   4.587   3.151  0.0977  0.2129 -0.2984
  521MOL0     C70240   0.741   4.592   3.063 -0.2538 -0.1029 -1.3062
  521MOL0     C70241   0.691   4.735   3.056  0.1039  0.1718  0.1450
  521MOL0     C70242   0.575   4.762   2.954 -0.8810 -0.4932  0.0115
  521MOL0     C70243   0.498   4.897   2.988 -0.5645  0.6637  0.0149
  521MOL0    Cl70244   0.612   5.037   3.030  0.0886 -0.1349 -0.0695
  521MOL0     C70245   1.218   4.565   3.684 -0.5951 -0.2059 -0.4371
  521MOL0     C70246   1.308   4.545   3.792  0.2270  0.9048  0.2527
  521MOL0     O70247   1.321   4.636   4.079 -0.0324  1.0734  0.2656
  521MOL0     C70248   1.528   4.619   4.261 -1.5111 -0.4831  0.4392
  521MOL0     C70249   1.643   4.610   4.346  0.2203 -0.9843 -0.3799
  521MOL0     N70250   2.350   4.037   4.265  0.8990 -0.3597 -0.2503
  521MOL0     N70251   2.378   3.930   4.206  0.3448 -0.0076 -0.9442
  521MOL0     C70252   2.619   3.079   3.203 -0.1640  0.1836  0.6081
  521MOL0     C70253   2.650   3.084   3.070 -0.0464 -0.6975  0.0209
  521MOL0     C70254   2.615   3.251   2.620 -0.9597  1.0755  0.3961
  521MOL0     C70255   2.574   3.347   2.525  0.8763  0.3729 -0.5991
  521MOL0     C70256   2.627   3.362   2.393  0.6732  0.0135  0.2461
  521MOL0     C70257   2.713   3.262   2.349 -1.0367 -0.6227 -0.0433
  521MOL0     O70258   2.759   3.254   2.212 -0.6690 -0.2019 -0.4912
  521MOL0     C70259   2.867   3.332   2.169 -0.2814 -0.1979 -0.1390
  521MOL0     C70260   2.875   3.324   2.022 -0.7663 -0.6430  0.8537
  521MOL0     C70261   2.960   3.450   1.971  0.0842  0.7008  1.3868
  521MOL0     C70262   2.981   3.447   1.816 -0.1591  0.3090  0.3620
  521MOL0     C70263   3.107   3.517   1.772  0.2406  0.3928  0.8864
  521MOL0     C70264   3.211   3.566   1.728  0.2982  0.5345  0.8292
  521MOL0     C70265   2.749   3.151   2.430  0.4927 -0.8674 -0.1502
  521MOL0     C70266   2.709   3.150   2.567  0.3787  0.0490 -0.2238
  521MOL0     C70267   2.749   3.029   2.645 -0.1908  0.2221  0.4096
  521MOL0     H70268   2.503   3.388   2.987  2.3998  1.1929  0.3066
  521MOL0     H70269   2.478   3.392   3.220  0.8472  0.8663 -1.1524
  521MOL0     H70270   2.616   3.352   3.483 -0.2133  0.8757 -0.0181
  521MOL0     H70271   2.450   3.374   3.433 -1.5745 -0.9315 -0.7089
  521MOL0     H70272   2.543   3.186   3.653  3.6135  1.9631 -2.4278
  521MOL0     H70273   2.378   3.206   3.600  0.6947 -0.6667 -2.2187
  521MOL0     H70274   2.529   3.431   3.717 -0.8833  2.6926 -3.9661
  521MOL0     H70275   2.410   3.341   3.806 -3.2210  0.8125 -0.4944
  521MOL0     H70276   2.327   3.485   3.563  2.4657  2.2390  0.7982
  521MOL0     H70277   2.230   3.424   3.704  0.0679  1.4197  1.6667
  521MOL0     H70278   2.435   3.657   3.689 -0.1604 -0.4559  0.1179
  521MOL0     H70279   2.258   3.677   3.680  0.4757 -0.9524 -4.0210
  521MOL0     H70280   2.254   3.559   3.922  2.3819 -3.8510 -0.7433
  521MOL0     H70281   2.421   3.552   3.910 -0.7439 -1.5662  2.2901
  521MOL0     H70282   2.326   3.823   3.851  2.9449  0.9711 -0.0773
  521MOL0     H70283   2.445   3.773   3.962 -1.5861  2.3124  1.1542
  521MOL0     H70284   2.156   3.762   4.018  1.1165 -1.2512 -3.0935
  521MOL0     H70285   2.277   3.681   4.130  1.6706  0.0338 -0.5266
  521MOL0     H70286   2.126   4.021   4.010  1.2527 -2.2444 -1.6573
  521MOL0     H70287   2.291   4.298   4.261  1.6605  0.6939 -2.3278
  521MOL0     H70288   2.175   4.295   4.127 -3.1821  0.2974  1.1326
  521MOL0     H70289   2.003   4.180   4.264  2.7566 -3.0960 -3.6119
  521MOL0     H70290   2.111   4.198   4.398 -1.3654  2.2025  1.5898
  521MOL0     H70291   1.992   4.428   4.215 -3.0895  0.0802  1.0958
  521MOL0     H70292   2.105   4.454   4.354 -2.4680  0.6993  2.3722
  521MOL0     H70293   1.976   4.399   4.523  1.3482 -0.9214 -0.7947
  521MOL0     H70294   1.866   4.306   4.436  0.6489 -0.5315  1.1557
  521MOL0     H70295   1.757   4.313   4.223  0.1928  1.2671 -1.9395
  521MOL0     H70296   1.575   4.330   4.091  0.6761  1.4568 -1.2215
  521MOL0     H70297   1.166   4.277   3.932 -0.2940 -0.3699 -0.3406
  521MOL0     H70298   1.006   4.309   3.757  0.3624 -1.1268  0.4268
  521MOL0     H70299   0.859   4.608   3.587  1.5917  0.3319  2.1460
  521MOL0     H70300   0.994   4.702   3.603  0.0483  0.1336  0.8529
  521MOL0     H70301   0.917   4.765   3.387  1.7741  0.0934 -0.1081
  521MOL0     H70302   1.046   4.633   3.343  1.0082 -4.5608  2.2402
  521MOL0     H70303   0.845   4.471   3.330  0.9649  0.9936 -0.4401
  521MOL0     H70304   0.751   4.620   3.345  0.7052  4.0044 -0.0036
  521MOL0     H70305   0.906   4.490   3.118 -1.1503 -1.1913  2.1014
  521MOL0     H70306   0.930   4.671   3.121 -1.3437  1.6507  0.5428
  521MOL0     H70307   0.673   4.514   3.098 -0.5083  1.1991  1.3996
  521MOL0     H70308   0.774   4.563   2.963  0.4644  2.4635 -1.8698
  521MOL0     H70309   0.656   4.769   3.154 -2.6223  2.3325 -1.4561
  521MOL0     H70310   0.777   4.796   3.028  1.6418 -3.1611 -3.2904
  521MOL0     H70311   0.512   4.675   2.973 -1.0340 -0.1176  1.3526
  521MOL0     H70312   0.602   4.773   2.848 -1.7268 -0.0739 -0.1673
  521MOL0     H70313   0.430   4.927   2.908 -0.6285  1.1841  0.2596
  521MOL0     H70314   0.438   4.880   3.078 -0.4648  0.8638  0.1207
  521MOL0     H70315   1.237   4.645   3.614  0.5033  0.8639  1.0143
  521MOL0     H70316   1.394   4.611   3.789  2.6685 -2.0862 -2.9323
  521MOL0     H70317   1.458   4.702   4.270  0.0481  0.9782 -0.3115
  521MOL0     H70318   1.658   4.686   4.422 -0.3247 -2.3240  1.1261
  521MOL0     H70319   2.642   2.995   3.268 -0.6893 -0.2753  0.2049
  521MOL0     H70320   2.718   3.013   3.024  0.3190  0.0334 -0.5786
  521MOL0     H70321   2.493   3.415   2.547 -1.8582 -1.4475 -4.0961
  521MOL0     H70322   2.626   3.452   2.332 -2.4144 -0.4909 -0.6231
  521MOL0     H70323   2.959   3.304   2.219  0.6625 -0.2878 -1.8571
  521MOL0     H70324   2.840   3.432   2.205  2.2432 -0.8571  4.2220
  521MOL0     H70325   2.773   3.321   1.982 -0.5092 -2.1546  0.2181
  521MOL0     H70326   2.934   3.237   1.992 -1.4403 -1.1411  0.9569
  521MOL0     H70327   3.059   3.450   2.017  1.9731 -4.0966 -1.8431
  521MOL0     H70328   2.900   3.538   1.999 -1.6073 -0.3747  1.3270
  521MOL0     H70329   2.970   3.353   1.761 -2.9589  2.2784 -2.8621
  521MOL0     H70330   2.897   3.506   1.778  1.3521  1.3593 -1.5182
  521MOL0     H70331   3.300   3.616   1.694  2.1895 -1.5637  2.3948
  521MOL0     H70332   2.821   3.087   2.381  1.3727  0.4102 -0.5890
  521MOL0     H70333   2.789   2.950   2.581 -3.4006 -2.7580  1.7446
  521MOL0     H70334   2.818   3.046   2.728  0.8141 -0.6387 -0.2152
  521MOL0     H70335   2.661   2.986   2.694  0.0293  1.2361  1.7529
  522MOL0     O70336   5.578   8.214   8.948 -0.0510 -0.8139  0.9078
  522MOL0     C70337   5.609   8.329   8.982  0.7015 -0.3493  1.0593
  522MOL0     O70338   5.735   8.367   9.005  0.3610 -0.5335 -0.5442
  522MOL0     C70339   5.842   8.298   8.954 -0.0606 -0.3733  0.7266
  522MOL0     C70340   5.959   8.324   9.032  0.9153 -0.0162 -0.0694
  522MOL0     C70341   6.078   8.278   8.992  0.7633  1.0176 -0.0737
  522MOL0     C70342   6.086   8.195   8.875  0.0301  0.3356 -0.4008
  522MOL0     O70343   6.206   8.129   8.857 -0.0477  0.5199  0.8844
  522MOL0     C70344   6.240   8.107   8.723  1.2057  0.8478 -0.3135
  522MOL0     C70345   6.350   8.000   8.716  0.1142  0.9017 -0.4061
  522MOL0     C70346   6.482   8.075   8.754 -0.1672 -0.4220  0.5229
  522MOL0     C70347   6.604   7.981   8.742  0.3774 -0.6602 -0.5204
  522MOL0     C70348   6.715   8.041   8.817 -0.8907 -0.1106  0.2533
  522MOL0     C70349   6.856   7.981   8.784  0.6623  0.1534 -0.4222
  522MOL0     C70350   6.949   8.037   8.890 -1.2951 -1.2706 -0.8270
  522MOL0     C70351   6.964   7.946   9.017  1.4721 -0.3704 -0.2196
  522MOL0     N70352   7.070   8.001   9.101 -0.6801 -0.9761 -0.6433
  522MOL0     C70353   7.210   7.956   9.099  0.5615 -0.0514  0.4828
  522MOL0     C70354   7.270   8.028   9.195  0.6106 -0.3932 -0.3042
  522MOL0     C70355   7.414   8.017   9.231 -0.2897  0.2868  0.6336
  522MOL0     C70356   7.435   7.985   9.375  0.3872  0.7322  1.0529
  522MOL0     C70357   7.560   7.893   9.400 -0.2379 -0.1154  0.0373
  522MOL0     C70358   7.606   7.901   9.546 -1.6664 -0.4564 -0.1250
  522MOL0     O70359   7.712   7.799   9.560  0.1304  0.2985  0.1017
  522MOL0     C70360   7.822   7.803   9.484  0.2471 -0.6617 -0.0414
  522MOL0     C70361   7.875   7.928   9.446 -0.4135  0.5779 -0.6089
  522MOL0     C70362   8.005   7.936   9.401  0.5300 -0.1189  0.3786
  522MOL0     C70363   8.079   7.822   9.370 -0.5433  0.0696  0.1139
  522MOL0     C70364   8.215   7.832   9.311 -0.2043 -0.6896  0.8196
  522MOL0     O70365   8.303   7.724   9.299  0.6188  0.0635  0.7610
  522MOL0     C70366   8.418   7.719   9.224 -0.0178  0.5668  0.3487
  522MOL0     C70367   8.467   7.589   9.174 -0.1560 -0.4856 -1.1596
  522MOL0     C70368   8.587   7.583   9.104  0.7696 -0.1963  0.4502
  522MOL0     C70369   8.671   7.697   9.080  0.4616 -0.9614 -1.4632
  522MOL0     O70370   8.806   7.678   9.041  0.5337  0.5674  0.0454
  522MOL0     C70371   8.880   7.591   9.131  0.0496  0.6297 -0.6619
  522MOL0     C70372   9.020   7.569   9.064  0.4468 -0.8149 -0.6811
  522MOL0     C70373   9.016   7.459   8.951 -0.7233  0.0355  0.4018
  522MOL0     C70374   9.152   7.429   8.868 -0.2298  0.0855 -0.0157
  522MOL0     C70375   9.252   7.355   8.953 -0.2035 -0.6848 -1.0604
  522MOL0     C70376   9.387   7.349   8.880  0.9511 -0.3297  0.6310
  522MOL0     C70377   9.497   7.464   8.911  0.1503  0.1972  0.1981
  522MOL0     C70378   9.504   7.576   8.796 -0.8836 -0.3724 -0.0072
  522MOL0    Cl70379   9.638   7.706   8.819  0.1936  0.0187 -0.3118
  522MOL0     C70380   8.626   7.824   9.121 -0.4809 -0.2739 -0.5943
  522MOL0     C70381   8.504   7.832   9.184  0.1705 -0.5927 -0.2608
  522MOL0     O70382   8.249   7.948   9.268 -0.5229  0.1699  0.4402
  522MOL0     C70383   8.030   7.698   9.397  1.2804  0.1947 -0.0167
  522MOL0     C70384   7.896   7.684   9.446 -0.5116 -0.2254 -0.4682
  522MOL0     N70385   7.174   8.113   9.252  0.5574  0.5275 -0.5607
  522MOL0     N70386   7.055   8.084   9.202  0.4186 -0.1095  0.3391
  522MOL0     C70387   5.967   8.166   8.795  0.6644  0.4532 -0.6512
  522MOL0     C70388   5.844   8.216   8.841 -1.3652  0.7969 -0.4646
  522MOL0     C70389   5.489   8.418   9.023  0.4594 -0.2362  0.2564
  522MOL0     C70390   5.362   8.359   9.032  0.5934  0.8997  0.2682
  522MOL0     C70391   5.249   8.435   9.076  0.3632  0.2709 -0.7115
  522MOL0     C70392   5.252   8.571   9.099  0.7193 -0.3391  0.1046
  522MOL0     O70393   5.153   8.653   9.149 -0.1853  0.2658 -0.1552
  522MOL0     C70394   5.026   8.600   9.164  0.3281  0.0243  0.9275
  522MOL0     C70395   4.924   8.699   9.209 -0.7618  0.2465  0.6671
  522MOL0     C70396   4.904   8.805   9.099 -0.6713  0.4269  0.1710
  522MOL0     C70397   4.765   8.869   9.108 -0.0202  0.1543 -0.5647
  522MOL0     C70398   4.756   8.987   9.014  0.2205  0.4460 -0.3266
  522MOL0     C70399   4.746   9.059   8.914  0.9792 -0.6897  0.1569
  522MOL0     C70400   5.373   8.628   9.065 -0.5308  0.2959  0.1385
  522MOL0     C70401   5.494   8.555   9.031  1.0033  0.3883  0.9646
  522MOL0     C70402   5.616   8.632   8.997 -0.0972 -0.1987  0.2946
  522MOL0     H70403   5.950   8.394   9.115 -0.7063 -1.2418  0.8587
  522MOL0     H70404   6.172   8.295   9.044  0.7518  3.5447 -0.7843
  522MOL0     H70405   6.159   8.064   8.663  0.1568  2.5082 -0.1727
  522MOL0     H70406   6.271   8.201   8.676  1.2760  1.8908  1.7004
  522MOL0     H70407   6.352   7.950   8.619 -4.9648 -0.2201 -0.1987
  522MOL0     H70408   6.330   7.928   8.796  1.0815  0.4900 -0.5112
  522MOL0     H70409   6.473   8.110   8.857 -0.6322 -2.9796  1.4103
  522MOL0     H70410   6.482   8.160   8.685  2.2738 -1.1652 -0.4936
  522MOL0     H70411   6.569   7.883   8.778 -3.8431  0.6396 -0.5502
  522MOL0     H70412   6.640   7.981   8.639 -1.0954  1.5199 -1.0817
  522MOL0     H70413   6.733   8.149   8.813  0.1464 -0.3023 -1.0870
  522MOL0     H70414   6.693   8.016   8.922  2.7860 -0.2548  1.1297
  522MOL0     H70415   6.856   7.873   8.802 -0.1047  0.2979  0.5308
  522MOL0     H70416   6.889   7.992   8.680  0.3472  0.9553 -0.4460
  522MOL0     H70417   6.925   8.135   8.933  2.7424  0.6344 -2.3768
  522MOL0     H70418   7.043   8.043   8.836 -2.6669 -2.0137 -3.4470
  522MOL0     H70419   6.872   7.933   9.075  2.9627 -2.4745  1.9278
  522MOL0     H70420   6.998   7.846   8.988 -0.8118 -1.3050  0.1229
  522MOL0     H70421   7.254   7.882   9.033  1.2631  0.1383  0.7333
  522MOL0     H70422   7.479   7.953   9.171 -1.8444 -0.9841  0.2440
  522MOL0     H70423   7.462   8.114   9.220  0.5301 -0.2002 -0.2282
  522MOL0     H70424   7.459   8.083   9.417  0.4900  1.3909 -0.5096
  522MOL0     H70425   7.352   7.933   9.425  0.8986 -1.1218  0.0542
  522MOL0     H70426   7.637   7.932   9.332  0.2567 -1.1087  0.0152
  522MOL0     H70427   7.540   7.787   9.382  0.0016 -0.4312  1.5735
  522MOL0     H70428   7.525   7.882   9.618 -0.9383 -3.6659 -0.0180
  522MOL0     H70429   7.625   8.003   9.582 -6.9176  0.5051  0.7802
  522MOL0     H70430   7.823   8.023   9.449  5.1773  4.2383 -3.6350
  522MOL0     H70431   8.050   8.032   9.377  0.4716  0.0597  0.9783
  522MOL0     H70432   8.408   7.502   9.201 -0.1816  0.2579  1.5627
  522MOL0     H70433   8.613   7.485   9.066 -0.0954  0.4268 -1.9010
  522MOL0     H70434   8.902   7.638   9.228 -0.3381  0.1698 -0.3460
  522MOL0     H70435   8.839   7.493   9.156  0.8488  0.2476 -0.7969
  522MOL0     H70436   9.051   7.665   9.022  1.9963 -1.3094 -0.7113
  522MOL0     H70437   9.099   7.545   9.136  2.0343  2.6452 -1.0375
  522MOL0     H70438   8.989   7.365   9.000 -2.9176 -1.6822 -3.6844
  522MOL0     H70439   8.943   7.491   8.877  0.2677 -0.8481 -0.9967
  522MOL0     H70440   9.200   7.519   8.830  1.1064 -0.4831  0.2763
  522MOL0     H70441   9.132   7.373   8.776  0.4362 -0.1110 -0.0447
  522MOL0     H70442   9.217   7.258   8.989  0.5272 -1.4093 -2.2333
  522MOL0     H70443   9.272   7.402   9.050 -0.4709  0.8811 -1.7428
  522MOL0     H70444   9.431   7.251   8.899 -2.8494 -2.5705 -0.9490
  522MOL0     H70445   9.362   7.356   8.773  3.0868  0.8410  0.1570
  522MOL0     H70446   9.593   7.414   8.924 -0.5437 -1.3887 -0.5333
  522MOL0     H70447   9.483   7.513   9.007  2.5036 -1.1092  1.2868
  522MOL0     H70448   9.524   7.520   8.705 -2.2254  2.0818 -1.9328
  522MOL0     H70449   9.410   7.630   8.780  1.2949  3.3862 -1.2759
  522MOL0     H70450   8.696   7.904   9.097  0.4435 -0.6531  0.7569
  522MOL0     H70451   8.467   7.933   9.201  5.3129  1.3011  1.7204
  522MOL0     H70452   8.081   7.606   9.371  0.3343 -0.4389  0.3243
  522MOL0     H70453   7.852   7.592   9.483 -1.2183 -0.1993 -1.2114
  522MOL0     H70454   5.972   8.103   8.708 -0.1576  1.2760 -1.3120
  522MOL0     H70455   5.761   8.212   8.772 -0.8324  4.6635 -1.5695
  522MOL0     H70456   5.360   8.252   9.012  1.9368  0.2116  3.3096
  522MOL0     H70457   5.161   8.376   9.103  0.1266  1.2790  0.8622
  522MOL0     H70458   5.031   8.513   9.229 -1.1900 -1.6845 -1.0972
  522MOL0     H70459   4.990   8.558   9.070 -0.8341 -2.3005  2.3176
  522MOL0     H70460   4.967   8.745   9.298  1.0346  5.1428 -2.3551
  522MOL0     H70461   4.837   8.635   9.229 -0.8848 -0.8183 -2.6345
  522MOL0     H70462   4.904   8.763   8.998  0.4980 -2.0601  1.1230
  522MOL0     H70463   4.988   8.872   9.119  0.5085 -1.0924  0.4600
  522MOL0     H70464   4.700   8.787   9.076  1.6972  0.2689 -5.1226
  522MOL0     H70465   4.747   8.914   9.206  0.1997 -0.1564 -0.3807
  522MOL0     H70466   4.738   9.104   8.817 -0.6196 -0.0835  0.5395
  522MOL0     H70467   5.384   8.736   9.073 -2.1180  0.4865  0.0380
  522MOL0     H70468   5.595   8.737   8.973 -1.8012 -0.1710  1.7461
  522MOL0     H70469   5.681   8.625   9.085 -0.7011  0.4939  0.8072
  522MOL0     H70470   5.680   8.596   8.916 -0.0682  0.5739 -0.0401
  523MOL0     O70471   2.095   4.377   2.943  0.4839 -0.7547 -0.3169
  523MOL0     C70472   1.982   4.413   2.984 -0.3990  0.4046 -0.3356
  523MOL0     O70473   1.877   4.433   2.905  0.0162 -0.4624  0.6325
  523MOL0     C70474   1.872   4.420   2.768 -0.7016  0.3912  1.0060
  523MOL0     C70475   1.759   4.368   2.708 -0.2869  0.0870 -0.4789
  523MOL0     C70476   1.750   4.365   2.566 -0.5045 -0.1446  0.5670
  523MOL0     C70477   1.860   4.396   2.490 -0.0491  0.4067  0.9890
  523MOL0     O70478   1.836   4.372   2.353  0.2592 -0.0836 -0.1354
  523MOL0     C70479   1.872   4.473   2.264  0.5847  0.1759  0.0918
  523MOL0     C70480   1.800   4.450   2.134 -0.2164 -0.0456 -0.0003
  523MOL0     C70481   1.656   4.504   2.145 -1.0250  0.1186  0.3375
  523MOL0     C70482   1.628   4.654   2.105 -1.5334  0.5897 -0.0830
  523MOL0     C70483   1.481   4.704   2.083  0.4435 -0.0880 -0.7077
  523MOL0     C70484   1.397   4.624   1.979 -0.2199  0.4794 -1.7569
  523MOL0     C70485   1.258   4.692   1.965  1.0430  0.6292  0.5754
  523MOL0     C70486   1.184   4.667   1.831 -0.5193  0.0579  0.2761
  523MOL0     N70487   1.140   4.523   1.820  2.1501 -0.2086 -0.4267
  523MOL0     C70488   1.210   4.418   1.766  0.5998  0.3475 -0.8384
  523MOL0     C70489   1.106   4.322   1.755 -0.2457  0.8414 -0.2434
  523MOL0     C70490   1.116   4.192   1.706 -0.6277  0.6807  0.4886
  523MOL0     C70491   1.117   4.087   1.823  0.2845  0.1575  0.5598
  523MOL0     C70492   0.989   4.070   1.899 -0.1151  0.2506 -0.4401
  523MOL0     C70493   0.975   3.938   1.979  1.5443  0.4179  0.4817
  523MOL0     O70494   1.072   3.947   2.087 -0.0973  1.2498  0.5416
  523MOL0     C70495   1.058   3.847   2.175 -1.0332 -0.9560 -0.2260
  523MOL0     C70496   1.067   3.885   2.315  0.1697  0.1483  0.6969
  523MOL0     C70497   1.061   3.784   2.420  0.3997  0.0759  0.4291
  523MOL0     C70498   1.048   3.648   2.387  0.1245 -0.7251 -0.3636
  523MOL0     C70499   1.049   3.538   2.483  1.1021  0.4005 -1.0233
  523MOL0     O70500   1.099   3.410   2.455  0.7998  0.2359  0.7120
  523MOL0     C70501   1.119   3.325   2.563  0.0757 -0.2131  1.0201
  523MOL0     C70502   1.168   3.360   2.693 -0.2419 -0.1591 -0.4281
  523MOL0     C70503   1.192   3.258   2.790  0.9646  0.4046 -1.0234
  523MOL0     C70504   1.171   3.119   2.761 -0.7679  0.1508 -0.4915
  523MOL0     O70505   1.187   3.005   2.837  0.3667 -0.1592 -0.5108
  523MOL0     C70506   1.251   2.888   2.790  0.2954  0.7320 -0.1273
  523MOL0     C70507   1.335   2.840   2.907 -1.1034 -0.3402  0.0260
  523MOL0     C70508   1.452   2.941   2.935  0.2779  0.2721  0.0675
  523MOL0     C70509   1.546   2.984   2.815 -0.1388 -0.1582 -0.5504
  523MOL0     C70510   1.697   3.026   2.845 -0.0910  0.1280 -0.5525
  523MOL0     C70511   1.776   2.913   2.915  0.4933 -0.7771 -0.1416
  523MOL0     C70512   1.799   2.794   2.821 -0.8255  0.6162  0.8264
  523MOL0     C70513   1.917   2.698   2.866  0.8714  0.0208 -0.2237
  523MOL0    Cl70514   2.070   2.792   2.891  0.1839  0.2126 -0.1734
  523MOL0     C70515   1.126   3.091   2.629 -0.4091  0.4531 -0.3566
  523MOL0     C70516   1.093   3.192   2.535 -0.2803 -0.9209  0.6572
  523MOL0     O70517   0.996   3.571   2.595 -0.8673  0.6537  0.6882
  523MOL0     C70518   1.035   3.625   2.252 -0.1926  0.7767  0.0556
  523MOL0     C70519   1.036   3.711   2.152 -0.5965 -0.4917  0.0628
  523MOL0     N70520   0.988   4.382   1.800 -0.0291  0.0314 -0.3485
  523MOL0     N70521   1.014   4.492   1.856  0.1600 -0.3008  0.4457
  523MOL0     C70522   1.977   4.454   2.543  1.0743  0.5449 -0.1494
  523MOL0     C70523   1.988   4.458   2.682 -0.1981 -0.2793 -0.8195
  523MOL0     C70524   1.955   4.397   3.132  0.8873 -0.3388  0.1203
  523MOL0     C70525   1.842   4.335   3.192 -0.2707  0.7577  0.4373
  523MOL0     C70526   1.805   4.345   3.324 -0.1422 -0.1709  0.2698
  523MOL0     C70527   1.892   4.397   3.412 -0.3616 -0.9838  0.3131
  523MOL0     O70528   1.880   4.402   3.550 -0.2204  0.0045 -0.1839
  523MOL0     C70529   1.804   4.302   3.620 -0.5747 -0.3107  0.0755
  523MOL0     C70530   1.868   4.168   3.589 -1.0979  0.0639  0.1175
  523MOL0     C70531   2.021   4.160   3.620 -0.0869  0.2092 -0.3236
  523MOL0     C70532   2.079   4.016   3.614  0.1541 -0.2942 -0.5001
  523MOL0     C70533   2.020   3.924   3.715  1.4657  0.2690  0.5939
  523MOL0     C70534   1.975   3.844   3.795 -0.3018  1.3362 -0.0281
  523MOL0     C70535   2.000   4.468   3.364  0.3160  0.3857 -0.8288
  523MOL0     C70536   2.039   4.468   3.222  0.3047 -0.0125  0.2112
  523MOL0     C70537   2.149   4.556   3.185 -1.2245  0.0945 -0.7610
  523MOL0     H70538   1.678   4.330   2.768 -1.1342  1.1553 -0.9282
  523MOL0     H70539   1.664   4.326   2.513  1.6848 -0.9017 -2.6756
  523MOL0     H70540   1.846   4.575   2.296  2.1058  1.4528 -2.3854
  523MOL0     H70541   1.979   4.454   2.252  0.2933 -1.1691 -0.5164
  523MOL0     H70542   1.790   4.343   2.114 -0.1971 -0.1830  0.6799
  523MOL0     H70543   1.853   4.501   2.053  0.8259 -2.0255 -0.6210
  523MOL0     H70544   1.624   4.492   2.249 -1.0465  2.0731  0.5938
  523MOL0     H70545   1.583   4.449   2.085 -1.0247  1.0240 -0.5349
  523MOL0     H70546   1.673   4.712   2.186 -0.0190  1.8534 -1.7364
  523MOL0     H70547   1.673   4.667   2.006 -1.6742 -0.8011 -0.3542
  523MOL0     H70548   1.424   4.721   2.175  1.2993  5.1182 -0.8355
  523MOL0     H70549   1.476   4.806   2.044 -2.5881  0.5618  1.0390
  523MOL0     H70550   1.443   4.611   1.881  0.5866 -2.8262 -1.0611
  523MOL0     H70551   1.394   4.525   2.024  1.7073  0.2846 -1.9847
  523MOL0     H70552   1.262   4.799   1.989  2.2297  1.1375 -1.6435
  523MOL0     H70553   1.189   4.646   2.036 -1.3083 -0.4721 -2.1954
  523MOL0     H70554   1.096   4.730   1.818 -0.2902  0.3422  0.0898
  523MOL0     H70555   1.242   4.695   1.742 -0.0794  0.8742  0.8095
  523MOL0     H70556   1.317   4.425   1.752  0.6477  5.6562 -0.0796
  523MOL0     H70557   1.033   4.174   1.637 -0.5184 -2.4004  1.0145
  523MOL0     H70558   1.202   4.181   1.640 -0.9189  3.1649 -0.4247
  523MOL0     H70559   1.147   3.992   1.778  1.6351  0.0110  1.6861
  523MOL0     H70560   1.195   4.112   1.896  1.8513  2.2918 -1.6902
  523MOL0     H70561   0.893   4.085   1.849 -1.1274 -1.2644  0.9692
  523MOL0     H70562   0.996   4.141   1.981  2.7448 -3.7278  3.1934
  523MOL0     H70563   0.983   3.850   1.916  0.4636 -0.9527  2.1590
  523MOL0     H70564   0.871   3.933   2.012  1.0986  0.9911 -0.8106
  523MOL0     H70565   1.078   3.991   2.332 -2.3047  0.1483  2.9497
  523MOL0     H70566   1.054   3.825   2.520  2.0985 -0.6931  0.9098
  523MOL0     H70567   1.185   3.467   2.700  1.1878 -0.3790 -0.0972
  523MOL0     H70568   1.229   3.283   2.889  2.7769 -1.8778 -1.0445
  523MOL0     H70569   1.181   2.808   2.762  2.5144 -2.2416  2.0729
  523MOL0     H70570   1.307   2.913   2.700  2.4925 -4.3229 -0.5534
  523MOL0     H70571   1.281   2.833   3.002  0.7332 -0.4493  1.1273
  523MOL0     H70572   1.371   2.742   2.877 -2.5374 -0.6304 -0.7910
  523MOL0     H70573   1.401   3.024   2.985  2.3389  2.3668 -1.0852
  523MOL0     H70574   1.525   2.894   3.001  1.6505  2.0075 -0.1508
  523MOL0     H70575   1.489   3.070   2.778  2.6549  1.1211 -2.1803
  523MOL0     H70576   1.542   2.901   2.745 -4.5335 -0.9266  0.2915
  523MOL0     H70577   1.701   3.114   2.911  3.1935  1.0366 -1.7697
  523MOL0     H70578   1.746   3.058   2.752  1.5300 -0.5900  0.0134
  523MOL0     H70579   1.869   2.968   2.936 -0.2830  1.4846 -2.2704
  523MOL0     H70580   1.744   2.862   3.007 -3.2574  2.0209  0.3057
  523MOL0     H70581   1.807   2.833   2.719  1.4198 -0.1803  0.6400
  523MOL0     H70582   1.710   2.733   2.807  0.5522 -1.1309 -0.9028
  523MOL0     H70583   1.901   2.640   2.957  1.6554  1.1104  0.6262
  523MOL0     H70584   1.942   2.633   2.781  1.5605  1.4020 -1.1225
  523MOL0     H70585   1.106   2.987   2.604  0.6412  0.9005 -3.5463
  523MOL0     H70586   1.032   3.173   2.448  0.4202  3.6027 -1.0987
  523MOL0     H70587   1.041   3.521   2.224 -0.5787  0.1588  2.1418
  523MOL0     H70588   1.024   3.666   2.053 -0.6367 -0.7150  0.1687
  523MOL0     H70589   2.063   4.475   2.479 -0.3089  1.7674 -1.7150
  523MOL0     H70590   2.073   4.503   2.732 -1.4046  2.8595 -1.2877
  523MOL0     H70591   1.776   4.276   3.129 -0.0627 -1.0045  1.7815
  523MOL0     H70592   1.706   4.308   3.348 -1.0491  0.2735 -2.5371
  523MOL0     H70593   1.699   4.293   3.587 -0.4858 -0.8527 -0.0750
  523MOL0     H70594   1.811   4.325   3.726  2.5637 -0.4103 -0.0263
  523MOL0     H70595   1.840   4.152   3.484 -1.3902 -0.6124  0.2955
  523MOL0     H70596   1.821   4.085   3.643 -1.2705  0.8949  1.2778
  523MOL0     H70597   2.053   4.206   3.714  3.4761  1.9555 -2.1972
  523MOL0     H70598   2.068   4.220   3.541  0.2112  0.8101  0.3047
  523MOL0     H70599   2.071   3.971   3.515  1.7772  0.3165 -0.9453
  523MOL0     H70600   2.187   4.017   3.634 -0.3428 -0.1356  2.8813
  523MOL0     H70601   1.939   3.769   3.863  0.6015  0.6756 -0.2658
  523MOL0     H70602   2.053   4.526   3.439 -3.3634 -2.3099  4.5363
  523MOL0     H70603   2.123   4.625   3.104  2.1492  0.0522 -2.0234
  523MOL0     H70604   2.180   4.621   3.267 -4.6949 -0.3177  1.0802
  523MOL0     H70605   2.234   4.496   3.151  0.9559  2.8077 -0.4881
  524MOL0     O70606   7.221   8.566  10.630 -0.5773  0.1298 -0.1651
  524MOL0     C70607   7.278   8.589  10.740 -0.3223 -0.3185 -0.9319
  524MOL0     O70608   7.227   8.670  10.838 -0.0740  0.3768 -0.0407
  524MOL0     C70609   7.099   8.722  10.828  0.1507 -0.7032 -0.6789
  524MOL0     C70610   6.988   8.681  10.911 -0.6812 -0.1924  0.5760
  524MOL0     C70611   6.856   8.718  10.891  0.8393  1.0471  1.2122
  524MOL0     C70612   6.834   8.807  10.785  0.2130 -1.1763 -1.4783
  524MOL0     O70613   6.694   8.836  10.781 -0.0407  0.1679 -0.2803
  524MOL0     C70614   6.650   8.943  10.689 -0.4264 -0.4091 -0.0797
  524MOL0     C70615   6.512   8.989  10.721 -0.3549  0.1468 -0.2810
  524MOL0     C70616   6.508   9.103  10.823  0.9124  0.6196  0.3966
  524MOL0     C70617   6.377   9.115  10.907 -0.2150  0.3384  0.8540
  524MOL0     C70618   6.386   9.227  11.019 -0.1881 -0.4177  0.7653
  524MOL0     C70619   6.244   9.231  11.086 -0.6118 -0.3549 -0.0417
  524MOL0     C70620   6.259   9.309  11.220 -1.1772 -0.5180 -0.2300
  524MOL0     C70621   6.128   9.309  11.300  0.1390  0.6127 -0.9256
  524MOL0     N70622   6.029   9.398  11.243  0.7305 -0.0320 -0.1385
  524MOL0     C70623   5.960   9.393  11.123 -1.1068 -0.6646 -0.5266
  524MOL0     C70624   5.882   9.510  11.123  0.5983 -0.2266 -0.1761
  524MOL0     C70625   5.779   9.539  11.021 -0.1276 -0.2015  0.5200
  524MOL0     C70626   5.834   9.649  10.931 -0.3994 -0.0427  0.1541
  524MOL0     C70627   5.853   9.782  10.997 -0.8166  0.7881  0.2385
  524MOL0     C70628   5.730   9.863  11.035 -0.2600 -0.4130 -0.5435
  524MOL0     O70629   5.725   9.989  10.960  0.4715 -0.2449  0.7129
  524MOL0     C70630   5.630  10.083  10.988  0.1233 -0.2569  0.3185
  524MOL0     C70631   5.516  10.065  11.064 -0.4529  0.4889  0.4024
  524MOL0     C70632   5.430  10.172  11.104 -0.8290  0.5522  0.4300
  524MOL0     C70633   5.440  10.297  11.046  0.0511 -0.0635  0.5751
  524MOL0     C70634   5.349  10.411  11.071  0.2482  0.5028  0.4565
  524MOL0     O70635   5.258  10.397  11.175  0.0596  0.4324 -0.2723
  524MOL0     C70636   5.227  10.504  11.249 -0.4366 -0.4575  0.0814
  524MOL0     C70637   5.096  10.510  11.295 -0.4417  0.3834 -0.8225
  524MOL0     C70638   5.063  10.607  11.395  0.4266 -1.0236  0.6148
  524MOL0     C70639   5.156  10.698  11.438  0.0912  0.3488 -0.4538
  524MOL0     O70640   5.103  10.785  11.534 -0.6585  0.5162  0.0652
  524MOL0     C70641   5.181  10.894  11.595  0.3350 -0.1785  0.5845
  524MOL0     C70642   5.076  10.985  11.668 -0.5392  0.1519 -0.1900
  524MOL0     C70643   5.141  11.115  11.719  0.0209  0.2831 -0.1817
  524MOL0     C70644   5.063  11.174  11.836  0.2715  0.1406 -0.4150
  524MOL0     C70645   5.076  11.095  11.968 -0.4510  0.5280 -1.0011
  524MOL0     C70646   5.027  11.174  12.086  0.9216  0.1223 -0.5323
  524MOL0     C70647   5.021  11.098  12.218 -0.4274  0.5960 -0.3077
  524MOL0     C70648   5.124  10.995  12.243  0.1552  0.0573 -1.3359
  524MOL0    Cl70649   5.101  10.931  12.402 -0.0180 -0.3224  0.2066
  524MOL0     C70650   5.286  10.697  11.388  0.6557 -0.3358  1.0526
  524MOL0     C70651   5.314  10.600  11.300  0.0377  0.7927  0.1563
  524MOL0     O70652   5.351  10.511  11.000 -0.0373  0.0703 -0.6565
  524MOL0     C70653   5.549  10.315  10.957  0.0499 -0.4160  1.4112
  524MOL0     C70654   5.638  10.208  10.926  0.1200 -0.3736  0.5597
  524MOL0     N70655   5.910   9.570  11.249  1.1166 -0.0305 -0.1210
  524MOL0     N70656   6.001   9.516  11.311 -0.0841  0.0231 -0.3800
  524MOL0     C70657   6.940   8.852  10.703  0.7059 -0.0788  0.4497
  524MOL0     C70658   7.078   8.819  10.723  1.4247 -0.2680  0.4880
  524MOL0     C70659   7.419   8.533  10.774  0.4999 -0.1565 -1.0121
  524MOL0     C70660   7.442   8.503  10.913 -0.0388  0.3492  0.0416
  524MOL0     C70661   7.572   8.454  10.966  1.2812 -0.4100  0.3062
  524MOL0     C70662   7.672   8.426  10.876 -0.6535 -0.7428  0.0320
  524MOL0     O70663   7.795   8.385  10.910  0.5194  0.0415  0.2882
  524MOL0     C70664   7.817   8.352  11.046 -0.7724  0.2225 -0.8418
  524MOL0     C70665   7.956   8.300  11.071 -0.0675 -0.4766  0.3265
  524MOL0     C70666   7.976   8.244  11.211  0.1760  0.3378  0.2706
  524MOL0     C70667   8.089   8.144  11.213 -0.5888 -0.0859 -0.3539
  524MOL0     C70668   8.078   8.042  11.324  0.8534  0.8581  0.6652
  524MOL0     C70669   8.068   7.946  11.399  0.3723  0.2421  0.0526
  524MOL0     C70670   7.649   8.449  10.740  1.0120  0.7941  0.3221
  524MOL0     C70671   7.532   8.517  10.687  0.0599 -0.1460 -0.4680
  524MOL0     C70672   7.535   8.578  10.545 -0.3726  0.8774 -0.7341
  524MOL0     H70673   7.026   8.611  10.985  2.3978  2.2565  1.5522
  524MOL0     H70674   6.775   8.689  10.958  0.6753 -1.5617 -0.0252
  524MOL0     H70675   6.708   9.035  10.686 -1.9072  0.6864  1.9041
  524MOL0     H70676   6.646   8.908  10.586 -2.4510 -0.9678  0.1283
  524MOL0     H70677   6.470   8.892  10.750 -0.0294  0.0518 -0.1219
  524MOL0     H70678   6.469   9.034  10.631  0.9795  0.7108 -0.6481
  524MOL0     H70679   6.527   9.190  10.760  4.2254  0.1076  0.4939
  524MOL0     H70680   6.586   9.086  10.898 -1.1244 -4.5860  1.8186
  524MOL0     H70681   6.301   9.145  10.835  1.0395  1.5966  0.0064
  524MOL0     H70682   6.353   9.020  10.955  1.3631 -0.1586  0.7114
  524MOL0     H70683   6.470   9.208  11.086  0.4444  2.4295  0.8978
  524MOL0     H70684   6.388   9.326  10.973  1.6258 -0.1808  1.2915
  524MOL0     H70685   6.169   9.274  11.019 -0.6856  0.3542  0.4799
  524MOL0     H70686   6.208   9.133  11.115 -2.6781  0.3527 -0.0888
  524MOL0     H70687   6.290   9.411  11.199  3.5454 -1.3729  1.2816
  524MOL0     H70688   6.337   9.262  11.281  0.7444  1.6418 -0.8957
  524MOL0     H70689   6.090   9.207  11.296 -0.9128  1.0233 -2.9281
  524MOL0     H70690   6.136   9.342  11.404 -1.3395  2.6232 -1.3855
  524MOL0     H70691   5.960   9.319  11.044  1.8514 -1.8484  0.4338
  524MOL0     H70692   5.768   9.442  10.972 -0.6462  0.0159  0.1938
  524MOL0     H70693   5.676   9.557  11.054 -0.3137 -2.8611  1.6314
  524MOL0     H70694   5.928   9.606  10.895  0.9592  1.5296  1.6139
  524MOL0     H70695   5.765   9.654  10.847 -0.1037 -0.3458 -0.1083
  524MOL0     H70696   5.925   9.837  10.935  1.1708 -0.6061  1.1745
  524MOL0     H70697   5.898   9.764  11.095 -2.6153 -1.1808  0.7707
  524MOL0     H70698   5.721   9.882  11.143 -1.2385 -2.5630 -0.1986
  524MOL0     H70699   5.638   9.807  11.016 -1.4471  1.2680  0.0390
  524MOL0     H70700   5.500   9.968  11.109  0.4946 -0.7629 -1.8390
  524MOL0     H70701   5.349  10.157  11.175 -2.5004  0.8802 -1.3387
  524MOL0     H70702   5.036  10.428  11.258  0.9814 -1.2815  0.3659
  524MOL0     H70703   4.967  10.630  11.440  0.7105  3.3591 -0.6018
  524MOL0     H70704   5.269  10.858  11.650 -0.2337  0.1270  1.7287
  524MOL0     H70705   5.237  10.943  11.515 -0.7121 -0.4948 -0.3725
  524MOL0     H70706   4.999  11.008  11.593  1.2024 -0.6769 -2.3484
  524MOL0     H70707   5.028  10.925  11.746  1.5386  1.6313  2.3812
  524MOL0     H70708   5.243  11.091  11.750 -0.3802  2.2934  3.1390
  524MOL0     H70709   5.158  11.180  11.632  1.6613 -3.9858 -3.4724
  524MOL0     H70710   4.955  11.185  11.820 -0.1693  0.6433  2.4741
  524MOL0     H70711   5.098  11.276  11.856  1.7785 -0.8869  2.7599
  524MOL0     H70712   5.183  11.077  11.980 -1.0149 -1.9132  1.2091
  524MOL0     H70713   5.014  11.005  11.968  1.0464 -0.8162  3.9034
  524MOL0     H70714   5.089  11.262  12.105  3.9108 -2.2830  2.0992
  524MOL0     H70715   4.928  11.215  12.063 -0.1405 -2.4718 -0.9309
  524MOL0     H70716   4.929  11.038  12.220 -1.6398  1.8429 -5.0145
  524MOL0     H70717   5.034  11.174  12.295  1.1221  0.7026 -0.6436
  524MOL0     H70718   5.110  10.912  12.172 -0.6980  1.1828 -2.5319
  524MOL0     H70719   5.222  11.041  12.228  0.0981  0.4348 -0.5634
  524MOL0     H70720   5.367  10.760  11.423 -0.6638  1.4759  1.0116
  524MOL0     H70721   5.419  10.593  11.275  0.2195  0.5000  0.9917
  524MOL0     H70722   5.564  10.396  10.887 -0.4682 -0.6595  1.0036
  524MOL0     H70723   5.719  10.237  10.860  0.8001  0.6512  1.8030
  524MOL0     H70724   6.891   8.912  10.627 -0.7996 -1.0011  0.6401
  524MOL0     H70725   7.161   8.849  10.660 -0.0371  2.7001 -0.2361
  524MOL0     H70726   7.360   8.516  10.983 -1.2070 -0.5324 -1.1100
  524MOL0     H70727   7.588   8.448  11.073 -0.6532 -0.2785  0.6275
  524MOL0     H70728   7.751   8.272  11.080  2.0970 -0.1330  5.1909
  524MOL0     H70729   7.802   8.435  11.115  2.9355 -1.7907  2.8352
  524MOL0     H70730   8.019   8.389  11.057 -2.4109  1.4503  1.3856
  524MOL0     H70731   7.975   8.226  10.993 -0.2430  1.0242 -1.1850
  524MOL0     H70732   7.881   8.200  11.243  0.1125  0.2275 -0.0588
  524MOL0     H70733   8.006   8.329  11.273  0.2385  0.6069 -0.1246
  524MOL0     H70734   8.088   8.083  11.122 -0.6000  1.3287 -1.3457
  524MOL0     H70735   8.190   8.186  11.217 -1.2333  1.4582  1.2593
  524MOL0     H70736   8.044   7.860  11.459  2.5049 -1.0717 -0.8782
  524MOL0     H70737   7.723   8.433  10.662  2.1532  1.3859  1.2490
  524MOL0     H70738   7.542   8.496  10.473  1.0606 -1.0299  1.4006
  524MOL0     H70739   7.458   8.649  10.514  1.5265  1.9245 -3.3297
  524MOL0     H70740   7.627   8.635  10.530 -0.6333  2.6671  3.1087
  525MOL0     O70741  10.876   5.191   2.566  0.0238  0.0132 -0.3030
  525MOL0     C70742  10.837   5.108   2.495  0.1809 -0.3164  0.9823
  525MOL0     O70743  10.838   4.974   2.514  0.6825 -0.3378 -1.2028
  525MOL0     C70744  10.902   4.913   2.620 -0.1061  0.5054  0.2761
  525MOL0     C70745  10.976   4.976   2.729  0.6780 -0.7715 -0.0507
  525MOL0     C70746  11.059   4.900   2.810  0.0376  0.6345 -0.4384
  525MOL0     C70747  11.061   4.762   2.804  0.7257  0.6114 -0.0278
  525MOL0     O70748  11.140   4.674   2.880  0.3185 -0.8240  0.2123
  525MOL0     C70749  11.209   4.727   2.991  0.2899  0.4471  1.1839
  525MOL0     C70750  11.330   4.625   3.026 -0.9389  0.0904  0.6945
  525MOL0     C70751  11.290   4.480   3.032 -0.5421  0.0657  0.6433
  525MOL0     C70752  11.356   4.407   3.150 -0.6840  0.7032  0.1597
  525MOL0     C70753  11.287   4.271   3.186 -0.3240 -0.6957 -0.3221
  525MOL0     C70754  11.353   4.218   3.307 -0.2432  0.0427 -0.5557
  525MOL0     C70755  11.318   4.080   3.336 -0.1905  0.4852 -0.2380
  525MOL0     C70756  11.438   3.987   3.380  0.8009  0.0459 -0.5479
  525MOL0     N70757  11.513   3.927   3.274 -0.7283 -0.9120 -1.0423
  525MOL0     C70758  11.466   3.886   3.157 -0.3824 -0.0919  0.3894
  525MOL0     C70759  11.580   3.864   3.091 -0.1995  0.3340 -0.4420
  525MOL0     C70760  11.598   3.810   2.944 -0.2200 -0.8896 -0.3008
  525MOL0     C70761  11.720   3.721   2.908  0.1568  0.5803  0.6891
  525MOL0     C70762  11.698   3.575   2.934  0.5309  0.5714 -0.8711
  525MOL0     C70763  11.597   3.492   2.856 -0.0388  0.5351 -0.5941
  525MOL0     O70764  11.566   3.365   2.923 -0.0918  0.0285 -0.5450
  525MOL0     C70765  11.497   3.368   3.039  0.0192  1.2727 -0.9503
  525MOL0     C70766  11.376   3.441   3.065  0.2660  0.1457  0.1966
  525MOL0     C70767  11.322   3.434   3.196  0.1390  0.7257  0.8781
  525MOL0     C70768  11.381   3.363   3.301  0.5163  0.6619 -0.0852
  525MOL0     C70769  11.323   3.344   3.437  0.0145 -0.2116 -0.2700
  525MOL0     O70770  11.198   3.403   3.451 -0.7668 -0.1305 -0.5315
  525MOL0     C70771  11.143   3.401   3.576  0.4949 -0.1528  0.2573
  525MOL0     C70772  11.156   3.504   3.666 -0.3350 -0.0037 -1.5427
  525MOL0     C70773  11.095   3.492   3.790 -0.0065  1.0368  0.4823
  525MOL0     C70774  11.041   3.374   3.832 -0.6358  0.4563  0.0882
  525MOL0     O70775  10.996   3.342   3.958  0.1165  0.0040  0.5535
  525MOL0     C70776  11.090   3.359   4.064  0.6887  0.2112  0.3418
  525MOL0     C70777  11.034   3.326   4.206 -0.5432  0.0359 -0.0432
  525MOL0     C70778  10.901   3.415   4.225 -0.4837 -0.0738 -0.9504
  525MOL0     C70779  10.812   3.354   4.335  0.2282  0.5522 -0.0261
  525MOL0     C70780  10.712   3.449   4.382  0.1807  0.2211 -0.9209
  525MOL0     C70781  10.637   3.382   4.499  0.5769 -0.3045 -1.5940
  525MOL0     C70782  10.508   3.453   4.531  0.2213 -0.2938 -0.2325
  525MOL0     C70783  10.406   3.368   4.620 -0.1205 -0.3644  0.2710
  525MOL0    Cl70784  10.466   3.340   4.794 -0.2984 -0.1817 -0.2623
  525MOL0     C70785  11.026   3.270   3.738 -1.2168 -0.4131 -0.1268
  525MOL0     C70786  11.082   3.283   3.612  0.3666  0.6029  0.2671
  525MOL0     O70787  11.380   3.277   3.527  0.0792 -0.3172  0.4910
  525MOL0     C70788  11.495   3.282   3.267 -0.4455  0.5871  0.1200
  525MOL0     C70789  11.548   3.284   3.135 -0.3914 -0.6482 -0.6694
  525MOL0     N70790  11.687   3.898   3.165  0.5142 -0.0898 -0.4292
  525MOL0     N70791  11.646   3.950   3.274 -0.1991  0.8561  0.4929
  525MOL0     C70792  10.973   4.702   2.707 -0.1619  0.3654 -0.6142
  525MOL0     C70793  10.897   4.776   2.620  0.7243  1.1842  0.1308
  525MOL0     C70794  10.808   5.163   2.354 -0.0759  0.4123 -0.3557
  525MOL0     C70795  10.747   5.073   2.265  0.6096 -0.9515  0.0929
  525MOL0     C70796  10.725   5.108   2.128 -0.0497  0.6707 -0.4384
  525MOL0     C70797  10.761   5.225   2.073  0.1293  0.2106 -0.5446
  525MOL0     O70798  10.723   5.239   1.946  0.0291 -0.3521 -0.1608
  525MOL0     C70799  10.747   5.369   1.882  0.4779  0.3495  0.3039
  525MOL0     C70800  10.895   5.386   1.837  0.2373 -0.5216 -0.9783
  525MOL0     C70801  10.905   5.501   1.739  0.0710 -0.0691 -0.2603
  525MOL0     C70802  11.054   5.515   1.705 -0.1984  0.3642  0.5305
  525MOL0     C70803  11.063   5.635   1.632 -0.2872 -0.0121 -0.5365
  525MOL0     C70804  11.080   5.735   1.558 -0.7021  0.9772  0.5493
  525MOL0     C70805  10.833   5.318   2.163 -0.5247  0.7957 -0.2777
  525MOL0     C70806  10.856   5.284   2.300 -0.2543  0.1023 -0.3200
  525MOL0     C70807  10.941   5.383   2.378  0.0605 -0.0667 -0.6496
  525MOL0     H70808  10.990   5.083   2.741 -1.8310 -0.4126  0.2636
  525MOL0     H70809  11.119   4.964   2.875 -3.3719  0.2284  3.5208
  525MOL0     H70810  11.251   4.827   2.980  2.1391 -0.4321 -0.4160
  525MOL0     H70811  11.144   4.736   3.079  1.8432 -0.0594  2.4266
  525MOL0     H70812  11.369   4.662   3.121 -1.0097 -0.9586  1.1460
  525MOL0     H70813  11.403   4.647   2.949 -1.6084 -0.2382 -0.0507
  525MOL0     H70814  11.309   4.442   2.931 -0.7558 -0.0716  0.6537
  525MOL0     H70815  11.183   4.482   3.054 -0.5349  1.8007  0.6287
  525MOL0     H70816  11.460   4.396   3.117 -0.5736  2.9281 -0.4470
  525MOL0     H70817  11.366   4.460   3.245  2.3121 -1.5984  1.2898
  525MOL0     H70818  11.182   4.270   3.217  0.0706  0.2991  1.1493
  525MOL0     H70819  11.299   4.201   3.103  1.6921  1.2047 -1.7438
  525MOL0     H70820  11.460   4.218   3.286  0.4869  2.3718  2.4015
  525MOL0     H70821  11.325   4.279   3.393 -2.6180 -2.2563  0.4178
  525MOL0     H70822  11.276   4.026   3.251  0.3477 -1.9116  0.9323
  525MOL0     H70823  11.246   4.072   3.418  0.8771  1.8672  0.8629
  525MOL0     H70824  11.510   4.055   3.426  2.0228 -0.7913 -1.1667
  525MOL0     H70825  11.402   3.926   3.464 -1.9540 -0.9575 -2.3461
  525MOL0     H70826  11.367   3.871   3.117 -1.4407  1.8076  2.1122
  525MOL0     H70827  11.510   3.752   2.917 -1.2779 -0.8963  2.7722
  525MOL0     H70828  11.608   3.899   2.882 -0.4625  0.4639  1.5350
  525MOL0     H70829  11.761   3.733   2.807  2.5719  0.4985  1.5762
  525MOL0     H70830  11.804   3.747   2.973  2.5847 -2.9831 -0.6649
  525MOL0     H70831  11.661   3.576   3.037  2.3803  2.8666 -0.1510
  525MOL0     H70832  11.798   3.533   2.921  0.4576  0.5233 -1.3061
  525MOL0     H70833  11.633   3.476   2.754  1.4466 -0.5203  0.0555
  525MOL0     H70834  11.514   3.563   2.845 -0.4780  0.5754  2.2433
  525MOL0     H70835  11.330   3.506   2.990  0.0098 -0.3586 -0.0879
  525MOL0     H70836  11.222   3.474   3.213 -0.2481 -0.6510  2.0241
  525MOL0     H70837  11.208   3.596   3.643  1.3375 -0.1254  1.3077
  525MOL0     H70838  11.096   3.579   3.855  0.7456  1.0549  0.4539
  525MOL0     H70839  11.175   3.293   4.045  1.8549  1.7089  0.2029
  525MOL0     H70840  11.127   3.461   4.060 -0.9564  0.8942  1.3666
  525MOL0     H70841  11.024   3.217   4.205 -0.7834  0.0526  0.5014
  525MOL0     H70842  11.118   3.350   4.272 -0.2807 -0.9213 -0.0131
  525MOL0     H70843  10.926   3.517   4.256  0.5319 -1.1984  2.4080
  525MOL0     H70844  10.849   3.427   4.130  0.0888  1.2248 -1.1225
  525MOL0     H70845  10.879   3.326   4.417  0.0204  0.1182  0.0003
  525MOL0     H70846  10.765   3.260   4.305 -1.3546  1.7696 -1.5253
  525MOL0     H70847  10.646   3.476   4.299  0.5761 -1.2446 -1.7585
  525MOL0     H70848  10.755   3.541   4.422 -0.3115  0.1493 -0.2004
  525MOL0     H70849  10.621   3.274   4.491 -0.8816 -0.5116  2.1299
  525MOL0     H70850  10.693   3.396   4.592  0.3073 -3.1358 -0.9107
  525MOL0     H70851  10.459   3.482   4.437 -0.0302 -1.6941 -0.5451
  525MOL0     H70852  10.526   3.552   4.575 -1.7832  1.0504 -2.1795
  525MOL0     H70853  10.309   3.415   4.603  0.3578  0.8395  0.8107
  525MOL0     H70854  10.397   3.267   4.579 -0.7308  0.0840 -0.7186
  525MOL0     H70855  10.977   3.182   3.776 -1.1778 -0.4191 -0.0906
  525MOL0     H70856  11.071   3.196   3.548  0.6088  0.0982  0.9052
  525MOL0     H70857  11.542   3.203   3.325 -1.6177 -2.2910 -2.5975
  525MOL0     H70858  11.636   3.227   3.106 -0.3433 -0.9816  0.1204
  525MOL0     H70859  10.956   4.596   2.698  3.7242 -0.2521 -3.2209
  525MOL0     H70860  10.818   4.724   2.566  0.9061  0.9261  0.1129
  525MOL0     H70861  10.711   4.981   2.310 -2.0585  0.0837  0.2792
  525MOL0     H70862  10.680   5.027   2.070 -0.2774 -0.4226  1.1817
  525MOL0     H70863  10.715   5.447   1.951  1.2322 -0.0933  1.1804
  525MOL0     H70864  10.680   5.375   1.795 -3.3855  0.1367  3.0082
  525MOL0     H70865  10.921   5.294   1.784 -2.6281 -1.3717 -1.0754
  525MOL0     H70866  10.964   5.390   1.923  0.2939 -1.8122 -0.9348
  525MOL0     H70867  10.855   5.582   1.792  0.9931  0.8020 -0.6749
  525MOL0     H70868  10.838   5.477   1.655  0.0969  0.1034 -0.3322
  525MOL0     H70869  11.115   5.506   1.796 -0.2720 -2.8551  0.3913
  525MOL0     H70870  11.091   5.432   1.644 -3.6635 -1.2314  0.3656
  525MOL0     H70871  11.065   5.802   1.476  0.0973  2.0471  1.2553
  525MOL0     H70872  10.865   5.412   2.120 -0.9426  0.1514 -2.1192
  525MOL0     H70873  11.019   5.333   2.437  0.3225  0.1628 -0.8057
  525MOL0     H70874  10.984   5.458   2.311  1.0986 -0.1575 -0.1107
  525MOL0     H70875  10.882   5.434   2.455 -0.1517  0.9168 -1.4562
  526MOL0     O70876  11.491   2.110   2.468  0.1346  0.3095 -0.3825
  526MOL0     C70877  11.581   2.175   2.528  0.7850 -0.0282 -1.5138
  526MOL0     O70878  11.676   2.130   2.605  0.3320  0.6019  0.0430
  526MOL0     C70879  11.705   1.997   2.598  0.0827 -1.1050  0.1616
  526MOL0     C70880  11.647   1.890   2.658 -0.5250  0.0932  0.7973
  526MOL0     C70881  11.691   1.757   2.632  0.4500 -0.6995  0.1703
  526MOL0     C70882  11.797   1.736   2.565  0.6075 -0.3219  0.1554
  526MOL0     O70883  11.830   1.606   2.558  0.2207  0.4505  0.4121
  526MOL0     C70884  11.909   1.560   2.447  1.0542 -1.0855 -0.6495
  526MOL0     C70885  11.946   1.408   2.471  1.0788  0.0032  0.1647
  526MOL0     C70886  11.811   1.330   2.463  0.6842  0.1738 -0.3774
  526MOL0     C70887  11.829   1.176   2.465  0.2357  0.5041  0.0851
  526MOL0     C70888  11.698   1.094   2.449  0.3586 -0.4383 -0.0522
  526MOL0     C70889  11.719   0.938   2.441  0.3409 -0.5562  0.0348
  526MOL0     C70890  11.603   0.863   2.385  0.1126 -0.3573  0.6396
  526MOL0     C70891  11.640   0.710   2.372 -0.4063  0.7209  0.0954
  526MOL0     N70892  11.541   0.619   2.311 -0.2437 -0.3846  0.0644
  526MOL0     C70893  11.411   0.650   2.293  0.0007  0.3848 -0.7611
  526MOL0     C70894  11.366   0.553   2.218  0.9846  0.7203  0.7221
  526MOL0     C70895  11.226   0.545   2.177 -0.0956 -0.0448  0.3659
  526MOL0     C70896  11.164   0.437   2.259  0.1606 -0.3577  0.2021
  526MOL0     C70897  11.030   0.389   2.196 -0.0503 -0.1716 -0.2674
  526MOL0     C70898  10.966   0.266   2.263  0.5522  0.5468 -0.4712
  526MOL0     O70899  10.901   0.303   2.391 -1.1296 -0.0569  0.9225
  526MOL0     C70900  10.775   0.362   2.405  0.2232 -0.1010  0.8473
  526MOL0     C70901  10.706   0.431   2.302  1.0773  1.0822 -0.2923
  526MOL0     C70902  10.593   0.513   2.331  0.1225  0.3752 -0.0253
  526MOL0     C70903  10.543   0.529   2.456 -0.1247  1.5417 -0.4712
  526MOL0     C70904  10.438   0.618   2.486 -0.2594 -0.1629 -0.9638
  526MOL0     O70905  10.391   0.628   2.613 -0.2682 -0.5533  0.4160
  526MOL0     C70906  10.274   0.697   2.625  1.1838 -0.5547  0.1766
  526MOL0     C70907  10.168   0.630   2.679  0.6289 -0.4978 -0.3166
  526MOL0     C70908  10.040   0.686   2.710 -0.2424  0.3807 -0.0314
  526MOL0     C70909  10.029   0.821   2.692  0.1521 -0.4477 -0.5092
  526MOL0     O70910   9.914   0.896   2.710 -0.1700 -0.2755 -0.4520
  526MOL0     C70911   9.782   0.847   2.740  0.5360  0.8339 -0.6290
  526MOL0     C70912   9.698   0.962   2.689  0.5056 -0.8793  0.0115
  526MOL0     C70913   9.695   0.995   2.527 -0.4849 -0.6291 -1.3307
  526MOL0     C70914   9.584   1.113   2.500 -0.2187  0.5015  0.1536
  526MOL0     C70915   9.617   1.225   2.406 -0.5437  0.2189  0.5540
  526MOL0     C70916   9.500   1.305   2.350 -0.7864 -0.5673  1.0142
  526MOL0     C70917   9.536   1.432   2.262  1.0371 -0.2353  0.4335
  526MOL0     C70918   9.413   1.486   2.184  0.2906 -1.1682  0.6847
  526MOL0    Cl70919   9.356   1.363   2.065  0.7238 -0.2537  0.0526
  526MOL0     C70920  10.124   0.893   2.625  0.4261  0.0556  1.2855
  526MOL0     C70921  10.252   0.836   2.596  1.2000  0.5295 -0.5327
  526MOL0     O70922  10.393   0.685   2.390  0.5640  0.2949  0.8144
  526MOL0     C70923  10.596   0.440   2.557 -0.2379 -0.3539  0.3748
  526MOL0     C70924  10.711   0.364   2.529 -0.1853 -0.1471 -0.8083
  526MOL0     N70925  11.464   0.472   2.187  0.6940  0.5695  0.5553
  526MOL0     N70926  11.570   0.506   2.245  0.2751 -0.9230  0.3358
  526MOL0     C70927  11.875   1.841   2.517 -0.3053 -0.5626 -0.1550
  526MOL0     C70928  11.820   1.970   2.522 -0.9345 -0.6428  0.5748
  526MOL0     C70929  11.573   2.322   2.520  0.5030 -0.1431  0.2711
  526MOL0     C70930  11.510   2.370   2.406  0.4405  0.6795  1.0030
  526MOL0     C70931  11.484   2.507   2.383  0.5616 -0.1566  0.3244
  526MOL0     C70932  11.503   2.596   2.484  0.7745  0.1630  0.0582
  526MOL0     O70933  11.452   2.722   2.476  0.1523 -0.2103  0.6067
  526MOL0     C70934  11.315   2.723   2.524  1.4628 -0.4949  0.1053
  526MOL0     C70935  11.299   2.854   2.598 -0.2148 -0.6931  0.4191
  526MOL0     C70936  11.344   2.849   2.746 -0.0320  0.3221  0.0592
  526MOL0     C70937  11.278   2.957   2.840  0.6560 -0.4367 -0.2789
  526MOL0     C70938  11.301   3.099   2.801  0.0660 -0.0896  0.0220
  526MOL0     C70939  11.304   3.222   2.786 -0.5013 -0.8383  0.5404
  526MOL0     C70940  11.562   2.554   2.600 -0.0593 -1.2092 -0.3854
  526MOL0     C70941  11.594   2.417   2.622  0.4112 -0.8650 -0.4751
  526MOL0     C70942  11.647   2.375   2.758  0.1088 -0.3386  0.4374
  526MOL0     H70943  11.562   1.921   2.719 -1.5938  0.1322 -0.6565
  526MOL0     H70944  11.628   1.675   2.663  0.1265 -1.1551 -1.5768
  526MOL0     H70945  11.858   1.575   2.352  0.0904 -1.0994 -0.1447
  526MOL0     H70946  12.000   1.614   2.420 -1.1979  2.8106 -1.0836
  526MOL0     H70947  11.995   1.389   2.567  2.7997 -2.6322 -1.1259
  526MOL0     H70948  12.003   1.369   2.386  2.7217  1.9223  0.2975
  526MOL0     H70949  11.755   1.349   2.371  0.8638 -1.0932 -0.7619
  526MOL0     H70950  11.742   1.360   2.542  2.2601  1.5363  0.5480
  526MOL0     H70951  11.897   1.145   2.385 -0.3822  3.1324 -1.5879
  526MOL0     H70952  11.882   1.161   2.559 -0.1467 -0.5510  0.1368
  526MOL0     H70953  11.621   1.116   2.523 -0.2040 -2.7735  0.1276
  526MOL0     H70954  11.667   1.134   2.352  1.2132 -0.1600 -0.2275
  526MOL0     H70955  11.803   0.932   2.371 -0.5843  0.9107 -1.2645
  526MOL0     H70956  11.735   0.899   2.542 -0.5084 -2.2738 -0.4705
  526MOL0     H70957  11.577   0.893   2.284  0.2354  0.1258  0.7517
  526MOL0     H70958  11.520   0.875   2.454  1.0562  2.9255  1.3469
  526MOL0     H70959  11.735   0.694   2.318  0.6012  1.3200  1.6249
  526MOL0     H70960  11.667   0.679   2.473  0.9868  2.8200  0.4239
  526MOL0     H70961  11.346   0.726   2.336 -0.8405 -0.2047 -0.9746
  526MOL0     H70962  11.173   0.639   2.197  0.8541  0.1357  2.2790
  526MOL0     H70963  11.235   0.516   2.072 -1.8263 -1.1419  0.4891
  526MOL0     H70964  11.232   0.351   2.265 -1.0508 -1.2642  2.1242
  526MOL0     H70965  11.149   0.488   2.355  2.0437  2.0238 -0.6850
  526MOL0     H70966  11.048   0.338   2.101 -0.8636 -0.8149 -0.0905
  526MOL0     H70967  10.954   0.467   2.184  1.1559  1.1216  0.2209
  526MOL0     H70968  11.044   0.193   2.285  1.7714  1.9501 -0.0136
  526MOL0     H70969  10.889   0.222   2.199  1.5999 -1.9411 -0.1179
  526MOL0     H70970  10.746   0.427   2.202  0.3990  5.3847 -0.9206
  526MOL0     H70971  10.566   0.580   2.249  3.5969  3.1337  0.8509
  526MOL0     H70972  10.178   0.527   2.714 -3.1913 -0.3880  1.7129
  526MOL0     H70973   9.958   0.622   2.742 -0.3138  0.0135 -0.9157
  526MOL0     H70974   9.758   0.756   2.685  0.9576 -0.7608  1.6842
  526MOL0     H70975   9.778   0.811   2.844 -1.2234 -3.5839 -1.9732
  526MOL0     H70976   9.595   0.964   2.726  0.5353 -0.2500  0.0820
  526MOL0     H70977   9.735   1.055   2.734  3.8309 -1.2460 -1.6788
  526MOL0     H70978   9.794   1.033   2.502  0.7828 -0.4777  3.0863
  526MOL0     H70979   9.671   0.897   2.483 -2.1453 -1.4663  1.2055
  526MOL0     H70980   9.561   1.170   2.590  0.2246  0.0167  0.5805
  526MOL0     H70981   9.490   1.073   2.463  0.3755 -1.0911  0.3075
  526MOL0     H70982   9.660   1.174   2.319 -2.2090  1.0340 -0.8063
  526MOL0     H70983   9.697   1.288   2.447  0.0882  0.6799 -1.2674
  526MOL0     H70984   9.441   1.236   2.289  0.3509 -0.9864  0.3669
  526MOL0     H70985   9.439   1.341   2.433 -1.1330  0.4937  0.3188
  526MOL0     H70986   9.612   1.401   2.190  1.4966  1.4757  0.1408
  526MOL0     H70987   9.572   1.511   2.329 -3.4280  0.8968  1.8644
  526MOL0     H70988   9.321   1.492   2.244 -0.5357 -2.7085 -0.3597
  526MOL0     H70989   9.426   1.584   2.137 -0.2348  0.2723  3.3381
  526MOL0     H70990  10.112   0.998   2.602  0.4975 -0.0145  0.9315
  526MOL0     H70991  10.325   0.913   2.570  2.9197  0.1135  2.5929
  526MOL0     H70992  10.566   0.441   2.661  3.0616 -0.5545  1.4458
  526MOL0     H70993  10.749   0.308   2.614 -1.3382 -0.3242 -0.3967
  526MOL0     H70994  11.979   1.848   2.487 -0.0676 -1.5655  0.4159
  526MOL0     H70995  11.878   2.057   2.491  1.0077 -1.7631  0.9191
  526MOL0     H70996  11.489   2.294   2.331 -0.5921 -0.8218  2.7225
  526MOL0     H70997  11.442   2.538   2.288  1.6405 -0.2185 -0.1826
  526MOL0     H70998  11.281   2.640   2.587  0.2691  1.6030  2.3932
  526MOL0     H70999  11.245   2.721   2.439  1.0971 -4.4769  0.3228
  526MOL0     H71000  11.191   2.873   2.600 -0.1483 -0.2947  0.3646
  526MOL0     H71001  11.356   2.931   2.544  1.3195 -0.9851  1.5470
  526MOL0     H71002  11.452   2.865   2.740 -0.4441  2.9814 -2.3087
  526MOL0     H71003  11.321   2.750   2.788 -1.2593 -0.3310 -1.9997
  526MOL0     H71004  11.172   2.935   2.855  0.8681 -2.9355 -1.8155
  526MOL0     H71005  11.337   2.944   2.931  0.2490  0.0766  0.0579
  526MOL0     H71006  11.291   3.325   2.761 -0.2937 -0.7762  0.6842
  526MOL0     H71007  11.566   2.617   2.689 -1.1590 -0.5994 -0.7512
  526MOL0     H71008  11.649   2.456   2.831 -2.9696  2.1832 -1.9665
  526MOL0     H71009  11.594   2.286   2.792 -1.2416 -1.6050 -4.2628
  526MOL0     H71010  11.753   2.349   2.748  0.5024  0.9560  0.9688
  527MOL0     O71011   5.348   8.946   7.345  0.3204  0.0496  0.5191
  527MOL0     C71012   5.251   8.914   7.276 -0.7435  0.4804 -0.2542
  527MOL0     O71013   5.127   8.887   7.324  0.1991 -0.2503 -0.3562
  527MOL0     C71014   5.100   8.868   7.457  0.1244 -1.2523  0.3368
  527MOL0     C71015   4.964   8.845   7.496  0.6131  0.2189  0.4085
  527MOL0     C71016   4.924   8.821   7.630  0.4613 -1.1997  0.4120
  527MOL0     C71017   5.012   8.826   7.734 -0.0982 -0.4047  0.3201
  527MOL0     O71018   4.986   8.799   7.866  0.3736 -0.3513  0.4779
  527MOL0     C71019   4.881   8.709   7.904  0.0045 -1.1159  0.1011
  527MOL0     C71020   4.767   8.780   7.984  0.0281 -0.5557  0.5555
  527MOL0     C71021   4.820   8.800   8.122  0.7717 -0.4262 -0.4292
  527MOL0     C71022   4.710   8.780   8.230  0.0345 -0.2970 -0.2986
  527MOL0     C71023   4.761   8.801   8.367  0.8317  0.3184  0.8683
  527MOL0     C71024   4.720   8.942   8.428 -0.6167  1.0965  1.4155
  527MOL0     C71025   4.829   9.044   8.388  0.0662 -0.1653  0.1620
  527MOL0     C71026   4.806   9.167   8.482  1.8411 -0.5437 -0.1486
  527MOL0     N71027   4.889   9.288   8.460  1.0427 -0.1980 -0.3927
  527MOL0     C71028   4.896   9.361   8.342  0.4308 -0.0220 -0.4793
  527MOL0     C71029   5.011   9.443   8.354 -0.6803 -0.1554  0.2593
  527MOL0     C71030   5.067   9.543   8.255 -0.2255 -0.4352  1.1069
  527MOL0     C71031   4.954   9.632   8.199 -0.2260 -0.3023 -0.5644
  527MOL0     C71032   4.871   9.691   8.312  0.8852 -0.3535 -0.0781
  527MOL0     C71033   4.814   9.829   8.282  0.7833 -0.3779  0.1104
  527MOL0     O71034   4.732   9.817   8.167  0.4132 -0.6617 -0.3229
  527MOL0     C71035   4.676   9.925   8.115 -0.6407 -0.5577  0.5104
  527MOL0     C71036   4.765  10.013   8.058  0.2934 -0.3999  0.6869
  527MOL0     C71037   4.726  10.123   7.991  0.3533 -0.2415 -0.3528
  527MOL0     C71038   4.589  10.161   7.975 -0.1378  0.1594  0.4927
  527MOL0     C71039   4.563  10.291   7.913 -0.0874 -0.2644 -0.1167
  527MOL0     O71040   4.684  10.360   7.876 -0.0143 -0.2773 -0.9524
  527MOL0     C71041   4.656  10.496   7.850  0.5825  0.9213  0.7269
  527MOL0     C71042   4.593  10.523   7.724  0.3299  0.1412  0.3062
  527MOL0     C71043   4.571  10.656   7.695 -0.4084  0.0232 -0.1681
  527MOL0     C71044   4.591  10.759   7.784 -0.4434 -0.4957 -0.5493
  527MOL0     O71045   4.551  10.885   7.744 -0.8260  0.1156  0.0078
  527MOL0     C71046   4.591  11.002   7.813 -0.0598 -0.5515 -0.0439
  527MOL0     C71047   4.474  11.039   7.909  0.0170 -0.8406 -0.9347
  527MOL0     C71048   4.524  11.111   8.038  0.1313 -0.4536  0.9066
  527MOL0     C71049   4.415  11.152   8.136  0.7103  0.0359  0.4241
  527MOL0     C71050   4.459  11.244   8.240  1.1008 -0.9279 -0.1884
  527MOL0     C71051   4.486  11.388   8.188  0.8960 -0.7531 -1.2661
  527MOL0     C71052   4.443  11.511   8.283 -0.1432 -0.3231  0.3882
  527MOL0     C71053   4.572  11.581   8.332 -0.0331  0.0504 -0.2390
  527MOL0    Cl71054   4.510  11.707   8.452 -0.0006 -0.3327 -0.0588
  527MOL0     C71055   4.664  10.726   7.911  0.3472 -0.5251  1.1383
  527MOL0     C71056   4.687  10.597   7.943  0.2658  0.7865 -0.3505
  527MOL0     O71057   4.452  10.337   7.915 -0.5443  0.4217  0.3570
  527MOL0     C71058   4.487  10.069   8.020 -0.2082 -0.4221  0.2078
  527MOL0     C71059   4.530   9.951   8.093 -0.1653  0.7337  0.2586
  527MOL0     N71060   5.068   9.407   8.470 -0.6100  0.1886 -0.6468
  527MOL0     N71061   5.005   9.311   8.533 -0.8216  0.6164  0.2707
  527MOL0     C71062   5.147   8.855   7.702 -0.2340 -0.0346 -0.2016
  527MOL0     C71063   5.187   8.888   7.566 -0.5568 -0.4015  0.5691
  527MOL0     C71064   5.264   8.915   7.128 -0.3367  0.5546 -0.3250
  527MOL0     C71065   5.388   8.960   7.068  0.0266  0.3571 -0.0738
  527MOL0     C71066   5.399   8.964   6.929 -0.3546 -0.1351 -0.5638
  527MOL0     C71067   5.300   8.911   6.842 -0.1664  0.6675  0.8740
  527MOL0     O71068   5.321   8.914   6.704 -0.4462 -0.0966  0.0245
  527MOL0     C71069   5.235   8.842   6.608  0.3414 -0.5785 -1.0631
  527MOL0     C71070   5.321   8.800   6.487 -0.7929  0.2034 -0.1003
  527MOL0     C71071   5.414   8.680   6.520 -0.6198  0.1215  0.9361
  527MOL0     C71072   5.494   8.640   6.391  0.2924 -1.5593 -0.6127
  527MOL0     C71073   5.417   8.622   6.273  0.5381 -0.2020  0.1413
  527MOL0     C71074   5.349   8.609   6.166  0.3487 -1.0351  0.4143
  527MOL0     C71075   5.178   8.874   6.903  1.0854  0.0411 -0.6776
  527MOL0     C71076   5.164   8.865   7.041  0.5008  0.3813  0.6101
  527MOL0     C71077   5.034   8.803   7.087  0.1331 -0.1824 -0.3496
  527MOL0     H71078   4.895   8.854   7.414  1.0367  2.8246  0.2483
  527MOL0     H71079   4.820   8.794   7.649  0.4379 -1.6891 -0.3781
  527MOL0     H71080   4.829   8.671   7.815 -4.4138  2.7034  0.6722
  527MOL0     H71081   4.921   8.631   7.970 -0.4835 -0.4660  1.2014
  527MOL0     H71082   4.667   8.735   7.979 -1.1268  1.8506  0.1839
  527MOL0     H71083   4.760   8.876   7.931  2.2504  0.5023  2.0586
  527MOL0     H71084   4.848   8.904   8.140 -3.0182  0.8510 -0.9274
  527MOL0     H71085   4.905   8.733   8.137  2.0543  0.6601 -2.4535
  527MOL0     H71086   4.621   8.843   8.219  1.2116  1.9017  1.7968
  527MOL0     H71087   4.682   8.675   8.232 -2.5719  0.3441  0.7966
  527MOL0     H71088   4.695   8.736   8.424  0.1174  0.6672  0.4537
  527MOL0     H71089   4.865   8.773   8.387  1.2321  1.5445  0.6122
  527MOL0     H71090   4.617   8.966   8.401 -1.2896 -1.4377  1.4130
  527MOL0     H71091   4.726   8.926   8.536 -0.0252  0.8065  1.3422
  527MOL0     H71092   4.813   9.077   8.285 -0.6246 -1.3917 -0.1497
  527MOL0     H71093   4.932   9.010   8.402 -0.2397 -0.5507  1.6347
  527MOL0     H71094   4.703   9.206   8.484  2.5405  1.4908 -0.9091
  527MOL0     H71095   4.823   9.126   8.582 -2.5662 -3.4574 -0.3270
  527MOL0     H71096   4.817   9.348   8.269  0.6598  2.2909 -1.2394
  527MOL0     H71097   5.146   9.608   8.295 -1.8680  0.2128  3.5227
  527MOL0     H71098   5.118   9.490   8.173 -1.0061 -2.6565  1.9709
  527MOL0     H71099   4.994   9.713   8.137 -0.4336 -0.7979 -1.3590
  527MOL0     H71100   4.892   9.578   8.128 -0.9034  2.0380 -1.8351
  527MOL0     H71101   4.933   9.711   8.400  0.5488  2.4141 -0.3830
  527MOL0     H71102   4.793   9.623   8.347  0.0659  1.5114  1.9713
  527MOL0     H71103   4.900   9.896   8.273  0.6155  0.2510  2.4257
  527MOL0     H71104   4.757   9.882   8.359  0.3781 -0.0502 -0.4181
  527MOL0     H71105   4.873  10.010   8.076  0.0432 -1.1120  2.2832
  527MOL0     H71106   4.802  10.185   7.945 -1.3442 -0.2267 -3.4149
  527MOL0     H71107   4.583  10.443   7.652 -0.9714 -1.1139  1.7975
  527MOL0     H71108   4.536  10.683   7.596  1.4948  1.3459 -0.5395
  527MOL0     H71109   4.686  10.981   7.863 -1.1305  1.1193  2.9041
  527MOL0     H71110   4.610  11.078   7.737  3.1614  0.4532  1.6180
  527MOL0     H71111   4.393  11.097   7.863 -1.0464 -0.1581  1.6385
  527MOL0     H71112   4.417  10.954   7.948 -1.3493 -0.6030 -2.3235
  527MOL0     H71113   4.587  11.056   8.109 -0.7836 -1.7963  0.7206
  527MOL0     H71114   4.560  11.206   7.998  0.0806 -0.3352  1.1424
  527MOL0     H71115   4.380  11.057   8.179 -0.1992 -0.7507 -1.8993
  527MOL0     H71116   4.331  11.201   8.085  0.0390 -1.3182  0.1546
  527MOL0     H71117   4.544  11.211   8.302 -0.0973 -0.8511  1.5727
  527MOL0     H71118   4.368  11.241   8.301  0.0679  2.4697 -1.3488
  527MOL0     H71119   4.594  11.394   8.170  1.4047 -2.7970  0.6740
  527MOL0     H71120   4.448  11.421   8.090  0.8580 -0.3828 -1.1251
  527MOL0     H71121   4.371  11.481   8.360 -0.3488  0.2053  0.4061
  527MOL0     H71122   4.388  11.590   8.233  2.8565  0.1454 -2.4965
  527MOL0     H71123   4.646  11.513   8.376 -0.4674  1.2692  2.5261
  527MOL0     H71124   4.613  11.623   8.239  0.7467 -1.9455 -0.8645
  527MOL0     H71125   4.699  10.803   7.980  2.9558 -0.0041 -0.6397
  527MOL0     H71126   4.710  10.583   8.048 -0.6506  1.3015 -0.0700
  527MOL0     H71127   4.384  10.096   8.004 -0.6671 -0.6020  2.5243
  527MOL0     H71128   4.449   9.890   8.134 -2.3002  2.2764 -1.4199
  527MOL0     H71129   5.224   8.847   7.778  2.3288 -0.4836 -2.7161
  527MOL0     H71130   5.293   8.908   7.560  1.0557 -6.3160  2.4177
  527MOL0     H71131   5.472   9.007   7.118  1.8824  1.0346 -3.4551
  527MOL0     H71132   5.494   8.997   6.890  0.1759 -0.9340  0.0148
  527MOL0     H71133   5.158   8.915   6.583  2.2281  1.6836 -0.6492
  527MOL0     H71134   5.193   8.755   6.659  1.4639  0.2244  1.4063
  527MOL0     H71135   5.370   8.887   6.441 -1.0375 -0.2975 -1.3417
  527MOL0     H71136   5.249   8.771   6.410 -2.5099  0.7141  1.2279
  527MOL0     H71137   5.339   8.610   6.558  0.3351 -0.4056  1.9189
  527MOL0     H71138   5.494   8.707   6.591 -0.1422  0.2794  0.3468
  527MOL0     H71139   5.576   8.709   6.370 -1.4078 -0.0405 -2.8451
  527MOL0     H71140   5.538   8.541   6.409  0.2916 -1.2298  1.3682
  527MOL0     H71141   5.287   8.608   6.078  1.5770 -1.2426 -0.4711
  527MOL0     H71142   5.097   8.839   6.840  1.3598 -3.4798  0.6562
  527MOL0     H71143   4.987   8.893   7.129 -1.6773 -1.9431  1.6003
  527MOL0     H71144   4.981   8.766   6.998  0.5658  1.0039 -1.1285
  527MOL0     H71145   5.050   8.722   7.158 -1.7095  1.6338  2.3212
  528MOL0     O71146   0.804   1.016   7.982  0.4325 -0.0793 -0.1757
  528MOL0     C71147   0.772   1.013   8.104  0.5538 -0.7362 -0.4245
  528MOL0     O71148   0.815   0.925   8.195 -0.0821  0.0478 -0.4541
  528MOL0     C71149   0.936   0.862   8.177  0.0945 -0.7361  0.4635
  528MOL0     C71150   1.043   0.926   8.108 -0.3572  0.2903  0.4878
  528MOL0     C71151   1.163   0.867   8.094  0.6379 -0.0001  0.3717
  528MOL0     C71152   1.188   0.743   8.154 -0.2563  0.3331  1.1101
  528MOL0     O71153   1.305   0.678   8.158  0.1541  0.4409  0.3563
  528MOL0     C71154   1.405   0.722   8.071 -0.4733  0.2474 -0.8386
  528MOL0     C71155   1.513   0.610   8.072  0.1601 -0.2260 -0.6913
  528MOL0     C71156   1.637   0.657   8.003 -0.0525 -0.2479  0.8196
  528MOL0     C71157   1.755   0.559   8.027 -0.0684 -0.5724  0.0704
  528MOL0     C71158   1.894   0.597   7.974 -0.7389  0.4690 -0.6941
  528MOL0     C71159   2.002   0.495   8.010  0.2933 -0.7161 -0.0069
  528MOL0     C71160   2.068   0.507   8.148  0.5906  0.1547 -0.4266
  528MOL0     C71161   2.126   0.380   8.201 -1.1629  0.1426  0.3290
  528MOL0     N71162   2.025   0.302   8.281 -0.1920 -0.9094 -0.1085
  528MOL0     C71163   1.943   0.205   8.235 -0.0951  0.4235 -0.2517
  528MOL0     C71164   1.876   0.146   8.339 -0.2693  0.3737 -0.2253
  528MOL0     C71165   1.764   0.042   8.349  0.4070 -0.1471 -0.6251
  528MOL0     C71166   1.833  -0.098   8.389  0.7033  0.7087 -0.2604
  528MOL0     C71167   1.815  -0.142   8.539  1.0539 -0.1365 -0.3202
  528MOL0     C71168   1.872  -0.035   8.631 -0.4716  0.8649 -0.4143
  528MOL0     O71169   1.857  -0.089   8.765 -0.1086  0.4109 -0.2769
  528MOL0     C71170   1.874   0.013   8.861  0.2517 -0.0724 -1.5339
  528MOL0     C71171   1.971   0.121   8.860  0.2054 -0.1911 -0.1762
  528MOL0     C71172   1.972   0.215   8.960  0.0219 -0.0345 -0.9454
  528MOL0     C71173   1.882   0.211   9.066 -0.5586  0.3621  0.0444
  528MOL0     C71174   1.872   0.313   9.168 -0.0830  0.2114  1.0717
  528MOL0     O71175   1.940   0.425   9.151  0.3726  0.0821 -0.7048
  528MOL0     C71176   1.896   0.549   9.207 -0.7959 -0.2109  0.7710
  528MOL0     C71177   1.764   0.579   9.253 -0.7729 -0.9348 -0.8297
  528MOL0     C71178   1.729   0.707   9.298  0.5550 -0.2975 -1.0691
  528MOL0     C71179   1.828   0.807   9.314 -0.2394  0.0617 -0.1132
  528MOL0     O71180   1.801   0.931   9.361  0.1523  0.1243 -0.4439
  528MOL0     C71181   1.801   1.052   9.277 -0.3403  0.3504 -0.1585
  528MOL0     C71182   1.675   1.066   9.196 -0.4101 -0.3248  1.1505
  528MOL0     C71183   1.575   1.173   9.253 -0.7774  0.7183 -0.3801
  528MOL0     C71184   1.613   1.320   9.203 -0.3766  0.2665 -0.2380
  528MOL0     C71185   1.511   1.428   9.252 -0.0341 -0.4095 -0.3769
  528MOL0     C71186   1.516   1.446   9.402 -0.1665 -0.7672  0.6269
  528MOL0     C71187   1.458   1.566   9.461 -0.1999  0.1394 -0.8634
  528MOL0     C71188   1.541   1.600   9.589 -0.3681  0.9472  0.1255
  528MOL0    Cl71189   1.447   1.682   9.720 -0.9396  0.1289  0.5210
  528MOL0     C71190   1.960   0.780   9.276  0.0360  0.4709 -0.3342
  528MOL0     C71191   1.994   0.653   9.221 -0.3974  0.2525 -0.6763
  528MOL0     O71192   1.803   0.301   9.266  0.3611 -0.2218  0.0248
  528MOL0     C71193   1.797   0.106   9.069 -0.3045  0.3163 -0.3191
  528MOL0     C71194   1.801  -0.002   8.972  0.8388 -0.7464  0.0116
  528MOL0     N71195   1.920   0.213   8.451 -0.1669  0.3695 -0.6648
  528MOL0     N71196   2.022   0.287   8.419 -0.0307 -1.2859  0.1094
  528MOL0     C71197   1.084   0.674   8.220 -0.0591 -0.2451 -0.1269
  528MOL0     C71198   0.963   0.738   8.234 -0.0573  0.0696 -0.8897
  528MOL0     C71199   0.659   1.095   8.142 -0.2196  0.3256 -0.1903
  528MOL0     C71200   0.548   1.011   8.193  0.3883 -0.4972  0.2251
  528MOL0     C71201   0.425   1.075   8.223  0.1387 -0.4333  0.1138
  528MOL0     C71202   0.404   1.220   8.198  0.1299  0.3571  0.3379
  528MOL0     O71203   0.285   1.280   8.200  0.1662 -0.0223  0.1654
  528MOL0     C71204   0.165   1.202   8.178 -0.1290 -0.8386  1.0299
  528MOL0     C71205   0.043   1.285   8.156 -0.4305  0.4556 -0.0199
  528MOL0     C71206  -0.091   1.205   8.164  0.2480  0.4538 -0.9302
  528MOL0     C71207  -0.212   1.302   8.172 -0.2988 -0.0915  0.7546
  528MOL0     C71208  -0.324   1.222   8.205  0.6242  0.7058  0.1448
  528MOL0     C71209  -0.423   1.166   8.238 -0.3881 -0.0106 -0.5400
  528MOL0     C71210   0.518   1.281   8.139 -0.4452 -1.0970  1.1889
  528MOL0     C71211   0.647   1.227   8.123  0.8578 -0.7387  0.3829
  528MOL0     C71212   0.770   1.308   8.082 -0.4795  0.4440 -0.2915
  528MOL0     H71213   1.030   1.021   8.059 -1.8644 -0.8464 -1.4511
  528MOL0     H71214   1.240   0.923   8.042 -1.7556 -0.2778 -3.9541
  528MOL0     H71215   1.357   0.743   7.975 -0.3419  2.0215 -0.5470
  528MOL0     H71216   1.451   0.813   8.109 -1.2843  0.2381  0.2294
  528MOL0     H71217   1.477   0.517   8.028 -0.0237  0.4523 -1.9984
  528MOL0     H71218   1.531   0.587   8.178  1.8361  1.6097 -0.5135
  528MOL0     H71219   1.649   0.751   8.057 -1.1684 -1.2755  3.0297
  528MOL0     H71220   1.625   0.683   7.898 -1.0743  4.2560  1.8256
  528MOL0     H71221   1.755   0.533   8.133 -1.6046 -0.8331  0.0401
  528MOL0     H71222   1.725   0.472   7.969 -1.6512 -0.5689  0.8091
  528MOL0     H71223   1.880   0.597   7.866 -0.0261 -3.4916 -0.9434
  528MOL0     H71224   1.930   0.690   8.019 -2.7942  2.2031 -2.4472
  528MOL0     H71225   1.949   0.402   7.990 -0.5767 -0.5358  1.3723
  528MOL0     H71226   2.080   0.499   7.933 -0.2889 -1.5855 -0.6660
  528MOL0     H71227   2.005   0.551   8.226  1.1717 -0.3781  0.3706
  528MOL0     H71228   2.147   0.582   8.133  2.0311 -0.7252  2.0969
  528MOL0     H71229   2.168   0.320   8.120  1.0421 -1.5753  2.5998
  528MOL0     H71230   2.208   0.414   8.266 -0.1898 -3.0370  0.9350
  528MOL0     H71231   1.948   0.167   8.133  0.5785  0.0129 -0.0733
  528MOL0     H71232   1.680   0.069   8.415  0.6321 -0.8282 -0.0411
  528MOL0     H71233   1.716   0.028   8.252  2.4307  0.4920 -1.7727
  528MOL0     H71234   1.799  -0.173   8.318  4.0133  0.3213 -1.5969
  528MOL0     H71235   1.941  -0.091   8.375  0.8170 -1.4652 -0.8000
  528MOL0     H71236   1.862  -0.237   8.565  0.2488 -0.2566  0.7471
  528MOL0     H71237   1.710  -0.170   8.553  0.8346 -0.6207 -2.5295
  528MOL0     H71238   1.808   0.053   8.621 -1.3610  0.6015  2.2050
  528MOL0     H71239   1.980  -0.037   8.613 -0.6681  0.7356 -1.6676
  528MOL0     H71240   2.046   0.135   8.782 -0.4304  0.8571 -0.6311
  528MOL0     H71241   2.051   0.289   8.968  0.2127 -0.1805 -1.4808
  528MOL0     H71242   1.680   0.510   9.256 -1.5199 -0.1342  3.6702
  528MOL0     H71243   1.629   0.731   9.331 -0.2820 -2.3046 -2.0286
  528MOL0     H71244   1.818   1.142   9.336 -0.7826  0.8119 -0.7316
  528MOL0     H71245   1.885   1.053   9.207  0.4628  0.0406  0.7834
  528MOL0     H71246   1.711   1.110   9.102 -0.3903  0.3032  1.4486
  528MOL0     H71247   1.622   0.973   9.175 -1.2503  0.4322 -0.3022
  528MOL0     H71248   1.475   1.144   9.221  0.5353 -3.4047 -1.3013
  528MOL0     H71249   1.581   1.167   9.362  0.5488 -0.6382 -0.5035
  528MOL0     H71250   1.618   1.318   9.094  2.2782 -1.0793 -0.1628
  528MOL0     H71251   1.716   1.338   9.234  0.7933 -3.8560 -1.2128
  528MOL0     H71252   1.408   1.402   9.225 -1.1296  0.8206  2.2733
  528MOL0     H71253   1.540   1.525   9.212 -0.8579 -0.0401 -0.1065
  528MOL0     H71254   1.477   1.361   9.460  0.2042 -0.2868  1.6016
  528MOL0     H71255   1.622   1.447   9.428  0.0599  0.5268 -0.2693
  528MOL0     H71256   1.360   1.555   9.508  0.3712 -2.3837 -0.1467
  528MOL0     H71257   1.455   1.648   9.388  0.6641  1.0380  0.0827
  528MOL0     H71258   1.598   1.517   9.632 -0.2525  1.0895  0.2463
  528MOL0     H71259   1.620   1.669   9.558 -0.0058  1.6071  2.3527
  528MOL0     H71260   2.044   0.844   9.303  0.0414  0.9860 -1.5465
  528MOL0     H71261   2.096   0.626   9.198 -0.4459 -0.1333 -0.4393
  528MOL0     H71262   1.726   0.086   9.148  0.4827 -0.4159  0.2268
  528MOL0     H71263   1.742  -0.089   8.995 -0.6218 -0.3496 -1.9244
  528MOL0     H71264   1.123   0.583   8.263 -0.8467 -0.8444 -0.6717
  528MOL0     H71265   0.875   0.687   8.272  0.2649 -0.5276 -0.9344
  528MOL0     H71266   0.559   0.904   8.203  3.0987 -0.4363 -1.0394
  528MOL0     H71267   0.347   1.015   8.269  2.7325 -6.4961 -2.3941
  528MOL0     H71268   0.145   1.122   8.250  1.0646 -0.5272  1.7450
  528MOL0     H71269   0.171   1.156   8.079 -1.2344  3.9513 -1.5804
  528MOL0     H71270   0.060   1.323   8.055 -2.8455 -1.4864 -1.2337
  528MOL0     H71271   0.036   1.365   8.231 -3.1567 -0.4956  0.8308
  528MOL0     H71272  -0.066   1.163   8.261 -1.0801 -3.5332 -2.1504
  528MOL0     H71273  -0.097   1.131   8.084 -2.3097 -0.6035  0.1253
  528MOL0     H71274  -0.196   1.383   8.243 -0.4999 -0.1701  0.8905
  528MOL0     H71275  -0.229   1.339   8.070 -2.4771 -0.9212  0.7579
  528MOL0     H71276  -0.514   1.117   8.270 -0.2551  0.4291  0.5643
  528MOL0     H71277   0.502   1.386   8.116  1.0174 -1.0311  0.3457
  528MOL0     H71278   0.866   1.261   8.104 -0.4265  1.0242  0.7887
  528MOL0     H71279   0.763   1.331   7.975 -2.2784 -1.3643 -0.6310
  528MOL0     H71280   0.770   1.401   8.139 -2.2133  0.7832 -0.7996
  529MOL0     O71281   6.478  10.015   0.876 -0.7850 -0.6655 -1.0545
  529MOL0     C71282   6.404  10.113   0.874  0.2911 -0.3752 -0.8275
  529MOL0     O71283   6.447  10.239   0.862  0.8072 -0.2361  0.4757
  529MOL0     C71284   6.576  10.255   0.846 -0.4863  0.0700 -0.4958
  529MOL0     C71285   6.626  10.270   0.722  0.3778 -0.5582  0.4542
  529MOL0     C71286   6.767  10.300   0.697 -0.0834 -1.1328 -0.0374
  529MOL0     C71287   6.863  10.325   0.799 -0.0598  0.2086 -0.2457
  529MOL0     O71288   6.993  10.388   0.778  0.0846 -0.0977  0.0798
  529MOL0     C71289   6.969  10.524   0.742  1.1551  0.3094 -0.4998
  529MOL0     C71290   7.100  10.597   0.725 -0.2829 -0.3701  0.2056
  529MOL0     C71291   7.212  10.520   0.640  0.3722  0.0118  1.1357
  529MOL0     C71292   7.200  10.547   0.491  0.6619 -0.3289 -0.2812
  529MOL0     C71293   7.296  10.456   0.429  0.0622 -0.4407  0.7579
  529MOL0     C71294   7.295  10.486   0.275  0.9259  0.7875 -1.0395
  529MOL0     C71295   7.163  10.429   0.219  0.8126  0.3373 -0.1199
  529MOL0     C71296   7.176  10.426   0.066  0.0045  0.1349  0.5693
  529MOL0     N71297   7.053  10.394  -0.001 -0.4870  0.2899  0.9917
  529MOL0     C71298   6.978  10.279  -0.007 -0.1252 -0.0436  1.0901
  529MOL0     C71299   6.887  10.294  -0.101  0.6202 -0.7214  0.5295
  529MOL0     C71300   6.803  10.178  -0.144 -0.5407 -0.3933 -1.1753
  529MOL0     C71301   6.768  10.155  -0.287 -0.7401 -0.2320  0.3788
  529MOL0     C71302   6.635  10.069  -0.322 -0.7767 -0.2836 -0.1057
  529MOL0     C71303   6.511  10.156  -0.284  0.0974 -0.1673  0.1611
  529MOL0     O71304   6.491  10.263  -0.371  0.2466 -0.5713 -0.8684
  529MOL0     C71305   6.516  10.391  -0.327 -0.5660  0.0068  0.5630
  529MOL0     C71306   6.463  10.437  -0.208  0.4405 -0.1681 -0.3632
  529MOL0     C71307   6.512  10.555  -0.150  0.2162  0.6997 -0.3064
  529MOL0     C71308   6.598  10.630  -0.231  0.8884 -0.0365 -1.1974
  529MOL0     C71309   6.665  10.745  -0.160  0.4373  0.8352 -0.6450
  529MOL0     O71310   6.630  10.782  -0.027  0.4420 -0.0013  0.0199
  529MOL0     C71311   6.673  10.900   0.030  0.1647 -0.0628 -0.6817
  529MOL0     C71312   6.802  10.956   0.043  1.3273 -0.2466 -0.0975
  529MOL0     C71313   6.830  11.083   0.103 -0.1218  0.2710 -0.3611
  529MOL0     C71314   6.734  11.142   0.187  0.0893 -1.1019  0.3931
  529MOL0     O71315   6.754  11.250   0.269  0.1410  0.3649 -0.3173
  529MOL0     C71316   6.856  11.352   0.239  0.5311 -0.4436 -0.0808
  529MOL0     C71317   6.765  11.482   0.234 -0.0664  0.2268  0.3245
  529MOL0     C71318   6.838  11.617   0.251  0.2329 -0.2871  0.7743
  529MOL0     C71319   6.742  11.735   0.227  0.3278  0.1414  0.4535
  529MOL0     C71320   6.786  11.866   0.302 -0.1001 -0.0273 -0.3088
  529MOL0     C71321   6.695  11.988   0.273  0.2155 -0.3834 -0.3359
  529MOL0     C71322   6.740  12.109   0.348 -0.0668 -0.0115  0.2198
  529MOL0     C71323   6.685  12.117   0.493 -0.4240  0.1012  0.7574
  529MOL0    Cl71324   6.503  12.123   0.491 -0.0360 -0.1052  0.0135
  529MOL0     C71325   6.609  11.081   0.200 -0.1344  1.4871 -0.2673
  529MOL0     C71326   6.577  10.964   0.120 -0.0163 -0.5668 -0.0087
  529MOL0     O71327   6.758  10.788  -0.222  0.3584  0.1181 -0.6805
  529MOL0     C71328   6.623  10.597  -0.366  0.4627 -0.3288  0.5163
  529MOL0     C71329   6.582  10.475  -0.409  0.5398  0.0577  0.2962
  529MOL0     N71330   6.905  10.420  -0.153  0.1661 -0.2668  0.6688
  529MOL0     N71331   7.008  10.475  -0.101 -0.6641  0.2063 -0.3347
  529MOL0     C71332   6.804  10.300   0.928  0.3436 -0.2051 -0.1779
  529MOL0     C71333   6.669  10.266   0.952 -0.6360 -0.8155 -1.3899
  529MOL0     C71334   6.259  10.080   0.911 -0.0450  0.7798  0.8912
  529MOL0     C71335   6.224   9.955   0.971 -0.7650 -0.9778  0.2276
  529MOL0     C71336   6.092   9.932   0.994  0.0196 -0.0706  0.2099
  529MOL0     C71337   5.997  10.023   0.963 -0.3300  1.0295 -0.7918
  529MOL0     O71338   5.869   9.983   0.993  0.4365 -0.4798  0.2498
  529MOL0     C71339   5.762  10.025   0.906  0.6888 -0.2879  0.0078
  529MOL0     C71340   5.635   9.936   0.920 -0.7211 -0.3261 -0.5447
  529MOL0     C71341   5.529   9.998   0.826 -0.0835  0.0506 -0.6918
  529MOL0     C71342   5.453  10.102   0.906  1.4062  0.1323 -0.6055
  529MOL0     C71343   5.337  10.130   0.822 -1.4131  0.4965 -0.2430
  529MOL0     C71344   5.238  10.152   0.762 -0.7098  0.2939  0.1191
  529MOL0     C71345   6.025  10.135   0.895 -0.2923 -0.1110 -0.6468
  529MOL0     C71346   6.149  10.172   0.870 -0.4878 -0.7938 -0.5010
  529MOL0     C71347   6.181  10.297   0.796  0.4985  0.3163  0.0626
  529MOL0     H71348   6.553  10.260   0.642 -2.0529 -1.2182  2.6362
  529MOL0     H71349   6.809  10.315   0.598  0.4173  2.7480  0.5926
  529MOL0     H71350   6.918  10.516   0.646  1.0437 -3.6185 -0.2826
  529MOL0     H71351   6.904  10.581   0.809  1.5534  1.3534 -0.9687
  529MOL0     H71352   7.150  10.605   0.822  1.1797 -0.5490 -0.5117
  529MOL0     H71353   7.082  10.693   0.676 -1.6530 -0.1896  0.9923
  529MOL0     H71354   7.207  10.414   0.663 -0.3917 -1.2950 -3.8901
  529MOL0     H71355   7.315  10.544   0.668  1.7875 -2.7851 -1.0849
  529MOL0     H71356   7.097  10.532   0.459 -0.8618  3.3826  2.2322
  529MOL0     H71357   7.222  10.654   0.482 -0.6624 -0.1537 -1.7940
  529MOL0     H71358   7.394  10.476   0.473  0.1433  0.2200  0.2940
  529MOL0     H71359   7.276  10.350   0.446  1.7992 -1.2363 -1.5719
  529MOL0     H71360   7.302  10.591   0.247  1.7233  1.4377  1.3499
  529MOL0     H71361   7.386  10.438   0.237  0.4165 -1.6811  0.6474
  529MOL0     H71362   7.077  10.488   0.252  0.3585 -0.6017  0.4482
  529MOL0     H71363   7.153  10.332   0.269 -0.3290  1.5903  2.2503
  529MOL0     H71364   7.200  10.526   0.030 -0.7277  0.2080  0.2716
  529MOL0     H71365   7.235  10.343   0.025  0.9139  0.2213  1.6498
  529MOL0     H71366   6.998  10.199   0.063 -1.5033 -0.6482  0.8323
  529MOL0     H71367   6.839  10.088  -0.095  1.6614  1.3047  0.5590
  529MOL0     H71368   6.709  10.212  -0.099  2.0175  2.4759  2.6323
  529MOL0     H71369   6.753  10.247  -0.345 -3.0314 -1.2347 -0.7367
  529MOL0     H71370   6.852  10.093  -0.320 -1.4729  0.0805 -2.3623
  529MOL0     H71371   6.636   9.979  -0.260 -0.4390  1.1409  2.0813
  529MOL0     H71372   6.619  10.029  -0.423 -3.0153  0.8134 -0.2347
  529MOL0     H71373   6.514  10.185  -0.179 -3.1229 -2.4832  1.0409
  529MOL0     H71374   6.420  10.096  -0.280 -0.9730  1.5045  1.9605
  529MOL0     H71375   6.394  10.383  -0.143 -1.3203 -0.5131 -2.4160
  529MOL0     H71376   6.474  10.591  -0.055 -2.2756 -0.6553 -0.7054
  529MOL0     H71377   6.876  10.914  -0.024 -1.4313  2.6170 -5.6361
  529MOL0     H71378   6.933  11.116   0.098 -0.1796  0.2258 -2.3981
  529MOL0     H71379   6.935  11.356   0.314  0.5190  0.5949 -0.0987
  529MOL0     H71380   6.902  11.336   0.141  0.5725  1.9120 -0.4991
  529MOL0     H71381   6.690  11.494   0.155  0.7742  2.9401 -0.1750
  529MOL0     H71382   6.702  11.464   0.322  0.1389  0.2935  0.4864
  529MOL0     H71383   6.883  11.629   0.350 -2.5038 -0.4227  2.1245
  529MOL0     H71384   6.922  11.619   0.180 -1.6296  0.1854 -1.5516
  529MOL0     H71385   6.638  11.720   0.259 -0.8883  1.6233 -2.4163
  529MOL0     H71386   6.746  11.744   0.118  0.6574  0.7755  0.5186
  529MOL0     H71387   6.888  11.884   0.267 -0.3541 -0.2676 -1.2085
  529MOL0     H71388   6.798  11.842   0.408 -0.6082  2.8122  0.4813
  529MOL0     H71389   6.702  12.014   0.167 -2.4089  0.4208 -0.3991
  529MOL0     H71390   6.589  11.966   0.288  0.3542 -1.2675 -0.6448
  529MOL0     H71391   6.705  12.203   0.305 -0.2904 -0.6768 -1.1123
  529MOL0     H71392   6.849  12.111   0.352 -0.0839  1.5219  3.5811
  529MOL0     H71393   6.716  12.040   0.564 -0.3838  1.2165  1.9749
  529MOL0     H71394   6.728  12.210   0.530 -1.2271  0.3500  1.0981
  529MOL0     H71395   6.525  11.117   0.259 -0.8115 -1.3110  0.5956
  529MOL0     H71396   6.479  10.922   0.143  1.0854 -3.0654  0.4831
  529MOL0     H71397   6.686  10.657  -0.431 -0.3468 -2.4821 -2.4191
  529MOL0     H71398   6.588  10.447  -0.514 -1.2731  1.8113 -0.3305
  529MOL0     H71399   6.857  10.338   1.015 -2.9990  2.9292  0.7232
  529MOL0     H71400   6.614  10.260   1.045 -1.5521  1.2579 -1.7280
  529MOL0     H71401   6.298   9.886   1.009  2.0689  1.0479 -1.2726
  529MOL0     H71402   6.061   9.834   1.027  0.4659 -1.0628 -2.0707
  529MOL0     H71403   5.791  10.038   0.801 -0.8102 -0.2922 -0.4289
  529MOL0     H71404   5.743  10.124   0.949  1.2113 -0.5636  0.8933
  529MOL0     H71405   5.592   9.934   1.020 -0.8568  0.1868 -0.5910
  529MOL0     H71406   5.641   9.832   0.887  0.9799 -0.6002  0.4780
  529MOL0     H71407   5.461   9.920   0.791  1.0775 -0.7891 -1.1426
  529MOL0     H71408   5.567  10.040   0.733  2.4755  0.7590  0.5834
  529MOL0     H71409   5.410  10.063   0.999 -2.7866  1.1252 -1.9026
  529MOL0     H71410   5.511  10.190   0.935  2.6198 -1.2015  1.2713
  529MOL0     H71411   5.157  10.160   0.693  0.2546 -0.5985 -1.1779
  529MOL0     H71412   5.947  10.204   0.863 -0.2853  1.3163  2.0961
  529MOL0     H71413   6.097  10.340   0.742  1.8127  4.0409  0.6345
  529MOL0     H71414   6.220  10.369   0.869 -1.6952  2.3336 -0.6529
  529MOL0     H71415   6.259  10.288   0.720  2.1734  3.6576  1.1523
  530MOL0     O71416   1.917   4.162   6.038 -0.7467  0.2468 -0.0880
  530MOL0     C71417   1.835   4.068   6.044 -0.0734  0.3655  0.7652
  530MOL0     O71418   1.788   4.010   5.926 -0.4779 -0.2768  0.6294
  530MOL0     C71419   1.834   4.027   5.805 -0.3174  0.0894  0.0718
  530MOL0     C71420   1.747   4.002   5.696 -0.2400  0.6351  1.3382
  530MOL0     C71421   1.809   3.985   5.569 -0.3918  0.1048 -0.3293
  530MOL0     C71422   1.947   3.997   5.554  0.0946 -0.2836 -0.0724
  530MOL0     O71423   2.012   3.993   5.428  0.1773 -0.1750  0.1738
  530MOL0     C71424   1.929   4.026   5.306  0.3276 -0.0982 -0.7669
  530MOL0     C71425   2.009   3.993   5.184 -0.1393 -0.1768 -0.7267
  530MOL0     C71426   2.053   3.850   5.167  0.1797 -0.1322  0.1497
  530MOL0     C71427   2.124   3.810   5.031  0.2891  0.9395  0.5000
  530MOL0     C71428   2.115   3.652   5.010 -0.3289 -0.3940  0.8770
  530MOL0     C71429   2.178   3.612   4.880 -0.3457 -0.2411  0.6462
  530MOL0     C71430   2.189   3.467   4.862  0.3218  0.1850 -0.7812
  530MOL0     C71431   2.260   3.446   4.716 -0.0964  0.4583 -0.3385
  530MOL0     N71432   2.254   3.309   4.672  0.1557  0.7786 -0.1183
  530MOL0     C71433   2.146   3.223   4.699  0.6248 -0.4224  0.7701
  530MOL0     C71434   2.197   3.096   4.691  0.3881 -0.8486  0.1835
  530MOL0     C71435   2.129   2.963   4.733 -0.5739 -0.5578  0.0665
  530MOL0     C71436   2.210   2.857   4.810 -0.7887  0.6555 -0.3756
  530MOL0     C71437   2.243   2.923   4.953 -0.3079 -0.8473  0.3982
  530MOL0     C71438   2.195   2.838   5.077  0.2783  0.2192  0.0126
  530MOL0     O71439   2.290   2.733   5.101  0.0457  0.2866  0.0645
  530MOL0     C71440   2.374   2.758   5.200 -0.5773  0.3464 -0.9183
  530MOL0     C71441   2.346   2.779   5.334  0.3411  0.6443 -1.9425
  530MOL0     C71442   2.448   2.787   5.439 -0.8833 -0.0926  0.5678
  530MOL0     C71443   2.581   2.759   5.406  1.1494  0.0272 -0.7220
  530MOL0     C71444   2.692   2.770   5.493 -0.0877 -0.4162 -0.7802
  530MOL0     O71445   2.821   2.802   5.453 -0.2524 -0.5800 -0.3725
  530MOL0     C71446   2.925   2.790   5.543 -0.8304 -0.1610  0.7110
  530MOL0     C71447   3.018   2.896   5.521  0.2247 -0.3511  0.8282
  530MOL0     C71448   3.135   2.885   5.590  0.3665 -1.0280  0.6247
  530MOL0     C71449   3.164   2.785   5.684  0.8064  0.4170 -0.3293
  530MOL0     O71450   3.282   2.791   5.753 -0.9310  0.7208 -0.9882
  530MOL0     C71451   3.297   2.903   5.840 -1.1389  0.9338  0.6049
  530MOL0     C71452   3.432   2.915   5.900 -0.0137 -0.1922  0.1119
  530MOL0     C71453   3.548   2.907   5.792 -0.0711 -0.2858 -0.5692
  530MOL0     C71454   3.519   3.006   5.664  0.0541 -0.9285 -0.0059
  530MOL0     C71455   3.541   3.155   5.692 -0.8437  1.0572  0.1065
  530MOL0     C71456   3.536   3.231   5.560  0.0847  0.2952  0.7178
  530MOL0     C71457   3.535   3.382   5.597  0.0537 -0.4036  0.8032
  530MOL0     C71458   3.566   3.475   5.478 -0.8298  0.6803  0.1002
  530MOL0    Cl71459   3.603   3.638   5.547  0.0020 -0.3648 -0.2325
  530MOL0     C71460   3.071   2.682   5.699  0.2620  0.2318  0.5483
  530MOL0     C71461   2.953   2.683   5.623  0.7955  0.1204 -0.3562
  530MOL0     O71462   2.661   2.747   5.609 -0.3219  0.4621  0.5750
  530MOL0     C71463   2.607   2.762   5.264  0.6981  0.1018  0.7616
  530MOL0     C71464   2.507   2.758   5.165  0.1528 -0.2872  0.3670
  530MOL0     N71465   2.327   3.104   4.648 -0.3575  0.0954 -0.0173
  530MOL0     N71466   2.368   3.228   4.645  0.4769  0.5737 -0.9106
  530MOL0     C71467   2.024   4.022   5.659 -0.5380 -0.1753  0.4411
  530MOL0     C71468   1.970   4.040   5.789 -0.3320  0.0930  0.0662
  530MOL0     C71469   1.750   4.049   6.170  0.4449  0.5209  0.3327
  530MOL0     C71470   1.607   4.058   6.155 -0.2133 -0.5177  0.0886
  530MOL0     C71471   1.525   4.022   6.262 -0.6777 -0.3362 -0.9361
  530MOL0     C71472   1.581   4.002   6.386  1.0041 -0.1603 -0.3917
  530MOL0     O71473   1.502   3.985   6.497 -0.3358 -0.1282 -0.5591
  530MOL0     C71474   1.397   4.080   6.514  0.2321 -0.4739  0.3470
  530MOL0     C71475   1.290   4.001   6.575 -0.6003 -0.1019 -0.0952
  530MOL0     C71476   1.343   3.912   6.690 -0.2465  0.1613 -0.2653
  530MOL0     C71477   1.227   3.863   6.781 -0.6952 -0.9662 -0.1644
  530MOL0     C71478   1.153   3.966   6.854  0.0225 -0.8199 -0.1835
  530MOL0     C71479   1.092   4.061   6.908 -0.1574 -0.5863  0.6090
  530MOL0     C71480   1.715   3.981   6.404 -0.2366 -0.1272  0.4367
  530MOL0     C71481   1.804   4.004   6.292 -0.1320  0.0719  0.7704
  530MOL0     C71482   1.953   3.984   6.298 -0.0135  0.7309  0.3643
  530MOL0     H71483   1.640   3.984   5.699 -1.1179  3.1818 -3.5355
  530MOL0     H71484   1.744   3.966   5.485 -1.3505 -0.6312  0.5585
  530MOL0     H71485   1.850   3.951   5.305  1.9189 -1.9721  1.7232
  530MOL0     H71486   1.895   4.130   5.305  0.3844 -0.0521  0.3898
  530MOL0     H71487   2.096   4.059   5.175 -2.2329  3.1549  1.1069
  530MOL0     H71488   1.959   4.007   5.087  2.4603  1.8346 -1.9194
  530MOL0     H71489   1.968   3.782   5.183  2.7333 -2.8911  3.5414
  530MOL0     H71490   2.124   3.826   5.247  3.2842  2.0619 -1.7429
  530MOL0     H71491   2.067   3.867   4.957 -0.7366  3.1870  2.8567
  530MOL0     H71492   2.226   3.849   5.024  0.4177  0.6277  0.6154
  530MOL0     H71493   2.174   3.611   5.094  2.0018  1.9425  0.5101
  530MOL0     H71494   2.008   3.631   5.012 -0.1414 -1.3939  2.4359
  530MOL0     H71495   2.119   3.651   4.797  0.8528 -1.9601 -1.1057
  530MOL0     H71496   2.284   3.640   4.881 -0.1931  0.2416  6.8236
  530MOL0     H71497   2.089   3.422   4.864  0.0709  0.7422 -0.2556
  530MOL0     H71498   2.261   3.437   4.939  2.6559  3.2872 -1.5539
  530MOL0     H71499   2.203   3.507   4.645  1.7252 -1.8473 -4.0923
  530MOL0     H71500   2.362   3.484   4.719  0.0072  0.5262 -2.6387
  530MOL0     H71501   2.042   3.246   4.720  0.4821 -3.2617  4.0765
  530MOL0     H71502   2.049   2.983   4.805  0.3338 -0.8828  1.2008
  530MOL0     H71503   2.092   2.916   4.641  1.2112  1.7190 -1.9297
  530MOL0     H71504   2.155   2.765   4.835 -2.1634  1.5399 -0.0373
  530MOL0     H71505   2.304   2.841   4.757  0.0635  1.6582  0.7744
  530MOL0     H71506   2.217   3.029   4.964 -1.4586 -0.8741 -1.5287
  530MOL0     H71507   2.351   2.928   4.964 -0.4375 -1.6495  2.5669
  530MOL0     H71508   2.096   2.795   5.061  0.3293  0.1340 -0.0790
  530MOL0     H71509   2.182   2.904   5.163  0.4559  0.5047 -0.1754
  530MOL0     H71510   2.239   2.782   5.353  0.4940 -1.0557 -0.4761
  530MOL0     H71511   2.409   2.792   5.540 -2.5954  1.4009 -0.1207
  530MOL0     H71512   2.997   2.987   5.466  0.2489 -0.8888 -0.0843
  530MOL0     H71513   3.206   2.967   5.581 -1.2016  1.1010  4.8821
  530MOL0     H71514   3.275   2.995   5.786 -2.4302 -0.3459 -1.2012
  530MOL0     H71515   3.224   2.892   5.920 -0.1219 -0.8189  1.3538
  530MOL0     H71516   3.428   2.998   5.972 -0.4858  1.1083 -1.3479
  530MOL0     H71517   3.457   2.827   5.960  2.5583  1.5168  1.7985
  530MOL0     H71518   3.649   2.917   5.835 -0.5403 -5.1809  2.3953
  530MOL0     H71519   3.557   2.805   5.756 -0.4659 -0.1574 -1.0335
  530MOL0     H71520   3.416   3.002   5.626 -0.5454 -0.9650  1.5853
  530MOL0     H71521   3.589   2.980   5.583  2.0048  2.1900  0.4913
  530MOL0     H71522   3.635   3.163   5.747 -2.1603  1.0168  2.4948
  530MOL0     H71523   3.462   3.193   5.758  1.0176  3.0662  1.3165
  530MOL0     H71524   3.613   3.208   5.486 -0.3220 -0.3251  0.4845
  530MOL0     H71525   3.440   3.214   5.511 -2.1173  2.5131  3.7815
  530MOL0     H71526   3.617   3.408   5.666  0.8467  1.1187 -0.6430
  530MOL0     H71527   3.451   3.421   5.655  0.0797  0.2492  0.4071
  530MOL0     H71528   3.651   3.426   5.430 -2.6933 -1.5087 -1.1485
  530MOL0     H71529   3.488   3.485   5.402  0.7348 -0.1451 -1.7117
  530MOL0     H71530   3.089   2.596   5.763  0.6680 -0.3312 -0.3026
  530MOL0     H71531   2.885   2.598   5.631  1.8588 -0.6367  1.1304
  530MOL0     H71532   2.707   2.762   5.220 -0.4049 -0.2975 -1.9338
  530MOL0     H71533   2.530   2.739   5.060 -3.6376 -0.6902 -0.5080
  530MOL0     H71534   2.129   4.041   5.640 -0.9786  0.6915 -1.2416
  530MOL0     H71535   2.034   4.071   5.871 -2.0657  2.5585  0.5897
  530MOL0     H71536   1.571   4.088   6.057  4.6168  1.4577 -1.3681
  530MOL0     H71537   1.423   4.046   6.234 -1.0394  2.8887  2.4425
  530MOL0     H71538   1.356   4.122   6.422  2.1099 -1.5699 -1.0521
  530MOL0     H71539   1.430   4.169   6.568 -1.2687  2.4614 -3.1968
  530MOL0     H71540   1.245   3.929   6.507  1.4121 -1.9162  0.3952
  530MOL0     H71541   1.214   4.076   6.600  1.8423  3.0878 -1.5503
  530MOL0     H71542   1.411   3.973   6.751 -1.9267  0.5857  1.2739
  530MOL0     H71543   1.383   3.818   6.652 -2.9015 -1.3498  0.4429
  530MOL0     H71544   1.160   3.812   6.712 -0.8677  0.0902 -0.8046
  530MOL0     H71545   1.257   3.778   6.844  1.0176 -1.7591 -1.9576
  530MOL0     H71546   1.032   4.147   6.932 -1.4829 -0.5358 -2.4514
  530MOL0     H71547   1.762   3.953   6.498  0.4290  1.0364  0.4615
  530MOL0     H71548   1.987   3.980   6.402 -1.3808 -1.0853  0.7874
  530MOL0     H71549   1.966   3.883   6.260 -3.1587 -0.7513  2.8224
  530MOL0     H71550   2.019   4.057   6.249 -0.2493 -0.1743 -1.4076
  531MOL0     O71551   6.972   5.143   8.820  0.0560 -0.0689  0.1041
  531MOL0     C71552   7.015   5.252   8.812  0.0503  0.3428 -0.0231
  531MOL0     O71553   7.061   5.317   8.702 -0.6471 -0.0607 -0.4093
  531MOL0     C71554   7.039   5.275   8.572  0.5247 -0.9097 -0.3365
  531MOL0     C71555   7.118   5.328   8.468 -0.0206 -0.8677 -0.7135
  531MOL0     C71556   7.096   5.288   8.332 -0.4675  1.0219 -0.3026
  531MOL0     C71557   6.998   5.188   8.298  0.0544 -0.1814  0.0809
  531MOL0     O71558   7.004   5.143   8.169 -0.3090  0.2697  0.2808
  531MOL0     C71559   6.902   5.065   8.123 -0.0563  0.3218 -1.1912
  531MOL0     C71560   6.943   5.042   7.976 -0.2756  0.7071  0.1534
  531MOL0     C71561   6.845   4.952   7.892 -0.0894 -0.6220  0.6142
  531MOL0     C71562   6.888   4.947   7.741 -0.1271 -0.1214  0.2455
  531MOL0     C71563   6.821   4.834   7.664  0.6309  0.1610  0.1847
  531MOL0     C71564   6.879   4.806   7.523  0.0239 -0.9719 -1.0000
  531MOL0     C71565   7.010   4.745   7.528 -0.4556  0.1184 -0.9601
  531MOL0     C71566   7.117   4.816   7.452 -0.0535 -0.3857  0.9524
  531MOL0     N71567   7.102   4.784   7.310 -0.0071  0.1909 -0.5261
  531MOL0     C71568   7.024   4.857   7.227 -0.4034  0.0707  0.0555
  531MOL0     C71569   7.026   4.792   7.109  0.1985 -0.4985 -1.7383
  531MOL0     C71570   6.945   4.856   6.992 -0.2323  1.0964  0.6276
  531MOL0     C71571   6.881   4.736   6.925  0.4435 -1.4497 -1.2796
  531MOL0     C71572   6.748   4.698   6.981  0.3239 -0.0548 -0.6143
  531MOL0     C71573   6.745   4.668   7.133  0.2534 -0.2062 -0.6330
  531MOL0     O71574   6.622   4.606   7.167  0.2488 -0.1430 -0.3358
  531MOL0     C71575   6.610   4.553   7.296 -0.7629 -0.3083 -0.0487
  531MOL0     C71576   6.724   4.505   7.368  0.5916  0.2210 -0.0643
  531MOL0     C71577   6.712   4.457   7.491  1.1333  0.6685 -0.1431
  531MOL0     C71578   6.586   4.451   7.556  0.3285 -0.9488 -1.2622
  531MOL0     C71579   6.569   4.420   7.695 -0.1597  0.8855 -0.2325
  531MOL0     O71580   6.452   4.429   7.754  0.4837 -0.3847  0.6460
  531MOL0     C71581   6.437   4.386   7.888  0.5083  0.3701  0.4820
  531MOL0     C71582   6.423   4.241   7.916 -1.3398  0.2428  1.2461
  531MOL0     C71583   6.403   4.189   8.042  0.3045 -0.0576  0.5219
  531MOL0     C71584   6.393   4.276   8.149  0.4557  0.5040 -0.5252
  531MOL0     O71585   6.353   4.235   8.275  0.0079  0.4278  0.5701
  531MOL0     C71586   6.440   4.277   8.378 -0.0187  1.0776  0.6718
  531MOL0     C71587   6.346   4.352   8.471  0.5577 -0.3257  0.3018
  531MOL0     C71588   6.418   4.460   8.549 -0.1439  0.0640  0.1325
  531MOL0     C71589   6.522   4.394   8.648 -0.5825 -0.2449 -0.2450
  531MOL0     C71590   6.567   4.475   8.770 -0.3007 -0.8085  0.0811
  531MOL0     C71591   6.654   4.593   8.726  1.0110  0.1324  0.3185
  531MOL0     C71592   6.714   4.679   8.844 -0.3616  0.3556 -0.2364
  531MOL0     C71593   6.794   4.800   8.790  0.4196 -0.4227 -0.6888
  531MOL0    Cl71594   6.942   4.755   8.688  0.2843  0.0135  0.4252
  531MOL0     C71595   6.411   4.414   8.125  0.2037  0.7147 -0.0374
  531MOL0     C71596   6.429   4.466   7.995 -1.1925 -0.8186 -0.6664
  531MOL0     O71597   6.669   4.394   7.760  0.2051  0.2796 -0.3542
  531MOL0     C71598   6.472   4.491   7.489  0.0785  0.7447  0.3867
  531MOL0     C71599   6.482   4.531   7.357  0.6505 -1.2659  0.0610
  531MOL0     N71600   7.104   4.686   7.118 -0.2119 -0.3314  0.9176
  531MOL0     N71601   7.144   4.679   7.239  0.7623 -0.5830 -0.3079
  531MOL0     C71602   6.924   5.137   8.400  0.2818  0.2068  0.2976
  531MOL0     C71603   6.944   5.179   8.534 -0.2492 -0.4364  0.6230
  531MOL0     C71604   7.044   5.312   8.950 -0.8443 -0.0949  0.2242
  531MOL0     C71605   6.960   5.279   9.059 -0.6273  0.2072 -0.5872
  531MOL0     C71606   6.952   5.358   9.172  0.1190 -0.2050 -0.9574
  531MOL0     C71607   7.036   5.466   9.193 -0.4017 -0.2408  0.2439
  531MOL0     O71608   7.038   5.544   9.308  0.4258 -0.3635  0.1170
  531MOL0     C71609   6.922   5.634   9.322  0.4080 -0.5414 -0.5564
  531MOL0     C71610   6.959   5.754   9.409 -0.4138 -0.6980  0.2353
  531MOL0     C71611   6.835   5.854   9.433 -1.1013  0.4277 -0.0289
  531MOL0     C71612   6.858   5.934   9.563 -1.0232  0.0613 -0.0799
  531MOL0     C71613   6.966   6.028   9.549 -0.2505  0.2626 -0.1362
  531MOL0     C71614   7.048   6.122   9.549 -0.5833  0.6353 -0.0258
  531MOL0     C71615   7.142   5.487   9.094  0.3813  0.1486  0.2381
  531MOL0     C71616   7.138   5.414   8.972 -0.3739  0.0609  0.4037
  531MOL0     C71617   7.238   5.467   8.875 -0.8844 -0.5983  0.3297
  531MOL0     H71618   7.197   5.395   8.501  0.4599 -2.6923  2.2952
  531MOL0     H71619   7.170   5.313   8.256  2.5507 -4.9911  0.0244
  531MOL0     H71620   6.894   4.965   8.167  0.4074 -0.7229 -3.3326
  531MOL0     H71621   6.815   5.131   8.113 -1.2294 -1.1775 -1.2504
  531MOL0     H71622   7.036   4.984   7.981 -0.0481  0.7758 -2.2265
  531MOL0     H71623   6.961   5.139   7.929 -1.1211  2.3708  3.0222
  531MOL0     H71624   6.747   5.000   7.901  0.2084  0.4112 -1.1140
  531MOL0     H71625   6.858   4.853   7.937  0.3471 -0.3154  1.1600
  531MOL0     H71626   6.876   5.045   7.694  3.3385 -1.3085 -3.8357
  531MOL0     H71627   6.997   4.936   7.744  0.3265  3.1710  0.1307
  531MOL0     H71628   6.835   4.744   7.724  0.6113 -1.1184 -1.6637
  531MOL0     H71629   6.717   4.862   7.644  1.2630  1.6900 -1.1713
  531MOL0     H71630   6.812   4.749   7.458  0.5340  0.0235 -2.4350
  531MOL0     H71631   6.882   4.899   7.466 -0.2746  1.0142  2.0197
  531MOL0     H71632   7.008   4.644   7.485 -3.3730 -0.5338  0.5024
  531MOL0     H71633   7.051   4.729   7.628  1.0303  2.3912 -1.1361
  531MOL0     H71634   7.116   4.925   7.469  3.3335 -0.3256  1.4349
  531MOL0     H71635   7.219   4.796   7.487  0.5289  0.4019 -0.2135
  531MOL0     H71636   6.979   4.953   7.252  1.0801  0.4302  1.5558
  531MOL0     H71637   6.881   4.932   7.039  0.3947  1.3732  1.0479
  531MOL0     H71638   7.010   4.915   6.926 -0.4873 -1.3188 -1.9786
  531MOL0     H71639   6.877   4.765   6.819  0.1898 -1.3847 -1.2532
  531MOL0     H71640   6.944   4.646   6.922  0.9626 -1.0786 -1.7552
  531MOL0     H71641   6.708   4.604   6.942  1.6477 -0.5971 -0.7062
  531MOL0     H71642   6.687   4.788   6.964  3.6822  4.3677  6.1882
  531MOL0     H71643   6.767   4.756   7.195 -0.3751 -0.2929 -0.2818
  531MOL0     H71644   6.834   4.606   7.149  0.6681  0.8594  1.6316
  531MOL0     H71645   6.826   4.504   7.330  1.1290  1.8190  1.2456
  531MOL0     H71646   6.801   4.422   7.543  0.6206  0.8689  0.8890
  531MOL0     H71647   6.440   4.185   7.825  1.6098  1.1812  1.1192
  531MOL0     H71648   6.389   4.081   8.042  0.0892 -0.0314  0.6042
  531MOL0     H71649   6.491   4.194   8.428  6.1421  3.0740 -1.4385
  531MOL0     H71650   6.518   4.345   8.345 -0.5575  1.5431  0.3269
  531MOL0     H71651   6.269   4.407   8.416 -1.2839 -3.3668 -0.4032
  531MOL0     H71652   6.285   4.285   8.532  0.0514  1.3124  1.6563
  531MOL0     H71653   6.476   4.527   8.486  1.1761 -1.9922 -0.9367
  531MOL0     H71654   6.347   4.520   8.607  2.7681  2.4205  1.5055
  531MOL0     H71655   6.605   4.359   8.586 -0.4645 -2.4905  1.0522
  531MOL0     H71656   6.481   4.301   8.689  0.4347  0.1731  1.8668
  531MOL0     H71657   6.629   4.410   8.832  1.0843 -0.7339 -1.1658
  531MOL0     H71658   6.485   4.521   8.826  1.5093 -0.2621  2.4583
  531MOL0     H71659   6.744   4.562   8.672  0.7013 -1.2134  0.5398
  531MOL0     H71660   6.598   4.659   8.658  0.5010 -0.0951  0.5203
  531MOL0     H71661   6.793   4.623   8.894  0.7454  2.8715  1.0276
  531MOL0     H71662   6.637   4.706   8.917 -1.8369 -1.2934 -1.1108
  531MOL0     H71663   6.737   4.871   8.731  0.9253  2.1730  1.7224
  531MOL0     H71664   6.827   4.858   8.877  0.6717 -1.1094 -0.3181
  531MOL0     H71665   6.409   4.481   8.210 -0.6677  4.3064 -2.6542
  531MOL0     H71666   6.438   4.574   7.984 -2.1615 -0.3123  2.5239
  531MOL0     H71667   6.375   4.488   7.538  0.2218 -4.9252  0.9877
  531MOL0     H71668   6.402   4.571   7.296  2.5791  0.7854 -1.2655
  531MOL0     H71669   6.840   5.070   8.382 -2.3540  2.6853  2.2911
  531MOL0     H71670   6.871   5.147   8.607  0.0855 -2.0498  0.2897
  531MOL0     H71671   6.894   5.193   9.051  2.0415 -3.0057  5.1299
  531MOL0     H71672   6.870   5.341   9.240  0.0862 -0.4618 -1.0597
  531MOL0     H71673   6.831   5.595   9.368 -1.2572  1.6339 -1.7851
  531MOL0     H71674   6.895   5.674   9.224  0.9821 -1.4757 -1.1101
  531MOL0     H71675   7.047   5.800   9.364  0.1868 -2.0540 -0.0243
  531MOL0     H71676   6.992   5.701   9.498 -1.0482 -1.2491  0.1476
  531MOL0     H71677   6.747   5.789   9.430  0.0658 -1.2880 -3.6164
  531MOL0     H71678   6.818   5.923   9.350  3.3642 -2.5162 -3.9418
  531MOL0     H71679   6.766   5.992   9.579  1.2492  3.7739  0.6946
  531MOL0     H71680   6.891   5.874   9.648  0.0119  1.9417  0.8961
  531MOL0     H71681   7.106   6.212   9.548 -2.6702  2.0764 -0.5086
  531MOL0     H71682   7.205   5.573   9.112  0.8142 -0.7788  4.2354
  531MOL0     H71683   7.185   5.550   8.827  1.2300  0.1844 -0.7926
  531MOL0     H71684   7.329   5.497   8.927 -1.3498 -1.0579  1.4362
  531MOL0     H71685   7.270   5.387   8.807  0.5951 -0.3170  0.6753
  532MOL0     O71686   4.777   4.670   4.516 -0.1660  0.3223 -0.4222
  532MOL0     C71687   4.901   4.669   4.538  0.8983  0.4905 -0.7375
  532MOL0     O71688   4.987   4.642   4.440  0.3069 -0.8076 -0.4199
  532MOL0     C71689   4.947   4.586   4.321  0.3018 -0.1595 -0.8615
  532MOL0     C71690   5.042   4.603   4.218 -0.2944 -0.7544 -0.6899
  532MOL0     C71691   5.027   4.544   4.090  0.0902 -0.5187  1.0167
  532MOL0     C71692   4.920   4.460   4.076 -1.2147  0.4397 -0.2499
  532MOL0     O71693   4.908   4.385   3.964  0.5567  0.3234 -0.5476
  532MOL0     C71694   5.019   4.375   3.876  0.3864  0.9966  0.4513
  532MOL0     C71695   5.020   4.234   3.802  0.7723 -0.0611 -0.0662
  532MOL0     C71696   5.017   4.119   3.903 -0.1425 -0.8885 -1.0809
  532MOL0     C71697   5.040   3.978   3.840  0.6608 -0.2483 -0.0530
  532MOL0     C71698   4.904   3.913   3.805  0.5467 -0.6167 -0.6774
  532MOL0     C71699   4.893   3.762   3.839 -0.1872  0.0462  0.5042
  532MOL0     C71700   5.014   3.680   3.770  0.8967  0.3516  0.1527
  532MOL0     C71701   5.021   3.537   3.802  0.4364  0.9441 -0.3307
  532MOL0     N71702   4.889   3.474   3.798 -0.0323 -0.2234  0.3468
  532MOL0     C71703   4.808   3.487   3.680  0.5942 -0.4204 -0.0054
  532MOL0     C71704   4.708   3.402   3.705 -0.2098 -0.2507  0.2679
  532MOL0     C71705   4.571   3.394   3.642 -0.2960 -1.2687 -0.0254
  532MOL0     C71706   4.466   3.461   3.729  0.6660  1.2044 -0.4000
  532MOL0     C71707   4.392   3.373   3.833 -0.4405  0.0407  0.1172
  532MOL0     C71708   4.362   3.225   3.793  0.2465 -0.0765  0.1321
  532MOL0     O71709   4.299   3.215   3.669  0.3499 -1.3960  0.2334
  532MOL0     C71710   4.249   3.094   3.630 -0.1612  0.0199 -1.0695
  532MOL0     C71711   4.124   3.077   3.606 -0.5164  0.7287 -0.6538
  532MOL0     C71712   4.062   2.961   3.560  0.0904  0.0914 -0.2777
  532MOL0     C71713   4.145   2.856   3.525 -0.2447 -0.5081  0.7829
  532MOL0     C71714   4.096   2.728   3.469 -0.8354 -0.3660  0.0411
  532MOL0     O71715   4.186   2.624   3.440 -0.0942  0.9777  0.2863
  532MOL0     C71716   4.147   2.512   3.365  0.1564  0.0712  0.5375
  532MOL0     C71717   4.059   2.501   3.258  0.2031  0.6500 -0.6226
  532MOL0     C71718   4.058   2.401   3.168 -1.2060  0.0323  0.5893
  532MOL0     C71719   4.157   2.307   3.175 -0.0355  0.1677 -0.8212
  532MOL0     O71720   4.152   2.190   3.106  1.0288  0.1619  0.3716
  532MOL0     C71721   4.033   2.119   3.122  0.1473  0.1691 -0.2732
  532MOL0     C71722   4.062   1.996   3.205  0.4248 -0.4809  0.5019
  532MOL0     C71723   3.959   1.888   3.186 -0.1793  0.0623 -0.0520
  532MOL0     C71724   3.955   1.794   3.303 -0.0416  0.5708 -0.2063
  532MOL0     C71725   3.906   1.653   3.258  0.1033 -0.0287  0.7465
  532MOL0     C71726   3.761   1.621   3.222  0.5692  0.0970  0.9150
  532MOL0     C71727   3.652   1.650   3.337  0.2981 -0.5633  0.4129
  532MOL0     C71728   3.642   1.542   3.446 -0.4054  0.1497  0.1303
  532MOL0    Cl71729   3.767   1.546   3.571 -0.2785  0.3437 -0.0820
  532MOL0     C71730   4.262   2.321   3.269 -0.0518  0.4137  0.3295
  532MOL0     C71731   4.249   2.417   3.364 -0.1953  0.3560 -0.0354
  532MOL0     O71732   3.973   2.718   3.452  0.0429 -0.1606 -0.4155
  532MOL0     C71733   4.288   2.878   3.534 -0.7042  0.3995  0.1782
  532MOL0     C71734   4.339   2.992   3.596 -0.8809  0.6545  0.3375
  532MOL0     N71735   4.743   3.320   3.819  0.3030  0.0587  0.4336
  532MOL0     N71736   4.858   3.365   3.871 -0.3155  0.4098  0.2167
  532MOL0     C71737   4.829   4.440   4.178 -0.3115 -0.3798  0.1033
  532MOL0     C71738   4.841   4.492   4.301  0.4941  0.1367 -0.5657
  532MOL0     C71739   4.941   4.671   4.686  0.3678  0.1443 -0.2114
  532MOL0     C71740   4.864   4.750   4.783 -0.1890  0.4029  0.6191
  532MOL0     C71741   4.912   4.768   4.912 -0.1302 -0.1276  0.3796
  532MOL0     C71742   5.022   4.697   4.947 -0.0961 -0.9889 -0.3195
  532MOL0     O71743   5.059   4.699   5.079 -0.1454 -0.3430  0.7426
  532MOL0     C71744   5.130   4.587   5.141  0.0820 -0.0298 -0.2509
  532MOL0     C71745   5.123   4.581   5.299 -0.4739  0.2477  0.0028
  532MOL0     C71746   5.109   4.727   5.361 -0.5386 -0.2918  0.4527
  532MOL0     C71747   4.968   4.761   5.401  0.8756 -0.9767  0.8606
  532MOL0     C71748   4.920   4.703   5.531 -0.8329 -0.3324  0.8258
  532MOL0     C71749   4.895   4.661   5.644 -0.9751  0.1748  0.4874
  532MOL0     C71750   5.091   4.621   4.862 -0.2836  0.3810  1.0817
  532MOL0     C71751   5.060   4.614   4.721  0.0038 -0.0420 -0.9885
  532MOL0     C71752   5.171   4.548   4.631  0.6807 -0.1602  0.0709
  532MOL0     H71753   5.127   4.665   4.243  0.3781 -1.6374 -0.7107
  532MOL0     H71754   5.096   4.568   4.010  0.4701 -3.7797  0.2189
  532MOL0     H71755   5.008   4.461   3.809  0.6531 -0.4372 -1.4984
  532MOL0     H71756   5.113   4.382   3.931  1.5895  4.0681 -1.7122
  532MOL0     H71757   5.105   4.207   3.738  0.4499 -4.8300  1.1013
  532MOL0     H71758   4.928   4.230   3.743  1.4267 -0.5321 -1.0888
  532MOL0     H71759   4.922   4.120   3.956 -0.7561 -5.3756 -1.7070
  532MOL0     H71760   5.096   4.148   3.973 -4.5188  2.7340  3.0701
  532MOL0     H71761   5.105   3.976   3.752  1.3179 -0.3610  0.4271
  532MOL0     H71762   5.098   3.918   3.911 -2.0978 -2.2474  0.6784
  532MOL0     H71763   4.819   3.966   3.847  1.1168  1.2352 -1.7820
  532MOL0     H71764   4.888   3.926   3.698 -0.8368  0.8953 -0.3270
  532MOL0     H71765   4.892   3.767   3.949  0.2518  0.7605  0.4810
  532MOL0     H71766   4.791   3.736   3.810 -0.7871 -1.8665  3.7805
  532MOL0     H71767   5.111   3.712   3.811  0.3323  0.6074  1.3254
  532MOL0     H71768   5.012   3.700   3.662  0.5054  3.5107  0.6404
  532MOL0     H71769   5.090   3.486   3.735 -3.0692  1.2877 -4.6386
  532MOL0     H71770   5.049   3.528   3.908 -1.7346  3.3491  0.5528
  532MOL0     H71771   4.813   3.565   3.604 -1.3330 -0.3889 -0.1465
  532MOL0     H71772   4.578   3.444   3.545  0.1676 -2.3580 -0.5736
  532MOL0     H71773   4.560   3.286   3.624  2.2495 -1.1777 -2.7812
  532MOL0     H71774   4.515   3.539   3.788  0.5171  0.5467  0.6121
  532MOL0     H71775   4.393   3.499   3.657  0.3219 -1.2190 -1.4008
  532MOL0     H71776   4.293   3.411   3.860  0.6534  4.2483 -0.9812
  532MOL0     H71777   4.454   3.374   3.923  3.2512  3.3957 -2.1172
  532MOL0     H71778   4.286   3.194   3.865  0.6761 -3.0535 -0.5675
  532MOL0     H71779   4.456   3.169   3.801  0.2803 -0.1399 -0.6565
  532MOL0     H71780   4.060   3.164   3.617  1.4757  2.1216  0.5880
  532MOL0     H71781   3.954   2.959   3.564  0.0112  2.0038  3.9181
  532MOL0     H71782   3.978   2.573   3.245 -1.0877 -0.6702 -0.0996
  532MOL0     H71783   3.987   2.394   3.086  2.2155  0.1291 -2.6944
  532MOL0     H71784   3.948   2.167   3.170 -1.5790 -1.6418 -1.3383
  532MOL0     H71785   3.999   2.083   3.024 -1.3492  1.1843 -0.1699
  532MOL0     H71786   4.159   1.955   3.174  0.1789  1.0839 -2.8954
  532MOL0     H71787   4.062   2.032   3.308  2.9963  2.8456 -0.4967
  532MOL0     H71788   3.857   1.928   3.182  0.4726  1.7468 -2.6675
  532MOL0     H71789   3.982   1.832   3.095  2.3300  0.8090  0.0247
  532MOL0     H71790   3.875   1.824   3.372  0.4538 -0.9791  1.0893
  532MOL0     H71791   4.050   1.779   3.355  0.8528  4.0608 -0.5421
  532MOL0     H71792   3.909   1.574   3.334 -1.9364 -2.7513 -1.7876
  532MOL0     H71793   3.970   1.630   3.173 -0.3880  0.5838  0.2076
  532MOL0     H71794   3.746   1.680   3.131  1.3124  0.0515  0.7510
  532MOL0     H71795   3.750   1.515   3.197 -3.1037  0.4571  0.4474
  532MOL0     H71796   3.553   1.649   3.292  0.1606 -1.3231  0.7030
  532MOL0     H71797   3.657   1.753   3.374  0.3141  0.6820 -2.7752
  532MOL0     H71798   3.545   1.545   3.496  0.0435  2.8826  1.0048
  532MOL0     H71799   3.663   1.447   3.395 -2.1652  0.6009 -1.5383
  532MOL0     H71800   4.335   2.241   3.273 -2.2281 -1.8298 -1.1378
  532MOL0     H71801   4.331   2.421   3.434 -0.1890 -0.0986 -0.0132
  532MOL0     H71802   4.364   2.811   3.496 -2.8316 -1.3377 -1.2248
  532MOL0     H71803   4.445   3.005   3.614 -0.8525 -1.8222  2.5525
  532MOL0     H71804   4.748   4.372   4.157 -0.1917  0.6462 -4.9395
  532MOL0     H71805   4.782   4.455   4.384  0.4557 -1.7548 -1.3737
  532MOL0     H71806   4.779   4.815   4.763  1.4535  2.3548 -0.3295
  532MOL0     H71807   4.859   4.831   4.982 -1.0278 -0.5378  0.0824
  532MOL0     H71808   5.236   4.594   5.118 -0.2430  1.6836 -1.3882
  532MOL0     H71809   5.097   4.490   5.102  0.0323 -0.4566  0.8231
  532MOL0     H71810   5.209   4.529   5.344  1.9022  1.1079 -3.1677
  532MOL0     H71811   5.036   4.520   5.325 -0.8647 -0.4382 -2.6847
  532MOL0     H71812   5.136   4.796   5.280 -2.3326 -2.3116 -2.0172
  532MOL0     H71813   5.173   4.730   5.450  0.8527 -3.1500 -0.3127
  532MOL0     H71814   4.959   4.869   5.388 -2.9994 -1.2916 -0.3504
  532MOL0     H71815   4.903   4.722   5.322  2.6255  0.6775 -1.5231
  532MOL0     H71816   4.867   4.629   5.742  0.5906 -4.3946 -0.2891
  532MOL0     H71817   5.184   4.570   4.882  1.2126  2.4361 -0.2435
  532MOL0     H71818   5.185   4.623   4.553  0.5832  3.8521  3.5261
  532MOL0     H71819   5.267   4.537   4.684  1.4195 -0.2184 -1.2446
  532MOL0     H71820   5.140   4.453   4.586 -3.5302  1.7541 -1.5533
  533MOL0     O71821   7.611   0.477   8.884  0.5646  0.9978 -0.0896
  533MOL0     C71822   7.644   0.376   8.831  0.6199 -0.1374  0.6304
  533MOL0     O71823   7.675   0.371   8.698 -0.2787 -0.5740 -0.2568
  533MOL0     C71824   7.676   0.481   8.611  0.3266  0.1704  0.7908
  533MOL0     C71825   7.742   0.466   8.484 -0.6361  0.0913 -0.6360
  533MOL0     C71826   7.749   0.579   8.397  0.3311  0.9099 -0.0680
  533MOL0     C71827   7.705   0.707   8.424 -0.0983 -0.6212  0.6208
  533MOL0     O71828   7.709   0.815   8.337 -0.0151 -0.2182  0.3238
  533MOL0     C71829   7.812   0.813   8.239 -0.5417 -0.3298  0.3194
  533MOL0     C71830   7.845   0.948   8.169  0.3250  0.6358  0.9346
  533MOL0     C71831   7.710   1.027   8.146  0.0049 -0.1407 -0.6093
  533MOL0     C71832   7.748   1.156   8.085  0.9976  0.6244  0.8336
  533MOL0     C71833   7.610   1.228   8.060 -0.7806  1.0750  0.8887
  533MOL0     C71834   7.627   1.368   8.000 -0.5643  0.8463 -0.5668
  533MOL0     C71835   7.645   1.489   8.101  1.6078  0.6930 -0.3350
  533MOL0     C71836   7.529   1.493   8.205 -0.4473 -0.3775 -0.4462
  533MOL0     N71837   7.514   1.626   8.269  0.6658 -0.4545 -0.3947
  533MOL0     C71838   7.393   1.686   8.283  1.0159 -0.2496 -0.4274
  533MOL0     C71839   7.423   1.813   8.335 -1.0750  1.1094 -0.5345
  533MOL0     C71840   7.343   1.935   8.377 -0.0627 -0.7394 -0.0723
  533MOL0     C71841   7.309   1.922   8.532  0.8600  0.9137 -0.3174
  533MOL0     C71842   7.435   1.959   8.610 -0.2231  0.2098  0.1355
  533MOL0     C71843   7.403   2.053   8.728 -0.3608 -0.8372  0.3788
  533MOL0     O71844   7.290   2.012   8.808 -0.2736 -0.1525 -0.3723
  533MOL0     C71845   7.334   1.944   8.915  0.7108  0.3745  0.5738
  533MOL0     C71846   7.321   1.803   8.910  0.9116 -0.3389  0.3480
  533MOL0     C71847   7.346   1.715   9.022  0.2487 -0.4582  0.0993
  533MOL0     C71848   7.396   1.786   9.138  0.2431  0.4137  0.1294
  533MOL0     C71849   7.434   1.696   9.255 -1.1060 -0.3604  0.6564
  533MOL0     O71850   7.462   1.770   9.365 -0.1491 -0.3226  0.2027
  533MOL0     C71851   7.525   1.701   9.466  0.6517  1.3015  0.3392
  533MOL0     C71852   7.668   1.684   9.479 -0.2222 -0.0286  0.3781
  533MOL0     C71853   7.722   1.610   9.588  0.0635 -0.7425  0.1265
  533MOL0     C71854   7.645   1.536   9.673  0.6372  0.0592 -0.1191
  533MOL0     O71855   7.708   1.437   9.743 -0.6718  0.4911 -0.1424
  533MOL0     C71856   7.649   1.305   9.718 -0.3712  0.7604  0.3972
  533MOL0     C71857   7.719   1.193   9.802  0.1700  0.1528  0.4160
  533MOL0     C71858   7.770   1.077   9.714 -0.5180 -0.4903 -0.4694
  533MOL0     C71859   7.792   0.960   9.813 -0.3899  0.3405 -0.0998
  533MOL0     C71860   7.848   0.831   9.758 -0.2099  0.0740  0.7349
  533MOL0     C71861   7.998   0.833   9.753  0.1901  0.7364  0.1675
  533MOL0     C71862   8.059   0.694   9.703  0.6616  0.7332 -0.2796
  533MOL0     C71863   8.214   0.680   9.749  0.2794  0.4684  0.1018
  533MOL0    Cl71864   8.304   0.817   9.692 -0.2395 -0.1322 -0.0819
  533MOL0     C71865   7.501   1.556   9.668  0.2660  0.2136  0.3565
  533MOL0     C71866   7.448   1.639   9.571  0.1956  0.1977 -0.3341
  533MOL0     O71867   7.435   1.567   9.257 -0.8943 -1.4095  0.2877
  533MOL0     C71868   7.406   1.926   9.144 -0.4411  0.2117  0.9953
  533MOL0     C71869   7.364   2.002   9.033 -0.0828  0.3834  0.8867
  533MOL0     N71870   7.562   1.827   8.346 -0.0033  0.2351  0.1423
  533MOL0     N71871   7.611   1.716   8.302 -1.0725  0.7056  0.6893
  533MOL0     C71872   7.632   0.718   8.539  0.6869  0.1570 -0.0050
  533MOL0     C71873   7.622   0.613   8.628 -0.8866  0.8320 -0.1743
  533MOL0     C71874   7.675   0.251   8.907  0.1411  0.7208 -1.1775
  533MOL0     C71875   7.701   0.130   8.835  0.2408  0.2538  0.0637
  533MOL0     C71876   7.726   0.011   8.893  0.2316  0.6661 -0.0965
  533MOL0     C71877   7.757   0.009   9.025 -0.3545 -0.2588 -0.6121
  533MOL0     O71878   7.762  -0.112   9.088 -0.5151  0.1479 -0.3050
  533MOL0     C71879   7.851  -0.205   9.022 -0.6271  0.9042  0.3010
  533MOL0     C71880   7.878  -0.323   9.120 -0.6487  0.2025 -0.5492
  533MOL0     C71881   7.981  -0.275   9.226 -0.5526  0.0507 -0.6950
  533MOL0     C71882   8.007  -0.387   9.318  0.3405 -0.0989  0.2753
  533MOL0     C71883   8.046  -0.332   9.448 -0.4005 -0.1210 -0.6603
  533MOL0     C71884   8.070  -0.281   9.555 -0.0306  0.4175  0.6683
  533MOL0     C71885   7.734   0.123   9.104 -0.0590  0.5468  0.4087
  533MOL0     C71886   7.680   0.240   9.053  0.1551  0.6695  1.3897
  533MOL0     C71887   7.643   0.339   9.150  0.8803  0.3987 -0.1122
  533MOL0     H71888   7.790   0.372   8.458  0.8094  1.3358 -2.7466
  533MOL0     H71889   7.778   0.561   8.294  1.3700 -1.0126  0.4936
  533MOL0     H71890   7.902   0.767   8.281  0.1018  2.3251  2.0539
  533MOL0     H71891   7.772   0.758   8.153  0.0447  0.6675 -0.6162
  533MOL0     H71892   7.897   0.936   8.074 -1.9577 -0.4208 -0.2532
  533MOL0     H71893   7.913   0.996   8.240 -0.6335  1.5070  1.2973
  533MOL0     H71894   7.655   1.039   8.240 -0.5074 -4.7720 -0.1036
  533MOL0     H71895   7.638   0.975   8.083  0.9696 -0.8628 -1.1494
  533MOL0     H71896   7.815   1.213   8.149 -2.0438  1.9325  3.1123
  533MOL0     H71897   7.798   1.130   7.991  1.9169 -2.6092  2.0658
  533MOL0     H71898   7.547   1.171   7.991  0.6741  0.5407 -0.0365
  533MOL0     H71899   7.551   1.235   8.152 -2.7655 -1.3720 -0.0685
  533MOL0     H71900   7.691   1.363   7.911 -2.4114  0.3223 -1.9251
  533MOL0     H71901   7.529   1.391   7.958 -1.3055  0.6213  0.9607
  533MOL0     H71902   7.649   1.570   8.028 -2.8933 -1.4888 -3.4610
  533MOL0     H71903   7.732   1.483   8.166  1.1015  2.7217  0.6147
  533MOL0     H71904   7.433   1.460   8.165  0.1454 -5.6860  1.7626
  533MOL0     H71905   7.557   1.414   8.275  1.1075 -0.3555 -1.0155
  533MOL0     H71906   7.305   1.646   8.233 -0.3479  0.5238  1.2317
  533MOL0     H71907   7.389   2.028   8.345 -2.0977  0.9780  1.6688
  533MOL0     H71908   7.249   1.937   8.321  0.9862  0.2236 -1.8467
  533MOL0     H71909   7.222   1.979   8.565  0.9382  0.6520  0.3526
  533MOL0     H71910   7.291   1.821   8.570  1.0329  1.0266  0.0689
  533MOL0     H71911   7.517   1.992   8.545 -0.1153  1.4105  0.8664
  533MOL0     H71912   7.483   1.870   8.652 -0.9486 -0.1401  0.2418
  533MOL0     H71913   7.377   2.154   8.696 -1.7082 -0.5139  2.3223
  533MOL0     H71914   7.493   2.066   8.789  0.0602  1.8544 -0.6768
  533MOL0     H71915   7.296   1.768   8.810  2.5290 -0.2439 -0.1287
  533MOL0     H71916   7.334   1.608   9.013  0.3218 -0.6025  1.5238
  533MOL0     H71917   7.737   1.741   9.419  0.5545  1.7075  2.7756
  533MOL0     H71918   7.829   1.609   9.604  0.3420  1.7469 -1.1002
  533MOL0     H71919   7.543   1.298   9.741  0.2216  0.1567  3.3436
  533MOL0     H71920   7.657   1.303   9.609 -0.3709  0.5850  0.4007
  533MOL0     H71921   7.799   1.230   9.867  0.2936  3.4195 -1.3786
  533MOL0     H71922   7.633   1.159   9.861 -0.8438  3.1282  0.8180
  533MOL0     H71923   7.700   1.042   9.638 -2.2618  0.9984  0.3614
  533MOL0     H71924   7.865   1.111   9.673 -1.2678  1.9201 -0.3946
  533MOL0     H71925   7.694   0.943   9.860 -0.3057  0.5376  0.1515
  533MOL0     H71926   7.851   0.991   9.899 -1.2419  1.1192  0.2262
  533MOL0     H71927   7.805   0.816   9.658 -0.4741 -0.6454  0.9541
  533MOL0     H71928   7.806   0.751   9.819 -2.6538 -1.0111 -2.1042
  533MOL0     H71929   8.028   0.919   9.693  0.3298 -0.0982 -1.0015
  533MOL0     H71930   8.029   0.856   9.855 -0.0840 -0.7016  0.6046
  533MOL0     H71931   8.053   0.670   9.596  4.9351 -1.2425 -0.3035
  533MOL0     H71932   8.009   0.611   9.754  1.6651 -1.3061 -2.4108
  533MOL0     H71933   8.236   0.676   9.857  0.9753  0.8301 -0.0204
  533MOL0     H71934   8.269   0.600   9.701  2.5514  0.4582  2.4675
  533MOL0     H71935   7.440   1.493   9.732 -0.4790  1.7456  1.1961
  533MOL0     H71936   7.340   1.647   9.579  0.4451  1.7741  3.9751
  533MOL0     H71937   7.433   1.981   9.234 -2.1863  1.0155  1.0736
  533MOL0     H71938   7.375   2.109   9.046  1.3356  0.4705 -0.6354
  533MOL0     H71939   7.589   0.815   8.565  0.3953 -0.2669  1.1540
  533MOL0     H71940   7.554   0.618   8.713 -0.0809 -1.3824  0.6528
  533MOL0     H71941   7.689   0.128   8.728  3.6261 -0.5411 -0.3928
  533MOL0     H71942   7.712  -0.071   8.823 -2.5224 -0.0991  1.1990
  533MOL0     H71943   7.950  -0.162   9.004  0.0984 -0.1590  1.5774
  533MOL0     H71944   7.814  -0.242   8.927 -1.4788 -0.1084  1.0081
  533MOL0     H71945   7.932  -0.407   9.077  1.5838  0.2462  1.8899
  533MOL0     H71946   7.785  -0.357   9.166 -1.5503  3.2999  0.2130
  533MOL0     H71947   7.941  -0.193   9.287  0.6793 -0.2476  0.5635
  533MOL0     H71948   8.079  -0.242   9.191  1.5209 -2.8635  1.8127
  533MOL0     H71949   7.914  -0.439   9.340 -0.1242  1.5491  2.4940
  533MOL0     H71950   8.084  -0.458   9.286  3.8699  2.4847  2.3022
  533MOL0     H71951   8.079  -0.213   9.637  1.0984  4.4717 -2.4386
  533MOL0     H71952   7.783   0.113   9.200  1.3621 -0.9713 -0.4191
  533MOL0     H71953   7.626   0.437   9.105 -1.0347  0.0679 -0.2200
  533MOL0     H71954   7.545   0.308   9.188 -0.0027  1.5651 -1.3324
  533MOL0     H71955   7.714   0.342   9.233  2.1386  0.3671 -1.1725
  534MOL0     O71956   3.580   5.427  10.010  0.2307 -0.0490  0.2161
  534MOL0     C71957   3.705   5.402   9.997  0.9892  0.3866  0.6882
  534MOL0     O71958   3.761   5.360   9.878 -0.0243  0.0702 -0.2386
  534MOL0     C71959   3.688   5.342   9.771  0.7014  0.6771  0.0124
  534MOL0     C71960   3.744   5.391   9.649  0.7550  1.1482  0.1495
  534MOL0     C71961   3.686   5.380   9.526  0.3547 -1.4980 -0.5876
  534MOL0     C71962   3.561   5.322   9.507  0.6637 -0.5979 -0.2102
  534MOL0     O71963   3.495   5.317   9.388  0.7148  0.2443  0.2432
  534MOL0     C71964   3.505   5.417   9.282  0.9095  0.1271 -0.0274
  534MOL0     C71965   3.383   5.408   9.187  0.2907 -0.4760 -0.2225
  534MOL0     C71966   3.347   5.533   9.110 -0.0231 -0.7360  0.1041
  534MOL0     C71967   3.241   5.508   9.001 -0.0035  0.5326 -0.7783
  534MOL0     C71968   3.231   5.642   8.926  0.3004 -0.4198  0.6460
  534MOL0     C71969   3.092   5.641   8.852 -0.5335 -0.6629 -0.2036
  534MOL0     C71970   3.058   5.783   8.787 -0.7420 -0.5067  0.2306
  534MOL0     C71971   3.032   5.882   8.895  0.4254  0.0887 -0.4658
  534MOL0     N71972   2.893   5.876   8.950 -0.2810 -0.0159 -0.0927
  534MOL0     C71973   2.782   5.820   8.880  0.6774 -0.4117 -0.5806
  534MOL0     C71974   2.684   5.808   8.978 -0.1663 -0.1419  1.4613
  534MOL0     C71975   2.538   5.755   8.965 -0.2071  0.5351  0.9479
  534MOL0     C71976   2.452   5.878   8.955  0.1477  0.0305  0.0298
  534MOL0     C71977   2.437   5.951   9.092  0.4196 -0.1284  0.7149
  534MOL0     C71978   2.373   6.097   9.063  0.0401 -0.0265  0.9864
  534MOL0     O71979   2.237   6.075   9.050  0.0637 -0.1605 -0.0335
  534MOL0     C71980   2.155   6.091   9.149 -0.3487 -0.0441 -0.2169
  534MOL0     C71981   2.020   6.083   9.119 -0.1758 -0.2900 -0.2956
  534MOL0     C71982   1.922   6.086   9.217  1.5239 -1.0213 -0.4847
  534MOL0     C71983   1.961   6.090   9.357 -1.0242 -0.3426 -0.0863
  534MOL0     C71984   1.861   6.108   9.463 -0.2015 -0.6903 -0.1545
  534MOL0     O71985   1.731   6.105   9.420  0.3208  0.2982 -0.9258
  534MOL0     C71986   1.627   6.122   9.515 -1.1938 -0.1607 -0.5019
  534MOL0     C71987   1.551   6.008   9.548  0.3622 -0.7364  0.1218
  534MOL0     C71988   1.451   6.022   9.644  0.5434 -1.0972 -0.0299
  534MOL0     C71989   1.429   6.155   9.691  0.2296  0.3921 -0.0741
  534MOL0     O71990   1.325   6.161   9.780  0.3563 -0.4131  0.2396
  534MOL0     C71991   1.217   6.253   9.749  0.8532 -1.1556  0.1417
  534MOL0     C71992   1.150   6.254   9.608 -0.1439  0.0437 -1.8845
  534MOL0     C71993   1.100   6.113   9.578 -0.1630  0.4444  0.1446
  534MOL0     C71994   1.006   6.112   9.458  0.6899 -0.1261  0.4647
  534MOL0     C71995   0.869   6.170   9.497  0.0255  0.1931  0.2295
  534MOL0     C71996   0.756   6.130   9.401 -0.2046 -0.4777  0.7099
  534MOL0     C71997   0.773   6.191   9.260  0.1324  0.0969 -1.0998
  534MOL0     C71998   0.654   6.157   9.176  0.4177  0.1783 -0.7414
  534MOL0    Cl71999   0.670   6.227   9.017  0.4762  0.2795  0.0184
  534MOL0     C72000   1.493   6.268   9.649  0.4705 -0.7762  0.7335
  534MOL0     C72001   1.603   6.250   9.567 -0.0743 -1.0396 -0.0820
  534MOL0     O72002   1.903   6.142   9.578  0.9000 -0.7584  0.4949
  534MOL0     C72003   2.099   6.084   9.391 -0.3515 -0.7775 -0.1902
  534MOL0     C72004   2.200   6.080   9.286  0.3902  0.0899 -0.4060
  534MOL0     N72005   2.738   5.816   9.102 -0.0404 -1.3548 -0.6151
  534MOL0     N72006   2.864   5.858   9.083  0.8075  0.3235 -0.5486
  534MOL0     C72007   3.496   5.273   9.624 -0.7966  0.1584 -0.5352
  534MOL0     C72008   3.561   5.280   9.759 -0.1653  0.0093  0.1761
  534MOL0     C72009   3.784   5.430  10.113 -0.2126 -0.1889 -1.1386
  534MOL0     C72010   3.868   5.326  10.155 -0.2331 -0.1144 -0.6152
  534MOL0     C72011   3.957   5.343  10.268  0.3456  0.9383  0.3703
  534MOL0     C72012   3.936   5.454  10.348  0.7020 -0.0446  0.0862
  534MOL0     O72013   4.013   5.485  10.463  0.4808  0.4088 -0.5907
  534MOL0     C72014   4.129   5.407  10.494  0.3192 -1.4218 -0.2057
  534MOL0     C72015   4.204   5.489  10.606 -0.0573  0.1203 -0.8761
  534MOL0     C72016   4.119   5.499  10.736  0.6298 -0.4234  0.6060
  534MOL0     C72017   4.189   5.579  10.846  0.5391 -0.4392  0.3310
  534MOL0     C72018   4.274   5.483  10.917  0.6399 -0.2199 -0.4884
  534MOL0     C72019   4.351   5.402  10.965 -0.1917 -0.3056 -0.3658
  534MOL0     C72020   3.844   5.552  10.315  0.0848 -0.4534 -0.2611
  534MOL0     C72021   3.769   5.543  10.194 -0.2850 -0.9736 -0.3121
  534MOL0     C72022   3.695   5.655  10.160  0.0907  0.2090 -0.3011
  534MOL0     H72023   3.830   5.456   9.653  0.8951  1.0172 -0.6166
  534MOL0     H72024   3.735   5.434   9.446 -0.5960  3.4995  1.8418
  534MOL0     H72025   3.513   5.519   9.322  1.1484  0.8351 -1.7815
  534MOL0     H72026   3.602   5.400   9.235  1.4683 -0.9539  1.4502
  534MOL0     H72027   3.296   5.363   9.234 -0.7753  1.1965 -0.5056
  534MOL0     H72028   3.404   5.333   9.109 -2.4705  0.5484 -2.0943
  534MOL0     H72029   3.434   5.577   9.059 -1.4157 -0.4587 -2.1722
  534MOL0     H72030   3.307   5.602   9.184  2.2333 -0.4596  1.1692
  534MOL0     H72031   3.267   5.430   8.929 -1.6430 -0.5777 -0.2123
  534MOL0     H72032   3.148   5.465   9.038  1.5913 -2.4371  0.0587
  534MOL0     H72033   3.250   5.725   8.994  1.0736 -1.5070  1.7871
  534MOL0     H72034   3.320   5.642   8.862 -0.6597  1.0734 -0.7891
  534MOL0     H72035   3.091   5.579   8.761 -0.3598 -0.5114 -0.3075
  534MOL0     H72036   3.022   5.607   8.929 -0.0876  0.0718  0.5363
  534MOL0     H72037   2.975   5.779   8.715 -0.3207  0.9276 -0.3820
  534MOL0     H72038   3.145   5.823   8.734 -1.3175 -2.2372 -2.2001
  534MOL0     H72039   3.102   5.881   8.979 -0.2776  2.3231  0.2250
  534MOL0     H72040   3.042   5.985   8.860  3.4700  0.4174  1.0309
  534MOL0     H72041   2.770   5.816   8.772 -2.3332  0.0978 -0.3545
  534MOL0     H72042   2.532   5.689   8.878  1.7204  2.1262 -0.4799
  534MOL0     H72043   2.517   5.685   9.046 -4.0281  0.6546  0.2435
  534MOL0     H72044   2.483   5.956   8.884 -1.4124  1.0554  0.4225
  534MOL0     H72045   2.350   5.851   8.925 -0.1939 -0.4241  1.5377
  534MOL0     H72046   2.542   5.973   9.113 -0.2417  2.8622  1.4521
  534MOL0     H72047   2.374   5.909   9.171  1.4868 -0.1663  1.5748
  534MOL0     H72048   2.417   6.146   8.975 -0.0359 -0.6037  0.6146
  534MOL0     H72049   2.396   6.156   9.152 -1.3073 -0.4011  1.6094
  534MOL0     H72050   1.996   6.090   9.014  1.0829  0.6784 -0.5351
  534MOL0     H72051   1.822   6.087   9.173  0.7172 -3.1463  1.1070
  534MOL0     H72052   1.559   5.918   9.488  1.5529 -0.3238 -0.3599
  534MOL0     H72053   1.377   5.947   9.668  2.1850 -1.4319  5.2365
  534MOL0     H72054   1.135   6.232   9.819  2.3343 -0.4594  2.1665
  534MOL0     H72055   1.252   6.355   9.770  0.5094 -0.8430 -0.7376
  534MOL0     H72056   1.062   6.319   9.606 -3.3165 -3.7125  0.5424
  534MOL0     H72057   1.222   6.290   9.534  2.0077 -1.5160 -0.6928
  534MOL0     H72058   1.185   6.049   9.555  0.8523  0.7366  2.7445
  534MOL0     H72059   1.058   6.061   9.665  0.9143  0.1376  0.4893
  534MOL0     H72060   1.001   6.007   9.428  1.2758  0.2626 -1.0733
  534MOL0     H72061   1.045   6.164   9.370 -1.2200  1.0971  0.2975
  534MOL0     H72062   0.882   6.278   9.492 -0.1817  0.2376  0.6282
  534MOL0     H72063   0.839   6.155   9.602  0.5259  5.3747  1.3610
  534MOL0     H72064   0.743   6.022   9.389 -0.6306 -0.5459  1.6287
  534MOL0     H72065   0.660   6.160   9.445  0.5258  1.7201  0.9091
  534MOL0     H72066   0.864   6.150   9.215  1.3630  0.2552  1.0977
  534MOL0     H72067   0.793   6.296   9.283  1.0725  0.4582 -3.3732
  534MOL0     H72068   0.629   6.051   9.179 -2.4577  0.8118  0.6140
  534MOL0     H72069   0.560   6.202   9.207 -0.0784  0.9939 -3.1924
  534MOL0     H72070   1.472   6.365   9.693  2.9896 -0.4119  1.3280
  534MOL0     H72071   1.664   6.329   9.525  1.2995 -2.5678 -1.0793
  534MOL0     H72072   2.135   6.093   9.494 -3.6379 -2.6033  1.2796
  534MOL0     H72073   2.300   6.068   9.325 -0.0988  0.3279  0.9540
  534MOL0     H72074   3.396   5.232   9.608 -0.4410 -0.8015 -0.3739
  534MOL0     H72075   3.499   5.251   9.843 -1.8840  1.5764 -0.4800
  534MOL0     H72076   3.897   5.241  10.094  2.3662  1.4476 -1.7481
  534MOL0     H72077   4.037   5.271  10.282 -1.1488 -1.1762 -1.3811
  534MOL0     H72078   4.191   5.392  10.405  1.9414 -0.7164  0.7664
  534MOL0     H72079   4.104   5.307  10.530 -3.5313 -1.3018 -2.0182
  534MOL0     H72080   4.216   5.589  10.565 -3.5455  0.3845 -1.6333
  534MOL0     H72081   4.307   5.458  10.626  0.0426  0.8248 -0.2807
  534MOL0     H72082   4.114   5.396  10.772  0.9490 -0.3013  1.0097
  534MOL0     H72083   4.031   5.555  10.704 -0.5211 -1.2506  2.2263
  534MOL0     H72084   4.232   5.663  10.792 -2.4097  0.3674 -0.9927
  534MOL0     H72085   4.121   5.613  10.925  0.1503  0.6730 -0.4589
  534MOL0     H72086   4.417   5.330  11.009  2.3009  3.6148  3.0980
  534MOL0     H72087   3.831   5.630  10.389 -0.8804 -1.6930  0.9258
  534MOL0     H72088   3.599   5.647  10.211  1.1389  1.7870  2.1158
  534MOL0     H72089   3.749   5.740  10.202 -1.3731  0.7316  0.5619
  534MOL0     H72090   3.690   5.668  10.052  3.6655 -0.0485 -0.6356
  535MOL0     O72091   7.971   8.313   9.319 -0.3626 -0.7985 -0.3301
  535MOL0     C72092   7.922   8.267   9.212  0.1658 -0.2858  0.0206
  535MOL0     O72093   7.786   8.248   9.194  0.4902 -0.9718  0.2731
  535MOL0     C72094   7.704   8.327   9.265 -0.2645 -0.8267  0.6385
  535MOL0     C72095   7.660   8.303   9.396  0.5086  0.1276 -0.0593
  535MOL0     C72096   7.558   8.371   9.459 -0.2593 -0.3133  0.1723
  535MOL0     C72097   7.503   8.477   9.390  0.5718 -0.2128 -0.0177
  535MOL0     O72098   7.400   8.546   9.442 -0.3558  0.3565  0.2691
  535MOL0     C72099   7.273   8.475   9.448  0.6210  0.8166 -0.4379
  535MOL0     C72100   7.184   8.475   9.321 -0.3359  0.7198 -0.1718
  535MOL0     C72101   7.156   8.619   9.270 -0.4883 -0.0322  0.9968
  535MOL0     C72102   7.029   8.686   9.343  0.0245 -0.7762  0.1600
  535MOL0     C72103   7.037   8.843   9.366 -0.4991 -0.0989  0.1170
  535MOL0     C72104   7.157   8.874   9.452 -0.3651 -0.3803  0.6973
  535MOL0     C72105   7.148   9.014   9.522 -0.0928 -0.0630 -0.2628
  535MOL0     C72106   7.104   9.004   9.665 -0.2420 -0.4967 -0.1278
  535MOL0     N72107   7.101   9.140   9.726 -0.0737  0.5087 -0.4014
  535MOL0     C72108   7.212   9.208   9.772 -0.9960 -0.2701  0.7153
  535MOL0     C72109   7.171   9.318   9.822 -0.8779  0.8849 -0.2820
  535MOL0     C72110   7.263   9.393   9.915  0.4770  0.0196  0.1125
  535MOL0     C72111   7.352   9.488   9.841  0.0192  0.2210 -0.7573
  535MOL0     C72112   7.374   9.606   9.927  0.6625 -0.0847 -0.3420
  535MOL0     C72113   7.450   9.722   9.852 -0.1994  0.0115 -0.0857
  535MOL0     O72114   7.426   9.842   9.934 -0.5479  0.6094 -0.2004
  535MOL0     C72115   7.469   9.967   9.889  0.5331 -0.1698  0.0530
  535MOL0     C72116   7.545  10.001   9.787  0.1154  0.0239 -0.1574
  535MOL0     C72117   7.562  10.129   9.745 -0.1881  0.2412 -0.2056
  535MOL0     C72118   7.493  10.231   9.817  0.1985  0.1066 -0.2847
  535MOL0     C72119   7.506  10.373   9.769  0.9148 -1.7852 -0.4577
  535MOL0     O72120   7.447  10.479   9.848 -0.0931  0.1654 -0.3509
  535MOL0     C72121   7.486  10.616   9.818 -0.6795  0.4492 -0.1512
  535MOL0     C72122   7.539  10.685   9.927  0.2992  0.4459 -0.1935
  535MOL0     C72123   7.572  10.821   9.921 -0.3432  0.0859  0.8029
  535MOL0     C72124   7.549  10.888   9.802 -0.0059 -0.5381  0.3222
  535MOL0     O72125   7.580  11.023   9.771  0.8468  0.1503  0.4150
  535MOL0     C72126   7.673  11.079   9.861  0.3024  0.3779  0.3867
  535MOL0     C72127   7.762  11.196   9.806 -0.3955 -0.0388  0.1540
  535MOL0     C72128   7.686  11.282   9.704 -0.7096 -0.0383  0.0722
  535MOL0     C72129   7.753  11.422   9.689 -0.3282 -0.3208 -0.4944
  535MOL0     C72130   7.695  11.478   9.563 -0.5429 -1.0360  1.0554
  535MOL0     C72131   7.749  11.628   9.515  0.7274 -0.1108  0.0145
  535MOL0     C72132   7.894  11.640   9.488 -0.0641  0.3294 -0.2108
  535MOL0     C72133   7.950  11.782   9.466  0.7491  0.0762 -0.2289
  535MOL0    Cl72134   7.949  11.887   9.609 -0.1809  0.1942 -0.4154
  535MOL0     C72135   7.476  10.823   9.704 -0.7497  0.1028  0.0237
  535MOL0     C72136   7.445  10.690   9.709 -0.0128  0.2098 -0.2020
  535MOL0     O72137   7.558  10.395   9.665  0.0390 -0.4026  0.0333
  535MOL0     C72138   7.420  10.201   9.930  0.0162  0.3666  0.7292
  535MOL0     C72139   7.418  10.068   9.971  0.1390 -0.0603  0.1791
  535MOL0     N72140   7.037   9.338   9.792  0.4090  0.4953 -0.2172
  535MOL0     N72141   6.995   9.229   9.729 -0.0313 -0.3699  0.0280
  535MOL0     C72142   7.528   8.501   9.251  0.6963  0.4014 -0.4968
  535MOL0     C72143   7.633   8.425   9.190 -0.0457  0.4646 -0.4349
  535MOL0     C72144   8.011   8.198   9.118  0.8677  1.1104  0.0528
  535MOL0     C72145   7.956   8.098   9.039  0.6958 -0.3395 -0.4033
  535MOL0     C72146   8.015   8.032   8.942 -0.3192 -0.0410  0.2112
  535MOL0     C72147   8.155   8.053   8.921 -0.4484 -0.5085  1.6693
  535MOL0     O72148   8.231   7.958   8.851  0.1119  0.0867  0.6318
  535MOL0     C72149   8.365   7.913   8.888 -0.4029  0.2771 -0.1538
  535MOL0     C72150   8.375   7.759   8.870 -0.8155  0.0039 -0.1748
  535MOL0     C72151   8.333   7.698   8.732 -0.3203 -0.0724 -0.0543
  535MOL0     C72152   8.183   7.684   8.712 -0.1439 -0.9538  0.2636
  535MOL0     C72153   8.142   7.609   8.591  0.3150  0.6303 -0.9078
  535MOL0     C72154   8.108   7.520   8.513 -0.0472  0.4951 -0.8022
  535MOL0     C72155   8.221   8.158   8.998  0.8438  0.0014  0.4280
  535MOL0     C72156   8.143   8.232   9.092  0.4650 -0.5368  0.3897
  535MOL0     C72157   8.211   8.348   9.162 -0.2501  0.1577 -0.1662
  535MOL0     H72158   7.701   8.208   9.429  0.6444 -0.5274 -1.9357
  535MOL0     H72159   7.521   8.350   9.559 -1.1989 -0.7525 -0.2475
  535MOL0     H72160   7.286   8.370   9.474  0.7194  1.2203  1.2106
  535MOL0     H72161   7.225   8.510   9.540  2.9208 -2.0394  2.0187
  535MOL0     H72162   7.096   8.412   9.342 -0.9325  1.2030 -1.1358
  535MOL0     H72163   7.238   8.423   9.241 -0.4008  4.1345 -2.6148
  535MOL0     H72164   7.134   8.609   9.164  0.2767  1.3594  0.6901
  535MOL0     H72165   7.248   8.678   9.266  0.8382 -2.0486 -2.0144
  535MOL0     H72166   6.930   8.677   9.296  0.3975 -2.1192 -0.4088
  535MOL0     H72167   7.024   8.644   9.444 -1.4579  0.8886  0.8377
  535MOL0     H72168   7.054   8.897   9.272  4.1488  1.1957  1.4286
  535MOL0     H72169   6.944   8.885   9.407  0.2792  2.1010 -0.2247
  535MOL0     H72170   7.177   8.787   9.516 -0.5311 -2.2161 -1.6219
  535MOL0     H72171   7.241   8.883   9.382  0.2404  0.8521  1.5283
  535MOL0     H72172   7.100   9.092   9.463 -1.0351 -0.8731 -0.5809
  535MOL0     H72173   7.250   9.054   9.526 -0.3734  0.5507  1.6401
  535MOL0     H72174   7.000   8.972   9.679 -0.7743  1.2251  0.1210
  535MOL0     H72175   7.180   8.953   9.724  2.0848  3.3579  0.5599
  535MOL0     H72176   7.310   9.163   9.783  0.1839  0.9757 -3.0089
  535MOL0     H72177   7.205   9.449   9.988  0.7469 -0.8760  1.0407
  535MOL0     H72178   7.326   9.321   9.968 -1.7865 -0.0680  2.9087
  535MOL0     H72179   7.445   9.436   9.815  1.4031  1.2589  1.7546
  535MOL0     H72180   7.292   9.529   9.760 -0.2562 -2.1645 -1.8391
  535MOL0     H72181   7.413   9.568  10.022 -2.0028 -2.8375 -0.1932
  535MOL0     H72182   7.279   9.646   9.964  2.4637  2.7235  1.6317
  535MOL0     H72183   7.405   9.731   9.753  1.8163 -1.1367 -1.1603
  535MOL0     H72184   7.556   9.699   9.841  0.5601  1.7953  2.5560
  535MOL0     H72185   7.577   9.911   9.735 -1.8727 -0.5163 -0.5409
  535MOL0     H72186   7.623  10.158   9.659 -0.1941  4.8226  1.0458
  535MOL0     H72187   7.565  10.618  10.009  3.3358 -2.4263 -3.1971
  535MOL0     H72188   7.620  10.871  10.005 -2.7000 -1.0887  3.0111
  535MOL0     H72189   7.623  11.104   9.955 -0.4624 -1.7945  0.6146
  535MOL0     H72190   7.747  11.002   9.885 -1.6320 -1.9618 -0.7374
  535MOL0     H72191   7.800  11.263   9.884 -4.4426  1.5252  1.0800
  535MOL0     H72192   7.851  11.157   9.758 -0.2084  0.8586 -0.2581
  535MOL0     H72193   7.681  11.230   9.608  1.0217  0.1232 -0.1354
  535MOL0     H72194   7.581  11.303   9.729 -1.1731 -0.2334 -1.5894
  535MOL0     H72195   7.862  11.414   9.694 -0.3503  0.0878  2.4923
  535MOL0     H72196   7.716  11.475   9.777  0.3166 -1.2057  0.3282
  535MOL0     H72197   7.586  11.481   9.560 -0.5505  2.0009 -2.3863
  535MOL0     H72198   7.722  11.403   9.488  2.5031  1.3727 -0.4644
  535MOL0     H72199   7.687  11.662   9.432 -0.1796  0.1803  0.7880
  535MOL0     H72200   7.739  11.696   9.600  3.0748  2.0428 -1.2865
  535MOL0     H72201   7.916  11.583   9.397  1.9227  1.4889 -0.5042
  535MOL0     H72202   7.956  11.607   9.572  2.5092 -0.6722 -2.3421
  535MOL0     H72203   8.045  11.779   9.413 -1.3483  3.0099 -4.8307
  535MOL0     H72204   7.897  11.834   9.385 -1.3562 -0.9125  0.4530
  535MOL0     H72205   7.455  10.879   9.614 -0.4558  0.2903  0.0702
  535MOL0     H72206   7.390  10.664   9.619  1.8618 -1.4136 -0.9587
  535MOL0     H72207   7.376  10.290   9.974  2.1086  3.4338 -2.9058
  535MOL0     H72208   7.367  10.028  10.058 -0.2133 -0.7764 -0.3469
  535MOL0     H72209   7.462   8.567   9.196 -2.2146 -1.6370  0.2837
  535MOL0     H72210   7.660   8.450   9.087  2.2145 -0.4509 -0.1254
  535MOL0     H72211   7.856   8.057   9.052  0.0954  0.9428 -0.7718
  535MOL0     H72212   7.966   7.949   8.892  0.4287  0.5255 -1.5112
  535MOL0     H72213   8.396   7.957   8.983  0.9758 -1.2337  0.1373
  535MOL0     H72214   8.434   7.944   8.809  0.7133 -2.2762 -0.2659
  535MOL0     H72215   8.323   7.714   8.955  2.3140  1.4516  2.7325
  535MOL0     H72216   8.478   7.732   8.894 -1.0410  0.3849  1.3171
  535MOL0     H72217   8.397   7.611   8.715 -0.6673 -0.0631 -1.4777
  535MOL0     H72218   8.361   7.766   8.652 -2.3279  0.7807 -0.0792
  535MOL0     H72219   8.141   7.638   8.802 -2.0008 -0.2494 -0.2128
  535MOL0     H72220   8.138   7.783   8.701 -1.3646 -1.7308 -2.5648
  535MOL0     H72221   8.091   7.448   8.436 -0.4087  0.0756 -0.3329
  535MOL0     H72222   8.326   8.187   8.995  0.2045  3.8865  5.0365
  535MOL0     H72223   8.141   8.427   9.189  1.1841  0.5369  2.8978
  535MOL0     H72224   8.271   8.328   9.251 -0.7078  1.7715  0.5431
  535MOL0     H72225   8.286   8.376   9.088  0.0708 -0.9718 -0.2963
  536MOL0     O72226   9.791   6.653  10.182 -0.8285  0.0482  0.3731
  536MOL0     C72227   9.868   6.675  10.090  0.1217  0.0736 -0.1240
  536MOL0     O72228   9.856   6.644   9.957 -0.0745 -0.3700 -0.2396
  536MOL0     C72229   9.745   6.584   9.918 -0.2588 -0.3461  0.6506
  536MOL0     C72230   9.631   6.655   9.876 -0.3626 -0.4038  0.4699
  536MOL0     C72231   9.514   6.588   9.827 -0.4220  0.0745 -1.5737
  536MOL0     C72232   9.503   6.448   9.836  0.2258  0.4782 -0.8737
  536MOL0     O72233   9.387   6.370   9.800  0.0291  0.1480  0.0962
  536MOL0     C72234   9.264   6.438   9.804  1.1617  0.6101 -0.8045
  536MOL0     C72235   9.145   6.342   9.779  1.0777 -0.4211  0.4106
  536MOL0     C72236   9.007   6.408   9.805 -0.0817  0.1465 -0.2612
  536MOL0     C72237   8.912   6.291   9.802  0.2958 -0.0089  0.5751
  536MOL0     C72238   8.766   6.342   9.803 -1.0277  0.9159 -0.1068
  536MOL0     C72239   8.676   6.228   9.854 -0.5288  0.7713 -0.4283
  536MOL0     C72240   8.541   6.283   9.882  0.6205 -0.1905  0.2854
  536MOL0     C72241   8.441   6.170   9.911  0.2630  0.5403 -0.0982
  536MOL0     N72242   8.401   6.098   9.783 -0.6991 -0.3933  0.1168
  536MOL0     C72243   8.327   6.165   9.683  0.5783 -0.3226  0.6025
  536MOL0     C72244   8.331   6.089   9.577 -0.3202  0.2047  0.3631
  536MOL0     C72245   8.262   6.120   9.448  0.3348 -0.5155  0.7581
  536MOL0     C72246   8.354   6.172   9.338 -0.1087  0.6821  0.3134
  536MOL0     C72247   8.294   6.282   9.249 -0.5616  0.7230 -0.2297
  536MOL0     C72248   8.147   6.263   9.209  0.2612  0.1911  0.3746
  536MOL0     O72249   8.116   6.352   9.110 -0.3518 -0.3184  0.4638
  536MOL0     C72250   8.005   6.342   9.029  0.7630 -1.1692 -0.4180
  536MOL0     C72251   7.888   6.297   9.088  0.5052  0.4431  0.1862
  536MOL0     C72252   7.769   6.285   9.014 -0.3713  0.5717 -0.6699
  536MOL0     C72253   7.771   6.314   8.874 -0.4958 -0.9507  0.3724
  536MOL0     C72254   7.641   6.300   8.794 -0.4639  0.1641 -0.4189
  536MOL0     O72255   7.627   6.363   8.684 -0.8580  0.1769  0.5852
  536MOL0     C72256   7.510   6.347   8.616  0.1572  0.0624  0.1106
  536MOL0     C72257   7.397   6.422   8.655  0.7627  0.2612  0.8783
  536MOL0     C72258   7.269   6.404   8.586 -0.7288 -0.1900  0.8310
  536MOL0     C72259   7.262   6.321   8.480  0.0762  1.0342 -0.3208
  536MOL0     O72260   7.148   6.317   8.401 -0.3115  0.0604 -0.5638
  536MOL0     C72261   7.179   6.333   8.254 -0.8826  0.1749 -0.2279
  536MOL0     C72262   7.046   6.340   8.176 -0.7428 -0.1885 -0.2216
  536MOL0     C72263   6.961   6.451   8.225 -0.4301 -0.5153  0.1269
  536MOL0     C72264   6.832   6.465   8.146  0.4736  0.2245  0.7142
  536MOL0     C72265   6.762   6.602   8.176  0.4179  0.4539 -1.0607
  536MOL0     C72266   6.830   6.726   8.120  0.3983 -0.3528 -0.4449
  536MOL0     C72267   6.766   6.859   8.163 -0.3782  0.5248  0.7244
  536MOL0     C72268   6.823   6.987   8.090  0.5889 -0.1349 -0.1361
  536MOL0    Cl72269   6.718   7.120   8.158 -0.3606  0.1118 -0.3981
  536MOL0     C72270   7.381   6.250   8.442 -0.1440  0.3629  0.0864
  536MOL0     C72271   7.506   6.269   8.500 -0.2499  0.8051 -0.7811
  536MOL0     O72272   7.552   6.232   8.839  0.9075  0.2848 -0.0463
  536MOL0     C72273   7.893   6.364   8.824  0.1815  0.3564  0.5003
  536MOL0     C72274   8.003   6.379   8.898 -0.3943  0.1153  0.7600
  536MOL0     N72275   8.389   5.970   9.613 -0.2654  0.6179 -0.0990
  536MOL0     N72276   8.448   5.979   9.728  1.0007 -0.9866  0.0065
  536MOL0     C72277   9.621   6.377   9.878  0.6010  0.1370 -0.8724
  536MOL0     C72278   9.744   6.445   9.899  0.3391 -0.8083 -0.4371
  536MOL0     C72279  10.007   6.728  10.120 -0.2983  0.8820 -0.2662
  536MOL0     C72280  10.103   6.725  10.014  0.1977  0.6559  0.0133
  536MOL0     C72281  10.237   6.773  10.042 -0.4683 -0.4310  0.2750
  536MOL0     C72282  10.283   6.804  10.168  1.4438  0.3323 -0.2602
  536MOL0     O72283  10.409   6.828  10.200  0.5043  0.2094  0.6565
  536MOL0     C72284  10.508   6.734  10.157 -0.0073 -0.0140 -0.7582
  536MOL0     C72285  10.483   6.586  10.164 -0.1142  0.5338  0.0868
  536MOL0     C72286  10.533   6.513  10.289  0.2145  0.6981  0.6360
  536MOL0     C72287  10.685   6.508  10.301 -0.3450  0.2647 -0.5761
  536MOL0     C72288  10.729   6.576  10.426  0.5996  0.8501 -0.7922
  536MOL0     C72289  10.764   6.627  10.525  0.3187  0.7504 -1.0568
  536MOL0     C72290  10.189   6.813  10.266 -0.2126  0.2415  0.2006
  536MOL0     C72291  10.051   6.784  10.250  0.3616 -0.4059 -0.1473
  536MOL0     C72292   9.956   6.814  10.363  0.1316 -0.5004 -0.3894
  536MOL0     H72293   9.634   6.763   9.891  0.8379 -0.4598  0.7657
  536MOL0     H72294   9.417   6.625   9.797 -2.0794  1.9125  4.5324
  536MOL0     H72295   9.254   6.480   9.904  2.3844  2.7691 -1.5257
  536MOL0     H72296   9.263   6.522   9.734  2.0441  1.7146  0.4695
  536MOL0     H72297   9.142   6.256   9.847 -0.8500 -1.4581 -0.9062
  536MOL0     H72298   9.157   6.307   9.676  0.9179  0.6290  0.0316
  536MOL0     H72299   8.989   6.474   9.720  2.2803 -1.3420 -2.0288
  536MOL0     H72300   9.009   6.463   9.899 -2.8961  0.3807 -0.2705
  536MOL0     H72301   8.925   6.244   9.705 -2.8706 -2.4725  1.1646
  536MOL0     H72302   8.929   6.219   9.882  1.3448  1.9293  2.1882
  536MOL0     H72303   8.765   6.429   9.869 -0.2065  2.3919 -1.9669
  536MOL0     H72304   8.747   6.387   9.705 -1.2440  3.4691  1.0347
  536MOL0     H72305   8.664   6.155   9.773  0.9263  0.6920 -0.6036
  536MOL0     H72306   8.735   6.172   9.927  1.6272  1.4459 -1.5566
  536MOL0     H72307   8.490   6.329   9.797 -3.6207 -4.7841 -0.1069
  536MOL0     H72308   8.545   6.349   9.969  2.2054 -2.0815  1.7491
  536MOL0     H72309   8.488   6.106   9.986  0.2494  1.7218  0.9467
  536MOL0     H72310   8.353   6.202   9.967 -2.1548 -2.4294 -1.8665
  536MOL0     H72311   8.283   6.263   9.691 -1.1158 -1.1600  2.0895
  536MOL0     H72312   8.223   6.025   9.409  0.9236 -0.3435 -0.2780
  536MOL0     H72313   8.182   6.192   9.471 -0.5934 -1.6403  1.1928
  536MOL0     H72314   8.434   6.223   9.392  2.2670 -0.5107 -1.8528
  536MOL0     H72315   8.405   6.088   9.290  1.4511  0.6484  1.8991
  536MOL0     H72316   8.356   6.297   9.160 -1.9864 -0.3037 -1.4524
  536MOL0     H72317   8.305   6.375   9.305 -0.3957  0.5455  0.0378
  536MOL0     H72318   8.084   6.274   9.298  2.2485  1.2898  1.7231
  536MOL0     H72319   8.135   6.165   9.160 -2.1810  1.3671 -1.6551
  536MOL0     H72320   7.880   6.266   9.191 -2.1478  1.1382  0.2777
  536MOL0     H72321   7.689   6.240   9.072  0.8968 -0.6733  0.2153
  536MOL0     H72322   7.419   6.478   8.745 -2.1410 -1.9566  3.2019
  536MOL0     H72323   7.187   6.473   8.605 -0.7672  0.2966 -0.8871
  536MOL0     H72324   7.222   6.433   8.251 -0.8447  0.3415  3.0528
  536MOL0     H72325   7.246   6.265   8.200  0.7427  1.7409 -0.2675
  536MOL0     H72326   7.068   6.353   8.070  3.1730 -0.3021  0.4011
  536MOL0     H72327   6.995   6.244   8.170  3.1845 -2.4692 -0.8185
  536MOL0     H72328   6.931   6.432   8.328 -1.8446  3.2304  0.5551
  536MOL0     H72329   7.016   6.546   8.233 -2.4066  0.6052  1.1536
  536MOL0     H72330   6.767   6.380   8.166  1.3530 -0.7962 -0.6168
  536MOL0     H72331   6.851   6.484   8.040 -1.8127  1.3921  0.4632
  536MOL0     H72332   6.741   6.594   8.283 -0.2919 -0.8510 -1.2744
  536MOL0     H72333   6.663   6.600   8.129 -0.4686  3.6959  0.3891
  536MOL0     H72334   6.938   6.730   8.139  0.6093 -3.7203 -0.4692
  536MOL0     H72335   6.824   6.718   8.012 -1.7246  1.7568 -0.5669
  536MOL0     H72336   6.775   6.878   8.271  2.3723  2.6883  0.2372
  536MOL0     H72337   6.658   6.857   8.146 -0.1886  1.3086 -0.7765
  536MOL0     H72338   6.928   7.008   8.113  0.6200  1.3353 -1.4814
  536MOL0     H72339   6.814   6.977   7.982 -1.4477 -3.4201  0.1972
  536MOL0     H72340   7.381   6.180   8.359  2.4682  3.4255 -2.8034
  536MOL0     H72341   7.596   6.213   8.473  0.0872  1.6885 -1.5377
  536MOL0     H72342   7.895   6.382   8.717  2.0822  1.1412  0.6364
  536MOL0     H72343   8.090   6.436   8.868  1.8771 -0.4144  5.4052
  536MOL0     H72344   9.596   6.273   9.893  3.2142 -0.3712  0.7405
  536MOL0     H72345   9.825   6.376   9.919  0.2805 -0.4558  1.2252
  536MOL0     H72346  10.079   6.682   9.918  0.2175  1.2864 -0.2782
  536MOL0     H72347  10.315   6.757   9.968 -1.1539  1.3170 -0.8824
  536MOL0     H72348  10.596   6.758  10.218 -0.5022  1.3932 -0.5659
  536MOL0     H72349  10.529   6.759  10.053 -0.9127  0.1555 -0.9069
  536MOL0     H72350  10.540   6.542  10.081 -1.7873 -3.2340  0.6901
  536MOL0     H72351  10.382   6.549  10.141  0.6839  0.1946 -3.5566
  536MOL0     H72352  10.517   6.405  10.287  4.1114 -0.0255  1.2077
  536MOL0     H72353  10.484   6.557  10.377  1.3266  0.3114  1.4603
  536MOL0     H72354  10.703   6.401  10.292 -2.9860 -0.2895  0.1821
  536MOL0     H72355  10.752   6.551  10.225 -2.5542 -0.3866 -3.0491
  536MOL0     H72356  10.797   6.643  10.626  0.6718  3.2947 -1.5066
  536MOL0     H72357  10.236   6.850  10.356  6.1226  0.9625 -2.8961
  536MOL0     H72358  10.023   6.866  10.432 -0.2853  0.4992 -0.7152
  536MOL0     H72359   9.877   6.887  10.345 -1.0847 -1.1161  2.0611
  536MOL0     H72360   9.905   6.727  10.404 -4.1488  1.7685 -0.3039
  537MOL0     O72361   0.648  10.498   0.366 -0.0660  0.2522 -0.6429
  537MOL0     C72362   0.718  10.577   0.416 -0.5381  0.3510 -0.1030
  537MOL0     O72363   0.757  10.695   0.361 -0.1025  0.8035  0.1483
  537MOL0     C72364   0.731  10.726   0.239 -0.1290 -0.2189  0.1632
  537MOL0     C72365   0.634  10.678   0.153  0.3361  0.2467 -0.5873
  537MOL0     C72366   0.624  10.732   0.026  0.1445  0.5073  0.9438
  537MOL0     C72367   0.707  10.838  -0.016  0.1475  0.0877  0.1432
  537MOL0     O72368   0.684  10.873  -0.146  0.0377 -1.0030  0.5095
  537MOL0     C72369   0.727  11.009  -0.191 -0.7445  0.6966  0.0375
  537MOL0     C72370   0.694  11.044  -0.342 -0.2743 -0.6882  0.4157
  537MOL0     C72371   0.769  10.963  -0.456  0.4745 -0.9075  0.6560
  537MOL0     C72372   0.699  10.977  -0.598 -0.0497  0.3465  0.3705
  537MOL0     C72373   0.714  10.854  -0.678  0.4509 -0.2927 -0.3354
  537MOL0     C72374   0.586  10.833  -0.747  0.1342 -0.3065  0.3182
  537MOL0     C72375   0.565  10.917  -0.873 -0.5656  0.1344  0.4615
  537MOL0     C72376   0.482  10.849  -0.980  0.1673  0.1433 -0.8298
  537MOL0     N72377   0.559  10.739  -1.041 -0.6804 -0.2971  0.6317
  537MOL0     C72378   0.671  10.759  -1.123  0.4184 -0.5738 -0.4754
  537MOL0     C72379   0.685  10.647  -1.192 -0.4100  0.6001 -0.4668
  537MOL0     C72380   0.788  10.630  -1.300  0.1836 -0.4386 -0.3126
  537MOL0     C72381   0.753  10.681  -1.445  0.6106 -0.6396  0.2964
  537MOL0     C72382   0.865  10.654  -1.552 -0.4901 -0.9657  0.7334
  537MOL0     C72383   0.858  10.509  -1.600  0.3406  1.0079 -0.4360
  537MOL0     O72384   0.982  10.448  -1.648  0.2988 -0.8868 -0.1137
  537MOL0     C72385   1.070  10.516  -1.723 -0.3065  0.2133 -0.1614
  537MOL0     C72386   1.023  10.620  -1.805  0.3027 -0.9267  0.1167
  537MOL0     C72387   1.094  10.690  -1.904 -1.2290 -0.6018 -0.0004
  537MOL0     C72388   1.235  10.659  -1.914 -0.3595  0.3748 -0.1982
  537MOL0     C72389   1.315  10.724  -2.017 -0.2530  0.2350 -0.7991
  537MOL0     O72390   1.446  10.729  -1.996 -0.4946  0.8789  0.3298
  537MOL0     C72391   1.548  10.794  -2.071 -0.1732 -1.0578 -0.8474
  537MOL0     C72392   1.525  10.916  -2.138 -0.0696  0.0808 -0.3713
  537MOL0     C72393   1.628  10.976  -2.205 -0.9185  0.3825  0.0362
  537MOL0     C72394   1.755  10.921  -2.217  0.0886  0.0281  0.3776
  537MOL0     O72395   1.847  10.982  -2.300  0.1248  0.5796  0.8355
  537MOL0     C72396   1.974  10.994  -2.245 -0.2071  0.2640  0.1251
  537MOL0     C72397   2.059  11.102  -2.303 -0.7333  0.1490 -0.1285
  537MOL0     C72398   1.996  11.233  -2.298  0.9832 -0.2791 -0.5334
  537MOL0     C72399   2.028  11.333  -2.413 -0.3536 -0.0370  0.3594
  537MOL0     C72400   2.161  11.410  -2.404 -0.6620  1.1314 -0.6191
  537MOL0     C72401   2.202  11.483  -2.537 -0.6385 -0.1726  1.0868
  537MOL0     C72402   2.343  11.464  -2.591  0.0753 -0.3515 -0.6861
  537MOL0     C72403   2.349  11.345  -2.678 -0.6110 -0.3382  1.5099
  537MOL0    Cl72404   2.284  11.367  -2.844  0.3951 -0.1538 -0.3063
  537MOL0     C72405   1.783  10.812  -2.144  0.0257 -0.1418  0.0202
  537MOL0     C72406   1.683  10.740  -2.070 -0.1335  0.3295  0.2846
  537MOL0     O72407   1.262  10.760  -2.122  0.4281  0.4917  0.1954
  537MOL0     C72408   1.290  10.560  -1.825 -0.1046  0.8327  0.3479
  537MOL0     C72409   1.203  10.483  -1.737  0.9857 -0.0507  0.9288
  537MOL0     N72410   0.584  10.556  -1.164  0.2976 -0.5220 -0.1164
  537MOL0     N72411   0.513  10.613  -1.068 -0.0460  0.0503  0.3342
  537MOL0     C72412   0.802  10.879   0.070 -0.4757 -0.5636  0.4218
  537MOL0     C72413   0.821  10.817   0.193 -0.8911  0.1868  0.2619
  537MOL0     C72414   0.778  10.522   0.542  0.6113  0.6705 -0.1235
  537MOL0     C72415   0.906  10.578   0.568  0.4967  0.4018 -0.2634
  537MOL0     C72416   0.975  10.523   0.677 -0.0421 -0.7216 -0.0038
  537MOL0     C72417   0.912  10.436   0.767  0.5041 -0.1016 -0.0729
  537MOL0     O72418   0.970  10.370   0.867 -1.3227  0.0352  0.0759
  537MOL0     C72419   0.898  10.373   0.993  0.0086  0.1050  0.2474
  537MOL0     C72420   0.990  10.435   1.094  0.8908  0.5464 -0.1354
  537MOL0     C72421   1.088  10.327   1.144  1.0552  0.2060  0.3464
  537MOL0     C72422   1.209  10.288   1.052 -0.2167 -0.3497 -0.8054
  537MOL0     C72423   1.190  10.206   0.935 -0.3415 -0.0161  0.1205
  537MOL0     C72424   1.188  10.145   0.833 -0.1630  0.8536  0.3481
  537MOL0     C72425   0.791  10.386   0.738  1.1405 -0.2587  0.9613
  537MOL0     C72426   0.719  10.434   0.634 -0.3692  0.8277  0.4108
  537MOL0     C72427   0.585  10.373   0.611 -0.3384  0.1032 -1.0942
  537MOL0     H72428   0.548  10.617   0.182  1.3948 -0.7730  0.5527
  537MOL0     H72429   0.537  10.705  -0.032 -0.3677  2.5780  0.6467
  537MOL0     H72430   0.685  11.080  -0.119 -0.2821 -0.6885  1.7531
  537MOL0     H72431   0.834  11.004  -0.170 -0.0277  4.2410 -1.8796
  537MOL0     H72432   0.724  11.149  -0.352 -0.7669 -0.2294  3.2243
  537MOL0     H72433   0.585  11.050  -0.338 -0.3198  5.5289  4.8855
  537MOL0     H72434   0.765  10.857  -0.431 -1.8414 -1.1155 -0.3269
  537MOL0     H72435   0.868  11.010  -0.454 -1.2385  3.1594  0.0302
  537MOL0     H72436   0.598  11.019  -0.598 -0.9124 -1.6247  0.4707
  537MOL0     H72437   0.759  11.047  -0.656  2.1808 -0.6125  1.3947
  537MOL0     H72438   0.801  10.863  -0.744  0.4459  0.0149 -0.3039
  537MOL0     H72439   0.728  10.763  -0.618  0.2832  1.3369  2.3485
  537MOL0     H72440   0.585  10.728  -0.776  0.8175  0.3269 -2.2214
  537MOL0     H72441   0.498  10.850  -0.685  0.3918  2.3420  0.0887
  537MOL0     H72442   0.656  10.951  -0.922  1.0330 -0.9850  2.5236
  537MOL0     H72443   0.514  11.010  -0.846 -1.7266 -0.4637  0.4294
  537MOL0     H72444   0.401  10.805  -0.920 -0.3400  1.7927 -0.2548
  537MOL0     H72445   0.437  10.923  -1.047 -0.1162  0.5179 -0.2375
  537MOL0     H72446   0.730  10.850  -1.121  2.3921 -1.8095  0.0007
  537MOL0     H72447   0.876  10.683  -1.261 -0.5433  2.5309 -2.3321
  537MOL0     H72448   0.806  10.523  -1.314  2.0016 -0.3284  0.8885
  537MOL0     H72449   0.658  10.639  -1.478  1.6238 -0.8887 -2.6661
  537MOL0     H72450   0.720  10.786  -1.444 -2.3128 -1.4113 -1.7594
  537MOL0     H72451   0.964  10.665  -1.507 -0.5788 -0.6070  0.8442
  537MOL0     H72452   0.857  10.728  -1.632 -2.1133 -2.0195 -0.1246
  537MOL0     H72453   0.783  10.499  -1.679 -1.0334  1.9918  0.6873
  537MOL0     H72454   0.820  10.442  -1.522  3.0896 -1.4063 -1.0119
  537MOL0     H72455   0.918  10.646  -1.813  0.1656 -1.7316 -1.0293
  537MOL0     H72456   1.047  10.761  -1.971  3.9089  3.7793  0.3129
  537MOL0     H72457   1.430  10.969  -2.136 -1.1066 -1.7301  0.6902
  537MOL0     H72458   1.603  11.063  -2.264 -2.4450  0.1338  0.2836
  537MOL0     H72459   1.978  11.003  -2.136  0.7367 -1.5478  0.2729
  537MOL0     H72460   2.013  10.895  -2.267 -0.5379 -0.2374  1.6830
  537MOL0     H72461   2.144  11.097  -2.234 -2.3424 -2.4979  1.8558
  537MOL0     H72462   2.094  11.086  -2.405  0.8157  1.2710  0.1818
  537MOL0     H72463   1.893  11.203  -2.314  0.7372 -1.5397  2.7953
  537MOL0     H72464   1.998  11.276  -2.198 -5.0897 -2.8720  1.1226
  537MOL0     H72465   1.945  11.403  -2.426 -1.2233 -0.7971  1.5454
  537MOL0     H72466   2.022  11.274  -2.505 -0.7792  1.2843 -0.4859
  537MOL0     H72467   2.246  11.342  -2.392 -0.8349  1.4828  4.3763
  537MOL0     H72468   2.141  11.474  -2.318 -3.3395 -0.6192  0.1831
  537MOL0     H72469   2.132  11.446  -2.613 -1.9415 -2.3500  3.2052
  537MOL0     H72470   2.192  11.592  -2.537  2.6928  0.2296  0.1416
  537MOL0     H72471   2.411  11.450  -2.506  0.2908  1.4438 -0.5262
  537MOL0     H72472   2.372  11.553  -2.648 -3.6985  1.3420 -0.2571
  537MOL0     H72473   2.452  11.314  -2.697 -0.7677  0.8956 -1.9420
  537MOL0     H72474   2.304  11.255  -2.635  0.7271 -0.6117  2.4064
  537MOL0     H72475   1.882  10.768  -2.150 -0.6568 -1.6037 -1.1023
  537MOL0     H72476   1.707  10.657  -2.005  1.2242  0.8749  0.5277
  537MOL0     H72477   1.392  10.534  -1.850 -0.9526 -0.9003 -1.6358
  537MOL0     H72478   1.245  10.395  -1.689  2.6631  0.1551 -0.0843
  537MOL0     H72479   0.869  10.959   0.039  1.0078 -1.1259  2.0587
  537MOL0     H72480   0.908  10.851   0.248 -0.5613  0.2478 -0.2911
  537MOL0     H72481   0.956  10.634   0.489  1.1690 -1.5024 -1.2637
  537MOL0     H72482   1.078  10.553   0.694 -0.1213 -0.2120 -0.4122
  537MOL0     H72483   0.855  10.277   1.021 -0.7792  0.7223  1.2205
  537MOL0     H72484   0.812  10.437   0.972 -0.7845 -1.8591 -3.3446
  537MOL0     H72485   0.925  10.466   1.176  0.0245  3.3952 -1.7612
  537MOL0     H72486   1.048  10.518   1.054 -1.4588  1.8224 -1.0942
  537MOL0     H72487   1.026  10.237   1.150 -3.4028  2.8963 -0.6024
  537MOL0     H72488   1.123  10.367   1.239  0.4582  1.7154 -0.0456
  537MOL0     H72489   1.229  10.390   1.018 -3.2507  0.7882  0.4879
  537MOL0     H72490   1.284  10.255   1.125 -1.7772 -1.3078  0.4522
  537MOL0     H72491   1.162  10.096   0.742  0.3011  0.0199  0.6489
  537MOL0     H72492   0.765  10.303   0.802 -0.0512 -1.5474 -1.0625
  537MOL0     H72493   0.535  10.383   0.707  0.3930 -0.0480 -0.6886
  537MOL0     H72494   0.511  10.423   0.548 -3.6048 -3.8114 -0.7987
  537MOL0     H72495   0.588  10.267   0.583 -3.8997  0.1022 -2.0224
  538MOL0     O72496   0.056   7.491   1.626  0.4950  0.2610 -0.3138
  538MOL0     C72497   0.012   7.407   1.548  0.3023 -0.0924 -0.5555
  538MOL0     O72498  -0.104   7.418   1.474 -0.0863  0.4500 -0.2149
  538MOL0     C72499  -0.196   7.513   1.513 -0.5199 -1.2300 -0.4661
  538MOL0     C72500  -0.239   7.592   1.410 -0.7242 -1.1360 -0.1079
  538MOL0     C72501  -0.325   7.691   1.437  1.3382 -0.2391  0.3141
  538MOL0     C72502  -0.378   7.717   1.564  1.2826 -0.4016  0.7994
  538MOL0     O72503  -0.471   7.819   1.573 -0.2132 -0.3168  1.4739
  538MOL0     C72504  -0.590   7.781   1.645 -1.2038  0.2290  0.0313
  538MOL0     C72505  -0.666   7.895   1.724 -0.0464 -0.2250 -0.3349
  538MOL0     C72506  -0.810   7.854   1.776  0.7272  0.2205 -0.7896
  538MOL0     C72507  -0.827   7.710   1.822  0.0336  0.5676  0.8672
  538MOL0     C72508  -0.952   7.698   1.911 -0.5895  0.9054  0.0721
  538MOL0     C72509  -0.949   7.559   1.977  0.1028  0.8175 -0.5004
  538MOL0     C72510  -1.048   7.555   2.095 -0.4912  0.6541  0.2520
  538MOL0     C72511  -1.084   7.398   2.120  0.1733 -0.3990  0.9128
  538MOL0     N72512  -1.170   7.329   2.019 -0.8898 -1.2257  0.0702
  538MOL0     C72513  -1.249   7.386   1.923 -0.1554  0.4036 -0.3111
  538MOL0     C72514  -1.287   7.277   1.846 -0.3452 -0.1989  0.6122
  538MOL0     C72515  -1.365   7.276   1.709  0.4942  1.2042 -1.4681
  538MOL0     C72516  -1.514   7.264   1.733 -0.4256  0.3370 -0.2838
  538MOL0     C72517  -1.600   7.223   1.619  0.7700 -0.2492 -0.5602
  538MOL0     C72518  -1.586   7.320   1.507  0.1578  0.8950  0.1362
  538MOL0     O72519  -1.697   7.304   1.408  0.0712  0.2700 -0.2977
  538MOL0     C72520  -1.772   7.412   1.359 -0.4451  0.3162 -0.6488
  538MOL0     C72521  -1.820   7.374   1.233 -0.0354 -0.2782 -0.1863
  538MOL0     C72522  -1.899   7.464   1.164 -0.5600 -1.5311 -0.4974
  538MOL0     C72523  -1.932   7.592   1.215  0.7920 -0.2797  0.1018
  538MOL0     C72524  -2.017   7.692   1.139  0.5626  0.5724 -0.1459
  538MOL0     O72525  -2.021   7.817   1.187  0.4280 -0.1540  0.4222
  538MOL0     C72526  -2.094   7.911   1.125 -0.7440  0.0807  0.3594
  538MOL0     C72527  -2.204   7.955   1.184 -0.7107 -0.2650 -0.2062
  538MOL0     C72528  -2.297   8.031   1.126 -0.3342 -0.4326  1.7674
  538MOL0     C72529  -2.256   8.075   0.998  0.5692 -0.1976 -0.6084
  538MOL0     O72530  -2.336   8.160   0.936  1.0607 -0.0518  0.6694
  538MOL0     C72531  -2.347   8.158   0.787  0.8513  0.2077  0.4952
  538MOL0     C72532  -2.476   8.239   0.759 -0.4875  0.3216 -0.1092
  538MOL0     C72533  -2.608   8.184   0.795 -0.1678  0.2657  0.1432
  538MOL0     C72534  -2.641   8.174   0.947 -0.2589 -0.5583  0.7570
  538MOL0     C72535  -2.780   8.153   0.981 -0.4720 -0.3244 -0.8567
  538MOL0     C72536  -2.817   8.004   0.972 -0.1300 -0.2730 -0.1768
  538MOL0     C72537  -2.938   7.979   1.066  0.3822 -0.2759  1.1197
  538MOL0     C72538  -2.968   7.822   1.067  0.0837  0.1736 -0.3899
  538MOL0    Cl72539  -3.053   7.779   0.912  0.0417  0.2305 -0.2293
  538MOL0     C72540  -2.134   8.041   0.935  0.3853  0.7102  0.6814
  538MOL0     C72541  -2.046   7.958   1.006 -0.4490 -0.3778  0.0689
  538MOL0     O72542  -2.082   7.645   1.053 -0.4349  0.5823  0.2661
  538MOL0     C72543  -1.869   7.621   1.338 -0.1526  0.3804  0.0875
  538MOL0     C72544  -1.791   7.532   1.419  0.2736  0.3801  0.6710
  538MOL0     N72545  -1.230   7.167   1.898  0.1881  0.4562  0.0192
  538MOL0     N72546  -1.164   7.190   2.007 -0.1905 -0.7578 -0.5633
  538MOL0     C72547  -0.321   7.638   1.666  0.1065 -0.6754 -0.4207
  538MOL0     C72548  -0.237   7.527   1.645  0.7101 -0.9840  0.6377
  538MOL0     C72549   0.112   7.293   1.514  0.3444  0.6732 -0.1288
  538MOL0     C72550   0.094   7.228   1.388  0.3388  0.0039 -0.2711
  538MOL0     C72551   0.174   7.127   1.338 -0.2937  0.1804 -0.4024
  538MOL0     C72552   0.278   7.082   1.421  0.6564  0.3229 -1.0040
  538MOL0     O72553   0.359   6.975   1.393  0.6742 -0.5537 -0.3112
  538MOL0     C72554   0.355   6.910   1.270 -0.4670 -0.6604  0.4386
  538MOL0     C72555   0.393   6.993   1.143 -0.1453  1.1975 -0.0305
  538MOL0     C72556   0.534   6.941   1.090 -1.5275  0.1961 -1.0926
  538MOL0     C72557   0.654   6.988   1.182 -0.0330  0.6934  0.4935
  538MOL0     C72558   0.788   6.933   1.127 -0.3776  1.0137 -0.2402
  538MOL0     C72559   0.893   6.887   1.085 -0.1345  0.7862  1.3212
  538MOL0     C72560   0.305   7.144   1.549  0.1737 -1.1429  0.0063
  538MOL0     C72561   0.216   7.246   1.597 -0.3895 -0.2188 -0.4941
  538MOL0     C72562   0.233   7.310   1.736  0.6008 -0.3519 -0.1814
  538MOL0     H72563  -0.208   7.579   1.308  0.2252 -0.9861  0.1568
  538MOL0     H72564  -0.361   7.745   1.350 -0.1221 -2.4004 -0.5144
  538MOL0     H72565  -0.649   7.737   1.565  1.6919 -0.7037 -1.7435
  538MOL0     H72566  -0.569   7.692   1.705  2.2678  0.2501 -0.9281
  538MOL0     H72567  -0.672   7.978   1.653 -0.9106 -0.6925 -0.8167
  538MOL0     H72568  -0.613   7.937   1.810 -1.3622  0.5430  0.1226
  538MOL0     H72569  -0.887   7.878   1.702  0.1561 -2.3762 -1.1445
  538MOL0     H72570  -0.820   7.931   1.853  0.4812 -1.2939  0.7505
  538MOL0     H72571  -0.856   7.657   1.730  3.2156  0.9360 -0.4716
  538MOL0     H72572  -0.732   7.670   1.857  0.2179  0.3951  0.1870
  538MOL0     H72573  -0.941   7.766   1.996 -0.7504 -1.6493  2.2897
  538MOL0     H72574  -1.042   7.704   1.850 -0.0340 -0.8865 -1.0175
  538MOL0     H72575  -0.979   7.485   1.902 -1.7225  1.3703 -0.3842
  538MOL0     H72576  -0.854   7.531   2.023  0.2835 -1.6432 -2.1794
  538MOL0     H72577  -1.135   7.615   2.068  1.5557  4.2566  0.9215
  538MOL0     H72578  -1.011   7.603   2.187 -0.6187  0.3294  0.4745
  538MOL0     H72579  -0.997   7.334   2.135 -1.0622 -2.0350  1.4238
  538MOL0     H72580  -1.152   7.394   2.206 -2.5536  5.8141 -0.4071
  538MOL0     H72581  -1.274   7.490   1.906  1.2516  0.5934 -1.3769
  538MOL0     H72582  -1.338   7.367   1.653  2.6564  2.7435  1.7860
  538MOL0     H72583  -1.330   7.192   1.649 -1.3289 -0.4823 -0.2825
  538MOL0     H72584  -1.529   7.186   1.807  1.8771 -0.6692 -0.8002
  538MOL0     H72585  -1.552   7.362   1.762  0.2659  0.8880 -1.1890
  538MOL0     H72586  -1.704   7.239   1.651  0.6261 -0.0638 -1.1085
  538MOL0     H72587  -1.586   7.118   1.591 -0.0532 -0.1686 -1.3327
  538MOL0     H72588  -1.501   7.298   1.442 -0.8645 -0.3909 -0.8289
  538MOL0     H72589  -1.573   7.420   1.551  1.5529  0.5962  0.4690
  538MOL0     H72590  -1.798   7.284   1.177  0.1975 -0.2278 -0.1796
  538MOL0     H72591  -1.931   7.445   1.062 -0.4892  0.2194 -0.8854
  538MOL0     H72592  -2.217   7.933   1.290 -1.3634 -0.9282 -0.4146
  538MOL0     H72593  -2.387   8.073   1.169 -1.5024  1.0498 -1.7291
  538MOL0     H72594  -2.263   8.219   0.752  0.7336  1.0435  1.6121
  538MOL0     H72595  -2.340   8.058   0.745  3.1718 -0.6176  2.6055
  538MOL0     H72596  -2.469   8.339   0.803 -0.8195 -0.1793  1.1335
  538MOL0     H72597  -2.473   8.242   0.650 -1.8606 -3.5812 -0.4179
  538MOL0     H72598  -2.672   8.257   0.744 -0.8566 -0.0268  0.5696
  538MOL0     H72599  -2.634   8.090   0.746  0.0610  0.2453  0.0610
  538MOL0     H72600  -2.611   8.274   0.979  2.4333 -1.4395  1.2307
  538MOL0     H72601  -2.581   8.100   1.001  0.5372  0.5399  1.4303
  538MOL0     H72602  -2.837   8.216   0.912  0.1971 -1.4272 -2.4650
  538MOL0     H72603  -2.788   8.195   1.082  0.3339  2.0707 -1.7244
  538MOL0     H72604  -2.846   7.978   0.870  2.1719  0.8448 -1.1776
  538MOL0     H72605  -2.733   7.937   0.989  1.0210  0.3585 -2.8802
  538MOL0     H72606  -3.021   8.047   1.044  1.7396  1.2313  0.3270
  538MOL0     H72607  -2.920   8.006   1.170 -2.2192 -2.4347  2.2236
  538MOL0     H72608  -2.869   7.776   1.074  0.1420  0.4495  0.8608
  538MOL0     H72609  -3.028   7.790   1.153  0.9570 -1.1460 -0.2430
  538MOL0     H72610  -2.117   8.084   0.837 -4.7011 -1.8727 -1.7274
  538MOL0     H72611  -1.950   7.923   0.968  0.7333  1.0015  1.5981
  538MOL0     H72612  -1.881   7.724   1.369 -0.6259 -0.4186  2.8013
  538MOL0     H72613  -1.773   7.552   1.524  1.7515  1.8477  0.1814
  538MOL0     H72614  -0.336   7.652   1.773  1.3256 -1.8753 -0.0648
  538MOL0     H72615  -0.200   7.461   1.723  1.0663 -2.2765 -0.5789
  538MOL0     H72616  -0.004   7.247   1.344 -0.8287 -1.7327  1.4308
  538MOL0     H72617   0.144   7.066   1.253  2.4103 -0.2337 -1.1561
  538MOL0     H72618   0.251   6.878   1.258 -1.3298  2.3326 -1.0331
  538MOL0     H72619   0.420   6.822   1.273 -0.7274 -0.9964 -1.6571
  538MOL0     H72620   0.405   7.098   1.169  1.2796  0.9243  0.5447
  538MOL0     H72621   0.318   6.979   1.065 -0.3421 -0.8231  0.4395
  538MOL0     H72622   0.563   6.975   0.990 -0.7304 -2.1524 -1.7385
  538MOL0     H72623   0.550   6.834   1.072 -0.3286 -0.1888  1.7674
  538MOL0     H72624   0.669   7.097   1.178  1.1909  0.5037 -2.5094
  538MOL0     H72625   0.630   6.956   1.284  0.2480  0.3696  0.4594
  538MOL0     H72626   0.969   6.830   1.035 -2.3200 -0.6524 -0.5109
  538MOL0     H72627   0.386   7.115   1.614 -1.9903 -0.5503  3.1939
  538MOL0     H72628   0.333   7.278   1.767  1.3892  0.5708 -1.6901
  538MOL0     H72629   0.228   7.418   1.745  0.5785 -0.4600  1.3922
  538MOL0     H72630   0.161   7.276   1.811  2.9454  1.3542  3.0988
  539MOL0     O72631   4.809  10.849   5.003  0.1294  0.4996  0.7492
  539MOL0     C72632   4.905  10.902   4.941 -0.3342  1.2040 -0.0104
  539MOL0     O72633   5.040  10.891   4.986 -0.0364  0.0488  1.3135
  539MOL0     C72634   5.061  10.785   5.075  0.3182  0.1805  1.1266
  539MOL0     C72635   5.106  10.803   5.205  0.3323  0.8881  0.0948
  539MOL0     C72636   5.118  10.682   5.285 -0.9406 -0.8506  0.3904
  539MOL0     C72637   5.101  10.557   5.226  0.3347  0.1850 -0.3015
  539MOL0     O72638   5.123  10.455   5.318  1.1859  0.8672  0.9712
  539MOL0     C72639   5.088  10.330   5.269 -0.1551  1.6102 -0.2087
  539MOL0     C72640   5.089  10.253   5.409 -0.2767  0.1960 -0.7935
  539MOL0     C72641   5.073  10.104   5.406  0.1272  0.0136  0.7117
  539MOL0     C72642   5.094  10.039   5.531  0.1027 -0.4316 -0.5972
  539MOL0     C72643   4.983  10.078   5.633 -0.3658  0.1928 -0.0164
  539MOL0     C72644   4.993  10.009   5.768 -0.1977 -0.7876 -0.3530
  539MOL0     C72645   4.898  10.074   5.865  0.4484  0.4479 -0.5064
  539MOL0     C72646   4.963  10.085   6.009 -0.3628  0.8875  0.4254
  539MOL0     N72647   4.864  10.115   6.114  0.9533  0.1524  0.4734
  539MOL0     C72648   4.782  10.223   6.121 -0.6045 -1.0471 -0.2267
  539MOL0     C72649   4.742  10.232   6.248  0.2831  0.7515 -0.1215
  539MOL0     C72650   4.656  10.349   6.305 -1.0468 -0.3227  0.8410
  539MOL0     C72651   4.751  10.455   6.363 -0.1358  0.1659 -0.2170
  539MOL0     C72652   4.671  10.567   6.436  0.5290 -0.5894 -0.4432
  539MOL0     C72653   4.558  10.644   6.369  0.5363 -0.6862  0.7897
  539MOL0     O72654   4.595  10.690   6.227  0.1510 -0.2546  0.9523
  539MOL0     C72655   4.706  10.764   6.212 -0.2785  0.1796 -1.3121
  539MOL0     C72656   4.760  10.852   6.311  0.7130  0.3855 -0.8283
  539MOL0     C72657   4.861  10.941   6.273 -0.4201 -0.4156  0.9965
  539MOL0     C72658   4.931  10.920   6.147 -0.4695  0.8900 -0.6541
  539MOL0     C72659   5.054  11.005   6.103 -0.1002  0.2203 -0.8597
  539MOL0     O72660   5.106  10.990   5.975  0.3319  0.0319 -1.0945
  539MOL0     C72661   5.226  11.039   5.957 -0.6273 -0.4377 -0.5175
  539MOL0     C72662   5.242  11.171   5.910 -0.4831 -0.0134  0.3861
  539MOL0     C72663   5.369  11.215   5.874 -0.5297  0.0162 -0.5544
  539MOL0     C72664   5.475  11.123   5.887 -0.9952 -0.4092  0.1265
  539MOL0     O72665   5.595  11.185   5.849 -0.4217 -0.4805  0.3196
  539MOL0     C72666   5.682  11.106   5.768 -0.6277  0.0411 -0.0299
  539MOL0     C72667   5.796  11.200   5.716 -0.6301 -0.2823 -0.2633
  539MOL0     C72668   5.903  11.130   5.628 -0.9040 -0.5783 -0.0703
  539MOL0     C72669   5.983  11.033   5.705 -0.5274  0.4715  1.1797
  539MOL0     C72670   6.098  10.980   5.611  0.3842 -0.1574 -0.1607
  539MOL0     C72671   6.170  10.869   5.684  0.2486  0.0527  0.8750
  539MOL0     C72672   6.301  10.843   5.622  0.2150  0.4496  0.0649
  539MOL0     C72673   6.394  10.758   5.704  0.3928 -0.5710 -0.3707
  539MOL0    Cl72674   6.567  10.772   5.638 -0.2620  0.0543 -0.3423
  539MOL0     C72675   5.458  10.995   5.943 -0.6967  0.1525  1.0618
  539MOL0     C72676   5.334  10.955   5.984  0.1954 -0.1676  0.2812
  539MOL0     O72677   5.087  11.082   6.187 -0.6356  0.4106 -0.0882
  539MOL0     C72678   4.882  10.823   6.062  0.5023  0.2318 -0.9213
  539MOL0     C72679   4.768  10.756   6.093  0.1640  1.1991  0.3381
  539MOL0     N72680   4.798  10.118   6.320 -0.7855 -0.4985 -0.2655
  539MOL0     N72681   4.875  10.063   6.241 -0.0008  1.0672 -0.4260
  539MOL0     C72682   5.048  10.551   5.098 -0.2304 -0.4758  0.4679
  539MOL0     C72683   5.055  10.659   5.015 -0.3640  0.0252 -1.0409
  539MOL0     C72684   4.865  10.987   4.822 -0.1265 -0.3059  0.1241
  539MOL0     C72685   4.740  11.052   4.811  0.4045  0.1523  0.1260
  539MOL0     C72686   4.698  11.128   4.690 -0.2309 -0.3287 -0.3358
  539MOL0     C72687   4.796  11.152   4.588 -0.1055 -0.7123 -1.6107
  539MOL0     O72688   4.759  11.249   4.499  0.1572  1.1417 -0.4636
  539MOL0     C72689   4.841  11.262   4.387  0.5428  0.2026 -0.5470
  539MOL0     C72690   4.781  11.342   4.278 -0.2831  0.4358  0.7393
  539MOL0     C72691   4.784  11.497   4.302 -0.1897 -0.1139 -0.2529
  539MOL0     C72692   4.678  11.549   4.413  0.1292  0.6481 -0.0224
  539MOL0     C72693   4.672  11.684   4.419 -0.4778 -0.2361 -0.3290
  539MOL0     C72694   4.676  11.806   4.415 -0.5899 -0.2984  0.2027
  539MOL0     C72695   4.920  11.090   4.609 -0.2227  0.1608  0.7763
  539MOL0     C72696   4.946  10.996   4.709 -1.8074  0.4473  0.2581
  539MOL0     C72697   5.065  10.903   4.679  0.0509 -0.0005 -0.3326
  539MOL0     H72698   5.131  10.902   5.242  0.7297  1.1550 -0.8787
  539MOL0     H72699   5.157  10.694   5.385 -1.5695 -1.7177  0.7485
  539MOL0     H72700   4.990  10.323   5.220 -0.5363  2.9588  0.3042
  539MOL0     H72701   5.169  10.280   5.217  1.4003  1.6296  2.0805
  539MOL0     H72702   5.006  10.298   5.465 -1.1039 -0.4300 -1.4792
  539MOL0     H72703   5.181  10.288   5.457 -0.1798 -0.3135 -0.5989
  539MOL0     H72704   5.145  10.063   5.334 -0.6669  1.2228 -0.7998
  539MOL0     H72705   4.974  10.082   5.367 -0.5623  3.3553  0.3395
  539MOL0     H72706   5.098   9.932   5.506 -0.9115 -0.5815 -0.1733
  539MOL0     H72707   5.190  10.060   5.579 -0.6086 -0.5503  0.9131
  539MOL0     H72708   4.993  10.184   5.658  1.2109  0.4498 -1.5131
  539MOL0     H72709   4.883  10.054   5.598  0.6509 -1.3055 -2.0458
  539MOL0     H72710   4.969   9.904   5.751  0.2776 -1.0483  0.5303
  539MOL0     H72711   5.097  10.011   5.803  0.6313  1.1706 -2.6500
  539MOL0     H72712   4.811  10.009   5.877  3.3662 -3.9741 -1.0103
  539MOL0     H72713   4.861  10.174   5.839 -0.7465  0.2262  0.2567
  539MOL0     H72714   5.006   9.987   6.033  1.3671  1.2282 -1.1013
  539MOL0     H72715   5.034  10.168   6.014 -1.5348  1.9631 -0.0546
  539MOL0     H72716   4.768  10.292   6.038 -1.1953 -1.1301 -0.2063
  539MOL0     H72717   4.598  10.403   6.230  1.6803  1.9346  0.1870
  539MOL0     H72718   4.589  10.318   6.386 -1.7848  0.1158  0.4147
  539MOL0     H72719   4.822  10.399   6.425  1.6016  1.6127 -0.8122
  539MOL0     H72720   4.816  10.492   6.283  0.5226 -0.9167 -0.1943
  539MOL0     H72721   4.740  10.643   6.474  1.4030 -1.3648 -0.4417
  539MOL0     H72722   4.622  10.528   6.526 -1.9501  0.8289 -1.0701
  539MOL0     H72723   4.508  10.721   6.428  0.2444 -0.2223 -0.0402
  539MOL0     H72724   4.472  10.577   6.364  0.1028 -0.1661  1.0819
  539MOL0     H72725   4.713  10.869   6.407  0.1881  2.7614 -1.4238
  539MOL0     H72726   4.898  11.015   6.343  0.2988 -1.6397  1.9653
  539MOL0     H72727   5.148  11.221   5.889 -1.2598 -0.1355  3.0895
  539MOL0     H72728   5.378  11.311   5.824  1.5031  0.5696  0.7759
  539MOL0     H72729   5.721  11.024   5.829 -0.4006 -1.5061 -2.1637
  539MOL0     H72730   5.640  11.066   5.675 -3.0076 -0.2174  1.0713
  539MOL0     H72731   5.756  11.283   5.657 -3.0060  0.8790  2.7552
  539MOL0     H72732   5.840  11.242   5.807 -0.5166 -0.0672 -0.4158
  539MOL0     H72733   5.853  11.075   5.548  1.9806 -2.5674 -0.6423
  539MOL0     H72734   5.976  11.199   5.584 -1.1326 -0.6376 -0.5523
  539MOL0     H72735   5.924  10.946   5.735 -1.1927  0.1400 -0.9016
  539MOL0     H72736   6.014  11.080   5.798  3.1639  0.7455 -0.0348
  539MOL0     H72737   6.172  11.061   5.609 -0.3912  0.5581 -0.2297
  539MOL0     H72738   6.054  10.951   5.515 -0.4367  4.2102 -1.3210
  539MOL0     H72739   6.185  10.908   5.785 -2.5440  2.7853  0.4059
  539MOL0     H72740   6.114  10.776   5.700 -1.6060  1.0127  0.3563
  539MOL0     H72741   6.352  10.938   5.607  2.1792 -0.5529  0.1774
  539MOL0     H72742   6.301  10.795   5.524  3.3055 -2.8106  1.4748
  539MOL0     H72743   6.380  10.788   5.808 -0.5897  0.3712 -0.7516
  539MOL0     H72744   6.346  10.660   5.689 -2.9180  0.4963  2.0703
  539MOL0     H72745   5.529  10.913   5.942  0.4180  1.0316  2.8481
  539MOL0     H72746   5.318  10.856   6.025  0.5782  0.0566  1.0033
  539MOL0     H72747   4.942  10.809   5.972  0.2464  3.6673 -1.7461
  539MOL0     H72748   4.729  10.680   6.027 -2.5051 -0.3688  3.4524
  539MOL0     H72749   5.030  10.452   5.057 -2.5739  0.4933 -1.0080
  539MOL0     H72750   5.032  10.629   4.913 -1.0133 -1.3085 -0.5276
  539MOL0     H72751   4.664  11.035   4.887  1.8492  0.6901  1.7415
  539MOL0     H72752   4.609  11.189   4.690  0.1806  0.5881  3.7657
  539MOL0     H72753   4.865  11.165   4.343  2.8202  0.2320  0.4688
  539MOL0     H72754   4.937  11.306   4.416  0.7193 -2.2595  3.2976
  539MOL0     H72755   4.675  11.323   4.264 -0.2709  0.0289  1.1723
  539MOL0     H72756   4.833  11.320   4.184 -0.1981  2.7928  0.1703
  539MOL0     H72757   4.775  11.552   4.208  1.6264  1.8899  0.6725
  539MOL0     H72758   4.886  11.514   4.337  0.0546  1.6064 -1.6768
  539MOL0     H72759   4.577  11.510   4.396 -0.0194  1.5052 -1.2831
  539MOL0     H72760   4.707  11.507   4.510  4.6625  0.9885 -1.0110
  539MOL0     H72761   4.674  11.913   4.416  3.2927 -0.0877  2.1304
  539MOL0     H72762   4.999  11.112   4.538 -1.1545 -1.2916 -0.7819
  539MOL0     H72763   5.080  10.888   4.572 -0.8606  0.1143 -0.4855
  539MOL0     H72764   5.150  10.950   4.730 -0.6859 -0.0136  0.9394
  539MOL0     H72765   5.057  10.805   4.727 -0.7116  0.7390  1.0982
  540MOL0     O72766  10.854   4.492   7.632  0.3032  0.8650  0.3100
  540MOL0     C72767  10.920   4.595   7.621 -0.1450 -0.3661 -0.1975
  540MOL0     O72768  11.012   4.620   7.520 -0.9461  0.7108  0.2449
  540MOL0     C72769  11.074   4.505   7.467  0.0922  0.3552 -0.0926
  540MOL0     C72770  11.152   4.422   7.549  1.1919 -0.2995 -0.5754
  540MOL0     C72771  11.231   4.322   7.492 -1.5705 -0.1206 -0.3241
  540MOL0     C72772  11.247   4.311   7.349  0.6187 -0.4011  0.3140
  540MOL0     O72773  11.330   4.224   7.280  0.7592 -0.4251  0.1913
  540MOL0     C72774  11.386   4.117   7.349 -0.5712  0.9954 -1.0852
  540MOL0     C72775  11.453   4.003   7.257  0.6443 -0.1339  0.6905
  540MOL0     C72776  11.342   3.933   7.161 -1.1974 -0.4319 -0.4026
  540MOL0     C72777  11.238   3.861   7.250 -0.2478 -0.0590 -0.5652
  540MOL0     C72778  11.180   3.742   7.166 -0.5270 -0.6982  0.5430
  540MOL0     C72779  11.281   3.635   7.123 -0.4278 -0.5645 -0.4250
  540MOL0     C72780  11.189   3.510   7.108  0.6833  0.4704  0.6910
  540MOL0     C72781  11.258   3.411   7.005 -0.3233  0.4784 -0.0417
  540MOL0     N72782  11.194   3.286   6.973  0.2441 -0.4612 -0.3913
  540MOL0     C72783  11.186   3.175   7.049 -0.8047 -0.1258 -0.3598
  540MOL0     C72784  11.121   3.083   6.981  0.7425  0.7377 -0.3535
  540MOL0     C72785  11.086   2.943   7.019  1.0745  0.0966 -1.2843
  540MOL0     C72786  11.015   2.922   7.154 -0.4628  0.0089 -0.0631
  540MOL0     C72787  10.885   3.008   7.175 -0.3498  0.3542  0.4069
  540MOL0     C72788  10.838   3.006   7.317 -0.0811  1.0766 -0.0128
  540MOL0     O72789  10.934   3.055   7.408  0.7615 -0.0048 -0.1269
  540MOL0     C72790  10.940   3.183   7.431 -0.2778 -0.8056  0.0646
  540MOL0     C72791  10.862   3.279   7.387 -0.5589  0.2234 -0.8858
  540MOL0     C72792  10.884   3.416   7.398  0.0545 -0.6773  0.0410
  540MOL0     C72793  10.989   3.457   7.484 -0.4623  0.8270 -0.0329
  540MOL0     C72794  11.013   3.600   7.511  0.9601  0.8206  0.5690
  540MOL0     O72795  11.120   3.622   7.586  0.1498 -1.2285  0.4756
  540MOL0     C72796  11.155   3.751   7.622  0.0820 -0.0545  1.8933
  540MOL0     C72797  11.089   3.870   7.595  0.1631  0.0460 -0.5681
  540MOL0     C72798  11.127   3.991   7.646  0.2570  0.4570 -0.1598
  540MOL0     C72799  11.233   3.988   7.734 -0.0505 -1.1610  0.8288
  540MOL0     O72800  11.263   4.101   7.806 -0.0095 -0.1399 -0.3899
  540MOL0     C72801  11.165   4.203   7.845 -1.1554  1.1392  0.1530
  540MOL0     C72802  11.246   4.309   7.932  0.7186  0.9350  0.7524
  540MOL0     C72803  11.162   4.409   8.008  0.1025  0.0045 -0.8167
  540MOL0     C72804  11.232   4.552   8.013 -0.1844  0.5531  0.2455
  540MOL0     C72805  11.135   4.666   8.029  0.3464 -0.5687 -1.2847
  540MOL0     C72806  11.201   4.785   8.098  0.2336  0.1592  0.1421
  540MOL0     C72807  11.294   4.865   8.012  0.0411  0.6438 -0.6534
  540MOL0     C72808  11.367   4.980   8.074  0.5669 -0.5168 -0.0040
  540MOL0    Cl72809  11.270   5.106   8.155 -0.0603  0.2317  0.6142
  540MOL0     C72810  11.309   3.872   7.760  0.0045  0.5946 -0.0210
  540MOL0     C72811  11.267   3.753   7.706  0.5267  0.7043  0.7316
  540MOL0     O72812  10.918   3.668   7.475 -0.3542 -0.4926 -0.4302
  540MOL0     C72813  11.067   3.353   7.545  0.2438 -0.1764 -0.4538
  540MOL0     C72814  11.047   3.216   7.508 -0.3267 -0.2674 -0.7159
  540MOL0     N72815  11.105   3.135   6.856  0.6026 -0.6330  1.3911
  540MOL0     N72816  11.151   3.255   6.850  0.0790  0.3629  0.0493
  540MOL0     C72817  11.176   4.408   7.270  0.4126 -1.2750 -0.1041
  540MOL0     C72818  11.112   4.517   7.327  0.2807  0.8676  0.1016
  540MOL0     C72819  10.903   4.711   7.709 -0.1061  0.0717  0.8887
  540MOL0     C72820  10.803   4.690   7.796  0.2132 -1.0304  0.2450
  540MOL0     C72821  10.741   4.794   7.872  0.4426 -0.1236 -1.0922
  540MOL0     C72822  10.792   4.919   7.864  0.4532 -0.0703 -0.8710
  540MOL0     O72823  10.721   5.019   7.924  0.1385  0.3183 -0.4550
  540MOL0     C72824  10.779   5.153   7.926 -0.2676 -0.6557 -0.4416
  540MOL0     C72825  10.698   5.257   8.010  0.1200  0.0530  1.0139
  540MOL0     C72826  10.640   5.218   8.146  1.2618 -0.1878 -0.7936
  540MOL0     C72827  10.730   5.146   8.248  0.2416  1.3265 -0.3547
  540MOL0     C72828  10.721   5.004   8.234 -0.0718 -0.4157  0.0005
  540MOL0     C72829  10.733   4.881   8.224 -0.2586 -0.3672 -0.8396
  540MOL0     C72830  10.908   4.940   7.785 -0.5278 -0.2370 -0.3872
  540MOL0     C72831  10.970   4.836   7.709 -0.8923  0.7901 -0.3540
  540MOL0     C72832  11.089   4.873   7.619 -0.0175  1.3807  0.4750
  540MOL0     H72833  11.140   4.438   7.656  1.7347 -2.0051 -0.2295
  540MOL0     H72834  11.305   4.269   7.550  1.7749  2.3479 -1.9649
  540MOL0     H72835  11.471   4.147   7.411  0.4545 -0.3918 -1.7639
  540MOL0     H72836  11.313   4.074   7.418  0.8849 -0.8887 -0.6439
  540MOL0     H72837  11.511   3.932   7.317 -0.9848 -1.5392  0.6602
  540MOL0     H72838  11.534   4.056   7.206  1.5410 -1.4239  0.7114
  540MOL0     H72839  11.392   3.867   7.089 -1.1144 -1.4488  0.5539
  540MOL0     H72840  11.293   4.004   7.095 -1.3021 -2.7262 -2.9633
  540MOL0     H72841  11.277   3.817   7.343 -0.1179 -4.9014 -2.6259
  540MOL0     H72842  11.163   3.938   7.271  0.6849  2.2281 -4.7476
  540MOL0     H72843  11.098   3.709   7.231 -1.9699  2.4999  0.5337
  540MOL0     H72844  11.138   3.784   7.075 -0.3543 -1.7079 -0.0113
  540MOL0     H72845  11.339   3.665   7.036  2.4820  0.9389  1.8382
  540MOL0     H72846  11.363   3.622   7.194  2.1268 -0.1475 -3.1317
  540MOL0     H72847  11.092   3.535   7.064 -0.8419 -0.9048  3.0615
  540MOL0     H72848  11.174   3.459   7.204 -0.5507 -0.0778  0.2284
  540MOL0     H72849  11.285   3.467   6.916  0.7030  1.8041  1.0532
  540MOL0     H72850  11.354   3.373   7.041 -1.0424 -0.4536  0.9716
  540MOL0     H72851  11.213   3.156   7.152  3.6701  1.0158 -1.1038
  540MOL0     H72852  11.003   2.909   6.955  0.3491  0.8166 -0.7421
  540MOL0     H72853  11.174   2.879   7.009 -0.4900 -2.0669 -1.9607
  540MOL0     H72854  10.998   2.815   7.161  0.5567 -0.0594  2.6067
  540MOL0     H72855  11.090   2.931   7.234 -1.2103 -1.9286  0.9171
  540MOL0     H72856  10.802   2.962   7.120  0.4574  0.9839 -1.3841
  540MOL0     H72857  10.899   3.107   7.131  0.3487 -0.5953 -1.6374
  540MOL0     H72858  10.821   2.899   7.336 -1.1745  1.3085  0.4160
  540MOL0     H72859  10.739   3.053   7.326 -1.3019 -0.9595 -1.8394
  540MOL0     H72860  10.774   3.255   7.329 -0.7972 -0.6662 -0.1868
  540MOL0     H72861  10.818   3.483   7.344  1.5707  2.3155  1.6286
  540MOL0     H72862  10.993   3.876   7.545 -0.6649  0.9796  1.0398
  540MOL0     H72863  11.081   4.085   7.618 -5.1415 -1.0880  2.1899
  540MOL0     H72864  11.120   4.250   7.757  2.1220  1.2542 -1.6278
  540MOL0     H72865  11.100   4.145   7.911  1.2015 -0.1258  1.5017
  540MOL0     H72866  11.311   4.257   8.003  0.9642  1.1181  0.6611
  540MOL0     H72867  11.304   4.373   7.866 -3.3750  3.9417 -0.3618
  540MOL0     H72868  11.069   4.432   7.956 -2.5438 -3.3914  1.8963
  540MOL0     H72869  11.147   4.375   8.111 -1.5581  0.2119 -0.9537
  540MOL0     H72870  11.293   4.561   7.922 -1.2081  2.0015 -0.3344
  540MOL0     H72871  11.303   4.543   8.096 -0.5364  2.3491  0.7667
  540MOL0     H72872  11.057   4.631   8.097  0.8754 -0.7653 -0.7756
  540MOL0     H72873  11.096   4.694   7.931 -0.2205 -0.2007 -0.9598
  540MOL0     H72874  11.120   4.852   8.129  0.0258  0.9444 -1.9129
  540MOL0     H72875  11.259   4.759   8.188  1.7288 -0.3556 -0.9264
  540MOL0     H72876  11.227   4.913   7.940 -0.4606  1.3062  0.2384
  540MOL0     H72877  11.356   4.804   7.945  1.7519 -0.9206  2.1354
  540MOL0     H72878  11.447   4.952   8.143  0.3525  1.8015  1.2991
  540MOL0     H72879  11.416   5.037   7.994 -1.5016  1.1036 -0.2098
  540MOL0     H72880  11.393   3.875   7.828  0.1119  3.2587 -0.1832
  540MOL0     H72881  11.325   3.663   7.724  2.1349  1.6042  0.2257
  540MOL0     H72882  11.147   3.361   7.617  0.7321 -2.9536 -0.5837
  540MOL0     H72883  11.114   3.146   7.556  1.3500  2.4571  1.2468
  540MOL0     H72884  11.204   4.418   7.166  0.8827 -1.1555  0.0336
  540MOL0     H72885  11.075   4.598   7.265 -2.3861 -1.7296 -1.9962
  540MOL0     H72886  10.732   4.608   7.796  1.0143 -1.9636 -4.2815
  540MOL0     H72887  10.648   4.773   7.922 -0.4385  1.8187 -1.7900
  540MOL0     H72888  10.783   5.189   7.822  2.6344  0.2435 -0.0819
  540MOL0     H72889  10.880   5.138   7.964 -0.8725 -2.4042  0.6086
  540MOL0     H72890  10.620   5.296   7.945 -0.1298  0.2793  1.4531
  540MOL0     H72891  10.766   5.341   8.026 -0.6738  0.7783  0.6501
  540MOL0     H72892  10.548   5.160   8.140  0.1431  1.5167 -0.7391
  540MOL0     H72893  10.613   5.317   8.184 -0.4198 -1.5804  1.9595
  540MOL0     H72894  10.830   5.187   8.227 -0.1383  0.3195 -5.5856
  540MOL0     H72895  10.701   5.165   8.351 -1.4117  1.1727 -0.7634
  540MOL0     H72896  10.736   4.775   8.217  0.0062 -0.3724 -0.6500
  540MOL0     H72897  10.953   5.039   7.778  2.3428 -1.5639 -2.2451
  540MOL0     H72898  11.131   4.972   7.640 -1.3839  2.3761 -1.2693
  540MOL0     H72899  11.174   4.808   7.642  0.9431  2.4778  0.0790
  540MOL0     H72900  11.047   4.866   7.519 -2.4967  1.2104  1.4630
  541MOL0     O72901   3.817   9.057  11.312 -0.4014 -0.1408 -0.0077
  541MOL0     C72902   3.701   9.068  11.276 -0.1286 -0.4781 -0.6585
  541MOL0     O72903   3.608   8.966  11.259  0.3264 -0.3943 -0.6409
  541MOL0     C72904   3.663   8.837  11.263  0.2818  0.3956 -0.0118
  541MOL0     C72905   3.720   8.781  11.380 -0.0602 -0.5755 -0.1623
  541MOL0     C72906   3.767   8.649  11.373  0.7550 -1.6184 -0.1833
  541MOL0     C72907   3.760   8.566  11.269 -0.0090 -0.1413  0.7244
  541MOL0     O72908   3.784   8.436  11.300  0.0800  0.3904 -0.3018
  541MOL0     C72909   3.799   8.347  11.193 -0.6486  0.3346 -0.5646
  541MOL0     C72910   3.858   8.218  11.241 -0.4287  0.5556  0.3376
  541MOL0     C72911   3.748   8.122  11.294 -0.4202 -0.8158 -0.3690
  541MOL0     C72912   3.799   7.987  11.333  0.4974  0.5528 -0.4119
  541MOL0     C72913   3.667   7.909  11.359 -0.7975  0.2046  0.6649
  541MOL0     C72914   3.704   7.770  11.389  0.0889  0.8924  0.0356
  541MOL0     C72915   3.596   7.669  11.409  0.4458  0.7258 -0.3471
  541MOL0     C72916   3.523   7.633  11.284 -0.9044 -0.1505  0.1765
  541MOL0     N72917   3.378   7.599  11.291 -0.1312 -0.4492 -0.2974
  541MOL0     C72918   3.315   7.538  11.388  0.1325  0.3542 -0.7225
  541MOL0     C72919   3.185   7.556  11.379 -0.4412 -0.2722 -0.8042
  541MOL0     C72920   3.071   7.514  11.468 -0.2370 -0.4737  0.1015
  541MOL0     C72921   3.027   7.627  11.557  0.4013 -0.2397  0.5272
  541MOL0     C72922   2.911   7.598  11.660  0.4356  0.7947  0.1140
  541MOL0     C72923   2.901   7.449  11.703  0.4399 -0.3842  0.6168
  541MOL0     O72924   3.012   7.400  11.773 -0.4821  0.4317 -0.1223
  541MOL0     C72925   3.011   7.280  11.826 -0.6226 -0.5308 -0.7517
  541MOL0     C72926   2.913   7.174  11.824  0.5568  0.0890 -0.1876
  541MOL0     C72927   2.951   7.049  11.865  0.0397  0.1553 -0.2750
  541MOL0     C72928   3.068   7.035  11.945  0.2080  0.3025  0.8995
  541MOL0     C72929   3.105   6.911  12.017 -0.0594 -0.1140 -0.0124
  541MOL0     O72930   3.016   6.799  12.005  0.3388  0.1610 -0.4266
  541MOL0     C72931   3.042   6.673  12.047 -0.0001  0.1392  0.0735
  541MOL0     C72932   3.107   6.637  12.167  0.1960  0.5476  0.1554
  541MOL0     C72933   3.144   6.508  12.188 -0.2028 -0.1740 -0.2443
  541MOL0     C72934   3.092   6.408  12.106  0.0699  0.2341 -0.4279
  541MOL0     O72935   3.118   6.274  12.119  0.3007  0.7071 -0.4517
  541MOL0     C72936   3.095   6.215  12.246  0.3390 -0.5161  0.5463
  541MOL0     C72937   3.181   6.084  12.258 -0.4097  0.2171 -1.1598
  541MOL0     C72938   3.177   6.045  12.414 -0.1229 -0.6500 -0.5896
  541MOL0     C72939   3.232   5.903  12.429 -0.0020 -0.2964 -0.1061
  541MOL0     C72940   3.266   5.861  12.574 -0.9552  0.3303  0.0972
  541MOL0     C72941   3.291   5.709  12.573  0.2251  1.0129  0.0480
  541MOL0     C72942   3.327   5.667  12.720  0.2189  0.1376 -0.2614
  541MOL0     C72943   3.314   5.519  12.725  0.5329 -0.1210  0.5371
  541MOL0    Cl72944   3.146   5.463  12.731  0.4504 -0.1209 -0.2954
  541MOL0     C72945   3.030   6.449  11.984 -0.8796 -0.2192 -0.2941
  541MOL0     C72946   3.007   6.585  11.965 -0.3750  0.1288  0.0540
  541MOL0     O72947   3.205   6.915  12.088  0.2546  0.4062  0.2639
  541MOL0     C72948   3.161   7.137  11.947 -0.4106 -0.0499 -0.5429
  541MOL0     C72949   3.135   7.258  11.880  0.7317 -0.1872  0.0650
  541MOL0     N72950   3.176   7.643  11.275  0.1714 -0.1266 -0.6587
  541MOL0     N72951   3.283   7.670  11.217 -0.3725  0.9635 -0.4106
  541MOL0     C72952   3.700   8.618  11.157 -0.5909 -0.8635  0.1213
  541MOL0     C72953   3.656   8.755  11.150 -0.4405  1.9329 -0.4680
  541MOL0     C72954   3.636   9.200  11.260  0.1911  0.4828  0.0658
  541MOL0     C72955   3.498   9.196  11.216  0.1875  0.5546 -0.7036
  541MOL0     C72956   3.429   9.308  11.180 -1.4267 -0.2092  0.2726
  541MOL0     C72957   3.507   9.429  11.175  0.9224 -0.3378  0.0604
  541MOL0     O72958   3.467   9.558  11.134 -0.0182  0.4612 -0.4047
  541MOL0     C72959   3.340   9.570  11.058 -0.3223  1.4832 -0.1183
  541MOL0     C72960   3.276   9.703  11.084 -0.7845  0.1941  0.1540
  541MOL0     C72961   3.263   9.754  11.236 -0.4569  0.5569 -0.0313
  541MOL0     C72962   3.119   9.815  11.255  0.7007 -0.4601  0.1653
  541MOL0     C72963   3.103   9.917  11.364 -0.1334  0.3758  0.0586
  541MOL0     C72964   3.121   9.990  11.461  0.8220  0.4593 -0.5518
  541MOL0     C72965   3.641   9.442  11.217  1.0824  0.5035  0.4017
  541MOL0     C72966   3.705   9.331  11.256 -0.2822 -0.1412  0.0055
  541MOL0     C72967   3.852   9.334  11.303 -0.8157  1.0553 -0.5434
  541MOL0     H72968   3.712   8.832  11.475  0.5746  2.7434 -1.7525
  541MOL0     H72969   3.813   8.608  11.463  0.0272  2.6276  2.4015
  541MOL0     H72970   3.709   8.325  11.136 -0.4915 -2.7017  0.1607
  541MOL0     H72971   3.865   8.395  11.120 -2.5511  2.3682 -1.0379
  541MOL0     H72972   3.930   8.233  11.321 -0.3627 -2.2548  0.9060
  541MOL0     H72973   3.918   8.161  11.169  0.0816 -0.7164  1.7267
  541MOL0     H72974   3.684   8.115  11.206  0.1598 -0.6268 -0.8131
  541MOL0     H72975   3.689   8.169  11.373 -0.2966 -1.5005  0.1397
  541MOL0     H72976   3.853   7.943  11.249 -1.3192 -1.6422 -0.5079
  541MOL0     H72977   3.860   7.993  11.424  1.0967  0.2121 -0.7916
  541MOL0     H72978   3.599   7.943  11.438 -3.2950  1.8348 -2.0239
  541MOL0     H72979   3.596   7.903  11.277  0.2443  1.4193 -0.3657
  541MOL0     H72980   3.755   7.735  11.299 -1.7563 -1.1850 -0.2785
  541MOL0     H72981   3.751   7.776  11.487 -0.4131 -0.5160  0.3772
  541MOL0     H72982   3.529   7.699  11.491  1.2524 -2.9034  1.8998
  541MOL0     H72983   3.649   7.577  11.435  0.7348  0.7479 -0.8485
  541MOL0     H72984   3.543   7.713  11.212  0.4151  0.1435  0.8429
  541MOL0     H72985   3.578   7.545  11.249  0.9822  0.4622  1.4732
  541MOL0     H72986   3.365   7.476  11.461  2.3542  1.6641 -1.0552
  541MOL0     H72987   2.992   7.476  11.402  1.4956 -1.6018 -1.3986
  541MOL0     H72988   3.112   7.431  11.526  3.3017 -0.4130 -2.0155
  541MOL0     H72989   3.111   7.668  11.613 -0.5809  2.2313  0.3334
  541MOL0     H72990   3.002   7.716  11.499  6.2808 -0.2009 -2.7032
  541MOL0     H72991   2.814   7.626  11.619  0.4533 -0.8420 -1.1319
  541MOL0     H72992   2.920   7.657  11.752 -3.2607  1.7828  0.0167
  541MOL0     H72993   2.898   7.381  11.617  3.8733 -2.8807  2.2144
  541MOL0     H72994   2.805   7.438  11.753 -0.6276  4.8095  0.2541
  541MOL0     H72995   2.812   7.190  11.787  0.2230  0.4626  0.8542
  541MOL0     H72996   2.889   6.961  11.865  1.6408 -1.2067  3.6928
  541MOL0     H72997   3.147   6.715  12.232 -2.1894  0.0064  2.4631
  541MOL0     H72998   3.180   6.479  12.287 -1.4523  1.9762  0.9216
  541MOL0     H72999   3.127   6.292  12.316  0.8986  2.2795 -2.5241
  541MOL0     H73000   2.987   6.199  12.245  0.8404 -5.2773 -1.3850
  541MOL0     H73001   3.149   6.014  12.181  1.1787  0.4622 -2.0787
  541MOL0     H73002   3.287   6.103  12.239  0.2878 -0.7808  1.2923
  541MOL0     H73003   3.244   6.103  12.477 -0.6186 -0.4110 -0.2742
  541MOL0     H73004   3.073   6.052  12.448  0.2261 -0.3443  0.4741
  541MOL0     H73005   3.326   5.904  12.373 -1.3783 -1.4504 -2.6377
  541MOL0     H73006   3.176   5.835  12.364 -0.7351 -0.0164  0.2210
  541MOL0     H73007   3.179   5.883  12.636 -3.0652  0.9945 -2.8912
  541MOL0     H73008   3.353   5.917  12.610  0.7066 -2.2613  0.4505
  541MOL0     H73009   3.202   5.657  12.537 -0.4631 -1.1181  4.1998
  541MOL0     H73010   3.379   5.682  12.514  0.2023 -1.5886  1.0579
  541MOL0     H73011   3.240   5.703  12.775 -3.1845 -3.0481 -3.0632
  541MOL0     H73012   3.426   5.697  12.754  0.6443 -0.6412 -0.7733
  541MOL0     H73013   3.359   5.480  12.633 -0.1251  1.3266 -0.4353
  541MOL0     H73014   3.362   5.465  12.807  0.6221 -2.7974 -1.1448
  541MOL0     H73015   2.994   6.373  11.914 -0.7382 -1.5863  1.0545
  541MOL0     H73016   2.954   6.609  11.874 -0.3083  0.7412  0.1751
  541MOL0     H73017   3.251   7.126  12.007  0.2832  3.3943 -0.7814
  541MOL0     H73018   3.212   7.334  11.873  0.5270  0.3183  2.5139
  541MOL0     H73019   3.686   8.561  11.066  0.7252  1.5583 -1.7110
  541MOL0     H73020   3.624   8.790  11.052 -2.6554  0.7319 -0.2321
  541MOL0     H73021   3.441   9.107  11.193  1.1108  0.0302 -0.9772
  541MOL0     H73022   3.324   9.302  11.154 -2.0683 -0.6340  2.7156
  541MOL0     H73023   3.265   9.500  11.098  1.5881 -0.3232  0.5094
  541MOL0     H73024   3.359   9.541  10.955  0.0196  0.7295  0.1419
  541MOL0     H73025   3.176   9.681  11.045 -0.2286 -0.0092 -1.2361
  541MOL0     H73026   3.329   9.780  11.027  3.2886 -1.9349  0.6493
  541MOL0     H73027   3.340   9.830  11.241  0.3195 -0.1482 -0.8651
  541MOL0     H73028   3.292   9.672  11.302  1.0832  0.6776 -0.5144
  541MOL0     H73029   3.091   9.880  11.172 -1.2610 -1.7898 -0.2974
  541MOL0     H73030   3.053   9.729  11.268  2.5780 -1.8685  0.7909
  541MOL0     H73031   3.141  10.053  11.545  0.3978  0.3757 -0.3881
  541MOL0     H73032   3.695   9.533  11.195  3.4512  0.0287  3.4456
  541MOL0     H73033   3.858   9.280  11.398 -0.3193 -0.7692 -1.5657
  541MOL0     H73034   3.918   9.285  11.231 -0.1428  0.3256  0.5512
  541MOL0     H73035   3.890   9.436  11.314  2.9857 -0.2659  0.0290
  542MOL0     O73036  11.476   9.211   2.009 -1.0900 -0.3067 -0.1048
  542MOL0     C73037  11.529   9.125   2.073 -0.3340  0.2416  0.4927
  542MOL0     O73038  11.597   9.144   2.186 -0.0234 -0.1925  0.2147
  542MOL0     C73039  11.620   9.268   2.251  0.2501 -0.1288  0.5631
  542MOL0     C73040  11.670   9.246   2.382  0.4335  0.0049  0.5578
  542MOL0     C73041  11.677   9.360   2.462 -1.2553 -1.1088  0.2669
  542MOL0     C73042  11.661   9.492   2.413  0.5276  0.5602 -0.4284
  542MOL0     O73043  11.686   9.597   2.498  0.2115  0.1806  0.2932
  542MOL0     C73044  11.639   9.600   2.634 -0.0294 -0.7423  0.1339
  542MOL0     C73045  11.762   9.631   2.723  0.0332 -0.0901 -0.4107
  542MOL0     C73046  11.718   9.642   2.873  0.0419  0.2871 -0.5531
  542MOL0     C73047  11.836   9.649   2.972 -0.3132 -0.3269 -0.3337
  542MOL0     C73048  11.804   9.711   3.111 -0.4253 -0.8587 -0.0210
  542MOL0     C73049  11.740   9.859   3.113 -0.0833  0.1488 -0.9411
  542MOL0     C73050  11.826   9.973   3.065  0.2178  0.0773  0.4866
  542MOL0     C73051  11.929  10.017   3.166 -0.0526  0.5572 -0.1803
  542MOL0     N73052  11.878  10.112   3.258  0.2063 -0.0202  0.4624
  542MOL0     C73053  11.842  10.072   3.384 -0.0214 -0.6823  0.5708
  542MOL0     C73054  11.794  10.185   3.442  0.0695 -0.0076  0.1807
  542MOL0     C73055  11.741  10.216   3.581  1.0682 -0.4620  0.5584
  542MOL0     C73056  11.789  10.120   3.681 -0.3091  0.0541 -0.5542
  542MOL0     C73057  11.756  10.163   3.826  0.0377 -0.3055 -0.5872
  542MOL0     C73058  11.835  10.086   3.932 -1.1251 -0.2245 -0.6043
  542MOL0     O73059  11.820  10.141   4.061 -0.6557  0.1308 -0.3269
  542MOL0     C73060  11.702  10.136   4.135  0.2731 -0.5557  0.5831
  542MOL0     C73061  11.604  10.038   4.125  0.2087 -0.0232  0.1928
  542MOL0     C73062  11.488  10.041   4.200 -0.4852  0.5648 -0.3732
  542MOL0     C73063  11.476  10.146   4.301 -0.3060  0.2601  0.1536
  542MOL0     C73064  11.357  10.161   4.386  1.0205  0.4332 -0.4574
  542MOL0     O73065  11.358  10.222   4.499 -0.4538 -0.3558 -0.2066
  542MOL0     C73066  11.243  10.230   4.570  1.0517  0.4001 -0.2384
  542MOL0     C73067  11.110  10.264   4.518 -0.4514  0.1204  0.1859
  542MOL0     C73068  11.005  10.290   4.602 -0.0546  0.6956  0.0738
  542MOL0     C73069  11.009  10.262   4.738 -0.1216 -0.0324 -0.2298
  542MOL0     O73070  10.900  10.282   4.825  0.1099 -0.7351  0.6102
  542MOL0     C73071  10.844  10.415   4.848  0.3263 -0.4343  0.4801
  542MOL0     C73072  10.750  10.420   4.971  0.7860 -0.3723  0.9884
  542MOL0     C73073  10.809  10.381   5.104  0.8782 -0.3903  0.2679
  542MOL0     C73074  10.713  10.397   5.215  0.6568 -0.4773 -0.0835
  542MOL0     C73075  10.763  10.512   5.307  0.7775 -0.2443 -0.2625
  542MOL0     C73076  10.739  10.643   5.219 -0.0706  0.7959  0.4833
  542MOL0     C73077  10.703  10.757   5.316  0.2381  0.0715  0.5783
  542MOL0     C73078  10.816  10.793   5.410 -0.5525 -0.3137 -0.1336
  542MOL0    Cl73079  10.815  10.707   5.567  0.1541  0.3427  0.0206
  542MOL0     C73080  11.126  10.224   4.786  0.0580  0.5771 -0.4332
  542MOL0     C73081  11.244  10.213   4.706  0.3009  1.5439  0.6198
  542MOL0     O73082  11.256  10.106   4.329  0.3962 -0.4011  0.1203
  542MOL0     C73083  11.573  10.237   4.316  0.0045 -0.3668 -0.2214
  542MOL0     C73084  11.680  10.234   4.224 -0.0042 -0.9505  0.0279
  542MOL0     N73085  11.808  10.287   3.348  0.0588  0.5283 -0.1931
  542MOL0     N73086  11.860  10.244   3.239 -0.3502 -0.7630 -0.4255
  542MOL0     C73087  11.613   9.510   2.284 -0.4241 -0.5320  0.2240
  542MOL0     C73088  11.601   9.397   2.197 -0.1846 -0.7402 -0.6532
  542MOL0     C73089  11.523   8.990   2.023 -0.1653  0.1772 -0.2389
  542MOL0     C73090  11.617   8.897   2.068 -0.1380 -0.4151  0.4784
  542MOL0     C73091  11.618   8.761   2.026  0.1878 -0.0347  0.4000
  542MOL0     C73092  11.530   8.719   1.927  0.2516  0.9082 -0.3602
  542MOL0     O73093  11.532   8.582   1.880 -0.2299 -1.1375  1.2172
  542MOL0     C73094  11.480   8.546   1.748  0.0631  1.3833 -0.9164
  542MOL0     C73095  11.554   8.610   1.634  0.6164 -0.2276 -0.2942
  542MOL0     C73096  11.703   8.588   1.629  1.2781  0.3863 -1.2066
  542MOL0     C73097  11.729   8.482   1.532 -0.0244  1.1173  0.6263
  542MOL0     C73098  11.874   8.447   1.531 -0.4838 -0.3755  1.3581
  542MOL0     C73099  11.988   8.410   1.520  0.1085 -0.1240 -0.5629
  542MOL0     C73100  11.439   8.812   1.871 -0.0317  0.3407 -0.5525
  542MOL0     C73101  11.427   8.941   1.924  0.4590  0.0443  0.0067
  542MOL0     C73102  11.305   9.015   1.871  0.4181 -0.9231 -0.6656
  542MOL0     H73103  11.697   9.148   2.420  1.9627  0.7351  1.4551
  542MOL0     H73104  11.716   9.343   2.562  3.1049  1.1063 -0.8369
  542MOL0     H73105  11.571   9.685   2.640  0.1720 -0.6516  1.3461
  542MOL0     H73106  11.579   9.513   2.663  0.4231 -0.1733  3.0904
  542MOL0     H73107  11.807   9.724   2.687 -0.9565  1.1656  1.4549
  542MOL0     H73108  11.822   9.540   2.717  3.8630  2.2756 -0.9816
  542MOL0     H73109  11.666   9.552   2.907 -0.5128  0.6909 -0.3217
  542MOL0     H73110  11.644   9.722   2.878  0.3756  0.7289 -2.0417
  542MOL0     H73111  11.871   9.549   2.997  4.5682  0.5919 -2.2411
  542MOL0     H73112  11.927   9.698   2.934  0.1213  1.8388  3.0598
  542MOL0     H73113  11.729   9.652   3.164 -2.3406  2.0220  0.7510
  542MOL0     H73114  11.885   9.713   3.184 -2.0181  2.2229  1.9014
  542MOL0     H73115  11.658   9.866   3.040  0.6930 -0.5375 -1.9021
  542MOL0     H73116  11.699   9.900   3.206  1.1365  2.3533 -1.3121
  542MOL0     H73117  11.749  10.050   3.057  1.2228  1.1433  0.7811
  542MOL0     H73118  11.860   9.944   2.965 -2.8496 -1.1649 -0.3088
  542MOL0     H73119  11.968   9.931   3.221 -1.2718 -0.3051 -0.6202
  542MOL0     H73120  12.014  10.071   3.124 -0.1562 -0.8524 -2.3271
  542MOL0     H73121  11.844   9.969   3.418 -2.4606 -1.1316 -0.4800
  542MOL0     H73122  11.788  10.311   3.607  0.0753  0.1833  0.0841
  542MOL0     H73123  11.632  10.222   3.573  0.6746  1.4746  4.7456
  542MOL0     H73124  11.741  10.023   3.667  1.0228 -1.0491  1.9500
  542MOL0     H73125  11.895  10.102   3.663  0.8775  4.6302  0.5334
  542MOL0     H73126  11.650  10.138   3.833 -0.0383 -1.2925 -3.6089
  542MOL0     H73127  11.781  10.269   3.835  2.3406 -0.5806 -2.5181
  542MOL0     H73128  11.942  10.082   3.912 -0.3947 -0.7033  2.7425
  542MOL0     H73129  11.796   9.984   3.933  0.0631 -0.7075  0.8750
  542MOL0     H73130  11.623   9.946   4.071 -0.0812  0.6050 -1.0107
  542MOL0     H73131  11.414   9.964   4.183  0.7937 -1.1886  1.4759
  542MOL0     H73132  11.111  10.288   4.412  1.9953 -1.2380 -0.1923
  542MOL0     H73133  10.908  10.322   4.564 -0.3608  3.8336  3.0667
  542MOL0     H73134  10.930  10.482   4.859 -3.0429  4.5872 -0.2727
  542MOL0     H73135  10.778  10.451   4.768  0.1924 -1.3560  0.1714
  542MOL0     H73136  10.698  10.515   4.985 -1.5282 -1.9601  5.0980
  542MOL0     H73137  10.668  10.351   4.950  0.4025  1.1008 -3.1681
  542MOL0     H73138  10.848  10.280   5.088  2.5152 -0.0984  2.1493
  542MOL0     H73139  10.898  10.443   5.109  0.4631  0.1512  1.2325
  542MOL0     H73140  10.722  10.316   5.288 -0.6374 -0.0532  0.5691
  542MOL0     H73141  10.611  10.389   5.176  0.3559  0.7603  0.4031
  542MOL0     H73142  10.869  10.522   5.329  1.6501 -0.5268 -3.7176
  542MOL0     H73143  10.702  10.512   5.398 -0.9637 -2.0729 -1.3254
  542MOL0     H73144  10.826  10.668   5.158 -0.3681 -0.1074 -0.3476
  542MOL0     H73145  10.654  10.629   5.151 -0.8514 -2.6908  1.9528
  542MOL0     H73146  10.619  10.725   5.379 -1.4592  1.3929 -0.8806
  542MOL0     H73147  10.684  10.847   5.256  1.4097 -0.1911 -0.2055
  542MOL0     H73148  10.906  10.766   5.354 -0.0974 -1.0755  0.9289
  542MOL0     H73149  10.809  10.902   5.412 -0.6084 -0.3246  1.0469
  542MOL0     H73150  11.134  10.192   4.890 -0.8201 -0.4842 -0.6622
  542MOL0     H73151  11.337  10.179   4.750  1.0810  0.1347 -1.9224
  542MOL0     H73152  11.575  10.315   4.392  0.0331 -2.0354  1.5554
  542MOL0     H73153  11.747  10.319   4.225  0.6735 -1.2798 -3.8735
  542MOL0     H73154  11.610   9.611   2.245 -1.3741 -1.2039 -1.5452
  542MOL0     H73155  11.561   9.423   2.099 -0.3048 -1.1237 -0.7078
  542MOL0     H73156  11.694   8.932   2.136 -1.1023 -0.8995  1.8531
  542MOL0     H73157  11.694   8.687   2.050  3.9535  2.6523 -2.1465
  542MOL0     H73158  11.371   8.556   1.745 -0.0503  1.5894  1.7269
  542MOL0     H73159  11.500   8.440   1.733 -2.0505  1.0938 -2.2232
  542MOL0     H73160  11.539   8.718   1.631  3.2179  0.3020  2.0809
  542MOL0     H73161  11.508   8.568   1.544  0.3677 -1.4234  0.3694
  542MOL0     H73162  11.736   8.552   1.726 -1.6808 -0.5185 -0.4360
  542MOL0     H73163  11.758   8.680   1.605 -0.2597  3.1307  4.1565
  542MOL0     H73164  11.670   8.394   1.559  1.6475  1.1858  5.5514
  542MOL0     H73165  11.714   8.515   1.429 -0.2339  0.4214  0.4340
  542MOL0     H73166  12.091   8.386   1.502 -0.0579  0.7338 -3.0585
  542MOL0     H73167  11.374   8.769   1.796  0.6055 -3.2172  0.7373
  542MOL0     H73168  11.238   8.946   1.818 -1.0575  1.5028 -2.1862
  542MOL0     H73169  11.253   9.054   1.958 -2.1680 -2.1547 -1.5570
  542MOL0     H73170  11.336   9.103   1.812 -1.0516 -0.7334 -1.1955
  543MOL0     O73171   0.769   2.433   0.566  0.7132  0.1810 -0.5479
  543MOL0     C73172   0.778   2.515   0.479 -0.5869  0.0763 -0.4508
  543MOL0     O73173   0.682   2.610   0.440  0.3906 -0.4819 -0.3009
  543MOL0     C73174   0.551   2.592   0.491 -0.3292 -0.2868  0.5169
  543MOL0     C73175   0.488   2.707   0.536  0.4673 -0.1000  0.5831
  543MOL0     C73176   0.351   2.705   0.566 -0.5928  0.3094  0.5901
  543MOL0     C73177   0.281   2.578   0.578 -0.0262 -0.0454  1.2029
  543MOL0     O73178   0.153   2.588   0.614  0.3629  0.4682  0.0808
  543MOL0     C73179   0.077   2.475   0.664  0.2061 -0.0135 -0.2096
  543MOL0     C73180   0.011   2.527   0.792 -0.7007 -0.5875 -0.1177
  543MOL0     C73181  -0.072   2.657   0.771  0.9156 -0.1403 -0.4003
  543MOL0     C73182  -0.146   2.697   0.898  0.4315 -0.2475  0.1696
  543MOL0     C73183  -0.278   2.609   0.915 -0.6075 -0.8670  0.1251
  543MOL0     C73184  -0.325   2.618   1.064  0.3659  0.2997  0.6075
  543MOL0     C73185  -0.384   2.480   1.124  0.5955  0.1232 -0.0196
  543MOL0     C73186  -0.276   2.372   1.138 -0.0684 -0.3363 -0.1430
  543MOL0     N73187  -0.332   2.255   1.214 -1.1192 -0.1003  0.2734
  543MOL0     C73188  -0.372   2.254   1.351 -0.0017 -0.6908  1.2305
  543MOL0     C73189  -0.363   2.126   1.382  0.6094  0.0415 -0.5515
  543MOL0     C73190  -0.385   2.081   1.522 -0.1082  0.2907  1.0486
  543MOL0     C73191  -0.524   2.005   1.525 -1.5718  0.2623  0.6101
  543MOL0     C73192  -0.558   1.953   1.664 -0.1603  0.5095  0.4250
  543MOL0     C73193  -0.582   2.063   1.776 -0.6629  0.8900 -0.1405
  543MOL0     O73194  -0.724   2.075   1.795 -0.5424  0.4636  0.1262
  543MOL0     C73195  -0.774   2.188   1.730  0.8453  0.5217  0.7819
  543MOL0     C73196  -0.890   2.163   1.653  0.1234  0.2717  0.8103
  543MOL0     C73197  -0.953   2.256   1.569 -0.9653 -0.5949 -0.5432
  543MOL0     C73198  -0.899   2.382   1.563  0.3640 -0.1747  0.0175
  543MOL0     C73199  -0.956   2.483   1.477 -0.9175 -0.0467 -0.8729
  543MOL0     O73200  -1.068   2.453   1.413  0.1607 -0.2483  0.0599
  543MOL0     C73201  -1.117   2.552   1.328  0.2301 -0.0815  0.6584
  543MOL0     C73202  -1.040   2.587   1.218  0.3826  0.3951  0.3489
  543MOL0     C73203  -1.071   2.688   1.134  0.0548 -0.0579 -0.0651
  543MOL0     C73204  -1.204   2.739   1.128  0.0655  0.2610  0.3098
  543MOL0     O73205  -1.246   2.797   1.010  1.1205 -0.3663 -0.1670
  543MOL0     C73206  -1.379   2.843   1.005  1.1625 -0.6330 -0.3797
  543MOL0     C73207  -1.395   2.958   0.904 -0.0917  0.1231  0.0928
  543MOL0     C73208  -1.414   2.900   0.763 -0.3189 -0.5041 -0.0840
  543MOL0     C73209  -1.557   2.934   0.715  0.0754 -0.3033 -0.1921
  543MOL0     C73210  -1.592   2.865   0.584 -0.6219 -0.8154  0.1213
  543MOL0     C73211  -1.717   2.926   0.520 -0.2223 -0.7059 -0.0194
  543MOL0     C73212  -1.770   2.850   0.403  1.4086 -0.0471 -0.1204
  543MOL0     C73213  -1.871   2.943   0.327 -0.2359  1.2493  0.2695
  543MOL0    Cl73214  -1.763   3.047   0.220 -0.5634  0.0060  0.2904
  543MOL0     C73215  -1.280   2.693   1.235  0.3564  0.6991 -0.3828
  543MOL0     C73216  -1.248   2.607   1.341 -0.0051  0.6248 -0.1264
  543MOL0     O73217  -0.890   2.589   1.464 -1.3080  0.4395  0.3512
  543MOL0     C73218  -0.776   2.418   1.642  0.4076  0.6619 -0.0794
  543MOL0     C73219  -0.722   2.320   1.722  0.0289  0.3389 -1.2742
  543MOL0     N73220  -0.328   2.053   1.271 -0.4429  0.4264 -0.3579
  543MOL0     N73221  -0.296   2.133   1.170  0.2640 -0.1882 -0.8176
  543MOL0     C73222   0.353   2.461   0.546 -0.2646  0.4684  0.3220
  543MOL0     C73223   0.485   2.470   0.497 -0.2473 -0.2005  0.9207
  543MOL0     C73224   0.898   2.514   0.401  0.2836 -0.3360 -0.3721
  543MOL0     C73225   0.882   2.521   0.262 -0.1154 -0.0262  1.1729
  543MOL0     C73226   0.997   2.516   0.177  0.1759  0.8757  0.1403
  543MOL0     C73227   1.131   2.520   0.214 -0.3805  0.1265 -0.8580
  543MOL0     O73228   1.237   2.522   0.131 -0.0005  0.1723 -0.6440
  543MOL0     C73229   1.219   2.503  -0.008  0.5633  0.2560  0.5873
  543MOL0     C73230   1.334   2.560  -0.093  0.2570 -0.0534 -0.4507
  543MOL0     C73231   1.309   2.545  -0.241 -0.4591  0.3923  0.1939
  543MOL0     C73232   1.428   2.617  -0.311 -0.4513 -0.8432  0.0409
  543MOL0     C73233   1.439   2.580  -0.450  0.5016  0.2803  0.1279
  543MOL0     C73234   1.469   2.570  -0.571  0.2718 -0.2530 -0.3178
  543MOL0     C73235   1.139   2.524   0.358  0.3952  0.6716  0.5598
  543MOL0     C73236   1.027   2.518   0.442 -0.6631 -0.0372  0.6738
  543MOL0     C73237   1.066   2.519   0.584 -0.2471 -0.8480 -0.3979
  543MOL0     H73238   0.540   2.802   0.531 -0.6911  0.7139  2.7149
  543MOL0     H73239   0.302   2.801   0.572  0.8295  1.0648  0.5244
  543MOL0     H73240   0.010   2.429   0.590  1.2452 -3.6375  0.8615
  543MOL0     H73241   0.139   2.390   0.696 -0.2129 -0.4679 -0.5865
  543MOL0     H73242   0.097   2.540   0.857 -0.3560 -1.6119 -0.3500
  543MOL0     H73243  -0.059   2.446   0.819 -1.6790 -0.6415 -2.5447
  543MOL0     H73244  -0.138   2.653   0.684  2.3601 -0.6700 -1.5146
  543MOL0     H73245  -0.010   2.741   0.738 -0.1928  0.6846 -0.4514
  543MOL0     H73246  -0.078   2.714   0.982 -0.2206 -2.6833  1.2536
  543MOL0     H73247  -0.195   2.794   0.885 -0.6202 -0.8096 -0.1312
  543MOL0     H73248  -0.351   2.659   0.851  1.2446  2.0574  0.1564
  543MOL0     H73249  -0.259   2.503   0.894  1.2229 -0.9997  2.1187
  543MOL0     H73250  -0.235   2.638   1.123  1.2233 -0.9251 -0.2327
  543MOL0     H73251  -0.406   2.691   1.066  0.0560 -0.0542  1.4439
  543MOL0     H73252  -0.456   2.427   1.061  1.5448 -0.2231 -0.8440
  543MOL0     H73253  -0.424   2.504   1.223  1.4261  1.1085  0.1071
  543MOL0     H73254  -0.224   2.345   1.046  5.1142 -1.6599  2.7890
  543MOL0     H73255  -0.197   2.411   1.203 -0.9128 -2.2117  2.1623
  543MOL0     H73256  -0.403   2.335   1.416 -1.5630 -0.0697 -0.2184
  543MOL0     H73257  -0.310   2.006   1.548 -2.3275 -1.5209  2.6177
  543MOL0     H73258  -0.396   2.166   1.590  1.2527  1.5500 -0.2188
  543MOL0     H73259  -0.583   2.095   1.505 -1.5536  0.1279 -0.0731
  543MOL0     H73260  -0.529   1.934   1.442  0.4476 -0.0927  0.7361
  543MOL0     H73261  -0.477   1.883   1.686  3.4399  3.3587 -2.3439
  543MOL0     H73262  -0.634   1.875   1.665  3.3753 -3.3133 -1.7387
  543MOL0     H73263  -0.537   2.157   1.741 -1.8626  1.1362 -1.1152
  543MOL0     H73264  -0.538   2.023   1.868  1.6166  0.2188 -1.4187
  543MOL0     H73265  -0.923   2.061   1.636 -3.9126  1.7790 -2.0573
  543MOL0     H73266  -1.049   2.227   1.529 -0.7435 -2.7965  0.3741
  543MOL0     H73267  -0.947   2.532   1.215  1.2636  1.4284  4.1978
  543MOL0     H73268  -1.009   2.720   1.050 -0.2642  2.9764  0.7150
  543MOL0     H73269  -1.440   2.759   0.970 -0.4910  0.3494  0.0472
  543MOL0     H73270  -1.424   2.876   1.098 -3.7785 -0.6594 -2.4412
  543MOL0     H73271  -1.487   3.011   0.930  0.9935  3.0564 -1.5924
  543MOL0     H73272  -1.315   3.032   0.910 -1.5073  1.5807  3.2950
  543MOL0     H73273  -1.350   2.955   0.693  1.5917 -3.8133 -1.1314
  543MOL0     H73274  -1.387   2.794   0.757 -2.3612 -1.0158 -1.1429
  543MOL0     H73275  -1.557   3.043   0.704  0.1321 -0.2325  0.4610
  543MOL0     H73276  -1.625   2.899   0.793 -0.0654  0.4493  0.0260
  543MOL0     H73277  -1.600   2.756   0.594 -1.1361 -0.6892  1.3558
  543MOL0     H73278  -1.516   2.882   0.508 -1.3440 -0.1122 -0.4601
  543MOL0     H73279  -1.792   2.917   0.599 -2.3059  0.4442 -1.7498
  543MOL0     H73280  -1.695   3.031   0.496  1.6060 -0.7443  1.3088
  543MOL0     H73281  -1.816   2.757   0.437  3.1042 -0.4367  1.2561
  543MOL0     H73282  -1.684   2.821   0.342  2.3556 -2.4681  2.1894
  543MOL0     H73283  -1.938   2.886   0.262  0.9605 -0.1338  0.1830
  543MOL0     H73284  -1.930   3.000   0.400 -2.9479  0.6345 -1.2984
  543MOL0     H73285  -1.378   2.741   1.242  0.6962  1.6589 -1.7239
  543MOL0     H73286  -1.319   2.584   1.419 -0.8345 -1.8024 -1.4623
  543MOL0     H73287  -0.723   2.513   1.635  0.8687  0.3399 -1.1125
  543MOL0     H73288  -0.641   2.349   1.788 -0.8609  0.9087 -0.4085
  543MOL0     H73289   0.310   2.361   0.546  1.4083 -0.3015 -0.7666
  543MOL0     H73290   0.522   2.370   0.475  1.2423  0.6236 -0.6278
  543MOL0     H73291   0.783   2.532   0.220 -0.5005  0.0572  2.0900
  543MOL0     H73292   0.969   2.514   0.072 -0.4842 -1.3841  0.3028
  543MOL0     H73293   1.125   2.550  -0.036 -1.8215 -3.5979  1.3768
  543MOL0     H73294   1.216   2.394  -0.017  0.7626  0.3487 -0.7583
  543MOL0     H73295   1.419   2.502  -0.056  0.3624  0.6610  0.4720
  543MOL0     H73296   1.354   2.666  -0.076 -0.7403  0.0805 -0.0339
  543MOL0     H73297   1.205   2.577  -0.254  0.1577  4.2447  3.0263
  543MOL0     H73298   1.327   2.438  -0.258  0.2436  0.7777 -1.6525
  543MOL0     H73299   1.427   2.726  -0.305  0.3486 -0.8938  1.8685
  543MOL0     H73300   1.515   2.576  -0.259 -0.1393  0.3049  0.4522
  543MOL0     H73301   1.496   2.560  -0.674  0.1411  0.7000 -0.4584
  543MOL0     H73302   1.239   2.519   0.399  0.0015  1.1443  1.6190
  543MOL0     H73303   1.175   2.513   0.593 -0.1941 -0.2329 -0.6033
  543MOL0     H73304   1.033   2.616   0.623 -1.2393 -0.7533 -1.4353
  543MOL0     H73305   1.019   2.435   0.634 -1.3838 -0.0749 -0.1403
  544MOL0     O73306   3.700   7.326   3.717 -0.0576  0.1489  0.0985
  544MOL0     C73307   3.785   7.276   3.643  0.6412  0.0463 -0.7556
  544MOL0     O73308   3.797   7.142   3.619  0.4654  0.1374 -0.6375
  544MOL0     C73309   3.673   7.072   3.631 -1.0390 -0.3120 -1.3329
  544MOL0     C73310   3.641   7.011   3.752 -0.1843 -0.8231 -0.3626
  544MOL0     C73311   3.516   6.941   3.754 -0.3457 -1.1089  0.5937
  544MOL0     C73312   3.436   6.931   3.644 -0.3117 -0.0801  0.1530
  544MOL0     O73313   3.324   6.850   3.654 -0.0624  0.0844  0.1451
  544MOL0     C73314   3.252   6.822   3.534  0.1410 -0.1445  0.4081
  544MOL0     C73315   3.314   6.718   3.452 -0.0480 -0.2837  0.3985
  544MOL0     C73316   3.315   6.578   3.514  0.0226 -0.3696 -0.4696
  544MOL0     C73317   3.403   6.564   3.640 -0.1950  0.3781  0.0094
  544MOL0     C73318   3.400   6.422   3.696 -0.1019 -0.6433 -0.1760
  544MOL0     C73319   3.480   6.407   3.823 -0.5889 -0.5599 -0.4221
  544MOL0     C73320   3.515   6.261   3.868  0.7690 -0.7388  0.5424
  544MOL0     C73321   3.514   6.234   4.015 -0.2975 -0.4675 -0.5616
  544MOL0     N73322   3.574   6.101   4.032  0.2265 -0.3875 -0.4314
  544MOL0     C73323   3.709   6.085   4.047  0.5536  0.4767  0.8343
  544MOL0     C73324   3.731   5.969   4.094  0.0424  0.3282 -0.5610
  544MOL0     C73325   3.859   5.920   4.137 -0.2742 -0.3363  0.1970
  544MOL0     C73326   3.859   5.778   4.165 -0.2518  0.0772  0.6013
  544MOL0     C73327   4.002   5.727   4.186 -0.4799  0.0735 -1.7021
  544MOL0     C73328   4.060   5.655   4.069 -0.3390 -0.5181  0.2785
  544MOL0     O73329   4.069   5.749   3.955  0.8976 -0.6680  0.4051
  544MOL0     C73330   4.107   5.708   3.831  0.6751 -0.8052  0.7872
  544MOL0     C73331   4.175   5.595   3.810 -0.7009 -0.4944 -0.2293
  544MOL0     C73332   4.201   5.550   3.678  0.4299 -1.6858 -0.1804
  544MOL0     C73333   4.159   5.627   3.568  0.5429  0.4890  0.6227
  544MOL0     C73334   4.173   5.575   3.426 -0.5774  0.8765  0.6828
  544MOL0     O73335   4.219   5.443   3.428 -1.1366  0.1365 -0.4341
  544MOL0     C73336   4.214   5.362   3.320  0.3991 -0.5431  0.4840
  544MOL0     C73337   4.274   5.402   3.202  1.1865 -0.3478  0.0425
  544MOL0     C73338   4.262   5.322   3.089  0.4484 -0.1776  0.9141
  544MOL0     C73339   4.174   5.213   3.084 -0.5913  0.0943  0.2203
  544MOL0     O73340   4.180   5.139   2.966 -0.1826 -0.6310 -0.2649
  544MOL0     C73341   4.113   5.016   2.951  0.6163  0.0533  0.0029
  544MOL0     C73342   4.152   4.959   2.812  1.0945 -0.2017  1.2512
  544MOL0     C73343   4.304   4.943   2.782  0.5009 -0.2980 -0.2588
  544MOL0     C73344   4.328   4.943   2.629 -0.7598 -0.2208 -0.5085
  544MOL0     C73345   4.487   4.937   2.593 -0.1360  0.4157  0.7779
  544MOL0     C73346   4.576   5.057   2.643  0.3378 -0.1467 -0.0063
  544MOL0     C73347   4.721   5.006   2.606  0.1213  0.0708 -0.5117
  544MOL0     C73348   4.819   5.126   2.641 -0.1056  0.4260  0.8512
  544MOL0    Cl73349   4.978   5.056   2.591 -0.0884 -0.1815  0.3377
  544MOL0     C73350   4.104   5.184   3.201  0.0572  1.6768  0.6874
  544MOL0     C73351   4.124   5.250   3.322  0.4534 -0.2461  1.4399
  544MOL0     O73352   4.143   5.639   3.323 -0.6598  0.0628  1.1879
  544MOL0     C73353   4.096   5.754   3.593  0.1616 -0.3132 -0.1393
  544MOL0     C73354   4.063   5.783   3.726 -0.4708 -0.7120 -0.1437
  544MOL0     N73355   3.605   5.908   4.104 -0.2108 -0.4695 -1.0370
  544MOL0     N73356   3.514   5.989   4.060  0.3724  0.3724 -0.8997
  544MOL0     C73357   3.466   7.003   3.531  0.8562 -0.4677 -0.3943
  544MOL0     C73358   3.586   7.068   3.525 -0.6589 -0.6411  0.2604
  544MOL0     C73359   3.912   7.357   3.610 -0.0256  0.3742  0.1421
  544MOL0     C73360   3.941   7.479   3.678  0.0728 -0.3361  0.3658
  544MOL0     C73361   4.050   7.558   3.647  0.1103 -0.1998 -0.2500
  544MOL0     C73362   4.130   7.526   3.534  0.3184  0.2119 -1.3488
  544MOL0     O73363   4.240   7.591   3.479 -1.1052  0.8771  0.2155
  544MOL0     C73364   4.237   7.735   3.482 -0.0444 -0.7191 -0.2933
  544MOL0     C73365   4.374   7.780   3.512 -0.4601 -0.1216  0.8548
  544MOL0     C73366   4.383   7.805   3.659 -0.3293 -0.1547 -0.4104
  544MOL0     C73367   4.522   7.813   3.725  0.3257 -0.2776  0.1840
  544MOL0     C73368   4.575   7.939   3.676  0.3590 -0.5911  0.8590
  544MOL0     C73369   4.593   8.046   3.625 -0.5938 -0.3470  0.4695
  544MOL0     C73370   4.087   7.413   3.460 -0.4872  0.5939 -0.5880
  544MOL0     C73371   3.994   7.327   3.494  0.2122  0.7323 -0.2457
  544MOL0     C73372   3.979   7.200   3.409  0.0811  0.6205 -0.1481
  544MOL0     H73373   3.695   7.028   3.845 -1.2987 -0.0942  0.1796
  544MOL0     H73374   3.478   6.896   3.846 -0.8327 -2.9688 -0.4554
  544MOL0     H73375   3.160   6.776   3.570 -0.7516  2.3608  1.5492
  544MOL0     H73376   3.218   6.908   3.476 -0.9475 -1.4848 -1.0142
  544MOL0     H73377   3.411   6.747   3.411 -0.1832 -0.6020 -0.1561
  544MOL0     H73378   3.259   6.704   3.358  1.8748 -0.8903 -0.7027
  544MOL0     H73379   3.365   6.510   3.443  2.9771  0.2066  0.8977
  544MOL0     H73380   3.215   6.552   3.549  0.4628  0.9020  1.9050
  544MOL0     H73381   3.506   6.592   3.615 -0.0252  0.1089  0.4067
  544MOL0     H73382   3.374   6.634   3.719 -2.3429 -1.0605  0.5806
  544MOL0     H73383   3.293   6.404   3.709 -0.4535  2.5319  2.6874
  544MOL0     H73384   3.447   6.348   3.631 -0.6660 -1.0248 -0.1600
  544MOL0     H73385   3.578   6.456   3.823 -0.0135 -1.6531  1.1199
  544MOL0     H73386   3.410   6.447   3.897  1.3555  0.2428  1.0901
  544MOL0     H73387   3.614   6.246   3.824  1.6918  3.2848  0.8994
  544MOL0     H73388   3.450   6.189   3.817 -1.0691  0.8103  0.5851
  544MOL0     H73389   3.567   6.310   4.072  0.8597 -1.3211 -0.4631
  544MOL0     H73390   3.412   6.248   4.054  0.3177  1.8744  0.3465
  544MOL0     H73391   3.770   6.165   4.006 -0.8844  0.3508 -1.7345
  544MOL0     H73392   3.926   5.939   4.052 -1.9775 -0.6283 -1.2632
  544MOL0     H73393   3.881   5.977   4.228  1.0268 -0.8669  0.2400
  544MOL0     H73394   3.802   5.764   4.257 -1.2967  2.1153  0.3205
  544MOL0     H73395   3.798   5.717   4.098 -2.8709 -0.5028  3.2894
  544MOL0     H73396   4.002   5.668   4.279  3.3722  0.6478 -1.1817
  544MOL0     H73397   4.080   5.801   4.206  2.7960 -3.6758  0.8067
  544MOL0     H73398   4.002   5.567   4.039  0.5849 -0.8190 -0.7024
  544MOL0     H73399   4.161   5.623   4.097  0.8144  0.9890 -1.9020
  544MOL0     H73400   4.215   5.532   3.889  1.0799  0.8169 -0.0107
  544MOL0     H73401   4.258   5.458   3.670  0.8142 -1.6959  2.1688
  544MOL0     H73402   4.336   5.491   3.207  0.6670  0.0102  0.2556
  544MOL0     H73403   4.321   5.351   3.002 -0.5347 -2.7415 -0.7365
  544MOL0     H73404   4.131   4.933   3.019  1.4056 -1.2283 -1.6776
  544MOL0     H73405   4.005   5.030   2.953 -0.2010 -3.6318 -3.6769
  544MOL0     H73406   4.105   4.860   2.811 -1.9314  1.1190 -0.2609
  544MOL0     H73407   4.089   5.014   2.742 -0.0497 -1.3692  1.3035
  544MOL0     H73408   4.362   5.016   2.838  1.5462 -0.5046 -1.0438
  544MOL0     H73409   4.319   4.841   2.818 -1.2273 -1.0068 -1.4079
  544MOL0     H73410   4.298   5.045   2.602 -5.7825 -0.9923  1.1377
  544MOL0     H73411   4.263   4.870   2.581 -0.5819 -1.5825  1.2172
  544MOL0     H73412   4.503   4.915   2.487 -0.5647 -2.4810  1.2284
  544MOL0     H73413   4.518   4.844   2.641 -1.2092 -0.0567  0.6006
  544MOL0     H73414   4.556   5.155   2.599 -1.1116 -0.5463 -0.2792
  544MOL0     H73415   4.579   5.064   2.752 -0.1916 -0.2026  0.0134
  544MOL0     H73416   4.734   4.998   2.497 -2.8356  2.7426 -1.2082
  544MOL0     H73417   4.741   4.916   2.665  1.1216  0.6715  0.0701
  544MOL0     H73418   4.802   5.224   2.594 -0.5847 -0.1319 -0.1772
  544MOL0     H73419   4.820   5.139   2.749 -1.0067 -0.4869  0.9742
  544MOL0     H73420   4.039   5.099   3.181  2.1595  0.1366  0.1334
  544MOL0     H73421   4.078   5.220   3.416 -1.2979 -0.5259  0.5418
  544MOL0     H73422   4.071   5.827   3.516  2.5100  1.8686  1.0080
  544MOL0     H73423   4.003   5.874   3.735 -0.0327 -0.0472 -2.8575
  544MOL0     H73424   3.393   7.017   3.451  2.5563  0.2512 -1.8899
  544MOL0     H73425   3.623   7.119   3.437 -0.5028  3.8023  2.5985
  544MOL0     H73426   3.877   7.509   3.759  2.5198  2.3194  1.4685
  544MOL0     H73427   4.093   7.639   3.706  2.2163  1.8595 -4.2130
  544MOL0     H73428   4.153   7.783   3.534  4.0209  1.6292  5.2058
  544MOL0     H73429   4.210   7.767   3.381 -0.2965  0.4169  0.1129
  544MOL0     H73430   4.404   7.868   3.454  0.0024 -0.7419  0.1352
  544MOL0     H73431   4.446   7.704   3.479  1.6747  1.3615  1.8964
  544MOL0     H73432   4.315   7.738   3.713 -0.9353  0.7756  0.0022
  544MOL0     H73433   4.336   7.903   3.669 -1.2004 -0.3272 -2.3666
  544MOL0     H73434   4.499   7.807   3.831  1.5890 -0.2432  0.4712
  544MOL0     H73435   4.581   7.725   3.696  1.0720 -0.3475  1.8186
  544MOL0     H73436   4.601   8.142   3.578  1.2740 -0.8823 -0.4280
  544MOL0     H73437   4.153   7.394   3.376  0.8599  0.8696  0.3758
  544MOL0     H73438   4.017   7.109   3.457 -0.9525  1.2556  1.9885
  544MOL0     H73439   3.876   7.199   3.370  1.0900  0.9305 -3.0570
  544MOL0     H73440   4.035   7.210   3.316  0.2886  2.6516  0.1661
  545MOL0     O73441   2.846  11.142   9.369  0.3510  0.0197 -0.2094
  545MOL0     C73442   2.868  11.043   9.291  0.8725  0.2594 -0.2121
  545MOL0     O73443   2.933  10.928   9.325 -0.3490  0.6067  0.0767
  545MOL0     C73444   2.904  10.876   9.446  0.1817 -0.0865 -0.8277
  545MOL0     C73445   2.990  10.812   9.522  0.4034 -0.3494 -0.3870
  545MOL0     C73446   2.960  10.744   9.643 -0.4453  0.0326  0.5721
  545MOL0     C73447   2.830  10.754   9.700  0.3766 -0.6729  0.1709
  545MOL0     O73448   2.800  10.690   9.816  0.4411  0.3865  0.4741
  545MOL0     C73449   2.774  10.551   9.803 -0.0598 -0.0198 -0.4262
  545MOL0     C73450   2.840  10.488   9.929  0.0641  0.1642  1.0460
  545MOL0     C73451   2.813  10.329   9.905  0.3828 -0.0205 -0.8008
  545MOL0     C73452   2.847  10.250  10.034  0.4868 -0.4991  0.5605
  545MOL0     C73453   2.801  10.105  10.002  1.0031  0.2219 -0.0213
  545MOL0     C73454   2.836  10.009  10.114  0.0670  0.2258 -0.3049
  545MOL0     C73455   2.751   9.882  10.124  0.5064  0.0609 -0.7827
  545MOL0     C73456   2.833   9.760  10.170  0.1992 -0.8405 -0.1610
  545MOL0     N73457   2.919   9.710  10.066 -0.2513 -0.2772  0.3400
  545MOL0     C73458   3.045   9.758  10.035  0.1842  0.7602 -0.3864
  545MOL0     C73459   3.089   9.687   9.930  1.3482  0.9438  0.5208
  545MOL0     C73460   3.219   9.711   9.845 -0.5623  0.9460  0.2805
  545MOL0     C73461   3.338   9.726   9.944 -0.6559  0.1340  0.5385
  545MOL0     C73462   3.473   9.755   9.891 -0.7117 -0.6642  0.2465
  545MOL0     C73463   3.588   9.741   9.997 -0.2834  0.8929 -0.6932
  545MOL0     O73464   3.704   9.824   9.954 -0.4969 -0.1339  0.0972
  545MOL0     C73465   3.728   9.944  10.015 -0.7968 -0.3788  0.3800
  545MOL0     C73466   3.622  10.035  10.030 -0.1288  0.3012 -0.3729
  545MOL0     C73467   3.656  10.165  10.088  0.4073  0.8368  0.0921
  545MOL0     C73468   3.787  10.206  10.130 -1.4198  0.4996  0.2102
  545MOL0     C73469   3.809  10.337  10.202  0.0594  1.0813  0.2377
  545MOL0     O73470   3.715  10.431  10.198  0.3861 -1.2328 -0.4070
  545MOL0     C73471   3.738  10.573  10.215  0.2661  0.3989  0.7092
  545MOL0     C73472   3.622  10.656  10.187 -0.6105  1.2295 -0.9313
  545MOL0     C73473   3.620  10.785  10.227  0.2239 -1.7620 -0.5478
  545MOL0     C73474   3.741  10.842  10.279  0.4381 -1.1630 -0.1492
  545MOL0     O73475   3.757  10.969  10.324  0.2870  0.7149  0.2480
  545MOL0     C73476   3.642  11.050  10.329 -0.3086 -0.4873  0.8493
  545MOL0     C73477   3.655  11.181  10.409 -0.1648  0.2350 -0.6963
  545MOL0     C73478   3.756  11.275  10.340 -0.4108 -0.3148 -0.0969
  545MOL0     C73479   3.756  11.416  10.414  0.2309 -0.0722  0.2977
  545MOL0     C73480   3.860  11.514  10.333  0.5432  0.6793 -0.5800
  545MOL0     C73481   3.857  11.649  10.414 -0.2598 -0.2893 -0.3289
  545MOL0     C73482   3.911  11.764  10.340  0.2051 -0.8491 -1.0567
  545MOL0     C73483   3.896  11.904  10.408 -0.4547  0.4048 -0.7572
  545MOL0    Cl73484   3.725  11.941  10.441 -0.0475  0.5812  0.6783
  545MOL0     C73485   3.848  10.771  10.293  0.3186 -0.0948  0.2376
  545MOL0     C73486   3.852  10.636  10.264  1.5457  0.0056 -0.4204
  545MOL0     O73487   3.916  10.350  10.261  0.1565  0.3122 -0.7162
  545MOL0     C73488   3.894  10.118  10.102 -0.3222  0.2748  1.0110
  545MOL0     C73489   3.859   9.987  10.049 -0.0476 -0.0135 -0.5115
  545MOL0     N73490   2.996   9.586   9.904 -0.0947  1.0774 -0.4150
  545MOL0     N73491   2.897   9.594   9.988 -0.2298  0.4990 -0.1967
  545MOL0     C73492   2.728  10.829   9.626 -0.2861  0.1339 -0.0585
  545MOL0     C73493   2.767  10.882   9.499 -0.1143 -0.3757 -0.2362
  545MOL0     C73494   2.833  11.060   9.151 -0.1801  0.5104 -0.1373
  545MOL0     C73495   2.707  11.118   9.113 -0.8272  0.2231 -0.5588
  545MOL0     C73496   2.674  11.130   8.973  0.8812  0.6579  0.4177
  545MOL0     C73497   2.753  11.080   8.877 -0.5577  0.1870 -1.3225
  545MOL0     O73498   2.695  11.078   8.750  0.3738 -0.0926 -0.3259
  545MOL0     C73499   2.772  11.043   8.636 -0.4758  0.5419 -0.9580
  545MOL0     C73500   2.688  11.083   8.517  0.5468  0.2704  0.7626
  545MOL0     C73501   2.537  11.044   8.520  0.5671  0.1769 -0.2119
  545MOL0     C73502   2.471  11.117   8.400 -0.4528  0.2661  0.2694
  545MOL0     C73503   2.332  11.137   8.409 -0.1171  0.7754  0.1621
  545MOL0     C73504   2.211  11.153   8.411  0.4521 -0.1103 -0.9025
  545MOL0     C73505   2.882  11.032   8.916  0.2998  1.2032 -0.6425
  545MOL0     C73506   2.921  11.019   9.051 -0.1545  0.3686  0.3314
  545MOL0     C73507   3.060  10.961   9.076 -0.6651 -0.6586  0.1603
  545MOL0     H73508   3.086  10.798   9.474  0.1930  1.6594 -1.5329
  545MOL0     H73509   3.042  10.678   9.666  2.7838  3.0336 -1.3011
  545MOL0     H73510   2.665  10.538   9.808  0.0531 -0.8750 -0.0476
  545MOL0     H73511   2.816  10.512   9.710  2.5409  0.2344  0.5720
  545MOL0     H73512   2.780  10.515  10.017 -1.5247  0.4229 -0.0873
  545MOL0     H73513   2.946  10.511   9.944  0.3716 -0.7396  0.3653
  545MOL0     H73514   2.880  10.289   9.828  2.8443 -0.7693  1.5596
  545MOL0     H73515   2.707  10.325   9.878 -0.2012 -0.6153  1.3998
  545MOL0     H73516   2.953  10.250  10.060  0.9936  1.4813 -1.2545
  545MOL0     H73517   2.796  10.301  10.117  1.9400  1.3426  0.3848
  545MOL0     H73518   2.691  10.107  10.005  0.9474  2.7947 -0.6861
  545MOL0     H73519   2.825  10.070   9.902  0.7284  0.0551 -0.0295
  545MOL0     H73520   2.942   9.985  10.101  0.1041 -3.2773  4.0966
  545MOL0     H73521   2.820  10.057  10.212 -1.2305 -2.1540  0.7227
  545MOL0     H73522   2.696   9.870  10.030 -2.2761  1.1234  0.5912
  545MOL0     H73523   2.668   9.903  10.192 -0.1022 -0.6576 -1.2828
  545MOL0     H73524   2.886   9.792  10.260 -1.2548  3.7350 -0.6507
  545MOL0     H73525   2.759   9.684  10.197 -0.5980 -0.6880 -1.7692
  545MOL0     H73526   3.097   9.838  10.087 -1.7158  1.2176  0.8981
  545MOL0     H73527   3.240   9.630   9.775 -0.7996  1.8688 -0.8909
  545MOL0     H73528   3.207   9.806   9.791 -0.1603  0.3835 -0.8171
  545MOL0     H73529   3.310   9.819   9.994 -2.5278  1.0983 -2.0642
  545MOL0     H73530   3.331   9.632  10.000 -0.3392 -0.7982 -0.9376
  545MOL0     H73531   3.445   9.853   9.851 -1.9670 -1.7748 -1.7474
  545MOL0     H73532   3.505   9.698   9.804  1.8283  1.5076 -0.3885
  545MOL0     H73533   3.627   9.639  10.000 -0.8916  0.6500 -0.9512
  545MOL0     H73534   3.554   9.768  10.097 -4.8483 -4.1815 -0.4210
  545MOL0     H73535   3.519  10.019   9.999 -0.1788 -2.5110  0.9242
  545MOL0     H73536   3.570  10.228  10.104 -0.1431  0.4513 -1.2120
  545MOL0     H73537   3.525  10.619  10.156  0.9913 -2.3714 -2.2596
  545MOL0     H73538   3.522  10.831  10.226  0.2154 -1.3538  3.3180
  545MOL0     H73539   3.603  11.079  10.231  0.4592 -1.6204  0.1778
  545MOL0     H73540   3.566  10.996  10.387  0.1234  0.5159  2.4040
  545MOL0     H73541   3.560  11.234  10.418 -1.0767 -0.5764 -3.9539
  545MOL0     H73542   3.674  11.148  10.511 -2.3866 -1.7749 -0.8277
  545MOL0     H73543   3.857  11.233  10.335  0.1570  0.9609  0.3092
  545MOL0     H73544   3.720  11.288  10.237 -0.3885 -0.6490 -0.1488
  545MOL0     H73545   3.797  11.409  10.515  1.1395  0.3701 -0.0262
  545MOL0     H73546   3.657  11.460  10.406  0.3409 -0.1368 -2.0973
  545MOL0     H73547   3.830  11.541  10.232  3.3807  0.5044 -1.5528
  545MOL0     H73548   3.957  11.464  10.327 -0.3125 -1.1452  0.0871
  545MOL0     H73549   3.750  11.664  10.432 -0.2170 -2.1599  2.0928
  545MOL0     H73550   3.905  11.636  10.511  1.0269 -2.1612 -1.1582
  545MOL0     H73551   3.867  11.769  10.240  0.2183  0.6734 -1.0031
  545MOL0     H73552   4.019  11.749  10.327  0.4359  1.6359 -2.6968
  545MOL0     H73553   3.967  11.915  10.491  0.7902  2.7520 -2.0442
  545MOL0     H73554   3.946  11.980  10.347  0.0814  1.7869  1.2748
  545MOL0     H73555   3.937  10.811  10.339 -0.6344  1.1726  1.0404
  545MOL0     H73556   3.930  10.573  10.303 -0.4773 -2.3841  0.0301
  545MOL0     H73557   3.989  10.160  10.134 -0.1125 -0.1170  0.9144
  545MOL0     H73558   3.924   9.904  10.024  0.0006 -0.2640  0.4364
  545MOL0     H73559   2.623  10.845   9.650 -0.0565  1.6178  0.0738
  545MOL0     H73560   2.687  10.931   9.444 -0.7401 -0.6256  0.4278
  545MOL0     H73561   2.638  11.143   9.193  2.0646  1.2276  1.8170
  545MOL0     H73562   2.576  11.164   8.943  0.8284 -0.4695 -0.7675
  545MOL0     H73563   2.782  10.934   8.638  4.3066  0.7762  1.5705
  545MOL0     H73564   2.872  11.087   8.633 -0.6264  1.5142  2.9209
  545MOL0     H73565   2.727  11.040   8.424  2.0911  1.6312  0.7270
  545MOL0     H73566   2.700  11.190   8.497  1.4091 -0.2071 -1.6606
  545MOL0     H73567   2.485  11.080   8.609  1.1961  0.9741 -0.1540
  545MOL0     H73568   2.516  10.936   8.523  2.9851 -0.3317  2.4413
  545MOL0     H73569   2.514  11.217   8.389 -1.6741  0.6541 -1.3355
  545MOL0     H73570   2.476  11.051   8.313 -2.3639 -0.0585  0.3750
  545MOL0     H73571   2.108  11.173   8.434  1.2392  1.0636  2.0806
  545MOL0     H73572   2.957  11.005   8.842  0.2439 -1.9665  0.2821
  545MOL0     H73573   3.122  10.952   8.986  1.0490  0.2206  1.1874
  545MOL0     H73574   3.112  11.014   9.157 -1.4087 -0.6532  0.6407
  545MOL0     H73575   3.041  10.861   9.115 -1.2191 -0.0822  1.4352
  546MOL0     O73576   9.242   0.124   4.064  0.2691 -0.4906 -0.2676
  546MOL0     C73577   9.295   0.034   4.128  0.8744 -0.8094  0.1131
  546MOL0     O73578   9.229  -0.070   4.193  0.8454  0.4232  0.0943
  546MOL0     C73579   9.093  -0.079   4.186  0.8468 -0.1774  1.1181
  546MOL0     C73580   9.035  -0.201   4.137 -0.4344  0.1848 -0.3887
  546MOL0     C73581   8.891  -0.212   4.113 -0.6305 -0.8624 -0.0774
  546MOL0     C73582   8.813  -0.104   4.158  0.2218  0.9401  0.3542
  546MOL0     O73583   8.680  -0.095   4.127 -0.3922 -0.1610  0.2220
  546MOL0     C73584   8.592  -0.206   4.152 -0.4095  0.0569 -0.6756
  546MOL0     C73585   8.457  -0.149   4.204 -0.1529  0.1652 -0.3052
  546MOL0     C73586   8.368  -0.251   4.275 -0.2765 -0.2206  0.6774
  546MOL0     C73587   8.332  -0.363   4.176 -0.3491  0.0976  0.5487
  546MOL0     C73588   8.274  -0.482   4.248 -0.1796  0.2855  1.6027
  546MOL0     C73589   8.138  -0.467   4.318 -0.7259 -0.7802  0.4232
  546MOL0     C73590   8.106  -0.598   4.402 -0.1266 -0.8324 -0.9918
  546MOL0     C73591   8.178  -0.609   4.532 -0.1140  0.0363  0.6369
  546MOL0     N73592   8.159  -0.498   4.624  0.1418 -0.1151  0.0624
  546MOL0     C73593   8.051  -0.404   4.635 -0.3833  0.0662 -0.4691
  546MOL0     C73594   8.085  -0.319   4.734 -0.3541  0.0377  0.6526
  546MOL0     C73595   8.007  -0.206   4.798  0.4642 -0.5586 -0.0316
  546MOL0     C73596   7.927  -0.247   4.926 -0.3028 -0.4388 -0.0402
  546MOL0     C73597   7.826  -0.135   4.961  0.2862  0.4338 -0.4176
  546MOL0     C73598   7.811  -0.127   5.110 -0.1534 -0.1791 -0.1648
  546MOL0     O73599   7.725  -0.017   5.127  0.2817  0.6294 -0.1844
  546MOL0     C73600   7.593  -0.042   5.153  0.9811  0.0914  0.3186
  546MOL0     C73601   7.533  -0.169   5.174  0.7401 -0.1383  0.7271
  546MOL0     C73602   7.391  -0.182   5.199 -0.3413  0.0710  0.9556
  546MOL0     C73603   7.315  -0.070   5.202  1.2016 -0.7682 -0.2900
  546MOL0     C73604   7.164  -0.084   5.196  0.3740  0.5358 -0.8112
  546MOL0     O73605   7.132  -0.214   5.194  0.2426 -0.4032  0.9371
  546MOL0     C73606   7.006  -0.251   5.222  0.9928 -0.8388  0.5444
  546MOL0     C73607   6.898  -0.213   5.135 -0.8420  0.7117  0.0679
  546MOL0     C73608   6.778  -0.264   5.156  0.9763 -0.5170  0.4145
  546MOL0     C73609   6.751  -0.352   5.255  0.5846 -1.0901 -0.8358
  546MOL0     O73610   6.616  -0.393   5.259 -0.0806 -0.3621 -0.0909
  546MOL0     C73611   6.547  -0.408   5.381 -0.1337 -0.4973 -0.2699
  546MOL0     C73612   6.399  -0.436   5.355 -0.8936 -0.3606  0.6694
  546MOL0     C73613   6.365  -0.570   5.282  1.1490 -0.8689 -0.4222
  546MOL0     C73614   6.353  -0.541   5.133  0.7533 -0.9873 -0.0578
  546MOL0     C73615   6.221  -0.472   5.068 -0.4566 -0.8352 -1.0729
  546MOL0     C73616   6.102  -0.552   5.094 -0.0566  1.3079  0.2789
  546MOL0     C73617   5.973  -0.501   5.035 -0.6079 -0.3965  0.2082
  546MOL0     C73618   5.853  -0.547   5.118 -0.9713  0.3103  0.5033
  546MOL0    Cl73619   5.700  -0.511   5.042  0.0148 -0.4545  0.0548
  546MOL0     C73620   6.851  -0.402   5.348 -0.1516 -0.8634  0.1481
  546MOL0     C73621   6.983  -0.340   5.319  0.5850  0.7466 -0.8511
  546MOL0     O73622   7.087   0.007   5.203  0.1779 -0.6976 -0.0647
  546MOL0     C73623   7.374   0.060   5.176 -0.1150  0.3477 -0.3348
  546MOL0     C73624   7.508   0.070   5.153  0.0732 -0.9333  0.2377
  546MOL0     N73625   8.209  -0.366   4.780  0.5890 -1.2109  0.1196
  546MOL0     N73626   8.250  -0.465   4.717 -0.8511  0.0635 -0.0425
  546MOL0     C73627   8.872   0.006   4.221  1.2930  0.8590 -0.7100
  546MOL0     C73628   9.006   0.026   4.230 -0.2345 -0.4099  0.5849
  546MOL0     C73629   9.438   0.044   4.153  0.3629 -0.8701 -0.2058
  546MOL0     C73630   9.501  -0.044   4.249  0.1542 -0.0865  0.3690
  546MOL0     C73631   9.638  -0.050   4.267 -0.0535  0.1424  0.2428
  546MOL0     C73632   9.717   0.054   4.208 -0.3462 -0.7403 -0.5288
  546MOL0     O73633   9.855   0.057   4.235 -0.1465 -0.1003  0.2637
  546MOL0     C73634   9.888   0.038   4.376  0.2428  0.2159 -0.3230
  546MOL0     C73635   9.985   0.142   4.432  0.4376 -0.0922  1.0888
  546MOL0     C73636  10.028   0.096   4.571  0.1735 -0.6711 -0.8706
  546MOL0     C73637  10.018   0.218   4.671 -0.0611  0.0581 -0.2547
  546MOL0     C73638   9.876   0.264   4.699 -0.6210  0.5458  0.2398
  546MOL0     C73639   9.760   0.279   4.737 -0.1098 -0.1479  0.7796
  546MOL0     C73640   9.666   0.140   4.118  0.2107  0.1976 -0.2869
  546MOL0     C73641   9.528   0.139   4.093  0.3629 -0.6630 -0.2614
  546MOL0     C73642   9.493   0.221   3.969 -1.1205 -0.0556 -0.6622
  546MOL0     H73643   9.108  -0.277   4.108  0.3661  0.4885  0.7382
  546MOL0     H73644   8.835  -0.276   4.045 -1.2951  0.9120 -1.2492
  546MOL0     H73645   8.565  -0.253   4.057 -1.3668  1.3808 -1.0922
  546MOL0     H73646   8.629  -0.283   4.220  1.5089  2.1968  0.8857
  546MOL0     H73647   8.408  -0.116   4.112  2.2562  1.8617 -1.0757
  546MOL0     H73648   8.480  -0.073   4.279 -2.8301 -4.0112  5.4792
  546MOL0     H73649   8.285  -0.186   4.303  1.3114  0.8145  3.3684
  546MOL0     H73650   8.418  -0.288   4.365 -2.1197 -1.5065  1.2294
  546MOL0     H73651   8.259  -0.323   4.104 -1.9840  0.3252  2.2547
  546MOL0     H73652   8.420  -0.398   4.122 -0.1457  1.5263 -0.1001
  546MOL0     H73653   8.242  -0.545   4.164 -0.2771  2.8795 -0.4858
  546MOL0     H73654   8.351  -0.523   4.313  3.3318 -2.0643 -3.3659
  546MOL0     H73655   8.150  -0.376   4.378  5.4586 -0.9958  0.1670
  546MOL0     H73656   8.062  -0.438   4.246 -0.2615  0.9804  0.5972
  546MOL0     H73657   8.112  -0.687   4.339  0.2198  0.0610 -2.2411
  546MOL0     H73658   8.000  -0.586   4.427 -0.3491 -0.3522 -2.1107
  546MOL0     H73659   8.154  -0.700   4.588  1.4688  0.4012  2.0079
  546MOL0     H73660   8.285  -0.606   4.510 -0.1225  0.0122  0.5939
  546MOL0     H73661   7.957  -0.403   4.580  0.1180 -0.4496 -1.3677
  546MOL0     H73662   8.082  -0.128   4.810  1.2967 -0.7132 -3.1453
  546MOL0     H73663   7.936  -0.172   4.721  2.5826  1.0354 -1.3911
  546MOL0     H73664   7.871  -0.340   4.911  0.6401 -0.8427 -1.1659
  546MOL0     H73665   8.003  -0.260   5.003  5.5068 -0.3550 -5.0449
  546MOL0     H73666   7.738  -0.171   4.907  0.0196 -1.8739  1.3886
  546MOL0     H73667   7.850  -0.034   4.927  1.9894  0.0330 -0.4779
  546MOL0     H73668   7.912  -0.105   5.147 -0.4565  1.7887 -0.3882
  546MOL0     H73669   7.764  -0.218   5.147 -3.1511  0.9449 -0.9100
  546MOL0     H73670   7.570  -0.270   5.174 -2.1780 -1.3836 -2.5143
  546MOL0     H73671   7.356  -0.276   5.242  1.7663  1.0480  5.3775
  546MOL0     H73672   6.921  -0.150   5.050  1.6656 -0.3507 -0.1334
  546MOL0     H73673   6.694  -0.225   5.100  1.1236 -1.2536 -0.3497
  546MOL0     H73674   6.590  -0.503   5.417 -0.0477 -1.4365 -2.6729
  546MOL0     H73675   6.560  -0.331   5.458  0.1370 -1.5963  0.8347
  546MOL0     H73676   6.343  -0.441   5.448 -0.0164 -2.6783  1.1215
  546MOL0     H73677   6.356  -0.359   5.289 -0.0631 -2.7145 -2.8961
  546MOL0     H73678   6.442  -0.646   5.299  2.8219  1.4130  3.5664
  546MOL0     H73679   6.270  -0.607   5.322 -0.1773 -0.0044 -2.6085
  546MOL0     H73680   6.372  -0.633   5.076  0.8092 -0.7398 -0.4434
  546MOL0     H73681   6.424  -0.461   5.113  2.6371 -2.9619 -1.7865
  546MOL0     H73682   6.224  -0.454   4.960 -1.2395  0.6437 -0.8701
  546MOL0     H73683   6.210  -0.369   5.102  1.0406 -0.7152 -0.9064
  546MOL0     H73684   6.116  -0.655   5.060 -1.1654  0.6447  1.7278
  546MOL0     H73685   6.093  -0.529   5.201 -2.3192  2.2119 -0.0504
  546MOL0     H73686   5.961  -0.548   4.937 -0.6520  1.2947 -0.6422
  546MOL0     H73687   5.971  -0.392   5.020  2.9730 -0.5476 -3.0167
  546MOL0     H73688   5.877  -0.652   5.140  3.1909  1.3075  1.6400
  546MOL0     H73689   5.856  -0.499   5.216 -3.2457 -0.6309  1.1013
  546MOL0     H73690   6.846  -0.485   5.417  0.3934 -3.0760 -2.3315
  546MOL0     H73691   7.074  -0.379   5.364  0.5732  3.4631  1.8732
  546MOL0     H73692   7.324   0.156   5.177 -0.8126  0.0165 -1.3784
  546MOL0     H73693   7.557   0.166   5.152  0.6107 -1.0980 -3.4075
  546MOL0     H73694   8.812   0.090   4.256 -3.2451 -2.6900  1.0385
  546MOL0     H73695   9.040   0.125   4.259 -0.4484 -0.1078 -0.1615
  546MOL0     H73696   9.431  -0.107   4.304 -2.4838  0.8259 -1.7361
  546MOL0     H73697   9.682  -0.117   4.339 -1.3779 -0.3757  0.6030
  546MOL0     H73698   9.929  -0.062   4.387 -2.1263 -0.5262  3.0614
  546MOL0     H73699   9.801   0.038   4.442  1.1783 -0.1185  0.9489
  546MOL0     H73700   9.921   0.231   4.436 -0.3783 -0.7021  3.0837
  546MOL0     H73701  10.077   0.169   4.381  0.9198 -0.5120  1.7305
  546MOL0     H73702  10.135   0.071   4.571  1.0065  2.1912 -3.7354
  546MOL0     H73703   9.976   0.009   4.613  2.6983 -1.8628  0.0230
  546MOL0     H73704  10.050   0.196   4.773  2.1081  1.0354 -0.6792
  546MOL0     H73705  10.070   0.304   4.629 -0.5899  0.0826 -0.8762
  546MOL0     H73706   9.661   0.286   4.776 -1.1176  0.3831 -1.6639
  546MOL0     H73707   9.719   0.217   4.063 -3.7966 -0.3321 -5.6682
  546MOL0     H73708   9.449   0.143   3.906 -0.5395  0.1835 -1.3717
  546MOL0     H73709   9.416   0.296   3.989 -1.5028 -0.5713 -0.1917
  546MOL0     H73710   9.586   0.257   3.923 -0.2685  0.0746  1.0610
  547MOL0     O73711   8.632   1.373  11.137 -0.3779 -0.5909 -0.3939
  547MOL0     C73712   8.700   1.274  11.117  0.2079  0.2599 -0.2282
  547MOL0     O73713   8.797   1.254  11.022  0.3212  0.8924  0.8758
  547MOL0     C73714   8.852   1.367  10.967 -0.0884  0.0544 -0.1053
  547MOL0     C73715   8.896   1.353  10.828 -0.2467 -0.6791  0.1290
  547MOL0     C73716   8.977   1.446  10.761 -0.0235  0.2803 -0.5075
  547MOL0     C73717   9.021   1.562  10.827  0.5914  0.1085  0.6230
  547MOL0     O73718   9.123   1.637  10.775  0.1216  0.3889 -0.1250
  547MOL0     C73719   9.090   1.691  10.650  0.4421 -0.7228  0.6088
  547MOL0     C73720   9.205   1.763  10.588  0.0793 -0.2276  0.7401
  547MOL0     C73721   9.322   1.667  10.555 -0.0566 -1.1047 -0.1696
  547MOL0     C73722   9.437   1.738  10.487  1.0787 -0.5235  0.2148
  547MOL0     C73723   9.563   1.656  10.468 -0.6008 -0.3816  0.0930
  547MOL0     C73724   9.559   1.547  10.359 -0.7006 -0.3787  0.5448
  547MOL0     C73725   9.689   1.466  10.358  0.6475 -0.4777  0.0747
  547MOL0     C73726   9.700   1.365  10.478  0.7523  0.1201  0.6269
  547MOL0     N73727   9.596   1.264  10.454  0.7307 -0.4522 -0.7826
  547MOL0     C73728   9.465   1.262  10.501  0.0552 -0.0720 -0.5403
  547MOL0     C73729   9.412   1.142  10.463 -0.1693 -0.3747  0.2487
  547MOL0     C73730   9.274   1.097  10.488 -0.7701 -0.2780  0.8261
  547MOL0     C73731   9.239   1.068  10.641  0.1227 -0.4768 -1.5059
  547MOL0     C73732   9.161   0.939  10.665  0.1385  0.3055  0.4608
  547MOL0     C73733   9.066   0.955  10.782 -0.0329  0.1699  0.7468
  547MOL0     O73734   9.139   0.990  10.897 -0.0579 -0.3129 -0.1838
  547MOL0     C73735   9.178   0.880  10.970 -0.4118 -0.7318 -0.4094
  547MOL0     C73736   9.311   0.856  10.988  0.9639 -1.0534  0.1146
  547MOL0     C73737   9.348   0.730  11.045  0.4470 -0.1653 -0.1906
  547MOL0     C73738   9.251   0.644  11.106  0.1397  0.5234  0.1032
  547MOL0     C73739   9.272   0.518  11.164 -1.1971  0.1305 -1.1646
  547MOL0     O73740   9.407   0.492  11.177  0.5263 -0.1208  0.1596
  547MOL0     C73741   9.436   0.358  11.192 -0.7895 -0.2396  0.1968
  547MOL0     C73742   9.479   0.286  11.086 -0.2489 -0.0071  0.1375
  547MOL0     C73743   9.517   0.148  11.103  0.4498  0.9519 -0.0415
  547MOL0     C73744   9.527   0.093  11.229  0.2535 -0.4339 -0.4405
  547MOL0     O73745   9.588  -0.030  11.237  0.5024 -0.2215 -0.0698
  547MOL0     C73746   9.532  -0.123  11.328 -0.1678 -1.0043 -0.5184
  547MOL0     C73747   9.589  -0.259  11.310  0.4928  0.1979 -0.1118
  547MOL0     C73748   9.566  -0.367  11.431 -0.5267  0.5181 -0.7434
  547MOL0     C73749   9.556  -0.512  11.385 -0.1081 -0.0428  0.0476
  547MOL0     C73750   9.481  -0.597  11.493 -0.3534  0.9647  0.1263
  547MOL0     C73751   9.331  -0.585  11.478 -0.4340  0.6570  0.3550
  547MOL0     C73752   9.245  -0.682  11.558 -0.7731  0.6456  0.0220
  547MOL0     C73753   9.263  -0.686  11.706 -0.2146 -0.7554  0.7770
  547MOL0    Cl73754   9.262  -0.518  11.783 -0.3632 -0.3409  0.0652
  547MOL0     C73755   9.495   0.166  11.335 -0.1952  0.1093 -0.0336
  547MOL0     C73756   9.460   0.304  11.319 -0.1148  0.8944 -0.7462
  547MOL0     O73757   9.183   0.447  11.208  0.9477  0.2543 -0.0929
  547MOL0     C73758   9.115   0.681  11.092  0.1933  0.9372 -0.4045
  547MOL0     C73759   9.081   0.801  11.032  0.3129 -0.4563  0.5780
  547MOL0     N73760   9.514   1.079  10.396  0.8976  0.0423  0.2640
  547MOL0     N73761   9.618   1.152  10.384  0.4823  0.4632 -1.0560
  547MOL0     C73762   8.968   1.587  10.959 -0.7526  0.3218 -0.1279
  547MOL0     C73763   8.879   1.498  11.029 -0.0219 -0.3462  0.2467
  547MOL0     C73764   8.664   1.151  11.193  0.7868 -0.3717  0.6392
  547MOL0     C73765   8.694   1.030  11.129  0.4746 -0.6049  0.1170
  547MOL0     C73766   8.680   0.909  11.199  0.1310  0.2800 -0.6882
  547MOL0     C73767   8.627   0.902  11.330 -0.4516 -0.0458  0.6186
  547MOL0     O73768   8.607   0.793  11.401  0.3509 -0.5027 -0.3081
  547MOL0     C73769   8.721   0.741  11.467  0.2101  0.1210 -0.4271
  547MOL0     C73770   8.733   0.596  11.439 -0.5710 -0.0188  0.1237
  547MOL0     C73771   8.757   0.561  11.288  0.2062  1.0228  0.4283
  547MOL0     C73772   8.791   0.419  11.257 -0.2854 -0.0084  0.8117
  547MOL0     C73773   8.672   0.335  11.249  0.0380  0.7410  0.8752
  547MOL0     C73774   8.572   0.263  11.245 -0.3671 -0.3729  0.3789
  547MOL0     C73775   8.584   1.030  11.383  0.4701  0.6580 -0.1411
  547MOL0     C73776   8.604   1.153  11.324 -0.0912 -0.4655  0.5048
  547MOL0     C73777   8.559   1.273  11.401 -0.3037 -0.4558  0.4975
  547MOL0     H73778   8.874   1.260  10.775 -1.0763 -0.7109  0.5156
  547MOL0     H73779   9.023   1.409  10.670  0.5691 -0.6299  0.1384
  547MOL0     H73780   9.050   1.610  10.588  1.0788  0.8453 -1.9732
  547MOL0     H73781   9.017   1.770  10.670  1.3088  0.7021 -1.5947
  547MOL0     H73782   9.226   1.852  10.648  1.3868  1.6371 -2.2394
  547MOL0     H73783   9.148   1.808  10.506 -0.0993  1.8425  1.9234
  547MOL0     H73784   9.287   1.582  10.495  0.7210 -2.5900  1.3747
  547MOL0     H73785   9.362   1.628  10.649 -1.6702 -0.2013  0.9380
  547MOL0     H73786   9.406   1.779  10.390  0.2439  1.4203  1.2586
  547MOL0     H73787   9.456   1.830  10.543  2.0898  0.6810 -1.9529
  547MOL0     H73788   9.636   1.735  10.446  0.8118 -1.0721  2.0208
  547MOL0     H73789   9.591   1.624  10.569 -0.6025 -0.0765  0.1935
  547MOL0     H73790   9.472   1.481  10.361  0.9180 -2.6538  2.0284
  547MOL0     H73791   9.551   1.594  10.261  2.4287 -3.4619 -1.4207
  547MOL0     H73792   9.774   1.535  10.348  0.6807 -0.8318 -2.9078
  547MOL0     H73793   9.673   1.405  10.269 -1.1702  0.0459 -0.0034
  547MOL0     H73794   9.792   1.305  10.478  0.1827 -0.8111 -0.6405
  547MOL0     H73795   9.670   1.422  10.566 -2.0133 -1.3502  0.7442
  547MOL0     H73796   9.427   1.321  10.583  0.1224 -2.6199  1.4546
  547MOL0     H73797   9.210   1.177  10.450  1.1607  0.2476 -1.5720
  547MOL0     H73798   9.253   1.013  10.422  0.5556 -0.8255  1.0751
  547MOL0     H73799   9.332   1.068  10.699 -1.0562  0.4553  0.4957
  547MOL0     H73800   9.175   1.147  10.683  0.8011 -0.8765  0.3952
  547MOL0     H73801   9.230   0.856  10.685  0.6234  0.7976  0.8397
  547MOL0     H73802   9.098   0.929  10.575  0.9778  3.6208 -0.6449
  547MOL0     H73803   9.006   0.865  10.799 -1.4091  1.6448  5.0619
  547MOL0     H73804   8.992   1.031  10.753  2.6468  2.7386  0.1541
  547MOL0     H73805   9.384   0.923  10.946 -1.7921  1.2138 -1.4335
  547MOL0     H73806   9.454   0.707  11.040  0.3616 -0.8729  0.8905
  547MOL0     H73807   9.468   0.317  10.983  0.5573 -2.3694 -0.7130
  547MOL0     H73808   9.528   0.086  11.015  1.6870 -0.6616  1.1760
  547MOL0     H73809   9.553  -0.093  11.431  0.4739 -2.1333 -0.3127
  547MOL0     H73810   9.422  -0.117  11.322 -0.2367 -1.7092  0.0193
  547MOL0     H73811   9.562  -0.290  11.209  1.7352  3.5828 -1.6158
  547MOL0     H73812   9.697  -0.253  11.295  0.1426  2.4681 -2.2831
  547MOL0     H73813   9.653  -0.353  11.496  0.0076  0.7709 -1.5004
  547MOL0     H73814   9.475  -0.330  11.480 -0.2557 -1.4629  1.4292
  547MOL0     H73815   9.659  -0.549  11.381  0.3246  1.2496 -1.8814
  547MOL0     H73816   9.489  -0.508  11.299  1.1725  1.0176 -0.9419
  547MOL0     H73817   9.520  -0.560  11.588  1.2502 -2.1575  0.8040
  547MOL0     H73818   9.504  -0.703  11.499  0.0602  1.0632  0.3194
  547MOL0     H73819   9.318  -0.481  11.508 -1.1228 -0.0253  2.5633
  547MOL0     H73820   9.313  -0.600  11.371 -0.3973  1.7441  0.1856
  547MOL0     H73821   9.258  -0.785  11.525  0.4039  0.9213 -0.4211
  547MOL0     H73822   9.145  -0.646  11.533 -0.3592  2.2723  0.5588
  547MOL0     H73823   9.187  -0.749  11.754  0.2255 -1.3007  0.7571
  547MOL0     H73824   9.357  -0.730  11.739 -2.1628 -2.3029  5.1378
  547MOL0     H73825   9.522   0.134  11.435 -0.9322 -1.9900 -0.4614
  547MOL0     H73826   9.449   0.367  11.407 -0.3473  1.3201 -1.0766
  547MOL0     H73827   9.039   0.615  11.134  0.9521 -0.9255 -1.8084
  547MOL0     H73828   8.978   0.820  11.003  0.1422 -3.2274 -1.0130
  547MOL0     H73829   9.024   1.669  11.004 -1.9451  0.7753  0.5554
  547MOL0     H73830   8.842   1.522  11.129  3.2531  0.2907  1.4440
  547MOL0     H73831   8.730   1.018  11.027  0.1124 -0.2564 -0.0610
  547MOL0     H73832   8.706   0.823  11.138 -0.4653 -0.3728 -0.0370
  547MOL0     H73833   8.707   0.753  11.575  0.8279 -0.1229 -0.3146
  547MOL0     H73834   8.813   0.793  11.439 -0.7299  2.0634 -0.0830
  547MOL0     H73835   8.650   0.536  11.478  0.7559 -0.7712  1.8942
  547MOL0     H73836   8.824   0.563  11.489  0.5796 -0.2625 -2.0217
  547MOL0     H73837   8.844   0.623  11.265  0.6577  1.8047  3.7587
  547MOL0     H73838   8.675   0.601  11.228 -1.1909 -0.3447  1.3284
  547MOL0     H73839   8.845   0.410  11.162 -2.4430  2.1612 -0.7187
  547MOL0     H73840   8.853   0.373  11.335  0.5829  1.5301  1.0592
  547MOL0     H73841   8.493   0.193  11.226  2.1288 -3.5018  0.6368
  547MOL0     H73842   8.546   1.020  11.484  0.1273 -0.5747 -0.3701
  547MOL0     H73843   8.539   1.242  11.504 -2.1608 -2.6504 -0.4388
  547MOL0     H73844   8.627   1.358  11.395 -1.4476  0.8422  3.4108
  547MOL0     H73845   8.456   1.297  11.373 -1.2487 -2.4498  1.9946
  548MOL0     O73846   1.822   9.674  10.913 -0.7631 -0.2535  0.3087
  548MOL0     C73847   1.943   9.693  10.887 -0.2771  0.2175 -0.3431
  548MOL0     O73848   2.023   9.792  10.950  0.5039  0.4688  0.3908
  548MOL0     C73849   1.969   9.907  11.001 -0.4918  0.5671  0.0252
  548MOL0     C73850   1.854   9.967  10.943  0.8303  1.2062 -0.1280
  548MOL0     C73851   1.800  10.088  10.994  0.4184  0.0476  0.1675
  548MOL0     C73852   1.863  10.150  11.104  0.5593 -0.3499  0.2170
  548MOL0     O73853   1.820  10.272  11.157 -0.0493 -0.2291 -0.1419
  548MOL0     C73854   1.752  10.372  11.086  0.5054 -0.2622  0.0071
  548MOL0     C73855   1.761  10.508  11.150 -0.4105  0.4398 -0.1870
  548MOL0     C73856   1.646  10.537  11.257 -0.6697 -0.3451  1.0205
  548MOL0     C73857   1.599  10.429  11.348  0.1723 -0.3136 -0.3116
  548MOL0     C73858   1.478  10.480  11.424 -0.8615 -0.3233  0.6020
  548MOL0     C73859   1.381  10.381  11.456  0.2324  0.4293 -0.6949
  548MOL0     C73860   1.265  10.364  11.349 -0.3873 -0.1334 -0.1073
  548MOL0     C73861   1.160  10.255  11.390 -0.1965  0.6751  0.6993
  548MOL0     N73862   1.042  10.275  11.312 -1.1101 -0.5938  0.1190
  548MOL0     C73863   0.996  10.179  11.233  0.9321  0.3513  0.0931
  548MOL0     C73864   0.864  10.204  11.208  0.0658  0.4939  0.0469
  548MOL0     C73865   0.783  10.112  11.109  0.8079 -0.4217 -0.9016
  548MOL0     C73866   0.851   9.984  11.074  0.5498 -0.0737  0.8173
  548MOL0     C73867   0.761   9.895  10.983 -0.4993 -0.5997  0.0986
  548MOL0     C73868   0.769   9.940  10.838 -0.2095 -0.1140  0.7657
  548MOL0     O73869   0.905   9.937  10.803  0.5188  0.6563 -0.5778
  548MOL0     C73870   0.940   9.881  10.682 -0.1238 -0.1345 -0.0853
  548MOL0     C73871   0.866   9.829  10.570  0.1551  0.4411 -0.1148
  548MOL0     C73872   0.929   9.777  10.458  0.5185  0.2120 -1.0491
  548MOL0     C73873   1.065   9.782  10.444 -0.8490  0.4735  0.1999
  548MOL0     C73874   1.133   9.715  10.324  0.3111 -0.2384 -1.2096
  548MOL0     O73875   1.063   9.622  10.258  0.2858 -0.1423  0.4384
  548MOL0     C73876   1.090   9.585  10.130  0.0058 -0.2884  0.6052
  548MOL0     C73877   1.093   9.665  10.014  0.7070 -0.7565 -0.4395
  548MOL0     C73878   1.112   9.587   9.893  0.1865 -0.0400 -1.0155
  548MOL0     C73879   1.124   9.446   9.886 -0.2209  0.0079 -0.0206
  548MOL0     O73880   1.155   9.372   9.774 -0.4372  0.2190  0.7199
  548MOL0     C73881   1.047   9.344   9.685 -0.3201  0.5801  0.2649
  548MOL0     C73882   0.934   9.260   9.756  0.5557 -0.7852 -1.1893
  548MOL0     C73883   0.989   9.126   9.805  0.6994  1.0545  1.7612
  548MOL0     C73884   0.976   9.022   9.688 -0.4144 -0.1958 -0.8215
  548MOL0     C73885   1.031   8.878   9.704  1.2053  0.3562 -0.4146
  548MOL0     C73886   0.996   8.796   9.581 -0.0042 -0.2473 -0.3365
  548MOL0     C73887   1.058   8.660   9.593  0.9664 -0.0139 -0.0038
  548MOL0     C73888   1.014   8.569   9.711  0.2315 -0.6226  0.0604
  548MOL0    Cl73889   1.118   8.612   9.846 -0.1910 -0.0151  0.2565
  548MOL0     C73890   1.102   9.378  10.008 -0.3848  0.0301  0.6881
  548MOL0     C73891   1.102   9.453  10.120 -0.4549  0.7716  0.3204
  548MOL0     O73892   1.236   9.772  10.294 -0.1666  0.2372 -0.5022
  548MOL0     C73893   1.143   9.835  10.553 -1.0969  0.6011  0.9892
  548MOL0     C73894   1.080   9.879  10.669  0.3530  0.8451  0.4072
  548MOL0     N73895   0.830  10.322  11.268 -0.0665 -0.3584 -0.7389
  548MOL0     N73896   0.938  10.365  11.331 -0.3478  0.2951 -0.7297
  548MOL0     C73897   1.960  10.078  11.171 -0.9235  0.0310  0.0738
  548MOL0     C73898   2.020   9.965  11.121  0.8756 -0.0667 -0.6474
  548MOL0     C73899   2.003   9.596  10.802 -0.4324  0.1002 -0.1924
  548MOL0     C73900   1.971   9.464  10.838  0.1204 -0.4819 -0.0671
  548MOL0     C73901   2.018   9.358  10.762 -0.1853 -0.3287 -0.1969
  548MOL0     C73902   2.102   9.386  10.653 -0.1473 -0.0212  0.4813
  548MOL0     O73903   2.164   9.281  10.591 -0.2778 -0.7761 -0.2039
  548MOL0     C73904   2.073   9.212  10.506 -0.2979  0.0416  0.3879
  548MOL0     C73905   2.121   9.070  10.480  0.3872  0.9992  0.2895
  548MOL0     C73906   2.076   8.976  10.592  0.6161  0.4585  0.1914
  548MOL0     C73907   2.137   8.836  10.568  0.0792  0.2628  0.0664
  548MOL0     C73908   2.080   8.718  10.643  0.9816 -0.9074  0.5546
  548MOL0     C73909   2.038   8.647  10.732 -0.0839 -0.0607 -0.1043
  548MOL0     C73910   2.131   9.516  10.607 -0.2381  0.5279 -0.3328
  548MOL0     C73911   2.081   9.621  10.680  0.5527 -0.8299 -0.6196
  548MOL0     C73912   2.109   9.762  10.645 -0.6847 -0.1499  0.1744
  548MOL0     H73913   1.816   9.917  10.854  0.4276  1.8270 -0.3187
  548MOL0     H73914   1.718  10.147  10.953  1.2636  1.6152  0.6264
  548MOL0     H73915   1.786  10.379  10.982 -0.1728 -0.0764 -0.2048
  548MOL0     H73916   1.649  10.337  11.079  0.1030  0.6948  0.9286
  548MOL0     H73917   1.754  10.584  11.072  0.2542  1.3965  0.6515
  548MOL0     H73918   1.862  10.525  11.189  0.1310 -4.8697  1.4433
  548MOL0     H73919   1.565  10.564  11.189 -0.6937 -4.6660 -0.9782
  548MOL0     H73920   1.673  10.626  11.315  2.7421  0.8898 -2.0311
  548MOL0     H73921   1.571  10.353  11.275  1.8646  0.6974 -2.1047
  548MOL0     H73922   1.674  10.391  11.417  0.2770  2.5019  1.2693
  548MOL0     H73923   1.520  10.533  11.510  1.3233  1.6421 -1.4890
  548MOL0     H73924   1.434  10.565  11.370 -0.5386  0.3708  1.4026
  548MOL0     H73925   1.430  10.286  11.480  1.5598  1.0946 -0.6903
  548MOL0     H73926   1.334  10.422  11.546 -1.7021  0.2039 -1.5567
  548MOL0     H73927   1.312  10.337  11.254 -0.5752  1.6638 -0.7627
  548MOL0     H73928   1.220  10.462  11.332 -0.5574 -0.7391 -4.2953
  548MOL0     H73929   1.202  10.156  11.372 -0.1735  0.8338 -0.1565
  548MOL0     H73930   1.127  10.273  11.493 -1.6216 -1.3324  0.6392
  548MOL0     H73931   1.042  10.084  11.208  1.6590  0.3618  1.3289
  548MOL0     H73932   0.685  10.098  11.156  0.6232  3.1694  0.0731
  548MOL0     H73933   0.752  10.177  11.027  1.1788  3.8247  2.0129
  548MOL0     H73934   0.944  10.015  11.026 -0.7375  2.3759 -0.3034
  548MOL0     H73935   0.865   9.922  11.163 -1.3490  1.9818  2.7224
  548MOL0     H73936   0.663   9.897  11.032 -1.0663  1.6316 -0.9960
  548MOL0     H73937   0.794   9.791  10.995 -2.9981 -1.5009 -0.1074
  548MOL0     H73938   0.742  10.045  10.831 -2.1780 -0.6392 -0.3557
  548MOL0     H73939   0.699   9.882  10.776  4.1748 -3.3914 -1.6331
  548MOL0     H73940   0.759   9.826  10.589  0.7714 -1.4713  4.2687
  548MOL0     H73941   0.873   9.726  10.380  2.2740 -1.4336 -1.3070
  548MOL0     H73942   1.091   9.773  10.009  0.0979 -0.6982  0.6996
  548MOL0     H73943   1.122   9.632   9.795 -2.7329 -0.0197 -1.3796
  548MOL0     H73944   1.006   9.437   9.646 -1.9287  0.6696  2.0291
  548MOL0     H73945   1.084   9.289   9.599  0.6858 -0.9410  1.6042
  548MOL0     H73946   0.907   9.315   9.846  2.9769  0.6127 -1.2181
  548MOL0     H73947   0.843   9.257   9.695  0.4992  4.8112 -1.9069
  548MOL0     H73948   1.090   9.121   9.847  1.1965  1.8492  0.7294
  548MOL0     H73949   0.924   9.099   9.888  1.6981 -0.5549  2.0586
  548MOL0     H73950   1.031   9.072   9.608 -0.4898  0.7462 -0.2892
  548MOL0     H73951   0.873   9.025   9.649  0.6710 -0.3226 -3.9703
  548MOL0     H73952   0.975   8.840   9.790 -2.1605  1.5092 -1.9113
  548MOL0     H73953   1.137   8.868   9.728  0.3602 -4.3019  2.7553
  548MOL0     H73954   0.887   8.782   9.570  0.0007  0.1854 -0.9761
  548MOL0     H73955   1.031   8.847   9.491 -1.1032  1.6621  0.2555
  548MOL0     H73956   1.167   8.658   9.601  1.2171 -1.4914 -2.5179
  548MOL0     H73957   1.036   8.602   9.503  0.5013  1.5815 -0.9606
  548MOL0     H73958   0.909   8.598   9.727  1.0003  1.9536  0.8294
  548MOL0     H73959   1.010   8.461   9.694 -3.9455 -0.5880 -0.3454
  548MOL0     H73960   1.101   9.270   9.998  3.1022  0.0782 -2.2482
  548MOL0     H73961   1.124   9.399  10.212 -0.3739  1.2924  0.6147
  548MOL0     H73962   1.251   9.841  10.550 -1.0048 -0.7827 -1.4969
  548MOL0     H73963   1.134   9.902  10.760  0.2971  2.3173  0.0961
  548MOL0     H73964   1.990  10.128  11.262 -2.2909  4.0623 -1.4496
  548MOL0     H73965   2.102   9.926  11.180  0.2665  0.9239  0.9260
  548MOL0     H73966   1.921   9.440  10.931 -1.0887 -0.4594 -0.6908
  548MOL0     H73967   2.009   9.255  10.796  1.1826 -1.2067 -2.2780
  548MOL0     H73968   2.075   9.256  10.406  4.1512  0.3361  0.3796
  548MOL0     H73969   1.975   9.199  10.553  0.6509 -1.1893  2.1629
  548MOL0     H73970   2.230   9.078  10.494  0.2655  4.3197  0.1936
  548MOL0     H73971   2.086   9.037  10.382  1.6174  0.3672  0.0315
  548MOL0     H73972   1.967   8.969  10.585  0.6625 -0.0927 -0.0424
  548MOL0     H73973   2.099   9.018  10.690  0.8640  0.4145  0.1517
  548MOL0     H73974   2.150   8.804  10.464 -2.1784  1.2299 -0.5756
  548MOL0     H73975   2.235   8.840  10.616  0.8797  0.2597 -1.4990
  548MOL0     H73976   2.015   8.581  10.813  0.0992  2.6962  2.3580
  548MOL0     H73977   2.199   9.529  10.523  0.4496 -0.7715 -0.0095
  548MOL0     H73978   2.161   9.817  10.724  0.0288  0.6431 -0.8067
  548MOL0     H73979   2.164   9.773  10.551 -0.0473 -3.5331  0.0470
  548MOL0     H73980   2.016   9.815  10.621 -0.9198  0.6549  2.5557
  549MOL0     O73981  10.973   2.333   9.922 -0.7145 -0.7652 -1.1246
  549MOL0     C73982  10.949   2.305  10.036  0.5284  0.4928 -0.3437
  549MOL0     O73983  10.993   2.190  10.103 -0.7687 -0.0125  0.5075
  549MOL0     C73984  11.070   2.107  10.027 -0.0164  0.2942  0.0071
  549MOL0     C73985  11.201   2.134   9.976  1.2727 -0.2885  0.6004
  549MOL0     C73986  11.257   2.040   9.885  0.1042  0.0851  0.2667
  549MOL0     C73987  11.192   1.930   9.839 -0.6573  0.4342  0.5615
  549MOL0     O73988  11.248   1.857   9.734 -0.2417  1.4587 -0.2677
  549MOL0     C73989  11.212   1.721   9.723 -0.8055  0.0129  0.4363
  549MOL0     C73990  11.288   1.668   9.603 -0.6341  0.1268 -1.0712
  549MOL0     C73991  11.440   1.701   9.616 -0.2163 -0.9627 -0.9492
  549MOL0     C73992  11.471   1.821   9.534  0.5992 -0.0985  0.1772
  549MOL0     C73993  11.609   1.801   9.470  0.0994  0.1513  0.3553
  549MOL0     C73994  11.652   1.927   9.374  0.0955  0.4984 -0.6511
  549MOL0     C73995  11.783   1.914   9.319  0.0022 -0.7164  0.3621
  549MOL0     C73996  11.840   2.021   9.230 -0.1747 -0.7055 -0.1235
  549MOL0     N73997  11.981   1.991   9.183  0.2445  0.1357 -1.1390
  549MOL0     C73998  12.075   2.080   9.135 -0.3757 -0.2231  0.2485
  549MOL0     C73999  12.169   2.000   9.075 -0.4818 -0.2317  0.1796
  549MOL0     C74000  12.299   2.062   9.011  0.3613  0.4043  0.1101
  549MOL0     C74001  12.383   2.159   9.097 -0.0039  0.0459  0.7958
  549MOL0     C74002  12.522   2.194   9.029 -0.7398  0.9118  0.7686
  549MOL0     C74003  12.508   2.278   8.896  0.5659 -0.6828  0.5689
  549MOL0     O74004  12.624   2.260   8.816 -0.5307 -0.1030  1.0432
  549MOL0     C74005  12.609   2.210   8.690  0.4576 -1.0806 -0.5143
  549MOL0     C74006  12.528   2.103   8.643 -1.2172 -0.1025 -0.3882
  549MOL0     C74007  12.511   2.081   8.506 -0.7710  0.1885  0.4733
  549MOL0     C74008  12.581   2.157   8.409 -1.2563 -0.1304 -0.4662
  549MOL0     C74009  12.543   2.159   8.274 -0.2647 -0.3146  1.6331
  549MOL0     O74010  12.530   2.278   8.220 -0.3300 -0.4694  0.1406
  549MOL0     C74011  12.518   2.303   8.088 -0.0466 -0.8081 -0.6658
  549MOL0     C74012  12.621   2.291   7.994  0.0112  0.3985 -0.0294
  549MOL0     C74013  12.626   2.352   7.871 -0.5539 -0.2077  0.1059
  549MOL0     C74014  12.508   2.408   7.820 -0.3198  0.0981 -0.9159
  549MOL0     O74015  12.488   2.457   7.694 -0.5869  0.3154 -0.5956
  549MOL0     C74016  12.592   2.472   7.591 -0.4322 -0.3262  0.0889
  549MOL0     C74017  12.525   2.510   7.455  0.6029 -0.2060 -0.4396
  549MOL0     C74018  12.627   2.570   7.362 -0.2192 -0.4060  0.4955
  549MOL0     C74019  12.659   2.479   7.248  0.0486 -0.3308  0.1508
  549MOL0     C74020  12.704   2.556   7.123  0.4450 -0.2394  0.1970
  549MOL0     C74021  12.850   2.620   7.135 -0.0124 -1.3064 -0.2132
  549MOL0     C74022  12.908   2.686   7.008  1.5394 -0.4750 -0.0098
  549MOL0     C74023  13.052   2.677   6.990 -0.3925 -0.1188 -0.1605
  549MOL0    Cl74024  13.080   2.755   6.830  0.1268  0.2939  0.4859
  549MOL0     C74025  12.394   2.411   7.903  0.4636 -0.3689 -0.2787
  549MOL0     C74026  12.408   2.362   8.036  0.1016 -0.5447  0.4301
  549MOL0     O74027  12.516   2.059   8.210  0.8975 -0.2846  0.4813
  549MOL0     C74028  12.667   2.259   8.458 -0.4934 -0.1383  0.2924
  549MOL0     C74029  12.679   2.289   8.592 -0.2103 -0.2086 -0.6869
  549MOL0     N74030  12.126   1.872   9.083 -0.0739  0.7716 -0.2013
  549MOL0     N74031  12.023   1.867   9.151  0.4343 -0.4589  0.0702
  549MOL0     C74032  11.071   1.899   9.905 -0.9805 -0.1747 -0.1426
  549MOL0     C74033  11.012   1.983   9.996  0.8315 -0.3132 -1.0690
  549MOL0     C74034  10.895   2.401  10.128  0.1705  0.6773  0.1506
  549MOL0     C74035  10.840   2.354  10.249 -0.1163 -0.4277 -0.3589
  549MOL0     C74036  10.779   2.438  10.342  0.1784 -1.2662 -0.3068
  549MOL0     C74037  10.747   2.568  10.313  0.8671 -0.1902  0.7493
  549MOL0     O74038  10.651   2.652  10.367 -0.4802  0.0122  0.6617
  549MOL0     C74039  10.598   2.602  10.491  0.1667 -0.3123  0.9722
  549MOL0     C74040  10.499   2.678  10.571  0.8793  0.6840 -0.0455
  549MOL0     C74041  10.492   2.648  10.715  0.5692  0.1745 -0.6251
  549MOL0     C74042  10.350   2.677  10.772 -0.3803  0.3275  0.3031
  549MOL0     C74043  10.338   2.656  10.919 -0.3194  0.3331  0.3613
  549MOL0     C74044  10.326   2.660  11.041  0.1613 -1.0866  0.0476
  549MOL0     C74045  10.789   2.613  10.192 -0.1816  0.3114  0.0668
  549MOL0     C74046  10.869   2.539  10.100  0.0739 -0.1640  0.5480
  549MOL0     C74047  10.919   2.615   9.972 -0.2461  0.1003  0.3065
  549MOL0     H74048  11.249   2.221  10.018 -1.0149  0.0977  2.6496
  549MOL0     H74049  11.357   2.066   9.850 -0.4098  0.4462 -0.9928
  549MOL0     H74050  11.237   1.664   9.813 -0.8026 -0.0711  0.3840
  549MOL0     H74051  11.108   1.702   9.697 -1.1171  1.3906  0.5939
  549MOL0     H74052  11.247   1.717   9.514 -0.9001  2.3845  0.2196
  549MOL0     H74053  11.268   1.561   9.595 -0.3017 -0.2428  1.9863
  549MOL0     H74054  11.485   1.604   9.593  0.3319 -1.6956  2.5962
  549MOL0     H74055  11.470   1.726   9.719  1.6797  2.9166 -2.2184
  549MOL0     H74056  11.399   1.848   9.457  0.0803 -3.1174 -0.5367
  549MOL0     H74057  11.466   1.905   9.604  0.0510 -2.4007  3.1347
  549MOL0     H74058  11.678   1.773   9.550  0.6439  0.5347  0.0249
  549MOL0     H74059  11.605   1.708   9.412 -1.6211 -0.6736  1.7094
  549MOL0     H74060  11.574   1.948   9.300  0.8148  2.7022 -0.8328
  549MOL0     H74061  11.651   2.016   9.438  0.7888 -1.1808  1.8413
  549MOL0     H74062  11.794   1.820   9.263  1.7160 -0.1072 -0.4017
  549MOL0     H74063  11.859   1.908   9.398 -1.5727  0.9501  2.0822
  549MOL0     H74064  11.770   2.027   9.146 -4.2487  5.4907  2.9420
  549MOL0     H74065  11.838   2.125   9.262  0.9385  0.8580 -4.4951
  549MOL0     H74066  12.076   2.188   9.147 -1.3237 -0.1664 -0.0913
  549MOL0     H74067  12.360   1.981   8.969 -1.6120 -0.1447 -1.9003
  549MOL0     H74068  12.278   2.116   8.918  4.1983  2.2614  0.1254
  549MOL0     H74069  12.330   2.250   9.125 -0.5006  0.0129 -0.0139
  549MOL0     H74070  12.404   2.112   9.194 -1.4143  2.3931  2.3348
  549MOL0     H74071  12.577   2.100   9.020 -1.7100  0.1315  2.5656
  549MOL0     H74072  12.577   2.254   9.101 -2.6595  2.1673  1.2551
  549MOL0     H74073  12.508   2.384   8.923  2.7106 -0.5544  0.1913
  549MOL0     H74074  12.421   2.254   8.835  1.6696 -3.1046 -0.1263
  549MOL0     H74075  12.465   2.052   8.715 -4.7969  0.6159 -2.7969
  549MOL0     H74076  12.428   2.029   8.460 -0.8548  2.5849 -2.3569
  549MOL0     H74077  12.717   2.246   8.021 -1.7210 -1.8600  3.1104
  549MOL0     H74078  12.710   2.340   7.803 -0.6927 -2.2129  0.2493
  549MOL0     H74079  12.651   2.558   7.621 -1.2221 -0.2188  1.4382
  549MOL0     H74080  12.665   2.392   7.576  2.0338  1.9676 -0.9500
  549MOL0     H74081  12.476   2.421   7.414  1.9928 -1.3379  0.2272
  549MOL0     H74082  12.453   2.592   7.459 -0.5446 -0.5325 -6.1218
  549MOL0     H74083  12.580   2.657   7.314  1.8322 -0.0721 -1.0608
  549MOL0     H74084  12.727   2.596   7.399  0.4800  0.5772 -1.8715
  549MOL0     H74085  12.561   2.439   7.222  0.4144 -0.5938 -0.8776
  549MOL0     H74086  12.724   2.398   7.282  2.4688  1.3089 -0.2473
  549MOL0     H74087  12.630   2.628   7.086 -0.0026 -0.3516  0.8466
  549MOL0     H74088  12.702   2.491   7.035 -0.8655  1.6417 -1.2438
  549MOL0     H74089  12.841   2.696   7.214  0.2697 -0.8495 -0.6163
  549MOL0     H74090  12.928   2.564   7.187 -0.4805  0.4225  2.5784
  549MOL0     H74091  12.873   2.789   7.007  2.9037  0.0233  0.8680
  549MOL0     H74092  12.861   2.653   6.915  1.2626  1.4644 -0.5934
  549MOL0     H74093  13.104   2.730   7.070 -1.4001  0.0226  0.4288
  549MOL0     H74094  13.077   2.571   7.002 -1.7945 -0.5103 -0.5075
  549MOL0     H74095  12.306   2.451   7.853  1.2597  1.6025 -0.1946
  549MOL0     H74096  12.324   2.364   8.105  0.0927 -0.3172  0.4126
  549MOL0     H74097  12.716   2.318   8.381 -2.2834 -0.6600 -1.3300
  549MOL0     H74098  12.743   2.370   8.623 -0.1032  1.4904 -4.7039
  549MOL0     H74099  11.020   1.807   9.879  0.1575 -1.5153  2.0684
  549MOL0     H74100  10.914   1.953  10.030  1.2969 -0.7455 -0.0936
  549MOL0     H74101  10.862   2.257  10.292 -2.8258  0.0163  2.3000
  549MOL0     H74102  10.760   2.381  10.432 -0.7992 -1.5740 -0.6896
  549MOL0     H74103  10.677   2.590  10.566  0.6595  0.4904  0.5934
  549MOL0     H74104  10.556   2.504  10.466  0.9319 -0.6484  0.9758
  549MOL0     H74105  10.405   2.655  10.520 -0.3369 -0.4891  2.5453
  549MOL0     H74106  10.522   2.785  10.562  1.5498  0.6983  1.5682
  549MOL0     H74107  10.558   2.712  10.773 -1.6045  1.0218  1.0587
  549MOL0     H74108  10.526   2.545  10.734  1.1942  0.9452  3.3138
  549MOL0     H74109  10.327   2.778  10.739  1.8156 -0.5659 -5.0212
  549MOL0     H74110  10.269   2.619  10.726 -0.5479  1.5929 -1.0413
  549MOL0     H74111  10.299   2.652  11.145 -1.2622 -2.2687 -0.3739
  549MOL0     H74112  10.759   2.714  10.169  0.2958  0.1007 -1.6486
  549MOL0     H74113  10.876   2.713   9.953 -0.2002 -0.1854 -1.4338
  549MOL0     H74114  11.028   2.623   9.985 -0.2087  0.6240 -0.3005
  549MOL0     H74115  10.895   2.557   9.882 -2.6579 -0.2034  1.0926
  550MOL0     O74116   2.528   5.434   8.051 -0.6904 -0.2519  0.4815
  550MOL0     C74117   2.600   5.339   8.018  0.3514 -1.5025 -1.0985
  550MOL0     O74118   2.549   5.217   7.997 -0.4163  0.0104 -0.1456
  550MOL0     C74119   2.425   5.225   7.927 -0.2679  0.9934  0.0830
  550MOL0     C74120   2.301   5.210   7.991 -0.0284 -0.1367 -0.1761
  550MOL0     C74121   2.182   5.209   7.918  0.4109  0.0975  0.1432
  550MOL0     C74122   2.187   5.223   7.779 -0.2866 -0.8333  0.6673
  550MOL0     O74123   2.066   5.222   7.702  0.1314  0.7973 -0.1184
  550MOL0     C74124   2.085   5.201   7.564  0.5187  0.2760  0.4762
  550MOL0     C74125   1.947   5.191   7.496 -0.4969  0.1418 -0.9070
  550MOL0     C74126   1.953   5.176   7.339  0.2552  0.5218 -1.3548
  550MOL0     C74127   1.816   5.172   7.273 -1.6090 -0.5670 -0.0716
  550MOL0     C74128   1.810   5.130   7.127  0.0552  0.0661  0.0739
  550MOL0     C74129   1.680   5.185   7.072  0.2329 -0.6118 -0.5145
  550MOL0     C74130   1.642   5.110   6.944 -0.6075 -0.3915 -0.3811
  550MOL0     C74131   1.492   5.148   6.899  0.0529  0.3566  0.4875
  550MOL0     N74132   1.480   5.129   6.756 -0.4521 -0.4564  0.2684
  550MOL0     C74133   1.482   5.010   6.681 -0.6974 -0.1131  0.0315
  550MOL0     C74134   1.435   5.033   6.559 -0.2070 -0.3000 -0.5753
  550MOL0     C74135   1.423   4.937   6.445  0.2976  0.0398 -0.4530
  550MOL0     C74136   1.563   4.893   6.381  1.1676 -0.3517  0.0345
  550MOL0     C74137   1.646   5.017   6.349  0.4921 -0.3038 -0.5786
  550MOL0     C74138   1.774   4.965   6.276 -0.9261 -0.2874 -0.6210
  550MOL0     O74139   1.747   4.963   6.134  0.1565  0.1574 -1.1903
  550MOL0     C74140   1.768   5.071   6.056  0.0092 -1.0458  0.0831
  550MOL0     C74141   1.740   5.071   5.918  0.6277  0.2515  0.1532
  550MOL0     C74142   1.768   5.180   5.834 -0.6322  1.0703 -0.9912
  550MOL0     C74143   1.839   5.296   5.870 -0.0676  0.1806  0.2698
  550MOL0     C74144   1.878   5.392   5.768 -0.2861 -0.2740 -0.1211
  550MOL0     O74145   1.840   5.362   5.640  0.6804 -0.1239 -0.5716
  550MOL0     C74146   1.877   5.446   5.541  0.2710 -1.3796  0.2084
  550MOL0     C74147   1.787   5.462   5.432 -0.2298  0.5275  0.5668
  550MOL0     C74148   1.821   5.550   5.325  0.3716  1.0222 -0.2970
  550MOL0     C74149   1.946   5.625   5.335  0.2452 -0.5549  0.1267
  550MOL0     O74150   1.973   5.728   5.242  1.3994  0.1696 -0.0551
  550MOL0     C74151   2.075   5.814   5.279 -0.5025 -0.0397 -0.0442
  550MOL0     C74152   2.079   5.932   5.187  0.1538  0.1263 -0.1574
  550MOL0     C74153   2.191   6.018   5.227  0.3594  0.0947  0.5209
  550MOL0     C74154   2.212   6.128   5.136 -1.0194 -0.1864  0.7352
  550MOL0     C74155   2.343   6.200   5.164 -0.6013 -0.3919  0.0663
  550MOL0     C74156   2.347   6.336   5.108 -0.2036 -0.3607  0.4212
  550MOL0     C74157   2.484   6.376   5.067  1.0178 -0.1611  0.1827
  550MOL0     C74158   2.460   6.523   5.016 -0.3229 -0.6147 -0.4018
  550MOL0    Cl74159   2.621   6.591   4.962 -0.2086 -0.1626 -0.4601
  550MOL0     C74160   2.036   5.584   5.433 -0.8505 -0.4653  0.1385
  550MOL0     C74161   2.007   5.499   5.543  0.6172 -0.7515 -0.1760
  550MOL0     O74162   1.920   5.500   5.813  0.2232 -0.4725  0.4071
  550MOL0     C74163   1.848   5.312   6.009  0.4131 -0.1840  0.0024
  550MOL0     C74164   1.826   5.199   6.098  1.3149 -0.3211 -0.1757
  550MOL0     N74165   1.412   5.172   6.559 -0.0630 -0.0335 -0.5615
  550MOL0     N74166   1.445   5.224   6.671  0.6359 -1.0258 -0.4532
  550MOL0     C74167   2.306   5.237   7.712 -0.6264 -1.1676  0.8853
  550MOL0     C74168   2.426   5.237   7.794  0.1683 -0.4818  0.7164
  550MOL0     C74169   2.746   5.365   8.005  0.2750  0.2265  0.3874
  550MOL0     C74170   2.783   5.487   7.946 -0.0299 -0.4301 -0.3897
  550MOL0     C74171   2.921   5.521   7.923  0.2259 -0.6206  0.2800
  550MOL0     C74172   3.022   5.426   7.956  0.0150  0.3325  0.8909
  550MOL0     O74173   3.156   5.442   7.935 -0.3179  0.4108 -0.4092
  550MOL0     C74174   3.230   5.475   8.055  0.3666 -0.3936  0.7417
  550MOL0     C74175   3.223   5.620   8.112 -0.0254 -0.0839  0.5568
  550MOL0     C74176   3.325   5.621   8.220 -0.2798  0.3857  1.2020
  550MOL0     C74177   3.304   5.735   8.313  0.5372  0.0000 -0.3850
  550MOL0     C74178   3.334   5.672   8.445  0.2903 -0.6180  0.2006
  550MOL0     C74179   3.364   5.629   8.554  0.1231  0.2467  0.0418
  550MOL0     C74180   2.981   5.300   8.000  0.1340  0.3931  0.9329
  550MOL0     C74181   2.849   5.273   8.030  0.1465 -0.1683  0.9535
  550MOL0     C74182   2.816   5.141   8.095  0.3568 -0.4670 -0.5667
  550MOL0     H74183   2.301   5.204   8.099  1.6408  0.7511 -0.0980
  550MOL0     H74184   2.093   5.195   7.978  0.3664  2.1629  0.6030
  550MOL0     H74185   2.149   5.280   7.524 -1.7253  1.1051 -1.7128
  550MOL0     H74186   2.135   5.104   7.554  0.0525  0.0123  0.6658
  550MOL0     H74187   1.888   5.283   7.502  3.1526  3.1482 -4.8374
  550MOL0     H74188   1.900   5.096   7.524  0.9586 -1.5384 -3.6930
  550MOL0     H74189   2.026   5.098   7.318  1.1226  0.4956  1.3375
  550MOL0     H74190   1.997   5.269   7.303  2.6447 -0.3815 -0.9346
  550MOL0     H74191   1.761   5.103   7.338  0.4139 -0.7010  1.6152
  550MOL0     H74192   1.772   5.270   7.289  1.7409  1.4180 -1.9142
  550MOL0     H74193   1.894   5.172   7.071 -1.9367  2.7765 -1.1227
  550MOL0     H74194   1.811   5.022   7.138 -1.0587  0.2707  3.3057
  550MOL0     H74195   1.600   5.158   7.142 -2.1393 -1.7739 -3.4395
  550MOL0     H74196   1.675   5.294   7.077 -0.5827 -0.6871  1.7906
  550MOL0     H74197   1.646   5.003   6.968 -1.4751 -0.2198  0.6365
  550MOL0     H74198   1.711   5.131   6.862  0.2536  1.7505  0.8269
  550MOL0     H74199   1.430   5.074   6.951  0.0096 -0.2726 -0.4416
  550MOL0     H74200   1.458   5.248   6.928 -3.3975  0.1300 -2.1507
  550MOL0     H74201   1.520   4.910   6.704  0.4328  0.4895  0.8895
  550MOL0     H74202   1.383   4.840   6.477  0.0038  1.1171  2.8285
  550MOL0     H74203   1.355   4.990   6.377 -0.9839 -0.7396  0.1765
  550MOL0     H74204   1.613   4.829   6.454 -1.0469 -0.0755  1.9244
  550MOL0     H74205   1.550   4.831   6.291 -0.2153 -0.5252  0.3279
  550MOL0     H74206   1.681   5.049   6.447  2.2738 -1.3777 -0.8236
  550MOL0     H74207   1.582   5.089   6.297 -2.4793 -2.2059  0.1827
  550MOL0     H74208   1.787   4.862   6.311 -1.4853  0.2050  1.1746
  550MOL0     H74209   1.858   5.030   6.303  0.3051 -0.3575 -3.9115
  550MOL0     H74210   1.690   4.986   5.871  0.9572  1.1549 -1.9535
  550MOL0     H74211   1.730   5.166   5.733  1.5339 -2.4766 -1.5136
  550MOL0     H74212   1.699   5.400   5.441  0.1966  0.1171  2.6809
  550MOL0     H74213   1.744   5.572   5.252  0.9302 -1.2744 -1.6839
  550MOL0     H74214   2.035   5.852   5.374 -1.7570  1.0180 -0.9619
  550MOL0     H74215   2.174   5.778   5.308 -1.0376  0.3915  2.6615
  550MOL0     H74216   2.079   5.892   5.085 -0.8407  0.8803 -0.4814
  550MOL0     H74217   1.982   5.980   5.201 -0.9401 -2.2267  0.9253
  550MOL0     H74218   2.168   6.068   5.321  4.1290  0.5095  1.3792
  550MOL0     H74219   2.273   5.945   5.219 -2.7818 -3.6088 -1.2960
  550MOL0     H74220   2.122   6.188   5.156 -2.2586 -2.6633  3.1727
  550MOL0     H74221   2.227   6.085   5.037  0.9669  2.1988 -0.1047
  550MOL0     H74222   2.432   6.142   5.134 -1.6354 -2.0183  0.0014
  550MOL0     H74223   2.372   6.212   5.269 -0.7468  0.4875  0.0064
  550MOL0     H74224   2.291   6.344   5.014  0.4260  4.0087  0.2281
  550MOL0     H74225   2.307   6.397   5.189 -0.1198 -0.7965  0.8000
  550MOL0     H74226   2.528   6.322   4.983  0.4616  2.9472 -2.2981
  550MOL0     H74227   2.547   6.380   5.156  1.6756  3.1038 -0.2842
  550MOL0     H74228   2.379   6.518   4.942  0.3667 -1.3430 -1.1231
  550MOL0     H74229   2.425   6.583   5.100  1.3240 -0.4170  0.1758
  550MOL0     H74230   2.135   5.628   5.428 -0.2478 -1.5802  1.5319
  550MOL0     H74231   2.080   5.498   5.623  1.9421  2.7185 -1.1582
  550MOL0     H74232   1.876   5.411   6.042  0.4338 -0.7635  1.8386
  550MOL0     H74233   1.852   5.231   6.198  1.4357 -0.8221 -0.0411
  550MOL0     H74234   2.331   5.244   7.607 -1.4098 -2.0625  0.6255
  550MOL0     H74235   2.518   5.242   7.737 -2.7305 -3.8433 -5.1690
  550MOL0     H74236   2.711   5.568   7.940  2.5402  1.9545 -3.6721
  550MOL0     H74237   2.958   5.603   7.862  0.6231  1.5102  3.1928
  550MOL0     H74238   3.330   5.455   8.017  0.4551  0.0892  0.7230
  550MOL0     H74239   3.195   5.395   8.121 -2.6763 -0.5980 -0.9299
  550MOL0     H74240   3.124   5.637   8.154  0.3551  3.0970  0.4502
  550MOL0     H74241   3.259   5.687   8.034  1.2257 -1.0351  0.2768
  550MOL0     H74242   3.420   5.622   8.167 -0.5426  2.8686  0.6343
  550MOL0     H74243   3.328   5.523   8.268  4.2773 -0.4299 -0.2834
  550MOL0     H74244   3.373   5.817   8.296 -0.4893  1.0099  0.1733
  550MOL0     H74245   3.201   5.772   8.316  0.9364  1.2261 -1.3494
  550MOL0     H74246   3.402   5.585   8.644  0.2228  4.1348  2.1055
  550MOL0     H74247   3.058   5.225   8.011 -1.7852 -1.6669  1.2658
  550MOL0     H74248   2.739   5.140   8.173 -0.1277  2.0859 -0.9161
  550MOL0     H74249   2.789   5.068   8.018  2.9582  0.2039 -2.2682
  550MOL0     H74250   2.901   5.085   8.135  1.5841 -0.1660 -2.5811
  551MOL0     O74251   8.879   3.609   0.554  0.5432  0.3365  1.3547
  551MOL0     C74252   8.851   3.489   0.554 -1.3167  0.5092  0.1674
  551MOL0     O74253   8.936   3.390   0.510  0.6537  0.9130  0.3131
  551MOL0     C74254   9.070   3.412   0.477 -0.6476 -0.2203 -0.0575
  551MOL0     C74255   9.129   3.298   0.422 -0.1955 -0.9287 -1.5312
  551MOL0     C74256   9.270   3.296   0.385  0.4795  0.5014 -0.2235
  551MOL0     C74257   9.351   3.403   0.402 -0.3485  0.6440  0.1726
  551MOL0     O74258   9.485   3.399   0.363  0.0869 -0.2550 -0.0529
  551MOL0     C74259   9.539   3.269   0.324 -0.1668 -0.7259  0.6189
  551MOL0     C74260   9.510   3.246   0.170 -0.6011 -1.2506 -0.0494
  551MOL0     C74261   9.611   3.333   0.097  0.3695 -0.5877 -0.4301
  551MOL0     C74262   9.620   3.308  -0.058 -1.8918  0.0835 -0.1761
  551MOL0     C74263   9.738   3.383  -0.109 -0.6125 -0.4421  0.3456
  551MOL0     C74264   9.872   3.325  -0.063 -0.5151 -0.6963  0.5907
  551MOL0     C74265   9.903   3.189  -0.129 -0.0968 -0.4746 -0.3738
  551MOL0     C74266  10.033   3.128  -0.073  0.5315 -0.0535  0.4709
  551MOL0     N74267  10.147   3.219  -0.076  0.0789  0.5993  0.3262
  551MOL0     C74268  10.238   3.231  -0.179 -0.0217  0.5411 -0.0953
  551MOL0     C74269  10.331   3.316  -0.124 -0.6596  0.0991  0.1098
  551MOL0     C74270  10.439   3.380  -0.209  1.1690  0.3749  0.3422
  551MOL0     C74271  10.581   3.342  -0.151 -1.4186 -0.0009  0.2778
  551MOL0     C74272  10.695   3.440  -0.185  0.0893 -0.4485  0.1541
  551MOL0     C74273  10.712   3.438  -0.341  0.4489 -0.4464  0.6323
  551MOL0     O74274  10.809   3.539  -0.377  0.0620  0.4254  0.7013
  551MOL0     C74275  10.839   3.531  -0.519 -0.0895 -1.0593  0.4676
  551MOL0     C74276  10.772   3.457  -0.615 -0.6088  0.1947 -0.3378
  551MOL0     C74277  10.812   3.457  -0.742 -0.2503 -0.8309  0.0152
  551MOL0     C74278  10.910   3.543  -0.791  0.3190  0.1997  0.6298
  551MOL0     C74279  10.936   3.568  -0.938 -0.3279  0.2053 -1.1088
  551MOL0     O74280  11.063   3.605  -0.976 -0.5613 -0.7400 -0.6014
  551MOL0     C74281  11.084   3.631  -1.114  0.1671 -1.4709 -0.0292
  551MOL0     C74282  11.109   3.761  -1.160 -0.5147 -0.2704 -0.8085
  551MOL0     C74283  11.140   3.795  -1.292  0.8363  0.5001  0.6172
  551MOL0     C74284  11.150   3.678  -1.382 -0.0724  0.3954 -0.5434
  551MOL0     O74285  11.187   3.705  -1.510  0.4620 -0.2579  0.0550
  551MOL0     C74286  11.230   3.592  -1.597  0.2950 -0.1910  0.6108
  551MOL0     C74287  11.326   3.624  -1.713  0.5425  0.5388 -0.1607
  551MOL0     C74288  11.469   3.671  -1.677 -0.0391 -0.0635 -0.9708
  551MOL0     C74289  11.471   3.819  -1.684 -0.7991 -0.3575  0.3906
  551MOL0     C74290  11.602   3.885  -1.654  0.3409  0.8870 -0.8111
  551MOL0     C74291  11.708   3.841  -1.752 -1.0037 -0.5922  0.6372
  551MOL0     C74292  11.828   3.945  -1.768 -0.4983 -0.0318  0.5196
  551MOL0     C74293  11.939   3.930  -1.667  0.8140  0.2559 -0.1466
  551MOL0    Cl74294  12.041   3.788  -1.695  0.1560 -0.4545 -0.1632
  551MOL0     C74295  11.120   3.545  -1.332  0.2894 -0.5636 -0.2363
  551MOL0     C74296  11.089   3.524  -1.202  1.2855  0.1505  0.3698
  551MOL0     O74297  10.836   3.547  -1.012 -0.2962 -0.5005 -0.2992
  551MOL0     C74298  10.977   3.612  -0.698  0.0675 -0.7834  0.2286
  551MOL0     C74299  10.946   3.611  -0.559 -0.0019  0.5634  0.3967
  551MOL0     N74300  10.284   3.353  -0.003  0.1181 -0.7471  0.1336
  551MOL0     N74301  10.181   3.293   0.029  0.0948  0.2593  0.4663
  551MOL0     C74302   9.289   3.514   0.458  0.3908  0.2850  0.6807
  551MOL0     C74303   9.153   3.524   0.492 -0.0280 -0.2159  0.2089
  551MOL0     C74304   8.720   3.448   0.618 -0.3206  0.6316  1.1845
  551MOL0     C74305   8.633   3.550   0.653 -0.1174  0.3659  0.3125
  551MOL0     C74306   8.526   3.528   0.725  0.3808 -0.0439  0.0491
  551MOL0     C74307   8.483   3.398   0.776  0.5101  0.3061 -0.2931
  551MOL0     O74308   8.370   3.386   0.849  0.0699 -0.3648 -0.5550
  551MOL0     C74309   8.345   3.485   0.955 -0.1560  0.5816 -0.3097
  551MOL0     C74310   8.471   3.539   1.026  0.1061 -0.3428  0.7054
  551MOL0     C74311   8.526   3.448   1.138  0.0292 -0.0828  0.9594
  551MOL0     C74312   8.602   3.326   1.081  0.1099 -0.0222 -0.6011
  551MOL0     C74313   8.697   3.274   1.185  0.8243  0.0330  0.9430
  551MOL0     C74314   8.774   3.238   1.267 -0.1666 -0.2843  0.3359
  551MOL0     C74315   8.567   3.290   0.745  0.4854  0.8304  0.7078
  551MOL0     C74316   8.681   3.304   0.663  0.0043  0.0652 -0.5308
  551MOL0     C74317   8.761   3.188   0.615  0.1929  0.4594 -0.3173
  551MOL0     H74318   9.058   3.219   0.401 -2.9541  1.5047 -2.0148
  551MOL0     H74319   9.303   3.203   0.338 -1.3725  0.6431 -1.8858
  551MOL0     H74320   9.645   3.259   0.350 -0.9316 -2.3292  3.6007
  551MOL0     H74321   9.492   3.194   0.389  0.1406 -0.5666  1.0285
  551MOL0     H74322   9.405   3.271   0.152 -0.2846  2.3942  2.0857
  551MOL0     H74323   9.528   3.144   0.136  2.9133  0.7241 -5.3095
  551MOL0     H74324   9.708   3.330   0.148  0.0544 -1.5145  0.1404
  551MOL0     H74325   9.569   3.432   0.115 -4.2832 -2.5490  0.8331
  551MOL0     H74326   9.628   3.203  -0.086 -0.2102  0.6924 -2.2916
  551MOL0     H74327   9.534   3.341  -0.117 -0.7091 -0.7704 -2.5305
  551MOL0     H74328   9.734   3.378  -0.218 -0.2321 -1.0208  0.3507
  551MOL0     H74329   9.726   3.489  -0.087  2.2437  0.2364 -0.8763
  551MOL0     H74330   9.944   3.401  -0.096 -1.5419  0.2234  0.4316
  551MOL0     H74331   9.880   3.315   0.045  0.3289 -0.2707  0.5782
  551MOL0     H74332   9.920   3.218  -0.233 -3.2642  0.7003 -0.6811
  551MOL0     H74333   9.830   3.108  -0.130  1.9881 -2.5878  2.2547
  551MOL0     H74334  10.010   3.083   0.024 -1.3881 -2.1013 -0.8627
  551MOL0     H74335  10.043   3.038  -0.134 -2.0362  1.2955 -2.1737
  551MOL0     H74336  10.225   3.190  -0.279 -0.4115 -0.4630  0.3521
  551MOL0     H74337  10.434   3.335  -0.308  0.9239 -0.3516  0.6717
  551MOL0     H74338  10.436   3.487  -0.228  3.4409 -0.0825 -3.5548
  551MOL0     H74339  10.585   3.341  -0.041  0.8817  2.8362  0.3383
  551MOL0     H74340  10.602   3.240  -0.185  0.4406  1.2118 -2.5812
  551MOL0     H74341  10.782   3.419  -0.122  2.3387  2.7341 -1.5657
  551MOL0     H74342  10.659   3.541  -0.160  2.1179 -0.2834  2.7994
  551MOL0     H74343  10.614   3.453  -0.386  0.2455  1.2764  1.5642
  551MOL0     H74344  10.752   3.338  -0.362  2.4825 -0.5234  4.0419
  551MOL0     H74345  10.696   3.382  -0.594  1.8822 -2.7187 -0.8585
  551MOL0     H74346  10.747   3.408  -0.814  0.4742 -1.0143 -0.5198
  551MOL0     H74347  11.118   3.852  -1.101 -0.9777  0.6009 -2.0272
  551MOL0     H74348  11.158   3.893  -1.334  1.0699  0.2168  0.0390
  551MOL0     H74349  11.273   3.509  -1.541  2.0558  0.0185 -0.3612
  551MOL0     H74350  11.144   3.547  -1.648  1.4870  0.4538 -2.1599
  551MOL0     H74351  11.340   3.526  -1.759  2.8752 -2.0540  5.1584
  551MOL0     H74352  11.280   3.696  -1.780 -0.9198 -1.4355 -1.3749
  551MOL0     H74353  11.499   3.652  -1.573  1.3746  3.8172 -0.5228
  551MOL0     H74354  11.539   3.624  -1.745  1.8947  1.4220 -0.0925
  551MOL0     H74355  11.400   3.867  -1.616 -2.3449  0.0290 -1.3930
  551MOL0     H74356  11.459   3.854  -1.787  0.7947 -0.1128  0.2636
  551MOL0     H74357  11.629   3.868  -1.549 -2.3814  0.1779 -0.1463
  551MOL0     H74358  11.590   3.993  -1.669  0.5836  1.1220  0.5452
  551MOL0     H74359  11.743   3.742  -1.720  1.3155 -0.7727 -2.0705
  551MOL0     H74360  11.665   3.825  -1.851  0.9534 -0.9127 -0.2062
  551MOL0     H74361  11.782   4.043  -1.780 -1.7405 -0.4993  1.3710
  551MOL0     H74362  11.875   3.919  -1.864  4.5059 -1.3303  2.9733
  551MOL0     H74363  11.999   4.020  -1.681  3.0118 -1.4147 -2.2995
  551MOL0     H74364  11.892   3.937  -1.568 -2.4652 -0.0379 -1.5688
  551MOL0     H74365  11.096   3.474  -1.411 -1.1491  0.1429 -0.4726
  551MOL0     H74366  11.054   3.425  -1.176  0.1558 -0.6292 -3.4433
  551MOL0     H74367  11.061   3.675  -0.726 -0.9799  1.5133  2.0053
  551MOL0     H74368  10.980   3.665  -0.471  0.0721 -2.8079  2.5946
  551MOL0     H74369   9.351   3.603   0.458 -0.7419  1.2195 -2.7716
  551MOL0     H74370   9.120   3.613   0.544  2.2162  0.8052 -0.0133
  551MOL0     H74371   8.665   3.652   0.638 -1.8231  1.0049  0.7738
  551MOL0     H74372   8.467   3.616   0.750  1.9970  0.9205  0.6455
  551MOL0     H74373   8.276   3.440   1.027  0.5392 -1.4806 -0.8760
  551MOL0     H74374   8.278   3.557   0.907 -1.6531  0.3684  1.3581
  551MOL0     H74375   8.438   3.631   1.074 -2.1647 -1.9441  2.4699
  551MOL0     H74376   8.554   3.572   0.962  1.0625  0.8950  2.5073
  551MOL0     H74377   8.450   3.408   1.206  0.2230  0.1991  1.3460
  551MOL0     H74378   8.598   3.512   1.190 -0.2751 -0.2357  1.5766
  551MOL0     H74379   8.532   3.250   1.044 -0.2086 -0.2028  0.3471
  551MOL0     H74380   8.644   3.360   0.986  2.0365  0.0150  0.2404
  551MOL0     H74381   8.840   3.222   1.350 -1.6453 -0.4619  1.5131
  551MOL0     H74382   8.532   3.195   0.784 -2.4955  3.1533  4.4767
  551MOL0     H74383   8.857   3.172   0.664 -0.0754 -0.7954 -0.1723
  551MOL0     H74384   8.689   3.110   0.643 -0.8492  1.7388  0.7709
  551MOL0     H74385   8.765   3.187   0.506  2.1160 -2.3010 -0.3384
  552MOL0     O74386   4.682   5.768   5.412 -0.5434  0.9268 -0.1151
  552MOL0     C74387   4.621   5.788   5.314  0.8380 -1.1375  0.3688
  552MOL0     O74388   4.553   5.902   5.295  0.3285 -0.3715 -0.1104
  552MOL0     C74389   4.565   6.004   5.390 -0.0358  1.0973 -0.0467
  552MOL0     C74390   4.676   6.095   5.386 -0.2453 -0.8443 -0.8073
  552MOL0     C74391   4.692   6.197   5.476  0.3413  0.5221 -0.4012
  552MOL0     C74392   4.583   6.218   5.556 -0.9822  0.1499 -0.1698
  552MOL0     O74393   4.583   6.334   5.633 -0.4604  0.2319  0.1235
  552MOL0     C74394   4.487   6.438   5.611  0.3950  0.0204 -0.5857
  552MOL0     C74395   4.519   6.520   5.483  0.0760 -0.2594 -0.1363
  552MOL0     C74396   4.655   6.593   5.493 -1.0580  0.1665 -0.0898
  552MOL0     C74397   4.712   6.645   5.361  0.0542  1.2289 -0.8569
  552MOL0     C74398   4.864   6.641   5.386 -0.3730 -0.0253 -0.1446
  552MOL0     C74399   4.931   6.722   5.277 -0.4147  0.2825  0.7204
  552MOL0     C74400   5.085   6.716   5.291 -0.5625  0.3408 -0.0174
  552MOL0     C74401   5.136   6.806   5.406 -0.2453  0.2227  0.3299
  552MOL0     N74402   5.282   6.833   5.408  0.5567  0.1611  0.3004
  552MOL0     C74403   5.360   6.897   5.310 -0.7866 -0.0667 -0.7258
  552MOL0     C74404   5.491   6.848   5.322 -0.9333 -0.7443 -0.4047
  552MOL0     C74405   5.600   6.888   5.222 -0.1162 -0.5934  0.0778
  552MOL0     C74406   5.741   6.874   5.292  1.4834 -0.8177  0.2697
  552MOL0     C74407   5.851   6.799   5.208  0.0540 -1.3947 -0.4817
  552MOL0     C74408   5.895   6.876   5.077 -0.4855  0.8536  0.9054
  552MOL0     O74409   6.003   6.791   5.022  0.1810 -0.1745 -0.2054
  552MOL0     C74410   6.134   6.839   5.005  0.0736  0.5502  0.0645
  552MOL0     C74411   6.220   6.759   4.930 -0.7722  0.2335  0.0931
  552MOL0     C74412   6.356   6.795   4.909 -0.9912  0.0515  0.3055
  552MOL0     C74413   6.412   6.910   4.966 -0.1458 -0.1233 -0.2857
  552MOL0     C74414   6.548   6.945   4.938 -0.1581 -0.2821  0.1796
  552MOL0     O74415   6.629   6.863   4.864  0.2815 -0.8341 -0.0498
  552MOL0     C74416   6.755   6.906   4.831 -0.8142  0.5416  1.1615
  552MOL0     C74417   6.784   7.036   4.773 -0.0908 -0.9711 -0.7042
  552MOL0     C74418   6.909   7.059   4.710  0.0616  0.3308  0.0137
  552MOL0     C74419   6.999   6.957   4.690  1.3678  0.6231  0.4384
  552MOL0     O74420   7.102   6.975   4.605  0.0127 -0.3941 -0.0821
  552MOL0     C74421   7.192   7.094   4.636 -0.3040 -0.1364  0.2582
  552MOL0     C74422   7.324   7.083   4.556  0.0173  0.0272  0.1312
  552MOL0     C74423   7.297   7.118   4.406 -0.0841  0.2111  0.3656
  552MOL0     C74424   7.429   7.119   4.329  0.8251 -0.7846  0.1497
  552MOL0     C74425   7.400   7.142   4.179  0.1193  0.4060  0.0783
  552MOL0     C74426   7.522   7.152   4.080  0.4708  0.6718 -0.2706
  552MOL0     C74427   7.599   7.289   4.103  0.6831  1.5019  1.0820
  552MOL0     C74428   7.716   7.313   3.995 -0.1787  0.3527 -0.2940
  552MOL0    Cl74429   7.844   7.182   4.011  0.4316  0.1992  0.0213
  552MOL0     C74430   6.965   6.831   4.732 -0.2452 -0.3530 -0.4905
  552MOL0     C74431   6.848   6.803   4.803 -0.8485  0.3848 -0.5333
  552MOL0     O74432   6.583   7.058   4.979  0.5197  0.3810 -0.4818
  552MOL0     C74433   6.322   6.987   5.049  0.9974 -0.4377  0.4137
  552MOL0     C74434   6.186   6.955   5.055 -0.3192  0.2839 -0.5946
  552MOL0     N74435   5.490   6.760   5.429  0.6322  0.7886  0.8411
  552MOL0     N74436   5.368   6.745   5.472  0.5637 -0.0069  0.5605
  552MOL0     C74437   4.466   6.138   5.558 -0.5443 -0.5503 -0.2376
  552MOL0     C74438   4.451   6.031   5.468  0.3146  0.2660 -0.5208
  552MOL0     C74439   4.609   5.678   5.220 -0.0225  0.3382 -0.1590
  552MOL0     C74440   4.547   5.708   5.094  0.9936 -0.0953 -0.7998
  552MOL0     C74441   4.533   5.616   4.989 -0.5268  0.2841  1.0972
  552MOL0     C74442   4.588   5.486   5.006 -0.2286  0.1703 -0.4908
  552MOL0     O74443   4.580   5.386   4.906  0.3481  1.0540 -0.5596
  552MOL0     C74444   4.513   5.392   4.777 -0.6811 -0.2059  0.0726
  552MOL0     C74445   4.611   5.413   4.655  0.7429  0.4282  0.8421
  552MOL0     C74446   4.747   5.334   4.672  0.9104  0.0694  0.2566
  552MOL0     C74447   4.745   5.194   4.598  0.3204 -0.1929  0.2341
  552MOL0     C74448   4.863   5.116   4.631 -0.4836  0.2991 -0.4735
  552MOL0     C74449   4.961   5.050   4.661  0.1047  0.2589 -0.0638
  552MOL0     C74450   4.660   5.456   5.126 -0.3870 -1.1479  0.2830
  552MOL0     C74451   4.660   5.544   5.239  0.5746 -0.3340  0.5180
  552MOL0     C74452   4.739   5.508   5.359  0.1048 -0.9492 -0.4793
  552MOL0     H74453   4.746   6.077   5.305  0.4128 -4.1712  0.3429
  552MOL0     H74454   4.782   6.256   5.494  1.0875 -1.3624  2.9257
  552MOL0     H74455   4.392   6.388   5.588  0.6953  0.1494 -2.2193
  552MOL0     H74456   4.495   6.497   5.703 -0.1497 -1.9625  0.8300
  552MOL0     H74457   4.446   6.602   5.483 -4.0869 -3.5933 -1.3127
  552MOL0     H74458   4.516   6.462   5.391  0.6622 -2.1808  0.9987
  552MOL0     H74459   4.728   6.518   5.525  1.1170  1.5276 -1.5986
  552MOL0     H74460   4.651   6.663   5.577 -0.2502  1.2248 -0.9059
  552MOL0     H74461   4.698   6.567   5.285  5.0353 -2.1001  1.0660
  552MOL0     H74462   4.669   6.742   5.336 -2.0215  0.6340  0.2007
  552MOL0     H74463   4.894   6.693   5.478  0.9858  4.9924 -3.0564
  552MOL0     H74464   4.908   6.540   5.385  1.8823  0.8848 -1.9172
  552MOL0     H74465   4.904   6.693   5.175  1.5437 -0.9460  0.4845
  552MOL0     H74466   4.896   6.826   5.279  0.5707  0.6432  0.3468
  552MOL0     H74467   5.140   6.759   5.207  3.2222  0.5678  2.3068
  552MOL0     H74468   5.121   6.614   5.307 -0.3907 -0.0386 -2.4469
  552MOL0     H74469   5.086   6.903   5.394  3.5587  2.6563  2.2221
  552MOL0     H74470   5.103   6.746   5.492 -1.9405 -3.1367 -2.4304
  552MOL0     H74471   5.339   6.964   5.228 -0.4338  0.0718 -0.7065
  552MOL0     H74472   5.588   6.831   5.129 -0.6074 -1.4605  0.6580
  552MOL0     H74473   5.573   6.993   5.205 -0.8204 -0.5283  1.4318
  552MOL0     H74474   5.771   6.976   5.314 -1.5192 -0.1534  1.6658
  552MOL0     H74475   5.725   6.824   5.388  0.8527  2.0738  1.7803
  552MOL0     H74476   5.823   6.694   5.195  0.7372 -1.6475  0.0514
  552MOL0     H74477   5.939   6.809   5.272 -0.7351  1.4347  0.2998
  552MOL0     H74478   5.925   6.977   5.106  1.9138  0.1885  0.8997
  552MOL0     H74479   5.811   6.883   5.007 -0.7103 -2.6828  0.6135
  552MOL0     H74480   6.186   6.664   4.890 -0.2458 -2.5321  5.3485
  552MOL0     H74481   6.430   6.733   4.860 -3.0909 -0.0685 -3.0062
  552MOL0     H74482   6.713   7.118   4.779 -1.1028 -1.9243  1.0257
  552MOL0     H74483   6.926   7.152   4.657  3.6250 -0.9121 -1.2908
  552MOL0     H74484   7.141   7.186   4.605  0.5772  0.0159 -0.8181
  552MOL0     H74485   7.225   7.108   4.740  1.3131 -0.3815 -0.1867
  552MOL0     H74486   7.386   7.153   4.612 -1.6846  1.2793  0.5280
  552MOL0     H74487   7.363   6.981   4.563 -4.6665 -1.9160  1.7836
  552MOL0     H74488   7.229   7.049   4.355 -2.0331  2.1398  0.1974
  552MOL0     H74489   7.262   7.222   4.408  0.1297  0.3184  3.5591
  552MOL0     H74490   7.476   7.021   4.340  3.2679  0.3123  0.1451
  552MOL0     H74491   7.505   7.187   4.370 -0.3969  0.1623  0.9116
  552MOL0     H74492   7.346   7.236   4.193  0.0011  0.2547  0.6813
  552MOL0     H74493   7.334   7.061   4.147 -0.5441  0.5467  1.0434
  552MOL0     H74494   7.577   7.061   4.106 -0.7707  0.4394  1.8147
  552MOL0     H74495   7.481   7.131   3.981 -5.3205 -3.7851  2.4573
  552MOL0     H74496   7.637   7.287   4.205  1.3160 -2.0625  0.8997
  552MOL0     H74497   7.524   7.369   4.100  0.7940  1.7065  2.6858
  552MOL0     H74498   7.676   7.321   3.893  3.2461 -3.2307 -2.1962
  552MOL0     H74499   7.760   7.407   4.029 -1.7693  0.1115  2.8640
  552MOL0     H74500   7.034   6.755   4.699  0.0916  0.2403 -1.1804
  552MOL0     H74501   6.823   6.700   4.826 -1.0606  0.9837  2.2335
  552MOL0     H74502   6.358   7.081   5.090  0.0807 -0.6715  1.8396
  552MOL0     H74503   6.129   7.027   5.113  0.8227  0.3069  0.5351
  552MOL0     H74504   4.392   6.165   5.633  1.0860 -3.3994  2.6664
  552MOL0     H74505   4.363   5.967   5.474 -1.1780  2.3883  2.6684
  552MOL0     H74506   4.497   5.803   5.077 -1.0929 -1.4553 -2.7540
  552MOL0     H74507   4.458   5.641   4.913 -2.7552  3.2288  3.9722
  552MOL0     H74508   4.425   5.457   4.774 -1.3862 -0.8456  3.0612
  552MOL0     H74509   4.480   5.290   4.757 -3.0102  0.6435 -0.6898
  552MOL0     H74510   4.630   5.520   4.647 -1.2566  0.6972 -1.2407
  552MOL0     H74511   4.554   5.386   4.566 -3.0826  1.4538  2.7539
  552MOL0     H74512   4.770   5.303   4.774 -0.0349 -2.2517 -0.1671
  552MOL0     H74513   4.831   5.398   4.641 -1.6935  3.4077 -0.5325
  552MOL0     H74514   4.656   5.140   4.630 -0.1447  0.6845  0.4467
  552MOL0     H74515   4.738   5.211   4.490  0.3332 -0.7484  0.1468
  552MOL0     H74516   5.059   5.010   4.680  0.7264  0.3316 -2.8042
  552MOL0     H74517   4.705   5.360   5.147  1.1736 -0.4735  0.2174
  552MOL0     H74518   4.677   5.527   5.447 -1.6957  2.6973 -2.3005
  552MOL0     H74519   4.772   5.404   5.356 -0.7905 -1.2359 -2.5979
  552MOL0     H74520   4.832   5.565   5.355  0.1358 -1.0528 -1.9880
  553MOL0     O74521   4.827   2.984   9.740  0.2435 -0.0681  0.5825
  553MOL0     C74522   4.773   2.892   9.674 -0.8924 -0.4721 -0.5428
  553MOL0     O74523   4.838   2.813   9.582  0.1774 -0.0889  0.1660
  553MOL0     C74524   4.974   2.815   9.556  1.0116 -1.3728 -0.0319
  553MOL0     C74525   5.012   2.860   9.429  0.0331 -0.7913 -0.7812
  553MOL0     C74526   5.146   2.874   9.411  0.2083  0.6003 -0.1464
  553MOL0     C74527   5.244   2.839   9.507  0.2870 -0.1127  0.7611
  553MOL0     O74528   5.379   2.857   9.485  1.2041  0.1399  0.7811
  553MOL0     C74529   5.433   2.914   9.368  0.1284  0.7190  0.0601
  553MOL0     C74530   5.431   2.810   9.247  0.8552  0.0857 -0.6407
  553MOL0     C74531   5.543   2.702   9.263 -0.0386  0.4155  0.5757
  553MOL0     C74532   5.504   2.586   9.352 -0.3317  0.0918  0.9606
  553MOL0     C74533   5.590   2.570   9.474  0.0047  0.2121 -0.3605
  553MOL0     C74534   5.624   2.414   9.503 -0.3233  0.7664  0.2081
  553MOL0     C74535   5.685   2.398   9.641  0.2196  0.3313  1.9707
  553MOL0     C74536   5.586   2.442   9.756  0.5450  0.4993 -0.4099
  553MOL0     N74537   5.447   2.396   9.752 -0.5215  0.3665  0.9509
  553MOL0     C74538   5.342   2.453   9.674  0.5146  0.4318 -0.6242
  553MOL0     C74539   5.258   2.350   9.652  0.2955 -0.8414 -0.0056
  553MOL0     C74540   5.112   2.365   9.600  0.5190 -0.4542 -0.0514
  553MOL0     C74541   5.121   2.416   9.452  0.5226  0.6460  0.7930
  553MOL0     C74542   4.976   2.428   9.407  0.3643  0.6076 -0.0717
  553MOL0     C74543   4.955   2.449   9.254 -0.0256  0.5204 -1.3112
  553MOL0     O74544   4.918   2.594   9.234  0.7010  0.0766 -0.1001
  553MOL0     C74545   4.892   2.635   9.099 -0.6132 -0.0326 -0.9223
  553MOL0     C74546   4.828   2.752   9.097 -0.4032  0.6237 -0.2333
  553MOL0     C74547   4.796   2.811   8.972  0.6346 -1.1150  0.0687
  553MOL0     C74548   4.848   2.767   8.850 -0.5028  0.5631  0.8240
  553MOL0     C74549   4.826   2.827   8.715  0.8198  0.3865  0.1467
  553MOL0     O74550   4.852   2.732   8.617  0.3561 -0.4252 -0.6983
  553MOL0     C74551   4.834   2.758   8.484  0.2981  0.3055 -0.0235
  553MOL0     C74552   4.897   2.871   8.445 -0.6525 -0.2848  0.7178
  553MOL0     C74553   4.890   2.918   8.307 -1.4124 -0.4397  0.0431
  553MOL0     C74554   4.835   2.835   8.213  0.3042 -0.1219 -0.1337
  553MOL0     O74555   4.848   2.854   8.080 -0.8348  0.8780  0.1150
  553MOL0     C74556   4.919   2.972   8.036 -0.2531  0.3949 -0.6362
  553MOL0     C74557   4.922   2.976   7.884  0.4924 -0.1200  0.8867
  553MOL0     C74558   4.989   2.864   7.815  0.4265  0.6238 -0.6386
  553MOL0     C74559   4.966   2.849   7.666  0.8598  0.0844  0.4386
  553MOL0     C74560   5.077   2.769   7.586 -0.4949 -0.4346 -1.0058
  553MOL0     C74561   5.219   2.794   7.615  0.1102 -0.5627 -0.0923
  553MOL0     C74562   5.264   2.944   7.618  0.6265 -0.0201 -0.4050
  553MOL0     C74563   5.412   2.946   7.597 -0.7884  0.0797 -0.0678
  553MOL0    Cl74564   5.498   2.881   7.746 -0.2726 -0.0753  0.1117
  553MOL0     C74565   4.770   2.713   8.251  0.1328 -0.7717  0.5763
  553MOL0     C74566   4.768   2.680   8.386  0.0656 -0.9732 -0.5107
  553MOL0     O74567   4.759   2.930   8.700 -0.2123 -0.5891  0.2507
  553MOL0     C74568   4.926   2.648   8.861  0.4711 -0.3648  0.0547
  553MOL0     C74569   4.939   2.577   8.980  0.4462  0.6527 -0.2397
  553MOL0     N74570   5.312   2.234   9.706 -0.0009 -0.4011 -0.4764
  553MOL0     N74571   5.416   2.260   9.773  0.0696 -1.1256 -0.0078
  553MOL0     C74572   5.201   2.787   9.633  0.3051 -0.7840 -0.5726
  553MOL0     C74573   5.062   2.784   9.659  0.5158  0.1535 -0.7882
  553MOL0     C74574   4.637   2.856   9.716  0.2757  0.5717  0.7291
  553MOL0     C74575   4.589   2.924   9.840 -0.6877  1.1483  0.4281
  553MOL0     C74576   4.460   2.898   9.888  0.6416 -0.2720  0.1862
  553MOL0     C74577   4.372   2.818   9.814 -0.5120  0.9391  0.5367
  553MOL0     O74578   4.244   2.778   9.849 -0.2684 -1.2072  0.3446
  553MOL0     C74579   4.210   2.763   9.986  0.0371 -1.1802  0.0775
  553MOL0     C74580   4.059   2.799   9.990  0.0850  0.0309 -0.5491
  553MOL0     C74581   3.973   2.717   9.903  0.0994  0.0113 -0.1548
  553MOL0     C74582   3.841   2.783   9.873 -0.4747  0.1791  0.1082
  553MOL0     C74583   3.744   2.786   9.988 -0.1824  0.0637 -1.1531
  553MOL0     C74584   3.667   2.791  10.090 -0.3249 -0.1013 -0.0399
  553MOL0     C74585   4.410   2.771   9.686 -0.0225  0.4282 -0.1777
  553MOL0     C74586   4.542   2.782   9.639  0.3739  0.0944  0.6597
  553MOL0     C74587   4.571   2.726   9.504 -0.6074  0.2318 -1.1059
  553MOL0     H74588   4.939   2.896   9.358 -0.6115 -1.2922 -0.3860
  553MOL0     H74589   5.178   2.917   9.316 -0.9689  1.6881 -0.0751
  553MOL0     H74590   5.384   3.008   9.340  0.5172  0.0889 -3.1500
  553MOL0     H74591   5.537   2.943   9.386 -0.0709 -0.2555  3.5119
  553MOL0     H74592   5.459   2.862   9.155 -2.1753 -0.3947 -1.9331
  553MOL0     H74593   5.329   2.774   9.232  1.2257 -1.1087 -0.4145
  553MOL0     H74594   5.640   2.742   9.293  1.4166  0.2776 -3.3737
  553MOL0     H74595   5.551   2.674   9.157 -0.4410 -1.1426  0.9385
  553MOL0     H74596   5.397   2.579   9.371  0.0363  0.4387  3.5383
  553MOL0     H74597   5.519   2.498   9.288  0.6068  1.4283 -0.7603
  553MOL0     H74598   5.678   2.634   9.479 -1.2433  1.8893  1.9925
  553MOL0     H74599   5.537   2.618   9.557 -1.1107  0.7708 -1.3690
  553MOL0     H74600   5.524   2.370   9.495 -0.6857  1.6886 -0.5900
  553MOL0     H74601   5.678   2.363   9.424 -2.8037 -1.0321 -0.4505
  553MOL0     H74602   5.781   2.450   9.640  0.2111  0.3823  0.1646
  553MOL0     H74603   5.707   2.291   9.649 -0.9767 -0.4570 -2.3549
  553MOL0     H74604   5.613   2.381   9.843 -0.7164 -0.2187 -0.5025
  553MOL0     H74605   5.587   2.548   9.784 -0.9380  0.0350  1.6885
  553MOL0     H74606   5.315   2.553   9.642 -0.5881  0.8341  1.3724
  553MOL0     H74607   5.078   2.261   9.597 -2.2449  0.3897 -1.9564
  553MOL0     H74608   5.052   2.427   9.667 -0.4731  0.5056 -1.7605
  553MOL0     H74609   5.172   2.511   9.437 -2.7366  2.1435 -2.3788
  553MOL0     H74610   5.169   2.332   9.401 -0.3557 -1.5787  3.3803
  553MOL0     H74611   4.931   2.505   9.470  0.4063 -1.5933  2.8625
  553MOL0     H74612   4.926   2.334   9.434  0.9292  0.9336  2.3215
  553MOL0     H74613   4.877   2.384   9.215  0.4604  0.1770 -1.7230
  553MOL0     H74614   5.044   2.428   9.194  1.4877  2.5223  0.0858
  553MOL0     H74615   4.803   2.800   9.191 -3.6381  0.4645 -0.8959
  553MOL0     H74616   4.724   2.893   8.975  0.6319 -1.1206  0.1664
  553MOL0     H74617   4.942   2.940   8.515 -3.5619  0.2404  2.2187
  553MOL0     H74618   4.951   3.005   8.287 -3.8456  1.0373 -1.4914
  553MOL0     H74619   4.854   3.056   8.064 -1.7940 -0.5835 -1.1321
  553MOL0     H74620   5.020   2.980   8.075 -1.2087 -2.5765  3.0262
  553MOL0     H74621   4.816   2.975   7.857  0.8095  3.5729 -1.1821
  553MOL0     H74622   4.967   3.069   7.848 -0.4139 -0.6412 -1.8607
  553MOL0     H74623   5.095   2.872   7.842  0.0810 -0.4290  1.2074
  553MOL0     H74624   4.953   2.770   7.857  0.2696  0.3891 -1.2763
  553MOL0     H74625   4.959   2.945   7.613  1.1190 -0.3294 -0.3616
  553MOL0     H74626   4.880   2.788   7.639  1.3439 -0.9959  1.3004
  553MOL0     H74627   5.059   2.801   7.483  0.1527  0.9706 -0.7082
  553MOL0     H74628   5.059   2.661   7.586  1.1605 -0.7863 -3.4317
  553MOL0     H74629   5.237   2.751   7.713  2.8174  1.8330  0.6079
  553MOL0     H74630   5.274   2.729   7.546  3.0903 -0.2270  1.8011
  553MOL0     H74631   5.239   3.003   7.707  0.3382  0.6032 -0.8914
  553MOL0     H74632   5.220   2.996   7.532  0.2517 -0.0537 -0.2344
  553MOL0     H74633   5.435   2.874   7.518 -0.0152  0.4453 -0.1932
  553MOL0     H74634   5.459   3.039   7.564  1.1348 -1.4855 -2.0770
  553MOL0     H74635   4.734   2.637   8.181  1.0074 -0.4675 -0.2268
  553MOL0     H74636   4.720   2.584   8.406  3.5893 -2.7108  0.2672
  553MOL0     H74637   4.967   2.605   8.770 -0.1968  1.4372 -1.1320
  553MOL0     H74638   4.990   2.482   8.995  0.9430  0.8522 -0.6807
  553MOL0     H74639   5.273   2.736   9.696  1.0641  0.3277 -0.5200
  553MOL0     H74640   5.018   2.753   9.753 -3.6104  1.3918 -2.0838
  553MOL0     H74641   4.660   2.988   9.892  1.1023 -0.0401 -0.4672
  553MOL0     H74642   4.416   2.938   9.979 -2.5331 -0.6696 -1.0443
  553MOL0     H74643   4.262   2.826  10.059 -3.0745  0.6356  0.9125
  553MOL0     H74644   4.219   2.658  10.017  1.5948 -1.3847 -0.9756
  553MOL0     H74645   4.045   2.906   9.973  1.1027 -0.0892 -2.4696
  553MOL0     H74646   4.029   2.783  10.093 -0.8797  1.6669 -0.5431
  553MOL0     H74647   3.959   2.614   9.937  0.9491 -0.6623 -1.7247
  553MOL0     H74648   4.018   2.711   9.804  1.4923 -2.9112  0.5160
  553MOL0     H74649   3.851   2.881   9.826 -1.2965  0.7443  1.0531
  553MOL0     H74650   3.781   2.719   9.808 -1.6528 -2.3124  3.3525
  553MOL0     H74651   3.620   2.797  10.186  3.5856 -1.1285  2.1777
  553MOL0     H74652   4.324   2.735   9.632 -1.9612  1.9026  1.7746
  553MOL0     H74653   4.480   2.700   9.449 -0.0374 -1.4526 -1.3207
  553MOL0     H74654   4.632   2.797   9.447  1.6234  0.0791  0.9232
  553MOL0     H74655   4.634   2.644   9.538  0.2236  0.8917 -1.0208
  554MOL0     O74656   0.372   1.923   1.643 -0.1893  0.4438  0.6508
  554MOL0     C74657   0.363   1.850   1.543  0.2066  0.2561 -0.1202
  554MOL0     O74658   0.396   1.879   1.416  0.5296  0.1575 -0.4840
  554MOL0     C74659   0.487   1.982   1.396  0.0105 -0.6571 -0.5129
  554MOL0     C74660   0.454   2.116   1.436  0.4000  0.4307  0.2190
  554MOL0     C74661   0.524   2.227   1.383 -0.3182 -0.2738 -0.7976
  554MOL0     C74662   0.627   2.210   1.293  0.1827  0.2678 -0.1627
  554MOL0     O74663   0.691   2.324   1.259 -0.0896 -0.1392 -0.7239
  554MOL0     C74664   0.802   2.316   1.170  0.2233  0.0584  0.7705
  554MOL0     C74665   0.848   2.456   1.136 -0.0474 -0.2363  0.5185
  554MOL0     C74666   0.943   2.471   1.014  0.2009  0.0771  0.1432
  554MOL0     C74667   1.025   2.596   1.050 -0.0784  0.0724 -0.6346
  554MOL0     C74668   1.146   2.618   0.967  0.0642  0.5224 -0.0129
  554MOL0     C74669   1.259   2.703   1.032 -0.4050 -1.2306  0.2698
  554MOL0     C74670   1.397   2.670   0.972  0.3228  0.3885 -0.7506
  554MOL0     C74671   1.501   2.737   1.053 -0.6143 -0.5559 -0.4718
  554MOL0     N74672   1.644   2.736   1.008  0.5727 -0.2440 -0.1031
  554MOL0     C74673   1.701   2.793   0.895  0.5209  0.5298 -0.3400
  554MOL0     C74674   1.826   2.738   0.889  0.1690 -0.8124 -0.1163
  554MOL0     C74675   1.933   2.781   0.793  0.6702  0.6237  0.1757
  554MOL0     C74676   1.902   2.742   0.637  0.0146 -0.7925 -0.1150
  554MOL0     C74677   2.036   2.762   0.556  0.3729  0.5218  1.0147
  554MOL0     C74678   2.083   2.906   0.544 -0.4789  1.3050 -0.3596
  554MOL0     O74679   2.187   2.900   0.454 -0.1574  0.5853  0.3607
  554MOL0     C74680   2.247   3.014   0.417  0.4248 -0.1322 -0.1133
  554MOL0     C74681   2.189   3.143   0.416 -0.0468  0.0238 -0.3763
  554MOL0     C74682   2.261   3.257   0.363 -0.7485  0.0690  0.1596
  554MOL0     C74683   2.389   3.234   0.304 -0.4049 -0.0705 -1.3821
  554MOL0     C74684   2.473   3.351   0.246  0.3202 -2.5979  0.2052
  554MOL0     O74685   2.417   3.471   0.254 -0.5204 -1.0519 -0.7512
  554MOL0     C74686   2.492   3.587   0.238 -0.1558 -0.3328  0.7619
  554MOL0     C74687   2.555   3.656   0.344  0.0588 -0.3655 -0.4022
  554MOL0     C74688   2.596   3.787   0.314 -0.3904 -0.1319 -0.2761
  554MOL0     C74689   2.566   3.856   0.194  0.9116  0.4267  0.2759
  554MOL0     O74690   2.574   3.985   0.178 -0.6452 -1.4453 -0.3339
  554MOL0     C74691   2.555   4.074   0.294 -0.8674 -0.3816  0.2156
  554MOL0     C74692   2.483   4.201   0.261  0.6704  0.3948  0.1964
  554MOL0     C74693   2.449   4.311   0.369 -0.3712  0.7846 -0.2545
  554MOL0     C74694   2.448   4.446   0.299 -0.6447 -0.1150 -0.4288
  554MOL0     C74695   2.461   4.556   0.404 -0.9121 -0.1190  0.5303
  554MOL0     C74696   2.500   4.688   0.325 -0.4919 -0.3800 -0.2314
  554MOL0     C74697   2.651   4.702   0.273  1.0831 -0.4769 -0.6556
  554MOL0     C74698   2.732   4.807   0.343  0.0450  1.2466 -0.2085
  554MOL0    Cl74699   2.883   4.811   0.260 -0.2692  0.2925  0.0275
  554MOL0     C74700   2.510   3.781   0.089 -0.5360  0.0233  0.0756
  554MOL0     C74701   2.457   3.655   0.117  1.2874  0.3648  0.3065
  554MOL0     O74702   2.591   3.334   0.209  0.3648 -0.4681  0.5215
  554MOL0     C74703   2.449   3.104   0.302  0.4708  0.0203 -0.4295
  554MOL0     C74704   2.380   2.994   0.363  0.5733  1.1709  0.2837
  554MOL0     N74705   1.850   2.663   0.998 -0.4253 -0.2062 -0.7511
  554MOL0     N74706   1.744   2.659   1.065  0.5907  0.5119 -0.2447
  554MOL0     C74707   0.663   2.068   1.259  1.0219 -0.9259  0.3863
  554MOL0     C74708   0.591   1.960   1.317 -0.6348 -1.4043  0.9006
  554MOL0     C74709   0.298   1.721   1.552 -0.1098  1.0164  0.1424
  554MOL0     C74710   0.159   1.708   1.552  0.2041  0.4710  0.0024
  554MOL0     C74711   0.095   1.588   1.584  0.3932 -0.4720 -0.3043
  554MOL0     C74712   0.168   1.467   1.609 -0.2440 -0.7984  0.4897
  554MOL0     O74713   0.115   1.345   1.631  0.1109 -0.4086  0.0360
  554MOL0     C74714   0.131   1.248   1.533  0.1321 -0.0517 -0.1874
  554MOL0     C74715   0.054   1.123   1.556  0.1118  0.5794 -0.4640
  554MOL0     C74716   0.090   1.025   1.454  0.3255 -0.4007 -0.0079
  554MOL0     C74717   0.043   0.885   1.487  1.0997 -0.2095  0.4241
  554MOL0     C74718  -0.108   0.884   1.497 -0.7833  0.2998 -0.6073
  554MOL0     C74719  -0.229   0.883   1.496  0.4965  0.9165 -0.0047
  554MOL0     C74720   0.306   1.479   1.602 -0.4079 -0.1279 -0.0924
  554MOL0     C74721   0.366   1.599   1.566  0.0717 -0.4515  0.6241
  554MOL0     C74722   0.517   1.600   1.540  0.2614  0.1202 -0.1629
  554MOL0     H74723   0.361   2.127   1.490 -0.4713  1.6729 -1.4466
  554MOL0     H74724   0.492   2.324   1.418  0.0714 -1.0129  1.7730
  554MOL0     H74725   0.883   2.255   1.210 -0.1661 -1.5344 -0.7400
  554MOL0     H74726   0.781   2.249   1.086  1.8565  0.6030 -0.1266
  554MOL0     H74727   0.891   2.500   1.226 -1.5394 -2.6166  2.5372
  554MOL0     H74728   0.764   2.518   1.103  0.7402  0.0692 -1.0126
  554MOL0     H74729   0.894   2.479   0.916  0.7249  1.2325 -0.0384
  554MOL0     H74730   1.013   2.387   1.013 -0.0801 -0.1793 -1.6621
  554MOL0     H74731   0.963   2.687   1.046  1.1398  0.9032 -1.2836
  554MOL0     H74732   1.064   2.595   1.152  1.6525 -0.1191 -1.2639
  554MOL0     H74733   1.189   2.523   0.936 -0.1273  0.0991  0.9873
  554MOL0     H74734   1.109   2.657   0.871 -0.2773 -0.3999 -0.2653
  554MOL0     H74735   1.240   2.805   0.997  0.0039 -1.5805 -1.0106
  554MOL0     H74736   1.257   2.684   1.140 -0.2836 -0.5035  0.4054
  554MOL0     H74737   1.409   2.704   0.869  2.4673  3.3344  0.3314
  554MOL0     H74738   1.419   2.564   0.953  1.0290  1.0255 -4.0879
  554MOL0     H74739   1.482   2.842   1.078 -3.2160 -0.5446 -2.1443
  554MOL0     H74740   1.506   2.688   1.151  0.5764  2.6975  1.2817
  554MOL0     H74741   1.663   2.864   0.823  2.5240 -0.9909 -3.0794
  554MOL0     H74742   1.937   2.890   0.803 -0.8956  0.8451 -1.2287
  554MOL0     H74743   2.032   2.746   0.821  1.0803 -2.0052 -3.6983
  554MOL0     H74744   1.867   2.638   0.638  0.3351 -1.3037 -6.2465
  554MOL0     H74745   1.820   2.802   0.596  1.9225  0.9783 -1.5191
  554MOL0     H74746   2.023   2.706   0.462  0.3343 -1.1706  1.9949
  554MOL0     H74747   2.111   2.712   0.617  0.1286 -0.1594  0.7694
  554MOL0     H74748   2.109   2.939   0.645 -1.5690  1.9118 -0.2629
  554MOL0     H74749   2.003   2.964   0.497  0.1539  0.6609 -2.3487
  554MOL0     H74750   2.088   3.144   0.456  0.0009 -0.9404 -0.2027
  554MOL0     H74751   2.220   3.357   0.355  0.6988  0.6896  0.0246
  554MOL0     H74752   2.571   3.610   0.440 -2.1570  0.0375  0.2183
  554MOL0     H74753   2.643   3.845   0.392  0.2739 -1.4244  0.2995
  554MOL0     H74754   2.495   4.028   0.373 -1.2862  2.3149  1.5906
  554MOL0     H74755   2.646   4.090   0.353 -0.3841 -0.7412 -0.4228
  554MOL0     H74756   2.543   4.232   0.174 -0.7218  0.5689 -0.7224
  554MOL0     H74757   2.389   4.186   0.207 -0.1389  2.4434  0.9231
  554MOL0     H74758   2.353   4.290   0.417  0.1197 -2.1588 -0.3313
  554MOL0     H74759   2.532   4.295   0.437 -1.2977 -4.0505  0.1087
  554MOL0     H74760   2.360   4.445   0.233 -1.8491  0.6445  1.1003
  554MOL0     H74761   2.538   4.444   0.237  1.1574  0.3011  2.0418
  554MOL0     H74762   2.543   4.539   0.475  0.2920  1.0175 -0.5483
  554MOL0     H74763   2.373   4.565   0.469 -1.3366 -0.8316  0.0692
  554MOL0     H74764   2.426   4.697   0.245 -1.9952 -1.3593  0.9855
  554MOL0     H74765   2.474   4.768   0.395  3.6134 -0.3948  1.6029
  554MOL0     H74766   2.640   4.742   0.171  1.1436 -0.5085 -0.6747
  554MOL0     H74767   2.697   4.603   0.269  2.7946  0.3097 -3.2143
  554MOL0     H74768   2.700   4.912   0.338 -1.7559  0.6920 -1.2398
  554MOL0     H74769   2.720   4.776   0.447 -1.0210  0.8406 -0.4431
  554MOL0     H74770   2.508   3.843   0.000  3.4314  1.2612  0.6660
  554MOL0     H74771   2.378   3.615   0.056  1.2594 -0.6053  0.9708
  554MOL0     H74772   2.547   3.092   0.257 -0.0097 -1.1252 -1.2228
  554MOL0     H74773   2.422   2.894   0.353 -2.8075 -0.3913  0.4784
  554MOL0     H74774   0.749   2.047   1.195  1.4032  1.6004 -0.0615
  554MOL0     H74775   0.614   1.858   1.288  1.1229 -1.2207  1.4934
  554MOL0     H74776   0.115   1.802   1.522  0.1184  0.9160  1.4442
  554MOL0     H74777  -0.013   1.580   1.575  0.5668 -4.0668 -0.9180
  554MOL0     H74778   0.236   1.217   1.536  0.1337 -0.1859  3.7677
  554MOL0     H74779   0.103   1.287   1.435  0.8739  0.0700 -0.3623
  554MOL0     H74780  -0.052   1.149   1.565  1.1035  4.3808  4.3429
  554MOL0     H74781   0.076   1.088   1.657 -2.9859  0.5165  0.3039
  554MOL0     H74782   0.199   1.025   1.455  0.3825 -0.0887  2.8607
  554MOL0     H74783   0.060   1.053   1.353 -0.1946 -1.2097 -0.0850
  554MOL0     H74784   0.075   0.812   1.412 -0.5296  0.0395 -0.5806
  554MOL0     H74785   0.096   0.852   1.576  1.0286  0.3745  0.6889
  554MOL0     H74786  -0.332   0.880   1.524  0.2292  1.9754 -0.8127
  554MOL0     H74787   0.358   1.389   1.633  0.6211  1.1612  2.1627
  554MOL0     H74788   0.579   1.614   1.629  1.5517  2.8657 -1.3942
  554MOL0     H74789   0.550   1.503   1.501  0.9562 -0.3580  1.5272
  554MOL0     H74790   0.542   1.682   1.472 -2.2321 -0.7479 -2.2942
  555MOL0     O74791   2.232   1.826   0.971  0.1035  0.2218 -0.8503
  555MOL0     C74792   2.360   1.809   0.980 -0.1755 -0.0145 -0.1087
  555MOL0     O74793   2.423   1.766   1.083 -0.2547  0.4102 -0.4280
  555MOL0     C74794   2.349   1.750   1.193 -0.4905 -0.3251 -1.0208
  555MOL0     C74795   2.364   1.636   1.269  0.0406  0.6480  0.4887
  555MOL0     C74796   2.304   1.639   1.397  0.2151  1.1056  0.5442
  555MOL0     C74797   2.222   1.737   1.444  0.1867 -0.1109  0.0405
  555MOL0     O74798   2.177   1.732   1.567 -0.5090  0.2385 -1.0098
  555MOL0     C74799   2.257   1.802   1.655  1.3290  0.1472 -0.7676
  555MOL0     C74800   2.172   1.877   1.766 -0.6760  0.4113  1.1148
  555MOL0     C74801   2.227   1.856   1.908 -0.8330 -0.2733  0.2186
  555MOL0     C74802   2.167   1.736   1.976 -0.4565 -1.0236 -0.8234
  555MOL0     C74803   2.218   1.715   2.131  0.0413 -0.5382  0.0033
  555MOL0     C74804   2.127   1.621   2.208 -0.0159 -0.6506 -0.4926
  555MOL0     C74805   2.164   1.625   2.357  0.9724  0.3275  0.1862
  555MOL0     C74806   2.060   1.548   2.440  0.2374  0.0441  0.4784
  555MOL0     N74807   2.139   1.414   2.459  0.4806 -0.0547 -0.4972
  555MOL0     C74808   2.208   1.381   2.573 -0.5184  0.7422 -0.7446
  555MOL0     C74809   2.240   1.251   2.539  0.5804 -0.6197 -0.0861
  555MOL0     C74810   2.308   1.156   2.634  0.7543  0.6236 -0.0906
  555MOL0     C74811   2.455   1.120   2.602  0.9280 -0.1500 -0.3498
  555MOL0     C74812   2.509   0.993   2.683  0.4206 -0.4837  0.6509
  555MOL0     C74813   2.460   1.001   2.827  0.1260 -0.2972 -0.0652
  555MOL0     O74814   2.512   0.898   2.916  0.9075 -0.6317 -0.0460
  555MOL0     C74815   2.459   0.898   3.043 -0.4303 -0.2376  0.7084
  555MOL0     C74816   2.366   0.985   3.094 -0.0780 -0.8346 -0.6777
  555MOL0     C74817   2.321   0.953   3.220 -0.8432 -0.0918 -0.0573
  555MOL0     C74818   2.375   0.855   3.305 -0.2354 -0.8403  0.0918
  555MOL0     C74819   2.329   0.830   3.444 -0.1588  0.0099 -0.5913
  555MOL0     O74820   2.360   0.716   3.499 -0.0984 -0.7520 -0.4111
  555MOL0     C74821   2.330   0.696   3.627  0.4993 -0.1063  1.3203
  555MOL0     C74822   2.391   0.774   3.725  0.6914  0.2644 -0.0207
  555MOL0     C74823   2.384   0.743   3.861  0.5369  0.4211  0.2205
  555MOL0     C74824   2.301   0.637   3.906  1.0516  0.1442  0.6041
  555MOL0     O74825   2.301   0.625   4.045 -1.1038  0.1822  0.6027
  555MOL0     C74826   2.172   0.569   4.106 -0.2661 -0.1244 -1.0574
  555MOL0     C74827   2.191   0.527   4.257  0.7626  0.2059  0.0197
  555MOL0     C74828   2.301   0.418   4.292 -0.8415 -0.5742  0.5250
  555MOL0     C74829   2.416   0.471   4.364 -0.7668  0.0441  0.2574
  555MOL0     C74830   2.494   0.344   4.416  0.1501 -0.3712 -0.3357
  555MOL0     C74831   2.586   0.279   4.315 -0.6490  0.8849  0.3552
  555MOL0     C74832   2.661   0.161   4.377 -1.5873 -0.4869 -0.2787
  555MOL0     C74833   2.777   0.130   4.281  0.5575 -1.0158 -1.0488
  555MOL0    Cl74834   2.880  -0.002   4.342  0.4205  0.1279  0.4864
  555MOL0     C74835   2.221   0.574   3.807 -0.1778 -0.0364  0.2057
  555MOL0     C74836   2.248   0.594   3.667 -1.1722  0.6768 -0.3473
  555MOL0     O74837   2.248   0.909   3.498 -0.6679  0.2255 -0.7082
  555MOL0     C74838   2.485   0.789   3.245  0.9185  0.4452 -0.8502
  555MOL0     C74839   2.524   0.802   3.119  0.2078 -0.5065 -0.5310
  555MOL0     N74840   2.208   1.223   2.412  0.1297  0.2348 -0.8012
  555MOL0     N74841   2.145   1.320   2.364  0.1116  0.1917  0.5525
  555MOL0     C74842   2.210   1.853   1.363  1.0161  0.1485 -0.6774
  555MOL0     C74843   2.271   1.856   1.240 -0.3359  0.8095 -0.2101
  555MOL0     C74844   2.422   1.810   0.846 -1.0795  0.5826 -0.1517
  555MOL0     C74845   2.347   1.753   0.737 -0.5965  0.5984 -0.0085
  555MOL0     C74846   2.398   1.735   0.607 -1.0329  0.6478  0.1776
  555MOL0     C74847   2.532   1.778   0.576 -0.5632  0.1350 -0.3251
  555MOL0     O74848   2.583   1.731   0.456  0.0393 -0.3913  0.6419
  555MOL0     C74849   2.718   1.680   0.445  0.3897  0.3782  0.2503
  555MOL0     C74850   2.810   1.780   0.374 -0.4317 -0.2277 -0.4596
  555MOL0     C74851   2.756   1.861   0.246 -0.5422  0.6010 -0.0527
  555MOL0     C74852   2.873   1.887   0.152  0.6964 -0.1686  0.1234
  555MOL0     C74853   2.991   1.949   0.213  0.6025  0.2529 -0.1938
  555MOL0     C74854   3.092   1.965   0.280 -0.2824  0.1855 -0.6038
  555MOL0     C74855   2.608   1.841   0.675 -0.0325 -1.1439  0.6998
  555MOL0     C74856   2.556   1.860   0.809  0.2870 -1.1235  0.5413
  555MOL0     C74857   2.646   1.912   0.915 -0.1476  0.1543  0.0333
  555MOL0     H74858   2.418   1.549   1.232 -1.2852  0.4974 -1.1796
  555MOL0     H74859   2.325   1.556   1.464  1.3862  1.0646  0.1452
  555MOL0     H74860   2.318   1.729   1.709  2.4043  1.8815  0.4749
  555MOL0     H74861   2.325   1.874   1.610  1.1515  0.8476  0.0485
  555MOL0     H74862   2.070   1.844   1.744 -0.5337 -0.8941  2.2450
  555MOL0     H74863   2.168   1.982   1.738 -0.5090 -0.3337 -2.1068
  555MOL0     H74864   2.184   1.944   1.956  1.3152  0.4092  0.9886
  555MOL0     H74865   2.336   1.859   1.915 -0.9198  0.4110  1.6253
  555MOL0     H74866   2.058   1.739   1.977 -0.4813  1.0635  1.8622
  555MOL0     H74867   2.198   1.650   1.916 -1.2331 -2.3801  0.6630
  555MOL0     H74868   2.323   1.687   2.142 -0.5697 -2.8009  0.5299
  555MOL0     H74869   2.209   1.806   2.191  1.8613  0.7575 -1.5449
  555MOL0     H74870   2.027   1.663   2.195 -0.4536 -1.8387 -1.1084
  555MOL0     H74871   2.125   1.519   2.167  4.0526 -0.5614 -1.3159
  555MOL0     H74872   2.183   1.726   2.397  0.5749  0.9064 -1.0554
  555MOL0     H74873   2.264   1.584   2.372  0.1040 -1.6761  0.7876
  555MOL0     H74874   2.043   1.598   2.536  0.9182  0.8637  0.1868
  555MOL0     H74875   1.962   1.527   2.395 -0.8826  1.7407  1.9487
  555MOL0     H74876   2.227   1.429   2.668  1.8924 -0.0783 -0.7399
  555MOL0     H74877   2.298   1.194   2.736 -3.9752  2.3809 -0.9799
  555MOL0     H74878   2.250   1.065   2.613 -0.1376  1.5370 -1.8166
  555MOL0     H74879   2.459   1.109   2.493 -1.5470 -1.0207 -0.4243
  555MOL0     H74880   2.517   1.208   2.617 -2.1071  2.5430 -2.2536
  555MOL0     H74881   2.617   1.011   2.674 -0.0448  1.2515 -3.0014
  555MOL0     H74882   2.481   0.903   2.628  1.3913 -0.0845 -0.5399
  555MOL0     H74883   2.352   0.983   2.835 -0.0502  0.5711 -0.3807
  555MOL0     H74884   2.479   1.100   2.868  4.9749 -0.8982 -0.2921
  555MOL0     H74885   2.320   1.072   3.047  0.7399  0.6945  1.2164
  555MOL0     H74886   2.238   1.013   3.258  0.3959  1.4362  0.3404
  555MOL0     H74887   2.446   0.864   3.701 -0.0057  1.0678  1.2959
  555MOL0     H74888   2.442   0.796   3.936  2.3853 -3.7554  2.0821
  555MOL0     H74889   2.092   0.643   4.115 -0.5634 -0.5147 -0.4813
  555MOL0     H74890   2.137   0.483   4.049 -1.2452  0.2122 -0.9717
  555MOL0     H74891   2.216   0.621   4.307  0.6203  0.1317  0.2310
  555MOL0     H74892   2.093   0.492   4.291  0.3964  1.6270  0.4834
  555MOL0     H74893   2.270   0.330   4.348  3.6422 -3.0193 -0.3846
  555MOL0     H74894   2.342   0.371   4.202 -0.2998  0.9730 -0.0682
  555MOL0     H74895   2.384   0.530   4.450 -1.1223  1.3063 -0.7007
  555MOL0     H74896   2.484   0.517   4.290 -1.6444 -0.8694 -1.1614
  555MOL0     H74897   2.428   0.270   4.463 -3.5548  1.9445 -1.4235
  555MOL0     H74898   2.552   0.392   4.495 -2.7015  0.4433  1.4545
  555MOL0     H74899   2.522   0.228   4.243 -0.9389 -1.6163  2.2503
  555MOL0     H74900   2.657   0.356   4.283  0.0053  0.8469  1.6412
  555MOL0     H74901   2.605   0.068   4.395 -0.1589 -0.7639  3.8791
  555MOL0     H74902   2.704   0.185   4.475 -4.1136 -0.9877  1.0311
  555MOL0     H74903   2.764   0.100   4.177 -0.8968 -1.1949 -0.8414
  555MOL0     H74904   2.842   0.218   4.277 -3.6437  2.5018  0.0156
  555MOL0     H74905   2.157   0.489   3.824  1.9002 -1.2440  2.7542
  555MOL0     H74906   2.199   0.538   3.589  2.6793  1.1072 -3.3562
  555MOL0     H74907   2.543   0.727   3.312 -0.9164  0.9112  1.3225
  555MOL0     H74908   2.620   0.758   3.094  0.4479  0.8954 -2.2944
  555MOL0     H74909   2.152   1.938   1.400 -0.8872 -1.2673 -0.2470
  555MOL0     H74910   2.268   1.944   1.177  4.6518 -0.5647 -2.8560
  555MOL0     H74911   2.252   1.706   0.761  0.0424 -1.3078 -0.9928
  555MOL0     H74912   2.342   1.680   0.533  2.5012  1.2462 -3.2684
  555MOL0     H74913   2.729   1.594   0.379 -1.0427 -0.5827  1.2010
  555MOL0     H74914   2.753   1.651   0.545  0.8550 -0.3080 -0.1065
  555MOL0     H74915   2.898   1.719   0.351  1.4704  2.6604 -1.2641
  555MOL0     H74916   2.836   1.863   0.440 -2.2326 -0.4400  0.5823
  555MOL0     H74917   2.700   1.951   0.274  1.2603  1.5661  0.6523
  555MOL0     H74918   2.683   1.796   0.197  0.3260  0.1922 -0.8378
  555MOL0     H74919   2.918   1.794   0.114  1.2712  1.3604 -3.2239
  555MOL0     H74920   2.837   1.938   0.063 -2.6243 -0.5981  1.0810
  555MOL0     H74921   3.174   1.970   0.349  0.4479 -0.7576 -1.3688
  555MOL0     H74922   2.708   1.880   0.660 -0.5024  0.0518  0.5739
  555MOL0     H74923   2.694   1.842   0.984 -0.4145  2.0918  2.3307
  555MOL0     H74924   2.733   1.958   0.869 -0.3622  0.5562  0.0278
  555MOL0     H74925   2.591   1.990   0.968  1.5418  1.5122 -0.1572
  556MOL0     O74926   2.493   3.542   1.347 -0.5984  0.5630  0.6020
  556MOL0     C74927   2.540   3.466   1.434 -0.2564  0.8265  0.1798
  556MOL0     O74928   2.613   3.350   1.406  0.0802  0.5555 -0.1305
  556MOL0     C74929   2.639   3.324   1.270 -0.9238 -0.1980 -0.1796
  556MOL0     C74930   2.763   3.363   1.209  0.2846  0.8877 -0.0621
  556MOL0     C74931   2.786   3.313   1.080  0.1842  0.0912  0.1292
  556MOL0     C74932   2.694   3.241   1.005  0.8099  1.4066 -0.2243
  556MOL0     O74933   2.718   3.214   0.876  0.3603 -0.3470 -0.2398
  556MOL0     C74934   2.679   3.091   0.815 -0.9075 -0.9866 -0.8048
  556MOL0     C74935   2.748   3.084   0.680  0.4550 -0.2817  0.0274
  556MOL0     C74936   2.697   3.194   0.583  0.8107 -0.2411 -0.0338
  556MOL0     C74937   2.808   3.286   0.548  0.1487  0.4302  0.7042
  556MOL0     C74938   2.838   3.411   0.629 -0.1162  0.2910 -0.3191
  556MOL0     C74939   2.967   3.495   0.575 -0.2371  0.7640  0.1546
  556MOL0     C74940   2.946   3.560   0.433  0.9130 -0.4125 -0.1513
  556MOL0     C74941   3.040   3.486   0.335  1.2369  0.8622 -0.2507
  556MOL0     N74942   3.015   3.529   0.200  0.1501 -0.5280  0.0985
  556MOL0     C74943   2.925   3.622   0.159 -0.3082 -0.8242 -0.0100
  556MOL0     C74944   2.963   3.655   0.029 -0.0623  0.0960  0.5551
  556MOL0     C74945   2.890   3.745  -0.080  0.1617 -0.4555  0.1941
  556MOL0     C74946   2.875   3.889  -0.043 -0.3818  0.5230  0.1456
  556MOL0     C74947   2.983   3.944   0.053 -0.2167  1.3688 -0.6378
  556MOL0     C74948   2.940   4.086   0.098 -0.0408 -0.1677 -0.1236
  556MOL0     O74949   3.048   4.172   0.144  0.0007 -0.0326 -0.3321
  556MOL0     C74950   3.010   4.273   0.219  0.4765 -0.2299 -0.2807
  556MOL0     C74951   3.111   4.353   0.265  0.8442  1.0523  0.5105
  556MOL0     C74952   3.090   4.449   0.367  0.5015 -0.2734  1.0394
  556MOL0     C74953   2.962   4.458   0.430 -0.3109 -1.0447  0.6330
  556MOL0     C74954   2.937   4.561   0.533  0.2212 -0.2936 -1.4480
  556MOL0     O74955   3.058   4.616   0.583 -0.4329  0.6657 -1.5497
  556MOL0     C74956   3.059   4.711   0.685 -0.0702  0.6455 -1.0619
  556MOL0     C74957   3.182   4.723   0.757 -0.1260  0.4253  0.3038
  556MOL0     C74958   3.197   4.827   0.849 -0.6782  0.7161 -0.1847
  556MOL0     C74959   3.098   4.920   0.875  0.8768  0.7415 -0.8130
  556MOL0     O74960   3.130   5.011   0.978 -0.9120  0.1985 -0.7566
  556MOL0     C74961   3.133   5.145   0.932 -1.0473 -0.4816 -0.6614
  556MOL0     C74962   3.271   5.183   0.885  0.0237  1.3074 -0.0976
  556MOL0     C74963   3.268   5.331   0.840  0.5566  0.2773 -0.2405
  556MOL0     C74964   3.412   5.367   0.815 -0.3678 -0.2301  0.9534
  556MOL0     C74965   3.432   5.493   0.730  0.5435 -0.1445 -0.3858
  556MOL0     C74966   3.577   5.537   0.715 -0.6782 -0.6880  0.6656
  556MOL0     C74967   3.637   5.485   0.585 -0.1237 -0.3675 -0.2878
  556MOL0     C74968   3.659   5.343   0.570  1.0718 -0.3700 -0.0363
  556MOL0    Cl74969   3.751   5.295   0.417  0.4063 -0.3601 -0.0938
  556MOL0     C74970   2.967   4.900   0.810 -0.2885 -0.5487 -0.1202
  556MOL0     C74971   2.953   4.797   0.718  0.1121 -0.2608  0.3336
  556MOL0     O74972   2.824   4.581   0.573  0.4684  0.8176  0.6845
  556MOL0     C74973   2.862   4.388   0.369  0.6205  0.3154 -0.0393
  556MOL0     C74974   2.876   4.298   0.260 -0.0576 -0.5465 -0.2557
  556MOL0     N74975   3.075   3.579   0.002  0.1320  0.1128 -0.2149
  556MOL0     N74976   3.105   3.508   0.099  0.3049  0.2814  0.1465
  556MOL0     C74977   2.572   3.215   1.063  0.1113  0.0721 -0.1209
  556MOL0     C74978   2.545   3.258   1.196 -0.1306  0.2410  1.1701
  556MOL0     C74979   2.503   3.497   1.572 -0.7527  0.5853 -0.7865
  556MOL0     C74980   2.426   3.617   1.598  0.3913 -0.0332 -0.6240
  556MOL0     C74981   2.407   3.664   1.726 -0.2563 -0.9583 -0.1496
  556MOL0     C74982   2.461   3.606   1.833 -0.6921  0.5632  0.0414
  556MOL0     O74983   2.437   3.679   1.947 -0.4581  0.4359 -0.2667
  556MOL0     C74984   2.544   3.659   2.045 -0.4736  0.0253  0.3043
  556MOL0     C74985   2.531   3.774   2.155 -0.7527 -0.1545  0.7595
  556MOL0     C74986   2.618   3.759   2.277 -0.8912  1.2001  1.0615
  556MOL0     C74987   2.761   3.724   2.248 -0.4969 -0.0284  0.0798
  556MOL0     C74988   2.852   3.836   2.197 -0.5152  0.3058  0.1635
  556MOL0     C74989   2.939   3.904   2.139 -0.2332  1.0892 -0.2950
  556MOL0     C74990   2.544   3.491   1.816 -0.7910 -0.2718  0.5223
  556MOL0     C74991   2.573   3.443   1.691 -0.4113  0.0436  0.3299
  556MOL0     C74992   2.662   3.314   1.684  0.5462  0.1526 -0.0264
  556MOL0     H74993   2.839   3.418   1.264 -0.4811 -1.0674  3.2511
  556MOL0     H74994   2.878   3.358   1.043  0.0204  3.2197  3.0665
  556MOL0     H74995   2.727   3.009   0.870  2.4827  1.1887 -0.2449
  556MOL0     H74996   2.570   3.082   0.816 -0.9634 -0.3083  0.1242
  556MOL0     H74997   2.746   2.990   0.625  1.4617 -0.8164  0.8536
  556MOL0     H74998   2.852   3.107   0.708  0.3307  2.7399 -1.5247
  556MOL0     H74999   2.620   3.243   0.644  0.4777 -2.5339  1.5374
  556MOL0     H75000   2.658   3.146   0.493  1.1843  0.9111 -0.8214
  556MOL0     H75001   2.901   3.231   0.532 -0.9417 -1.1865 -0.4706
  556MOL0     H75002   2.787   3.313   0.443 -1.0942 -0.3071  0.7425
  556MOL0     H75003   2.762   3.489   0.618  1.5656  1.8148 -1.9505
  556MOL0     H75004   2.867   3.391   0.733 -0.5620  0.6829 -0.1151
  556MOL0     H75005   3.007   3.580   0.630 -0.0737  2.5615 -2.5280
  556MOL0     H75006   3.047   3.420   0.572  1.4110  2.4257 -2.5888
  556MOL0     H75007   2.948   3.669   0.440  0.8195 -0.3566 -0.8902
  556MOL0     H75008   2.841   3.551   0.403  0.9774 -0.2723 -0.4217
  556MOL0     H75009   3.145   3.496   0.362  1.3448  1.0917 -0.7331
  556MOL0     H75010   3.014   3.380   0.336  0.5824  1.0186  0.2925
  556MOL0     H75011   2.835   3.656   0.209 -1.0162 -0.9909 -1.1407
  556MOL0     H75012   2.952   3.750  -0.169  0.0388 -0.7106  0.0916
  556MOL0     H75013   2.795   3.710  -0.121 -0.3087 -0.6028  1.3691
  556MOL0     H75014   2.862   3.943  -0.137  0.5225 -4.0664 -2.8947
  556MOL0     H75015   2.777   3.895   0.006 -1.1692 -1.2314 -1.1170
  556MOL0     H75016   3.083   3.936   0.010 -0.4256  0.2834 -0.9365
  556MOL0     H75017   3.011   3.886   0.142  0.5144 -0.4033 -1.9818
  556MOL0     H75018   2.861   4.069   0.170  0.8081 -1.5605  0.5137
  556MOL0     H75019   2.903   4.135   0.007  1.3246 -1.6602 -1.5599
  556MOL0     H75020   3.211   4.319   0.240 -0.8992 -2.1686 -3.1309
  556MOL0     H75021   3.172   4.514   0.396  1.0698  0.8666 -2.5892
  556MOL0     H75022   3.259   4.649   0.741  0.5907  1.2037  0.1014
  556MOL0     H75023   3.295   4.824   0.897  0.8537 -0.8272 -3.1557
  556MOL0     H75024   3.059   5.169   0.856  1.6921 -0.2738 -3.4470
  556MOL0     H75025   3.122   5.203   1.024 -0.3165 -1.9410  0.3910
  556MOL0     H75026   3.342   5.180   0.968  0.7412  2.0661 -0.6715
  556MOL0     H75027   3.317   5.126   0.805 -0.8938  1.5398 -0.8027
  556MOL0     H75028   3.212   5.331   0.746  2.3174  0.7193 -1.3273
  556MOL0     H75029   3.213   5.403   0.902 -0.9304 -2.0901  1.3427
  556MOL0     H75030   3.465   5.283   0.769  2.0286  1.1837  0.9739
  556MOL0     H75031   3.468   5.383   0.907  0.4621 -3.6259  1.1648
  556MOL0     H75032   3.380   5.576   0.780 -0.6719 -1.2979  0.3230
  556MOL0     H75033   3.382   5.474   0.634  0.3841  1.8108 -0.7474
  556MOL0     H75034   3.560   5.644   0.714 -1.0479 -0.7120  2.2034
  556MOL0     H75035   3.638   5.518   0.804  0.8346 -0.0789 -0.2007
  556MOL0     H75036   3.726   5.542   0.557 -0.9284 -0.1652 -2.7472
  556MOL0     H75037   3.560   5.513   0.511  1.3577 -0.3445 -1.8959
  556MOL0     H75038   3.700   5.293   0.659 -1.3279 -2.4439  0.0080
  556MOL0     H75039   3.563   5.295   0.553  1.0711  0.6493 -3.6233
  556MOL0     H75040   2.884   4.966   0.832  0.9565  0.9443  0.2655
  556MOL0     H75041   2.858   4.797   0.665  0.0065 -3.0811  0.4097
  556MOL0     H75042   2.759   4.401   0.401 -0.9570 -0.8025 -4.0332
  556MOL0     H75043   2.787   4.245   0.226 -2.1001  1.6084  1.3507
  556MOL0     H75044   2.493   3.177   1.000  1.5627  1.6450 -3.1257
  556MOL0     H75045   2.452   3.241   1.249 -0.6484 -1.2158 -0.1388
  556MOL0     H75046   2.374   3.672   1.521 -1.4820 -0.7515  0.0680
  556MOL0     H75047   2.338   3.747   1.739 -0.5710 -1.2731  0.2554
  556MOL0     H75048   2.643   3.664   1.998  0.1708 -4.0164  0.8100
  556MOL0     H75049   2.542   3.562   2.098  0.6426  0.9553  2.1671
  556MOL0     H75050   2.429   3.781   2.192 -0.5538  0.3113  1.2277
  556MOL0     H75051   2.563   3.871   2.118  5.6121 -2.3761 -0.9578
  556MOL0     H75052   2.577   3.678   2.339 -2.2433  1.4572  0.5393
  556MOL0     H75053   2.609   3.850   2.336  0.8830  1.4333  1.0173
  556MOL0     H75054   2.788   3.681   2.345 -2.9982  2.2352  1.9558
  556MOL0     H75055   2.765   3.654   2.165 -2.9802 -0.2296  0.0536
  556MOL0     H75056   3.021   3.962   2.101  0.4433  1.6270  1.8529
  556MOL0     H75057   2.595   3.447   1.901  4.1236  1.7222 -1.0091
  556MOL0     H75058   2.603   3.225   1.660 -0.6821  0.6197  1.1270
  556MOL0     H75059   2.749   3.329   1.620  2.6780  1.3590  2.9297
  556MOL0     H75060   2.696   3.299   1.787 -1.3636 -2.0856  0.3690
  557MOL0     O75061   0.095   3.671   0.320 -0.3489 -0.6572  0.2368
  557MOL0     C75062   0.134   3.693   0.433 -0.1356 -0.4645 -0.0142
  557MOL0     O75063   0.256   3.676   0.477  0.1144  0.5484 -0.1056
  557MOL0     C75064   0.366   3.636   0.400  0.4236 -0.2373  0.7789
  557MOL0     C75065   0.376   3.649   0.260 -0.8718  0.1918 -0.0416
  557MOL0     C75066   0.499   3.614   0.195  0.6001 -0.9090  0.8503
  557MOL0     C75067   0.606   3.564   0.258  0.6994 -1.2679  0.0096
  557MOL0     O75068   0.727   3.532   0.205 -0.9716 -0.9016 -0.0010
  557MOL0     C75069   0.726   3.509   0.063 -0.5895  0.8270  0.0013
  557MOL0     C75070   0.852   3.453   0.008  0.0524  0.5221 -0.0634
  557MOL0     C75071   0.954   3.572   0.004  0.7080 -0.1683  0.9922
  557MOL0     C75072   1.074   3.539  -0.063 -0.8947  0.4041 -0.0490
  557MOL0     C75073   1.163   3.668  -0.040  0.3143 -0.1468 -0.2757
  557MOL0     C75074   1.293   3.649  -0.121 -1.4033  0.4196  0.5012
  557MOL0     C75075   1.371   3.773  -0.144  0.2226  0.1215 -0.6024
  557MOL0     C75076   1.435   3.817  -0.010 -0.1722 -0.1663  0.3022
  557MOL0     N75077   1.453   3.965  -0.015  0.1114  0.4927 -0.0624
  557MOL0     C75078   1.551   4.019  -0.092 -0.6914  0.0283 -0.0266
  557MOL0     C75079   1.555   4.149  -0.056 -0.5945  0.1627 -0.1678
  557MOL0     C75080   1.627   4.265  -0.108 -0.1474  0.4196  0.4166
  557MOL0     C75081   1.742   4.233  -0.214  1.2560  1.2991 -0.6203
  557MOL0     C75082   1.808   4.353  -0.263 -0.4710 -0.2525 -0.3777
  557MOL0     C75083   1.917   4.433  -0.175 -0.0950 -0.1289  0.1148
  557MOL0     O75084   2.011   4.487  -0.270  0.6985 -0.9324  1.1142
  557MOL0     C75085   2.139   4.486  -0.231  0.1455 -0.0057  0.1876
  557MOL0     C75086   2.229   4.553  -0.313 -0.4640  0.3756 -0.4231
  557MOL0     C75087   2.368   4.565  -0.280  0.1736 -0.0810 -0.3470
  557MOL0     C75088   2.423   4.500  -0.171 -0.4095 -0.3027 -0.0967
  557MOL0     C75089   2.570   4.521  -0.133 -0.3930  1.0011  1.0889
  557MOL0     O75090   2.661   4.565  -0.229 -0.2947  0.3758  0.1637
  557MOL0     C75091   2.803   4.560  -0.221 -0.0820 -1.1852  1.1776
  557MOL0     C75092   2.878   4.614  -0.327 -0.1110  1.0474 -0.0832
  557MOL0     C75093   3.021   4.612  -0.328 -0.4315  0.4413  0.1670
  557MOL0     C75094   3.091   4.574  -0.212  0.4336  0.0439 -0.2064
  557MOL0     O75095   3.215   4.600  -0.192 -1.1712 -0.1756  0.2328
  557MOL0     C75096   3.280   4.711  -0.263  0.6457 -0.7459 -0.6397
  557MOL0     C75097   3.402   4.760  -0.193 -0.4836 -0.6219 -0.1585
  557MOL0     C75098   3.523   4.672  -0.213 -0.5585  0.6674  0.1779
  557MOL0     C75099   3.503   4.524  -0.190  0.6191  0.4273 -0.1254
  557MOL0     C75100   3.628   4.442  -0.223 -0.3560 -0.6066 -0.2573
  557MOL0     C75101   3.758   4.494  -0.156  0.0515  0.6697 -0.5316
  557MOL0     C75102   3.890   4.463  -0.240  0.1967 -0.2658 -0.2075
  557MOL0     C75103   3.890   4.309  -0.263 -1.0451 -0.5608 -0.6123
  557MOL0    Cl75104   4.052   4.266  -0.346 -0.3957 -0.0815 -0.6286
  557MOL0     C75105   3.012   4.513  -0.107  0.0705 -0.7400 -1.0513
  557MOL0     C75106   2.873   4.503  -0.117  0.2721 -0.2424  0.6394
  557MOL0     O75107   2.594   4.505  -0.017 -0.6749 -0.1620  0.5354
  557MOL0     C75108   2.335   4.423  -0.092  1.1907 -0.8897 -0.0449
  557MOL0     C75109   2.191   4.423  -0.118 -0.3874  0.1101  0.2721
  557MOL0     N75110   1.461   4.164   0.041 -0.4748  0.1714 -0.4248
  557MOL0     N75111   1.401   4.053   0.069  0.2433  0.5683 -0.4888
  557MOL0     C75112   0.603   3.557   0.403 -0.0676  0.2725  0.2089
  557MOL0     C75113   0.484   3.590   0.465 -0.4702  0.2699  0.4460
  557MOL0     C75114   0.030   3.724   0.538 -0.1238 -0.2122 -1.2550
  557MOL0     C75115  -0.098   3.768   0.498  0.2506  0.2397 -0.4718
  557MOL0     C75116  -0.204   3.789   0.586 -0.0590  0.0975  0.4935
  557MOL0     C75117  -0.185   3.774   0.722 -0.6898  0.6496 -0.4384
  557MOL0     O75118  -0.294   3.811   0.795  0.3004 -0.4602  0.4264
  557MOL0     C75119  -0.285   3.808   0.941  0.5991 -0.9418 -0.8809
  557MOL0     C75120  -0.409   3.873   1.010  0.2907  0.7448  0.1643
  557MOL0     C75121  -0.546   3.808   0.990 -0.6221  0.5734 -0.2705
  557MOL0     C75122  -0.657   3.849   1.097 -0.8344 -0.3204  0.2090
  557MOL0     C75123  -0.690   3.986   1.068  0.0672 -0.5837 -0.8486
  557MOL0     C75124  -0.729   4.103   1.063  0.1551 -1.2412  0.2263
  557MOL0     C75125  -0.058   3.721   0.768  0.0997  0.8877 -0.0352
  557MOL0     C75126   0.054   3.709   0.678 -0.4860  0.2275 -0.7590
  557MOL0     C75127   0.185   3.667   0.745  0.0629 -0.0668 -0.6107
  557MOL0     H75128   0.302   3.709   0.208 -0.0742  0.2365 -1.1462
  557MOL0     H75129   0.493   3.618   0.087 -3.4344 -0.3773  0.9396
  557MOL0     H75130   0.640   3.442   0.047 -0.2299  0.1134  0.9674
  557MOL0     H75131   0.703   3.598   0.003  3.3421 -0.1655 -3.4318
  557MOL0     H75132   0.839   3.423  -0.096 -1.4624  0.9088 -0.0001
  557MOL0     H75133   0.893   3.383   0.082 -0.0028  2.0951  1.5243
  557MOL0     H75134   0.978   3.586   0.110 -0.4666 -2.5616  1.6540
  557MOL0     H75135   0.922   3.667  -0.038  1.8482  0.0257  0.5220
  557MOL0     H75136   1.123   3.456  -0.011 -3.2918 -0.3662  1.1083
  557MOL0     H75137   1.056   3.512  -0.167  2.6920 -0.9401 -0.4701
  557MOL0     H75138   1.111   3.755  -0.082 -0.5997 -0.0292  1.0310
  557MOL0     H75139   1.179   3.686   0.066  2.1855 -1.1259 -0.3493
  557MOL0     H75140   1.353   3.580  -0.062 -1.6845 -1.6011 -1.4428
  557MOL0     H75141   1.279   3.597  -0.216  1.7653  2.4160 -1.2457
  557MOL0     H75142   1.307   3.856  -0.175 -3.8595 -1.2744  3.1124
  557MOL0     H75143   1.448   3.752  -0.219  1.1138  0.8446  0.0810
  557MOL0     H75144   1.367   3.797   0.074  0.7569  0.3848  1.2172
  557MOL0     H75145   1.518   3.753   0.022 -1.3979 -1.7663  0.4278
  557MOL0     H75146   1.596   3.960  -0.172  3.0538 -0.3805  2.1593
  557MOL0     H75147   1.552   4.329  -0.156  1.8061  1.9873 -0.7263
  557MOL0     H75148   1.674   4.329  -0.032  3.6227  0.9711 -2.0805
  557MOL0     H75149   1.815   4.168  -0.167  1.2209  2.0207  0.4750
  557MOL0     H75150   1.695   4.193  -0.304  2.1407 -0.5225 -0.3105
  557MOL0     H75151   1.745   4.424  -0.316  1.0840  1.2846 -0.2625
  557MOL0     H75152   1.871   4.313  -0.343  0.1064  0.6221 -0.3741
  557MOL0     H75153   1.950   4.359  -0.102 -2.4292 -0.4331  0.9521
  557MOL0     H75154   1.877   4.513  -0.111 -0.9493 -2.5615  2.8146
  557MOL0     H75155   2.190   4.595  -0.405  0.1377  1.2320 -0.2966
  557MOL0     H75156   2.422   4.633  -0.346 -1.2772  0.5938 -0.8679
  557MOL0     H75157   2.819   4.665  -0.403 -0.4337  1.0398  0.1595
  557MOL0     H75158   3.071   4.662  -0.410  1.5549  2.8173  2.6418
  557MOL0     H75159   3.305   4.689  -0.367  0.1943  1.5505 -1.2990
  557MOL0     H75160   3.212   4.797  -0.261  0.6794 -0.7172  1.3977
  557MOL0     H75161   3.433   4.859  -0.227 -0.4152  0.3527  2.5301
  557MOL0     H75162   3.393   4.750  -0.084 -1.8216 -2.8222 -0.4084
  557MOL0     H75163   3.562   4.679  -0.314  2.6048  2.8161  1.3875
  557MOL0     H75164   3.602   4.715  -0.151 -0.9967  0.4309  0.9157
  557MOL0     H75165   3.412   4.505  -0.247 -0.6083  0.6951  1.6757
  557MOL0     H75166   3.475   4.506  -0.086 -0.4835 -1.8927 -0.7718
  557MOL0     H75167   3.634   4.432  -0.332 -1.0923  0.8910 -0.4686
  557MOL0     H75168   3.616   4.341  -0.184  3.0350 -1.4347 -0.9967
  557MOL0     H75169   3.757   4.599  -0.126  1.3222  0.0737  1.8113
  557MOL0     H75170   3.770   4.447  -0.059 -1.3794  0.9937 -0.1668
  557MOL0     H75171   3.985   4.490  -0.193 -0.1982  0.8973 -0.0224
  557MOL0     H75172   3.888   4.518  -0.335  1.2535 -2.5354 -1.6263
  557MOL0     H75173   3.882   4.242  -0.177 -0.4465 -4.1545 -3.1418
  557MOL0     H75174   3.821   4.279  -0.342 -0.3155  0.1579 -1.5471
  557MOL0     H75175   3.059   4.480  -0.015 -1.7459 -0.8151 -0.0849
  557MOL0     H75176   2.825   4.452  -0.034  1.5089  1.6784  2.6548
  557MOL0     H75177   2.385   4.359  -0.020  2.9046 -3.3548 -3.2059
  557MOL0     H75178   2.152   4.361  -0.037  3.1444  0.6470  2.6062
  557MOL0     H75179   0.693   3.535   0.459  0.3969 -0.6944 -0.8707
  557MOL0     H75180   0.474   3.590   0.573  2.0975  2.0821  0.7627
  557MOL0     H75181  -0.115   3.785   0.392  0.9604  0.8239 -0.4996
  557MOL0     H75182  -0.301   3.816   0.547 -1.7542 -2.9623  2.1821
  557MOL0     H75183  -0.194   3.855   0.979 -0.3375  1.3026 -1.2705
  557MOL0     H75184  -0.281   3.704   0.975  1.9872 -0.7605 -0.4575
  557MOL0     H75185  -0.411   3.970   0.959  0.4697  0.4288 -0.4625
  557MOL0     H75186  -0.395   3.884   1.117 -0.1272  0.3633  0.2643
  557MOL0     H75187  -0.531   3.700   1.001  0.1814  0.7662  0.7363
  557MOL0     H75188  -0.588   3.834   0.893 -1.8145  2.2850  0.6382
  557MOL0     H75189  -0.747   3.793   1.073 -0.4735 -1.1039  0.6532
  557MOL0     H75190  -0.618   3.827   1.197 -2.5313  0.7600  1.1620
  557MOL0     H75191  -0.745   4.208   1.056  2.4760 -0.9201 -1.3734
  557MOL0     H75192  -0.063   3.684   0.870  0.5573 -3.5858 -1.4391
  557MOL0     H75193   0.185   3.662   0.854 -0.4620 -0.7783 -0.6372
  557MOL0     H75194   0.202   3.563   0.716 -1.3727 -0.4117 -0.2694
  557MOL0     H75195   0.264   3.738   0.716  0.1285 -0.3883 -1.2579
  558MOL0     O75196  10.615   3.880   7.096 -0.4778 -0.1635 -0.3477
  558MOL0     C75197  10.553   3.830   7.003 -0.0089  1.0179  0.3245
  558MOL0     O75198  10.439   3.864   6.955  0.0009  0.2091 -1.5303
  558MOL0     C75199  10.357   3.961   7.020 -0.6264 -0.3578  0.6937
  558MOL0     C75200  10.222   3.932   7.028  0.3043  0.1721 -0.9456
  558MOL0     C75201  10.139   4.024   7.085 -0.3611  0.7138 -0.9379
  558MOL0     C75202  10.176   4.144   7.138  0.8020  1.0976  0.3346
  558MOL0     O75203  10.089   4.234   7.187  0.3939  0.7845  0.1726
  558MOL0     C75204   9.955   4.205   7.188  0.2862 -1.1612  0.3790
  558MOL0     C75205   9.881   4.334   7.230 -0.8493 -0.3058 -0.4156
  558MOL0     C75206   9.729   4.326   7.233 -0.3835  0.2238 -1.1947
  558MOL0     C75207   9.678   4.452   7.305 -0.5256  0.1765 -0.5380
  558MOL0     C75208   9.665   4.564   7.207 -0.0304  0.0103  0.8552
  558MOL0     C75209   9.704   4.696   7.267  0.0480 -0.5398  1.0559
  558MOL0     C75210   9.853   4.697   7.313 -0.2722  1.0592  0.1532
  558MOL0     C75211   9.887   4.800   7.422 -0.6004 -0.1781  1.2581
  558MOL0     N75212  10.034   4.845   7.434 -0.2552  1.8016 -0.2747
  558MOL0     C75213  10.118   4.779   7.523 -0.2137  0.1744  0.1302
  558MOL0     C75214  10.241   4.841   7.487 -0.1921 -0.3973 -0.8817
  558MOL0     C75215  10.368   4.800   7.571  0.7157 -0.8291 -0.1337
  558MOL0     C75216  10.478   4.903   7.576  0.2071  0.4112  0.1703
  558MOL0     C75217  10.558   4.932   7.452 -0.2317  0.0747  1.2548
  558MOL0     C75218  10.616   4.811   7.373  0.8067 -0.2318  0.5770
  558MOL0     O75219  10.678   4.859   7.247  0.3941  0.6536 -0.6384
  558MOL0     C75220  10.789   4.797   7.184  0.4696  0.1983  0.2264
  558MOL0     C75221  10.904   4.876   7.149  0.6097  0.4022  0.3037
  558MOL0     C75222  11.002   4.803   7.077  0.6900 -0.6795 -0.3827
  558MOL0     C75223  10.986   4.672   7.016  0.1504 -0.4740 -0.1665
  558MOL0     C75224  11.099   4.604   6.948  1.3539 -0.1526  0.5334
  558MOL0     O75225  11.061   4.481   6.902  0.1101 -0.7092  0.7338
  558MOL0     C75226  11.136   4.414   6.813 -0.0813  0.1195 -0.1624
  558MOL0     C75227  11.126   4.275   6.807  0.0304 -0.0679  0.1870
  558MOL0     C75228  11.179   4.189   6.708  0.7986 -1.0804  0.9681
  558MOL0     C75229  11.250   4.246   6.598  0.5116 -0.2054 -0.2762
  558MOL0     O75230  11.296   4.164   6.492  0.2021 -0.0334 -0.4334
  558MOL0     C75231  11.431   4.188   6.439  0.3426 -0.3443 -0.2073
  558MOL0     C75232  11.456   4.132   6.293 -0.4208 -0.1628 -0.8148
  558MOL0     C75233  11.348   4.171   6.191  0.5917 -0.1374  0.2818
  558MOL0     C75234  11.373   4.146   6.041 -0.2055  0.2543  0.1497
  558MOL0     C75235  11.511   4.185   5.983 -0.7248  0.4704 -1.0672
  558MOL0     C75236  11.523   4.125   5.836 -0.5262  0.0707 -0.4204
  558MOL0     C75237  11.672   4.158   5.782 -0.2885  0.1456  1.0725
  558MOL0     C75238  11.676   4.136   5.630  0.3992  0.2233  0.0103
  558MOL0    Cl75239  11.587   4.262   5.547  0.0799 -0.5981 -0.0366
  558MOL0     C75240  11.262   4.395   6.607 -0.4491  1.1282  0.2232
  558MOL0     C75241  11.212   4.468   6.710  0.5661 -0.3679 -0.7971
  558MOL0     O75242  11.204   4.662   6.936 -0.1218  0.5718 -0.0949
  558MOL0     C75243  10.867   4.617   7.056 -0.8287 -0.0026 -0.4785
  558MOL0     C75244  10.770   4.670   7.138 -0.9298  0.0233  0.3957
  558MOL0     N75245  10.218   4.934   7.395  0.2252  0.1150 -0.4465
  558MOL0     N75246  10.097   4.938   7.361 -0.1667  0.2873 -0.1688
  558MOL0     C75247  10.307   4.174   7.132  0.2878 -0.5818  1.2178
  558MOL0     C75248  10.402   4.087   7.067 -1.2797 -0.2061  0.1269
  558MOL0     C75249  10.621   3.712   6.932  0.1838  0.1364  0.0564
  558MOL0     C75250  10.554   3.670   6.819 -0.5186  0.3148 -0.7928
  558MOL0     C75251  10.562   3.541   6.760  0.4536 -0.0692 -0.0799
  558MOL0     C75252  10.657   3.452   6.812  0.1896  0.1106  0.1191
  558MOL0     O75253  10.650   3.328   6.751 -0.2264  0.4111  0.0971
  558MOL0     C75254  10.736   3.221   6.796  0.8956 -0.1456 -0.4707
  558MOL0     C75255  10.710   3.100   6.707 -0.1394  0.6365 -0.1082
  558MOL0     C75256  10.559   3.061   6.690 -0.5041 -0.1581 -0.0123
  558MOL0     C75257  10.528   2.941   6.590  0.2119 -0.1592  0.1681
  558MOL0     C75258  10.386   2.912   6.618  0.2927 -0.2219  0.5311
  558MOL0     C75259  10.266   2.886   6.621 -0.1014 -0.2572  0.4199
  558MOL0     C75260  10.737   3.492   6.920  0.2601  0.2966  0.1756
  558MOL0     C75261  10.719   3.621   6.985  0.1556  0.4518 -0.1099
  558MOL0     C75262  10.795   3.648   7.117  0.2078 -0.3785  0.8620
  558MOL0     H75263  10.190   3.842   6.977  0.9826  1.3411 -3.6438
  558MOL0     H75264  10.036   3.988   7.093 -0.3830  0.8529  6.5470
  558MOL0     H75265   9.916   4.205   7.086  4.1844 -0.3335 -1.2885
  558MOL0     H75266   9.925   4.116   7.244 -0.0948 -1.8325 -0.8763
  558MOL0     H75267   9.912   4.422   7.173 -0.5350 -0.5507 -0.6266
  558MOL0     H75268   9.907   4.352   7.335 -3.2088 -3.5962  0.9151
  558MOL0     H75269   9.693   4.250   7.303  0.5489  0.5035 -0.3969
  558MOL0     H75270   9.682   4.314   7.135 -2.2084  0.9968 -0.4588
  558MOL0     H75271   9.580   4.425   7.346 -0.1961  0.4751  0.4739
  558MOL0     H75272   9.731   4.481   7.397 -1.9253 -5.1174  2.3555
  558MOL0     H75273   9.726   4.540   7.119 -0.8969 -1.9428  0.7353
  558MOL0     H75274   9.558   4.568   7.186  0.6252 -0.3608 -3.5053
  558MOL0     H75275   9.675   4.781   7.204  0.8480 -1.1278 -0.1672
  558MOL0     H75276   9.640   4.700   7.355  1.4158  1.1636  2.0327
  558MOL0     H75277   9.905   4.716   7.218  3.1469 -1.7384  1.2496
  558MOL0     H75278   9.889   4.596   7.333  1.4205  1.3228 -1.3385
  558MOL0     H75279   9.821   4.885   7.405  2.9159  2.2496 -1.9359
  558MOL0     H75280   9.854   4.748   7.512  2.5505  0.3714  2.8824
  558MOL0     H75281  10.106   4.695   7.590 -2.0518  0.4623  0.2138
  558MOL0     H75282  10.349   4.783   7.677  1.2479  1.8245  0.4648
  558MOL0     H75283  10.409   4.708   7.529 -0.5267 -1.2745 -0.4237
  558MOL0     H75284  10.432   4.993   7.619 -2.6044  0.0780 -1.8351
  558MOL0     H75285  10.554   4.865   7.644 -1.7515 -0.2146  2.1324
  558MOL0     H75286  10.643   4.994   7.479 -1.3163  2.2412 -0.0666
  558MOL0     H75287  10.485   4.988   7.393 -1.2825 -2.9112 -0.5269
  558MOL0     H75288  10.548   4.729   7.347  1.0881 -0.1333 -0.5517
  558MOL0     H75289  10.689   4.759   7.435  1.5585 -1.2726 -1.1051
  558MOL0     H75290  10.933   4.975   7.181 -0.8620  0.6019  1.1148
  558MOL0     H75291  11.089   4.865   7.057  0.2726  1.9640  4.4942
  558MOL0     H75292  11.057   4.239   6.883 -0.7195 -0.7192 -0.7807
  558MOL0     H75293  11.157   4.082   6.708  0.1278 -0.9851  2.6659
  558MOL0     H75294  11.467   4.291   6.452  2.1840 -1.1085  1.2341
  558MOL0     H75295  11.501   4.138   6.506  0.9939  0.9387  0.1076
  558MOL0     H75296  11.556   4.166   6.264 -0.6802  1.9787  0.5765
  558MOL0     H75297  11.456   4.023   6.296 -0.6272 -0.1947  3.4997
  558MOL0     H75298  11.255   4.123   6.223  0.3159  1.1901  1.5940
  558MOL0     H75299  11.333   4.279   6.202 -0.7456 -0.1241 -1.3801
  558MOL0     H75300  11.290   4.186   5.984  0.3653 -2.0876 -2.5582
  558MOL0     H75301  11.376   4.036   6.036 -0.0910  0.2025  1.0595
  558MOL0     H75302  11.585   4.145   6.053 -2.8134 -0.3503  0.7998
  558MOL0     H75303  11.527   4.293   5.983  0.1590  0.3591 -0.0182
  558MOL0     H75304  11.520   4.016   5.836 -2.7921  0.0669 -1.8485
  558MOL0     H75305  11.442   4.159   5.770  0.8334 -2.5949 -3.7673
  558MOL0     H75306  11.751   4.094   5.823  0.3133  0.6131  0.6528
  558MOL0     H75307  11.706   4.259   5.805  1.2426  0.9948 -3.8054
  558MOL0     H75308  11.777   4.114   5.594 -0.2881 -2.5539 -0.4053
  558MOL0     H75309  11.632   4.040   5.604  1.6814 -0.4838  0.3577
  558MOL0     H75310  11.318   4.442   6.526 -1.9989  2.2287 -0.2450
  558MOL0     H75311  11.232   4.575   6.720 -0.3482 -0.2141 -0.4936
  558MOL0     H75312  10.855   4.517   7.016  0.1821 -0.9394  1.4230
  558MOL0     H75313  10.692   4.604   7.174  2.2018 -3.8999  0.6853
  558MOL0     H75314  10.340   4.273   7.163 -3.5318  1.5080 -0.5867
  558MOL0     H75315  10.505   4.120   7.071 -1.7925  1.8388 -1.4731
  558MOL0     H75316  10.480   3.737   6.776 -1.6246  0.8540  1.7744
  558MOL0     H75317  10.504   3.518   6.671  1.8467  1.8651 -1.5916
  558MOL0     H75318  10.710   3.201   6.901  1.6198 -0.5223 -0.3614
  558MOL0     H75319  10.836   3.263   6.785  0.4418  1.3619  0.8138
  558MOL0     H75320  10.757   3.018   6.762 -1.3728 -0.4845 -0.6461
  558MOL0     H75321  10.757   3.104   6.608  0.2318  1.7987  0.1029
  558MOL0     H75322  10.509   3.145   6.641 -1.4927  1.7029  3.7178
  558MOL0     H75323  10.516   3.027   6.785  1.4187 -0.5941  0.7506
  558MOL0     H75324  10.551   2.969   6.487  0.5676 -1.0697 -0.0146
  558MOL0     H75325  10.594   2.857   6.616 -0.4493 -1.7296 -2.7671
  558MOL0     H75326  10.163   2.856   6.629 -0.3774  0.9399  2.0327
  558MOL0     H75327  10.815   3.428   6.961 -0.2866  0.9347  2.3286
  558MOL0     H75328  10.831   3.751   7.130  2.0232 -0.7452 -0.7150
  558MOL0     H75329  10.722   3.619   7.193 -3.8322 -0.5990 -2.7672
  558MOL0     H75330  10.874   3.572   7.126 -0.4401 -0.9437  2.0135
  559MOL0     O75331   5.921   9.274   5.713  0.1305  1.4417  0.1137
  559MOL0     C75332   6.020   9.201   5.742  0.0853 -0.4567 -0.1334
  559MOL0     O75333   6.123   9.157   5.661 -0.1229  0.4652 -0.6428
  559MOL0     C75334   6.170   9.245   5.560 -0.0564 -0.0554 -1.3561
  559MOL0     C75335   6.168   9.392   5.583 -0.1093 -0.1359 -0.1659
  559MOL0     C75336   6.241   9.467   5.500 -1.1568 -0.5635  0.9525
  559MOL0     C75337   6.320   9.420   5.391  1.1602 -0.0877 -0.7179
  559MOL0     O75338   6.368   9.507   5.307 -0.6560 -0.1482  0.2297
  559MOL0     C75339   6.427   9.467   5.180  0.0840  0.1117 -0.0221
  559MOL0     C75340   6.498   9.592   5.124  0.1605  1.1351  0.6281
  559MOL0     C75341   6.557   9.583   4.976 -0.1110 -0.5781  0.6598
  559MOL0     C75342   6.439   9.591   4.867 -0.0592  0.2654 -0.5693
  559MOL0     C75343   6.500   9.581   4.732  0.8532  0.0528  0.2808
  559MOL0     C75344   6.545   9.715   4.674  0.1430  0.6328 -0.0777
  559MOL0     C75345   6.584   9.703   4.522 -1.3246  0.1421 -0.0943
  559MOL0     C75346   6.627   9.833   4.465  0.2780  0.7120 -0.2264
  559MOL0     N75347   6.761   9.835   4.398 -0.0725 -0.3387 -0.4074
  559MOL0     C75348   6.852   9.939   4.390 -0.4288  0.6594 -0.2317
  559MOL0     C75349   6.951   9.906   4.298 -1.6973  0.4285  0.5633
  559MOL0     C75350   7.089   9.977   4.286  0.8411  1.6342  0.0494
  559MOL0     C75351   7.081  10.071   4.169 -0.0265 -0.7670  0.8988
  559MOL0     C75352   7.223  10.130   4.171 -0.0578  0.6554  0.9610
  559MOL0     C75353   7.323  10.039   4.093 -0.1599 -0.4847  0.1726
  559MOL0     O75354   7.325  10.080   3.956 -0.1084 -0.5566 -0.0117
  559MOL0     C75355   7.421  10.176   3.910  0.5546  0.1384 -1.0858
  559MOL0     C75356   7.519  10.236   3.989 -0.3779  1.0274  0.0575
  559MOL0     C75357   7.590  10.358   3.953 -0.0882  0.0635  0.2238
  559MOL0     C75358   7.592  10.386   3.809 -0.1165  0.2019 -0.0255
  559MOL0     C75359   7.684  10.489   3.752 -1.1145 -0.1970  0.4190
  559MOL0     O75360   7.702  10.486   3.612  0.1029 -0.1038  0.2624
  559MOL0     C75361   7.749  10.600   3.544 -0.3142  0.3457 -0.5486
  559MOL0     C75362   7.844  10.582   3.446 -0.5997 -0.4701 -0.4292
  559MOL0     C75363   7.892  10.696   3.370 -0.1846  0.4746 -0.5541
  559MOL0     C75364   7.834  10.830   3.395 -0.5143 -0.1850 -0.5474
  559MOL0     O75365   7.866  10.950   3.332 -0.2720 -0.8044 -0.3162
  559MOL0     C75366   7.995  10.953   3.268  1.0998 -0.1486 -0.1424
  559MOL0     C75367   8.037  11.103   3.238  0.2337  0.1492  0.3448
  559MOL0     C75368   7.949  11.139   3.123  0.1916  0.6855  0.2279
  559MOL0     C75369   7.966  11.291   3.117  0.2408  0.0489  0.2779
  559MOL0     C75370   7.875  11.351   3.001 -0.4524  0.4818 -0.4184
  559MOL0     C75371   7.895  11.495   2.953 -0.0691  0.1160 -0.2326
  559MOL0     C75372   8.016  11.498   2.872 -0.0055  0.5551  0.0175
  559MOL0     C75373   8.036  11.621   2.781  0.5772  0.0329  0.7067
  559MOL0    Cl75374   8.210  11.645   2.734  0.0479 -0.3084  0.0583
  559MOL0     C75375   7.740  10.841   3.497  0.0663  0.7816 -0.8934
  559MOL0     C75376   7.700  10.728   3.566  0.5198 -0.0972  0.2939
  559MOL0     O75377   7.750  10.563   3.828  0.3168  0.9059  0.7598
  559MOL0     C75378   7.512  10.311   3.726 -0.6283 -0.6494  0.1072
  559MOL0     C75379   7.432  10.206   3.778 -0.1887  0.0787  0.0203
  559MOL0     N75380   6.913   9.784   4.241  0.6594 -0.6955 -0.3280
  559MOL0     N75381   6.809   9.745   4.309 -0.6623  0.3582  0.0660
  559MOL0     C75382   6.311   9.273   5.374 -0.4758  0.3037  0.4374
  559MOL0     C75383   6.241   9.195   5.456 -0.5345  0.6920  0.0457
  559MOL0     C75384   6.022   9.139   5.886  0.4271 -0.0141 -1.3615
  559MOL0     C75385   6.083   9.011   5.910 -0.4966  0.3203  1.1944
  559MOL0     C75386   6.094   8.951   6.044 -0.1525 -0.0793 -0.6815
  559MOL0     C75387   6.043   9.032   6.149 -0.1902  0.7477  0.2806
  559MOL0     O75388   6.037   8.971   6.272 -0.2700 -0.0771 -0.2739
  559MOL0     C75389   6.164   8.933   6.328  0.8455  0.1493  0.0380
  559MOL0     C75390   6.133   8.919   6.482  0.0071 -0.5215 -0.7259
  559MOL0     C75391   6.264   8.907   6.550 -0.1281  0.1803  0.2103
  559MOL0     C75392   6.246   8.911   6.708  0.9266 -0.6691  0.2156
  559MOL0     C75393   6.360   8.854   6.783  0.4553 -0.6731 -0.0280
  559MOL0     C75394   6.459   8.814   6.835  0.1745  0.4449 -0.5401
  559MOL0     C75395   5.985   9.150   6.129 -0.4860 -0.5861  1.8879
  559MOL0     C75396   5.985   9.217   6.001 -0.0346  0.6399  0.2925
  559MOL0     C75397   5.958   9.365   5.994  0.8190 -0.7116 -0.3727
  559MOL0     H75398   6.104   9.434   5.660 -0.6313  0.0676 -0.7017
  559MOL0     H75399   6.234   9.575   5.508 -1.6808 -0.5160  0.0477
  559MOL0     H75400   6.498   9.384   5.184  0.6357  0.5711 -0.2719
  559MOL0     H75401   6.336   9.442   5.123  0.7271  0.8151 -1.4178
  559MOL0     H75402   6.582   9.611   5.192  1.2891 -1.2801  0.0273
  559MOL0     H75403   6.431   9.678   5.131 -5.7289 -2.9818  2.7334
  559MOL0     H75404   6.611   9.490   4.959  3.6874  1.2612  1.5771
  559MOL0     H75405   6.622   9.670   4.962 -0.9964 -0.1908 -1.5606
  559MOL0     H75406   6.369   9.511   4.894 -2.2160  2.2550  0.1399
  559MOL0     H75407   6.381   9.684   4.872 -0.4019  0.1131 -1.4236
  559MOL0     H75408   6.572   9.500   4.722 -0.0269 -0.9997  1.9894
  559MOL0     H75409   6.409   9.549   4.680  0.3131  1.1949  0.5027
  559MOL0     H75410   6.461   9.784   4.688  0.0048  0.5394 -0.4355
  559MOL0     H75411   6.632   9.755   4.728 -0.6860  1.3460  0.7657
  559MOL0     H75412   6.508   9.665   4.454  0.7852  0.9882 -3.1509
  559MOL0     H75413   6.665   9.629   4.524  0.2665  1.8138  0.0142
  559MOL0     H75414   6.542   9.846   4.397 -0.9798  0.9201  1.3408
  559MOL0     H75415   6.632   9.910   4.543 -1.8896 -0.2106  0.8892
  559MOL0     H75416   6.850  10.033   4.443  2.0804  1.0191 -0.6482
  559MOL0     H75417   7.116  10.028   4.379  5.8222  0.8149 -0.6552
  559MOL0     H75418   7.157   9.892   4.273  0.0398  0.6209  2.1550
  559MOL0     H75419   7.059  10.030   4.070 -0.7120  2.8286 -0.5901
  559MOL0     H75420   7.002  10.141   4.197  0.0332 -0.2913 -0.0870
  559MOL0     H75421   7.262  10.152   4.271 -1.5926  1.4348  1.4211
  559MOL0     H75422   7.212  10.227   4.121 -0.9722  0.4228  0.7132
  559MOL0     H75423   7.281   9.938   4.104 -3.6623  0.9635  1.9004
  559MOL0     H75424   7.420  10.043   4.144 -0.9843  0.8467  1.7373
  559MOL0     H75425   7.536  10.200   4.090  0.4174 -0.9787 -0.7440
  559MOL0     H75426   7.667  10.405   4.014  1.5523 -1.8846 -0.2239
  559MOL0     H75427   7.874  10.481   3.422  3.9704 -0.8528  4.9151
  559MOL0     H75428   7.972  10.691   3.297  0.1870 -0.4259 -0.0969
  559MOL0     H75429   8.078  10.921   3.332  1.7314  0.1620 -0.8013
  559MOL0     H75430   7.992  10.885   3.183 -2.6710 -0.2263 -0.1239
  559MOL0     H75431   8.022  11.162   3.328  0.7882  0.9773 -0.0930
  559MOL0     H75432   8.142  11.095   3.205  0.4355  0.1208  0.9864
  559MOL0     H75433   7.978  11.113   3.021 -2.4393  1.2567 -0.7272
  559MOL0     H75434   7.849  11.099   3.140  1.3152 -2.4866  0.2012
  559MOL0     H75435   8.068  11.321   3.096  0.5026 -1.5312 -0.9217
  559MOL0     H75436   7.935  11.342   3.209  1.2019  6.3292 -2.3882
  559MOL0     H75437   7.773  11.350   3.042 -0.3965 -0.3001 -0.2859
  559MOL0     H75438   7.884  11.280   2.920  0.3507  0.3729 -0.2399
  559MOL0     H75439   7.806  11.517   2.892  0.0120  0.9131 -0.0692
  559MOL0     H75440   7.912  11.572   3.029  1.5396  1.9404 -2.3161
  559MOL0     H75441   8.018  11.409   2.808  2.5844  0.9807 -0.6169
  559MOL0     H75442   8.096  11.494   2.948 -0.5171 -0.8240  0.5216
  559MOL0     H75443   7.983  11.606   2.687 -1.6619 -0.7602  2.0153
  559MOL0     H75444   7.990  11.706   2.834 -4.4524 -2.4256  0.8696
  559MOL0     H75445   7.712  10.943   3.521  1.2754  0.7585  0.8461
  559MOL0     H75446   7.620  10.760   3.632 -1.4405  1.6572 -2.7404
  559MOL0     H75447   7.520  10.334   3.621 -0.5902 -0.2614  0.1935
  559MOL0     H75448   7.378  10.139   3.711  0.7052  0.7084 -1.3734
  559MOL0     H75449   6.350   9.245   5.277 -0.3810 -0.1146  0.5928
  559MOL0     H75450   6.243   9.087   5.443  0.3636  0.3609  2.4158
  559MOL0     H75451   6.138   8.963   5.830  2.1291 -0.3455  3.2691
  559MOL0     H75452   6.126   8.849   6.061 -0.6455  0.1178  1.8238
  559MOL0     H75453   6.246   9.003   6.308  0.9229 -0.7192 -3.3425
  559MOL0     H75454   6.195   8.835   6.291 -2.4811 -1.5999  1.4696
  559MOL0     H75455   6.056   8.843   6.498  0.4651 -1.1698 -1.5150
  559MOL0     H75456   6.097   9.020   6.505  0.5892 -0.1305 -1.4802
  559MOL0     H75457   6.335   8.982   6.515  1.1750 -1.8551 -1.7956
  559MOL0     H75458   6.312   8.812   6.525 -1.9920 -0.9957  0.9137
  559MOL0     H75459   6.234   9.010   6.752 -4.6026 -1.6621  1.7405
  559MOL0     H75460   6.145   8.874   6.732 -0.4768  2.6345 -0.1256
  559MOL0     H75461   6.553   8.770   6.863 -0.7898 -2.2036 -1.2446
  559MOL0     H75462   5.938   9.198   6.213  0.6167 -1.2241  2.8991
  559MOL0     H75463   6.002   9.407   6.085 -1.9906 -1.3974  1.4403
  559MOL0     H75464   6.001   9.412   5.905 -2.6757  0.9752 -1.3862
  559MOL0     H75465   5.851   9.388   5.986  0.1666 -3.1109  0.6941
  560MOL0     O75466   8.333   0.445   3.800 -0.0683 -0.1985 -0.1598
  560MOL0     C75467   8.418   0.442   3.890  0.6725 -0.0420  0.4285
  560MOL0     O75468   8.408   0.371   4.006  0.5486  0.3411  0.2604
  560MOL0     C75469   8.310   0.272   4.020 -0.1608 -0.4122  1.2014
  560MOL0     C75470   8.210   0.296   4.110 -0.2343  0.5305 -0.5203
  560MOL0     C75471   8.099   0.212   4.133 -0.1208 -0.7936 -0.3884
  560MOL0     C75472   8.102   0.085   4.061  0.1669 -0.0642 -0.3633
  560MOL0     O75473   7.994  -0.003   4.075  0.0900 -0.2198  0.1612
  560MOL0     C75474   7.997  -0.136   4.008 -0.8096  0.3854  0.5284
  560MOL0     C75475   7.873  -0.217   4.044 -0.1923 -0.2722  0.4726
  560MOL0     C75476   7.748  -0.141   3.988  1.0184 -0.1665  0.5082
  560MOL0     C75477   7.710  -0.156   3.835  0.2451  0.8395  0.4572
  560MOL0     C75478   7.682  -0.299   3.783  0.8287  0.1758 -0.8157
  560MOL0     C75479   7.572  -0.364   3.877 -0.3018 -0.4842  0.5553
  560MOL0     C75480   7.512  -0.480   3.804 -0.9360 -0.3026 -0.6887
  560MOL0     C75481   7.403  -0.440   3.711  0.1538 -0.0871  1.1643
  560MOL0     N75482   7.382  -0.557   3.618  0.5584 -0.7184 -0.3245
  560MOL0     C75483   7.330  -0.675   3.656  0.0648 -0.8729  0.7293
  560MOL0     C75484   7.344  -0.755   3.551 -0.0765 -0.6739 -0.2230
  560MOL0     C75485   7.320  -0.904   3.548 -0.1026  0.8252  0.2609
  560MOL0     C75486   7.200  -0.961   3.464 -0.0310 -0.0913 -0.7469
  560MOL0     C75487   7.244  -1.066   3.354 -0.3844 -1.0746 -0.8303
  560MOL0     C75488   7.311  -0.986   3.242  0.6657  0.8525 -0.2500
  560MOL0     O75489   7.379  -1.078   3.152  0.1336 -0.1104  0.7032
  560MOL0     C75490   7.309  -1.116   3.038  0.0835  0.1337 -0.6769
  560MOL0     C75491   7.167  -1.120   3.027 -0.4651 -0.3796 -0.3785
  560MOL0     C75492   7.099  -1.179   2.928 -1.6478  0.3031  0.6096
  560MOL0     C75493   7.174  -1.248   2.830  0.5342 -0.8297 -0.2822
  560MOL0     C75494   7.107  -1.312   2.720  0.3050  0.8544  0.3009
  560MOL0     O75495   6.972  -1.291   2.712 -0.3041  0.0606 -0.2843
  560MOL0     C75496   6.910  -1.307   2.594  0.6888  0.4424  0.4544
  560MOL0     C75497   6.769  -1.311   2.598  1.0085 -0.2190 -0.7699
  560MOL0     C75498   6.701  -1.309   2.479 -0.2805  0.6169 -0.7547
  560MOL0     C75499   6.768  -1.302   2.361  0.4945 -0.4358 -0.5508
  560MOL0     O75500   6.701  -1.302   2.238  0.1562 -0.0056 -0.3829
  560MOL0     C75501   6.660  -1.433   2.199 -0.4350 -0.1070  0.9196
  560MOL0     C75502   6.609  -1.437   2.054 -0.9369  0.5811 -0.5915
  560MOL0     C75503   6.711  -1.375   1.958  0.1846  0.3544 -0.5147
  560MOL0     C75504   6.692  -1.376   1.810  0.7771  0.0074  0.7279
  560MOL0     C75505   6.822  -1.332   1.724  1.0479  0.2945 -0.2939
  560MOL0     C75506   6.781  -1.332   1.575  1.2345 -0.1487 -0.3003
  560MOL0     C75507   6.875  -1.269   1.474  0.2558  0.8821  0.0089
  560MOL0     C75508   6.804  -1.250   1.346 -0.6462  0.4949  0.2621
  560MOL0    Cl75509   6.906  -1.130   1.260  0.1178 -0.0539 -0.1638
  560MOL0     C75510   6.901  -1.300   2.357  0.1005 -0.1935  0.3223
  560MOL0     C75511   6.974  -1.290   2.470 -0.1791 -0.3225  0.6833
  560MOL0     O75512   7.171  -1.398   2.663  0.6588  0.4628  0.2548
  560MOL0     C75513   7.309  -1.241   2.833 -0.4731  1.1301 -0.9287
  560MOL0     C75514   7.378  -1.179   2.936  0.8506 -0.4449  0.0174
  560MOL0     N75515   7.390  -0.670   3.447 -0.6185  0.2534 -0.8337
  560MOL0     N75516   7.428  -0.557   3.485  1.0435  0.4844 -0.5324
  560MOL0     C75517   8.197   0.061   3.966 -0.2389  0.3158 -0.2674
  560MOL0     C75518   8.309   0.149   3.954  0.1420  0.6317 -0.7416
  560MOL0     C75519   8.538   0.524   3.879  0.7700 -1.3257  0.0918
  560MOL0     C75520   8.533   0.655   3.824  0.3341 -1.0234 -0.2066
  560MOL0     C75521   8.639   0.738   3.810 -0.6432  0.1522  0.8501
  560MOL0     C75522   8.762   0.685   3.846 -1.2410  0.6799  1.1440
  560MOL0     O75523   8.867   0.764   3.805  0.3508 -0.3656 -0.3070
  560MOL0     C75524   9.004   0.717   3.832 -1.1094  1.1246 -0.4143
  560MOL0     C75525   9.056   0.633   3.714 -0.5311 -0.4142  0.4532
  560MOL0     C75526   9.072   0.705   3.584 -0.5534 -0.5561 -1.1146
  560MOL0     C75527   9.111   0.605   3.470 -0.3697  0.6673 -0.9076
  560MOL0     C75528   9.059   0.673   3.347 -1.0186 -0.0476  0.1558
  560MOL0     C75529   9.008   0.715   3.246  0.1542  0.2445  0.1207
  560MOL0     C75530   8.777   0.560   3.906  1.3257  0.3851  1.2264
  560MOL0     C75531   8.664   0.478   3.915 -0.0987  0.5058 -0.0582
  560MOL0     C75532   8.705   0.332   3.948  0.2620  0.5728  0.5968
  560MOL0     H75533   8.221   0.390   4.165 -1.9098  0.5009 -0.0992
  560MOL0     H75534   8.027   0.243   4.209  1.8350  2.5452  0.3036
  560MOL0     H75535   8.007  -0.138   3.899 -0.7524 -2.8018  0.4932
  560MOL0     H75536   8.073  -0.200   4.055  0.3172  0.8362 -0.6025
  560MOL0     H75537   7.856  -0.233   4.151  1.1701 -0.2940  0.7067
  560MOL0     H75538   7.870  -0.315   3.996  0.8185  1.0989 -2.6121
  560MOL0     H75539   7.762  -0.035   4.008 -1.0175  0.1140  0.6589
  560MOL0     H75540   7.661  -0.163   4.050  0.6512  2.3482  0.9844
  560MOL0     H75541   7.627  -0.089   3.811  0.2473 -0.3506 -3.4687
  560MOL0     H75542   7.778  -0.106   3.766 -1.8145 -0.6923 -2.9681
  560MOL0     H75543   7.636  -0.285   3.685 -2.7038  3.6129  1.0131
  560MOL0     H75544   7.774  -0.357   3.789  2.1033  2.2304  2.7221
  560MOL0     H75545   7.622  -0.395   3.969 -2.4628 -0.9291  1.6572
  560MOL0     H75546   7.495  -0.290   3.899 -0.1864 -0.1110 -0.2441
  560MOL0     H75547   7.477  -0.551   3.879  1.3571  0.1277  0.9075
  560MOL0     H75548   7.600  -0.526   3.758 -0.3519 -0.8073  0.8589
  560MOL0     H75549   7.311  -0.412   3.762 -0.7436  1.7361 -1.2468
  560MOL0     H75550   7.444  -0.361   3.647 -2.5770 -0.3122 -1.0791
  560MOL0     H75551   7.300  -0.700   3.757  1.8190 -0.4421  1.4072
  560MOL0     H75552   7.414  -0.958   3.534  0.1443  0.1385  3.8195
  560MOL0     H75553   7.296  -0.933   3.651  5.6001  0.2691  1.7311
  560MOL0     H75554   7.134  -1.011   3.536  0.8748  0.4674  0.4986
  560MOL0     H75555   7.138  -0.878   3.429 -1.3784 -1.3830 -1.5484
  560MOL0     H75556   7.159  -1.122   3.313 -0.8538 -2.1467  1.4879
  560MOL0     H75557   7.309  -1.145   3.391 -4.0682 -3.0083  2.1557
  560MOL0     H75558   7.383  -0.914   3.281 -0.0475  1.6385 -0.3599
  560MOL0     H75559   7.234  -0.927   3.192 -2.1802 -1.6677  0.8245
  560MOL0     H75560   7.112  -1.069   3.106 -1.0608 -2.6892  0.7733
  560MOL0     H75561   6.992  -1.170   2.937 -1.6523 -1.4237  3.1276
  560MOL0     H75562   6.722  -1.315   2.696  2.7804  0.6639  0.1678
  560MOL0     H75563   6.593  -1.304   2.470 -0.3755 -1.5693 -1.3129
  560MOL0     H75564   6.744  -1.504   2.202  0.5989  0.7973 -2.0738
  560MOL0     H75565   6.583  -1.460   2.271 -0.9622  1.0185  0.7979
  560MOL0     H75566   6.611  -1.545   2.035  6.6314  0.2467 -0.9287
  560MOL0     H75567   6.507  -1.399   2.040 -0.1477  3.6394  1.0327
  560MOL0     H75568   6.714  -1.268   1.981 -3.2509  0.1625  1.3915
  560MOL0     H75569   6.810  -1.422   1.967  0.8511  1.2029 -2.6685
  560MOL0     H75570   6.601  -1.319   1.788  0.8965 -0.0437  0.0578
  560MOL0     H75571   6.686  -1.481   1.777  2.3034 -1.0325  3.4412
  560MOL0     H75572   6.904  -1.404   1.734 -0.3167 -1.1534  1.0380
  560MOL0     H75573   6.856  -1.235   1.762  0.4880 -1.0597  4.2898
  560MOL0     H75574   6.772  -1.436   1.541  1.5541  0.7104 -3.3681
  560MOL0     H75575   6.692  -1.269   1.569  2.1423  1.1263 -0.5317
  560MOL0     H75576   6.963  -1.333   1.466  0.3555  0.7784  1.4939
  560MOL0     H75577   6.907  -1.170   1.508 -1.1915  0.4485  2.9921
  560MOL0     H75578   6.787  -1.343   1.291  0.4440  1.7365 -2.3306
  560MOL0     H75579   6.707  -1.201   1.361  0.3176  2.5978 -0.0931
  560MOL0     H75580   6.944  -1.288   2.258 -1.2851 -0.3230 -0.3181
  560MOL0     H75581   7.082  -1.278   2.464 -0.0613 -1.8596 -1.5180
  560MOL0     H75582   7.371  -1.275   2.750  0.3193 -0.1167  0.1401
  560MOL0     H75583   7.486  -1.175   2.927  0.8126 -1.6746 -1.1859
  560MOL0     H75584   8.197  -0.035   3.915  0.1528 -2.2199  3.9498
  560MOL0     H75585   8.397   0.132   3.892 -0.4604 -4.1370 -0.6812
  560MOL0     H75586   8.434   0.685   3.790 -0.4661 -0.1787  2.6293
  560MOL0     H75587   8.626   0.832   3.758  0.8981 -1.1043 -2.0616
  560MOL0     H75588   9.009   0.663   3.927  1.2282 -1.0842 -1.6788
  560MOL0     H75589   9.061   0.809   3.848  0.3726  0.5756 -2.2337
  560MOL0     H75590   8.990   0.547   3.698  0.9569 -1.4310 -0.3647
  560MOL0     H75591   9.156   0.599   3.742 -0.3730 -0.8423 -0.5988
  560MOL0     H75592   9.155   0.775   3.597 -0.0370 -1.2547 -0.5954
  560MOL0     H75593   8.981   0.755   3.549  0.4138  2.1815 -0.0046
  560MOL0     H75594   9.217   0.579   3.464  0.8392  5.0827 -2.4085
  560MOL0     H75595   9.059   0.510   3.485  2.6111 -1.0293 -0.6910
  560MOL0     H75596   8.970   0.765   3.159 -0.1703  1.2433  0.8184
  560MOL0     H75597   8.871   0.510   3.927  3.2676  2.0051 -2.5905
  560MOL0     H75598   8.813   0.312   3.947 -0.1688 -3.3197  3.8200
  560MOL0     H75599   8.673   0.304   4.048 -1.8015 -0.8444 -0.3944
  560MOL0     H75600   8.661   0.269   3.870  2.3193  1.5248 -1.4845
  561MOL0     O75601   3.028   9.162   1.435  0.0727 -0.0019  0.2606
  561MOL0     C75602   3.136   9.121   1.482  0.5027 -0.0987  0.8740
  561MOL0     O75603   3.211   9.170   1.583 -0.4599 -0.1060 -0.0472
  561MOL0     C75604   3.150   9.256   1.679 -0.2223 -0.3435 -0.2583
  561MOL0     C75605   3.011   9.310   1.685 -0.0073  0.1604 -0.2339
  561MOL0     C75606   2.985   9.417   1.773  0.0601  0.3312 -0.0638
  561MOL0     C75607   3.073   9.451   1.876  0.0687 -0.6576 -0.6829
  561MOL0     O75608   3.054   9.537   1.987  0.3928 -0.0630  0.2553
  561MOL0     C75609   2.930   9.598   2.024  0.2591 -0.1793  0.0836
  561MOL0     C75610   2.913   9.599   2.177 -1.2403  0.5446 -0.1849
  561MOL0     C75611   3.031   9.658   2.256  0.2238  0.0043  0.8802
  561MOL0     C75612   3.007   9.727   2.389 -0.8256 -0.3794 -0.2364
  561MOL0     C75613   3.140   9.768   2.459  0.3152  0.0202  1.5835
  561MOL0     C75614   3.137   9.898   2.522 -0.4463 -0.4109  0.1529
  561MOL0     C75615   3.282   9.953   2.535  0.0678  0.3502 -0.1448
  561MOL0     C75616   3.294  10.061   2.647 -0.6352 -0.1651  0.7161
  561MOL0     N75617   3.431  10.099   2.652  0.5180 -0.3143  0.0102
  561MOL0     C75618   3.490  10.188   2.567  0.2457 -0.2937 -0.0092
  561MOL0     C75619   3.612  10.208   2.623 -0.5674  0.0746  0.3576
  561MOL0     C75620   3.734  10.280   2.574  0.4534  0.5524  0.8428
  561MOL0     C75621   3.741  10.408   2.660 -0.5819  0.0758 -0.0725
  561MOL0     C75622   3.874  10.493   2.628 -0.0233  0.4823 -0.8619
  561MOL0     C75623   3.830  10.625   2.568  0.3019 -0.4867  0.0815
  561MOL0     O75624   3.764  10.618   2.443  0.3984  0.5049 -0.9412
  561MOL0     C75625   3.681  10.716   2.410  0.5962 -0.3134  0.1814
  561MOL0     C75626   3.705  10.848   2.428  0.4074 -0.5588  0.3896
  561MOL0     C75627   3.614  10.950   2.381 -0.3667 -0.7984 -0.6445
  561MOL0     C75628   3.482  10.924   2.340 -0.0543  0.6313 -1.3468
  561MOL0     C75629   3.393  11.024   2.300 -0.2171 -0.4736 -0.7003
  561MOL0     O75630   3.423  11.147   2.341 -0.2790 -0.4152  0.3918
  561MOL0     C75631   3.327  11.247   2.341 -0.6388 -0.3306  0.8908
  561MOL0     C75632   3.293  11.311   2.216 -1.1856  0.4677  0.8259
  561MOL0     C75633   3.199  11.413   2.212  0.7580  0.0985  0.0849
  561MOL0     C75634   3.135  11.444   2.331  1.2988 -0.0167 -1.1516
  561MOL0     O75635   3.042  11.549   2.318 -0.2971 -0.0598  0.0830
  561MOL0     C75636   3.027  11.649   2.419 -0.1101  1.5492  0.1149
  561MOL0     C75637   3.002  11.783   2.355  0.6702  0.2094 -0.1639
  561MOL0     C75638   3.128  11.842   2.292 -0.1543 -0.4028  0.2027
  561MOL0     C75639   3.091  11.950   2.199  0.6443  0.5431 -0.2702
  561MOL0     C75640   3.200  12.001   2.115  0.0264 -0.9358  1.3384
  561MOL0     C75641   3.177  12.126   2.019 -0.6826  0.5684  0.2675
  561MOL0     C75642   3.304  12.145   1.933  0.1782  0.2721 -0.0957
  561MOL0     C75643   3.298  12.285   1.866 -0.1228  0.6045 -0.3151
  561MOL0    Cl75644   3.409  12.281   1.733  0.0762  0.2582 -0.1145
  561MOL0     C75645   3.157  11.368   2.453 -0.7212  0.3919 -0.2871
  561MOL0     C75646   3.271  11.272   2.459  0.0674 -0.3846  0.4651
  561MOL0     O75647   3.289  11.001   2.238  0.3658  0.7876  0.0162
  561MOL0     C75648   3.459  10.787   2.328 -0.4472 -0.1753 -0.2374
  561MOL0     C75649   3.550  10.688   2.366  0.6500  0.8258 -0.4501
  561MOL0     N75650   3.627  10.132   2.740 -0.4576  0.3907  0.5784
  561MOL0     N75651   3.515  10.059   2.746 -0.8828  0.0872 -0.2125
  561MOL0     C75652   3.201   9.397   1.876  0.6249  0.1399 -0.8330
  561MOL0     C75653   3.239   9.313   1.772  0.8319 -0.5208  0.4512
  561MOL0     C75654   3.191   9.001   1.412  0.1402 -0.0358  0.7581
  561MOL0     C75655   3.262   8.902   1.483 -0.0014  0.0744 -0.5206
  561MOL0     C75656   3.322   8.793   1.424  0.1267 -0.2015  0.5518
  561MOL0     C75657   3.314   8.783   1.288  0.2172 -0.0153  0.3097
  561MOL0     O75658   3.357   8.666   1.229  0.1865  0.0846  0.1110
  561MOL0     C75659   3.483   8.678   1.166  0.8586  0.5080  0.4055
  561MOL0     C75660   3.601   8.624   1.249 -0.6623  0.1981  0.4783
  561MOL0     C75661   3.618   8.476   1.247 -0.5167  0.7416 -0.4040
  561MOL0     C75662   3.507   8.397   1.320 -0.0762 -1.0573 -0.4600
  561MOL0     C75663   3.573   8.278   1.382 -0.3902  0.3456  0.6273
  561MOL0     C75664   3.623   8.191   1.445  0.3744  0.7973 -0.2252
  561MOL0     C75665   3.241   8.873   1.215 -0.1711  0.7760  0.5236
  561MOL0     C75666   3.184   8.981   1.273  0.2444 -0.2771  1.0356
  561MOL0     C75667   3.115   9.073   1.180  0.3349 -0.0548 -0.0781
  561MOL0     H75668   2.933   9.268   1.623  0.4881 -3.6073  1.4603
  561MOL0     H75669   2.889   9.464   1.756 -0.5918 -1.1385 -0.6393
  561MOL0     H75670   2.931   9.700   1.983 -1.6818  0.0974  0.6218
  561MOL0     H75671   2.850   9.544   1.973 -1.7526  1.7346  1.0343
  561MOL0     H75672   2.888   9.500   2.218  0.6228 -1.3047 -3.1791
  561MOL0     H75673   2.839   9.677   2.199 -1.5000  0.1122  0.5081
  561MOL0     H75674   3.086   9.721   2.187 -1.2899 -0.8791 -1.2378
  561MOL0     H75675   3.092   9.570   2.279 -0.5563 -1.1266 -1.1395
  561MOL0     H75676   2.943   9.814   2.368  0.1277  1.2282  2.9378
  561MOL0     H75677   2.943   9.670   2.456 -0.6794 -0.0077  0.2230
  561MOL0     H75678   3.171   9.693   2.532 -0.3814  0.6596  2.5677
  561MOL0     H75679   3.213   9.768   2.378 -2.4757  0.5259 -1.1086
  561MOL0     H75680   3.071   9.976   2.483 -0.8458 -1.2853 -0.9725
  561MOL0     H75681   3.098   9.890   2.624 -0.8668  0.6816  0.0855
  561MOL0     H75682   3.320   9.992   2.440  0.3017  0.3940 -0.0338
  561MOL0     H75683   3.343   9.866   2.562  0.5017  0.9059  0.7009
  561MOL0     H75684   3.240  10.150   2.613  1.5907  0.7285 -0.7009
  561MOL0     H75685   3.254  10.021   2.740  0.4888  0.6115  1.5569
  561MOL0     H75686   3.431  10.226   2.485 -0.9056  0.2309  1.0231
  561MOL0     H75687   3.819  10.216   2.599 -0.1331 -0.9341 -0.7837
  561MOL0     H75688   3.732  10.311   2.469 -0.0481  2.4222  1.3657
  561MOL0     H75689   3.652  10.465   2.634  2.1156  4.0150 -1.7285
  561MOL0     H75690   3.748  10.387   2.767 -0.6167  2.2971  0.4079
  561MOL0     H75691   3.943  10.450   2.555  2.4123 -0.1500  1.6425
  561MOL0     H75692   3.927  10.510   2.721  0.8785  1.6669 -1.5586
  561MOL0     H75693   3.917  10.688   2.550 -1.0727  0.9542 -2.0092
  561MOL0     H75694   3.767  10.673   2.644  0.3588  0.1077 -0.2444
  561MOL0     H75695   3.799  10.882   2.472  0.3770 -1.0872  0.8730
  561MOL0     H75696   3.639  11.056   2.383  0.2306 -0.9333 -0.8224
  561MOL0     H75697   3.350  11.292   2.125  0.0805  0.4418  1.5919
  561MOL0     H75698   3.189  11.460   2.115  1.5038 -0.8280 -0.4637
  561MOL0     H75699   2.943  11.622   2.484 -0.1069 -0.4740 -0.6734
  561MOL0     H75700   3.120  11.645   2.478  1.0718 -0.9526 -1.7540
  561MOL0     H75701   2.921  11.759   2.285 -3.2731  3.1801  2.9164
  561MOL0     H75702   2.961  11.848   2.433 -0.8517  1.4965 -1.9347
  561MOL0     H75703   3.188  11.888   2.371 -1.9644  1.8274  0.3910
  561MOL0     H75704   3.181  11.762   2.241 -1.0086 -0.8786  0.0309
  561MOL0     H75705   3.054  12.027   2.266  2.0668 -0.7087  2.1255
  561MOL0     H75706   3.005  11.924   2.137 -0.2058  0.0427  1.0794
  561MOL0     H75707   3.216  11.928   2.036  4.2286  1.7999 -0.7090
  561MOL0     H75708   3.291  12.004   2.176  1.2695  0.4551 -0.4905
  561MOL0     H75709   3.089  12.097   1.961  0.5412  1.3674 -2.0847
  561MOL0     H75710   3.155  12.221   2.068 -1.4694  0.4551  0.1488
  561MOL0     H75711   3.326  12.067   1.859  0.5492 -1.0428  1.3400
  561MOL0     H75712   3.393  12.132   1.995  0.2360  0.4800 -0.1363
  561MOL0     H75713   3.197  12.296   1.825 -0.0864  4.0079  0.2761
  561MOL0     H75714   3.304  12.374   1.930  0.6247  1.5241 -1.6320
  561MOL0     H75715   3.103  11.399   2.542  0.6851  1.4285  0.2446
  561MOL0     H75716   3.308  11.220   2.547  1.7330  0.5482  0.3668
  561MOL0     H75717   3.361  10.768   2.285 -1.5497  2.3707  0.9708
  561MOL0     H75718   3.527  10.582   2.355 -1.2106  1.0921  0.5845
  561MOL0     H75719   3.276   9.424   1.949 -1.1907  2.1919  0.4016
  561MOL0     H75720   3.341   9.276   1.769  1.6825  1.6070  1.3433
  561MOL0     H75721   3.265   8.906   1.592 -2.5560 -1.3458 -0.3164
  561MOL0     H75722   3.379   8.721   1.481 -1.3103 -0.0958  2.1943
  561MOL0     H75723   3.495   8.781   1.133  0.6176 -0.5066 -3.2650
  561MOL0     H75724   3.482   8.623   1.072  1.5175  1.6858 -0.3110
  561MOL0     H75725   3.590   8.668   1.348  0.1618  0.5820  0.4053
  561MOL0     H75726   3.693   8.670   1.212 -0.9050  1.9538  1.8942
  561MOL0     H75727   3.717   8.456   1.290 -0.6689  1.0640  0.1102
  561MOL0     H75728   3.624   8.437   1.145 -1.1118 -1.7954  0.4584
  561MOL0     H75729   3.462   8.468   1.390 -0.2769 -1.6545  0.0260
  561MOL0     H75730   3.428   8.361   1.254 -1.9094  0.1358  0.9628
  561MOL0     H75731   3.690   8.117   1.483 -2.5876 -1.1298  1.6533
  561MOL0     H75732   3.220   8.850   1.111 -1.5087  4.5249 -0.1906
  561MOL0     H75733   3.134   9.065   1.073  0.1681 -1.1726 -0.0438
  561MOL0     H75734   3.009   9.050   1.189  0.0563  1.7809  2.3954
  561MOL0     H75735   3.134   9.179   1.196 -2.9504  0.8747 -1.5132
  562MOL0     O75736   2.680   2.623   8.575 -0.1310  0.3005 -0.8430
  562MOL0     C75737   2.752   2.711   8.615 -0.9416 -0.8157 -1.1351
  562MOL0     O75738   2.849   2.698   8.718  0.3908  0.4181  0.4378
  562MOL0     C75739   2.884   2.575   8.767 -0.1729  0.9251  0.2498
  562MOL0     C75740   2.857   2.442   8.712  0.8823  0.5000 -0.1119
  562MOL0     C75741   2.878   2.323   8.797 -0.2692  0.4604  0.0303
  562MOL0     C75742   2.922   2.345   8.928 -0.0051 -0.7144  0.4655
  562MOL0     O75743   2.927   2.253   9.029 -0.5063 -0.4268 -0.4182
  562MOL0     C75744   2.989   2.131   8.991 -0.5754  0.3798  0.7670
  562MOL0     C75745   3.049   2.052   9.109 -0.2141 -0.4163  0.6638
  562MOL0     C75746   2.925   1.971   9.178 -1.2226  0.2296  0.4591
  562MOL0     C75747   2.802   2.044   9.213 -0.1751  0.4155  0.4000
  562MOL0     C75748   2.700   1.950   9.288 -1.2652 -0.6025 -0.5066
  562MOL0     C75749   2.563   2.016   9.311  0.2058 -0.2493  0.3332
  562MOL0     C75750   2.472   2.040   9.184  0.6540 -0.1624 -0.6820
  562MOL0     C75751   2.351   2.140   9.230  0.5613  0.4270  0.9158
  562MOL0     N75752   2.286   2.113   9.364 -0.3775 -0.3304  0.7378
  562MOL0     C75753   2.335   2.182   9.470 -0.0866  0.2908  0.0022
  562MOL0     C75754   2.269   2.134   9.576  0.6995  1.2940  0.4384
  562MOL0     C75755   2.310   2.172   9.713 -0.1977 -0.5786 -0.0486
  562MOL0     C75756   2.334   2.055   9.811  0.1182 -0.1990  0.2499
  562MOL0     C75757   2.481   2.012   9.833 -0.4270 -0.0270  0.6372
  562MOL0     C75758   2.493   1.910   9.947 -0.6226 -0.2043  0.0542
  562MOL0     O75759   2.457   1.781   9.889 -1.0719  0.0934 -0.5848
  562MOL0     C75760   2.493   1.669   9.949  0.5124 -0.1169  1.2200
  562MOL0     C75761   2.519   1.661  10.083  0.5257  0.7868 -1.2780
  562MOL0     C75762   2.555   1.533  10.138  0.3146 -0.2562 -0.2971
  562MOL0     C75763   2.555   1.419  10.058 -0.9260 -0.0723 -0.2454
  562MOL0     C75764   2.571   1.277  10.118 -1.2162 -0.5488 -0.4141
  562MOL0     O75765   2.507   1.177  10.045 -0.3896  0.6724  0.1866
  562MOL0     C75766   2.518   1.050  10.078  0.4334 -0.0739 -1.0216
  562MOL0     C75767   2.523   0.956   9.981  0.8611 -0.5215 -0.1634
  562MOL0     C75768   2.498   0.820  10.011  0.0970 -1.0654  0.1622
  562MOL0     C75769   2.490   0.782  10.145  0.0645  0.7697  0.5839
  562MOL0     O75770   2.488   0.646  10.181 -0.2393  0.4825 -0.0886
  562MOL0     C75771   2.440   0.545  10.091  0.7778  0.5602  0.0224
  562MOL0     C75772   2.367   0.429  10.146 -0.5298 -0.2533 -0.0539
  562MOL0     C75773   2.234   0.390  10.068  0.0064 -0.5632 -0.5553
  562MOL0     C75774   2.154   0.291  10.153 -0.4391 -0.3093 -0.0247
  562MOL0     C75775   2.023   0.237  10.091 -0.4075 -0.0152  0.2233
  562MOL0     C75776   1.970   0.132  10.187 -0.1526  0.3602  0.5671
  562MOL0     C75777   1.847   0.066  10.127  0.2421  1.3271 -0.6665
  562MOL0     C75778   1.725   0.156  10.114  0.1274 -0.8182 -0.2028
  562MOL0    Cl75779   1.670   0.203  10.268  0.3318  0.2607 -0.1499
  562MOL0     C75780   2.495   0.867  10.252 -0.8029 -0.7080  0.5817
  562MOL0     C75781   2.497   1.003  10.218 -0.0413 -1.0185  0.0709
  562MOL0     O75782   2.632   1.265  10.226 -0.6589 -0.3131 -0.5325
  562MOL0     C75783   2.533   1.434   9.922  0.7212 -1.0125  0.3062
  562MOL0     C75784   2.493   1.561   9.871 -0.1170  0.6743  0.5967
  562MOL0     N75785   2.186   2.032   9.538 -0.4313  0.8079 -0.0230
  562MOL0     N75786   2.200   2.012   9.405  0.2478 -0.2679 -0.1101
  562MOL0     C75787   2.956   2.473   8.978  0.0995  0.8594  1.0439
  562MOL0     C75788   2.937   2.584   8.897  0.3515  0.0606 -0.2769
  562MOL0     C75789   2.746   2.836   8.546  0.1657  0.2987 -0.4906
  562MOL0     C75790   2.661   2.839   8.434  0.5408  0.1968 -0.3346
  562MOL0     C75791   2.653   2.951   8.356  1.4908 -0.5305  0.1890
  562MOL0     C75792   2.721   3.060   8.376 -0.4983  1.5860 -0.3521
  562MOL0     O75793   2.704   3.156   8.284  0.3890 -0.3842  0.0242
  562MOL0     C75794   2.808   3.248   8.253 -0.0209  0.2381 -0.8335
  562MOL0     C75795   2.778   3.328   8.129  0.2108 -0.5867 -0.0681
  562MOL0     C75796   2.740   3.225   8.020  1.1001  0.6913 -0.1961
  562MOL0     C75797   2.718   3.292   7.890  0.9121  0.1072 -0.9482
  562MOL0     C75798   2.606   3.386   7.894  0.0428 -0.0881  0.7341
  562MOL0     C75799   2.532   3.481   7.887  0.5907 -0.3393  0.2282
  562MOL0     C75800   2.813   3.066   8.477 -1.0068 -0.0331 -1.1640
  562MOL0     C75801   2.820   2.952   8.571 -0.4607 -0.1702 -0.4710
  562MOL0     C75802   2.911   2.972   8.691  0.7141 -0.3049  0.6387
  562MOL0     H75803   2.817   2.432   8.612  2.5077  1.5814 -0.9188
  562MOL0     H75804   2.854   2.222   8.765 -0.0780  0.2487  0.5323
  562MOL0     H75805   2.930   2.059   8.933 -1.9946  0.3835  2.1506
  562MOL0     H75806   3.076   2.155   8.929  0.6793 -2.5254  1.2597
  562MOL0     H75807   3.112   2.109   9.178 -3.6236  1.9346  2.1324
  562MOL0     H75808   3.112   1.975   9.064 -0.4137  1.0019 -2.3292
  562MOL0     H75809   2.972   1.928   9.267 -1.1167  1.7183  1.1445
  562MOL0     H75810   2.893   1.897   9.103 -4.4826  2.2171 -0.2994
  562MOL0     H75811   2.819   2.118   9.291 -1.1637  3.7149 -2.2531
  562MOL0     H75812   2.759   2.091   9.124  1.5144  0.3910 -0.4740
  562MOL0     H75813   2.682   1.861   9.228  0.5937  0.1107 -2.2619
  562MOL0     H75814   2.744   1.921   9.384 -1.6818  0.7665  0.1243
  562MOL0     H75815   2.502   1.956   9.379  1.9800 -0.9925  1.3565
  562MOL0     H75816   2.575   2.115   9.356 -0.0492 -0.7251  1.4921
  562MOL0     H75817   2.440   1.941   9.149  1.0095 -0.2970 -0.6361
  562MOL0     H75818   2.525   2.082   9.098 -1.9921  3.6424 -0.6878
  562MOL0     H75819   2.377   2.246   9.226  0.7942  0.3261 -1.0103
  562MOL0     H75820   2.274   2.121   9.155  2.3763  1.5628 -1.3485
  562MOL0     H75821   2.421   2.248   9.476 -1.8197  2.5474  1.5876
  562MOL0     H75822   2.389   2.246   9.724 -0.8708 -0.0400  1.3460
  562MOL0     H75823   2.224   2.225   9.755 -1.3589 -1.4898 -1.1907
  562MOL0     H75824   2.291   2.080   9.909  2.1862  1.9407  0.6946
  562MOL0     H75825   2.266   1.974   9.783 -0.7027 -0.0217  1.6074
  562MOL0     H75826   2.530   2.105   9.863  0.4102  0.2067 -1.3131
  562MOL0     H75827   2.518   1.981   9.735  0.5958 -1.6348  1.4753
  562MOL0     H75828   2.424   1.932  10.029 -0.2889  4.9306 -0.6952
  562MOL0     H75829   2.598   1.913   9.976 -0.6358  0.2201  0.0642
  562MOL0     H75830   2.507   1.751  10.142 -1.8839 -0.2411 -0.0578
  562MOL0     H75831   2.577   1.520  10.243 -1.5453  0.6739  0.2468
  562MOL0     H75832   2.541   0.991   9.880 -0.0528 -0.7465 -0.4135
  562MOL0     H75833   2.493   0.763   9.919 -0.4817  3.1084 -2.6665
  562MOL0     H75834   2.374   0.598  10.022  0.6711 -2.0849 -2.0373
  562MOL0     H75835   2.515   0.495  10.029 -2.4359 -2.6134 -1.7044
  562MOL0     H75836   2.438   0.346  10.136 -1.6647 -1.2675  0.1730
  562MOL0     H75837   2.337   0.430  10.251 -2.2043 -0.4804 -0.5029
  562MOL0     H75838   2.167   0.474  10.047 -0.5078 -0.6078  0.8052
  562MOL0     H75839   2.254   0.336   9.975 -3.0547  1.2061 -2.4253
  562MOL0     H75840   2.141   0.329  10.255  0.2308  1.4610 -0.5737
  562MOL0     H75841   2.220   0.204  10.164 -1.9596 -1.5958 -0.6666
  562MOL0     H75842   2.043   0.189   9.995  0.2185 -2.5977  1.5754
  562MOL0     H75843   1.958   0.324  10.076 -1.8690 -0.8954  1.2257
  562MOL0     H75844   2.043   0.051  10.194  2.7529  2.4166 -2.5986
  562MOL0     H75845   1.941   0.169  10.286  0.3581 -1.5258  1.4673
  562MOL0     H75846   1.813  -0.010  10.197  0.0710  1.2552 -0.8249
  562MOL0     H75847   1.866   0.025  10.027  0.8363 -2.1212  0.7228
  562MOL0     H75848   1.772   0.245  10.069 -0.5523  0.7282  2.0188
  562MOL0     H75849   1.643   0.126  10.048 -0.2354  3.0778 -1.8123
  562MOL0     H75850   2.484   0.820  10.349  1.3032 -1.8205  0.3310
  562MOL0     H75851   2.463   1.045  10.312 -1.8046 -3.7847  0.8138
  562MOL0     H75852   2.534   1.347   9.857  0.7158 -0.3990 -0.5292
  562MOL0     H75853   2.489   1.573   9.764  1.0093 -0.9250  0.3319
  562MOL0     H75854   3.011   2.467   9.071  4.0355  2.9513 -0.9289
  562MOL0     H75855   2.971   2.680   8.935 -1.5250  0.6757 -0.0460
  562MOL0     H75856   2.608   2.750   8.402  1.3245 -0.4208  0.0699
  562MOL0     H75857   2.585   2.955   8.271  1.1743  2.9929  0.4641
  562MOL0     H75858   2.905   3.198   8.263 -0.7473 -0.8538  6.4075
  562MOL0     H75859   2.799   3.307   8.345 -1.7686 -4.1107  2.1720
  562MOL0     H75860   2.862   3.391   8.098 -0.6967 -0.3025 -2.1449
  562MOL0     H75861   2.694   3.394   8.154  0.5182 -1.5387  4.2718
  562MOL0     H75862   2.656   3.158   8.041  1.2130  0.3149 -0.9052
  562MOL0     H75863   2.820   3.150   8.016 -0.7106 -1.5748  2.4180
  562MOL0     H75864   2.806   3.354   7.872 -0.3365  1.4744 -2.7548
  562MOL0     H75865   2.707   3.222   7.806  4.1703  0.4593 -1.8219
  562MOL0     H75866   2.478   3.573   7.892  0.3458 -0.5113  0.7409
  562MOL0     H75867   2.866   3.159   8.498  1.6564 -0.8359 -3.6200
  562MOL0     H75868   2.977   3.059   8.697  0.5276 -0.1950  5.4090
  562MOL0     H75869   2.848   2.987   8.780  2.2176  1.0550  1.5371
  562MOL0     H75870   2.980   2.887   8.687 -0.1080 -0.9875  0.5373
  563MOL0     O75871   7.980   6.457  11.340 -0.2540  0.1055  0.2689
  563MOL0     C75872   8.057   6.374  11.383 -0.1464  0.0077 -0.3603
  563MOL0     O75873   8.143   6.295  11.304  0.2104 -0.5770 -0.5374
  563MOL0     C75874   8.106   6.282  11.171 -0.2905  0.4674  0.3798
  563MOL0     C75875   8.160   6.361  11.071  0.3462 -0.2474  0.4823
  563MOL0     C75876   8.136   6.326  10.930 -0.4637 -0.6488  0.6595
  563MOL0     C75877   8.046   6.228  10.896  0.5231 -0.4124  0.0649
  563MOL0     O75878   8.016   6.179  10.769  0.4311 -0.9732 -0.0349
  563MOL0     C75879   8.058   6.241  10.640 -0.0232  1.2907  0.4460
  563MOL0     C75880   8.010   6.158  10.515 -0.5693 -0.3668 -0.0923
  563MOL0     C75881   7.857   6.133  10.519 -0.4422 -0.2409  0.2408
  563MOL0     C75882   7.824   6.016  10.424 -0.7272  0.9495 -0.3180
  563MOL0     C75883   7.694   5.943  10.476 -1.0555 -1.0532  0.5277
  563MOL0     C75884   7.709   5.864  10.600  0.6041 -0.0113  0.0041
  563MOL0     C75885   7.570   5.821  10.628  1.0168 -0.2283  0.1075
  563MOL0     C75886   7.572   5.719  10.737  0.3036  0.0995 -0.0689
  563MOL0     N75887   7.440   5.659  10.758 -0.2408  0.1059  0.6843
  563MOL0     C75888   7.328   5.712  10.814 -0.5391  0.0734 -0.9822
  563MOL0     C75889   7.231   5.619  10.814 -0.1314  0.3825 -0.9961
  563MOL0     C75890   7.089   5.656  10.866 -0.3294  0.1006 -0.1086
  563MOL0     C75891   7.042   5.584  10.989  0.1296  0.4919 -0.0050
  563MOL0     C75892   7.092   5.435  11.001 -0.0397  0.4854  0.6592
  563MOL0     C75893   7.045   5.362  11.133 -0.7023 -0.3971  0.4239
  563MOL0     O75894   7.082   5.445  11.242 -0.3912 -0.0263  0.1852
  563MOL0     C75895   7.099   5.384  11.360  0.4300  0.2840 -0.5437
  563MOL0     C75896   6.991   5.305  11.410  0.1090 -0.8514 -0.3016
  563MOL0     C75897   7.002   5.239  11.541  0.9462  0.1457  0.0955
  563MOL0     C75898   7.096   5.284  11.642  0.8604 -0.2140  0.9733
  563MOL0     C75899   7.102   5.217  11.768 -0.4072 -0.8612 -0.7990
  563MOL0     O75900   7.016   5.115  11.804  0.6790 -0.2426 -0.0838
  563MOL0     C75901   6.975   5.104  11.936 -0.5161  0.1513  0.2537
  563MOL0     C75902   7.021   5.166  12.061 -0.2797  0.0147 -0.0881
  563MOL0     C75903   6.965   5.140  12.186 -0.1979  0.9175  0.1145
  563MOL0     C75904   6.851   5.072  12.195 -0.0570  0.3919  0.2730
  563MOL0     O75905   6.790   5.016  12.304  0.4375 -0.6103  0.7203
  563MOL0     C75906   6.879   4.924  12.380  1.2221 -1.4862  0.1987
  563MOL0     C75907   6.797   4.871  12.508 -0.8520 -0.5557  0.0457
  563MOL0     C75908   6.727   4.985  12.581  0.2902  0.7769 -0.0252
  563MOL0     C75909   6.821   5.103  12.627 -0.9405 -0.2109 -0.0791
  563MOL0     C75910   6.761   5.225  12.696  0.1787 -0.5438  0.4760
  563MOL0     C75911   6.681   5.188  12.820  0.6173 -0.2572 -0.4101
  563MOL0     C75912   6.649   5.323  12.902 -0.2969  0.6646 -0.1275
  563MOL0     C75913   6.519   5.327  12.984  0.4562 -0.3349 -0.2074
  563MOL0    Cl75914   6.488   5.484  13.054 -0.5222 -0.2727  0.0953
  563MOL0     C75915   6.799   5.008  12.078  0.0208  0.6780  0.1511
  563MOL0     C75916   6.866   5.014  11.951 -0.4991  1.2972 -0.4779
  563MOL0     O75917   7.180   5.261  11.847  0.2348 -0.0653  0.2919
  563MOL0     C75918   7.196   5.371  11.586  0.9025  0.7517 -0.9872
  563MOL0     C75919   7.206   5.419  11.450  0.4624 -0.1151  0.9350
  563MOL0     N75920   7.278   5.513  10.745  0.2562 -0.6014  0.7161
  563MOL0     N75921   7.402   5.532  10.719  0.1704  0.2439 -0.3907
  563MOL0     C75922   7.985   6.156  10.999 -0.4134  0.1859  0.2599
  563MOL0     C75923   8.013   6.189  11.132 -0.8247  0.7748 -0.6868
  563MOL0     C75924   8.086   6.359  11.520  0.8502 -0.8594  0.2510
  563MOL0     C75925   8.127   6.232  11.568 -0.6444  0.0325  0.3118
  563MOL0     C75926   8.154   6.206  11.706  0.3426 -0.0075 -0.6623
  563MOL0     C75927   8.143   6.319  11.795 -0.5026  0.2688 -0.0921
  563MOL0     O75928   8.171   6.322  11.937  0.1916 -0.1243  0.4017
  563MOL0     C75929   8.244   6.217  12.011  0.7857 -0.9194  0.2294
  563MOL0     C75930   8.269   6.267  12.153  0.4639 -0.8965  0.7888
  563MOL0     C75931   8.353   6.173  12.233 -0.2528 -0.4890  0.8309
  563MOL0     C75932   8.452   6.264  12.319  0.7350 -0.0351 -0.0697
  563MOL0     C75933   8.567   6.182  12.354 -0.2369 -0.4531  0.2859
  563MOL0     C75934   8.655   6.101  12.385  0.2318  0.2124  0.6168
  563MOL0     C75935   8.081   6.428  11.749  0.9744  0.9963  0.0207
  563MOL0     C75936   8.054   6.456  11.620 -0.2370  0.5421  0.6096
  563MOL0     C75937   8.007   6.598  11.599  0.9024 -0.0651 -0.8683
  563MOL0     H75938   8.235   6.438  11.084  3.8417 -2.9505 -1.4856
  563MOL0     H75939   8.175   6.383  10.846  1.0239 -2.2827  0.1880
  563MOL0     H75940   8.030   6.347  10.635  0.7615  1.4715 -3.4873
  563MOL0     H75941   8.166   6.235  10.649 -0.2390 -0.7056  2.3289
  563MOL0     H75942   8.074   6.069  10.515  2.0073  1.3887 -1.4960
  563MOL0     H75943   8.040   6.205  10.421  2.6534 -1.1795  0.4207
  563MOL0     H75944   7.795   6.217  10.488 -0.6408 -1.0466 -1.7085
  563MOL0     H75945   7.828   6.123  10.624 -2.4827  0.1906 -0.2442
  563MOL0     H75946   7.802   6.053  10.323  0.9209 -0.4761 -1.2598
  563MOL0     H75947   7.908   5.946  10.422 -0.3481  1.4082 -0.7047
  563MOL0     H75948   7.616   6.020  10.479 -0.9428 -0.6016 -3.3970
  563MOL0     H75949   7.667   5.879  10.391 -1.8223 -1.7779  1.2989
  563MOL0     H75950   7.762   5.769  10.583  1.2793  0.3517  0.0502
  563MOL0     H75951   7.747   5.914  10.689  0.6016  0.4640 -0.2607
  563MOL0     H75952   7.519   5.776  10.543  0.3528  0.4667  0.1192
  563MOL0     H75953   7.508   5.901  10.672 -0.0924 -0.8639 -0.2654
  563MOL0     H75954   7.640   5.638  10.706 -0.7069 -0.7943  0.0021
  563MOL0     H75955   7.609   5.760  10.831 -0.3945 -0.3964  0.4244
  563MOL0     H75956   7.329   5.810  10.861 -4.1284 -0.2638  0.0466
  563MOL0     H75957   7.062   5.761  10.874  0.4438  0.2581  0.5445
  563MOL0     H75958   7.028   5.632  10.779 -1.2028  3.4064 -0.5440
  563MOL0     H75959   7.078   5.634  11.079  1.1232  1.0397 -0.6893
  563MOL0     H75960   6.934   5.577  11.005  0.4153 -2.4091  1.3346
  563MOL0     H75961   7.202   5.440  11.003  0.0365  1.4790 -2.0872
  563MOL0     H75962   7.048   5.382  10.916 -3.1356  1.2291  1.6807
  563MOL0     H75963   7.076   5.257  11.142  1.1435  0.1159  0.3209
  563MOL0     H75964   6.937   5.354  11.114 -0.5059 -2.2542 -0.2049
  563MOL0     H75965   6.900   5.283  11.355  1.3252 -1.5996 -2.1183
  563MOL0     H75966   6.919   5.173  11.565  0.2130  0.8099 -0.5834
  563MOL0     H75967   7.108   5.230  12.065 -0.1163 -0.0099 -2.1896
  563MOL0     H75968   7.000   5.187  12.277 -0.4963  2.7342 -0.6612
  563MOL0     H75969   6.904   4.841  12.313  1.2539 -1.5202  0.2524
  563MOL0     H75970   6.980   4.959  12.406  1.3181 -0.1591 -1.7609
  563MOL0     H75971   6.719   4.802  12.476  0.8923 -2.9498  0.7184
  563MOL0     H75972   6.866   4.826  12.580  0.7619  1.1841 -0.3195
  563MOL0     H75973   6.649   5.032  12.521  1.1125  1.8272 -0.2870
  563MOL0     H75974   6.680   4.931  12.664 -2.1603 -2.6759 -3.2777
  563MOL0     H75975   6.874   5.136  12.537 -1.6252 -0.6000 -0.6317
  563MOL0     H75976   6.896   5.064  12.697 -3.0356 -1.5479  1.5520
  563MOL0     H75977   6.683   5.271  12.634  1.8297  0.2369 -1.1059
  563MOL0     H75978   6.841   5.298  12.710 -0.8490  0.6777  0.1578
  563MOL0     H75979   6.591   5.135  12.787 -0.4539 -0.8462  3.0366
  563MOL0     H75980   6.735   5.111  12.876  2.8089 -0.0845 -2.1549
  563MOL0     H75981   6.644   5.409  12.834  0.0073  0.9215  0.1680
  563MOL0     H75982   6.734   5.348  12.967 -1.0326  1.8300  0.4046
  563MOL0     H75983   6.422   5.310  12.938  0.1321  2.7920 -0.8859
  563MOL0     H75984   6.526   5.249  13.060  1.0902  0.8639  1.0078
  563MOL0     H75985   6.707   4.954  12.099  2.8945 -4.9794 -0.1124
  563MOL0     H75986   6.830   4.958  11.865  1.3562 -1.7782  0.6154
  563MOL0     H75987   7.263   5.408  11.662  2.1515 -1.4859 -0.9217
  563MOL0     H75988   7.285   5.481  11.411 -1.8665  2.1849 -0.4179
  563MOL0     H75989   7.920   6.070  10.982  0.1912 -0.3957  0.8564
  563MOL0     H75990   7.977   6.114  11.201 -0.9322  0.1244 -1.4293
  563MOL0     H75991   8.126   6.154  11.493  0.5774  1.1086 -0.8618
  563MOL0     H75992   8.190   6.111  11.743  3.7956  1.7533  1.0504
  563MOL0     H75993   8.335   6.193  11.956 -0.9129 -1.0209 -2.7826
  563MOL0     H75994   8.182   6.127  12.021 -0.7481  0.2464  1.5978
  563MOL0     H75995   8.171   6.276  12.200  0.4854 -0.9543  0.8449
  563MOL0     H75996   8.321   6.363  12.142  3.4158 -2.2199  2.1542
  563MOL0     H75997   8.416   6.123  12.160  0.1523 -0.8379  1.4120
  563MOL0     H75998   8.300   6.099  12.293 -1.5843 -0.1052  0.1844
  563MOL0     H75999   8.499   6.345  12.263 -1.1903 -0.1374 -1.9334
  563MOL0     H76000   8.390   6.277  12.408 -0.2899  0.9886 -0.9044
  563MOL0     H76001   8.735   6.035  12.411  1.3259  1.9437  1.8590
  563MOL0     H76002   8.067   6.509  11.819  1.1456  0.5010  0.6335
  563MOL0     H76003   7.957   6.634  11.689  3.4661 -1.6815  1.3408
  563MOL0     H76004   8.090   6.668  11.581  1.3049 -0.5512 -0.9126
  563MOL0     H76005   7.937   6.611  11.516  2.7833  2.3813 -2.2217
  564MOL0     O76006   1.016   4.322  10.339  0.1907 -0.1535  0.4539
  564MOL0     C76007   0.993   4.406  10.430 -0.6377 -1.1927  0.0094
  564MOL0     O76008   1.098   4.454  10.503 -0.1506  0.9054 -0.2827
  564MOL0     C76009   1.220   4.373  10.505  1.7729 -0.3433  0.0554
  564MOL0     C76010   1.334   4.456  10.495  0.8343 -0.5499 -0.3779
  564MOL0     C76011   1.462   4.396  10.499 -0.3408  0.0375 -1.2092
  564MOL0     C76012   1.469   4.255  10.520  0.9221 -0.8097  0.2772
  564MOL0     O76013   1.593   4.200  10.540  0.5045 -0.1596 -0.3585
  564MOL0     C76014   1.620   4.054  10.524  0.1833  0.5104 -0.2770
  564MOL0     C76015   1.618   4.025  10.375  0.9989 -0.6519  0.0870
  564MOL0     C76016   1.665   3.886  10.349  0.3515  0.1750  0.0901
  564MOL0     C76017   1.626   3.843  10.204  0.1670  0.1290 -0.0461
  564MOL0     C76018   1.665   3.699  10.187  0.0379  0.4696  0.4367
  564MOL0     C76019   1.819   3.682  10.177  0.8799  0.2232  0.3833
  564MOL0     C76020   1.871   3.543  10.124 -0.2524 -0.6051  0.7604
  564MOL0     C76021   1.810   3.498   9.993  0.1575  0.7249  1.1823
  564MOL0     N76022   1.888   3.390   9.920  0.1724 -0.5849 -0.2017
  564MOL0     C76023   2.001   3.314   9.964  0.7401 -0.8687 -0.1904
  564MOL0     C76024   2.066   3.264   9.862  0.9967 -0.5722 -0.2995
  564MOL0     C76025   2.188   3.185   9.859  0.2747  0.4838  1.1275
  564MOL0     C76026   2.294   3.264   9.783  0.6227  0.9274  0.8039
  564MOL0     C76027   2.428   3.199   9.747 -0.1516 -0.0424 -0.2266
  564MOL0     C76028   2.407   3.074   9.668  0.2638  1.0126 -0.1652
  564MOL0     O76029   2.535   3.016   9.632  0.0165  0.0412 -0.4052
  564MOL0     C76030   2.539   2.897   9.557  0.3001  0.0716 -0.1529
  564MOL0     C76031   2.427   2.837   9.494  0.0635 -0.2201  0.2291
  564MOL0     C76032   2.441   2.728   9.413  0.8799 -0.0817  0.1465
  564MOL0     C76033   2.565   2.664   9.398  0.7208  0.4960  0.2229
  564MOL0     C76034   2.579   2.538   9.307  0.5119  0.2904 -1.0301
  564MOL0     O76035   2.470   2.510   9.222 -0.1559  0.2361 -0.4852
  564MOL0     C76036   2.487   2.436   9.111  0.3855  1.3070  0.7775
  564MOL0     C76037   2.369   2.437   9.031 -0.0233 -0.2568  0.0329
  564MOL0     C76038   2.357   2.355   8.916  0.1835  0.5310  0.1545
  564MOL0     C76039   2.466   2.274   8.875  0.1191 -0.3889  1.4119
  564MOL0     O76040   2.454   2.199   8.757 -0.0169  0.9835 -0.1186
  564MOL0     C76041   2.565   2.197   8.656  0.2133  0.3339  0.3174
  564MOL0     C76042   2.567   2.319   8.564  0.9141  0.3379 -0.1051
  564MOL0     C76043   2.429   2.331   8.477  0.2132 -0.1969  0.0157
  564MOL0     C76044   2.446   2.467   8.398 -0.3839 -1.0220 -0.1153
  564MOL0     C76045   2.315   2.509   8.321  0.1248 -0.4503  0.0813
  564MOL0     C76046   2.277   2.449   8.189 -0.4602 -0.4397 -0.3123
  564MOL0     C76047   2.387   2.447   8.072 -1.0218 -0.8529 -1.3942
  564MOL0     C76048   2.328   2.393   7.945  0.4251 -0.6413 -0.3112
  564MOL0    Cl76049   2.218   2.511   7.868  0.1884  0.2648 -0.3618
  564MOL0     C76050   2.584   2.277   8.949 -0.6130 -0.2432  0.1375
  564MOL0     C76051   2.597   2.349   9.064 -0.7583 -0.1598  0.0734
  564MOL0     O76052   2.682   2.471   9.322 -0.4503 -0.8135 -0.0709
  564MOL0     C76053   2.674   2.718   9.456 -0.0802 -1.1145 -0.2127
  564MOL0     C76054   2.669   2.840   9.529  0.8861  0.2138 -0.3043
  564MOL0     N76055   1.984   3.302   9.751  0.2999 -0.2046 -1.7159
  564MOL0     N76056   1.884   3.374   9.790 -0.1673 -0.4499 -0.2296
  564MOL0     C76057   1.351   4.178  10.519  1.1406  0.2732 -0.8100
  564MOL0     C76058   1.221   4.232  10.515  0.2836  0.1671  0.8707
  564MOL0     C76059   0.865   4.476  10.465 -0.0261  0.8706  0.6556
  564MOL0     C76060   0.863   4.588  10.549  0.5159 -1.3428  0.1562
  564MOL0     C76061   0.743   4.653  10.582  0.4827 -0.6669  0.0079
  564MOL0     C76062   0.624   4.616  10.525  0.2300 -0.0976  0.0097
  564MOL0     O76063   0.507   4.683  10.547  0.5446  0.2441  0.5650
  564MOL0     C76064   0.447   4.744  10.431  0.2010  0.1301 -0.1040
  564MOL0     C76065   0.377   4.873  10.477 -0.6468  0.6240 -0.2260
  564MOL0     C76066   0.475   4.968  10.553  0.3197 -0.4875  0.4767
  564MOL0     C76067   0.411   5.107  10.575  1.1852  0.3146 -0.7737
  564MOL0     C76068   0.502   5.191  10.653  1.0371  0.9528  0.3663
  564MOL0     C76069   0.563   5.279  10.702 -0.8833  0.0584 -0.1390
  564MOL0     C76070   0.621   4.503  10.449 -0.1522 -0.5147 -0.2017
  564MOL0     C76071   0.741   4.436  10.410 -0.6527 -0.8888 -0.0710
  564MOL0     C76072   0.723   4.296  10.352  0.4486 -0.5298 -0.0628
  564MOL0     H76073   1.330   4.562  10.470  2.4884 -0.2809  0.3321
  564MOL0     H76074   1.560   4.444  10.504 -1.4750  2.3875  1.2041
  564MOL0     H76075   1.721   4.033  10.561 -0.7973  1.1566  3.0088
  564MOL0     H76076   1.548   4.000  10.586 -0.6398 -1.3202 -2.6679
  564MOL0     H76077   1.676   4.097  10.318  0.9937 -2.1397 -1.9155
  564MOL0     H76078   1.514   4.024  10.341  1.3559 -2.9208 -1.1477
  564MOL0     H76079   1.621   3.813  10.418  2.3692 -2.1193 -0.9076
  564MOL0     H76080   1.774   3.886  10.359  0.2215  2.2864  2.4935
  564MOL0     H76081   1.518   3.857  10.199  0.1658  3.1354  3.6114
  564MOL0     H76082   1.673   3.908  10.130  4.1649 -0.2130  1.8891
  564MOL0     H76083   1.623   3.641  10.269 -1.4035  1.5374  0.5066
  564MOL0     H76084   1.618   3.668  10.094  0.1756  2.3393 -0.3113
  564MOL0     H76085   1.848   3.769  10.117 -0.6779  0.3440 -0.2540
  564MOL0     H76086   1.856   3.695  10.279 -0.3724  1.5597  0.7004
  564MOL0     H76087   1.851   3.457  10.188 -2.1998  0.5792  1.8399
  564MOL0     H76088   1.979   3.547  10.107 -0.8554 -1.1849 -6.1433
  564MOL0     H76089   1.714   3.452  10.019 -0.4977  2.2651  1.5766
  564MOL0     H76090   1.792   3.574   9.917  0.6066 -2.1225 -2.0195
  564MOL0     H76091   2.044   3.320  10.063  3.0519  1.7819 -1.2224
  564MOL0     H76092   2.227   3.174   9.961 -0.7237  1.8016  1.6912
  564MOL0     H76093   2.161   3.091   9.811 -2.1786  2.1337 -1.0739
  564MOL0     H76094   2.250   3.301   9.691 -3.0933 -2.0380  1.1558
  564MOL0     H76095   2.316   3.352   9.845  0.2589  2.0820 -0.6468
  564MOL0     H76096   2.475   3.166   9.840  1.4053  2.0081 -0.2150
  564MOL0     H76097   2.491   3.269   9.690  0.5895 -0.8648 -0.4324
  564MOL0     H76098   2.349   3.094   9.577 -0.9252  0.7181  0.5006
  564MOL0     H76099   2.353   2.998   9.724  0.1191 -0.5035 -2.2387
  564MOL0     H76100   2.329   2.883   9.507  0.5504  1.0790 -0.4999
  564MOL0     H76101   2.353   2.675   9.378  0.1879 -0.6766  2.6385
  564MOL0     H76102   2.287   2.507   9.041 -1.5591 -1.9811  0.1074
  564MOL0     H76103   2.265   2.344   8.861 -0.3844  0.6967  1.0548
  564MOL0     H76104   2.664   2.178   8.697  1.4594 -0.9458 -2.9989
  564MOL0     H76105   2.534   2.108   8.600  3.7577  0.7251 -2.6459
  564MOL0     H76106   2.566   2.402   8.634  0.5363  1.2977 -1.2189
  564MOL0     H76107   2.659   2.339   8.508  0.6451 -1.3482 -1.2292
  564MOL0     H76108   2.429   2.257   8.397 -0.9818 -2.0174  1.6222
  564MOL0     H76109   2.334   2.333   8.530  0.2399  2.6074  0.1075
  564MOL0     H76110   2.532   2.466   8.330 -0.8835 -0.6191 -0.7723
  564MOL0     H76111   2.461   2.548   8.470  1.4368 -1.3346 -0.1004
  564MOL0     H76112   2.335   2.614   8.295  1.3992 -0.8220 -0.5236
  564MOL0     H76113   2.228   2.500   8.386  0.9465 -0.6057  1.1835
  564MOL0     H76114   2.262   2.343   8.211  4.2565 -0.9361  1.7084
  564MOL0     H76115   2.185   2.491   8.147 -0.4116  2.1141  1.8509
  564MOL0     H76116   2.477   2.391   8.098 -0.8507 -0.7221 -1.6974
  564MOL0     H76117   2.408   2.552   8.047  1.0364 -0.0513  2.8969
  564MOL0     H76118   2.409   2.373   7.874  1.2607  2.3332 -0.3123
  564MOL0     H76119   2.274   2.301   7.971 -0.1881 -0.4114 -0.7504
  564MOL0     H76120   2.666   2.207   8.936 -0.5278 -0.2195  0.5304
  564MOL0     H76121   2.692   2.353   9.115 -1.4505 -3.6535  1.9937
  564MOL0     H76122   2.777   2.686   9.452  0.2646 -0.4682  2.0055
  564MOL0     H76123   2.762   2.873   9.576  1.6168  0.1434 -1.6422
  564MOL0     H76124   1.357   4.069  10.515  0.2127  0.2125 -0.7899
  564MOL0     H76125   1.138   4.162  10.520  0.0051  0.5138  1.1346
  564MOL0     H76126   0.954   4.624  10.596  0.2057 -1.2001  0.6548
  564MOL0     H76127   0.730   4.737  10.649 -3.9098 -0.0723 -1.2835
  564MOL0     H76128   0.368   4.683  10.385 -1.9680  2.0785  0.8431
  564MOL0     H76129   0.526   4.761  10.357  1.3145 -1.3606  0.6901
  564MOL0     H76130   0.290   4.855  10.541  0.9473  2.6216  2.7039
  564MOL0     H76131   0.330   4.914  10.387 -1.0005  0.9368  0.1007
  564MOL0     H76132   0.569   4.971  10.497  1.7193 -0.8785  2.6685
  564MOL0     H76133   0.491   4.927  10.653 -2.1504 -0.3281  1.0080
  564MOL0     H76134   0.391   5.153  10.477 -0.8764 -2.1913 -1.6384
  564MOL0     H76135   0.318   5.087  10.628  3.2633 -0.4700  2.8823
  564MOL0     H76136   0.593   5.371  10.747 -0.7660 -1.1706  2.4796
  564MOL0     H76137   0.525   4.468  10.414 -0.0192 -1.4006  0.2892
  564MOL0     H76138   0.750   4.211  10.416  1.1707  0.9460  1.6831
  564MOL0     H76139   0.618   4.291  10.321  0.7127  1.0897 -1.3199
  564MOL0     H76140   0.779   4.292  10.258  1.7302  1.2123  0.5786
  565MOL0     O76141   3.506   4.346   2.488 -0.1386 -0.6019  1.1432
  565MOL0     C76142   3.518   4.336   2.368 -0.5610 -0.6073  0.1940
  565MOL0     O76143   3.422   4.339   2.279  0.1608  0.3679  0.9106
  565MOL0     C76144   3.287   4.342   2.313  0.8663  0.0045  0.1644
  565MOL0     C76145   3.196   4.303   2.210  0.2539 -1.2977  0.3402
  565MOL0     C76146   3.065   4.315   2.234  0.0885 -0.5060  1.1772
  565MOL0     C76147   3.007   4.351   2.361 -2.0121 -0.2722 -0.7144
  565MOL0     O76148   2.878   4.337   2.394  0.8439 -0.7406 -0.2415
  565MOL0     C76149   2.825   4.200   2.409 -0.0795 -0.4585 -0.8957
  565MOL0     C76150   2.756   4.195   2.550  0.1959  0.3941  0.6481
  565MOL0     C76151   2.711   4.051   2.580 -0.5062 -0.3578 -0.2482
  565MOL0     C76152   2.826   3.942   2.601  1.1479  0.1518 -0.7299
  565MOL0     C76153   2.764   3.810   2.639 -0.2640 -0.5856  0.4044
  565MOL0     C76154   2.867   3.706   2.678 -0.8111  0.2249 -0.1329
  565MOL0     C76155   2.796   3.569   2.694 -0.9871 -0.1718 -0.6666
  565MOL0     C76156   2.882   3.456   2.740 -0.1605 -1.1070 -0.1440
  565MOL0     N76157   2.986   3.420   2.643 -0.3268  1.2059 -0.0087
  565MOL0     C76158   3.098   3.490   2.615  0.7105 -0.4941 -0.3766
  565MOL0     C76159   3.136   3.445   2.488 -0.2901  0.0510 -0.2949
  565MOL0     C76160   3.226   3.500   2.392 -0.5137  0.7051 -0.6149
  565MOL0     C76161   3.155   3.566   2.271  0.1257 -0.1680  0.2356
  565MOL0     C76162   3.238   3.621   2.157  0.9824 -0.3435  0.2010
  565MOL0     C76163   3.357   3.716   2.190 -0.3664 -0.3435 -0.7966
  565MOL0     O76164   3.306   3.853   2.211  0.4489 -0.7104 -0.0112
  565MOL0     C76165   3.309   3.917   2.331  0.4893 -0.1317 -0.4530
  565MOL0     C76166   3.421   3.934   2.411  0.5315 -0.5217 -0.4374
  565MOL0     C76167   3.421   4.012   2.534 -0.2983  0.3483 -0.5128
  565MOL0     C76168   3.303   4.070   2.581  0.3465 -0.3992  0.9181
  565MOL0     C76169   3.297   4.125   2.710  0.4587 -0.0130  0.9686
  565MOL0     O76170   3.182   4.191   2.739 -0.5322  0.2436  0.2163
  565MOL0     C76171   3.170   4.267   2.853 -0.3372  0.1427 -0.0044
  565MOL0     C76172   3.268   4.347   2.914 -0.4755  0.1185 -0.2866
  565MOL0     C76173   3.266   4.395   3.041 -0.2977  0.5843 -1.5262
  565MOL0     C76174   3.148   4.373   3.107 -0.7406 -0.4969 -0.2732
  565MOL0     O76175   3.141   4.426   3.229  0.2479  0.0678 -0.5068
  565MOL0     C76176   3.148   4.570   3.229 -0.3675 -0.7622 -0.3554
  565MOL0     C76177   3.191   4.623   3.364  0.2949  0.0795 -1.3216
  565MOL0     C76178   3.219   4.775   3.348  0.3346 -0.0253 -0.6018
  565MOL0     C76179   3.300   4.820   3.470  1.2224 -0.4782  0.2627
  565MOL0     C76180   3.221   4.808   3.602 -0.4619  0.4249  0.2065
  565MOL0     C76181   3.255   4.673   3.670 -0.5044  0.0120  0.7526
  565MOL0     C76182   3.216   4.676   3.821 -1.7383  0.9123  0.4156
  565MOL0     C76183   3.180   4.542   3.865 -0.1377 -0.1726  0.7280
  565MOL0    Cl76184   3.120   4.573   4.031 -0.5119  0.2544 -0.2076
  565MOL0     C76185   3.044   4.297   3.052 -0.0523 -0.5116 -0.3998
  565MOL0     C76186   3.046   4.246   2.918  0.3613  0.1655  0.6915
  565MOL0     O76187   3.387   4.118   2.783  0.3636  0.9803  0.2325
  565MOL0     C76188   3.190   4.050   2.490 -0.2611 -0.7512 -0.5585
  565MOL0     C76189   3.193   3.987   2.372  0.1295  0.3781 -0.2503
  565MOL0     N76190   3.064   3.336   2.459 -1.2169 -0.2585  0.2205
  565MOL0     N76191   2.964   3.332   2.539  0.4179 -0.6434  0.0379
  565MOL0     C76192   3.092   4.388   2.463 -0.3297 -0.4080 -0.5705
  565MOL0     C76193   3.231   4.384   2.441  0.1904 -0.5491  0.3136
  565MOL0     C76194   3.654   4.343   2.319  0.8611 -0.4698  0.3635
  565MOL0     C76195   3.744   4.428   2.385  0.0056  0.0390  0.1568
  565MOL0     C76196   3.875   4.441   2.330  0.1023 -0.7139 -1.2443
  565MOL0     C76197   3.924   4.366   2.224 -0.0209 -0.4355  0.0613
  565MOL0     O76198   4.053   4.358   2.175 -0.7161  0.1080  0.4834
  565MOL0     C76199   4.150   4.443   2.238  0.8123  0.7524 -0.5646
  565MOL0     C76200   4.144   4.573   2.163  0.0564  0.1752 -0.0626
  565MOL0     C76201   4.219   4.682   2.240  0.3382  0.2822 -0.1210
  565MOL0     C76202   4.199   4.818   2.164  0.0944  0.0216  0.8643
  565MOL0     C76203   4.262   4.815   2.030 -0.2084  0.3282 -0.9226
  565MOL0     C76204   4.332   4.800   1.927  0.6376 -1.1519  0.5881
  565MOL0     C76205   3.827   4.275   2.169 -0.6382  0.1843  0.1049
  565MOL0     C76206   3.696   4.271   2.209  0.8222 -0.2082  1.5904
  565MOL0     C76207   3.605   4.173   2.132 -0.2125  0.4126  0.4328
  565MOL0     H76208   3.239   4.275   2.114  0.7785  0.6488 -0.0313
  565MOL0     H76209   2.993   4.305   2.154  1.2767  1.7644 -0.2777
  565MOL0     H76210   2.755   4.168   2.331 -0.2097 -1.4635 -0.3897
  565MOL0     H76211   2.913   4.135   2.414 -0.1865 -0.5591  2.5832
  565MOL0     H76212   2.676   4.269   2.544 -2.0144 -1.9846 -1.9319
  565MOL0     H76213   2.834   4.219   2.623  1.0006  0.0225 -0.0790
  565MOL0     H76214   2.618   4.025   2.529 -2.2112 -0.7615  2.8290
  565MOL0     H76215   2.672   4.069   2.681  0.5511  2.2639 -0.2448
  565MOL0     H76216   2.880   3.933   2.506 -2.3743 -0.3072 -2.8469
  565MOL0     H76217   2.891   3.969   2.685 -0.6513  0.6371  0.5560
  565MOL0     H76218   2.692   3.815   2.720  0.1307 -5.2571  1.3261
  565MOL0     H76219   2.706   3.780   2.551  1.6936 -0.9395 -0.8344
  565MOL0     H76220   2.942   3.703   2.598 -1.7651 -1.1950 -1.0299
  565MOL0     H76221   2.920   3.735   2.768 -1.4262 -1.5421  0.8461
  565MOL0     H76222   2.767   3.546   2.592  0.6987  0.8197 -1.4093
  565MOL0     H76223   2.714   3.591   2.764 -1.1162  2.6500 -1.5644
  565MOL0     H76224   2.923   3.493   2.834  0.8245 -0.5562 -0.7680
  565MOL0     H76225   2.824   3.364   2.754 -2.9656  0.1846 -2.2364
  565MOL0     H76226   3.145   3.570   2.671  1.4046 -1.2204  0.1024
  565MOL0     H76227   3.298   3.571   2.434  0.0097  0.0643 -0.4083
  565MOL0     H76228   3.282   3.418   2.346 -0.4839  0.1913  0.3359
  565MOL0     H76229   3.074   3.497   2.244 -0.5416  0.5882  0.2521
  565MOL0     H76230   3.093   3.650   2.306 -0.3035 -0.0073 -0.8413
  565MOL0     H76231   3.178   3.674   2.083 -2.2136 -2.9960  0.6712
  565MOL0     H76232   3.282   3.535   2.104 -0.7870  0.7754 -3.3878
  565MOL0     H76233   3.430   3.692   2.112  1.7938  0.0865  0.9939
  565MOL0     H76234   3.405   3.683   2.282 -0.9470  3.1928  0.9602
  565MOL0     H76235   3.515   3.883   2.393 -0.6840 -3.1725  0.3244
  565MOL0     H76236   3.511   4.014   2.594 -1.7807  0.8058  1.8158
  565MOL0     H76237   3.363   4.355   2.864 -0.0797 -2.4400 -0.0898
  565MOL0     H76238   3.355   4.437   3.086 -1.5774  0.7008  1.1183
  565MOL0     H76239   3.224   4.607   3.158 -0.9446 -0.2257 -0.7065
  565MOL0     H76240   3.056   4.623   3.204  0.5757  1.4181  0.4947
  565MOL0     H76241   3.113   4.599   3.437  1.4712  1.3931  0.4526
  565MOL0     H76242   3.280   4.567   3.395 -0.0395  0.9790  1.5034
  565MOL0     H76243   3.264   4.791   3.249  3.0617  1.2762  0.7298
  565MOL0     H76244   3.129   4.832   3.369  2.3175  2.4089  2.0699
  565MOL0     H76245   3.324   4.927   3.469  1.1501 -0.4099  2.2378
  565MOL0     H76246   3.396   4.769   3.469  0.5686 -1.9167 -3.1070
  565MOL0     H76247   3.113   4.812   3.582  0.2676 -0.7250 -6.0988
  565MOL0     H76248   3.255   4.887   3.670 -1.8890  1.0732  0.1963
  565MOL0     H76249   3.210   4.587   3.620  0.7258 -0.3274  0.1927
  565MOL0     H76250   3.364   4.666   3.671 -0.4499  0.7206  2.1579
  565MOL0     H76251   3.124   4.734   3.831 -1.7833  1.1426 -1.1157
  565MOL0     H76252   3.292   4.714   3.890 -0.5574 -1.7266  0.6621
  565MOL0     H76253   3.090   4.507   3.815 -1.3849  1.9116  1.3760
  565MOL0     H76254   3.258   4.465   3.869  1.6818  1.5191 -0.6628
  565MOL0     H76255   2.958   4.278   3.116  0.6814 -1.7616  0.2703
  565MOL0     H76256   2.966   4.194   2.866  0.9215 -0.6474  0.6119
  565MOL0     H76257   3.096   4.088   2.528 -0.6463 -2.2598  0.0743
  565MOL0     H76258   3.099   3.992   2.316  0.1733 -0.2968 -0.3865
  565MOL0     H76259   3.048   4.418   2.558 -1.7903  1.0476 -1.6446
  565MOL0     H76260   3.298   4.412   2.522 -0.0930 -1.1389  0.7635
  565MOL0     H76261   3.721   4.495   2.467  1.1522  3.5561 -2.1691
  565MOL0     H76262   3.935   4.506   2.394 -2.9704 -0.9714  2.2866
  565MOL0     H76263   4.250   4.399   2.226  0.4604  0.2686 -1.9685
  565MOL0     H76264   4.122   4.452   2.343 -0.5850  0.9758 -0.9451
  565MOL0     H76265   4.039   4.595   2.144 -0.3348 -3.2907 -3.1044
  565MOL0     H76266   4.174   4.565   2.058 -4.0135  1.6716 -1.5322
  565MOL0     H76267   4.324   4.652   2.246  1.1124  2.5663 -1.3127
  565MOL0     H76268   4.176   4.697   2.340 -3.2311  0.8758 -1.5757
  565MOL0     H76269   4.091   4.827   2.148 -0.0114  0.1871  1.6307
  565MOL0     H76270   4.248   4.901   2.215 -1.6974  1.2333  0.7104
  565MOL0     H76271   4.403   4.784   1.848 -0.0815 -0.9123 -0.1219
  565MOL0     H76272   3.855   4.208   2.088  4.4885  1.9666  0.0899
  565MOL0     H76273   3.659   4.127   2.048 -0.8870 -0.1633  0.3069
  565MOL0     H76274   3.566   4.099   2.201 -1.8442 -0.0672 -0.9244
  565MOL0     H76275   3.518   4.209   2.077 -0.0504  0.3176  0.1084
  566MOL0     O76276   2.457   1.549   5.407  0.4616 -0.1028  0.5535
  566MOL0     C76277   2.445   1.646   5.329 -0.3068  0.7402  0.7490
  566MOL0     O76278   2.536   1.672   5.226 -0.1351 -0.5196  0.6739
  566MOL0     C76279   2.639   1.584   5.199 -0.1890  0.2580 -0.5742
  566MOL0     C76280   2.629   1.450   5.158  1.0045 -0.5897 -0.6074
  566MOL0     C76281   2.736   1.367   5.138 -0.6050 -0.1544  0.8395
  566MOL0     C76282   2.863   1.422   5.151  0.2438 -0.4064 -1.4718
  566MOL0     O76283   2.967   1.328   5.149  0.4141 -0.3355 -0.7520
  566MOL0     C76284   3.027   1.341   5.026 -0.8386  0.8303  0.4099
  566MOL0     C76285   3.170   1.408   5.038 -0.8786 -0.5445  0.5419
  566MOL0     C76286   3.220   1.487   4.908  0.2443  0.1215 -1.4957
  566MOL0     C76287   3.374   1.517   4.916  0.3936 -0.0370 -0.0971
  566MOL0     C76288   3.412   1.593   5.041 -0.1768 -0.7250 -0.7488
  566MOL0     C76289   3.559   1.595   5.074 -0.6243  0.0192 -0.5414
  566MOL0     C76290   3.630   1.460   5.088 -0.5536  0.1392 -0.1260
  566MOL0     C76291   3.759   1.471   5.170  0.2597 -0.1226 -0.3827
  566MOL0     N76292   3.860   1.570   5.128  0.2785  0.0660 -0.1741
  566MOL0     C76293   3.924   1.571   5.013 -0.5952 -0.5033  0.4484
  566MOL0     C76294   3.996   1.685   5.008 -1.2243 -0.1084  0.5433
  566MOL0     C76295   4.073   1.729   4.884 -0.5663 -0.6525  0.6882
  566MOL0     C76296   4.075   1.879   4.883 -0.4835  0.7419  0.1780
  566MOL0     C76297   3.942   1.932   4.824 -0.3288 -0.0137 -0.7837
  566MOL0     C76298   3.918   2.082   4.822  0.2411  0.0183  0.7773
  566MOL0     O76299   3.798   2.106   4.745  0.5433 -0.5441 -0.1542
  566MOL0     C76300   3.807   2.179   4.626  0.1139 -0.4210 -0.2714
  566MOL0     C76301   3.715   2.284   4.612  0.0783  0.6676 -0.3745
  566MOL0     C76302   3.713   2.366   4.501  0.2164  0.0327  0.0297
  566MOL0     C76303   3.808   2.341   4.393  0.8116  0.1287 -0.7305
  566MOL0     C76304   3.798   2.416   4.262 -0.5985  0.7690 -0.5440
  566MOL0     O76305   3.695   2.512   4.267  0.1333  0.5973  0.1956
  566MOL0     C76306   3.699   2.629   4.196  0.0094 -0.4019 -0.0883
  566MOL0     C76307   3.598   2.666   4.108 -0.4588  0.7247  0.1958
  566MOL0     C76308   3.611   2.791   4.037 -1.0256 -0.4534  0.1471
  566MOL0     C76309   3.738   2.856   4.030  0.6789  0.1420  0.7727
  566MOL0     O76310   3.761   2.968   3.945 -0.0254  0.4576 -0.5037
  566MOL0     C76311   3.654   3.048   3.915 -0.3630  0.1216 -0.1181
  566MOL0     C76312   3.726   3.177   3.869  0.5503  0.4874 -0.5713
  566MOL0     C76313   3.628   3.298   3.885 -0.9508 -1.0847 -0.1352
  566MOL0     C76314   3.639   3.386   3.766 -0.1054 -0.3163 -0.3263
  566MOL0     C76315   3.774   3.460   3.747  0.4691 -0.2153 -0.0941
  566MOL0     C76316   3.789   3.521   3.604  0.8627 -0.1071  0.0307
  566MOL0     C76317   3.891   3.636   3.609 -0.3502 -0.0181  0.5816
  566MOL0     C76318   4.036   3.579   3.609 -0.0144  0.1631  0.6237
  566MOL0    Cl76319   4.071   3.483   3.469  0.0801  0.3074  0.3190
  566MOL0     C76320   3.839   2.816   4.118  0.2814 -0.3192 -0.2730
  566MOL0     C76321   3.818   2.704   4.198 -1.0446  0.1471 -0.6506
  566MOL0     O76322   3.872   2.404   4.166  0.4508 -0.1128  0.1289
  566MOL0     C76323   3.904   2.236   4.408  0.4496 -0.5757 -0.1310
  566MOL0     C76324   3.899   2.162   4.525 -1.1783 -0.0339 -0.1043
  566MOL0     N76325   3.984   1.743   5.133  0.0312 -0.3214  0.3025
  566MOL0     N76326   3.900   1.676   5.204 -0.2039  0.7081 -0.4110
  566MOL0     C76327   2.881   1.558   5.182  0.5266  0.8929  0.2309
  566MOL0     C76328   2.766   1.634   5.211  0.2050 -0.1567 -0.1171
  566MOL0     C76329   2.317   1.716   5.326 -0.0980 -1.1580 -0.6963
  566MOL0     C76330   2.297   1.799   5.209  0.1759 -0.1254 -0.5392
  566MOL0     C76331   2.187   1.883   5.204 -0.5671 -0.4510 -0.7727
  566MOL0     C76332   2.089   1.884   5.299  0.5771  0.0491  0.4642
  566MOL0     O76333   1.969   1.944   5.267  0.0073 -0.0086 -0.1112
  566MOL0     C76334   1.900   1.862   5.164 -0.0212 -0.1539 -0.2100
  566MOL0     C76335   1.805   1.957   5.091  1.3603 -0.9271 -0.5763
  566MOL0     C76336   1.708   2.030   5.183 -1.0464 -0.1127 -0.5716
  566MOL0     C76337   1.764   2.164   5.231  0.2877 -0.2383  0.5030
  566MOL0     C76338   1.657   2.256   5.272 -0.5918  0.3698  0.1540
  566MOL0     C76339   1.558   2.320   5.287  0.4277 -0.9915  0.0914
  566MOL0     C76340   2.100   1.795   5.410  0.1870 -0.3672 -0.5987
  566MOL0     C76341   2.223   1.724   5.430 -0.8261 -0.5583 -1.0231
  566MOL0     C76342   2.229   1.658   5.574 -0.2077 -0.3498  0.2102
  566MOL0     H76343   2.536   1.396   5.163  0.6689  0.0967  1.4129
  566MOL0     H76344   2.729   1.264   5.106 -1.8564 -0.4152  1.8563
  566MOL0     H76345   3.046   1.241   4.985 -0.7914  0.2832  1.7436
  566MOL0     H76346   2.972   1.402   4.953 -1.8010 -1.6008 -1.0104
  566MOL0     H76347   3.239   1.324   5.051  1.6132  1.4109  0.6197
  566MOL0     H76348   3.175   1.463   5.132  1.4110  1.0152 -0.4074
  566MOL0     H76349   3.159   1.578   4.900 -1.6006 -0.8081  0.9667
  566MOL0     H76350   3.207   1.429   4.816 -2.7880 -0.5587 -0.7482
  566MOL0     H76351   3.419   1.417   4.914  0.4665 -0.0468  1.1840
  566MOL0     H76352   3.401   1.572   4.826 -1.3112  1.5381  0.3211
  566MOL0     H76353   3.372   1.692   5.020  0.1604 -0.7344 -1.4507
  566MOL0     H76354   3.365   1.557   5.133 -0.8863  3.4959  0.7549
  566MOL0     H76355   3.599   1.650   4.989 -2.9838  2.1223 -0.3854
  566MOL0     H76356   3.576   1.648   5.168 -0.0450  0.5234 -0.9264
  566MOL0     H76357   3.660   1.411   4.995 -3.9175 -3.6038  0.4761
  566MOL0     H76358   3.566   1.385   5.136  0.9320 -1.0980 -0.0143
  566MOL0     H76359   3.719   1.491   5.270 -0.4782  0.9810 -0.8800
  566MOL0     H76360   3.819   1.380   5.166 -0.0499 -0.3204 -0.6307
  566MOL0     H76361   3.922   1.508   4.924  0.5634  0.3936 -0.2334
  566MOL0     H76362   4.177   1.695   4.891 -0.5716 -0.6562  0.7471
  566MOL0     H76363   4.029   1.684   4.794  2.4351 -0.1902 -1.1545
  566MOL0     H76364   4.075   1.929   4.981  1.7071  3.1377 -0.9449
  566MOL0     H76365   4.160   1.916   4.826  0.4662 -0.5685  0.7114
  566MOL0     H76366   3.861   1.898   4.888 -0.0315 -0.7279 -0.7795
  566MOL0     H76367   3.931   1.897   4.721  3.6109 -3.9638 -0.1602
  566MOL0     H76368   3.996   2.131   4.763  0.5946 -1.2594  0.1488
  566MOL0     H76369   3.919   2.125   4.923  0.0230  3.5407 -0.5908
  566MOL0     H76370   3.635   2.294   4.685  1.2570 -1.1146  1.2475
  566MOL0     H76371   3.633   2.439   4.495  0.0307 -0.2421 -1.0783
  566MOL0     H76372   3.501   2.617   4.108  0.1523 -0.5482  1.0083
  566MOL0     H76373   3.529   2.830   3.977 -0.2113  0.5364 -0.3562
  566MOL0     H76374   3.588   3.006   3.838 -3.6476  4.3236  0.0273
  566MOL0     H76375   3.587   3.075   3.997 -0.0907  4.6551 -1.1253
  566MOL0     H76376   3.808   3.207   3.935 -1.6508  0.3175  2.4784
  566MOL0     H76377   3.758   3.161   3.766  1.5523 -0.9942 -0.0603
  566MOL0     H76378   3.526   3.265   3.906 -0.3182 -1.6422  2.4068
  566MOL0     H76379   3.654   3.350   3.978 -2.1605 -0.9509  0.1431
  566MOL0     H76380   3.564   3.466   3.765  0.5967  0.3602  0.0200
  566MOL0     H76381   3.617   3.317   3.684  0.6697 -0.3486 -0.5156
  566MOL0     H76382   3.859   3.396   3.771  1.7544  2.0189  1.8011
  566MOL0     H76383   3.766   3.540   3.821 -1.5912  0.9222 -1.4279
  566MOL0     H76384   3.821   3.449   3.528  4.0588  3.2347 -2.1376
  566MOL0     H76385   3.697   3.562   3.561  0.0889 -1.3905  0.4200
  566MOL0     H76386   3.879   3.707   3.691 -0.1329  1.5883 -0.7222
  566MOL0     H76387   3.868   3.686   3.514  1.3793  2.2668  1.2924
  566MOL0     H76388   4.114   3.656   3.606 -0.1796  0.4509  2.4547
  566MOL0     H76389   4.052   3.507   3.690 -0.4184 -3.3551 -2.1814
  566MOL0     H76390   3.936   2.861   4.103  1.1763 -1.6951  1.1012
  566MOL0     H76391   3.896   2.679   4.270  0.1421  1.1166 -1.5472
  566MOL0     H76392   3.969   2.197   4.330 -0.0190  0.6898 -1.1756
  566MOL0     H76393   3.975   2.090   4.552 -2.2653 -0.3989  2.2359
  566MOL0     H76394   2.975   1.611   5.185  0.9908  0.3850 -2.6386
  566MOL0     H76395   2.782   1.728   5.263 -0.9978 -2.0209  4.0738
  566MOL0     H76396   2.377   1.808   5.136  0.8960 -0.8961  0.1265
  566MOL0     H76397   2.181   1.956   5.124  1.4133  0.1509 -0.4390
  566MOL0     H76398   1.847   1.785   5.221  0.6629 -0.4616  0.0176
  566MOL0     H76399   1.963   1.808   5.093 -1.1068 -1.8282  0.0250
  566MOL0     H76400   1.744   1.907   5.015  3.4729 -2.0938 -1.6210
  566MOL0     H76401   1.878   2.023   5.042  0.2576  0.6724 -0.1194
  566MOL0     H76402   1.682   1.976   5.275  0.3453  0.6660  0.2996
  566MOL0     H76403   1.615   2.046   5.127 -1.0051 -1.7775 -1.1868
  566MOL0     H76404   1.842   2.140   5.304  2.3055 -0.0494 -1.5075
  566MOL0     H76405   1.816   2.215   5.150 -0.0605  0.1568  0.5248
  566MOL0     H76406   1.463   2.369   5.297  0.8552 -0.2306  0.5087
  566MOL0     H76407   2.014   1.806   5.475  0.5210  0.4268 -0.2765
  566MOL0     H76408   2.201   1.552   5.574 -3.8771  0.4753 -1.2371
  566MOL0     H76409   2.323   1.666   5.630  0.1977  0.0146 -0.4967
  566MOL0     H76410   2.154   1.703   5.638 -4.0941 -4.2034 -1.1574
  567MOL0     O76411   3.055   0.959   2.137  0.5665  0.0336  0.7110
  567MOL0     C76412   3.038   1.039   2.220 -0.4330 -0.1428 -0.7437
  567MOL0     O76413   2.948   1.030   2.330  0.3278  0.4038  0.5454
  567MOL0     C76414   2.848   0.931   2.322  1.1155 -0.8010 -0.2462
  567MOL0     C76415   2.796   0.870   2.201 -0.1348 -0.1542 -0.1251
  567MOL0     C76416   2.710   0.758   2.210  0.4857 -0.0488 -0.1608
  567MOL0     C76417   2.670   0.711   2.340 -0.5854  1.5850  0.4408
  567MOL0     O76418   2.604   0.584   2.352 -0.6448 -0.2072  0.3696
  567MOL0     C76419   2.594   0.496   2.234  1.1463 -0.6320 -0.3768
  567MOL0     C76420   2.511   0.374   2.281  1.0380 -0.0797 -0.1169
  567MOL0     C76421   2.575   0.235   2.280  0.0788 -0.1353  0.1999
  567MOL0     C76422   2.596   0.177   2.421  0.0518 -0.5715 -0.7680
  567MOL0     C76423   2.661   0.043   2.411  0.4241 -0.6541  0.1271
  567MOL0     C76424   2.558  -0.063   2.378 -0.5115 -0.5126  0.6635
  567MOL0     C76425   2.632  -0.192   2.326  0.1051  0.2475 -0.1971
  567MOL0     C76426   2.682  -0.201   2.188 -0.5791 -0.9520  0.1642
  567MOL0     N76427   2.729  -0.342   2.151  0.1388  0.3226 -1.5144
  567MOL0     C76428   2.838  -0.410   2.209 -0.2057 -0.3273 -0.2546
  567MOL0     C76429   2.815  -0.542   2.170  0.2594 -0.6483 -0.5840
  567MOL0     C76430   2.904  -0.661   2.203 -0.3871  0.3501 -0.6758
  567MOL0     C76431   2.971  -0.720   2.082 -0.3350  0.0553 -0.2192
  567MOL0     C76432   2.883  -0.757   1.965  0.0928 -0.4573 -0.2102
  567MOL0     C76433   2.951  -0.878   1.901 -0.3542 -0.5793 -0.0711
  567MOL0     O76434   3.072  -0.842   1.835  0.2163  0.0480 -1.2105
  567MOL0     C76435   3.175  -0.910   1.890 -0.2840  0.1627 -0.4395
  567MOL0     C76436   3.174  -1.052   1.895  0.0992 -0.0715  0.6694
  567MOL0     C76437   3.278  -1.121   1.958  0.9973 -0.2597  0.5979
  567MOL0     C76438   3.376  -1.048   2.028 -0.7773  0.3697 -0.1895
  567MOL0     C76439   3.475  -1.127   2.089 -0.1401  0.0790 -0.6290
  567MOL0     O76440   3.606  -1.085   2.053 -0.1963  1.2364 -0.1861
  567MOL0     C76441   3.717  -1.136   2.101 -0.3512 -0.8445 -0.2787
  567MOL0     C76442   3.800  -1.050   2.173  0.4065  0.1295 -0.1129
  567MOL0     C76443   3.892  -1.112   2.254  0.0063  0.3763  0.4374
  567MOL0     C76444   3.935  -1.248   2.235  0.7000 -0.9708 -0.9054
  567MOL0     O76445   4.056  -1.305   2.280 -0.6451 -0.0104  0.2803
  567MOL0     C76446   4.112  -1.272   2.404  0.2614 -0.0512 -0.0543
  567MOL0     C76447   4.242  -1.345   2.416 -0.0060  0.5621  0.0626
  567MOL0     C76448   4.338  -1.312   2.304 -0.7596 -0.2220  0.6945
  567MOL0     C76449   4.468  -1.385   2.318  0.2703 -0.1037  0.5851
  567MOL0     C76450   4.555  -1.367   2.197 -0.1060 -0.6169 -0.8043
  567MOL0     C76451   4.700  -1.401   2.220 -0.5455 -0.7062 -0.3819
  567MOL0     C76452   4.726  -1.560   2.238 -0.0584 -0.5334 -0.7643
  567MOL0     C76453   4.877  -1.599   2.250  0.4148  0.3018  0.6309
  567MOL0    Cl76454   4.961  -1.509   2.383 -0.0182 -0.2546  0.3124
  567MOL0     C76455   3.850  -1.324   2.153 -0.0789  0.0474 -0.5601
  567MOL0     C76456   3.741  -1.274   2.085  0.0924  0.2224 -0.6627
  567MOL0     O76457   3.446  -1.227   2.149 -0.0241  0.9979  0.7697
  567MOL0     C76458   3.388  -0.907   2.021  0.3621  0.0900  0.3530
  567MOL0     C76459   3.280  -0.840   1.954 -0.2372 -0.9735 -0.5013
  567MOL0     N76460   2.690  -0.552   2.116  0.3160  0.6734  0.1034
  567MOL0     N76461   2.643  -0.431   2.107  0.1882 -0.1596 -0.0954
  567MOL0     C76462   2.685   0.793   2.450 -0.4914  1.2445  1.6247
  567MOL0     C76463   2.779   0.896   2.436  0.2424  0.7867 -0.0289
  567MOL0     C76464   3.134   1.155   2.206 -0.2323  0.7103  0.0550
  567MOL0     C76465   3.158   1.204   2.076 -0.3954  0.6642  0.0841
  567MOL0     C76466   3.236   1.323   2.056  0.3134  0.7863  0.6219
  567MOL0     C76467   3.294   1.392   2.161  0.0897  0.5099 -0.6293
  567MOL0     O76468   3.365   1.512   2.158  0.5292 -0.4092  0.4268
  567MOL0     C76469   3.344   1.604   2.047 -0.4631  0.2976  0.3782
  567MOL0     C76470   3.485   1.636   1.988 -0.3610  0.8765 -0.4925
  567MOL0     C76471   3.484   1.717   1.853 -0.2693  0.3111 -0.1331
  567MOL0     C76472   3.590   1.676   1.743  0.7292 -0.3453 -2.0565
  567MOL0     C76473   3.733   1.686   1.784 -1.0012 -0.3899 -0.0318
  567MOL0     C76474   3.852   1.701   1.824  0.4650  0.1976 -0.3986
  567MOL0     C76475   3.270   1.337   2.289 -0.0905  0.0577  0.3135
  567MOL0     C76476   3.201   1.220   2.320 -0.5267 -0.2960  1.2802
  567MOL0     C76477   3.169   1.184   2.458 -0.9818 -0.0196  0.7581
  567MOL0     H76478   2.820   0.909   2.102  2.0427  2.6716  1.3488
  567MOL0     H76479   2.684   0.707   2.117  1.9526 -2.6049  0.7138
  567MOL0     H76480   2.526   0.543   2.162  1.0424 -0.8979 -0.4517
  567MOL0     H76481   2.688   0.469   2.185  0.7107 -3.8275  0.3244
  567MOL0     H76482   2.417   0.374   2.225  1.4826 -2.0218 -0.9542
  567MOL0     H76483   2.479   0.396   2.384  0.8100 -1.4620  0.1281
  567MOL0     H76484   2.671   0.233   2.228  1.1215 -0.2268  2.0343
  567MOL0     H76485   2.505   0.177   2.219  0.2643  1.3574 -1.4899
  567MOL0     H76486   2.652   0.245   2.487  0.4083 -0.7917 -0.8451
  567MOL0     H76487   2.496   0.168   2.464  1.2482 -0.8186  2.1878
  567MOL0     H76488   2.739   0.039   2.335  1.7778 -0.3312  1.4525
  567MOL0     H76489   2.701   0.021   2.510  0.0697  2.5994  1.1153
  567MOL0     H76490   2.490  -0.089   2.460 -0.7073 -2.7810 -0.1594
  567MOL0     H76491   2.497  -0.021   2.298  1.8279 -0.8946 -1.4487
  567MOL0     H76492   2.560  -0.275   2.332 -1.1245  1.3586  0.9705
  567MOL0     H76493   2.705  -0.217   2.403  0.9807  0.8757 -0.8060
  567MOL0     H76494   2.595  -0.183   2.124 -1.4916  0.6898  1.7526
  567MOL0     H76495   2.760  -0.124   2.179 -0.9374 -0.5082  0.8118
  567MOL0     H76496   2.928  -0.377   2.259  0.3531 -1.0365 -0.7734
  567MOL0     H76497   2.983  -0.611   2.258 -0.4673  3.5633 -3.1992
  567MOL0     H76498   2.841  -0.739   2.248 -1.6652 -0.4206 -3.5716
  567MOL0     H76499   3.056  -0.660   2.050  0.8081  0.1833  2.7335
  567MOL0     H76500   3.006  -0.808   2.136  2.1623  0.9670 -0.2424
  567MOL0     H76501   2.872  -0.668   1.902 -1.5405  0.1522  0.8582
  567MOL0     H76502   2.785  -0.786   2.006 -0.4599 -3.1415 -3.0887
  567MOL0     H76503   2.892  -0.944   1.836  2.9404 -2.0746 -1.7897
  567MOL0     H76504   2.972  -0.943   1.986 -0.9155  0.1031  0.6090
  567MOL0     H76505   3.088  -1.094   1.843  0.9631 -2.3861  1.0008
  567MOL0     H76506   3.272  -1.229   1.950  1.9266 -0.1826 -3.3424
  567MOL0     H76507   3.788  -0.942   2.176  2.5185  0.5761 -3.1879
  567MOL0     H76508   3.952  -1.054   2.324 -0.1322  1.3770 -0.2444
  567MOL0     H76509   4.124  -1.163   2.401 -0.1590 -0.0258 -1.5414
  567MOL0     H76510   4.043  -1.312   2.479  0.2716  1.0251  0.5546
  567MOL0     H76511   4.298  -1.307   2.502 -1.5291 -0.4813  1.5741
  567MOL0     H76512   4.230  -1.452   2.433  0.6325  0.7442  1.8408
  567MOL0     H76513   4.303  -1.344   2.205 -0.8789  0.5270  0.4877
  567MOL0     H76514   4.347  -1.203   2.295  2.1435 -0.3545  0.8439
  567MOL0     H76515   4.438  -1.490   2.318 -1.1874  0.1490 -2.9886
  567MOL0     H76516   4.518  -1.362   2.412  3.0926  0.5546 -0.9639
  567MOL0     H76517   4.561  -1.260   2.177 -0.9592 -0.3133  0.3909
  567MOL0     H76518   4.528  -1.418   2.104  0.7347 -1.7655 -0.4379
  567MOL0     H76519   4.757  -1.362   2.135 -0.2567  0.6773  0.4300
  567MOL0     H76520   4.739  -1.338   2.300 -2.3263  1.3186 -1.0223
  567MOL0     H76521   4.686  -1.613   2.151  0.5617 -3.6279  0.6769
  567MOL0     H76522   4.678  -1.596   2.329  2.5925  2.5303  2.1293
  567MOL0     H76523   4.885  -1.705   2.279  1.0377  0.1019 -0.2197
  567MOL0     H76524   4.931  -1.587   2.155 -0.8746 -2.7183 -0.6402
  567MOL0     H76525   3.878  -1.429   2.142  1.5156  0.1552  1.8320
  567MOL0     H76526   3.668  -1.339   2.038  1.7032 -0.3994 -2.4005
  567MOL0     H76527   3.472  -0.862   2.074 -1.0382  2.2888  0.8210
  567MOL0     H76528   3.276  -0.731   1.950 -0.0511 -0.9839 -1.0854
  567MOL0     H76529   2.648   0.786   2.552  0.5824  3.1184  2.1987
  567MOL0     H76530   2.818   0.948   2.523  0.6686  0.6358 -0.1283
  567MOL0     H76531   3.126   1.141   1.994  0.5064 -0.4043  0.5354
  567MOL0     H76532   3.258   1.353   1.954  1.4254  0.5360  0.7745
  567MOL0     H76533   3.283   1.692   2.069  1.3536  1.8029 -0.3473
  567MOL0     H76534   3.293   1.544   1.970  0.7389 -0.5231  0.1956
  567MOL0     H76535   3.534   1.538   1.988 -0.6889  0.7018  0.4355
  567MOL0     H76536   3.541   1.680   2.070  1.1079 -2.8414  0.7045
  567MOL0     H76537   3.506   1.822   1.872  0.4898  0.4096 -1.4071
  567MOL0     H76538   3.385   1.718   1.805 -1.0828 -1.5785  1.3515
  567MOL0     H76539   3.567   1.573   1.712  1.6906 -1.3555  0.3156
  567MOL0     H76540   3.574   1.749   1.664 -1.4863  1.3776 -0.1571
  567MOL0     H76541   3.946   1.714   1.874  2.2090 -1.2027 -3.0599
  567MOL0     H76542   3.311   1.392   2.373  2.9397 -2.2234  0.5309
  567MOL0     H76543   3.166   1.076   2.476 -1.0263 -0.4122 -1.4147
  567MOL0     H76544   3.218   1.238   2.540 -0.1566  0.1335  0.1769
  567MOL0     H76545   3.067   1.222   2.466 -0.1777  2.5681 -0.2565
  568MOL0     O76546   9.599  10.599   9.192 -0.4160  0.6665 -0.7751
  568MOL0     C76547   9.590  10.559   9.311  0.2317 -0.3801 -0.8631
  568MOL0     O76548   9.586  10.428   9.345 -0.2469  0.0694  0.3857
  568MOL0     C76549   9.571  10.335   9.244 -0.3457  0.5393  0.0729
  568MOL0     C76550   9.448  10.275   9.236 -0.4119 -0.1273 -0.6083
  568MOL0     C76551   9.411  10.218   9.119 -0.6793 -1.0825 -0.1835
  568MOL0     C76552   9.491  10.198   9.012  0.2963  0.6844 -0.0551
  568MOL0     O76553   9.442  10.133   8.902 -0.1125 -0.3858 -0.3054
  568MOL0     C76554   9.502  10.126   8.775 -0.1563  0.0356 -0.8079
  568MOL0     C76555   9.443  10.004   8.699  0.7560 -0.0447  0.1413
  568MOL0     C76556   9.459   9.869   8.759  0.6519  0.4938 -0.1780
  568MOL0     C76557   9.379   9.745   8.691 -0.4337 -0.2114 -0.5013
  568MOL0     C76558   9.388   9.603   8.759  0.5481 -0.2426  0.3605
  568MOL0     C76559   9.522   9.533   8.735  0.1224 -0.4224 -0.5112
  568MOL0     C76560   9.568   9.505   8.581 -0.1425 -0.4069  0.3082
  568MOL0     C76561   9.473   9.388   8.533 -0.3777 -0.2682  0.0789
  568MOL0     N76562   9.517   9.266   8.589 -0.4806 -0.3836 -0.4692
  568MOL0     C76563   9.631   9.192   8.541 -0.1909 -0.0659 -0.1341
  568MOL0     C76564   9.618   9.068   8.604 -0.1359 -0.3424  0.5969
  568MOL0     C76565   9.722   8.951   8.577 -0.6646  0.7804  0.0331
  568MOL0     C76566   9.756   8.921   8.428 -0.1118  0.2816  0.9152
  568MOL0     C76567   9.631   8.909   8.338  0.1998  0.2474  0.1960
  568MOL0     C76568   9.540   8.808   8.393  0.7178  0.8408  0.4000
  568MOL0     O76569   9.463   8.768   8.284  0.3001  0.6232  0.3366
  568MOL0     C76570   9.359   8.852   8.255 -0.2944  0.0970  0.5795
  568MOL0     C76571   9.312   8.839   8.126 -0.0611 -0.3962 -0.3578
  568MOL0     C76572   9.215   8.931   8.077  1.5580 -0.3897  0.6298
  568MOL0     C76573   9.169   9.046   8.150  0.5607 -0.8836  0.8276
  568MOL0     C76574   9.063   9.121   8.095  0.0984 -0.2823 -0.8375
  568MOL0     O76575   9.034   9.099   7.966  0.2751 -0.0484  0.3329
  568MOL0     C76576   8.938   9.173   7.897  0.2099 -0.0088 -0.2060
  568MOL0     C76577   8.839   9.110   7.817 -1.3444 -0.3802  0.4358
  568MOL0     C76578   8.737   9.181   7.757 -0.4299 -0.1570 -0.3025
  568MOL0     C76579   8.733   9.321   7.752 -0.2488 -0.2135  0.6134
  568MOL0     O76580   8.620   9.392   7.705  0.0199  0.3319  0.1712
  568MOL0     C76581   8.549   9.334   7.591 -0.2291 -0.8562 -0.6326
  568MOL0     C76582   8.459   9.451   7.538 -0.3967  0.1285 -0.8630
  568MOL0     C76583   8.341   9.477   7.635 -0.1725 -0.4413  0.3913
  568MOL0     C76584   8.255   9.599   7.591  0.6743  0.0065  0.0425
  568MOL0     C76585   8.122   9.626   7.671  0.2549 -0.5448  0.1137
  568MOL0     C76586   8.139   9.620   7.821 -0.4817 -0.3810  0.1793
  568MOL0     C76587   8.009   9.623   7.901  0.2793  0.2642 -0.5582
  568MOL0     C76588   7.951   9.768   7.916  0.0380 -0.9519  0.5066
  568MOL0    Cl76589   7.784   9.760   7.975  0.3361 -0.3591 -0.5769
  568MOL0     C76590   8.835   9.385   7.830 -0.8251 -0.2137  0.3112
  568MOL0     C76591   8.938   9.312   7.899 -0.8431 -0.3998  0.3134
  568MOL0     O76592   9.003   9.196   8.175 -0.4992 -0.7617  0.1566
  568MOL0     C76593   9.227   9.073   8.269 -0.6848  1.4143 -0.0370
  568MOL0     C76594   9.314   8.976   8.322 -0.5830 -0.1465  0.1139
  568MOL0     N76595   9.503   9.063   8.672  0.3848  0.5580 -0.0406
  568MOL0     N76596   9.437   9.178   8.668 -0.2101  0.5330 -0.0194
  568MOL0     C76597   9.626  10.243   9.025 -0.5362 -0.0442  0.2919
  568MOL0     C76598   9.669  10.302   9.143  0.0170 -0.5834  0.8829
  568MOL0     C76599   9.624  10.660   9.417 -0.1043 -0.4859  0.3334
  568MOL0     C76600   9.663  10.791   9.370 -0.7007  0.1783 -0.8342
  568MOL0     C76601   9.686  10.892   9.461  0.0002  0.1505 -0.8735
  568MOL0     C76602   9.650  10.884   9.597 -0.5355 -0.5385 -0.1468
  568MOL0     O76603   9.645  11.000   9.661  0.2264 -0.5635  0.4661
  568MOL0     C76604   9.633  10.988   9.802  0.0735 -0.5449 -0.0947
  568MOL0     C76605   9.669  11.121   9.862  0.6117  0.4418 -0.6166
  568MOL0     C76606   9.634  11.134  10.015 -0.3166 -0.3757  0.3322
  568MOL0     C76607   9.766  11.115  10.102 -0.1175 -0.2962  1.3722
  568MOL0     C76608   9.870  11.213  10.086 -0.2774  0.3096 -0.9495
  568MOL0     C76609   9.937  11.316  10.063 -0.0693 -0.0423 -0.0245
  568MOL0     C76610   9.610  10.757   9.644 -0.0803  0.1488  0.7770
  568MOL0     C76611   9.598  10.636   9.561 -0.3065  1.2327 -0.5227
  568MOL0     C76612   9.557  10.504   9.625  0.8140  0.6230  0.0260
  568MOL0     H76613   9.375  10.288   9.316 -0.0646 -3.3283  0.3797
  568MOL0     H76614   9.310  10.179   9.115 -0.9197 -0.9133  2.5274
  568MOL0     H76615   9.477  10.211   8.711  1.3572 -0.4921 -2.1768
  568MOL0     H76616   9.610  10.110   8.783  0.2385  2.5063 -0.4299
  568MOL0     H76617   9.487   9.997   8.599  0.0856 -0.8264 -0.1150
  568MOL0     H76618   9.335  10.019   8.694  1.0434  3.1156  1.1068
  568MOL0     H76619   9.421   9.880   8.861 -0.9654  0.9328 -0.7910
  568MOL0     H76620   9.565   9.843   8.761  0.2688 -1.1944  2.0389
  568MOL0     H76621   9.274   9.772   8.701 -0.0360  1.2208 -0.0110
  568MOL0     H76622   9.415   9.733   8.588  4.8733 -2.0184  1.2460
  568MOL0     H76623   9.386   9.615   8.868  0.0385 -2.4400  0.6409
  568MOL0     H76624   9.304   9.540   8.728 -0.6705  1.2166  0.6138
  568MOL0     H76625   9.597   9.595   8.784 -0.8419 -0.0458  0.5471
  568MOL0     H76626   9.530   9.436   8.784  1.5803  0.7620  1.8170
  568MOL0     H76627   9.672   9.469   8.586  0.8671  2.3235  1.0325
  568MOL0     H76628   9.566   9.590   8.511  1.7195 -1.8911 -1.6825
  568MOL0     H76629   9.375   9.414   8.575  0.2168  1.2909  0.5810
  568MOL0     H76630   9.456   9.380   8.425  0.0372 -2.9974  0.1281
  568MOL0     H76631   9.706   9.230   8.473 -0.0742  2.5998  1.3294
  568MOL0     H76632   9.809   8.982   8.635  0.3264  0.7866 -1.4127
  568MOL0     H76633   9.679   8.862   8.624 -0.3831  0.0467 -1.0510
  568MOL0     H76634   9.823   8.995   8.384  0.2544 -0.7045 -0.2299
  568MOL0     H76635   9.816   8.829   8.426 -1.2248 -0.5151  2.3624
  568MOL0     H76636   9.666   8.895   8.236  0.5089  3.0273 -0.1661
  568MOL0     H76637   9.576   9.004   8.339 -2.3208 -1.1353 -0.1432
  568MOL0     H76638   9.480   8.849   8.474 -2.5298  1.8436 -2.2763
  568MOL0     H76639   9.599   8.721   8.424 -0.9478 -0.3476  0.3550
  568MOL0     H76640   9.352   8.758   8.066  3.5109  0.0362  1.1775
  568MOL0     H76641   9.188   8.910   7.974  0.2193  0.1851  0.8481
  568MOL0     H76642   8.840   9.002   7.800  2.1715 -0.2229 -1.3476
  568MOL0     H76643   8.656   9.130   7.707 -0.5495 -3.8698  3.1756
  568MOL0     H76644   8.618   9.309   7.510 -1.4314  2.3445 -2.8641
  568MOL0     H76645   8.485   9.250   7.618 -4.5518  1.2795 -3.0937
  568MOL0     H76646   8.523   9.539   7.525 -2.0285  0.9398 -4.6325
  568MOL0     H76647   8.428   9.427   7.436 -0.4752 -0.1357 -0.7797
  568MOL0     H76648   8.277   9.392   7.658 -1.3123  0.0680 -0.7580
  568MOL0     H76649   8.381   9.505   7.732  0.0066 -0.1997  0.2508
  568MOL0     H76650   8.234   9.580   7.486  0.2639  2.2202 -0.3035
  568MOL0     H76651   8.307   9.695   7.592 -2.5077  1.8799  1.0898
  568MOL0     H76652   8.053   9.553   7.629 -0.5617 -0.0945  0.6586
  568MOL0     H76653   8.079   9.722   7.644 -0.0086 -1.5156 -3.4571
  568MOL0     H76654   8.196   9.530   7.847 -0.9519 -0.0143  2.7248
  568MOL0     H76655   8.196   9.708   7.853  0.4763  0.0962 -2.5638
  568MOL0     H76656   8.041   9.596   8.002 -0.7879 -1.6506 -0.6811
  568MOL0     H76657   7.939   9.549   7.863 -2.0418  1.2579  1.4982
  568MOL0     H76658   8.022   9.819   7.981 -1.1866 -0.0482  1.1704
  568MOL0     H76659   7.951   9.815   7.817  0.7394 -3.0236 -0.5547
  568MOL0     H76660   8.827   9.493   7.824 -3.9781 -0.1980  2.5294
  568MOL0     H76661   9.013   9.362   7.960  1.4917 -1.3718 -1.6122
  568MOL0     H76662   9.208   9.173   8.308  3.3890  1.2567  2.9692
  568MOL0     H76663   9.367   9.005   8.412 -0.0189 -0.8061 -0.0038
  568MOL0     H76664   9.693  10.218   8.943  0.8748 -1.6472  1.8465
  568MOL0     H76665   9.772  10.332   9.160  0.2729 -0.7902 -0.2207
  568MOL0     H76666   9.661  10.844   9.276 -0.0858  3.3992  0.8292
  568MOL0     H76667   9.703  10.989   9.416  1.2629  0.4200  0.1358
  568MOL0     H76668   9.706  10.918   9.844  0.5282 -0.5750 -0.9117
  568MOL0     H76669   9.530  10.958   9.823  0.1019  0.7647  2.1699
  568MOL0     H76670   9.620  11.203   9.809  3.1357  1.4842 -1.5049
  568MOL0     H76671   9.776  11.124   9.837  1.1671 -1.6971  1.1487
  568MOL0     H76672   9.559  11.055  10.030 -2.5437  1.2039 -1.8007
  568MOL0     H76673   9.592  11.232  10.040  1.0383  1.6681 -4.2461
  568MOL0     H76674   9.740  11.110  10.208  4.5287 -3.4473  2.6482
  568MOL0     H76675   9.806  11.020  10.065 -0.2695  0.5122 -0.9902
  568MOL0     H76676   9.980  11.409  10.034  1.3101 -0.5406  0.3708
  568MOL0     H76677   9.583  10.736   9.747 -0.2320  0.3739  0.7833
  568MOL0     H76678   9.646  10.442   9.616  1.0276  1.0789 -1.2888
  568MOL0     H76679   9.537  10.496   9.732 -4.0237  1.8370 -0.5543
  568MOL0     H76680   9.467  10.459   9.584  0.2821 -0.1940  1.9695
  569MOL0     O76681   9.146   7.562   4.710  1.0449  0.6218 -0.6509
  569MOL0     C76682   9.090   7.643   4.789 -0.5426 -0.0750  1.0258
  569MOL0     O76683   9.051   7.604   4.919 -0.1374  0.1168  0.5829
  569MOL0     C76684   9.092   7.478   4.959 -0.5995 -0.1939 -0.4029
  569MOL0     C76685   9.026   7.365   4.918  1.3781  0.1922 -0.5626
  569MOL0     C76686   9.058   7.248   4.978  0.0789 -0.3616 -0.4500
  569MOL0     C76687   9.169   7.235   5.074  0.6230 -0.3425  0.4240
  569MOL0     O76688   9.183   7.116   5.143 -0.6437 -0.5346  0.3154
  569MOL0     C76689   9.314   7.081   5.191  0.0479  1.2393  0.9040
  569MOL0     C76690   9.392   6.995   5.084  0.5403  0.3644  0.5273
  569MOL0     C76691   9.289   6.902   4.998 -0.0239  0.2001  0.4007
  569MOL0     C76692   9.285   6.753   5.054 -0.6361 -0.5773 -0.1159
  569MOL0     C76693   9.260   6.733   5.202  0.0774  0.3075  0.3509
  569MOL0     C76694   9.119   6.792   5.238  0.5571  0.9493 -0.4952
  569MOL0     C76695   9.078   6.763   5.389  0.1094  0.4343  0.0368
  569MOL0     C76696   8.959   6.836   5.448  0.5905 -0.7876  0.1712
  569MOL0     N76697   8.846   6.815   5.362  0.9015  0.4658  0.1450
  569MOL0     C76698   8.821   6.858   5.227  0.5634 -0.1238 -0.1891
  569MOL0     C76699   8.690   6.832   5.200 -0.1578 -0.1448 -0.8399
  569MOL0     C76700   8.610   6.863   5.078 -0.6660 -1.1408  0.1774
  569MOL0     C76701   8.485   6.950   5.117  0.2399  1.1492 -0.1885
  569MOL0     C76702   8.366   6.863   5.161 -0.1725 -0.3063  0.0234
  569MOL0     C76703   8.227   6.935   5.191  0.1013  1.1418  0.2918
  569MOL0     O76704   8.191   7.004   5.072 -0.4626 -0.4089  0.2888
  569MOL0     C76705   8.052   7.028   5.054  0.9261  0.0952 -0.6417
  569MOL0     C76706   8.021   7.076   4.926  0.3864 -0.6239 -0.2323
  569MOL0     C76707   7.887   7.108   4.892 -0.0069 -0.0063  0.3241
  569MOL0     C76708   7.778   7.088   4.986 -0.5347  0.7107 -1.0698
  569MOL0     C76709   7.637   7.132   4.962 -0.0048 -0.3433  0.1436
  569MOL0     O76710   7.551   7.101   5.069  1.2070 -0.6401 -0.3952
  569MOL0     C76711   7.418   7.135   5.052 -0.1889 -0.6860 -0.3767
  569MOL0     C76712   7.315   7.035   5.075 -0.0256 -0.1620  0.7116
  569MOL0     C76713   7.186   7.065   5.048  0.0673 -0.4224 -0.5755
  569MOL0     C76714   7.145   7.192   5.026 -0.6380 -0.4067  0.6198
  569MOL0     O76715   7.014   7.225   5.012  0.5327  0.5036 -0.7649
  569MOL0     C76716   6.908   7.147   5.077 -0.9388 -0.2699  0.1686
  569MOL0     C76717   6.923   7.158   5.231 -0.0747  0.5515 -0.3938
  569MOL0     C76718   6.906   7.299   5.282 -0.0292 -0.0361  0.1822
  569MOL0     C76719   6.906   7.286   5.433 -0.0783 -0.4934 -0.4744
  569MOL0     C76720   6.969   7.397   5.519 -0.7205 -0.0163  0.6788
  569MOL0     C76721   6.931   7.393   5.668  0.1099 -0.1011 -0.6646
  569MOL0     C76722   6.964   7.525   5.738  0.6708  0.0191 -0.4092
  569MOL0     C76723   6.958   7.505   5.890 -0.2577 -0.2417  0.4599
  569MOL0    Cl76724   7.033   7.653   5.963  0.1128 -0.0061  0.3977
  569MOL0     C76725   7.244   7.289   5.011  0.6742 -0.8314 -0.6367
  569MOL0     C76726   7.382   7.269   5.031  0.2819  0.0843  0.0611
  569MOL0     O76727   7.606   7.185   4.854  0.2869 -0.3856 -0.6057
  569MOL0     C76728   7.816   7.047   5.123 -1.1459  0.9573  1.3208
  569MOL0     C76729   7.950   7.026   5.151 -0.0477 -0.4115  0.0970
  569MOL0     N76730   8.645   6.744   5.306 -0.0152 -1.3400 -0.0097
  569MOL0     N76731   8.736   6.737   5.397  0.0147  0.1088 -0.6786
  569MOL0     C76732   9.227   7.358   5.108 -0.0038 -0.3470 -0.0296
  569MOL0     C76733   9.196   7.476   5.050 -1.0515 -0.5189  0.6410
  569MOL0     C76734   9.059   7.773   4.736 -0.2286  0.4773  0.6431
  569MOL0     C76735   9.020   7.872   4.826  0.4860 -0.2544  0.5272
  569MOL0     C76736   9.013   8.008   4.798 -0.3950 -0.5038  0.5034
  569MOL0     C76737   9.058   8.049   4.675 -0.2792 -0.2173 -0.7933
  569MOL0     O76738   9.055   8.181   4.669  0.2397 -0.1709  0.5507
  569MOL0     C76739   9.180   8.258   4.664  0.0776  0.3748 -0.6727
  569MOL0     C76740   9.187   8.340   4.542  0.5774 -0.3839  0.3887
  569MOL0     C76741   9.335   8.396   4.521 -0.0242 -0.2022  0.3619
  569MOL0     C76742   9.350   8.523   4.433 -0.0581 -0.2290 -0.3494
  569MOL0     C76743   9.309   8.487   4.293 -0.1255 -0.7680 -0.2060
  569MOL0     C76744   9.258   8.480   4.183 -0.0427  0.6255 -0.5585
  569MOL0     C76745   9.096   7.961   4.583 -0.4751  0.3704  0.1472
  569MOL0     C76746   9.103   7.820   4.605  0.1797 -0.4555 -0.1254
  569MOL0     C76747   9.158   7.736   4.495 -0.6283 -0.1902 -0.2680
  569MOL0     H76748   8.945   7.371   4.847 -0.1569  1.4210  1.1939
  569MOL0     H76749   8.999   7.158   4.973 -0.7878  0.2552 -1.9732
  569MOL0     H76750   9.375   7.170   5.206 -0.7357  2.4848 -2.2695
  569MOL0     H76751   9.303   7.022   5.282 -3.0563  1.3381  0.7085
  569MOL0     H76752   9.477   6.941   5.128  0.9603  0.5817  0.0095
  569MOL0     H76753   9.428   7.070   5.013 -1.6378  0.2446 -0.7723
  569MOL0     H76754   9.320   6.896   4.893 -2.2362  1.2078 -0.3778
  569MOL0     H76755   9.189   6.946   4.997  0.7044  2.3276 -4.3219
  569MOL0     H76756   9.214   6.698   4.991 -1.5386  2.1282 -1.6366
  569MOL0     H76757   9.380   6.707   5.024 -1.1218 -1.9181  0.3039
  569MOL0     H76758   9.258   6.624   5.213 -1.3702  0.2629 -0.1357
  569MOL0     H76759   9.337   6.770   5.270 -1.3668  0.4762  1.9597
  569MOL0     H76760   9.119   6.898   5.212  2.9044  0.2912 -3.7850
  569MOL0     H76761   9.049   6.743   5.170  3.2292 -0.8179 -2.2015
  569MOL0     H76762   9.161   6.786   5.457  0.4959 -1.1051  0.1222
  569MOL0     H76763   9.047   6.659   5.407 -1.6920  0.7827 -0.8312
  569MOL0     H76764   8.943   6.801   5.550 -0.1737  0.0698  0.3643
  569MOL0     H76765   8.980   6.943   5.451 -0.3984 -0.5973  3.6264
  569MOL0     H76766   8.894   6.903   5.161  0.7228 -1.5574 -1.0083
  569MOL0     H76767   8.668   6.905   4.996  0.8114 -1.7263  0.8967
  569MOL0     H76768   8.580   6.764   5.043  1.1668 -1.0366 -1.9210
  569MOL0     H76769   8.509   7.017   5.200  0.9238  2.1553 -1.1669
  569MOL0     H76770   8.460   7.002   5.024  2.4771  1.7395 -0.5429
  569MOL0     H76771   8.396   6.811   5.252 -1.6490  1.2185  1.4562
  569MOL0     H76772   8.351   6.788   5.082  1.2767 -1.2589  0.6110
  569MOL0     H76773   8.248   6.991   5.283  0.5683 -3.5186  3.4428
  569MOL0     H76774   8.143   6.868   5.213 -2.3505  4.1383  0.6151
  569MOL0     H76775   8.092   7.079   4.843  0.5063  0.2778 -0.1071
  569MOL0     H76776   7.862   7.146   4.793 -0.7599 -1.5163 -0.0906
  569MOL0     H76777   7.341   6.937   5.114 -1.8362 -0.4044  1.3834
  569MOL0     H76778   7.118   6.982   5.066  2.9224 -2.7286  0.5303
  569MOL0     H76779   6.808   7.181   5.049 -1.4262 -1.8888 -0.2023
  569MOL0     H76780   6.914   7.042   5.046  0.5036 -0.2028  0.1681
  569MOL0     H76781   6.843   7.099   5.277  2.3867 -0.5848  2.7656
  569MOL0     H76782   7.021   7.115   5.255 -0.1138 -0.8699 -2.5518
  569MOL0     H76783   6.983   7.365   5.241  1.2866 -1.4873  0.2365
  569MOL0     H76784   6.811   7.345   5.253 -1.0273 -0.1710  2.9324
  569MOL0     H76785   6.953   7.192   5.464  1.7652 -0.3922 -2.6664
  569MOL0     H76786   6.802   7.277   5.466  0.0623 -1.6951 -0.3023
  569MOL0     H76787   6.928   7.492   5.483 -1.2770 -0.1737  0.8831
  569MOL0     H76788   7.075   7.407   5.493 -1.0115 -1.0987 -1.1225
  569MOL0     H76789   6.825   7.367   5.678  0.3851 -0.7463  0.7397
  569MOL0     H76790   6.984   7.310   5.714 -1.6565  0.9656  3.8650
  569MOL0     H76791   6.886   7.597   5.710 -0.3781 -0.6661  0.6545
  569MOL0     H76792   7.060   7.561   5.699  1.3383 -1.1860  0.0772
  569MOL0     H76793   6.857   7.489   5.929 -0.6637  0.7139 -0.1545
  569MOL0     H76794   7.018   7.416   5.911 -2.3321 -1.5109  1.2441
  569MOL0     H76795   7.192   7.381   4.989 -0.0362 -1.4814 -1.7901
  569MOL0     H76796   7.461   7.342   5.018  1.2963 -1.0574 -0.3329
  569MOL0     H76797   7.738   7.034   5.197 -1.8367  0.0603  0.4601
  569MOL0     H76798   7.977   7.010   5.255  3.1878  0.7183 -0.4297
  569MOL0     H76799   9.303   7.361   5.185  2.0321 -3.9963 -1.6252
  569MOL0     H76800   9.238   7.571   5.081  0.2468 -1.1374  0.8578
  569MOL0     H76801   8.978   7.842   4.922 -3.4104 -0.1715 -0.9429
  569MOL0     H76802   8.982   8.071   4.881  3.4054  2.1200  0.1651
  569MOL0     H76803   9.266   8.191   4.653 -2.3019 -2.8583 -0.9819
  569MOL0     H76804   9.173   8.310   4.759 -0.9668 -0.7227 -0.1225
  569MOL0     H76805   9.123   8.428   4.550 -0.7589 -0.9717 -2.5815
  569MOL0     H76806   9.161   8.281   4.454  0.4072  1.3058 -0.7565
  569MOL0     H76807   9.403   8.320   4.481  1.5907  0.9484  0.8255
  569MOL0     H76808   9.368   8.420   4.623 -1.1712  0.7562  0.5269
  569MOL0     H76809   9.277   8.595   4.469 -1.4670 -2.6097  1.8611
  569MOL0     H76810   9.453   8.558   4.448 -0.5345  1.2023 -0.2316
  569MOL0     H76811   9.213   8.471   4.086  4.4073  2.1127 -3.0497
  569MOL0     H76812   9.135   7.999   4.489 -0.5419 -2.2719 -1.0484
  569MOL0     H76813   9.082   7.661   4.471  1.4223 -3.0713  1.5667
  569MOL0     H76814   9.173   7.801   4.409  2.9336  1.2208  1.2481
  569MOL0     H76815   9.246   7.682   4.533 -1.4449 -0.2773  1.6474
  570MOL0     O76816   1.568   8.478   6.157 -0.9119 -0.3583 -0.4573
  570MOL0     C76817   1.694   8.459   6.143  0.5215 -0.8261  0.8647
  570MOL0     O76818   1.757   8.338   6.161 -0.4108  0.2304  0.3285
  570MOL0     C76819   1.704   8.225   6.211 -0.3192 -0.3080 -0.0378
  570MOL0     C76820   1.580   8.210   6.283  0.4076 -0.3997 -0.7015
  570MOL0     C76821   1.545   8.084   6.339  0.5508 -1.2253 -0.1746
  570MOL0     C76822   1.635   7.976   6.336 -0.7505 -0.5869 -0.1438
  570MOL0     O76823   1.615   7.865   6.407 -0.1565  0.1160  0.3474
  570MOL0     C76824   1.483   7.809   6.394  0.2355  0.7559  0.1484
  570MOL0     C76825   1.471   7.758   6.252  0.0144 -0.0124 -0.2962
  570MOL0     C76826   1.327   7.697   6.231 -0.2825  0.8635  0.4658
  570MOL0     C76827   1.296   7.638   6.089  0.0961 -0.6399 -1.5297
  570MOL0     C76828   1.201   7.528   6.097  1.3238 -0.5017 -0.7222
  570MOL0     C76829   1.262   7.405   6.158 -0.1021 -0.2804  0.9217
  570MOL0     C76830   1.153   7.292   6.165  0.0084  1.6243  0.4720
  570MOL0     C76831   1.136   7.220   6.035  0.5542  1.0388 -0.5457
  570MOL0     N76832   1.251   7.134   6.002  0.5166  0.1891 -0.0214
  570MOL0     C76833   1.359   7.172   5.923  0.3494  0.0728 -0.0955
  570MOL0     C76834   1.430   7.053   5.912  1.1052  0.4573  0.8178
  570MOL0     C76835   1.552   7.035   5.823 -0.2841  0.2685 -1.0180
  570MOL0     C76836   1.506   6.984   5.682 -0.6419  0.8629 -0.0416
  570MOL0     C76837   1.641   6.974   5.601 -0.2492  0.1659 -0.3577
  570MOL0     C76838   1.638   6.886   5.483  0.2250 -0.2269  1.6202
  570MOL0     O76839   1.766   6.903   5.417 -0.0242  0.4085 -0.3159
  570MOL0     C76840   1.784   6.997   5.317  0.5202  0.0006  0.0369
  570MOL0     C76841   1.701   6.996   5.207 -0.0889  0.7175  0.7761
  570MOL0     C76842   1.727   7.078   5.099 -0.2910 -0.1867  0.2134
  570MOL0     C76843   1.835   7.171   5.107 -0.6404 -0.5394  0.0786
  570MOL0     C76844   1.856   7.270   4.999 -0.7618 -0.6296  1.4992
  570MOL0     O76845   1.790   7.242   4.882  0.1812 -0.1972 -0.7598
  570MOL0     C76846   1.841   7.302   4.774 -0.1542  0.7356  0.3836
  570MOL0     C76847   1.950   7.247   4.701 -0.2012  0.3232  0.7388
  570MOL0     C76848   1.996   7.313   4.587 -0.0940  0.0619 -0.2561
  570MOL0     C76849   1.940   7.432   4.544  0.4419  0.5233 -0.2469
  570MOL0     O76850   1.973   7.491   4.425  0.2085  0.7018  1.6602
  570MOL0     C76851   2.092   7.449   4.358 -0.1924 -0.2541  0.5571
  570MOL0     C76852   2.114   7.532   4.227  0.9565 -0.6788  0.0754
  570MOL0     C76853   2.259   7.593   4.218  0.7792 -0.1748  0.4365
  570MOL0     C76854   2.278   7.710   4.120  0.6302  0.0604  0.0128
  570MOL0     C76855   2.410   7.772   4.146 -0.8171  0.2394 -0.2116
  570MOL0     C76856   2.532   7.672   4.127 -0.3282  0.9066  0.2795
  570MOL0     C76857   2.677   7.737   4.163  0.9072  0.3041  0.0590
  570MOL0     C76858   2.662   7.785   4.315 -0.3566 -0.0783 -0.0773
  570MOL0    Cl76859   2.824   7.790   4.394  0.1128 -0.4067 -0.0169
  570MOL0     C76860   1.844   7.489   4.622  0.6114  0.1702 -0.1911
  570MOL0     C76861   1.790   7.425   4.733 -1.0218  0.4866 -0.4738
  570MOL0     O76862   1.933   7.367   5.010  0.1155 -0.3918 -0.7792
  570MOL0     C76863   1.912   7.171   5.227 -0.4674  1.4130 -0.7902
  570MOL0     C76864   1.894   7.080   5.332 -0.9362  0.1941 -0.6341
  570MOL0     N76865   1.370   6.957   5.989 -0.0067  0.7131  0.4396
  570MOL0     N76866   1.257   7.000   6.031 -0.1875  0.5261 -0.3900
  570MOL0     C76867   1.757   7.993   6.264 -0.0906  0.2762  0.7079
  570MOL0     C76868   1.786   8.118   6.201 -0.5108  0.7966  0.5257
  570MOL0     C76869   1.770   8.576   6.077  0.5713 -1.1129  0.1778
  570MOL0     C76870   1.907   8.584   6.095 -0.6296  0.1214  0.4912
  570MOL0     C76871   1.978   8.686   6.025  0.1120  0.6937  0.5724
  570MOL0     C76872   1.916   8.770   5.934  0.3079 -0.5331  0.0052
  570MOL0     O76873   1.977   8.882   5.876  0.5853 -0.8060 -0.3810
  570MOL0     C76874   2.100   8.860   5.803 -0.2661 -0.3272  0.6863
  570MOL0     C76875   2.080   8.878   5.654  0.3596 -0.6156 -0.2128
  570MOL0     C76876   2.032   9.022   5.619 -0.9689  1.3885  0.1495
  570MOL0     C76877   2.119   9.142   5.667  0.5703 -0.0933 -0.5208
  570MOL0     C76878   2.233   9.154   5.588 -0.5682  0.5537 -0.2048
  570MOL0     C76879   2.330   9.167   5.522  0.0489  0.3946  1.1517
  570MOL0     C76880   1.776   8.762   5.924 -0.2322  0.4079  0.5086
  570MOL0     C76881   1.699   8.674   5.991 -0.1379  0.0712 -0.1927
  570MOL0     C76882   1.548   8.682   5.967 -0.1765 -0.0511 -0.8550
  570MOL0     H76883   1.514   8.296   6.290 -0.0401 -0.8451  0.7582
  570MOL0     H76884   1.455   8.077   6.399  0.7477 -1.7041  0.0694
  570MOL0     H76885   1.472   7.720   6.458 -2.7670 -0.0055 -1.2196
  570MOL0     H76886   1.406   7.881   6.425  0.9218  1.2396  0.7467
  570MOL0     H76887   1.547   7.685   6.226 -1.8097 -2.5068  0.9962
  570MOL0     H76888   1.471   7.840   6.179 -2.8407  0.1186 -0.2783
  570MOL0     H76889   1.243   7.761   6.261 -1.8014 -1.5162  1.6484
  570MOL0     H76890   1.317   7.619   6.308 -0.9573  2.9875  2.6535
  570MOL0     H76891   1.240   7.714   6.034  1.5694 -1.2769 -4.0440
  570MOL0     H76892   1.380   7.612   6.025  0.9380  1.0560 -1.1605
  570MOL0     H76893   1.114   7.541   6.162  2.1605 -0.6895  0.4594
  570MOL0     H76894   1.149   7.512   6.002 -1.5978  2.3196  0.1931
  570MOL0     H76895   1.349   7.373   6.100 -3.6664 -0.6792 -4.9580
  570MOL0     H76896   1.295   7.409   6.263  1.7152 -1.5160  0.4507
  570MOL0     H76897   1.060   7.344   6.189 -1.2753  1.2001 -2.9726
  570MOL0     H76898   1.165   7.224   6.249 -2.7700  2.5849  1.7782
  570MOL0     H76899   1.044   7.161   6.043  1.2097  0.1113  0.3143
  570MOL0     H76900   1.118   7.287   5.950 -3.4269  1.0692  0.1214
  570MOL0     H76901   1.372   7.272   5.884  0.6451  0.5520  1.1762
  570MOL0     H76902   1.593   7.132   5.793 -2.7559  2.2109  1.3308
  570MOL0     H76903   1.624   6.969   5.872  2.2737  1.8083 -2.5360
  570MOL0     H76904   1.454   6.888   5.687 -1.7480  1.0255 -4.1973
  570MOL0     H76905   1.431   7.056   5.649 -0.2219  1.6265  0.6280
  570MOL0     H76906   1.725   6.945   5.665 -0.2949 -3.0517 -1.5775
  570MOL0     H76907   1.667   7.077   5.573  0.4811 -0.3950 -1.8698
  570MOL0     H76908   1.556   6.908   5.414  1.2596 -5.2349 -1.7644
  570MOL0     H76909   1.621   6.780   5.506 -0.7399 -0.4879 -0.1079
  570MOL0     H76910   1.610   6.937   5.216  0.7163 -0.7662 -0.4276
  570MOL0     H76911   1.656   7.078   5.016  5.2397 -0.7350 -5.2280
  570MOL0     H76912   2.002   7.157   4.732  2.1234  1.6094  0.8916
  570MOL0     H76913   2.081   7.268   4.536  0.1724  2.0454 -1.6821
  570MOL0     H76914   2.169   7.480   4.429 -1.5507 -2.7685  3.3609
  570MOL0     H76915   2.107   7.340   4.353  0.2381 -0.2227  1.0653
  570MOL0     H76916   2.094   7.466   4.141 -3.1451  2.4778 -1.7422
  570MOL0     H76917   2.036   7.608   4.221  0.1345 -1.6090 -1.9056
  570MOL0     H76918   2.275   7.625   4.321 -3.3958 -2.1849  1.9417
  570MOL0     H76919   2.331   7.512   4.204 -1.3692 -2.0262 -0.6448
  570MOL0     H76920   2.206   7.791   4.130  2.8489  2.2094 -0.4545
  570MOL0     H76921   2.275   7.659   4.023 -1.1118 -1.0957  0.6104
  570MOL0     H76922   2.412   7.810   4.249 -3.2248 -0.0590 -0.0032
  570MOL0     H76923   2.422   7.862   4.085 -5.6471  1.5927  0.4107
  570MOL0     H76924   2.513   7.590   4.197  2.0672 -0.7589 -0.8874
  570MOL0     H76925   2.529   7.640   4.023 -2.8955  1.1591  0.2006
  570MOL0     H76926   2.711   7.816   4.096  0.7083 -0.5692 -1.0909
  570MOL0     H76927   2.749   7.654   4.158  0.0305 -0.5038  0.5632
  570MOL0     H76928   2.607   7.878   4.328 -1.0011 -0.3865 -0.5871
  570MOL0     H76929   2.607   7.702   4.361 -2.0162  1.0647  0.0816
  570MOL0     H76930   1.800   7.582   4.589 -3.8941 -1.6417  0.0273
  570MOL0     H76931   1.721   7.471   4.803 -0.2001  0.1966  0.5424
  570MOL0     H76932   1.999   7.235   5.217  0.0952  0.8231  0.2739
  570MOL0     H76933   1.977   7.068   5.401  1.0575  2.5628 -2.4170
  570MOL0     H76934   1.832   7.915   6.270  0.2474  0.6625  2.0226
  570MOL0     H76935   1.886   8.145   6.168 -1.5461  1.5189 -2.3173
  570MOL0     H76936   1.961   8.506   6.148 -1.2307  0.3232  1.4352
  570MOL0     H76937   2.084   8.685   6.049  0.3393 -1.3733 -0.2867
  570MOL0     H76938   2.147   8.762   5.818  0.8571  0.3215  1.5554
  570MOL0     H76939   2.179   8.926   5.839  1.3914 -1.7995 -0.1125
  570MOL0     H76940   2.013   8.801   5.615 -0.7635  0.6696 -0.9333
  570MOL0     H76941   2.181   8.870   5.615  1.6495  1.8178  2.2960
  570MOL0     H76942   1.932   9.030   5.663 -2.7657  0.3573 -3.4047
  570MOL0     H76943   2.017   9.015   5.511 -0.3166 -0.1024  0.1374
  570MOL0     H76944   2.058   9.232   5.671 -1.3298 -1.2702  4.3173
  570MOL0     H76945   2.133   9.126   5.774  0.1737 -4.3118 -0.9203
  570MOL0     H76946   2.424   9.187   5.474 -0.0410  0.0323  0.8174
  570MOL0     H76947   1.729   8.845   5.872 -2.0925 -0.9869 -0.1400
  570MOL0     H76948   1.506   8.684   6.068  2.3697 -0.2857  0.2660
  570MOL0     H76949   1.518   8.770   5.909 -2.8997  0.3075  0.9076
  570MOL0     H76950   1.515   8.588   5.922 -2.1231  0.5285 -0.7391
  571MOL0     O76951   7.134   9.103   7.505 -0.2895  0.2283  0.2456
  571MOL0     C76952   7.160   9.044   7.613  0.1686  0.1758 -0.0370
  571MOL0     O76953   7.069   9.021   7.711 -0.5516  0.4054  0.1449
  571MOL0     C76954   6.934   9.039   7.674 -0.2302  0.1477  0.0516
  571MOL0     C76955   6.860   8.928   7.630  0.4276  0.4008  0.1631
  571MOL0     C76956   6.726   8.930   7.605  0.6568 -0.5901 -0.2746
  571MOL0     C76957   6.661   9.053   7.619 -0.3228 -0.1898  0.0582
  571MOL0     O76958   6.520   9.056   7.606 -0.0085  0.0854  0.1686
  571MOL0     C76959   6.463   9.165   7.536  0.3187  0.1416 -0.3234
  571MOL0     C76960   6.333   9.111   7.477  0.8764 -0.3507  0.2242
  571MOL0     C76961   6.229   9.059   7.581 -0.1015  1.1729  0.0972
  571MOL0     C76962   6.087   9.034   7.533  0.4660 -0.6779 -0.7447
  571MOL0     C76963   5.993   9.005   7.651  0.8962  0.6773 -0.0450
  571MOL0     C76964   5.859   8.968   7.599  0.4033  0.0504 -0.0454
  571MOL0     C76965   5.752   8.930   7.707 -0.2036 -0.5528  0.0779
  571MOL0     C76966   5.608   8.916   7.653  0.5441  0.0483 -0.1667
  571MOL0     N76967   5.583   8.783   7.607 -0.2558 -0.2955  1.3005
  571MOL0     C76968   5.532   8.694   7.704  1.3680 -0.6470 -0.1795
  571MOL0     C76969   5.514   8.582   7.627  1.0381  0.4688 -0.3563
  571MOL0     C76970   5.435   8.454   7.667 -0.0645 -0.9144  1.1080
  571MOL0     C76971   5.506   8.379   7.780  0.4424 -0.3457  0.1938
  571MOL0     C76972   5.427   8.261   7.823  0.0997 -0.7958 -0.4973
  571MOL0     C76973   5.497   8.218   7.955  0.3934 -0.3906  0.7416
  571MOL0     O76974   5.621   8.143   7.943  0.1854  0.0618 -0.1765
  571MOL0     C76975   5.617   8.015   7.883 -1.5833 -1.2518  0.3302
  571MOL0     C76976   5.523   7.910   7.903  0.2964  0.2275 -0.5610
  571MOL0     C76977   5.524   7.800   7.816 -0.6044 -0.1572 -0.6549
  571MOL0     C76978   5.622   7.781   7.717  0.0146  0.9695 -0.1604
  571MOL0     C76979   5.627   7.669   7.623 -0.1971  0.5861  0.0749
  571MOL0     O76980   5.514   7.609   7.603  0.9175  0.0632  0.3412
  571MOL0     C76981   5.487   7.502   7.527  0.6693 -0.1198 -1.0878
  571MOL0     C76982   5.560   7.450   7.419 -0.0079  0.9720  0.6623
  571MOL0     C76983   5.514   7.340   7.341 -0.2247 -0.1162 -0.2604
  571MOL0     C76984   5.394   7.276   7.382  0.2757  0.7247 -0.1963
  571MOL0     O76985   5.344   7.167   7.306 -0.5603  0.4953 -0.6572
  571MOL0     C76986   5.257   7.072   7.370 -0.1872 -0.0586  0.9969
  571MOL0     C76987   5.275   6.922   7.324  0.6584  0.0164 -0.3800
  571MOL0     C76988   5.235   6.888   7.184 -1.3415  0.0572 -0.0593
  571MOL0     C76989   5.094   6.931   7.149 -0.3506  0.0312  1.3678
  571MOL0     C76990   4.992   6.847   7.233 -0.1935 -0.8515 -0.0799
  571MOL0     C76991   4.862   6.855   7.157  0.6783  1.7903 -0.0191
  571MOL0     C76992   4.804   7.004   7.153  0.0432 -0.6031 -0.7902
  571MOL0     C76993   4.672   7.018   7.070  0.1710  0.4132 -0.6863
  571MOL0    Cl76994   4.549   7.144   7.127  0.0528  0.7116  0.1786
  571MOL0     C76995   5.314   7.337   7.480 -0.4951 -0.0288  0.1543
  571MOL0     C76996   5.356   7.448   7.549  0.3950 -0.2098 -0.6465
  571MOL0     O76997   5.734   7.631   7.582 -0.6221 -1.4771  0.1736
  571MOL0     C76998   5.711   7.889   7.695 -0.6888  0.0691  0.3532
  571MOL0     C76999   5.715   7.996   7.786  0.0725 -0.3862  0.2205
  571MOL0     N77000   5.541   8.604   7.494 -0.4755  0.1510 -0.2245
  571MOL0     N77001   5.585   8.721   7.478  0.2186 -0.4291 -0.7795
  571MOL0     C77002   6.741   9.171   7.641 -0.2862 -0.6539  1.1720
  571MOL0     C77003   6.878   9.165   7.673  0.1499  0.4596 -0.2162
  571MOL0     C77004   7.302   9.003   7.642 -0.6586 -0.4375 -0.4152
  571MOL0     C77005   7.370   9.052   7.760  0.5931  1.0422  0.2194
  571MOL0     C77006   7.495   9.010   7.793 -0.0888 -0.0372  0.4891
  571MOL0     C77007   7.567   8.934   7.708 -0.0040 -0.9712 -0.0470
  571MOL0     O77008   7.696   8.909   7.754 -0.4970  0.2917  0.3171
  571MOL0     C77009   7.797   8.885   7.662  0.5562 -0.6700 -0.3577
  571MOL0     C77010   7.905   9.001   7.696  1.3143 -0.0182 -0.0292
  571MOL0     C77011   7.869   9.145   7.655 -0.4740  0.4113  0.1890
  571MOL0     C77012   7.979   9.252   7.661 -0.6836 -0.7545 -0.2221
  571MOL0     C77013   8.062   9.257   7.539 -0.8088 -0.4003  0.5418
  571MOL0     C77014   8.126   9.267   7.435 -0.4419 -0.5575 -0.1494
  571MOL0     C77015   7.510   8.881   7.590  0.3420  0.7116 -0.1066
  571MOL0     C77016   7.372   8.914   7.556  0.4745 -0.6915 -0.6299
  571MOL0     C77017   7.309   8.848   7.443 -0.4511 -0.7711 -0.0442
  571MOL0     H77018   6.918   8.838   7.615 -0.9682 -0.2485 -1.7914
  571MOL0     H77019   6.675   8.838   7.577  0.6395 -1.1371  1.4382
  571MOL0     H77020   6.439   9.247   7.605  2.8066 -1.4939  2.7479
  571MOL0     H77021   6.535   9.189   7.457  2.7558 -2.0860  1.0420
  571MOL0     H77022   6.347   9.043   7.392  0.5226  1.2580 -1.1887
  571MOL0     H77023   6.276   9.185   7.420  0.7349 -1.1158 -0.6553
  571MOL0     H77024   6.220   9.129   7.665  0.1984 -2.5914  3.6096
  571MOL0     H77025   6.263   8.968   7.631  1.3317  0.8653 -1.3827
  571MOL0     H77026   6.051   9.111   7.464 -2.8420 -1.2370  0.1943
  571MOL0     H77027   6.093   8.948   7.465  2.4296 -2.6213  1.6830
  571MOL0     H77028   6.046   8.936   7.719  1.1826  1.0152  0.0769
  571MOL0     H77029   5.973   9.102   7.696 -3.2692 -0.9463  2.2163
  571MOL0     H77030   5.826   9.039   7.523  2.3735  1.5818  0.4216
  571MOL0     H77031   5.868   8.874   7.543 -1.9684  0.3356 -1.0323
  571MOL0     H77032   5.747   9.000   7.791 -0.0652  0.4485 -0.7289
  571MOL0     H77033   5.795   8.841   7.755  2.0548  1.0505  1.1960
  571MOL0     H77034   5.535   8.929   7.733 -1.6212 -1.6128 -1.7339
  571MOL0     H77035   5.587   8.985   7.570 -2.7208 -0.3401  0.2215
  571MOL0     H77036   5.505   8.695   7.809  2.8741 -1.5676  0.2551
  571MOL0     H77037   5.332   8.484   7.685 -0.9505 -2.3663 -1.1586
  571MOL0     H77038   5.428   8.383   7.584 -2.3093 -2.4318  2.4753
  571MOL0     H77039   5.605   8.350   7.744  0.0449  1.1117 -2.3223
  571MOL0     H77040   5.520   8.449   7.864 -1.7835 -1.6153  1.7443
  571MOL0     H77041   5.423   8.182   7.747 -0.0078 -0.6835 -0.6074
  571MOL0     H77042   5.323   8.294   7.834  0.5675  0.4868  0.3425
  571MOL0     H77043   5.430   8.150   8.008  1.3305 -0.5529  1.7637
  571MOL0     H77044   5.519   8.309   8.012  1.5164 -0.0582 -0.1780
  571MOL0     H77045   5.450   7.902   7.983  0.6102 -4.4582 -0.4614
  571MOL0     H77046   5.442   7.734   7.840 -1.0389  0.2099 -1.0891
  571MOL0     H77047   5.651   7.495   7.380 -0.0506  0.7869  0.3415
  571MOL0     H77048   5.560   7.317   7.245 -0.8684  2.0985 -1.1758
  571MOL0     H77049   5.274   7.073   7.478 -1.9802  1.3433  1.3302
  571MOL0     H77050   5.152   7.099   7.358 -1.0026 -3.5170 -0.9366
  571MOL0     H77051   5.383   6.906   7.323  0.4364 -1.5742 -0.1987
  571MOL0     H77052   5.218   6.845   7.377  2.8827  1.1428  4.1212
  571MOL0     H77053   5.307   6.930   7.113 -1.6287  0.9267  0.1523
  571MOL0     H77054   5.259   6.782   7.174  4.0664  1.1252 -1.9314
  571MOL0     H77055   5.079   6.908   7.043  0.0556  4.4877  0.1454
  571MOL0     H77056   5.074   7.037   7.169 -1.2029 -0.4010  3.0309
  571MOL0     H77057   4.975   6.888   7.333  0.7477 -1.7290  0.4552
  571MOL0     H77058   5.019   6.741   7.237 -3.3510 -1.7481  1.0001
  571MOL0     H77059   4.865   6.809   7.058  2.8398  0.5664  0.5475
  571MOL0     H77060   4.784   6.792   7.203 -0.1745  3.2635  0.6221
  571MOL0     H77061   4.883   7.070   7.116 -1.4433  0.9359 -1.3507
  571MOL0     H77062   4.762   7.039   7.248 -0.4820 -1.7180 -0.5969
  571MOL0     H77063   4.705   7.039   6.967  0.2729 -1.5786 -1.0956
  571MOL0     H77064   4.616   6.924   7.080  1.0325  0.0413  1.0676
  571MOL0     H77065   5.218   7.290   7.497 -0.0723 -2.2016 -2.6853
  571MOL0     H77066   5.287   7.491   7.621 -0.2172  2.2546 -2.5440
  571MOL0     H77067   5.791   7.891   7.622 -0.7598 -2.0965  0.1302
  571MOL0     H77068   5.783   8.080   7.777 -1.0089  0.4425 -0.4289
  571MOL0     H77069   6.696   9.267   7.620 -1.2882 -0.6807  2.9470
  571MOL0     H77070   6.924   9.243   7.732 -1.5558  0.5954  1.0329
  571MOL0     H77071   7.328   9.128   7.824 -0.2133  0.0052  0.9368
  571MOL0     H77072   7.544   9.040   7.885  0.3070  3.5038 -0.7304
  571MOL0     H77073   7.764   8.904   7.559  0.9118  2.4113  0.0024
  571MOL0     H77074   7.843   8.786   7.668 -2.2770 -2.3150 -2.6842
  571MOL0     H77075   7.996   8.977   7.641  1.8772  0.3252  0.7374
  571MOL0     H77076   7.931   8.993   7.802 -1.6403 -0.0296  0.8086
  571MOL0     H77077   7.800   9.183   7.730  0.4679  0.0557  1.2685
  571MOL0     H77078   7.822   9.132   7.557 -1.9013 -2.1757  1.1194
  571MOL0     H77079   7.945   9.356   7.668  1.5892  0.1346 -1.4466
  571MOL0     H77080   8.034   9.244   7.755 -0.4824 -0.5357 -0.3219
  571MOL0     H77081   8.189   9.261   7.349  2.4045 -1.4669  1.8349
  571MOL0     H77082   7.563   8.808   7.529 -0.3791 -2.2658  2.5610
  571MOL0     H77083   7.204   8.864   7.416 -0.6354 -1.4887  0.2476
  571MOL0     H77084   7.356   8.869   7.346 -0.7253  2.2624  0.3712
  571MOL0     H77085   7.316   8.740   7.454 -1.4759 -0.6775  1.7877
  572MOL0     O77086   9.799   4.869   8.438  0.4891 -0.5514 -0.4660
  572MOL0     C77087   9.877   4.955   8.387 -0.3013 -0.8573 -0.0441
  572MOL0     O77088   9.840   5.072   8.323 -0.4831 -0.2308  0.3027
  572MOL0     C77089   9.701   5.085   8.305  0.4336 -0.5473  0.0621
  572MOL0     C77090   9.619   4.976   8.264  0.2310  0.3830 -0.2339
  572MOL0     C77091   9.482   4.982   8.270  0.8768 -0.3631 -0.7858
  572MOL0     C77092   9.415   5.105   8.301  0.5509 -0.1560 -0.4839
  572MOL0     O77093   9.274   5.127   8.299  0.3883 -0.0388  0.3864
  572MOL0     C77094   9.220   5.261   8.276 -0.9990  0.6305 -0.4723
  572MOL0     C77095   9.070   5.244   8.240 -0.0200 -0.9697 -0.0348
  572MOL0     C77096   8.981   5.240   8.372  0.1664  0.7636  0.7449
  572MOL0     C77097   8.829   5.217   8.362  0.2636 -0.3563  1.0400
  572MOL0     C77098   8.770   5.341   8.272  0.0592  0.4480  0.2193
  572MOL0     C77099   8.795   5.470   8.334 -0.5438 -0.4173  0.2808
  572MOL0     C77100   8.724   5.587   8.263  0.2979 -0.0660 -0.7738
  572MOL0     C77101   8.744   5.725   8.327  0.4531 -0.0094  0.2398
  572MOL0     N77102   8.670   5.835   8.249  0.4939  1.0232 -0.5251
  572MOL0     C77103   8.667   5.849   8.113  0.9532  0.9879 -0.5323
  572MOL0     C77104   8.614   5.967   8.084  0.1099 -0.0087 -0.4205
  572MOL0     C77105   8.611   6.035   7.949 -0.5723  0.7815 -0.4766
  572MOL0     C77106   8.478   6.112   7.926 -0.3670 -0.1738  0.8597
  572MOL0     C77107   8.440   6.129   7.773 -0.1873  0.3048  0.4755
  572MOL0     C77108   8.302   6.190   7.757  0.5411  0.9776  0.5407
  572MOL0     O77109   8.274   6.216   7.618 -0.6687 -0.5152  0.0796
  572MOL0     C77110   8.171   6.303   7.595 -0.0678  0.5479  1.3531
  572MOL0     C77111   8.079   6.338   7.686 -0.6507 -0.2635  0.2703
  572MOL0     C77112   7.972   6.425   7.659 -0.8389 -0.2883  0.1849
  572MOL0     C77113   7.968   6.488   7.532  0.5320 -0.7353  1.0900
  572MOL0     C77114   7.874   6.604   7.504 -1.0802 -0.1004 -0.2538
  572MOL0     O77115   7.790   6.654   7.603  0.2589  0.8259  0.4873
  572MOL0     C77116   7.740   6.778   7.582 -0.7409 -0.6099  0.2943
  572MOL0     C77117   7.627   6.795   7.491 -0.2112 -0.7357 -0.1641
  572MOL0     C77118   7.596   6.925   7.461  1.0767 -0.0526 -0.1789
  572MOL0     C77119   7.665   7.040   7.503 -0.3954 -0.2186 -0.6146
  572MOL0     O77120   7.640   7.168   7.490  1.2957  0.8496  0.8278
  572MOL0     C77121   7.517   7.202   7.431  0.6751  0.2943  0.7856
  572MOL0     C77122   7.501   7.352   7.422  0.4252  0.4184 -0.4893
  572MOL0     C77123   7.505   7.410   7.566  0.6295  0.7332 -0.1758
  572MOL0     C77124   7.475   7.554   7.593  0.0827 -0.1718  0.4759
  572MOL0     C77125   7.482   7.595   7.745 -0.7688  1.1267  0.1517
  572MOL0     C77126   7.346   7.576   7.817 -0.2105 -0.4550 -0.3998
  572MOL0     C77127   7.372   7.527   7.965 -0.4223 -0.0872 -0.0094
  572MOL0     C77128   7.247   7.475   8.042  0.3838 -0.5885  0.6739
  572MOL0    Cl77129   7.114   7.597   8.031 -0.2292 -0.3205 -0.0353
  572MOL0     C77130   7.777   7.016   7.586 -0.6108 -0.0293 -0.4841
  572MOL0     C77131   7.815   6.890   7.625 -0.7096  0.3745 -0.5835
  572MOL0     O77132   7.884   6.661   7.394  0.2919 -0.3886  0.3801
  572MOL0     C77133   8.061   6.440   7.429  0.1934  0.4932 -1.0735
  572MOL0     C77134   8.157   6.339   7.458  0.2122  0.3691 -0.2163
  572MOL0     N77135   8.571   6.021   8.210 -0.2044  0.6310 -0.0855
  572MOL0     N77136   8.607   5.949   8.309 -0.1600  0.8746 -0.0113
  572MOL0     C77137   9.500   5.208   8.344  0.6965 -0.6165  0.1675
  572MOL0     C77138   9.641   5.203   8.342  0.7758  0.5943  0.3114
  572MOL0     C77139  10.031   4.924   8.398  0.3731 -0.0699 -0.3587
  572MOL0     C77140  10.071   4.821   8.489 -0.7254 -0.0058 -1.0177
  572MOL0     C77141  10.203   4.793   8.519  0.3935 -0.0825  0.0999
  572MOL0     C77142  10.303   4.852   8.439 -0.3656  0.2675 -0.3923
  572MOL0     O77143  10.435   4.808   8.418  0.5080  0.3817  0.0902
  572MOL0     C77144  10.480   4.685   8.486 -0.1420 -0.6733  0.1446
  572MOL0     C77145  10.523   4.719   8.629 -0.5375 -1.1544  0.4989
  572MOL0     C77146  10.658   4.792   8.641  1.4758  0.6449  0.7462
  572MOL0     C77147  10.702   4.832   8.778  0.9183 -0.3381 -0.1048
  572MOL0     C77148  10.753   4.718   8.856  0.2075 -0.1011  0.0156
  572MOL0     C77149  10.815   4.615   8.903  0.6643 -0.9537  1.0213
  572MOL0     C77150  10.269   4.959   8.357  0.4366  0.1796  0.2497
  572MOL0     C77151  10.135   4.989   8.328  0.4987 -0.4479  1.0497
  572MOL0     C77152  10.123   5.100   8.224  0.0096  0.4427 -0.2036
  572MOL0     H77153   9.671   4.888   8.230 -0.3973  0.8513 -2.5503
  572MOL0     H77154   9.428   4.895   8.235 -3.4999  1.8417 -0.1489
  572MOL0     H77155   9.242   5.323   8.364 -0.2517  0.6837 -0.6972
  572MOL0     H77156   9.274   5.317   8.200 -0.6077 -1.1050 -1.5289
  572MOL0     H77157   9.041   5.168   8.167 -2.7183  1.1868 -1.3709
  572MOL0     H77158   9.035   5.339   8.200 -0.2049  0.3292  2.9084
  572MOL0     H77159   9.008   5.333   8.421  0.2197 -0.0687  2.3628
  572MOL0     H77160   9.001   5.152   8.435 -1.4388 -1.3092 -1.4363
  572MOL0     H77161   8.808   5.121   8.314 -2.8001 -0.1991  1.8388
  572MOL0     H77162   8.777   5.229   8.458 -0.2975  3.9228  0.3943
  572MOL0     H77163   8.799   5.321   8.169 -0.2048 -0.4850  0.3163
  572MOL0     H77164   8.661   5.333   8.269  0.1055 -0.4013  0.3965
  572MOL0     H77165   8.761   5.482   8.437 -0.4037 -1.8452  0.5029
  572MOL0     H77166   8.902   5.495   8.339  0.1743 -2.2169 -3.1182
  572MOL0     H77167   8.617   5.569   8.278  0.3421  0.9547  1.0433
  572MOL0     H77168   8.746   5.587   8.156  1.2071 -0.8337 -0.5962
  572MOL0     H77169   8.713   5.724   8.431  3.2215  1.1913  1.1725
  572MOL0     H77170   8.852   5.739   8.313  0.6365 -0.1929  1.3936
  572MOL0     H77171   8.707   5.795   8.028 -2.9659  1.6391 -3.0805
  572MOL0     H77172   8.701   6.098   7.950  1.5227 -1.9009  2.6321
  572MOL0     H77173   8.624   5.973   7.860  1.4175 -0.5151  0.6384
  572MOL0     H77174   8.403   6.049   7.974  1.6202 -2.7401  0.8066
  572MOL0     H77175   8.478   6.197   7.995  0.3980 -0.5239  1.2975
  572MOL0     H77176   8.438   6.030   7.726 -3.5811  1.2252 -1.6945
  572MOL0     H77177   8.509   6.200   7.726 -0.9568  1.7080  1.3725
  572MOL0     H77178   8.297   6.286   7.809 -0.1591  0.0145  2.3277
  572MOL0     H77179   8.224   6.122   7.794  0.1908  0.0089 -1.7864
  572MOL0     H77180   8.081   6.308   7.791 -3.3303  0.5796  0.6275
  572MOL0     H77181   7.897   6.458   7.731 -4.3859  3.1431 -4.5086
  572MOL0     H77182   7.572   6.712   7.449  0.1087 -0.9766 -0.1147
  572MOL0     H77183   7.510   6.948   7.398  1.0585  3.6649  0.9756
  572MOL0     H77184   7.510   7.163   7.329  1.7989 -2.1797  1.5715
  572MOL0     H77185   7.431   7.164   7.486  0.3901  2.3489  1.8626
  572MOL0     H77186   7.577   7.403   7.362 -2.3046  3.3199 -1.7838
  572MOL0     H77187   7.401   7.376   7.383  0.5051  5.3047  1.6332
  572MOL0     H77188   7.441   7.355   7.635 -1.0286  1.0222 -1.4179
  572MOL0     H77189   7.603   7.389   7.610 -0.3874 -3.8351  0.4062
  572MOL0     H77190   7.378   7.577   7.548 -1.2204 -3.2096  1.4613
  572MOL0     H77191   7.555   7.605   7.539 -1.2460  0.9252 -0.5182
  572MOL0     H77192   7.503   7.702   7.749  0.6332  0.8777 -0.2198
  572MOL0     H77193   7.569   7.542   7.786 -1.5394 -1.8761 -1.7786
  572MOL0     H77194   7.289   7.670   7.820 -1.2575 -1.0801 -0.2890
  572MOL0     H77195   7.288   7.490   7.782  0.3437 -0.6737 -0.8014
  572MOL0     H77196   7.421   7.605   8.024 -1.0427  1.0509 -0.9503
  572MOL0     H77197   7.455   7.456   7.960  0.8986  0.8104  4.6790
  572MOL0     H77198   7.212   7.382   7.995  0.1296  1.2068 -3.1028
  572MOL0     H77199   7.275   7.458   8.146  2.0353  0.5336  0.4525
  572MOL0     H77200   7.837   7.101   7.618 -2.2276  0.8517  0.3231
  572MOL0     H77201   7.908   6.883   7.681 -0.8264 -1.2253 -0.5422
  572MOL0     H77202   8.064   6.481   7.329  0.4123 -3.4468 -2.8500
  572MOL0     H77203   8.222   6.285   7.390  1.7842  3.4485 -1.3648
  572MOL0     H77204   9.455   5.300   8.377 -0.5487 -0.9819 -0.4433
  572MOL0     H77205   9.702   5.286   8.376  1.2406  0.0658  0.8035
  572MOL0     H77206   9.984   4.779   8.539 -0.3458 -0.2860 -0.5808
  572MOL0     H77207  10.232   4.722   8.595  1.9509  0.8662  0.4348
  572MOL0     H77208  10.565   4.634   8.439  0.8121 -0.4403  1.5722
  572MOL0     H77209  10.398   4.613   8.491 -0.8698  0.1335  0.1811
  572MOL0     H77210  10.540   4.620   8.672  0.9087 -0.7261  0.9743
  572MOL0     H77211  10.448   4.777   8.684  1.8607  0.3840  2.3715
  572MOL0     H77212  10.654   4.885   8.583  2.6885  0.5447  0.4620
  572MOL0     H77213  10.724   4.723   8.587  1.3981  1.1971 -0.0849
  572MOL0     H77214  10.783   4.902   8.756  1.7385 -0.9167  0.9796
  572MOL0     H77215  10.622   4.896   8.818  1.8993  1.7513 -1.3055
  572MOL0     H77216  10.855   4.528   8.950  2.0541  0.7388  3.1555
  572MOL0     H77217  10.350   4.989   8.291  0.9358 -1.0880  0.2596
  572MOL0     H77218  10.081   5.045   8.139  1.2310 -0.2780 -0.3659
  572MOL0     H77219  10.048   5.175   8.250 -1.0646 -0.4285 -0.7045
  572MOL0     H77220  10.226   5.137   8.219 -0.5684  2.0809 -0.4754
  573MOL0     O77221   6.424   8.986   3.313 -0.7054  1.1882 -0.3034
  573MOL0     C77222   6.407   9.076   3.402 -0.1438  1.8370 -0.0162
  573MOL0     O77223   6.446   9.196   3.386 -0.2292  0.4786 -0.2629
  573MOL0     C77224   6.494   9.266   3.274  0.8196 -0.2061  0.0298
  573MOL0     C77225   6.502   9.412   3.276 -0.1204  1.0463  0.3255
  573MOL0     C77226   6.534   9.479   3.153 -1.3649 -0.2747 -1.3306
  573MOL0     C77227   6.563   9.401   3.037  0.1872 -0.0052  0.8068
  573MOL0     O77228   6.580   9.468   2.912  0.0428 -0.3098  0.9214
  573MOL0     C77229   6.462   9.454   2.831  0.2362 -0.1909 -0.3452
  573MOL0     C77230   6.324   9.487   2.891  0.0950  0.8555  0.2833
  573MOL0     C77231   6.221   9.520   2.791  0.2008  0.0630 -0.3434
  573MOL0     C77232   6.089   9.564   2.862 -0.8096 -0.0173 -0.6872
  573MOL0     C77233   5.966   9.571   2.769  0.0510 -0.0808  0.4293
  573MOL0     C77234   5.988   9.626   2.625 -0.4969 -0.1950 -0.2125
  573MOL0     C77235   5.862   9.666   2.557 -0.0023 -0.2011 -0.2109
  573MOL0     C77236   5.791   9.552   2.482 -0.5053  0.9481  0.2735
  573MOL0     N77237   5.732   9.452   2.576 -0.4930 -0.2251 -0.0723
  573MOL0     C77238   5.779   9.323   2.586 -0.8984  0.0183 -0.9881
  573MOL0     C77239   5.685   9.256   2.659  0.3035  0.2270 -0.8114
  573MOL0     C77240   5.695   9.110   2.690 -0.1348 -0.3165 -0.2403
  573MOL0     C77241   5.641   9.028   2.578  0.5431 -0.6039 -0.0090
  573MOL0     C77242   5.688   8.883   2.567 -0.4131  1.3515  0.5791
  573MOL0     C77243   5.840   8.862   2.532  0.2943  0.2735 -0.5969
  573MOL0     O77244   5.864   8.842   2.385 -0.2210 -0.8586  0.1583
  573MOL0     C77245   5.953   8.734   2.351 -0.5837  0.6387  0.2887
  573MOL0     C77246   5.928   8.652   2.235 -0.4820 -1.0113 -0.1077
  573MOL0     C77247   6.002   8.540   2.198  0.1427  0.6755  0.0346
  573MOL0     C77248   6.106   8.494   2.282 -0.1573  0.4309 -0.0904
  573MOL0     C77249   6.175   8.372   2.247  1.0857 -0.2682  0.0822
  573MOL0     O77250   6.125   8.293   2.144 -0.2485 -0.1977 -0.8727
  573MOL0     C77251   6.188   8.172   2.135 -0.8736 -0.0313 -0.0393
  573MOL0     C77252   6.284   8.148   2.041 -0.2849 -0.2323 -0.6882
  573MOL0     C77253   6.333   8.015   2.018 -0.5803 -0.7490  0.7844
  573MOL0     C77254   6.274   7.909   2.088 -1.5058 -0.4071 -0.9998
  573MOL0     O77255   6.326   7.790   2.077 -0.1038  0.0029 -0.1912
  573MOL0     C77256   6.312   7.738   1.952 -0.3416  0.1852 -1.0048
  573MOL0     C77257   6.294   7.583   1.984 -0.9327 -1.0429  1.1354
  573MOL0     C77258   6.166   7.550   2.067 -0.5613  0.6785  0.1591
  573MOL0     C77259   6.182   7.405   2.122  0.6419  0.1409  0.8953
  573MOL0     C77260   6.062   7.354   2.196  0.1788  0.8158  0.3385
  573MOL0     C77261   6.059   7.250   2.291 -0.0743  0.4104  0.3896
  573MOL0     C77262   5.917   7.236   2.344 -0.7158 -0.3487 -0.4955
  573MOL0     C77263   5.847   7.122   2.275  0.2825  0.3833  0.5838
  573MOL0    Cl77264   5.697   7.105   2.351 -0.1397  0.4584  0.0464
  573MOL0     C77265   6.188   7.938   2.195 -0.0217 -1.0787 -0.6652
  573MOL0     C77266   6.143   8.068   2.211  0.0360  1.2713 -0.0077
  573MOL0     O77267   6.266   8.350   2.314  0.2785  0.0552 -0.7521
  573MOL0     C77268   6.140   8.578   2.390 -0.3351  0.7335  0.4437
  573MOL0     C77269   6.067   8.688   2.425 -1.0880 -0.0295  0.2231
  573MOL0     N77270   5.581   9.348   2.684  0.4186 -0.0723 -0.6335
  573MOL0     N77271   5.606   9.459   2.638 -1.4135 -0.1847  0.0630
  573MOL0     C77272   6.566   9.272   3.043  0.7365  0.5496  0.3055
  573MOL0     C77273   6.538   9.207   3.158 -0.0202  0.0966 -0.1798
  573MOL0     C77274   6.372   9.032   3.544 -0.3328  0.2115 -0.2357
  573MOL0     C77275   6.330   9.124   3.643 -1.0236  0.0610  0.3783
  573MOL0     C77276   6.307   9.104   3.772  0.6078 -0.3330  0.9139
  573MOL0     C77277   6.323   8.963   3.821  0.5164  0.6613 -0.2339
  573MOL0     O77278   6.321   8.916   3.950  0.4352  0.2800 -0.6245
  573MOL0     C77279   6.215   8.963   4.044  0.9668  0.1740  0.0593
  573MOL0     C77280   6.231   8.882   4.177 -0.7693 -0.4374  0.5584
  573MOL0     C77281   6.136   8.770   4.187  0.5630 -0.0700 -0.4282
  573MOL0     C77282   6.172   8.692   4.319 -0.3535 -1.0391  0.0166
  573MOL0     C77283   6.145   8.763   4.447 -0.3536  0.1327 -0.0493
  573MOL0     C77284   6.142   8.815   4.556 -0.2261  0.5781 -0.1595
  573MOL0     C77285   6.342   8.864   3.735  0.0165 -0.1430 -0.0529
  573MOL0     C77286   6.379   8.894   3.593  0.6179 -0.3132 -0.0565
  573MOL0     C77287   6.410   8.772   3.502  0.4825  0.1289 -0.7313
  573MOL0     H77288   6.474   9.465   3.367  1.1001 -0.7472  1.8105
  573MOL0     H77289   6.525   9.586   3.162 -2.1040 -0.5042  2.2891
  573MOL0     H77290   6.483   9.520   2.746 -2.7973  0.5831 -0.6117
  573MOL0     H77291   6.454   9.352   2.793 -2.2305  0.5206 -1.9956
  573MOL0     H77292   6.339   9.576   2.952 -0.6875  1.0641  0.1734
  573MOL0     H77293   6.302   9.406   2.961 -1.0168  0.9552  0.0683
  573MOL0     H77294   6.201   9.437   2.723  1.2573  0.8587 -1.6839
  573MOL0     H77295   6.265   9.606   2.740 -2.1841  1.9743  0.6272
  573MOL0     H77296   6.071   9.496   2.945  2.0633  2.1052  1.9079
  573MOL0     H77297   6.120   9.659   2.907 -0.1919 -0.4463 -0.1904
  573MOL0     H77298   5.933   9.468   2.756  1.3785 -0.4264 -0.4533
  573MOL0     H77299   5.879   9.617   2.817 -1.4487 -2.1408 -0.2119
  573MOL0     H77300   6.056   9.712   2.629  0.9391 -1.3060  0.2710
  573MOL0     H77301   6.040   9.552   2.564  1.5964  0.3376  0.8369
  573MOL0     H77302   5.902   9.742   2.490  0.5871  0.3533  0.7509
  573MOL0     H77303   5.792   9.707   2.632 -1.1026 -4.5693  1.4676
  573MOL0     H77304   5.711   9.593   2.421  0.9207  0.2852 -2.1823
  573MOL0     H77305   5.856   9.505   2.408 -2.1752 -1.0863  0.0242
  573MOL0     H77306   5.860   9.268   2.539  0.7040 -0.0251  1.6327
  573MOL0     H77307   5.803   9.105   2.708  0.4249  2.4782 -2.1420
  573MOL0     H77308   5.650   9.091   2.788  0.1884  1.5000  0.3064
  573MOL0     H77309   5.533   9.023   2.592  0.5566  1.4164  1.1899
  573MOL0     H77310   5.657   9.076   2.481  0.7202  0.4317  0.5203
  573MOL0     H77311   5.620   8.832   2.500 -1.3341 -1.3493  3.3358
  573MOL0     H77312   5.680   8.830   2.663  0.7584 -1.8997 -0.9737
  573MOL0     H77313   5.869   8.782   2.601 -1.2326  2.0955  2.3749
  573MOL0     H77314   5.895   8.950   2.566  0.4298  0.6961 -1.8622
  573MOL0     H77315   5.840   8.665   2.172 -1.7380 -3.0235  1.1090
  573MOL0     H77316   5.969   8.473   2.120 -0.5190 -1.3813  1.9562
  573MOL0     H77317   6.328   8.234   1.992  1.1341 -0.6218 -0.1310
  573MOL0     H77318   6.413   8.000   1.946 -0.5402 -1.8932  1.0449
  573MOL0     H77319   6.223   7.784   1.909 -0.6130  2.6253  1.8603
  573MOL0     H77320   6.394   7.753   1.881  0.0587  1.5650 -0.2782
  573MOL0     H77321   6.302   7.530   1.888 -2.5235  3.4571 -1.7990
  573MOL0     H77322   6.385   7.558   2.041  1.8333 -2.5757 -3.3752
  573MOL0     H77323   6.159   7.621   2.151 -2.7768  0.4073  0.2585
  573MOL0     H77324   6.068   7.574   2.026 -1.2485  3.3359  2.9790
  573MOL0     H77325   6.268   7.404   2.189  0.3931 -3.5094  1.3982
  573MOL0     H77326   6.193   7.328   2.045  0.2506 -0.0989  1.0766
  573MOL0     H77327   5.983   7.334   2.123 -1.3968 -2.7729  2.7412
  573MOL0     H77328   6.030   7.450   2.239 -0.9559  1.8652 -2.6029
  573MOL0     H77329   6.088   7.152   2.250 -0.9700  0.3587 -0.1559
  573MOL0     H77330   6.112   7.275   2.383 -0.2989  1.7333  0.1729
  573MOL0     H77331   5.860   7.328   2.324  3.2368  1.9941 -2.2029
  573MOL0     H77332   5.928   7.213   2.450  0.9204  2.3901  0.0130
  573MOL0     H77333   5.831   7.164   2.175  1.7571 -0.0000  0.1557
  573MOL0     H77334   5.900   7.026   2.276 -0.9342 -0.2982  0.8057
  573MOL0     H77335   6.148   7.857   2.255  0.9027 -1.2361 -0.2481
  573MOL0     H77336   6.070   8.084   2.290 -0.4162 -0.1209 -0.1175
  573MOL0     H77337   6.219   8.549   2.458 -0.4045  0.4234  0.3895
  573MOL0     H77338   6.101   8.753   2.506  1.6817 -0.5768 -0.3992
  573MOL0     H77339   6.597   9.216   2.955 -1.3244 -2.5986  1.3983
  573MOL0     H77340   6.537   9.099   3.163 -1.0780  0.0599 -0.9280
  573MOL0     H77341   6.321   9.230   3.620  1.3731  0.7186  2.0486
  573MOL0     H77342   6.277   9.180   3.843  0.6011  1.3989 -0.8598
  573MOL0     H77343   6.113   8.956   4.005  0.7877 -1.9864  0.7883
  573MOL0     H77344   6.226   9.071   4.063 -3.2331  0.5924  1.0650
  573MOL0     H77345   6.217   8.960   4.252  1.2512  0.2370  0.3169
  573MOL0     H77346   6.335   8.847   4.177 -0.4433  0.2790  3.1401
  573MOL0     H77347   6.159   8.703   4.103 -0.8308  0.6184 -1.4148
  573MOL0     H77348   6.032   8.806   4.188 -0.9339 -3.8830 -0.1101
  573MOL0     H77349   6.116   8.598   4.327  0.2628 -1.2586  2.3509
  573MOL0     H77350   6.277   8.662   4.324  0.0853 -0.7589 -4.1404
  573MOL0     H77351   6.124   8.871   4.645 -1.1193  2.0719 -1.2354
  573MOL0     H77352   6.344   8.762   3.772 -0.5443 -0.2166 -0.2263
  573MOL0     H77353   6.411   8.689   3.573 -0.1365  2.3304  1.9946
  573MOL0     H77354   6.341   8.764   3.418 -0.1944  0.0706 -0.1696
  573MOL0     H77355   6.518   8.772   3.479  1.5681 -4.3695  2.9093
  574MOL0     O77356   1.688   5.600   1.005  0.8298 -0.4299  1.0131
  574MOL0     C77357   1.787   5.596   1.078 -0.2574  0.1341 -0.7621
  574MOL0     O77358   1.878   5.495   1.074 -0.5869 -0.5616  0.1109
  574MOL0     C77359   1.866   5.386   0.994  0.6708  0.3012  0.0731
  574MOL0     C77360   1.933   5.387   0.870  0.0505 -0.3079  0.4494
  574MOL0     C77361   1.925   5.260   0.793 -0.1510 -0.2593  0.1029
  574MOL0     C77362   1.856   5.150   0.849 -0.9397 -0.6592 -0.4942
  574MOL0     O77363   1.848   5.049   0.759  0.4804 -0.1025  0.0953
  574MOL0     C77364   1.728   4.973   0.754  0.9956  0.8904  0.0270
  574MOL0     C77365   1.721   4.917   0.610 -0.1895 -0.0404 -0.3672
  574MOL0     C77366   1.821   4.797   0.592  0.3216 -0.9532 -0.7604
  574MOL0     C77367   1.862   4.760   0.445  0.1428 -0.1495 -0.4331
  574MOL0     C77368   1.947   4.623   0.461  0.6719 -0.6010  0.8483
  574MOL0     C77369   1.984   4.557   0.325 -0.5442  0.1843 -0.4070
  574MOL0     C77370   1.860   4.506   0.238 -0.8182 -0.2488 -0.6809
  574MOL0     C77371   1.818   4.363   0.267 -0.5257  0.2739 -0.0922
  574MOL0     N77372   1.937   4.267   0.245  0.8699  0.0362 -0.6155
  574MOL0     C77373   2.012   4.197   0.342 -0.0752 -0.2370 -0.0088
  574MOL0     C77374   2.089   4.112   0.275  0.8369 -0.2377  0.0769
  574MOL0     C77375   2.168   4.000   0.328  0.5077  1.5302  0.6070
  574MOL0     C77376   2.070   3.886   0.340  0.7256  0.6235 -0.4578
  574MOL0     C77377   2.131   3.748   0.334  0.4620  0.5070  0.1965
  574MOL0     C77378   2.056   3.620   0.347 -0.2552 -0.0029  0.7140
  574MOL0     O77379   1.997   3.618   0.482 -0.5727  0.4864 -0.2881
  574MOL0     C77380   1.916   3.508   0.520 -0.0791 -0.3180  0.6008
  574MOL0     C77381   1.925   3.374   0.476  0.7535 -0.5094 -0.2657
  574MOL0     C77382   1.859   3.280   0.539  0.9080 -0.4069  0.0662
  574MOL0     C77383   1.785   3.311   0.653  0.0974  0.3814  0.3659
  574MOL0     C77384   1.714   3.199   0.724 -0.6513  0.9129 -1.1053
  574MOL0     O77385   1.637   3.232   0.837 -0.0027  0.0059 -0.0140
  574MOL0     C77386   1.504   3.196   0.841  0.9406  0.6383  0.6557
  574MOL0     C77387   1.426   3.206   0.724  0.1433  0.3402  0.4528
  574MOL0     C77388   1.299   3.171   0.730  0.4371  0.1774 -0.6072
  574MOL0     C77389   1.241   3.114   0.843  0.7100  0.0429 -0.5124
  574MOL0     O77390   1.109   3.071   0.833  0.1115 -0.1886 -0.3830
  574MOL0     C77391   1.046   3.065   0.707  0.3467 -0.3029 -0.1509
  574MOL0     C77392   0.934   2.970   0.694 -0.1140  0.1945  0.6500
  574MOL0     C77393   0.834   2.962   0.815  0.1132  0.2083 -0.0573
  574MOL0     C77394   0.738   2.837   0.815 -0.7084  0.0871  0.3908
  574MOL0     C77395   0.688   2.781   0.950  0.0792 -1.1690 -0.3664
  574MOL0     C77396   0.555   2.828   1.003  0.1325  0.1434  0.2035
  574MOL0     C77397   0.545   2.980   1.028  0.2645 -0.6038 -0.4297
  574MOL0     C77398   0.621   3.030   1.157  1.3877  0.5196  1.0434
  574MOL0    Cl77399   0.618   3.206   1.156  0.3085 -0.5377 -0.1326
  574MOL0     C77400   1.316   3.105   0.965 -0.7566  0.0927 -0.4599
  574MOL0     C77401   1.448   3.147   0.960  0.5661 -0.6514 -0.4657
  574MOL0     O77402   1.717   3.083   0.673  0.0379 -0.2628  0.1509
  574MOL0     C77403   1.781   3.440   0.709 -0.4371 -0.5292 -0.0503
  574MOL0     C77404   1.843   3.542   0.634 -0.9649  0.5959  0.4659
  574MOL0     N77405   2.067   4.134   0.143  0.8508 -0.6857  0.3888
  574MOL0     N77406   1.976   4.220   0.125 -0.3801 -0.3811  0.8053
  574MOL0     C77407   1.798   5.150   0.971 -0.4047 -0.4940 -0.4329
  574MOL0     C77408   1.804   5.271   1.044  0.6213 -0.6854 -0.2751
  574MOL0     C77409   1.795   5.681   1.197  0.3823 -0.4177  1.3395
  574MOL0     C77410   1.881   5.653   1.305 -0.2818 -0.5084 -0.1024
  574MOL0     C77411   1.873   5.718   1.420 -0.1581 -0.4862 -0.4304
  574MOL0     C77412   1.774   5.813   1.441 -0.0063  0.4680  0.8394
  574MOL0     O77413   1.755   5.856   1.573  0.5165 -0.9157  1.0122
  574MOL0     C77414   1.615   5.883   1.617 -1.2206 -0.7141  0.0407
  574MOL0     C77415   1.606   5.884   1.776 -0.0856 -0.5151  0.5415
  574MOL0     C77416   1.639   5.742   1.820 -0.7378 -0.1716 -0.1253
  574MOL0     C77417   1.638   5.744   1.976  0.4426 -0.1341 -0.1180
  574MOL0     C77418   1.596   5.611   2.029 -0.0675  0.1903 -0.1093
  574MOL0     C77419   1.549   5.519   2.089 -1.0881  0.7627 -0.1820
  574MOL0     C77420   1.696   5.862   1.340  0.0417 -0.2089  0.4699
  574MOL0     C77421   1.704   5.799   1.213  0.2794  0.9673 -1.1029
  574MOL0     C77422   1.623   5.847   1.098  0.2729  0.6782  0.1735
  574MOL0     H77423   1.980   5.478   0.836 -1.6939 -0.2899 -2.2323
  574MOL0     H77424   1.965   5.248   0.693  0.4054 -2.4126  0.5154
  574MOL0     H77425   1.721   4.892   0.828 -0.2621  0.8129 -0.1465
  574MOL0     H77426   1.642   5.037   0.776 -0.2310 -0.6962  0.1342
  574MOL0     H77427   1.752   4.993   0.538 -1.5232  2.3407  1.4033
  574MOL0     H77428   1.615   4.898   0.590 -0.5391 -1.3008  2.2155
  574MOL0     H77429   1.791   4.709   0.650 -2.3512  1.0112  1.0486
  574MOL0     H77430   1.920   4.818   0.633  0.7682  0.2164 -2.3099
  574MOL0     H77431   1.772   4.736   0.387 -1.9181 -5.2336  3.9655
  574MOL0     H77432   1.930   4.832   0.400  2.4352 -2.4698 -0.8842
  574MOL0     H77433   2.042   4.651   0.506  2.2728 -1.0914 -1.9789
  574MOL0     H77434   1.892   4.555   0.527  0.4605 -1.9776 -0.6508
  574MOL0     H77435   2.037   4.635   0.269  2.1095  2.6774  4.8716
  574MOL0     H77436   2.050   4.475   0.353 -1.9925 -1.5854 -1.9171
  574MOL0     H77437   1.908   4.498   0.141 -1.7336 -1.9033 -1.0507
  574MOL0     H77438   1.771   4.569   0.240 -2.5670 -2.5625 -0.7088
  574MOL0     H77439   1.779   4.350   0.369 -1.0070  0.7384 -0.2086
  574MOL0     H77440   1.743   4.324   0.198  1.9585 -0.8480 -2.2960
  574MOL0     H77441   2.000   4.206   0.450 -0.0499  2.0622 -0.1574
  574MOL0     H77442   2.252   3.970   0.263  0.2807  1.3764  0.3815
  574MOL0     H77443   2.206   4.024   0.427 -1.2736  1.5049  1.3210
  574MOL0     H77444   2.004   3.898   0.427 -0.5149 -2.1487 -0.8871
  574MOL0     H77445   2.002   3.893   0.254 -1.2042 -1.2651  0.8070
  574MOL0     H77446   2.214   3.748   0.405 -1.4952 -0.9242  2.6092
  574MOL0     H77447   2.169   3.748   0.231  0.2222 -2.4802  0.0315
  574MOL0     H77448   2.124   3.535   0.338  0.4527  0.5153  1.1464
  574MOL0     H77449   1.986   3.619   0.262  1.2270  0.8912 -0.5641
  574MOL0     H77450   1.983   3.344   0.389  1.9803 -2.9381  1.3105
  574MOL0     H77451   1.850   3.181   0.496 -0.5464  1.6459 -5.0185
  574MOL0     H77452   1.478   3.225   0.630  3.1143 -2.1933  1.4040
  574MOL0     H77453   1.254   3.197   0.635 -0.6456  2.1759  0.3891
  574MOL0     H77454   1.008   3.164   0.681 -0.7997 -1.0076 -1.3085
  574MOL0     H77455   1.121   3.030   0.635  1.9956 -0.0902  1.4038
  574MOL0     H77456   0.878   2.999   0.605 -1.4589  3.8733  2.4922
  574MOL0     H77457   0.971   2.867   0.683  0.5682  0.6083 -1.1232
  574MOL0     H77458   0.876   2.939   0.913  1.3110 -0.5683 -0.7230
  574MOL0     H77459   0.777   3.055   0.822  0.0171  0.0645  1.3313
  574MOL0     H77460   0.784   2.750   0.767 -1.8679 -1.1949  1.4767
  574MOL0     H77461   0.648   2.863   0.758 -1.0187 -1.1457  0.2859
  574MOL0     H77462   0.756   2.796   1.035  1.7526 -1.9203 -1.5278
  574MOL0     H77463   0.669   2.674   0.938  2.9902 -1.9859  1.3918
  574MOL0     H77464   0.485   2.797   0.925 -0.0304  0.1931  0.3313
  574MOL0     H77465   0.544   2.771   1.096 -0.5351 -0.2731 -0.1232
  574MOL0     H77466   0.440   3.011   1.036 -0.0845 -0.8826 -3.1054
  574MOL0     H77467   0.573   3.027   0.934 -2.1014  0.2346 -0.7849
  574MOL0     H77468   0.579   2.986   1.247 -1.4586 -0.7534 -0.7483
  574MOL0     H77469   0.725   2.997   1.149  1.0857 -0.3759  0.5716
  574MOL0     H77470   1.282   3.063   1.059  1.5556 -1.5445 -0.2770
  574MOL0     H77471   1.505   3.145   1.052 -2.1627 -2.2572  1.3411
  574MOL0     H77472   1.732   3.465   0.803 -0.3633  0.6967 -0.3269
  574MOL0     H77473   1.846   3.645   0.667  0.4607  0.8987 -0.5314
  574MOL0     H77474   1.734   5.069   1.004  1.2851 -1.9776 -0.7052
  574MOL0     H77475   1.754   5.283   1.139 -0.0124  1.6744 -0.8399
  574MOL0     H77476   1.947   5.569   1.286  1.3972  0.9363 -0.8766
  574MOL0     H77477   1.940   5.680   1.497 -1.8339 -3.2644 -0.2078
  574MOL0     H77478   1.541   5.809   1.582 -0.9283 -1.1685  0.3728
  574MOL0     H77479   1.583   5.980   1.579  1.7875  0.1116 -0.6161
  574MOL0     H77480   1.509   5.927   1.805 -1.6836 -3.0171 -0.7588
  574MOL0     H77481   1.680   5.954   1.817 -0.9929 -0.2255  1.7394
  574MOL0     H77482   1.736   5.697   1.797  0.0485  1.2505  0.2800
  574MOL0     H77483   1.567   5.676   1.772  2.4006 -4.0111 -0.1047
  574MOL0     H77484   1.738   5.772   2.011  1.2705 -0.4746 -2.0985
  574MOL0     H77485   1.573   5.823   2.013  0.7185  0.0948 -0.1195
  574MOL0     H77486   1.507   5.429   2.128 -2.6918 -0.5017 -4.2395
  574MOL0     H77487   1.627   5.944   1.359 -2.1400 -1.9227  0.3568
  574MOL0     H77488   1.582   5.946   1.118 -1.9567 -0.3219  1.0010
  574MOL0     H77489   1.682   5.868   1.009  0.8755 -1.2843  0.0526
  574MOL0     H77490   1.543   5.773   1.085  1.3442 -0.7984  1.5266
  575MOL0     O77491   0.978   6.606   0.726 -0.6122 -0.8687 -0.0874
  575MOL0     C77492   0.908   6.583   0.632 -0.6459 -0.4810 -0.0713
  575MOL0     O77493   0.844   6.686   0.562  0.4515 -0.0995 -0.4362
  575MOL0     C77494   0.886   6.816   0.589  0.1551 -0.8977 -0.1871
  575MOL0     C77495   0.996   6.878   0.512 -0.2155 -0.8276  0.1504
  575MOL0     C77496   1.041   7.009   0.538 -0.6779  0.3973 -0.3832
  575MOL0     C77497   1.004   7.073   0.659 -0.1269  0.6315 -0.1897
  575MOL0     O77498   1.037   7.202   0.701 -0.2063  0.1952  0.5568
  575MOL0     C77499   1.117   7.281   0.607  0.0624  0.2756  0.0696
  575MOL0     C77500   1.152   7.395   0.713 -0.3494  1.6996  0.9626
  575MOL0     C77501   1.247   7.354   0.826  0.6180 -0.2999  0.8536
  575MOL0     C77502   1.172   7.328   0.954  1.3483 -0.5470 -0.1841
  575MOL0     C77503   1.288   7.301   1.056  0.5527  0.3526 -0.6150
  575MOL0     C77504   1.233   7.204   1.164  0.5408 -0.2977 -0.2068
  575MOL0     C77505   1.203   7.061   1.107  0.1064 -0.3519  0.2725
  575MOL0     C77506   1.296   6.943   1.112 -0.1661 -0.4105 -0.5436
  575MOL0     N77507   1.423   6.976   1.032 -0.2215 -0.3468  0.3395
  575MOL0     C77508   1.537   7.018   1.099  0.5043 -0.1292  0.2608
  575MOL0     C77509   1.628   7.039   0.995  1.0212 -0.3577  0.2645
  575MOL0     C77510   1.768   7.082   1.010 -0.1172 -0.2303 -0.6239
  575MOL0     C77511   1.780   7.228   1.014  0.7057  0.3371 -0.2295
  575MOL0     C77512   1.763   7.305   0.886 -0.3110 -0.6176 -0.5731
  575MOL0     C77513   1.748   7.451   0.896 -0.7261 -0.1643  0.6089
  575MOL0     O77514   1.618   7.483   0.955  0.4214  0.1997 -0.5823
  575MOL0     C77515   1.580   7.615   0.975 -0.2935 -0.2200  0.8773
  575MOL0     C77516   1.445   7.657   0.990  0.2147 -0.5648 -1.1670
  575MOL0     C77517   1.410   7.786   1.005 -0.5557 -0.2282 -0.1985
  575MOL0     C77518   1.508   7.884   1.013 -0.4697 -0.5174  0.3244
  575MOL0     C77519   1.470   8.026   1.031 -0.6120 -0.2731 -0.3528
  575MOL0     O77520   1.580   8.113   1.052  0.1805  0.1284  0.9968
  575MOL0     C77521   1.540   8.243   1.075  0.1635 -0.2215 -0.1221
  575MOL0     C77522   1.513   8.341   0.980  1.0432  0.0026 -0.6280
  575MOL0     C77523   1.452   8.457   1.008 -0.1606 -0.6881  0.3080
  575MOL0     C77524   1.409   8.483   1.135  0.4283  0.8844 -1.3923
  575MOL0     O77525   1.352   8.597   1.170 -0.2596  0.4112  0.5051
  575MOL0     C77526   1.437   8.707   1.160  0.0811 -0.6038  0.4878
  575MOL0     C77527   1.380   8.844   1.213 -0.0127 -0.1338  0.3974
  575MOL0     C77528   1.388   8.846   1.362 -0.0911  0.2583 -1.0607
  575MOL0     C77529   1.291   8.950   1.422 -0.1213  0.0429 -0.5945
  575MOL0     C77530   1.334   8.969   1.573 -0.6063  0.4723 -1.0897
  575MOL0     C77531   1.218   9.025   1.657  0.3279  0.4264  0.5524
  575MOL0     C77532   1.228   9.005   1.807  0.4167 -0.6538  0.3294
  575MOL0     C77533   1.138   9.112   1.875 -0.2142 -0.4337 -0.3625
  575MOL0    Cl77534   1.107   9.056   2.043  0.2891  0.5819 -0.8260
  575MOL0     C77535   1.433   8.386   1.235 -0.1472 -0.4996 -0.1386
  575MOL0     C77536   1.494   8.272   1.201 -0.1558  1.0427 -0.7393
  575MOL0     O77537   1.351   8.049   1.025 -0.7104 -0.4846  0.1563
  575MOL0     C77538   1.647   7.852   0.999 -0.3903  0.7312 -0.1307
  575MOL0     C77539   1.681   7.720   0.972 -0.1227 -0.6823 -0.6045
  575MOL0     N77540   1.576   6.992   0.878  0.1587  0.1866  0.7440
  575MOL0     N77541   1.449   6.965   0.895 -1.0029  0.4956 -0.2391
  575MOL0     C77542   0.916   7.004   0.753 -0.1211 -0.1530 -0.3403
  575MOL0     C77543   0.852   6.880   0.707 -0.2387 -0.5511  0.5394
  575MOL0     C77544   0.897   6.427   0.599 -1.5502  0.0170 -1.1649
  575MOL0     C77545   0.962   6.340   0.689 -0.9207 -0.1128  0.3185
  575MOL0     C77546   0.932   6.204   0.694  0.2701 -0.8747 -0.6169
  575MOL0     C77547   0.835   6.156   0.609  0.2397 -0.0759  0.6874
  575MOL0     O77548   0.801   6.019   0.606 -0.2233 -0.1507  0.3441
  575MOL0     C77549   0.910   5.923   0.594 -1.0437  0.5530 -0.0656
  575MOL0     C77550   0.871   5.776   0.593  0.1768 -0.6506 -0.4717
  575MOL0     C77551   0.989   5.686   0.617  0.1162  0.3210  0.3768
  575MOL0     C77552   0.986   5.523   0.593  0.0917 -0.3994 -0.2787
  575MOL0     C77553   0.885   5.492   0.487 -0.9930 -0.3100  0.7367
  575MOL0     C77554   0.820   5.469   0.391  0.0320 -0.5681 -0.2615
  575MOL0     C77555   0.766   6.245   0.523  0.5736 -0.4528 -0.4131
  575MOL0     C77556   0.791   6.378   0.523  0.3935 -0.7368 -0.7086
  575MOL0     C77557   0.719   6.476   0.426 -0.2682  0.4954 -0.1362
  575MOL0     H77558   1.038   6.834   0.422  1.9225  0.8453  0.2420
  575MOL0     H77559   1.115   7.051   0.471 -1.0711 -2.2440 -2.6740
  575MOL0     H77560   1.209   7.235   0.570  0.3810  1.7080 -1.0040
  575MOL0     H77561   1.054   7.316   0.525  0.8226 -1.6675 -1.4195
  575MOL0     H77562   1.060   7.432   0.758 -0.8324 -0.4582  1.8417
  575MOL0     H77563   1.190   7.487   0.667 -0.3131  1.5850  0.7645
  575MOL0     H77564   1.321   7.433   0.839  0.5770 -0.1572  0.2114
  575MOL0     H77565   1.292   7.258   0.798  0.9448 -1.1698  3.9193
  575MOL0     H77566   1.109   7.416   0.972 -1.9361 -2.4249 -1.7650
  575MOL0     H77567   1.099   7.248   0.947 -1.7423  2.1106 -0.8376
  575MOL0     H77568   1.382   7.257   1.021 -0.0255 -1.3644 -0.1056
  575MOL0     H77569   1.306   7.394   1.111 -2.5810  0.6185  0.1301
  575MOL0     H77570   1.308   7.196   1.243  0.6345  0.2003 -0.2418
  575MOL0     H77571   1.141   7.247   1.205  1.4795  0.1267  1.5562
  575MOL0     H77572   1.196   7.067   0.998  2.0056 -0.5733  0.1052
  575MOL0     H77573   1.103   7.029   1.138  0.0399 -1.1996 -0.7652
  575MOL0     H77574   1.328   6.908   1.210 -1.8425 -4.6753 -1.2846
  575MOL0     H77575   1.245   6.859   1.064 -1.3457  0.1827 -0.3622
  575MOL0     H77576   1.541   7.060   1.199  0.8247  0.4248  0.0152
  575MOL0     H77577   1.822   7.043   1.097  1.0754  2.5654  0.0066
  575MOL0     H77578   1.822   7.046   0.922  1.6172  0.6669  0.0138
  575MOL0     H77579   1.714   7.265   1.093  2.3793  0.0294  1.3767
  575MOL0     H77580   1.879   7.249   1.057  0.1028  1.2914  0.7323
  575MOL0     H77581   1.691   7.249   0.825  0.1817 -1.9104 -0.0163
  575MOL0     H77582   1.855   7.293   0.829  0.0772  1.4026 -0.4269
  575MOL0     H77583   1.750   7.498   0.797 -1.8997  0.6854  0.9666
  575MOL0     H77584   1.832   7.485   0.956 -1.5115 -0.0569  1.6777
  575MOL0     H77585   1.366   7.584   0.980 -2.0344  0.7731  3.6673
  575MOL0     H77586   1.307   7.815   1.017 -0.4848  0.4071 -1.0231
  575MOL0     H77587   1.545   8.327   0.877  0.1206  1.1941 -1.0915
  575MOL0     H77588   1.432   8.530   0.930 -0.2668  0.1001  1.0512
  575MOL0     H77589   1.529   8.681   1.212  0.4546  0.0923  0.1858
  575MOL0     H77590   1.452   8.726   1.053 -1.3578 -4.7901 -0.6472
  575MOL0     H77591   1.446   8.926   1.183  1.9739 -1.9693 -0.4684
  575MOL0     H77592   1.278   8.855   1.174 -0.4532 -4.6048 -0.2368
  575MOL0     H77593   1.349   8.752   1.404 -0.7344  1.7623  2.0259
  575MOL0     H77594   1.489   8.864   1.400 -0.3284 -0.6342  0.0550
  575MOL0     H77595   1.186   8.925   1.405  0.7629 -2.3611 -3.4768
  575MOL0     H77596   1.308   9.043   1.368  0.2445  0.8309  0.8382
  575MOL0     H77597   1.417   9.041   1.568  1.6144 -1.9410 -1.3589
  575MOL0     H77598   1.372   8.874   1.612  0.8728  1.5907  0.2992
  575MOL0     H77599   1.220   9.133   1.641  1.7569  0.4687  0.8808
  575MOL0     H77600   1.122   8.981   1.629  1.1834 -1.1398 -0.0576
  575MOL0     H77601   1.336   9.007   1.825  1.1060 -1.4234 -3.1268
  575MOL0     H77602   1.178   8.909   1.823 -0.6181 -0.1240  0.3251
  575MOL0     H77603   1.189   9.208   1.863 -2.2319  0.8458  0.6938
  575MOL0     H77604   1.043   9.134   1.825  0.5155  0.0721 -1.5804
  575MOL0     H77605   1.407   8.394   1.340  0.5244  0.0837 -0.0148
  575MOL0     H77606   1.500   8.207   1.289  0.5005 -0.5310 -1.9028
  575MOL0     H77607   1.726   7.925   1.014  0.9613 -0.5970 -0.5383
  575MOL0     H77608   1.783   7.683   0.967  0.8170  1.8553 -1.9060
  575MOL0     H77609   0.898   7.045   0.852  1.9253 -0.0255  0.0368
  575MOL0     H77610   0.781   6.825   0.769 -0.1656 -2.1887 -0.7485
  575MOL0     H77611   1.014   6.388   0.772 -0.0675  2.7320 -1.6980
  575MOL0     H77612   0.987   6.144   0.766  0.9438 -0.9061 -1.1419
  575MOL0     H77613   0.986   5.927   0.672 -1.8509 -2.1320  0.9675
  575MOL0     H77614   0.963   5.955   0.503 -1.5952  0.4233 -0.4396
  575MOL0     H77615   0.833   5.759   0.492  2.9746 -0.4588 -1.6500
  575MOL0     H77616   0.795   5.748   0.666  1.1111 -0.9553  0.4104
  575MOL0     H77617   1.019   5.697   0.722 -2.4871  0.0536  1.2063
  575MOL0     H77618   1.071   5.722   0.554 -0.9018  1.2522 -0.4415
  575MOL0     H77619   1.090   5.492   0.574  0.2294  0.2893 -0.6813
  575MOL0     H77620   0.954   5.470   0.683 -0.4333 -1.9188 -1.3362
  575MOL0     H77621   0.773   5.461   0.295  1.1172 -1.4960 -0.7389
  575MOL0     H77622   0.675   6.203   0.484 -0.6674 -0.9516  2.7422
  575MOL0     H77623   0.799   6.519   0.364  0.5191 -0.0446  0.4734
  575MOL0     H77624   0.649   6.423   0.361 -0.5032  0.7866 -0.1178
  575MOL0     H77625   0.667   6.562   0.467 -0.6378  0.1384  0.1553
  576MOL0     O77626   0.782   1.852   4.244  0.6011  0.1697 -0.5232
  576MOL0     C77627   0.877   1.810   4.184  0.6217 -0.0801  0.2237
  576MOL0     O77628   0.947   1.873   4.077  0.4842 -0.9663  0.0253
  576MOL0     C77629   0.891   1.984   4.008 -0.1651  0.3729  0.1284
  576MOL0     C77630   0.917   1.976   3.870  0.3206 -0.3173  0.2516
  576MOL0     C77631   0.888   2.079   3.789 -0.2513  0.2411 -0.1600
  576MOL0     C77632   0.812   2.193   3.838 -0.3822 -0.2730 -0.3495
  576MOL0     O77633   0.761   2.297   3.759  0.8849 -0.2454  0.5913
  576MOL0     C77634   0.782   2.295   3.618 -0.7656 -0.6412  0.1697
  576MOL0     C77635   0.676   2.236   3.532  0.5692 -0.6288 -0.5811
  576MOL0     C77636   0.558   2.334   3.506  0.2605  0.5092 -0.8537
  576MOL0     C77637   0.495   2.304   3.374 -0.4236 -0.9245 -0.3073
  576MOL0     C77638   0.374   2.398   3.362  0.0588  0.0459 -0.0741
  576MOL0     C77639   0.293   2.338   3.245 -0.4996  1.2200 -0.1064
  576MOL0     C77640   0.175   2.415   3.208 -0.0236  0.2578  0.0242
  576MOL0     C77641   0.208   2.560   3.155  0.2674 -0.3717  1.0069
  576MOL0     N77642   0.088   2.642   3.118  0.6317  0.7703 -0.1849
  576MOL0     C77643  -0.018   2.669   3.206  0.4848  0.1008  1.2838
  576MOL0     C77644  -0.109   2.728   3.132  0.0290 -0.1050 -0.5287
  576MOL0     C77645  -0.247   2.759   3.175 -0.5755  0.2331  1.1052
  576MOL0     C77646  -0.254   2.867   3.280  0.3307  0.0758 -0.1757
  576MOL0     C77647  -0.406   2.864   3.333 -0.1048 -0.4353 -0.1267
  576MOL0     C77648  -0.455   2.744   3.409 -0.3216 -0.5333 -1.0298
  576MOL0     O77649  -0.533   2.649   3.336 -0.5029  0.5322  0.2650
  576MOL0     C77650  -0.608   2.552   3.393  0.8277  0.0374 -0.5616
  576MOL0     C77651  -0.583   2.502   3.518 -0.8549  0.3011 -0.2644
  576MOL0     C77652  -0.665   2.400   3.560  0.1310  0.6937 -0.3995
  576MOL0     C77653  -0.784   2.356   3.495  0.7905  0.2504  0.3684
  576MOL0     C77654  -0.885   2.269   3.560  0.6550  0.5532  1.0445
  576MOL0     O77655  -1.011   2.290   3.524 -0.0482 -0.3428 -0.6871
  576MOL0     C77656  -1.121   2.225   3.578 -0.7948  0.8455 -0.7435
  576MOL0     C77657  -1.225   2.301   3.621  0.2286  0.0456  0.4606
  576MOL0     C77658  -1.348   2.241   3.657 -0.3567  0.8283 -0.7560
  576MOL0     C77659  -1.362   2.099   3.652 -0.3890 -0.2371  0.2516
  576MOL0     O77660  -1.469   2.021   3.686 -0.1367  0.1835  0.8008
  576MOL0     C77661  -1.588   2.073   3.733  0.1490 -0.2510  0.6537
  576MOL0     C77662  -1.585   2.113   3.885  0.1703 -0.4468  1.4788
  576MOL0     C77663  -1.628   2.250   3.913 -0.4337 -0.1037 -0.6229
  576MOL0     C77664  -1.632   2.277   4.063 -0.3173 -0.2723  0.3316
  576MOL0     C77665  -1.564   2.414   4.098 -0.3868  0.0277  0.3283
  576MOL0     C77666  -1.640   2.530   4.032  0.3443  0.6072 -0.1809
  576MOL0     C77667  -1.596   2.669   4.062 -0.6519  0.0281 -0.1179
  576MOL0     C77668  -1.471   2.686   4.154  0.8141  0.3776 -0.0930
  576MOL0    Cl77669  -1.423   2.870   4.159 -0.2316 -0.1635  0.3359
  576MOL0     C77670  -1.252   2.026   3.604  0.6293  0.1632 -0.7887
  576MOL0     C77671  -1.134   2.085   3.564  0.0374 -0.6667 -0.1435
  576MOL0     O77672  -0.852   2.187   3.647 -0.9258 -0.0171 -0.6308
  576MOL0     C77673  -0.798   2.408   3.364  1.3131 -0.5866  0.0063
  576MOL0     C77674  -0.705   2.489   3.311 -0.7306 -0.6086 -1.3569
  576MOL0     N77675  -0.050   2.753   3.014  0.6711  0.1136 -0.1967
  576MOL0     N77676   0.057   2.689   3.001  0.7782  0.2500  0.1529
  576MOL0     C77677   0.795   2.207   3.971  0.6777 -0.2133 -0.8601
  576MOL0     C77678   0.840   2.105   4.059  0.0817 -0.2709  0.1322
  576MOL0     C77679   0.937   1.690   4.234  0.0892  0.1974  0.1267
  576MOL0     C77680   1.078   1.676   4.238 -0.0126  0.3097  0.7038
  576MOL0     C77681   1.149   1.566   4.295  0.0171 -0.4741  0.1948
  576MOL0     C77682   1.082   1.453   4.350 -0.1729 -0.1240  0.0804
  576MOL0     O77683   1.163   1.351   4.395  0.5932  0.7181  0.3471
  576MOL0     C77684   1.111   1.278   4.507 -1.0956  0.5519 -0.2320
  576MOL0     C77685   1.195   1.149   4.514  0.4406  0.5083 -0.8383
  576MOL0     C77686   1.182   1.043   4.625  0.2007 -0.0716 -0.1423
  576MOL0     C77687   1.285   1.094   4.739 -0.2015  0.2910 -0.8766
  576MOL0     C77688   1.293   0.985   4.841 -0.2775 -0.9575 -0.6273
  576MOL0     C77689   1.294   0.899   4.930  0.1202 -1.7349  0.1929
  576MOL0     C77690   0.938   1.450   4.338  0.2737 -0.5516 -0.1283
  576MOL0     C77691   0.871   1.566   4.274  0.5986 -0.4726  0.7583
  576MOL0     C77692   0.721   1.552   4.249 -0.2912  0.8674  0.3319
  576MOL0     H77693   0.981   1.900   3.826  0.6645  0.5258 -0.7658
  576MOL0     H77694   0.916   2.062   3.685 -0.2776  0.6728 -0.2414
  576MOL0     H77695   0.780   2.400   3.587 -2.3127 -0.2642  1.4214
  576MOL0     H77696   0.879   2.254   3.589 -0.8979 -0.6177 -0.3186
  576MOL0     H77697   0.641   2.146   3.583  1.5513  1.1275  3.5970
  576MOL0     H77698   0.708   2.212   3.430  2.1741  3.3618 -1.2047
  576MOL0     H77699   0.596   2.435   3.484 -0.0181  0.6268 -0.8007
  576MOL0     H77700   0.489   2.331   3.591 -1.4663 -2.2446 -2.2220
  576MOL0     H77701   0.562   2.328   3.292  3.3752  4.7546  3.6786
  576MOL0     H77702   0.473   2.197   3.372  1.4184 -1.3223 -2.6416
  576MOL0     H77703   0.314   2.395   3.453  0.4277 -5.7118  0.3564
  576MOL0     H77704   0.408   2.500   3.344 -0.0193  0.1179  0.1730
  576MOL0     H77705   0.348   2.345   3.150  1.4277  1.2380  0.9693
  576MOL0     H77706   0.260   2.238   3.271  2.0631  0.7524  1.7148
  576MOL0     H77707   0.103   2.428   3.289 -1.3810 -4.7246 -0.0709
  576MOL0     H77708   0.114   2.363   3.134  2.3935  1.4558 -3.0467
  576MOL0     H77709   0.256   2.623   3.231  0.2380  0.1622  0.5902
  576MOL0     H77710   0.273   2.547   3.068 -4.8015 -0.8769 -3.2227
  576MOL0     H77711  -0.020   2.632   3.307  0.2926 -4.4142 -0.1466
  576MOL0     H77712  -0.295   2.794   3.084  0.2949  1.1058  0.9707
  576MOL0     H77713  -0.286   2.666   3.218 -0.8645  0.3812  1.1657
  576MOL0     H77714  -0.187   2.837   3.361 -3.0679 -1.6164  2.2563
  576MOL0     H77715  -0.231   2.966   3.239 -3.6702  1.5537  0.6707
  576MOL0     H77716  -0.473   2.877   3.247  0.2836  1.1630 -0.2214
  576MOL0     H77717  -0.413   2.945   3.406  1.4312 -1.4687  1.2408
  576MOL0     H77718  -0.519   2.770   3.493  1.3843 -0.8411  0.4371
  576MOL0     H77719  -0.374   2.694   3.463  1.6981  2.1610 -1.3564
  576MOL0     H77720  -0.498   2.534   3.579  0.4219 -2.0256 -0.7000
  576MOL0     H77721  -0.647   2.364   3.661 -4.6085 -0.6954  0.1959
  576MOL0     H77722  -1.210   2.409   3.626  2.0952 -0.1270 -0.3850
  576MOL0     H77723  -1.428   2.302   3.698  1.2851  0.6811  3.0548
  576MOL0     H77724  -1.618   2.162   3.676 -0.2688 -0.2678  0.8429
  576MOL0     H77725  -1.666   1.997   3.727 -0.1238 -0.2050  2.7738
  576MOL0     H77726  -1.646   2.037   3.934 -0.1781 -0.4493  1.0464
  576MOL0     H77727  -1.483   2.099   3.922  1.0127  1.3934  0.0154
  576MOL0     H77728  -1.552   2.317   3.873 -0.4188  1.1815  1.4341
  576MOL0     H77729  -1.724   2.273   3.867 -2.1541 -2.2156  1.5986
  576MOL0     H77730  -1.574   2.208   4.125 -0.0977  0.0836  0.5235
  576MOL0     H77731  -1.736   2.281   4.096  0.6189 -0.6766  3.7283
  576MOL0     H77732  -1.456   2.406   4.079 -0.3953 -1.5264  0.7706
  576MOL0     H77733  -1.582   2.426   4.206 -1.9375  1.8426 -0.0900
  576MOL0     H77734  -1.640   2.517   3.924 -0.5423  1.1452 -0.2555
  576MOL0     H77735  -1.744   2.510   4.059  0.4341 -0.4848 -0.6049
  576MOL0     H77736  -1.676   2.722   4.114 -1.6265 -0.4377 -1.1078
  576MOL0     H77737  -1.569   2.707   3.963  0.5331 -0.4121  0.0147
  576MOL0     H77738  -1.502   2.643   4.250  0.6015 -0.1619 -0.4015
  576MOL0     H77739  -1.387   2.633   4.109  2.2073  2.0605  0.4111
  576MOL0     H77740  -1.266   1.918   3.602  3.2591 -0.2609 -0.0177
  576MOL0     H77741  -1.062   2.015   3.524  0.4520 -0.4669  0.2429
  576MOL0     H77742  -0.888   2.386   3.307  0.0754  1.5662  1.0166
  576MOL0     H77743  -0.701   2.524   3.209  0.7782  0.3491 -0.9982
  576MOL0     H77744   0.733   2.292   3.998 -0.0187  0.6119 -4.5429
  576MOL0     H77745   0.844   2.131   4.165 -3.8517  1.1885  0.0731
  576MOL0     H77746   1.136   1.767   4.223 -0.6696  1.2913  3.4489
  576MOL0     H77747   1.257   1.568   4.293  0.0230 -0.5511  0.3990
  576MOL0     H77748   1.008   1.249   4.486 -0.5618 -0.2636 -1.9148
  576MOL0     H77749   1.122   1.334   4.600  4.3545 -2.1261  1.1780
  576MOL0     H77750   1.302   1.167   4.502  0.4999 -0.9025 -3.0241
  576MOL0     H77751   1.162   1.084   4.433  3.6719 -2.6654  0.1045
  576MOL0     H77752   1.236   0.957   4.585  0.0692 -0.6206  0.8214
  576MOL0     H77753   1.078   1.027   4.653  0.2215 -0.1462 -0.1052
  576MOL0     H77754   1.389   1.106   4.706  0.6040 -1.0157  1.0116
  576MOL0     H77755   1.256   1.189   4.784 -0.2699 -0.7058  1.2687
  576MOL0     H77756   1.283   0.817   4.998 -1.5057 -2.0815 -0.4412
  576MOL0     H77757   0.887   1.365   4.383  1.3453 -0.1841  1.8950
  576MOL0     H77758   0.690   1.586   4.150 -3.8502  1.1222  1.4045
  576MOL0     H77759   0.691   1.447   4.250  2.2227 -0.2487 -5.2036
  576MOL0     H77760   0.664   1.619   4.314  0.4097  0.3111  1.5564
  577MOL0     O77761   3.430   3.534   0.472 -0.1256  1.0232  0.0447
  577MOL0     C77762   3.515   3.615   0.430  0.2126 -0.6891 -0.9886
  577MOL0     O77763   3.567   3.720   0.504 -0.5060  0.6095  0.0876
  577MOL0     C77764   3.524   3.751   0.624  0.5355  0.3710  0.1744
  577MOL0     C77765   3.521   3.895   0.648 -0.3421 -0.2151 -0.5386
  577MOL0     C77766   3.467   3.932   0.770 -0.4477  0.3522  0.7179
  577MOL0     C77767   3.431   3.842   0.869  0.3271  0.4327 -0.5049
  577MOL0     O77768   3.383   3.879   0.992  0.1175 -0.6226  0.3415
  577MOL0     C77769   3.355   4.011   1.050 -0.0694  0.8765  0.1122
  577MOL0     C77770   3.224   3.984   1.138 -0.1620 -0.6376  1.0886
  577MOL0     C77771   3.164   4.099   1.207  0.5664  0.3771 -0.2882
  577MOL0     C77772   3.025   4.088   1.260  1.0603 -0.4666  0.4472
  577MOL0     C77773   2.967   4.208   1.342  0.4609 -0.4387  0.1850
  577MOL0     C77774   2.811   4.202   1.363 -0.5997 -0.9797 -0.1715
  577MOL0     C77775   2.753   4.323   1.446  0.2120 -0.0299  0.2368
  577MOL0     C77776   2.778   4.465   1.379 -0.2109  1.1391  0.8947
  577MOL0     N77777   2.842   4.576   1.454  0.6579 -0.0445 -0.1831
  577MOL0     C77778   2.776   4.674   1.520  0.4465  0.6196 -0.3562
  577MOL0     C77779   2.872   4.739   1.592  0.6037  0.5713  0.3082
  577MOL0     C77780   2.869   4.851   1.692 -1.2803  0.5838  1.4910
  577MOL0     C77781   2.816   4.975   1.649 -0.0539  0.5677 -0.0171
  577MOL0     C77782   2.669   4.969   1.623  0.9253  1.5875 -0.2840
  577MOL0     C77783   2.602   5.100   1.586 -0.1135 -0.2601 -0.0505
  577MOL0     O77784   2.469   5.088   1.561 -0.0315  0.1294 -0.1744
  577MOL0     C77785   2.377   5.122   1.665 -0.9652  0.1630 -0.0610
  577MOL0     C77786   2.251   5.144   1.628 -0.6823 -0.6201 -0.1700
  577MOL0     C77787   2.159   5.165   1.724  0.2818 -1.3868  0.0558
  577MOL0     C77788   2.192   5.166   1.862  0.5236  0.0349  0.6538
  577MOL0     C77789   2.091   5.201   1.957 -0.4971 -0.0367 -0.3149
  577MOL0     O77790   2.133   5.192   2.091  0.2810 -0.2555  0.3624
  577MOL0     C77791   2.066   5.235   2.205 -0.6446  0.0552 -0.1933
  577MOL0     C77792   1.981   5.344   2.206  1.0233  0.4036  1.6196
  577MOL0     C77793   1.924   5.384   2.325  0.0913  0.2376 -0.4090
  577MOL0     C77794   1.957   5.318   2.449 -0.0801 -0.6672 -0.8831
  577MOL0     O77795   1.894   5.350   2.567 -0.6786 -0.7594 -0.6145
  577MOL0     C77796   1.765   5.291   2.575 -0.2076  0.4711 -0.5159
  577MOL0     C77797   1.660   5.394   2.564  0.3759 -0.6558  0.0254
  577MOL0     C77798   1.680   5.498   2.680  0.0492 -0.7255  0.1330
  577MOL0     C77799   1.610   5.633   2.643 -0.4207 -0.3609 -0.6764
  577MOL0     C77800   1.612   5.721   2.763  0.5450  0.1558  0.4819
  577MOL0     C77801   1.525   5.844   2.727  0.1853  0.3489 -0.2795
  577MOL0     C77802   1.373   5.807   2.759  0.9111 -0.5989 -0.0555
  577MOL0     C77803   1.281   5.935   2.771 -0.0227  0.2006 -0.0168
  577MOL0    Cl77804   1.289   6.021   2.611 -1.0309 -0.2937 -0.1994
  577MOL0     C77805   2.053   5.218   2.440 -0.0972  0.2666 -0.6927
  577MOL0     C77806   2.107   5.175   2.322  1.0104  0.0031  0.9423
  577MOL0     O77807   1.977   5.221   1.925  0.4737  0.3771  0.3756
  577MOL0     C77808   2.317   5.131   1.903 -0.2532  0.3990 -0.0454
  577MOL0     C77809   2.417   5.119   1.805  0.2894 -0.5689 -0.0484
  577MOL0     N77810   2.993   4.686   1.548  0.2959  0.1904  0.3808
  577MOL0     N77811   2.975   4.583   1.472  0.4768  0.1411 -0.5332
  577MOL0     C77812   3.456   3.708   0.847 -0.4160  0.0779  0.0988
  577MOL0     C77813   3.493   3.650   0.727 -0.1341  0.5899 -0.3843
  577MOL0     C77814   3.594   3.587   0.309  0.8041  0.0866 -0.1791
  577MOL0     C77815   3.724   3.634   0.300  0.3803  0.4995  0.8315
  577MOL0     C77816   3.799   3.625   0.190 -0.4725 -0.1932  1.7765
  577MOL0     C77817   3.746   3.548   0.074 -0.0513  1.1343  0.0745
  577MOL0     O77818   3.818   3.537  -0.047  0.4118  0.4820  0.4212
  577MOL0     C77819   3.959   3.571  -0.057  0.5577 -0.8970 -0.4607
  577MOL0     C77820   3.980   3.703  -0.130 -1.1987  0.0091  0.0779
  577MOL0     C77821   4.130   3.733  -0.173  0.1076  0.6045  1.1115
  577MOL0     C77822   4.138   3.886  -0.209  1.3272 -0.4088  0.9148
  577MOL0     C77823   4.074   3.910  -0.340  0.6389  0.0438 -0.4322
  577MOL0     C77824   4.024   3.944  -0.450  0.1336 -0.2976 -1.3301
  577MOL0     C77825   3.621   3.501   0.078  0.2481 -0.5728 -0.4415
  577MOL0     C77826   3.542   3.524   0.198  0.1837  0.1506  0.1367
  577MOL0     C77827   3.404   3.460   0.190 -0.6020 -0.6591 -0.7433
  577MOL0     H77828   3.565   3.971   0.583 -1.4738 -0.7272 -1.9420
  577MOL0     H77829   3.467   4.040   0.776  0.2643  0.4295 -0.3280
  577MOL0     H77830   3.447   4.034   1.105 -1.2124 -0.2381  2.6401
  577MOL0     H77831   3.332   4.093   0.981 -1.5703 -1.5095 -2.4459
  577MOL0     H77832   3.235   3.895   1.201  0.0191  0.7797  3.1520
  577MOL0     H77833   3.149   3.966   1.060  1.2461  0.2054 -0.5102
  577MOL0     H77834   3.147   4.180   1.135 -3.9995  3.0330  3.1786
  577MOL0     H77835   3.235   4.137   1.281  1.1999  0.3401 -0.8630
  577MOL0     H77836   2.959   4.080   1.173  1.1421  0.5481  0.2827
  577MOL0     H77837   3.013   3.994   1.314  0.3702 -0.0768  0.9972
  577MOL0     H77838   3.019   4.228   1.436  1.5403  2.4679 -0.9256
  577MOL0     H77839   2.989   4.294   1.279  1.1318 -2.4066 -2.4295
  577MOL0     H77840   2.759   4.196   1.267  0.9419  4.1464 -1.6431
  577MOL0     H77841   2.794   4.108   1.416  0.5100 -0.4486  1.1709
  577MOL0     H77842   2.811   4.318   1.538 -1.2361 -0.5375  1.1623
  577MOL0     H77843   2.650   4.303   1.478  0.1219 -2.3498 -1.2869
  577MOL0     H77844   2.838   4.449   1.290 -0.0466 -0.7535  1.3008
  577MOL0     H77845   2.680   4.488   1.337 -2.2882 -3.5655  2.4097
  577MOL0     H77846   2.669   4.681   1.532  0.0796 -1.1639 -1.9264
  577MOL0     H77847   2.822   4.815   1.785 -1.1349  0.1167  1.3880
  577MOL0     H77848   2.974   4.876   1.708 -1.6533  3.0225  0.4948
  577MOL0     H77849   2.832   5.053   1.724 -0.4018  0.1548  0.4923
  577MOL0     H77850   2.862   5.014   1.557  0.7791  0.1373  0.2160
  577MOL0     H77851   2.611   4.937   1.711  2.1364  2.5038  0.8966
  577MOL0     H77852   2.650   4.893   1.547  0.7698 -0.0756  1.3482
  577MOL0     H77853   2.638   5.129   1.487 -0.5519 -2.1313 -0.8085
  577MOL0     H77854   2.634   5.183   1.649 -1.0136  1.2022 -1.4493
  577MOL0     H77855   2.226   5.146   1.523  2.2924 -1.9991 -1.0173
  577MOL0     H77856   2.058   5.182   1.688  0.1087  0.9244  1.4492
  577MOL0     H77857   1.944   5.392   2.116 -1.3039  0.1732  2.3771
  577MOL0     H77858   1.860   5.472   2.331  1.3666  1.1061  4.6740
  577MOL0     H77859   1.761   5.203   2.509  1.4974  0.3538 -0.5126
  577MOL0     H77860   1.761   5.258   2.679  1.2724  2.2761  0.1699
  577MOL0     H77861   1.662   5.465   2.481  0.8367  2.7817  2.7392
  577MOL0     H77862   1.560   5.351   2.575  0.1354 -0.8006 -2.3202
  577MOL0     H77863   1.631   5.451   2.766  2.2702 -1.4220  1.1023
  577MOL0     H77864   1.785   5.502   2.713  0.1152 -3.5221  0.5177
  577MOL0     H77865   1.507   5.620   2.607 -0.9469  0.5530  0.4358
  577MOL0     H77866   1.662   5.688   2.563 -2.2624  1.2183 -0.8685
  577MOL0     H77867   1.715   5.758   2.776  0.1705  2.3684 -2.0114
  577MOL0     H77868   1.582   5.664   2.851 -0.2928 -0.0117  0.0893
  577MOL0     H77869   1.557   5.927   2.790  0.0793 -0.3530  0.7257
  577MOL0     H77870   1.535   5.877   2.623 -2.2605 -1.3610 -1.1372
  577MOL0     H77871   1.373   5.744   2.849 -0.2052 -0.8886 -0.2324
  577MOL0     H77872   1.332   5.731   2.690 -0.2371  0.4685 -0.5886
  577MOL0     H77873   1.177   5.906   2.788  0.6408 -0.9250  2.6011
  577MOL0     H77874   1.320   5.982   2.861 -0.7492 -3.8730  2.6941
  577MOL0     H77875   2.082   5.153   2.522 -2.3294 -0.5742 -0.5057
  577MOL0     H77876   2.182   5.097   2.318  1.0432  0.0532  0.5396
  577MOL0     H77877   2.347   5.140   2.007 -1.8246  3.3350  0.2632
  577MOL0     H77878   2.515   5.089   1.841  0.4935 -1.4460 -1.3100
  577MOL0     H77879   3.422   3.648   0.930 -5.0971  1.0904 -0.8225
  577MOL0     H77880   3.502   3.543   0.711 -1.5339  0.5000 -0.6426
  577MOL0     H77881   3.761   3.692   0.384 -0.3270  0.5111  1.1384
  577MOL0     H77882   3.898   3.668   0.192  0.1188 -1.4572  4.7015
  577MOL0     H77883   4.013   3.487  -0.102 -1.7330 -4.1003  2.1949
  577MOL0     H77884   3.997   3.583   0.045  0.0602  2.4091 -0.5663
  577MOL0     H77885   3.941   3.785  -0.069  1.7082  1.2301  0.4684
  577MOL0     H77886   3.929   3.689  -0.226  0.9569  0.1358 -1.1451
  577MOL0     H77887   4.166   3.673  -0.257 -3.9059  1.2890 -1.3548
  577MOL0     H77888   4.198   3.731  -0.088  1.6402  0.6483 -0.0616
  577MOL0     H77889   4.090   3.934  -0.124 -2.4491 -0.2486 -1.0940
  577MOL0     H77890   4.243   3.917  -0.212  1.8753 -2.0729  1.7647
  577MOL0     H77891   3.983   3.963  -0.547  0.1437 -1.5944 -1.5929
  577MOL0     H77892   3.590   3.460  -0.018 -3.2196  0.2363  0.1991
  577MOL0     H77893   3.373   3.422   0.093  2.6806  1.1617 -2.7020
  577MOL0     H77894   3.402   3.382   0.267  2.2014  0.4098  0.5558
  577MOL0     H77895   3.328   3.535   0.214  0.3487 -0.6250  2.6789
  578MOL0     O77896   1.063  11.459   6.437  0.3198 -1.0764 -0.9308
  578MOL0     C77897   1.067  11.543   6.362  0.0688  0.1122 -0.5104
  578MOL0     O77898   1.117  11.537   6.240 -0.9251 -0.2038  0.4747
  578MOL0     C77899   1.170  11.417   6.200  1.0687 -0.1139  1.0435
  578MOL0     C77900   1.299  11.378   6.227 -0.1781  0.1313  0.3693
  578MOL0     C77901   1.348  11.246   6.192  0.2948  0.4204 -0.0077
  578MOL0     C77902   1.256  11.152   6.133 -0.6128 -0.4569 -0.4572
  578MOL0     O77903   1.294  11.024   6.111  0.1970 -0.0542 -0.1449
  578MOL0     C77904   1.394  10.961   6.187 -0.5723  1.0817 -0.2788
  578MOL0     C77905   1.411  10.820   6.141 -0.2906  0.3857  0.4689
  578MOL0     C77906   1.538  10.756   6.205 -0.3806 -1.0986  0.0835
  578MOL0     C77907   1.523  10.723   6.357  0.7155  0.4958 -0.8635
  578MOL0     C77908   1.614  10.805   6.446 -0.0748  0.1805  0.2101
  578MOL0     C77909   1.764  10.769   6.427 -0.1482  0.6206  0.6295
  578MOL0     C77910   1.850  10.852   6.519  0.3887  0.6501  0.6986
  578MOL0     C77911   1.994  10.864   6.462 -1.2011 -1.3256 -0.5248
  578MOL0     N77912   2.000  10.935   6.324  0.6992 -0.1821 -0.9969
  578MOL0     C77913   1.995  10.862   6.202  0.0788 -0.0967 -0.3555
  578MOL0     C77914   1.956  10.959   6.120 -0.3533  0.5512  1.6452
  578MOL0     C77915   1.916  10.936   5.977 -0.2752  0.1911  0.6736
  578MOL0     C77916   1.815  10.809   5.952  0.3082  0.8060  0.3088
  578MOL0     C77917   1.859  10.722   5.840 -0.2235  0.8227 -0.2594
  578MOL0     C77918   1.768  10.595   5.849 -0.3943  0.1062 -0.0508
  578MOL0     O77919   1.819  10.521   5.743  0.0945  0.3221  0.9486
  578MOL0     C77920   1.948  10.465   5.762  0.4000  0.6776 -0.6717
  578MOL0     C77921   1.977  10.380   5.872  0.2302 -0.2862 -0.0761
  578MOL0     C77922   2.100  10.317   5.876 -1.2984  0.2917  0.3427
  578MOL0     C77923   2.205  10.351   5.783 -0.1327  0.0207 -0.1483
  578MOL0     C77924   2.333  10.270   5.795  1.1967  0.4828  0.2211
  578MOL0     O77925   2.332  10.166   5.880 -0.0619  0.4490  0.0457
  578MOL0     C77926   2.439  10.082   5.888  0.3255  0.4737  0.3750
  578MOL0     C77927   2.574  10.090   5.843  0.1522  0.1586  0.3820
  578MOL0     C77928   2.662   9.976   5.856 -0.1768  0.1556  0.2196
  578MOL0     C77929   2.613   9.860   5.924  0.0425 -0.5028 -0.2904
  578MOL0     O77930   2.674   9.742   5.951 -0.7653 -0.0443  0.4505
  578MOL0     C77931   2.806   9.716   5.895 -0.5573 -0.7022  0.8472
  578MOL0     C77932   2.863   9.576   5.911  0.4387 -0.3712  0.3462
  578MOL0     C77933   2.746   9.487   5.895  0.5760  0.3485 -0.0736
  578MOL0     C77934   2.790   9.346   5.860  0.7621 -0.5557 -0.0916
  578MOL0     C77935   2.671   9.261   5.818  0.9630 -0.1155  0.3071
  578MOL0     C77936   2.701   9.111   5.816 -0.1918 -0.6580  0.2781
  578MOL0     C77937   2.580   9.038   5.765 -0.1943  0.5875 -0.1008
  578MOL0     C77938   2.445   9.035   5.830 -0.1424 -1.2369  0.1355
  578MOL0    Cl77939   2.457   8.969   5.995  0.0913  0.5252  0.4632
  578MOL0     C77940   2.480   9.847   5.949 -0.3438  0.5609 -0.4272
  578MOL0     C77941   2.397   9.951   5.926 -0.2179  0.0740 -0.9749
  578MOL0     O77942   2.422  10.305   5.725  0.4486 -0.2737  0.4411
  578MOL0     C77943   2.171  10.434   5.673 -0.7970  0.4708 -0.4044
  578MOL0     C77944   2.049  10.494   5.673 -1.9545 -0.1350 -1.0377
  578MOL0     N77945   1.937  11.075   6.180  0.0632  0.0825  0.1937
  578MOL0     N77946   1.971  11.062   6.306  0.3518 -1.1335  0.9328
  578MOL0     C77947   1.131  11.196   6.100 -0.2848  1.2758  0.3917
  578MOL0     C77948   1.085  11.320   6.134 -0.0029  1.0656 -0.2807
  578MOL0     C77949   1.003  11.678   6.390 -1.1208 -0.1994  0.0324
  578MOL0     C77950   0.863  11.689   6.382 -1.2155 -0.2373 -0.2822
  578MOL0     C77951   0.798  11.814   6.393 -0.2602 -0.0513  0.2681
  578MOL0     C77952   0.882  11.926   6.419  0.7473 -0.1732 -0.0921
  578MOL0     O77953   0.818  12.045   6.442  0.5282 -0.0001  0.9315
  578MOL0     C77954   0.885  12.167   6.420 -0.2840  0.0177 -0.1195
  578MOL0     C77955   0.789  12.276   6.459  0.4426 -0.7226 -0.0632
  578MOL0     C77956   0.847  12.414   6.475 -0.7669  0.8801 -0.4585
  578MOL0     C77957   0.798  12.523   6.379  0.5267 -0.7325 -0.1044
  578MOL0     C77958   0.899  12.569   6.281 -0.0100 -0.4996  0.1484
  578MOL0     C77959   0.990  12.606   6.212  0.0861 -0.2293  0.5941
  578MOL0     C77960   1.017  11.910   6.438 -0.0105 -0.0402 -0.0842
  578MOL0     C77961   1.084  11.788   6.414  1.1313 -0.5464 -0.7410
  578MOL0     C77962   1.234  11.781   6.409  0.2952  0.3447 -0.3651
  578MOL0     H77963   1.366  11.453   6.269  0.5599  1.1605 -2.3989
  578MOL0     H77964   1.447  11.208   6.211 -0.4285 -2.4432 -1.3827
  578MOL0     H77965   1.492  11.011   6.185  0.5509 -1.0089  0.0510
  578MOL0     H77966   1.365  10.955   6.292  1.2231 -0.9532  0.1788
  578MOL0     H77967   1.399  10.808   6.033 -0.9045 -0.3983  0.6149
  578MOL0     H77968   1.318  10.771   6.173 -1.3895  2.6076  0.8185
  578MOL0     H77969   1.622  10.825   6.198 -0.6574 -0.5465  1.6653
  578MOL0     H77970   1.553  10.663   6.149  0.8968 -0.2856 -0.9879
  578MOL0     H77971   1.422  10.754   6.383  0.6335 -1.3529  1.3516
  578MOL0     H77972   1.522  10.617   6.384  0.5969  0.9729  1.1700
  578MOL0     H77973   1.588  10.910   6.425 -4.1499 -0.6685  0.2059
  578MOL0     H77974   1.611  10.783   6.553  3.4708  2.8272  1.0402
  578MOL0     H77975   1.777  10.663   6.453 -3.1034 -0.4072 -1.4376
  578MOL0     H77976   1.810  10.761   6.327  2.4357 -3.3536  1.8601
  578MOL0     H77977   1.847  10.814   6.621  2.9778  0.4166  0.7595
  578MOL0     H77978   1.818  10.956   6.508  1.8585  0.8527 -3.8280
  578MOL0     H77979   2.049  10.916   6.541 -1.6488  4.0318 -3.2726
  578MOL0     H77980   2.037  10.767   6.437 -1.2851 -1.1894 -1.2436
  578MOL0     H77981   2.004  10.761   6.165 -0.6673  0.3677 -1.8800
  578MOL0     H77982   1.874  11.027   5.933  2.5687  0.4429 -1.8985
  578MOL0     H77983   2.004  10.934   5.911 -3.1484  0.4829 -3.5715
  578MOL0     H77984   1.815  10.742   6.038  0.5030 -1.1749 -1.1485
  578MOL0     H77985   1.711  10.843   5.943 -1.6624 -4.3124  0.7308
  578MOL0     H77986   1.965  10.701   5.858 -0.2508 -0.7376 -1.6658
  578MOL0     H77987   1.846  10.761   5.739 -2.4865 -0.1117 -0.3973
  578MOL0     H77988   1.659  10.603   5.842 -0.5021 -0.7540  0.5252
  578MOL0     H77989   1.780  10.558   5.951  1.4874 -3.4347 -1.3856
  578MOL0     H77990   1.904  10.365   5.951  1.8969 -0.2307  1.5439
  578MOL0     H77991   2.115  10.236   5.947 -1.3875  0.4628  0.5588
  578MOL0     H77992   2.612  10.188   5.815  2.6900 -0.8770  0.0145
  578MOL0     H77993   2.766   9.987   5.828  0.1894  1.9698  2.0464
  578MOL0     H77994   2.802   9.737   5.788 -0.8672 -0.9613  0.8082
  578MOL0     H77995   2.878   9.779   5.948  0.5316 -1.4915  0.3669
  578MOL0     H77996   2.951   9.555   5.849 -1.5506 -1.4392 -2.2785
  578MOL0     H77997   2.885   9.564   6.018 -1.4175  3.2849  1.2926
  578MOL0     H77998   2.696   9.481   5.992 -1.3655 -1.4976 -1.1061
  578MOL0     H77999   2.690   9.534   5.813  1.4611  3.5807  1.0179
  578MOL0     H78000   2.841   9.300   5.945  4.0582  1.3440 -0.8936
  578MOL0     H78001   2.862   9.343   5.778  0.0555  1.2539 -0.8308
  578MOL0     H78002   2.642   9.289   5.716  1.5758 -3.4074 -0.8953
  578MOL0     H78003   2.588   9.278   5.886 -1.3798 -0.0695 -2.3826
  578MOL0     H78004   2.790   9.090   5.755  0.7257  2.1506  0.5146
  578MOL0     H78005   2.734   9.073   5.913  1.0657 -0.2503  0.0330
  578MOL0     H78006   2.617   8.936   5.755  5.4798  1.9498  2.4932
  578MOL0     H78007   2.560   9.082   5.667 -1.3894  2.6523  0.9992
  578MOL0     H78008   2.413   9.137   5.855  4.1040 -0.2709  2.5941
  578MOL0     H78009   2.375   8.982   5.765  1.8717 -1.3410 -2.0953
  578MOL0     H78010   2.450   9.747   5.982 -0.9915  0.0333 -2.4663
  578MOL0     H78011   2.290   9.936   5.929 -0.0842 -1.1534  3.3183
  578MOL0     H78012   2.232  10.435   5.583 -1.8031  1.4384 -1.1077
  578MOL0     H78013   2.040  10.569   5.595  1.6415 -0.0914 -1.6072
  578MOL0     H78014   1.075  11.124   6.041 -0.8717  1.5334  0.6280
  578MOL0     H78015   0.979  11.343   6.125 -0.7299 -0.2067  3.2452
  578MOL0     H78016   0.809  11.601   6.350  0.6096 -1.6100  0.2887
  578MOL0     H78017   0.689  11.814   6.394 -0.5115 -5.0903  1.2537
  578MOL0     H78018   0.917  12.180   6.316 -0.5313 -1.8041 -0.4631
  578MOL0     H78019   0.976  12.168   6.481 -1.8261 -1.2481  2.3896
  578MOL0     H78020   0.741  12.242   6.551  1.3146 -1.9664 -0.0535
  578MOL0     H78021   0.708  12.268   6.385 -0.2118 -0.1903  0.5698
  578MOL0     H78022   0.955  12.410   6.458 -0.9257 -0.3290 -1.2932
  578MOL0     H78023   0.831  12.444   6.579  1.6307 -1.1508  0.6001
  578MOL0     H78024   0.713  12.487   6.322  1.1459  0.8079 -2.1229
  578MOL0     H78025   0.766  12.606   6.443  1.7964  2.5177 -3.2953
  578MOL0     H78026   1.073  12.636   6.150  0.3024  0.7712  1.3320
  578MOL0     H78027   1.081  11.993   6.466  0.6679 -0.9834  1.3385
  578MOL0     H78028   1.276  11.691   6.457 -0.2435  0.8960  1.2050
  578MOL0     H78029   1.258  11.780   6.303 -1.7243  1.5376 -0.8896
  578MOL0     H78030   1.274  11.871   6.456 -3.5263  2.6793 -1.1993
  579MOL0     O78031   6.934   2.743   6.225 -0.5748 -0.4748  0.5605
  579MOL0     C78032   7.046   2.797   6.250 -0.6408 -0.9694 -0.0265
  579MOL0     O78033   7.113   2.795   6.371 -0.2508  0.2865  0.8797
  579MOL0     C78034   7.041   2.746   6.483 -0.7406  0.6475  0.9702
  579MOL0     C78035   7.083   2.622   6.527  0.5510 -0.4591 -0.4119
  579MOL0     C78036   7.007   2.563   6.628 -0.2477  0.9749 -0.3709
  579MOL0     C78037   6.884   2.621   6.678 -0.8662 -0.7176 -0.7356
  579MOL0     O78038   6.818   2.543   6.764 -0.7765  1.1241 -0.0479
  579MOL0     C78039   6.715   2.583   6.851  0.1386  0.4086  0.8021
  579MOL0     C78040   6.702   2.494   6.971  1.3647 -0.5388 -0.1533
  579MOL0     C78041   6.593   2.542   7.072 -0.7634 -0.6201 -0.3259
  579MOL0     C78042   6.451   2.535   7.026  0.0913  0.0620 -0.2813
  579MOL0     C78043   6.357   2.550   7.149  0.9234 -0.4847  0.0571
  579MOL0     C78044   6.216   2.572   7.109  1.0042  0.0265 -0.2487
  579MOL0     C78045   6.117   2.594   7.224  0.0542 -0.7280 -0.3823
  579MOL0     C78046   6.132   2.733   7.282 -0.4261 -0.7170  0.3100
  579MOL0     N78047   6.134   2.853   7.191  0.4978  0.3085  0.3446
  579MOL0     C78048   6.041   2.869   7.090  0.3633 -0.7127 -0.0631
  579MOL0     C78049   6.091   2.982   7.037  0.4499  0.7336 -0.3754
  579MOL0     C78050   6.009   3.039   6.920  0.1237 -0.7899 -0.1866
  579MOL0     C78051   5.958   3.182   6.939 -0.1179 -0.3891  1.0988
  579MOL0     C78052   5.830   3.206   6.845 -0.9817 -0.4902 -0.0101
  579MOL0     C78053   5.788   3.355   6.853  0.2300  0.6392  0.0955
  579MOL0     O78054   5.794   3.407   6.984 -0.1101 -0.1462 -0.6171
  579MOL0     C78055   5.686   3.381   7.072 -1.1294  0.2003  0.2796
  579MOL0     C78056   5.555   3.385   7.031  0.3618  1.5030 -0.2882
  579MOL0     C78057   5.466   3.367   7.131 -0.3573  0.3065  0.8412
  579MOL0     C78058   5.490   3.343   7.264  0.3703  0.7393 -0.9325
  579MOL0     C78059   5.377   3.321   7.367 -0.3849 -0.2986 -0.6787
  579MOL0     O78060   5.404   3.288   7.497 -0.2187  0.2220  0.7943
  579MOL0     C78061   5.310   3.304   7.599  0.6788 -0.2048 -0.4438
  579MOL0     C78062   5.328   3.247   7.723 -0.2992 -0.2835 -0.3563
  579MOL0     C78063   5.244   3.265   7.838 -0.5995 -0.3895  0.8118
  579MOL0     C78064   5.120   3.328   7.819  0.9014  1.2919  1.4989
  579MOL0     O78065   5.046   3.333   7.940 -0.2269 -0.9799  0.4579
  579MOL0     C78066   4.955   3.444   7.957  0.2976  0.1280  0.8693
  579MOL0     C78067   4.878   3.394   8.076 -0.2863 -0.9140  0.2332
  579MOL0     C78068   4.966   3.395   8.206 -0.4583 -0.7136 -0.8069
  579MOL0     C78069   4.871   3.360   8.321  0.8558  0.4401 -0.4475
  579MOL0     C78070   4.959   3.300   8.430 -0.3634  0.2985 -0.5916
  579MOL0     C78071   4.904   3.311   8.578 -0.1973  0.4107  0.1154
  579MOL0     C78072   4.823   3.439   8.606 -0.3045 -0.4816  0.2128
  579MOL0     C78073   4.799   3.450   8.758 -1.7693 -0.3601  0.3150
  579MOL0    Cl78074   4.664   3.567   8.768  0.0492 -0.7387 -0.1051
  579MOL0     C78075   5.085   3.378   7.696 -0.0369  0.4091  0.5465
  579MOL0     C78076   5.185   3.374   7.591  0.1616  0.1498  0.5286
  579MOL0     O78077   5.267   3.324   7.313  1.0984  0.2401  0.1331
  579MOL0     C78078   5.625   3.329   7.311 -0.2091 -0.6204 -0.9053
  579MOL0     C78079   5.719   3.357   7.211  0.0852  0.0428 -0.7162
  579MOL0     N78080   6.209   3.030   7.096 -0.5946  0.2860 -0.1683
  579MOL0     N78081   6.236   2.944   7.183  0.3472  0.1642 -0.1391
  579MOL0     C78082   6.848   2.754   6.631 -0.3916  0.0653  0.4861
  579MOL0     C78083   6.928   2.809   6.531  0.8331 -0.2928 -0.0183
  579MOL0     C78084   7.118   2.861   6.139  1.0708  1.1280  0.2331
  579MOL0     C78085   7.103   2.795   6.018  1.2231 -0.3313 -0.4548
  579MOL0     C78086   7.163   2.846   5.909  1.1279  0.3551  0.6578
  579MOL0     C78087   7.264   2.950   5.916  0.5689 -0.2987 -0.2483
  579MOL0     O78088   7.324   2.976   5.795  0.3244  0.0359 -0.0158
  579MOL0     C78089   7.383   3.102   5.777  0.4161 -0.2393 -0.9714
  579MOL0     C78090   7.523   3.100   5.823  0.8519 -0.5181 -0.8104
  579MOL0     C78091   7.609   3.000   5.744  1.0530  0.4170 -0.4188
  579MOL0     C78092   7.646   3.057   5.617  0.0032 -0.1984  0.0700
  579MOL0     C78093   7.683   2.944   5.527 -0.6579  0.3190  0.0439
  579MOL0     C78094   7.690   2.849   5.450  0.4253  0.9175  0.8063
  579MOL0     C78095   7.275   3.018   6.040  0.0272 -0.1698  0.5821
  579MOL0     C78096   7.195   2.980   6.154 -0.3175 -0.3871 -0.5820
  579MOL0     C78097   7.256   3.025   6.291 -0.1800 -0.0320  0.4927
  579MOL0     H78098   7.170   2.587   6.473 -0.1172  0.6496 -2.2992
  579MOL0     H78099   7.030   2.459   6.650 -1.0406  0.6219 -1.1482
  579MOL0     H78100   6.723   2.687   6.885 -1.1171  1.1433 -0.9740
  579MOL0     H78101   6.623   2.581   6.792 -0.4362  4.4551  1.2682
  579MOL0     H78102   6.797   2.504   7.023  1.5235  2.3423 -0.8221
  579MOL0     H78103   6.679   2.389   6.950  4.0552 -2.3030  4.2813
  579MOL0     H78104   6.622   2.643   7.101 -0.1226 -1.0885  0.7434
  579MOL0     H78105   6.609   2.489   7.166 -1.5689 -0.0592  0.1344
  579MOL0     H78106   6.426   2.606   6.946  1.2542  0.5349 -0.2412
  579MOL0     H78107   6.436   2.434   6.987 -5.0114  0.8033 -1.0291
  579MOL0     H78108   6.362   2.459   7.209 -2.7227 -0.8127  0.0524
  579MOL0     H78109   6.379   2.641   7.206 -3.1052 -0.9306  2.7495
  579MOL0     H78110   6.215   2.637   7.021  1.3848  0.3823  0.0096
  579MOL0     H78111   6.182   2.471   7.082  1.1310 -0.5161  1.4744
  579MOL0     H78112   6.132   2.525   7.308 -1.1980 -1.0671 -0.4129
  579MOL0     H78113   6.013   2.588   7.192 -0.5540  2.1785  0.7473
  579MOL0     H78114   6.054   2.751   7.356  0.9188 -0.4139  1.6989
  579MOL0     H78115   6.223   2.732   7.343  0.0539 -1.7913 -0.3921
  579MOL0     H78116   5.948   2.819   7.067 -1.7810  1.9632  2.0464
  579MOL0     H78117   6.070   3.035   6.829 -2.8050  2.7439 -2.6321
  579MOL0     H78118   5.923   2.973   6.907  2.5314 -4.4386  0.9236
  579MOL0     H78119   5.931   3.198   7.044  0.2267 -2.8331  1.6083
  579MOL0     H78120   6.032   3.255   6.904 -0.1133 -0.0415  1.8011
  579MOL0     H78121   5.747   3.143   6.879 -3.4065  1.4599 -1.9551
  579MOL0     H78122   5.857   3.176   6.744  0.0592  4.1131 -1.3421
  579MOL0     H78123   5.691   3.374   6.806  0.6007  0.5753 -0.7207
  579MOL0     H78124   5.859   3.413   6.793 -0.0559  2.1037  1.1238
  579MOL0     H78125   5.531   3.398   6.926  2.1042 -1.7155 -1.2285
  579MOL0     H78126   5.364   3.357   7.094  0.6691  0.4677 -2.2972
  579MOL0     H78127   5.422   3.202   7.751  0.0825  0.9118  0.3720
  579MOL0     H78128   5.272   3.241   7.940 -0.8192  1.5371  1.3654
  579MOL0     H78129   5.011   3.533   7.987 -0.0279  0.5206  0.3435
  579MOL0     H78130   4.892   3.473   7.872  0.2312  1.6001  1.3926
  579MOL0     H78131   4.798   3.466   8.094 -1.7226 -2.0995 -1.1649
  579MOL0     H78132   4.835   3.296   8.054  0.5636 -1.1131 -0.6040
  579MOL0     H78133   5.046   3.322   8.190  0.3781  0.5177 -2.6281
  579MOL0     H78134   5.017   3.491   8.220  0.7435 -1.3764 -0.4651
  579MOL0     H78135   4.806   3.274   8.301  1.3233 -0.2381  0.8532
  579MOL0     H78136   4.815   3.445   8.361 -0.1516 -0.7840  0.8406
  579MOL0     H78137   5.052   3.356   8.440 -0.3892 -0.0110  2.6693
  579MOL0     H78138   4.988   3.199   8.401 -0.9883 -0.4126  1.1291
  579MOL0     H78139   4.845   3.221   8.598 -2.4577  1.2253 -2.2696
  579MOL0     H78140   4.995   3.312   8.639 -0.1062 -1.1750  0.0282
  579MOL0     H78141   4.726   3.421   8.558 -0.4875  5.7855 -2.7710
  579MOL0     H78142   4.863   3.528   8.557  2.5339 -1.7453  0.0473
  579MOL0     H78143   4.776   3.354   8.805  2.6237 -2.1205 -0.5556
  579MOL0     H78144   4.889   3.475   8.814 -0.4764 -1.5299 -1.1249
  579MOL0     H78145   4.983   3.407   7.674 -0.7259 -3.0182 -1.4604
  579MOL0     H78146   5.161   3.429   7.501 -2.8502 -2.2628 -0.3478
  579MOL0     H78147   5.660   3.298   7.409  3.4027  0.7325 -1.5964
  579MOL0     H78148   5.826   3.358   7.226 -0.0073  3.6397  0.8873
  579MOL0     H78149   6.758   2.801   6.668 -0.6818 -1.5180  1.9295
  579MOL0     H78150   6.896   2.899   6.478  3.3269  0.1729 -0.8816
  579MOL0     H78151   7.047   2.702   6.024 -0.0401  0.4825  1.1650
  579MOL0     H78152   7.147   2.819   5.805 -4.0255 -0.2321  1.3546
  579MOL0     H78153   7.334   3.180   5.835  2.3812 -1.8103  3.2206
  579MOL0     H78154   7.367   3.119   5.670 -0.9320  0.3686 -0.6920
  579MOL0     H78155   7.520   3.067   5.927 -1.3679  1.9583  0.0100
  579MOL0     H78156   7.564   3.202   5.817  0.9298 -0.4222  0.9388
  579MOL0     H78157   7.566   2.900   5.730  2.3667 -0.1531 -0.5653
  579MOL0     H78158   7.706   2.988   5.793  1.5412 -0.2452 -1.5280
  579MOL0     H78159   7.562   3.103   5.564  0.6097  1.2904  0.3598
  579MOL0     H78160   7.734   3.121   5.629  2.6874 -3.8811  2.1947
  579MOL0     H78161   7.709   2.757   5.398 -3.8085  0.0016  0.5065
  579MOL0     H78162   7.343   3.102   6.045  0.0801 -0.2831  2.8395
  579MOL0     H78163   7.315   3.115   6.272 -0.7571 -0.2433 -2.8876
  579MOL0     H78164   7.181   3.064   6.361 -1.7724 -0.7039 -0.7497
  579MOL0     H78165   7.316   2.948   6.338 -2.3063 -0.5225  2.6089
  580MOL0     O78166   4.944   5.073   6.764 -0.4758  0.4672 -0.0374
  580MOL0     C78167   4.890   5.144   6.681  0.1955  0.1252  0.5938
  580MOL0     O78168   4.755   5.136   6.648  0.9619  0.7483 -0.5205
  580MOL0     C78169   4.675   5.049   6.720  0.1079 -1.0076 -0.4006
  580MOL0     C78170   4.575   4.979   6.661  0.6965 -0.8451  0.2812
  580MOL0     C78171   4.482   4.897   6.734 -0.5182 -0.6710  0.7333
  580MOL0     C78172   4.489   4.900   6.879  0.1086  1.0731  0.0427
  580MOL0     O78173   4.419   4.818   6.964 -0.6588  0.6762 -0.1366
  580MOL0     C78174   4.301   4.754   6.916 -0.0485  0.4202 -0.2979
  580MOL0     C78175   4.269   4.633   7.010 -0.3044 -0.7376 -0.3609
  580MOL0     C78176   4.306   4.647   7.155 -0.0104  0.1242 -0.5623
  580MOL0     C78177   4.179   4.634   7.242 -0.4070  0.6604 -0.3424
  580MOL0     C78178   4.203   4.638   7.397 -0.3370 -1.1789  1.3025
  580MOL0     C78179   4.272   4.753   7.464 -0.5609 -1.5754  0.2839
  580MOL0     C78180   4.229   4.744   7.608  0.0956  0.5158 -0.7433
  580MOL0     C78181   4.339   4.812   7.702 -0.1898  0.8797 -0.4953
  580MOL0     N78182   4.465   4.748   7.665  0.2266 -0.4507 -0.9678
  580MOL0     C78183   4.584   4.820   7.650 -0.2737  0.1651  0.9606
  580MOL0     C78184   4.677   4.723   7.608 -1.3218 -0.3887  0.2653
  580MOL0     C78185   4.819   4.731   7.573 -0.3913 -0.1353 -0.4901
  580MOL0     C78186   4.844   4.800   7.435  0.0038 -0.3625  0.1236
  580MOL0     C78187   4.990   4.842   7.408  0.7155 -0.2148  0.0998
  580MOL0     C78188   5.009   4.935   7.281  0.0168 -0.2846  0.5801
  580MOL0     O78189   5.020   5.076   7.322 -0.3468 -1.1718 -0.3305
  580MOL0     C78190   4.978   5.174   7.234 -0.4545  0.6841  0.0878
  580MOL0     C78191   4.881   5.271   7.278  0.6650  0.9752  0.2393
  580MOL0     C78192   4.834   5.372   7.190 -0.6701 -0.0500 -0.0837
  580MOL0     C78193   4.882   5.382   7.062  0.1178  0.6600 -0.6998
  580MOL0     C78194   4.833   5.491   6.971  0.7772 -0.1813  0.7064
  580MOL0     O78195   4.878   5.484   6.840  0.0263  0.6210  0.1154
  580MOL0     C78196   4.857   5.587   6.755 -0.3542  0.3448 -0.4754
  580MOL0     C78197   4.949   5.704   6.750  0.2509  1.1046 -0.9964
  580MOL0     C78198   4.932   5.819   6.676 -0.2352  0.6240 -0.0407
  580MOL0     C78199   4.810   5.824   6.607 -1.2588  0.4723  0.3970
  580MOL0     O78200   4.788   5.940   6.530  0.5616  0.2920 -0.1113
  580MOL0     C78201   4.716   6.057   6.589 -1.0707  0.5783  0.5958
  580MOL0     C78202   4.791   6.147   6.687  1.6721 -0.0897  0.3962
  580MOL0     C78203   4.910   6.229   6.621  0.1853  0.4625 -0.3321
  580MOL0     C78204   4.861   6.341   6.529 -0.4758 -1.1691 -0.4069
  580MOL0     C78205   4.973   6.449   6.488 -0.2332 -0.0183 -0.9638
  580MOL0     C78206   4.934   6.560   6.393  0.5085 -0.5063 -0.6926
  580MOL0     C78207   4.993   6.541   6.254  0.6273  0.1216  0.1125
  580MOL0     C78208   5.130   6.603   6.237 -0.8432  0.1519  0.0221
  580MOL0    Cl78209   5.116   6.784   6.247 -0.4285  0.2701 -0.2945
  580MOL0     C78210   4.715   5.713   6.619 -0.0634 -0.1094 -0.3869
  580MOL0     C78211   4.729   5.593   6.692 -0.4156 -0.8215  0.5962
  580MOL0     O78212   4.758   5.576   7.014  0.8106  0.8489 -0.2151
  580MOL0     C78213   4.985   5.295   7.015 -0.3176  0.0367  0.2400
  580MOL0     C78214   5.036   5.194   7.105  0.7286 -0.7525  0.5162
  580MOL0     N78215   4.619   4.602   7.618  0.8242  0.4220 -0.3389
  580MOL0     N78216   4.498   4.615   7.667  0.5646  0.3262 -0.2050
  580MOL0     C78217   4.584   4.982   6.945  0.5219 -0.6965  0.9217
  580MOL0     C78218   4.676   5.049   6.858 -0.5925 -0.7518 -0.8015
  580MOL0     C78219   4.966   5.232   6.596  0.7409  0.4438 -0.2228
  580MOL0     C78220   4.890   5.338   6.537  0.3652 -0.9769  0.4158
  580MOL0     C78221   4.950   5.444   6.469 -0.5098 -0.5818 -0.1140
  580MOL0     C78222   5.080   5.435   6.421  0.3833 -0.2725 -0.7328
  580MOL0     O78223   5.133   5.516   6.330  0.1112  0.0456 -0.6893
  580MOL0     C78224   5.068   5.616   6.250  0.6173  0.6143  0.7457
  580MOL0     C78225   5.136   5.633   6.110 -0.9782  0.2847  0.3456
  580MOL0     C78226   5.290   5.667   6.130  0.2593  0.6347  1.1222
  580MOL0     C78227   5.382   5.567   6.053 -0.0543  0.2344  0.2438
  580MOL0     C78228   5.406   5.444   6.138 -0.3922 -0.2207 -0.3301
  580MOL0     C78229   5.414   5.347   6.210 -0.6259 -0.2186  0.3556
  580MOL0     C78230   5.158   5.342   6.485 -0.1195 -0.8289 -0.4303
  580MOL0     C78231   5.102   5.236   6.562  0.2494  1.4169  0.0106
  580MOL0     C78232   5.200   5.128   6.589  0.1915 -0.5387 -0.2032
  580MOL0     H78233   4.573   4.992   6.554  3.7732 -2.0469 -0.0399
  580MOL0     H78234   4.410   4.844   6.674 -0.2976  0.2659 -0.3956
  580MOL0     H78235   4.219   4.822   6.937  0.0289  0.3710  0.1732
  580MOL0     H78236   4.307   4.721   6.812 -0.9748 -0.7409  0.0024
  580MOL0     H78237   4.316   4.542   6.971 -0.3735 -2.2256  2.7430
  580MOL0     H78238   4.160   4.625   7.004 -0.9218  3.4145  1.9557
  580MOL0     H78239   4.344   4.745   7.186 -1.7092  1.1025 -1.4359
  580MOL0     H78240   4.379   4.567   7.172  1.5103  1.3236 -1.1581
  580MOL0     H78241   4.101   4.707   7.219 -2.4322 -0.3494  2.7099
  580MOL0     H78242   4.130   4.537   7.229 -3.1483  1.8656  0.3053
  580MOL0     H78243   4.099   4.632   7.431 -1.3446 -1.5152 -1.5479
  580MOL0     H78244   4.255   4.549   7.434 -0.0565 -1.1834  0.9009
  580MOL0     H78245   4.380   4.750   7.448 -0.7805  0.6794 -2.6377
  580MOL0     H78246   4.244   4.849   7.418  1.8754 -0.5779  0.7137
  580MOL0     H78247   4.213   4.639   7.635  0.2089  1.0238  1.5774
  580MOL0     H78248   4.137   4.804   7.606 -0.9655 -1.0506 -2.7474
  580MOL0     H78249   4.346   4.920   7.689  4.0271  1.0311  1.3237
  580MOL0     H78250   4.320   4.796   7.809 -0.7625  0.2506 -0.6859
  580MOL0     H78251   4.575   4.927   7.664  1.7294  1.0090 -2.8745
  580MOL0     H78252   4.863   4.783   7.658 -2.7780  0.3976  0.4823
  580MOL0     H78253   4.860   4.630   7.571  0.2723 -0.0039  2.2326
  580MOL0     H78254   4.793   4.743   7.357 -0.8859  0.3990  0.1206
  580MOL0     H78255   4.780   4.888   7.442 -2.4528 -2.0261 -0.1494
  580MOL0     H78256   5.052   4.756   7.383  2.0217  0.4395  1.0078
  580MOL0     H78257   5.033   4.886   7.499  0.7781 -0.5569  0.2371
  580MOL0     H78258   4.917   4.927   7.221 -0.3812  0.1296  1.1310
  580MOL0     H78259   5.091   4.904   7.215 -2.2317 -0.5642 -2.3103
  580MOL0     H78260   4.846   5.261   7.380  2.5222  2.5551  1.0998
  580MOL0     H78261   4.757   5.431   7.239 -2.4515 -2.1725 -0.1916
  580MOL0     H78262   5.038   5.689   6.811 -0.2547  2.8965  0.2843
  580MOL0     H78263   4.998   5.905   6.678 -0.8528  1.5007 -4.5800
  580MOL0     H78264   4.676   6.115   6.505 -0.0873 -0.9512 -1.0156
  580MOL0     H78265   4.627   6.011   6.632 -0.0386 -1.0426  1.0895
  580MOL0     H78266   4.726   6.221   6.733  1.7611 -0.3514  0.9525
  580MOL0     H78267   4.821   6.084   6.772 -0.7970  0.0550  1.4510
  580MOL0     H78268   4.981   6.262   6.698  0.2988  1.9216 -1.0299
  580MOL0     H78269   4.960   6.152   6.560 -0.7475 -0.6178  0.2207
  580MOL0     H78270   4.779   6.400   6.571  0.6503 -1.7061  2.8562
  580MOL0     H78271   4.827   6.307   6.431  0.7653  0.1186 -1.3367
  580MOL0     H78272   5.068   6.399   6.464  0.9121  0.7283  1.6782
  580MOL0     H78273   4.991   6.506   6.580 -1.1610 -1.4057  0.1105
  580MOL0     H78274   4.826   6.568   6.382  0.3311 -3.9892 -3.1091
  580MOL0     H78275   4.952   6.659   6.436  0.5637 -0.8105  0.0023
  580MOL0     H78276   4.918   6.592   6.193  0.6662 -0.1412 -0.1608
  580MOL0     H78277   4.992   6.440   6.211 -0.7641  1.8095 -4.3734
  580MOL0     H78278   5.204   6.570   6.310  0.1794  0.4384 -0.8685
  580MOL0     H78279   5.171   6.572   6.140  1.0991 -0.8426  1.0934
  580MOL0     H78280   4.618   5.728   6.572 -0.4730  3.1036  1.2007
  580MOL0     H78281   4.644   5.526   6.700 -1.6952  0.6507  0.0394
  580MOL0     H78282   5.037   5.309   6.921  0.1296  2.2215  0.7649
  580MOL0     H78283   5.113   5.133   7.059 -1.1610 -0.9552 -2.7324
  580MOL0     H78284   4.607   4.983   7.051 -1.6819 -1.7065  1.4714
  580MOL0     H78285   4.746   5.106   6.918 -1.1941 -2.4193  1.6456
  580MOL0     H78286   4.783   5.350   6.546  0.5219  1.0824 -0.1174
  580MOL0     H78287   4.892   5.530   6.439 -0.4249 -0.5140 -0.0855
  580MOL0     H78288   5.068   5.713   6.301  1.5265  1.1325 -0.1860
  580MOL0     H78289   4.964   5.595   6.226 -0.4264  3.3412  2.3932
  580MOL0     H78290   5.091   5.708   6.044 -1.5375 -2.8278 -3.1412
  580MOL0     H78291   5.121   5.536   6.063 -1.7682  0.5894 -0.0526
  580MOL0     H78292   5.316   5.662   6.236  2.9077 -2.3222  0.4509
  580MOL0     H78293   5.316   5.767   6.093  3.1788  0.1862  1.7219
  580MOL0     H78294   5.335   5.563   5.954  0.9266 -0.6575 -0.1975
  580MOL0     H78295   5.485   5.605   6.047  1.5283 -3.7523 -1.2588
  580MOL0     H78296   5.439   5.256   6.260 -0.0262  0.3698  1.1512
  580MOL0     H78297   5.260   5.339   6.448 -0.5480  1.9067 -2.1268
  580MOL0     H78298   5.301   5.163   6.566 -0.2731  0.7735 -0.3459
  580MOL0     H78299   5.193   5.104   6.696 -1.0058 -1.3691 -0.4518
  580MOL0     H78300   5.168   5.038   6.536 -2.7030 -0.0248  0.4479
  581MOL0     O78301   4.301   3.464   6.052  0.9165 -0.1419 -0.1979
  581MOL0     C78302   4.376   3.554   6.083  0.1931 -0.4108 -0.0853
  581MOL0     O78303   4.337   3.677   6.122 -0.9660 -0.2563  1.0747
  581MOL0     C78304   4.206   3.682   6.176 -0.4764  1.2608 -0.1574
  581MOL0     C78305   4.098   3.666   6.087 -0.2163 -0.7186 -0.4325
  581MOL0     C78306   3.974   3.662   6.130  0.0069 -0.1354 -0.5769
  581MOL0     C78307   3.944   3.697   6.263 -0.4153  0.1149 -0.4435
  581MOL0     O78308   3.815   3.697   6.313 -0.3326 -0.8448  0.1480
  581MOL0     C78309   3.774   3.729   6.453  0.2711 -0.2397  0.6917
  581MOL0     C78310   3.625   3.711   6.471  0.1119 -0.1257 -0.6963
  581MOL0     C78311   3.559   3.820   6.391 -0.1040  0.3447  0.2493
  581MOL0     C78312   3.408   3.840   6.421 -0.6597  0.4704 -0.7686
  581MOL0     C78313   3.348   3.949   6.327 -0.1413 -0.2474 -0.5676
  581MOL0     C78314   3.202   3.987   6.362 -0.0092 -0.0754  0.1385
  581MOL0     C78315   3.098   3.877   6.347  0.2628  0.0045  0.0361
  581MOL0     C78316   3.086   3.823   6.199  0.9693 -0.3693  0.4721
  581MOL0     N78317   2.964   3.740   6.169  0.0442  0.3516  0.1308
  581MOL0     C78318   2.867   3.690   6.252  0.1820 -0.0226  0.2999
  581MOL0     C78319   2.770   3.630   6.177 -0.5289  1.1999  0.2197
  581MOL0     C78320   2.644   3.577   6.237  0.3196  0.1139  0.9501
  581MOL0     C78321   2.628   3.429   6.234 -1.7308 -0.4685  0.1780
  581MOL0     C78322   2.597   3.355   6.101 -0.1075 -0.2891 -0.0868
  581MOL0     C78323   2.584   3.208   6.138 -0.2131  0.0060  1.0553
  581MOL0     O78324   2.463   3.173   6.200 -0.0971  0.4585 -0.7263
  581MOL0     C78325   2.437   3.036   6.196  0.5972  0.2980  0.8694
  581MOL0     C78326   2.304   2.993   6.208  0.3515 -1.3104  0.2013
  581MOL0     C78327   2.255   2.864   6.192  0.4383  0.5238  0.9769
  581MOL0     C78328   2.348   2.761   6.160 -0.0408 -0.3139 -0.3852
  581MOL0     C78329   2.290   2.634   6.127  0.3750 -0.4080  0.7661
  581MOL0     O78330   2.162   2.617   6.162 -0.7431  0.4041  1.0603
  581MOL0     C78331   2.105   2.494   6.149 -0.3460  0.5013 -0.2403
  581MOL0     C78332   2.106   2.416   6.037 -0.1897 -0.3440 -0.1934
  581MOL0     C78333   2.029   2.296   6.029  1.1993  0.2059 -0.0403
  581MOL0     C78334   1.964   2.248   6.151 -1.1003 -0.7496 -0.3459
  581MOL0     O78335   1.877   2.143   6.158 -0.4089 -0.0229  0.2640
  581MOL0     C78336   1.829   2.087   6.037 -0.1129  0.1134 -0.6647
  581MOL0     C78337   1.719   1.982   6.052 -0.6820  0.1477 -0.9817
  581MOL0     C78338   1.773   1.833   6.071  0.2452 -0.4177  0.2639
  581MOL0     C78339   1.668   1.726   6.044  0.2062  0.0413  0.3932
  581MOL0     C78340   1.626   1.651   6.181  1.4451  1.2376  0.2577
  581MOL0     C78341   1.519   1.716   6.262 -0.1306 -1.0920 -0.0358
  581MOL0     C78342   1.464   1.628   6.379  0.4450  0.2486 -0.1661
  581MOL0     C78343   1.373   1.512   6.331 -1.1440 -1.3007  0.3698
  581MOL0    Cl78344   1.363   1.397   6.460  0.4454  0.3156  0.5998
  581MOL0     C78345   1.991   2.318   6.268  0.7644 -0.3048  0.6297
  581MOL0     C78346   2.050   2.436   6.272 -1.0807 -0.6152  0.9109
  581MOL0     O78347   2.369   2.543   6.097  0.4967 -0.0726 -0.3187
  581MOL0     C78348   2.482   2.794   6.139  0.2234  0.5361  0.1930
  581MOL0     C78349   2.523   2.929   6.156 -0.0572  0.2211 -0.0215
  581MOL0     N78350   2.815   3.634   6.048  0.2585  0.0294 -1.1984
  581MOL0     N78351   2.928   3.696   6.042 -0.5935 -0.0244  0.8604
  581MOL0     C78352   4.047   3.735   6.350 -0.0171  0.5159  0.4147
  581MOL0     C78353   4.180   3.722   6.315  0.0845  0.4023 -0.5113
  581MOL0     C78354   4.520   3.523   6.079 -0.0031 -1.0804 -0.3752
  581MOL0     C78355   4.604   3.627   6.109 -1.2456 -0.2006  0.2411
  581MOL0     C78356   4.743   3.604   6.129 -0.0604 -1.3242  0.5804
  581MOL0     C78357   4.803   3.478   6.101 -0.7279 -0.5342  0.0536
  581MOL0     O78358   4.941   3.455   6.096 -0.0370 -0.4499  0.2608
  581MOL0     C78359   5.038   3.561   6.132 -0.0501 -0.4203  0.0833
  581MOL0     C78360   5.095   3.621   6.005 -0.7553 -0.7855 -1.0203
  581MOL0     C78361   5.149   3.762   6.025  0.2124  0.1642  0.5117
  581MOL0     C78362   5.185   3.823   5.892 -0.2371  0.1170  0.6255
  581MOL0     C78363   5.270   3.940   5.912  0.2303 -0.1445 -0.9196
  581MOL0     C78364   5.344   4.039   5.918  0.9228 -0.3703 -0.7364
  581MOL0     C78365   4.713   3.376   6.069  0.6006 -0.9035  0.2060
  581MOL0     C78366   4.571   3.391   6.076 -0.4974 -0.4256 -0.1119
  581MOL0     C78367   4.500   3.261   6.050 -0.1204  0.1605 -0.6272
  581MOL0     H78368   4.128   3.654   5.983  1.5376 -1.4507  0.1072
  581MOL0     H78369   3.881   3.658   6.074  0.3515  1.1467 -1.2888
  581MOL0     H78370   3.825   3.655   6.516 -0.5902 -1.5286 -0.0783
  581MOL0     H78371   3.789   3.833   6.480 -1.3767  0.7096 -1.7084
  581MOL0     H78372   3.593   3.707   6.575 -3.5339  0.1398 -1.6640
  581MOL0     H78373   3.601   3.615   6.424 -2.0461  0.4249 -0.7996
  581MOL0     H78374   3.583   3.805   6.285  0.9646 -2.9826  0.8393
  581MOL0     H78375   3.608   3.912   6.425 -0.0093 -0.3362  2.0523
  581MOL0     H78376   3.364   3.741   6.403 -1.2645  0.5523  0.1627
  581MOL0     H78377   3.395   3.859   6.528 -1.3874  2.8146 -1.2165
  581MOL0     H78378   3.397   4.046   6.338 -2.6154  0.9706  0.5667
  581MOL0     H78379   3.378   3.915   6.227 -4.3230 -3.0278 -1.1012
  581MOL0     H78380   3.193   4.022   6.465 -3.3801 -3.0617  1.0429
  581MOL0     H78381   3.166   4.062   6.290 -2.1576 -2.2573 -1.2135
  581MOL0     H78382   3.006   3.915   6.391  0.3936  2.5335 -1.7105
  581MOL0     H78383   3.123   3.796   6.417  1.1483  0.9635  0.8789
  581MOL0     H78384   3.086   3.914   6.138  0.3195  0.9986  2.4102
  581MOL0     H78385   3.176   3.770   6.169  1.4231  0.2843  0.6451
  581MOL0     H78386   2.862   3.712   6.359  1.5509 -0.3389  0.4448
  581MOL0     H78387   2.622   3.615   6.337 -2.8867 -2.1704  1.2667
  581MOL0     H78388   2.564   3.625   6.179  0.5517  3.0047  2.8287
  581MOL0     H78389   2.722   3.385   6.269 -1.9245 -3.5429 -2.5904
  581MOL0     H78390   2.551   3.406   6.308 -1.0919  0.5671  1.1848
  581MOL0     H78391   2.662   3.386   6.019 -0.1604  0.5517  0.1722
  581MOL0     H78392   2.494   3.376   6.070 -0.6698 -3.4420 -0.6283
  581MOL0     H78393   2.665   3.162   6.196 -1.1283 -3.0333  0.0978
  581MOL0     H78394   2.588   3.159   6.041  0.7830 -1.1388  1.6487
  581MOL0     H78395   2.232   3.073   6.222 -1.5902 -2.4364 -2.5161
  581MOL0     H78396   2.149   2.846   6.195  0.6811 -0.9339  3.1508
  581MOL0     H78397   2.153   2.449   5.945 -0.5900  1.3294  0.1738
  581MOL0     H78398   2.020   2.244   5.934 -5.7858  0.9922 -0.3192
  581MOL0     H78399   1.786   2.164   5.974 -1.3408 -0.5898 -0.7177
  581MOL0     H78400   1.908   2.034   5.983  0.5307 -1.1701  1.3899
  581MOL0     H78401   1.652   2.008   6.134 -1.1914  0.7138 -1.5721
  581MOL0     H78402   1.655   1.982   5.963 -1.8648 -1.2538 -0.1568
  581MOL0     H78403   1.862   1.824   6.007 -0.3306  0.6944 -0.7294
  581MOL0     H78404   1.816   1.837   6.171  2.0339  0.1706 -0.4794
  581MOL0     H78405   1.712   1.659   5.969  0.1372  0.7212 -0.2654
  581MOL0     H78406   1.580   1.771   5.998 -0.9356 -2.1229  0.3088
  581MOL0     H78407   1.711   1.640   6.249  0.2285  0.8178  1.8019
  581MOL0     H78408   1.599   1.550   6.149 -0.0312  1.6291  0.2001
  581MOL0     H78409   1.556   1.810   6.304 -2.3065  0.0021 -0.4381
  581MOL0     H78410   1.444   1.752   6.192  0.3803 -0.2610 -0.1614
  581MOL0     H78411   1.412   1.689   6.453  2.1923  0.7785  0.6858
  581MOL0     H78412   1.547   1.583   6.434 -0.5030 -1.0029  0.2882
  581MOL0     H78413   1.280   1.560   6.298 -1.3859 -1.1921  1.1865
  581MOL0     H78414   1.417   1.465   6.242  0.1949  0.2204  0.1956
  581MOL0     H78415   1.941   2.271   6.352  0.6273 -0.7791  0.2884
  581MOL0     H78416   2.051   2.486   6.369 -1.6500 -0.9203  1.0804
  581MOL0     H78417   2.554   2.717   6.111 -0.6306  0.7853 -3.0760
  581MOL0     H78418   2.629   2.946   6.143  0.8926 -3.0029  2.2214
  581MOL0     H78419   4.031   3.773   6.450  1.4979  1.9340  0.1542
  581MOL0     H78420   4.265   3.744   6.379 -0.0142  1.0573 -0.6008
  581MOL0     H78421   4.582   3.732   6.130  2.7074  1.0562 -1.0307
  581MOL0     H78422   4.801   3.691   6.158  2.8226 -2.7181 -0.5272
  581MOL0     H78423   5.127   3.520   6.180  1.7338  1.4127 -1.4485
  581MOL0     H78424   4.998   3.633   6.203 -3.0384 -1.7078 -0.1368
  581MOL0     H78425   5.023   3.632   5.924  0.5835  0.8957 -2.0546
  581MOL0     H78426   5.174   3.562   5.958 -1.2787 -2.6187  0.3128
  581MOL0     H78427   5.236   3.753   6.091  3.4366 -0.0304 -3.4040
  581MOL0     H78428   5.067   3.825   6.061 -0.3680 -1.0986  1.4506
  581MOL0     H78429   5.241   3.754   5.827 -1.2243  0.4036 -0.5749
  581MOL0     H78430   5.102   3.851   5.827 -1.5063  0.1021  2.1802
  581MOL0     H78431   5.421   4.112   5.933  0.3470  0.4157 -1.4262
  581MOL0     H78432   4.750   3.278   6.042  5.1200 -0.3909  3.4753
  581MOL0     H78433   4.563   3.179   6.084  0.6916  1.1809  0.4078
  581MOL0     H78434   4.410   3.261   6.112  2.7628  1.2929  4.0062
  581MOL0     H78435   4.475   3.243   5.945 -0.7595 -2.8135 -0.0402
  582MOL0     O78436  11.297   3.877   9.429  0.1546 -0.1359 -0.0820
  582MOL0     C78437  11.244   3.856   9.321 -0.3278  0.0018  0.6445
  582MOL0     O78438  11.155   3.944   9.267  0.5729 -0.4454  0.3280
  582MOL0     C78439  11.147   4.071   9.319  0.0478  0.3149 -0.4817
  582MOL0     C78440  11.045   4.102   9.411  0.1592 -0.6308  0.3667
  582MOL0     C78441  11.020   4.237   9.439  0.3868  0.1577  0.4001
  582MOL0     C78442  11.081   4.346   9.376 -0.4892 -0.1725 -0.8228
  582MOL0     O78443  11.048   4.477   9.390  0.4835  0.2936 -0.0195
  582MOL0     C78444  11.092   4.539   9.511  0.1026 -0.2145  0.9598
  582MOL0     C78445  11.004   4.665   9.530  0.2800 -0.7151 -0.5242
  582MOL0     C78446  10.882   4.653   9.628  0.4434  0.8199 -0.3456
  582MOL0     C78447  10.815   4.784   9.629 -0.1012 -0.0323  0.3585
  582MOL0     C78448  10.726   4.814   9.752 -0.3225  0.6663  0.6459
  582MOL0     C78449  10.614   4.704   9.763  0.4884 -0.0767 -0.3143
  582MOL0     C78450  10.502   4.736   9.857 -0.0428 -0.1108 -0.5032
  582MOL0     C78451  10.414   4.850   9.814 -0.2157  0.0457 -0.2905
  582MOL0     N78452  10.284   4.845   9.884 -0.0486 -0.1601 -1.0687
  582MOL0     C78453  10.193   4.739   9.872 -0.2889 -0.5530 -0.2941
  582MOL0     C78454  10.100   4.762   9.976  0.1376 -1.5995  0.6183
  582MOL0     C78455   9.988   4.654  10.000  0.2453  0.3645  0.0176
  582MOL0     C78456  10.040   4.510  10.034  0.2672  1.1934  1.1504
  582MOL0     C78457   9.937   4.440  10.122  0.0348 -0.2420  0.5465
  582MOL0     C78458   9.952   4.466  10.267 -0.1579  0.2388  0.3158
  582MOL0     O78459  10.059   4.384  10.317  0.1539  0.0256  0.7317
  582MOL0     C78460  10.101   4.381  10.448 -0.2242  0.8787  0.1892
  582MOL0     C78461  10.068   4.473  10.550  0.1169 -0.4255 -0.3067
  582MOL0     C78462  10.134   4.468  10.674 -0.6368  0.4972 -0.3805
  582MOL0     C78463  10.226   4.368  10.709 -0.3991  0.6853 -0.4492
  582MOL0     C78464  10.294   4.375  10.843  0.2872  0.4943 -0.0998
  582MOL0     O78465  10.263   4.482  10.924 -0.2462  0.7082 -0.6950
  582MOL0     C78466  10.290   4.493  11.055  0.8478 -0.4287 -0.2530
  582MOL0     C78467  10.229   4.601  11.115 -1.3241 -0.3818  0.0962
  582MOL0     C78468  10.245   4.629  11.254 -0.0791  1.2138  0.4064
  582MOL0     C78469  10.324   4.547  11.331  0.4756  0.7706  0.3958
  582MOL0     O78470  10.339   4.569  11.465  0.5821  0.3425 -0.2790
  582MOL0     C78471  10.354   4.471  11.565  1.1705  0.6094 -0.3886
  582MOL0     C78472  10.332   4.529  11.708 -0.9700  0.4449  0.1398
  582MOL0     C78473  10.256   4.434  11.802  0.4510 -0.3904  0.2823
  582MOL0     C78474  10.238   4.504  11.941 -0.0196 -0.3030 -0.0944
  582MOL0     C78475  10.334   4.451  12.051  0.1096 -0.5008 -0.1704
  582MOL0     C78476  10.294   4.516  12.178 -0.3914  0.1919  0.0566
  582MOL0     C78477  10.407   4.497  12.291  0.8789  0.2315 -0.4987
  582MOL0     C78478  10.426   4.356  12.343  0.9615 -0.1551 -0.2777
  582MOL0    Cl78479  10.547   4.267  12.261 -0.4634  0.0320  0.0057
  582MOL0     C78480  10.390   4.433  11.269  0.3934  0.5802  0.7533
  582MOL0     C78481  10.376   4.416  11.134 -0.1233 -0.0405 -0.0176
  582MOL0     O78482  10.364   4.275  10.870 -0.1750  0.2730 -0.2588
  582MOL0     C78483  10.253   4.267  10.603 -0.1835  0.7977  0.3275
  582MOL0     C78484  10.190   4.273  10.478  1.1562 -0.0175  0.0663
  582MOL0     N78485  10.132   4.877  10.043 -0.5674 -0.5877 -0.5949
  582MOL0     N78486  10.236   4.929   9.984 -0.5706  0.0330 -0.8671
  582MOL0     C78487  11.190   4.310   9.293 -0.1394  0.0520 -0.9614
  582MOL0     C78488  11.224   4.180   9.265 -0.2407 -0.7598  0.0584
  582MOL0     C78489  11.260   3.712   9.282 -0.3730 -0.4772  0.2964
  582MOL0     C78490  11.172   3.670   9.188  0.1080  0.4355  0.1113
  582MOL0     C78491  11.161   3.539   9.150  0.4151 -0.7108  0.1368
  582MOL0     C78492  11.236   3.431   9.202 -0.3768  0.7366  0.2491
  582MOL0     O78493  11.217   3.299   9.167  0.7566  0.7079  0.2589
  582MOL0     C78494  11.098   3.268   9.087 -0.0522 -0.6057  0.2166
  582MOL0     C78495  11.102   3.119   9.053 -0.3661 -0.4279  0.3440
  582MOL0     C78496  11.234   3.060   9.014 -0.4836 -1.0180  0.6358
  582MOL0     C78497  11.218   2.953   8.914 -0.3323  0.9021  0.4184
  582MOL0     C78498  11.348   2.922   8.858  0.0456 -0.0826 -0.1585
  582MOL0     C78499  11.446   2.876   8.800  0.5010  0.1250  0.2451
  582MOL0     C78500  11.325   3.471   9.298 -0.1791 -0.1299  0.4688
  582MOL0     C78501  11.345   3.607   9.342  0.3762 -0.1350  1.7541
  582MOL0     C78502  11.434   3.621   9.455 -0.2427  0.6000 -1.1262
  582MOL0     H78503  10.971   4.026   9.435  1.2161 -2.3821 -1.5577
  582MOL0     H78504  10.935   4.268   9.499 -0.2610  0.0583 -0.4508
  582MOL0     H78505  11.095   4.464   9.591  1.1068 -1.3569 -0.1154
  582MOL0     H78506  11.193   4.571   9.485 -0.4073 -0.6151 -1.8207
  582MOL0     H78507  10.963   4.714   9.441 -0.0640  2.1068  1.0883
  582MOL0     H78508  11.066   4.744   9.572 -2.7824  1.7559 -0.2585
  582MOL0     H78509  10.919   4.637   9.730 -0.2160  0.9710 -0.0743
  582MOL0     H78510  10.822   4.574   9.582 -2.4209  2.1938  0.7660
  582MOL0     H78511  10.894   4.860   9.638 -1.1161  0.8582  2.4638
  582MOL0     H78512  10.758   4.795   9.536  1.2987 -4.2058 -1.2062
  582MOL0     H78513  10.788   4.817   9.842  0.5346  0.4240  0.0746
  582MOL0     H78514  10.676   4.909   9.732 -3.5223 -1.3024 -1.8445
  582MOL0     H78515  10.576   4.657   9.671  0.6000 -1.2310  0.2073
  582MOL0     H78516  10.664   4.624   9.819  4.2548  1.0138 -1.8154
  582MOL0     H78517  10.532   4.761   9.959 -2.5177  0.0779  0.2589
  582MOL0     H78518  10.438   4.647   9.867 -1.5653  0.9167 -0.6927
  582MOL0     H78519  10.456   4.948   9.842 -2.9104  0.7132  1.7781
  582MOL0     H78520  10.400   4.838   9.706  1.8385 -0.2578 -0.5788
  582MOL0     H78521  10.212   4.661   9.798 -0.0559  1.2130 -2.1767
  582MOL0     H78522   9.923   4.685  10.082 -1.2015  0.6034 -1.1581
  582MOL0     H78523   9.926   4.647   9.909  0.5389 -0.3046 -0.1343
  582MOL0     H78524  10.065   4.464   9.937 -2.0676  2.0436  0.0654
  582MOL0     H78525  10.126   4.518  10.100 -0.0365  1.6672  1.4972
  582MOL0     H78526   9.932   4.333  10.100 -0.3739  0.0049 -0.6431
  582MOL0     H78527   9.834   4.464  10.096 -0.3062 -2.2874 -0.1622
  582MOL0     H78528   9.858   4.443  10.320 -0.0696  1.3296  0.9777
  582MOL0     H78529   9.974   4.570  10.294 -2.2986  0.8559 -0.1333
  582MOL0     H78530   9.996   4.551  10.527 -0.3189 -1.6375 -3.5849
  582MOL0     H78531  10.103   4.546  10.743 -1.9350 -0.3911  0.0666
  582MOL0     H78532  10.169   4.671  11.058 -1.4402 -0.6048 -0.0566
  582MOL0     H78533  10.211   4.719  11.304  1.3298  1.6358  0.6560
  582MOL0     H78534  10.273   4.398  11.558 -1.4861  3.2297  0.8816
  582MOL0     H78535  10.453   4.425  11.560  2.3908  3.0682 -0.5713
  582MOL0     H78536  10.431   4.549  11.751 -1.2246  0.7255  0.6072
  582MOL0     H78537  10.285   4.627  11.702  1.9346  1.8457 -2.4159
  582MOL0     H78538  10.159   4.414  11.756  1.0229  0.0964 -1.2314
  582MOL0     H78539  10.294   4.333  11.817 -1.4935 -1.3208 -0.6973
  582MOL0     H78540  10.134   4.484  11.971  0.2768 -3.1473 -0.7184
  582MOL0     H78541  10.258   4.610  11.925 -1.3377 -0.4337 -3.4622
  582MOL0     H78542  10.428   4.488  12.010  1.4968 -1.9783  1.5009
  582MOL0     H78543  10.332   4.344  12.072 -1.8464 -0.2880  1.0397
  582MOL0     H78544  10.294   4.624  12.159 -1.2327  0.0629 -0.7580
  582MOL0     H78545  10.198   4.469  12.202  0.1346 -1.0991 -0.2912
  582MOL0     H78546  10.371   4.551  12.379 -0.6433  0.5037 -1.2457
  582MOL0     H78547  10.505   4.537  12.261  0.9195 -0.0344 -0.7251
  582MOL0     H78548  10.461   4.363  12.446  0.5968 -1.0858 -0.0846
  582MOL0     H78549  10.328   4.310  12.360 -0.0516  1.5721 -1.0849
  582MOL0     H78550  10.464   4.375  11.323  0.1934 -0.1846  0.2236
  582MOL0     H78551  10.447   4.351  11.084  0.8539  0.9183  0.0860
  582MOL0     H78552  10.328   4.189  10.608  0.8525  1.7683  0.4703
  582MOL0     H78553  10.223   4.204  10.401  2.3359  1.8802 -1.1920
  582MOL0     H78554  11.249   4.388   9.245  2.1876 -0.0463  1.5243
  582MOL0     H78555  11.302   4.175   9.189 -1.6675  0.1311 -1.5342
  582MOL0     H78556  11.102   3.739   9.142  0.4777 -0.0880 -1.3142
  582MOL0     H78557  11.073   3.511   9.094  1.0738 -1.7621 -0.4050
  582MOL0     H78558  11.117   3.320   8.992  1.0735 -0.0022  0.7537
  582MOL0     H78559  10.995   3.287   9.116 -1.2106 -1.7969 -2.7039
  582MOL0     H78560  11.046   3.113   8.959 -1.5829 -3.8612  1.1295
  582MOL0     H78561  11.058   3.069   9.140 -0.5320 -1.3666 -0.2569
  582MOL0     H78562  11.274   3.018   9.107  0.8560 -0.2294  0.4332
  582MOL0     H78563  11.298   3.137   8.969 -1.1281  0.1483  1.6422
  582MOL0     H78564  11.177   2.864   8.963  0.3874 -0.6039 -1.5697
  582MOL0     H78565  11.152   2.989   8.834  1.0208  0.3221 -0.9985
  582MOL0     H78566  11.530   2.843   8.742  0.7325 -3.5870  2.3992
  582MOL0     H78567  11.398   3.403   9.341  0.7578 -0.4447 -1.4812
  582MOL0     H78568  11.383   3.665   9.541  0.2355  2.6613 -1.8503
  582MOL0     H78569  11.474   3.526   9.491 -2.6908 -0.0374  0.1180
  582MOL0     H78570  11.517   3.692   9.456  0.1341  0.2272  1.4547
  583MOL0     O78571   9.808   4.650   4.435 -0.1126 -0.1567 -0.4761
  583MOL0     C78572   9.696   4.648   4.391 -0.2575  0.1434 -0.5208
  583MOL0     O78573   9.592   4.570   4.435  0.8721 -0.6378 -0.5990
  583MOL0     C78574   9.572   4.507   4.554 -0.3515  0.7371  0.3507
  583MOL0     C78575   9.662   4.499   4.670  0.2793 -1.0525  0.2631
  583MOL0     C78576   9.616   4.418   4.777 -0.3331 -0.6243 -1.2108
  583MOL0     C78577   9.492   4.354   4.788  0.4324  0.0933  0.7215
  583MOL0     O78578   9.459   4.266   4.887 -0.6212 -1.2138  0.7341
  583MOL0     C78579   9.561   4.178   4.927 -0.7345 -0.5937 -0.2761
  583MOL0     C78580   9.501   4.060   5.015  0.0913 -0.3922  0.6487
  583MOL0     C78581   9.391   3.992   4.935  0.5427 -0.6203 -0.0142
  583MOL0     C78582   9.292   3.936   5.035 -0.6464  0.1902  0.5909
  583MOL0     C78583   9.186   3.862   4.967  0.0196  0.5857  0.2893
  583MOL0     C78584   9.083   3.797   5.053  0.0880  0.0045 -0.4588
  583MOL0     C78585   8.947   3.764   4.979  0.6479 -0.3573  0.1353
  583MOL0     C78586   8.963   3.687   4.857 -0.1140  0.2746  1.0535
  583MOL0     N78587   8.828   3.657   4.806 -0.1061 -0.1431 -0.3604
  583MOL0     C78588   8.732   3.744   4.773  0.6701 -0.0605 -0.0577
  583MOL0     C78589   8.617   3.682   4.753  0.3973  1.9689 -0.4038
  583MOL0     C78590   8.478   3.745   4.719 -0.1003  0.1725  0.2169
  583MOL0     C78591   8.470   3.809   4.575 -1.3306 -0.2302 -0.2690
  583MOL0     C78592   8.332   3.835   4.512 -0.0672 -0.7352  0.2964
  583MOL0     C78593   8.271   3.950   4.603 -0.2337 -0.0122  0.6553
  583MOL0     O78594   8.133   3.973   4.574 -0.1004 -0.7796 -0.1173
  583MOL0     C78595   8.104   4.023   4.449 -0.3678  0.4601 -0.4190
  583MOL0     C78596   8.046   3.947   4.352 -0.8199  0.5837  0.3671
  583MOL0     C78597   8.022   4.014   4.228 -0.0284 -0.2538  0.4480
  583MOL0     C78598   8.052   4.153   4.215 -0.8551 -0.6167  1.1167
  583MOL0     C78599   8.006   4.228   4.093 -0.5376  0.2939 -1.0299
  583MOL0     O78600   8.084   4.334   4.063  0.6122 -0.9017  0.3953
  583MOL0     C78601   8.042   4.424   3.970 -0.0632 -0.0081  0.3630
  583MOL0     C78602   8.008   4.555   4.008 -0.6252  0.6579 -0.7653
  583MOL0     C78603   7.973   4.640   3.907 -0.5714 -0.6012 -0.9606
  583MOL0     C78604   7.970   4.605   3.773  1.6035 -0.0090  0.4084
  583MOL0     O78605   7.948   4.696   3.673  0.9317  0.7903 -0.3190
  583MOL0     C78606   8.032   4.680   3.557  0.3539  0.2337  0.2741
  583MOL0     C78607   8.038   4.807   3.471  0.4901  0.9256  0.0630
  583MOL0     C78608   7.916   4.831   3.385 -0.5951  0.2568 -0.8300
  583MOL0     C78609   7.924   4.974   3.318 -0.1816  0.5128  0.9159
  583MOL0     C78610   7.776   5.018   3.286 -0.0135  0.1438 -0.1804
  583MOL0     C78611   7.698   4.928   3.198  0.2200  0.1406  0.3609
  583MOL0     C78612   7.728   4.935   3.050 -0.2950  0.6033  0.2512
  583MOL0     C78613   7.629   4.852   2.964  0.4420 -0.1944 -0.5310
  583MOL0    Cl78614   7.676   4.687   2.979 -0.1705 -0.1527 -0.0425
  583MOL0     C78615   8.006   4.475   3.737 -1.4317 -1.1565  0.4038
  583MOL0     C78616   8.058   4.394   3.834  0.3395 -0.6396  0.8992
  583MOL0     O78617   7.911   4.177   4.024 -0.2376 -0.0750 -0.0788
  583MOL0     C78618   8.124   4.217   4.308 -0.2320 -0.5336 -0.1824
  583MOL0     C78619   8.148   4.155   4.428 -0.0148  0.8170 -0.7157
  583MOL0     N78620   8.639   3.555   4.774 -0.0729  0.0703  0.2801
  583MOL0     N78621   8.762   3.542   4.806  0.0086 -0.0369 -1.0571
  583MOL0     C78622   9.405   4.371   4.675 -0.6210 -0.4568 -0.0200
  583MOL0     C78623   9.448   4.441   4.564  0.3635  0.6463 -0.0032
  583MOL0     C78624   9.686   4.704   4.253 -0.8229 -0.2373 -0.6881
  583MOL0     C78625   9.668   4.609   4.154  0.0327  0.6538  0.1433
  583MOL0     C78626   9.670   4.656   4.018  0.2014 -1.0029  0.3987
  583MOL0     C78627   9.707   4.787   3.980 -0.1397  1.6733  0.4611
  583MOL0     O78628   9.731   4.816   3.849 -0.5408 -0.1398 -1.0473
  583MOL0     C78629   9.766   4.950   3.817  0.0659 -0.1759  0.6703
  583MOL0     C78630   9.728   4.979   3.664 -0.1929  0.0493  0.4503
  583MOL0     C78631   9.769   5.129   3.629 -0.2636  1.2443 -0.6277
  583MOL0     C78632   9.767   5.169   3.475  0.3067 -0.6335  0.3185
  583MOL0     C78633   9.765   5.315   3.474  0.8713  0.2591 -0.6022
  583MOL0     C78634   9.759   5.435   3.467 -0.1181 -0.8919  0.7015
  583MOL0     C78635   9.711   4.877   4.086  0.5714 -0.0719  0.9653
  583MOL0     C78636   9.705   4.844   4.225 -0.8724  0.9582  0.2891
  583MOL0     C78637   9.704   4.937   4.339 -0.9794  0.2090 -0.2127
  583MOL0     H78638   9.758   4.548   4.673 -0.3357  0.2855 -0.5318
  583MOL0     H78639   9.700   4.407   4.844  0.6197  0.9286 -2.0909
  583MOL0     H78640   9.592   4.140   4.829 -1.8713  2.7936 -2.1076
  583MOL0     H78641   9.646   4.231   4.971  0.4608 -0.4869 -2.5906
  583MOL0     H78642   9.478   4.102   5.113  1.8331 -0.8532  1.2856
  583MOL0     H78643   9.581   3.989   5.035  0.5997  0.2849  1.0689
  583MOL0     H78644   9.431   3.916   4.868  0.7233 -0.1317 -0.4646
  583MOL0     H78645   9.339   4.070   4.879 -2.3616 -0.2785  2.8898
  583MOL0     H78646   9.357   3.864   5.085 -1.5951 -1.4028 -0.3645
  583MOL0     H78647   9.262   4.017   5.103 -1.0960 -1.4721  2.4558
  583MOL0     H78648   9.137   3.930   4.896 -2.2018 -0.9887  0.1969
  583MOL0     H78649   9.235   3.778   4.916 -0.4863 -0.8523  2.0932
  583MOL0     H78650   9.119   3.704   5.097 -4.6778 -2.5890 -1.3877
  583MOL0     H78651   9.060   3.869   5.132 -0.0392  0.3502 -0.8056
  583MOL0     H78652   8.907   3.861   4.948  3.5528  0.8771 -0.0673
  583MOL0     H78653   8.867   3.714   5.036  2.1945 -1.1949  1.6884
  583MOL0     H78654   9.014   3.751   4.784  1.5326  1.2278  2.9502
  583MOL0     H78655   9.022   3.595   4.862 -0.6325 -0.4664 -2.7724
  583MOL0     H78656   8.734   3.850   4.750 -0.0050  0.2149  1.0696
  583MOL0     H78657   8.400   3.669   4.734 -0.1038  0.2575  0.6316
  583MOL0     H78658   8.455   3.813   4.801  2.1588  1.5156 -0.1785
  583MOL0     H78659   8.521   3.906   4.576 -2.1437  0.2386  2.3034
  583MOL0     H78660   8.530   3.738   4.518 -2.9148 -1.5390 -0.3824
  583MOL0     H78661   8.262   3.751   4.505  0.1236 -0.7907 -1.3883
  583MOL0     H78662   8.340   3.880   4.412  0.3421  0.0915  0.6908
  583MOL0     H78663   8.334   4.039   4.604 -1.6030  0.9811  0.9223
  583MOL0     H78664   8.258   3.923   4.708 -1.1978 -0.1833  0.5015
  583MOL0     H78665   8.029   3.841   4.365  0.2801  0.2632 -0.5860
  583MOL0     H78666   7.980   3.957   4.146 -0.5931 -2.0853  1.9284
  583MOL0     H78667   8.000   4.590   4.111  1.3296 -0.9587 -0.0044
  583MOL0     H78668   7.974   4.746   3.932  0.5557 -0.4656 -1.5080
  583MOL0     H78669   8.132   4.643   3.584  0.2963  0.1158  0.3241
  583MOL0     H78670   7.989   4.598   3.500 -0.2386 -1.5453  3.1222
  583MOL0     H78671   8.058   4.895   3.534 -1.5604 -0.6436  3.1881
  583MOL0     H78672   8.124   4.785   3.408  1.5445  0.9208  1.4574
  583MOL0     H78673   7.913   4.761   3.302 -2.5953 -0.7028 -0.0163
  583MOL0     H78674   7.825   4.826   3.446  1.4788  1.5580  2.6720
  583MOL0     H78675   7.999   4.976   3.238  1.0328 -5.1114  1.4727
  583MOL0     H78676   7.955   5.048   3.393  3.6600  2.5572 -2.2654
  583MOL0     H78677   7.763   5.120   3.247  0.4419  0.1400 -0.3550
  583MOL0     H78678   7.723   5.010   3.381 -0.4164  1.2757 -0.2903
  583MOL0     H78679   7.709   4.822   3.225 -0.1290  0.0837  0.2777
  583MOL0     H78680   7.593   4.948   3.219 -0.3523 -0.3439 -1.8300
  583MOL0     H78681   7.829   4.901   3.026 -0.8982 -0.4579 -0.8907
  583MOL0     H78682   7.706   5.039   3.024  1.4875  0.9985  0.1777
  583MOL0     H78683   7.526   4.880   2.984  0.3043 -0.6072 -0.6550
  583MOL0     H78684   7.644   4.885   2.861 -0.5850  3.4813  0.3406
  583MOL0     H78685   8.012   4.437   3.636  0.3052 -0.5769  0.2450
  583MOL0     H78686   8.102   4.298   3.808 -1.5838 -1.7300  1.4560
  583MOL0     H78687   8.174   4.310   4.282 -1.2166  0.2127  0.5120
  583MOL0     H78688   8.198   4.206   4.510 -1.1575 -0.6082  0.9336
  583MOL0     H78689   9.311   4.317   4.676 -0.2720 -1.0750 -0.2944
  583MOL0     H78690   9.380   4.434   4.479 -0.6329 -0.3390  0.8380
  583MOL0     H78691   9.652   4.502   4.165 -2.5547  0.5975 -2.7971
  583MOL0     H78692   9.651   4.589   3.935 -2.2534 -0.6373  0.5816
  583MOL0     H78693   9.872   4.972   3.835  0.1204  0.4333 -0.3182
  583MOL0     H78694   9.721   5.030   3.877 -0.4923 -0.0069  0.0396
  583MOL0     H78695   9.622   4.954   3.652 -0.4294 -0.1785  2.5953
  583MOL0     H78696   9.773   4.908   3.594  0.6564  1.5310 -0.5649
  583MOL0     H78697   9.864   5.146   3.680  1.0861 -2.8780 -1.4280
  583MOL0     H78698   9.688   5.176   3.685 -1.5086 -1.4633  0.0288
  583MOL0     H78699   9.852   5.129   3.420  1.4114 -1.1971  2.3460
  583MOL0     H78700   9.674   5.137   3.426 -0.0647 -0.3043  0.7933
  583MOL0     H78701   9.751   5.541   3.481 -3.0459 -0.7797 -1.0054
  583MOL0     H78702   9.734   4.978   4.054  0.7692 -1.6198 -4.7488
  583MOL0     H78703   9.606   4.919   4.384 -0.0189 -3.3127  0.7652
  583MOL0     H78704   9.772   4.913   4.422 -2.1727 -0.2171  0.6589
  583MOL0     H78705   9.696   5.044   4.315  0.4334  0.8503  1.9411
  584MOL0     O78706   7.049   2.068   7.700  0.4916 -0.3469  0.7438
  584MOL0     C78707   6.929   2.086   7.689  0.2514  0.3480  0.4355
  584MOL0     O78708   6.849   2.128   7.793  0.4834 -0.0622 -0.7960
  584MOL0     C78709   6.912   2.157   7.905 -0.4138 -0.2599 -0.1879
  584MOL0     C78710   6.966   2.058   7.988 -0.6990 -0.4457  0.0644
  584MOL0     C78711   7.037   2.089   8.099 -0.4855 -0.1709  0.5204
  584MOL0     C78712   7.060   2.218   8.135 -0.5826 -0.1778  0.5244
  584MOL0     O78713   7.134   2.232   8.251 -0.4645 -0.1652  0.3144
  584MOL0     C78714   7.064   2.293   8.355  0.5409  0.2537 -0.1180
  584MOL0     C78715   7.133   2.315   8.480 -0.2587 -0.4022  1.2658
  584MOL0     C78716   7.213   2.447   8.476 -0.4992 -0.3789 -0.5236
  584MOL0     C78717   7.310   2.468   8.588  0.6094  0.0523 -1.1750
  584MOL0     C78718   7.361   2.607   8.587  1.0499 -0.1511 -0.0350
  584MOL0     C78719   7.254   2.697   8.658 -0.5505  0.5057  0.0246
  584MOL0     C78720   7.310   2.827   8.700 -0.1192  0.0958  0.3919
  584MOL0     C78721   7.197   2.910   8.769 -0.2077 -0.0194 -0.5989
  584MOL0     N78722   7.103   2.978   8.671 -0.0080  0.7754 -0.4159
  584MOL0     C78723   7.148   3.057   8.575  0.4137  0.5215  0.8051
  584MOL0     C78724   7.034   3.097   8.515  0.0374  0.8210 -0.1239
  584MOL0     C78725   7.012   3.183   8.410 -0.2777 -0.4856  1.6666
  584MOL0     C78726   7.045   3.343   8.439  0.0144  0.7140 -0.7433
  584MOL0     C78727   7.195   3.363   8.443 -0.0841 -0.6379  0.9143
  584MOL0     C78728   7.230   3.509   8.449 -0.4487  0.1979 -0.7933
  584MOL0     O78729   7.372   3.518   8.428 -0.1396  0.0591 -0.2237
  584MOL0     C78730   7.443   3.628   8.474 -0.1639  0.8833  0.2601
  584MOL0     C78731   7.397   3.757   8.487 -0.0273  0.0448  0.4446
  584MOL0     C78732   7.473   3.859   8.548  0.5336  0.6576  0.2758
  584MOL0     C78733   7.606   3.840   8.583  0.2329 -0.4604  0.5421
  584MOL0     C78734   7.692   3.952   8.631  0.1178 -0.2254  0.8159
  584MOL0     O78735   7.649   4.089   8.626 -0.7221 -0.2182 -0.5676
  584MOL0     C78736   7.748   4.176   8.675 -0.3954  0.4822 -0.2322
  584MOL0     C78737   7.860   4.217   8.598 -0.8783 -0.2407  1.0640
  584MOL0     C78738   7.958   4.314   8.646  0.0006  0.2121 -0.0652
  584MOL0     C78739   7.951   4.357   8.776 -0.0508 -0.3582  0.4183
  584MOL0     O78740   8.058   4.420   8.826 -0.7251 -0.0395  0.5619
  584MOL0     C78741   8.045   4.470   8.956 -0.3068  1.0873 -0.3884
  584MOL0     C78742   8.192   4.536   8.980 -0.6797 -0.5516 -0.0064
  584MOL0     C78743   8.202   4.669   8.908  0.8479  0.5947  0.2302
  584MOL0     C78744   8.337   4.724   8.889 -0.6212 -0.0094 -0.4692
  584MOL0     C78745   8.326   4.844   8.796 -0.4237  0.0356 -0.0134
  584MOL0     C78746   8.451   4.924   8.789 -0.2613  0.7745  0.6460
  584MOL0     C78747   8.430   5.033   8.687 -0.1188  0.5690 -0.0621
  584MOL0     C78748   8.556   5.109   8.666  0.5298  0.0546 -0.0900
  584MOL0    Cl78749   8.667   4.976   8.604  0.2287 -0.1793  0.3174
  584MOL0     C78750   7.837   4.327   8.859 -0.0575  0.6832  0.0774
  584MOL0     C78751   7.742   4.238   8.805 -0.6204 -0.0103  0.3288
  584MOL0     O78752   7.796   3.920   8.684 -0.4138  0.9275  0.1240
  584MOL0     C78753   7.650   3.708   8.585  0.1117  0.4858  0.4996
  584MOL0     C78754   7.571   3.606   8.534  0.0650  0.7172  0.0662
  584MOL0     N78755   6.926   3.041   8.574  0.1805 -0.2898 -0.6626
  584MOL0     N78756   6.970   2.969   8.678  0.5458 -0.3889 -0.2867
  584MOL0     C78757   7.012   2.320   8.054 -0.8136 -0.4687  0.1878
  584MOL0     C78758   6.937   2.293   7.942 -0.2111  0.1963  0.6169
  584MOL0     C78759   6.857   2.073   7.570 -0.2701  0.4545 -0.2383
  584MOL0     C78760   6.765   1.966   7.546  0.0121 -0.4209 -0.7733
  584MOL0     C78761   6.697   1.949   7.432 -0.4861  0.7258 -0.1806
  584MOL0     C78762   6.711   2.040   7.330  1.2505 -0.6069  0.3057
  584MOL0     O78763   6.639   2.004   7.218  1.5723  0.6188 -0.0593
  584MOL0     C78764   6.579   2.109   7.140 -1.5207  0.1856 -0.3717
  584MOL0     C78765   6.428   2.103   7.114 -0.2601  1.2974 -0.2530
  584MOL0     C78766   6.351   2.030   7.223 -1.6958  0.4629 -0.0750
  584MOL0     C78767   6.322   2.109   7.347  0.4264 -0.8942  0.0744
  584MOL0     C78768   6.215   2.202   7.318  0.6432 -0.1512  0.0740
  584MOL0     C78769   6.107   2.250   7.287 -0.7889 -0.3451 -0.1853
  584MOL0     C78770   6.795   2.151   7.345 -0.8541 -0.5931  0.5927
  584MOL0     C78771   6.873   2.163   7.463 -0.1084  0.6022  0.6531
  584MOL0     C78772   6.989   2.269   7.458 -0.0651  0.2338  0.1181
  584MOL0     H78773   6.956   1.951   7.973 -0.4903 -0.5979  0.9585
  584MOL0     H78774   7.082   2.010   8.159 -2.8914 -2.4144 -0.4393
  584MOL0     H78775   7.014   2.386   8.322 -0.1444 -0.0127  0.1498
  584MOL0     H78776   6.986   2.225   8.391 -1.5595  2.5836  0.0578
  584MOL0     H78777   7.178   2.216   8.492  1.3746  0.3249  1.3167
  584MOL0     H78778   7.052   2.329   8.553 -0.8827  0.5385  0.4188
  584MOL0     H78779   7.147   2.534   8.463 -0.5796 -0.3784 -0.1249
  584MOL0     H78780   7.288   2.437   8.397  0.4204  4.1154 -0.4962
  584MOL0     H78781   7.254   2.445   8.678  3.6257  0.5646  1.0085
  584MOL0     H78782   7.396   2.400   8.583  1.4709  0.9029  1.0728
  584MOL0     H78783   7.456   2.612   8.641 -0.2244  0.4188  2.2759
  584MOL0     H78784   7.385   2.647   8.488  2.6248  1.8477  1.0913
  584MOL0     H78785   7.171   2.708   8.588  1.3503 -2.4887 -3.0293
  584MOL0     H78786   7.240   2.651   8.757  0.2126  3.7162  1.7848
  584MOL0     H78787   7.340   2.883   8.610 -1.5839 -0.5245 -0.5078
  584MOL0     H78788   7.401   2.819   8.761  0.9446  3.1056 -0.5782
  584MOL0     H78789   7.143   2.847   8.841  2.5427 -4.5470 -2.0768
  584MOL0     H78790   7.250   2.986   8.827 -3.2881  3.9429 -2.5200
  584MOL0     H78791   7.247   3.092   8.546  2.3883 -3.7198  1.5807
  584MOL0     H78792   7.059   3.155   8.315 -1.5187  1.5271  0.3613
  584MOL0     H78793   6.903   3.174   8.399 -0.3011  0.4020  1.0078
  584MOL0     H78794   6.998   3.412   8.369 -1.0317 -0.0564 -0.8176
  584MOL0     H78795   7.000   3.377   8.532 -4.3482  1.3716 -2.8411
  584MOL0     H78796   7.240   3.311   8.357 -3.9253 -1.3744 -0.8776
  584MOL0     H78797   7.247   3.314   8.525  1.4274 -1.5904 -0.5417
  584MOL0     H78798   7.207   3.560   8.543  0.0331 -3.3922  1.4305
  584MOL0     H78799   7.191   3.566   8.364  4.6786  3.9706 -1.1649
  584MOL0     H78800   7.294   3.782   8.464 -1.0338 -2.7493  1.5469
  584MOL0     H78801   7.442   3.961   8.563  2.2119  1.2267  0.0569
  584MOL0     H78802   7.876   4.168   8.502  2.9506  2.7230 -0.0646
  584MOL0     H78803   8.042   4.334   8.581  1.7691 -1.7054  1.4862
  584MOL0     H78804   7.976   4.555   8.959  0.5795  1.8148  2.2498
  584MOL0     H78805   8.021   4.394   9.031 -1.5622 -0.5308 -2.3179
  584MOL0     H78806   8.219   4.554   9.084  0.4894 -0.7684 -0.2608
  584MOL0     H78807   8.267   4.467   8.941  2.4834  2.9116 -0.5830
  584MOL0     H78808   8.164   4.642   8.809  1.0889 -2.6198  0.9006
  584MOL0     H78809   8.121   4.731   8.946 -1.9302 -0.6199 -3.0692
  584MOL0     H78810   8.402   4.649   8.841  0.9659  0.4699  0.8343
  584MOL0     H78811   8.380   4.753   8.985  2.5789  0.3723 -1.8884
  584MOL0     H78812   8.252   4.921   8.822  2.5736  4.5520 -3.2463
  584MOL0     H78813   8.294   4.802   8.700 -0.1642 -0.9008  0.3060
  584MOL0     H78814   8.486   4.949   8.890  1.0439 -0.4527  0.5363
  584MOL0     H78815   8.536   4.858   8.766  1.6729  2.9361  1.1963
  584MOL0     H78816   8.354   5.103   8.724  0.5225  1.0607  0.3428
  584MOL0     H78817   8.406   4.991   8.589 -1.7859 -3.0648  1.7340
  584MOL0     H78818   8.536   5.194   8.600  2.7772  1.5111  0.9816
  584MOL0     H78819   8.594   5.142   8.763  1.0929 -4.5482  1.5357
  584MOL0     H78820   7.823   4.357   8.962 -2.6407 -1.8831  0.6031
  584MOL0     H78821   7.676   4.195   8.879  1.7015  0.2814  2.7146
  584MOL0     H78822   7.745   3.687   8.633 -0.1193  0.8053  1.1065
  584MOL0     H78823   7.595   3.503   8.555 -0.0359  0.7001  0.0938
  584MOL0     H78824   7.026   2.424   8.080 -0.2097 -0.6657  0.6910
  584MOL0     H78825   6.901   2.378   7.885 -1.0556 -0.3325  0.3444
  584MOL0     H78826   6.748   1.890   7.622 -1.2513 -1.0304 -1.6286
  584MOL0     H78827   6.614   1.881   7.425 -0.1476 -0.0366  2.2368
  584MOL0     H78828   6.626   2.101   7.041 -1.5462 -1.4407 -0.2859
  584MOL0     H78829   6.595   2.205   7.190 -1.7637  0.5032 -0.8999
  584MOL0     H78830   6.417   2.043   7.024 -0.5956 -2.4760  2.0964
  584MOL0     H78831   6.390   2.198   7.076  3.4029  1.8910 -2.9947
  584MOL0     H78832   6.414   1.944   7.249  0.6593  0.3141 -5.0196
  584MOL0     H78833   6.251   2.002   7.187 -1.6356 -1.8054  1.3126
  584MOL0     H78834   6.291   2.039   7.425 -2.3005  0.0613 -0.0632
  584MOL0     H78835   6.411   2.160   7.387  2.3496 -2.3242 -2.1225
  584MOL0     H78836   6.007   2.283   7.264 -0.7969 -0.5199 -0.4055
  584MOL0     H78837   6.816   2.209   7.256  1.3425 -2.1938 -0.0146
  584MOL0     H78838   7.025   2.287   7.560  1.4758  1.8815 -0.6701
  584MOL0     H78839   7.069   2.238   7.391  0.4295 -0.0309  0.8238
  584MOL0     H78840   6.944   2.365   7.432 -0.9057  0.2852  1.6334
  585MOL0     O78841   1.309   3.141   0.378  0.1311  0.0661 -0.2567
  585MOL0     C78842   1.201   3.203   0.368 -1.0431 -0.6513 -0.3351
  585MOL0     O78843   1.197   3.347   0.365  0.7623  0.5727 -0.6447
  585MOL0     C78844   1.316   3.413   0.327 -0.8071  0.0077  0.0302
  585MOL0     C78845   1.382   3.475   0.435 -0.0274 -0.8668  0.8359
  585MOL0     C78846   1.499   3.546   0.410  0.4088 -0.4421 -0.1598
  585MOL0     C78847   1.544   3.567   0.284 -1.0239 -0.5571 -0.1192
  585MOL0     O78848   1.665   3.626   0.251  0.2054 -0.4464 -0.3061
  585MOL0     C78849   1.699   3.743   0.339  0.8978 -0.8364  0.5240
  585MOL0     C78850   1.616   3.872   0.309 -0.2269  0.3238  0.1804
  585MOL0     C78851   1.679   4.001   0.363  0.4939  0.6636  1.2030
  585MOL0     C78852   1.705   3.981   0.504  0.2529 -0.3579 -0.2134
  585MOL0     C78853   1.724   4.112   0.583 -1.1110  0.0870 -0.6478
  585MOL0     C78854   1.744   4.072   0.733  0.8399 -0.3139  0.1850
  585MOL0     C78855   1.775   4.200   0.817 -0.4853  1.0491  0.6547
  585MOL0     C78856   1.799   4.150   0.961  0.7887 -0.0344 -0.5483
  585MOL0     N78857   1.856   4.257   1.054 -0.0162 -0.5228  0.0681
  585MOL0     C78858   1.988   4.285   1.069 -0.1184  0.4233  0.9615
  585MOL0     C78859   1.993   4.402   1.128  0.9543  0.3402 -1.1383
  585MOL0     C78860   2.110   4.483   1.171  0.4413  0.3019  0.2964
  585MOL0     C78861   2.246   4.421   1.131 -0.5253  1.4703 -0.1773
  585MOL0     C78862   2.366   4.516   1.153  0.2536 -0.4914  0.2288
  585MOL0     C78863   2.371   4.577   1.293  0.0462  1.4892  0.0300
  585MOL0     O78864   2.381   4.488   1.408  0.7375  0.7836  0.7108
  585MOL0     C78865   2.390   4.540   1.535  0.2195 -0.6517 -0.4190
  585MOL0     C78866   2.418   4.452   1.638 -1.1627  0.3133 -0.4129
  585MOL0     C78867   2.438   4.491   1.766  0.6826  0.2274  0.8686
  585MOL0     C78868   2.434   4.631   1.798 -0.0416  0.3392  0.1575
  585MOL0     C78869   2.465   4.675   1.938 -0.3168 -0.3396 -0.2689
  585MOL0     O78870   2.553   4.604   2.021  0.5383  0.5031  0.1354
  585MOL0     C78871   2.636   4.508   1.973 -0.7107  0.3325 -0.1930
  585MOL0     C78872   2.639   4.375   2.023 -0.6984 -0.3968 -0.0516
  585MOL0     C78873   2.737   4.283   1.985  0.6648  0.3191  0.5004
  585MOL0     C78874   2.841   4.334   1.898  0.7953 -0.0541 -0.1341
  585MOL0     O78875   2.923   4.238   1.840  0.2952 -0.0970 -0.0356
  585MOL0     C78876   3.053   4.268   1.776  0.3420  0.3117  0.0621
  585MOL0     C78877   3.101   4.131   1.716 -0.1047 -0.0934 -0.2028
  585MOL0     C78878   3.237   4.140   1.643  0.7626 -0.0459  0.6381
  585MOL0     C78879   3.294   3.995   1.609 -0.7219  0.7778  0.4484
  585MOL0     C78880   3.424   4.007   1.537  0.0280  0.4768 -0.0585
  585MOL0     C78881   3.438   3.888   1.448 -0.5291 -0.4409  0.4616
  585MOL0     C78882   3.559   3.892   1.360 -0.2649 -0.3385 -0.2762
  585MOL0     C78883   3.586   3.759   1.298  0.3586  0.7544 -0.9804
  585MOL0    Cl78884   3.743   3.773   1.209  0.1023  0.4933 -0.3807
  585MOL0     C78885   2.831   4.459   1.840  0.1539  0.0930 -0.0891
  585MOL0     C78886   2.725   4.542   1.877  0.0325  0.4815  0.1352
  585MOL0     O78887   2.431   4.781   1.974 -0.2782 -1.1382  0.9437
  585MOL0     C78888   2.422   4.721   1.695  0.1190 -0.1982  0.6168
  585MOL0     C78889   2.389   4.675   1.561 -0.4214  0.3594 -0.1854
  585MOL0     N78890   1.869   4.439   1.164  0.4183  0.9021  0.6433
  585MOL0     N78891   1.784   4.358   1.110 -0.2859  0.3444  0.5069
  585MOL0     C78892   1.486   3.507   0.176 -0.2774  1.1447 -0.0125
  585MOL0     C78893   1.365   3.425   0.200 -0.9295  0.0296  0.1479
  585MOL0     C78894   1.068   3.136   0.346  0.2388  0.9474  0.0942
  585MOL0     C78895   0.961   3.227   0.320 -0.0070 -0.5223  0.1794
  585MOL0     C78896   0.835   3.176   0.299  0.0490  0.9239 -0.1036
  585MOL0     C78897   0.802   3.036   0.312  0.2514  0.0062  0.4465
  585MOL0     O78898   0.671   2.993   0.295 -0.3947 -0.7115  1.0155
  585MOL0     C78899   0.657   2.880   0.205  0.5166  0.9497  0.0852
  585MOL0     C78900   0.677   2.907   0.061 -0.0569  0.5594  0.8198
  585MOL0     C78901   0.586   3.029   0.011  0.4634  0.0187  0.3918
  585MOL0     C78902   0.641   3.087  -0.117 -0.4180 -0.5851  0.3870
  585MOL0     C78903   0.569   3.221  -0.134  0.4721 -0.4658 -0.5620
  585MOL0     C78904   0.509   3.328  -0.136 -0.6445 -0.0435 -0.2914
  585MOL0     C78905   0.912   2.951   0.334  0.4558  0.4212 -0.1098
  585MOL0     C78906   1.047   2.992   0.344  0.0382  1.0282  0.3730
  585MOL0     C78907   1.166   2.890   0.353 -0.1837 -0.3049 -0.0085
  585MOL0     H78908   1.346   3.464   0.537  1.6388  2.5077  1.9259
  585MOL0     H78909   1.560   3.552   0.500 -1.6252 -0.0983  1.2610
  585MOL0     H78910   1.688   3.722   0.446  2.8112 -2.3268  0.4951
  585MOL0     H78911   1.801   3.777   0.322 -0.0818  1.3582 -1.6305
  585MOL0     H78912   1.518   3.865   0.356  0.1801  1.6995  1.3333
  585MOL0     H78913   1.596   3.876   0.201 -0.2657 -3.4614 -0.0658
  585MOL0     H78914   1.607   4.081   0.346 -2.5679 -1.2047  4.0384
  585MOL0     H78915   1.773   4.028   0.314  0.6774  0.4964  1.4601
  585MOL0     H78916   1.613   3.935   0.542  0.1853 -1.1930 -1.3282
  585MOL0     H78917   1.791   3.920   0.531 -1.4860 -2.6124  0.5713
  585MOL0     H78918   1.813   4.164   0.548  0.1413 -2.0750 -0.8255
  585MOL0     H78919   1.634   4.174   0.574 -0.1042  2.1110  1.8689
  585MOL0     H78920   1.666   4.011   0.779  0.7466 -0.4228 -0.1163
  585MOL0     H78921   1.829   4.005   0.744 -1.7492 -4.1861 -1.1163
  585MOL0     H78922   1.691   4.270   0.807 -0.9864  0.2076 -1.6104
  585MOL0     H78923   1.862   4.255   0.778  1.2492 -0.6962  1.8866
  585MOL0     H78924   1.699   4.118   0.994  1.8131 -1.6069  1.1842
  585MOL0     H78925   1.878   4.075   0.961  1.1860  0.3659 -1.9328
  585MOL0     H78926   2.076   4.236   1.029 -0.6833  1.0840 -1.2277
  585MOL0     H78927   2.108   4.580   1.121 -0.3612  1.1627  1.9062
  585MOL0     H78928   2.109   4.504   1.278  2.5202 -0.9731  0.6322
  585MOL0     H78929   2.270   4.333   1.192 -1.2464  2.4220  1.5525
  585MOL0     H78930   2.237   4.394   1.025 -0.4607  2.2895 -0.3939
  585MOL0     H78931   2.372   4.600   1.083  2.7508 -0.2609  0.6394
  585MOL0     H78932   2.458   4.457   1.149  0.7367  0.3146 -1.8645
  585MOL0     H78933   2.289   4.648   1.307 -0.9176 -0.1444  4.0804
  585MOL0     H78934   2.468   4.628   1.296  1.5554 -1.0038 -2.1162
  585MOL0     H78935   2.421   4.345   1.623 -1.9786  0.1755  0.2783
  585MOL0     H78936   2.450   4.403   1.829  0.8691 -1.1966 -1.0613
  585MOL0     H78937   2.563   4.346   2.094 -0.1325 -1.5992  0.0886
  585MOL0     H78938   2.753   4.178   2.010  3.9712  0.6445  0.2761
  585MOL0     H78939   3.039   4.320   1.681 -0.3626  1.1274  0.5939
  585MOL0     H78940   3.129   4.310   1.843  1.0202  1.0364 -1.1302
  585MOL0     H78941   3.120   4.072   1.806  4.2670  2.6418  1.0286
  585MOL0     H78942   3.017   4.099   1.655 -0.6289  2.3655 -0.8728
  585MOL0     H78943   3.221   4.182   1.543 -1.7469 -1.0293  0.5563
  585MOL0     H78944   3.309   4.202   1.697 -2.0755  3.8821  0.3384
  585MOL0     H78945   3.219   3.937   1.554  2.5733 -1.8256 -1.7501
  585MOL0     H78946   3.328   3.941   1.698 -1.1332 -0.8262 -0.3167
  585MOL0     H78947   3.516   4.013   1.597  1.6681 -2.3718 -2.0466
  585MOL0     H78948   3.404   4.086   1.464 -1.1766  1.3620  1.1844
  585MOL0     H78949   3.468   3.805   1.513  1.1123 -1.1596 -1.1151
  585MOL0     H78950   3.350   3.862   1.389 -0.1838  1.3833 -0.9475
  585MOL0     H78951   3.644   3.911   1.426 -0.6178 -0.7544  0.3151
  585MOL0     H78952   3.533   3.969   1.287 -0.8216  0.6827  0.9543
  585MOL0     H78953   3.603   3.688   1.380 -1.8817 -0.1091 -1.1965
  585MOL0     H78954   3.500   3.730   1.237 -0.7506  2.5998 -0.3496
  585MOL0     H78955   2.898   4.486   1.759 -0.1706 -2.7812 -1.4523
  585MOL0     H78956   2.721   4.644   1.841  0.2205  0.9860  1.4757
  585MOL0     H78957   2.420   4.829   1.709  2.1067 -0.1045  0.4301
  585MOL0     H78958   2.371   4.754   1.488 -0.6733  1.4806  1.0609
  585MOL0     H78959   1.531   3.517   0.078 -0.4612  0.3193 -0.1944
  585MOL0     H78960   1.317   3.381   0.112  0.3744  0.6210 -0.8888
  585MOL0     H78961   0.966   3.335   0.329  2.5147 -0.5674 -0.1581
  585MOL0     H78962   0.754   3.241   0.269 -0.5531  0.4052  0.3915
  585MOL0     H78963   0.562   2.827   0.208  1.5462 -0.9595  1.0088
  585MOL0     H78964   0.710   2.795   0.249 -0.5192 -0.9419 -2.1129
  585MOL0     H78965   0.658   2.818  -0.001  0.6055  0.5967  0.5584
  585MOL0     H78966   0.783   2.928   0.051  0.8805 -3.0998  1.4115
  585MOL0     H78967   0.570   3.101   0.092  1.8505 -0.7228  1.3793
  585MOL0     H78968   0.493   2.974  -0.008 -1.3374  1.6691  3.6221
  585MOL0     H78969   0.747   3.108  -0.098 -0.5704 -1.3249  2.2919
  585MOL0     H78970   0.631   3.021  -0.203  1.2094 -2.7977  1.7911
  585MOL0     H78971   0.462   3.423  -0.147 -0.1118 -0.0114 -2.8467
  585MOL0     H78972   0.901   2.843   0.333  0.8087  0.3840 -0.5149
  585MOL0     H78973   1.240   2.900   0.273  1.0376  0.1628  1.1391
  585MOL0     H78974   1.227   2.912   0.441  0.6568  1.1400 -0.9158
  585MOL0     H78975   1.131   2.787   0.343  0.7088 -0.5590 -0.5421
  586MOL0     O78976   9.736   9.603  10.172 -0.0377  0.3220  0.1353
  586MOL0     C78977   9.749   9.649  10.286 -0.6916  0.0254  0.0809
  586MOL0     O78978   9.686   9.606  10.401 -0.7720 -0.8398 -0.0327
  586MOL0     C78979   9.579   9.519  10.378 -0.5649  0.4442 -0.4789
  586MOL0     C78980   9.471   9.551  10.292  0.8995 -0.8229 -0.4297
  586MOL0     C78981   9.369   9.459  10.266 -0.4415  1.0630  0.0342
  586MOL0     C78982   9.371   9.336  10.348  0.9257 -0.3250 -1.0273
  586MOL0     O78983   9.271   9.251  10.325  0.6132 -0.3477  0.2134
  586MOL0     C78984   9.196   9.223  10.443  0.5340 -0.3284  1.4177
  586MOL0     C78985   9.136   9.080  10.445  0.2755 -1.3172  0.2757
  586MOL0     C78986   9.238   8.978  10.498 -0.9882  0.1506 -0.1925
  586MOL0     C78987   9.319   8.931  10.374 -0.8432  0.3076  0.4937
  586MOL0     C78988   9.446   8.848  10.407 -0.9318 -0.0678 -0.0483
  586MOL0     C78989   9.519   8.839  10.285 -0.1968  0.4130 -0.3804
  586MOL0     C78990   9.657   8.777  10.310  0.1315  0.6884 -0.1216
  586MOL0     C78991   9.672   8.658  10.395 -0.8465 -0.1988 -0.0733
  586MOL0     N78992   9.800   8.592  10.362  0.0502 -0.0068 -0.1571
  586MOL0     C78993   9.915   8.651  10.316 -0.2718  0.9001 -0.1932
  586MOL0     C78994   9.995   8.545  10.299  0.2126  0.0374  0.3451
  586MOL0     C78995  10.137   8.531  10.238  0.4030 -0.2368  0.3624
  586MOL0     C78996  10.210   8.677  10.239 -0.5885  1.2655  0.5673
  586MOL0     C78997  10.360   8.668  10.229  0.7956 -0.5520 -0.1844
  586MOL0     C78998  10.426   8.802  10.231  0.1890 -0.4189 -0.8634
  586MOL0     O78999  10.441   8.855  10.362  0.3060 -0.1357 -0.7483
  586MOL0     C79000  10.545   8.939  10.376 -0.7105  0.2462 -0.7167
  586MOL0     C79001  10.508   9.059  10.440  0.3248  0.5807 -0.6373
  586MOL0     C79002  10.598   9.165  10.430  0.2401 -0.2792 -0.1813
  586MOL0     C79003  10.729   9.152  10.384  0.0261 -0.3635 -0.7393
  586MOL0     C79004  10.816   9.277  10.387 -0.2294  0.6716  0.5912
  586MOL0     O79005  10.949   9.249  10.389 -0.8790 -0.1516  0.5487
  586MOL0     C79006  11.031   9.355  10.352 -0.4025 -0.6123 -0.4267
  586MOL0     C79007  11.126   9.399  10.445 -0.4385 -0.1192  0.5552
  586MOL0     C79008  11.206   9.507  10.420  0.4350 -0.1265  0.0893
  586MOL0     C79009  11.199   9.573  10.289  0.0381  0.4739  1.1669
  586MOL0     O79010  11.279   9.672  10.234 -0.4422 -0.1331  0.2533
  586MOL0     C79011  11.291   9.788  10.309  0.7556  0.6589 -0.3511
  586MOL0     C79012  11.417   9.793  10.377  0.1842  0.0760 -0.1880
  586MOL0     C79013  11.422   9.936  10.447 -0.0539  0.3528 -0.3309
  586MOL0     C79014  11.548   9.955  10.542  0.0476 -0.3956  0.6231
  586MOL0     C79015  11.535  10.087  10.625  0.5873 -0.3000  0.2635
  586MOL0     C79016  11.442  10.060  10.745 -0.3501  1.1090  0.1775
  586MOL0     C79017  11.456  10.178  10.843  0.2994 -0.5032 -0.1016
  586MOL0     C79018  11.340  10.186  10.947  0.1368 -0.4035 -0.3838
  586MOL0    Cl79019  11.181  10.197  10.866 -0.3972  0.0182  0.0160
  586MOL0     C79020  11.102   9.527  10.197  0.2023 -0.1457  0.2219
  586MOL0     C79021  11.019   9.419  10.228 -0.0758  0.1467 -0.2561
  586MOL0     O79022  10.763   9.388  10.377  0.3070  0.4964  0.0422
  586MOL0     C79023  10.760   9.031  10.324 -0.7916  0.3628  0.9386
  586MOL0     C79024  10.670   8.926  10.325  0.4976  0.0989 -0.0059
  586MOL0     N79025   9.935   8.430  10.350 -0.3713 -0.8992 -0.1233
  586MOL0     N79026   9.811   8.462  10.387 -0.7833  0.3656  0.1092
  586MOL0     C79027   9.473   9.305  10.436  0.1928 -1.0065 -0.7688
  586MOL0     C79028   9.575   9.400  10.447  0.4063  0.0083 -0.5337
  586MOL0     C79029   9.838   9.765  10.299 -0.5827  0.2370 -0.4039
  586MOL0     C79030   9.859   9.838  10.177 -0.9172  0.5012  0.4713
  586MOL0     C79031   9.933   9.949  10.164  0.1337 -0.5758 -0.0489
  586MOL0     C79032   9.990   9.997  10.277  0.7796 -0.2949 -0.5079
  586MOL0     O79033  10.067  10.117  10.270  0.0271  0.9149  0.0824
  586MOL0     C79034  10.082  10.188  10.144  0.8532  0.4236  0.1354
  586MOL0     C79035  10.175  10.311  10.143  0.0846  0.4581  0.0172
  586MOL0     C79036  10.143  10.416  10.249  0.3609 -0.4667 -0.6884
  586MOL0     C79037  10.255  10.521  10.262 -0.9395  0.0204  1.0781
  586MOL0     C79038  10.302  10.587  10.135 -0.3593  0.1940  0.0895
  586MOL0     C79039  10.331  10.651  10.038 -0.3194 -1.1089 -0.2709
  586MOL0     C79040   9.989   9.924  10.396 -0.4964  0.6583 -0.0686
  586MOL0     C79041   9.915   9.804  10.414  0.4022 -0.1181  0.3331
  586MOL0     C79042   9.933   9.728  10.550 -0.5916 -0.0641 -0.4878
  586MOL0     H79043   9.464   9.636  10.224  0.2658 -1.1815 -0.8224
  586MOL0     H79044   9.291   9.464  10.191 -0.5980  0.2078  0.1270
  586MOL0     H79045   9.260   9.206  10.530  0.0608 -4.5761  1.1289
  586MOL0     H79046   9.117   9.297  10.459  1.6128  1.4911 -1.0151
  586MOL0     H79047   9.101   9.039  10.350  2.5708 -2.2017 -0.2434
  586MOL0     H79048   9.065   9.092  10.528 -0.4435  0.2956 -0.5249
  586MOL0     H79049   9.176   8.893  10.529 -2.1315  0.5648 -1.2668
  586MOL0     H79050   9.296   9.018  10.581 -0.9780  2.4056 -1.2002
  586MOL0     H79051   9.255   8.867  10.311  1.0046 -2.6686  1.4246
  586MOL0     H79052   9.366   9.009  10.314  1.2662 -1.7054 -0.6410
  586MOL0     H79053   9.502   8.917  10.471 -0.0612  0.4113 -1.2907
  586MOL0     H79054   9.410   8.753  10.447  3.1611 -1.1995  1.4174
  586MOL0     H79055   9.465   8.771  10.218 -2.0341  1.6462 -0.2165
  586MOL0     H79056   9.540   8.927  10.224 -0.2438 -0.3845 -1.5859
  586MOL0     H79057   9.724   8.858  10.342  0.0123  1.5565 -1.9126
  586MOL0     H79058   9.690   8.762  10.207 -0.7654  1.3764 -0.5261
  586MOL0     H79059   9.656   8.696  10.496  3.2658  2.7735 -0.2603
  586MOL0     H79060   9.591   8.591  10.365 -2.8477  3.6659 -4.5682
  586MOL0     H79061   9.943   8.754  10.299  1.5527  0.2385 -1.4732
  586MOL0     H79062  10.189   8.447  10.285  1.0549 -1.4177 -2.3107
  586MOL0     H79063  10.127   8.488  10.138  0.1923  2.7229 -1.0147
  586MOL0     H79064  10.182   8.738  10.153  2.0038 -1.7188 -2.6417
  586MOL0     H79065  10.185   8.730  10.332  1.0700  3.4068 -0.1206
  586MOL0     H79066  10.396   8.611  10.143  1.8499 -1.5488  0.9040
  586MOL0     H79067  10.386   8.622  10.324  1.4977  0.8620  0.3368
  586MOL0     H79068  10.379   8.878  10.167 -1.2153 -0.1894  0.4025
  586MOL0     H79069  10.518   8.785  10.174 -1.0067 -1.6200 -2.5515
  586MOL0     H79070  10.407   9.085  10.469  0.4374 -0.1705  0.4925
  586MOL0     H79071  10.557   9.260  10.462 -2.3700 -0.4091 -2.6615
  586MOL0     H79072  11.132   9.345  10.539 -1.6020 -0.6809  0.3218
  586MOL0     H79073  11.270   9.544  10.500 -0.1927 -1.6283  1.3465
  586MOL0     H79074  11.280   9.882  10.255  0.7000  0.1216 -1.2907
  586MOL0     H79075  11.208   9.789  10.381  1.0597 -1.3888  0.0892
  586MOL0     H79076  11.447   9.719  10.452  0.8407  0.0944 -0.4285
  586MOL0     H79077  11.502   9.781  10.309  1.2617  2.1506  0.6836
  586MOL0     H79078  11.416  10.024  10.382 -3.1876  2.1278  2.1059
  586MOL0     H79079  11.328   9.945  10.501 -0.6280  0.4781 -1.3324
  586MOL0     H79080  11.647   9.970  10.498  0.0372  0.9693  1.0015
  586MOL0     H79081  11.544   9.877  10.619 -0.6723 -1.6897 -0.6673
  586MOL0     H79082  11.490  10.163  10.560 -3.5912 -0.1816  2.9034
  586MOL0     H79083  11.629  10.129  10.660 -0.1268  1.1315  0.5725
  586MOL0     H79084  11.338  10.041  10.718  0.1666 -1.0061 -0.4573
  586MOL0     H79085  11.469   9.965  10.792 -0.7766  0.3488 -1.0824
  586MOL0     H79086  11.463  10.271  10.786 -2.5081 -0.1316  0.0022
  586MOL0     H79087  11.549  10.151  10.894 -0.3734  0.9832  2.0457
  586MOL0     H79088  11.349  10.099  11.012  0.0529  0.1220  0.3456
  586MOL0     H79089  11.356  10.280  11.002 -3.1006  0.2987 -0.4635
  586MOL0     H79090  11.089   9.564  10.096 -0.3396  1.9784  1.0306
  586MOL0     H79091  10.935   9.401  10.162  0.8214  0.4047 -1.4923
  586MOL0     H79092  10.846   9.009  10.262 -0.9927  1.0380  0.4193
  586MOL0     H79093  10.700   8.836  10.273  2.8216 -0.3993  1.9732
  586MOL0     H79094   9.468   9.212  10.491  1.4056 -0.0013  1.1318
  586MOL0     H79095   9.650   9.379  10.522 -1.5486  1.7419  2.1354
  586MOL0     H79096   9.802   9.799  10.093  1.4048 -0.4595 -0.7380
  586MOL0     H79097   9.951   9.997  10.068 -1.5614  0.1096 -0.0659
  586MOL0     H79098   9.985  10.207  10.097 -0.4181 -0.5282  2.2488
  586MOL0     H79099  10.134  10.114  10.083  0.2302 -1.2592  1.5565
  586MOL0     H79100  10.173  10.360  10.045 -2.5409  0.2161 -0.1254
  586MOL0     H79101  10.276  10.277  10.167 -0.2045 -0.1681  0.3495
  586MOL0     H79102  10.132  10.367  10.346  0.0585  1.8718  0.5336
  586MOL0     H79103  10.048  10.465  10.225  1.3719  1.0983 -1.6782
  586MOL0     H79104  10.229  10.593  10.339  2.9516  2.0697  0.7433
  586MOL0     H79105  10.334  10.467  10.315 -2.9852 -1.6334  2.5662
  586MOL0     H79106  10.351  10.715   9.955 -2.1442 -2.8719 -2.1822
  586MOL0     H79107  10.033   9.970  10.484  2.8557 -0.3990 -1.0248
  586MOL0     H79108  10.041   9.728  10.571 -0.4501  0.5435 -1.1816
  586MOL0     H79109   9.891   9.785  10.633 -0.8767  1.1560 -1.4536
  586MOL0     H79110   9.883   9.630  10.549 -2.2952  0.7482 -2.8637
  587MOL0     O79111   9.582   4.013   7.396 -0.7890  0.0001  0.2464
  587MOL0     C79112   9.482   4.034   7.323 -0.3893  0.1652 -0.7176
  587MOL0     O79113   9.462   3.968   7.202  0.3479 -0.9003 -0.5308
  587MOL0     C79114   9.570   3.917   7.143  0.1805  0.8499  0.2518
  587MOL0     C79115   9.612   3.973   7.026  0.6541  0.5414 -0.7371
  587MOL0     C79116   9.722   3.909   6.960  0.5108  0.0852 -0.5593
  587MOL0     C79117   9.783   3.793   7.005  0.2952  0.2515  0.1636
  587MOL0     O79118   9.890   3.734   6.934  1.1228  0.4434  1.1790
  587MOL0     C79119   9.943   3.790   6.809  0.5113  0.1127 -0.2299
  587MOL0     C79120   9.973   3.655   6.737  0.3043  0.6075  0.2849
  587MOL0     C79121  10.121   3.614   6.752  0.0656  0.7237 -1.2394
  587MOL0     C79122  10.146   3.482   6.675 -0.7110  0.7382  0.8680
  587MOL0     C79123  10.136   3.344   6.740 -0.3241  0.0141  0.9304
  587MOL0     C79124  10.160   3.231   6.639 -0.6411 -0.2211  0.9427
  587MOL0     C79125  10.033   3.192   6.550 -1.7992 -0.6402  0.2371
  587MOL0     C79126  10.051   3.171   6.405 -0.0399  0.0286  0.2887
  587MOL0     N79127  10.044   3.293   6.322  0.6040 -0.5198 -0.9588
  587MOL0     C79128   9.933   3.355   6.249  0.8268  0.3710  0.3593
  587MOL0     C79129   9.983   3.473   6.229  0.6920  0.0527  0.4619
  587MOL0     C79130   9.934   3.595   6.163  0.1228 -0.7544 -0.1231
  587MOL0     C79131   9.887   3.702   6.274 -0.4196 -0.4832 -0.4443
  587MOL0     C79132   9.747   3.672   6.332 -1.2831 -0.3520 -1.0694
  587MOL0     C79133   9.713   3.755   6.453  0.1125  0.4018 -0.1305
  587MOL0     O79134   9.642   3.884   6.415 -0.0308 -0.5328  0.5590
  587MOL0     C79135   9.599   3.969   6.511 -0.1274 -0.0018  0.4219
  587MOL0     C79136   9.637   4.103   6.504  0.3185  0.2479 -0.3937
  587MOL0     C79137   9.607   4.197   6.606 -0.0864  0.3302  0.0765
  587MOL0     C79138   9.513   4.158   6.710  0.9263  1.0135  0.2485
  587MOL0     C79139   9.454   4.264   6.797 -0.4148  1.2604 -0.4216
  587MOL0     O79140   9.499   4.394   6.775 -0.0795  0.3503 -1.6385
  587MOL0     C79141   9.446   4.504   6.835 -0.5302  0.3525 -0.7182
  587MOL0     C79142   9.537   4.615   6.861  0.8874  1.0286  0.0270
  587MOL0     C79143   9.479   4.717   6.935 -1.0848 -0.4567  0.5263
  587MOL0     C79144   9.354   4.744   6.972  0.6293  0.6307  0.4770
  587MOL0     O79145   9.323   4.858   7.036 -0.1319  0.2459 -0.4991
  587MOL0     C79146   9.232   4.833   7.152 -0.9420  0.1687 -0.7009
  587MOL0     C79147   9.214   4.962   7.229  0.0656 -1.2404  0.4809
  587MOL0     C79148   9.336   5.009   7.302 -0.6779  0.2838  0.6506
  587MOL0     C79149   9.322   5.156   7.325 -0.1152  0.1409 -0.8695
  587MOL0     C79150   9.434   5.218   7.398 -0.1594 -0.5239  0.5686
  587MOL0     C79151   9.556   5.222   7.321  0.1504  0.4944 -0.3505
  587MOL0     C79152   9.652   5.331   7.363 -0.4631 -0.0185  0.7526
  587MOL0     C79153   9.765   5.332   7.255  0.2185 -0.0938  0.1016
  587MOL0    Cl79154   9.898   5.445   7.305  0.1687 -0.3673  0.1635
  587MOL0     C79155   9.262   4.647   6.918 -0.3364  0.2264 -0.8073
  587MOL0     C79156   9.310   4.523   6.867 -0.2315 -0.4220  0.1246
  587MOL0     O79157   9.377   4.229   6.884 -0.7765  0.0823  0.3391
  587MOL0     C79158   9.475   4.019   6.710  0.3642  0.7303  0.2398
  587MOL0     C79159   9.507   3.930   6.609  0.0218  0.1721 -0.0288
  587MOL0     N79160  10.115   3.484   6.271 -0.4193  0.6646 -0.7524
  587MOL0     N79161  10.152   3.377   6.321 -0.8334  0.0983  0.1321
  587MOL0     C79162   9.741   3.741   7.124 -0.4028  0.1929  1.2091
  587MOL0     C79163   9.638   3.805   7.193  0.0237  0.1023 -0.5334
  587MOL0     C79164   9.381   4.137   7.367  0.5721 -0.0719 -0.7490
  587MOL0     C79165   9.350   4.232   7.278 -0.2726 -0.4704 -0.3006
  587MOL0     C79166   9.248   4.325   7.300  0.3499  0.4358 -0.3188
  587MOL0     C79167   9.176   4.324   7.418 -0.0665 -1.1182 -0.3889
  587MOL0     O79168   9.079   4.427   7.437  0.0934  0.2665 -0.0451
  587MOL0     C79169   9.076   4.488   7.573  0.5863 -0.2665 -0.0989
  587MOL0     C79170   9.203   4.561   7.607 -0.5987 -0.5007 -0.2982
  587MOL0     C79171   9.246   4.665   7.501  0.9970  0.1482 -0.7948
  587MOL0     C79172   9.391   4.667   7.484 -0.2354  0.0604  0.0770
  587MOL0     C79173   9.461   4.708   7.609  0.0105  0.1773  0.3799
  587MOL0     C79174   9.519   4.751   7.702 -0.4528  0.7642 -0.0892
  587MOL0     C79175   9.210   4.235   7.514 -0.2706 -0.9693  0.9537
  587MOL0     C79176   9.301   4.130   7.480 -0.1210 -0.0098 -0.8974
  587MOL0     C79177   9.317   4.021   7.591 -0.4835  0.7429 -0.2689
  587MOL0     H79178   9.562   4.062   6.988 -0.7550  0.7020  1.3036
  587MOL0     H79179   9.744   3.943   6.860  1.3097 -2.7575 -1.4393
  587MOL0     H79180   9.872   3.842   6.745  0.2139 -0.1404 -0.1073
  587MOL0     H79181  10.034   3.848   6.827  0.7674 -0.4557  0.3667
  587MOL0     H79182   9.954   3.671   6.630 -2.3679 -0.2633  0.5656
  587MOL0     H79183   9.908   3.575   6.774  1.1013 -0.5768 -0.7496
  587MOL0     H79184  10.142   3.592   6.857 -2.0744 -0.8618 -1.0646
  587MOL0     H79185  10.173   3.702   6.714 -4.7427  5.1842  1.2282
  587MOL0     H79186  10.076   3.479   6.590 -2.1237 -1.7239  2.0270
  587MOL0     H79187  10.246   3.494   6.632  0.3578  1.9275  3.4793
  587MOL0     H79188  10.218   3.348   6.813  0.6493 -0.5094 -0.0953
  587MOL0     H79189  10.046   3.335   6.801 -0.2754 -3.0531  0.7249
  587MOL0     H79190  10.244   3.252   6.572 -2.9867 -1.3375 -2.6342
  587MOL0     H79191  10.184   3.147   6.704 -1.7645 -0.2874  1.2936
  587MOL0     H79192   9.954   3.265   6.570  0.3391  1.3838  1.7556
  587MOL0     H79193  10.000   3.092   6.583 -0.4243 -1.4259 -0.6806
  587MOL0     H79194  10.150   3.125   6.404 -0.3184 -0.5705  0.0438
  587MOL0     H79195   9.974   3.105   6.363 -0.9675  1.5012 -0.4018
  587MOL0     H79196   9.831   3.329   6.225  0.7545 -0.6213  1.6097
  587MOL0     H79197  10.003   3.644   6.093  0.1439 -1.2234 -0.4353
  587MOL0     H79198   9.847   3.573   6.100  0.2101 -0.9076 -0.1903
  587MOL0     H79199   9.960   3.715   6.354 -1.7005 -0.2767  0.7273
  587MOL0     H79200   9.885   3.796   6.218  0.5204 -1.0847 -1.5333
  587MOL0     H79201   9.741   3.565   6.354 -2.8220 -0.0838 -0.0976
  587MOL0     H79202   9.678   3.687   6.248 -1.0822 -2.8131 -1.7594
  587MOL0     H79203   9.797   3.774   6.520 -1.7512  1.7741  1.9528
  587MOL0     H79204   9.646   3.688   6.507  3.4585 -2.2625  0.9897
  587MOL0     H79205   9.704   4.138   6.426 -1.7922  1.9011 -1.5729
  587MOL0     H79206   9.639   4.301   6.609 -1.1871  0.6808  0.2888
  587MOL0     H79207   9.643   4.621   6.840  1.1068  2.0412  1.2955
  587MOL0     H79208   9.549   4.797   6.961 -1.7869  0.4275 -0.2588
  587MOL0     H79209   9.128   4.808   7.129 -1.2907  0.4683  0.4590
  587MOL0     H79210   9.273   4.746   7.204  1.1418  1.1678 -0.5515
  587MOL0     H79211   9.173   5.036   7.159 -0.9032 -0.7271  1.5591
  587MOL0     H79212   9.133   4.958   7.302  1.1690 -1.1676  1.7520
  587MOL0     H79213   9.345   4.956   7.397 -0.9220 -1.6319 -0.3488
  587MOL0     H79214   9.422   4.995   7.236  0.4645 -0.0192  2.1555
  587MOL0     H79215   9.228   5.179   7.378 -0.2609  2.1693 -1.8886
  587MOL0     H79216   9.321   5.193   7.222 -0.6682  1.6634 -0.3516
  587MOL0     H79217   9.455   5.156   7.486 -0.8319  0.8566  1.7322
  587MOL0     H79218   9.426   5.320   7.435  2.0838  0.3478 -1.1444
  587MOL0     H79219   9.593   5.119   7.312 -0.8363  0.1221 -0.2745
  587MOL0     H79220   9.523   5.247   7.220 -4.9155 -1.4392  0.5560
  587MOL0     H79221   9.684   5.300   7.463 -1.8903 -1.4597  0.8182
  587MOL0     H79222   9.599   5.426   7.358 -0.8306 -0.2736 -3.1788
  587MOL0     H79223   9.809   5.233   7.262 -0.3252 -0.3485 -0.0316
  587MOL0     H79224   9.735   5.350   7.151  2.6257  0.2379 -0.6014
  587MOL0     H79225   9.154   4.650   6.929 -0.2544 -1.2109  0.7041
  587MOL0     H79226   9.235   4.449   6.841  0.5053 -1.2903  0.4158
  587MOL0     H79227   9.389   4.007   6.774  0.2990 -0.2453 -0.0145
  587MOL0     H79228   9.464   3.830   6.600  1.4616 -0.3298 -1.9811
  587MOL0     H79229   9.801   3.664   7.174  2.5067  3.2935  2.9332
  587MOL0     H79230   9.614   3.768   7.292  0.9459  0.1537 -0.2841
  587MOL0     H79231   9.400   4.234   7.182  1.9040 -2.1030  0.7178
  587MOL0     H79232   9.237   4.403   7.226 -1.7195  1.3934  0.9171
  587MOL0     H79233   9.064   4.415   7.653 -1.0960  0.9700  0.8553
  587MOL0     H79234   9.002   4.568   7.586 -0.4888 -1.5790  2.5330
  587MOL0     H79235   9.288   4.500   7.635  0.2851  1.7294  2.4090
  587MOL0     H79236   9.194   4.628   7.694  1.0973  1.8414 -1.8114
  587MOL0     H79237   9.220   4.764   7.540  2.1350 -0.0665  0.6134
  587MOL0     H79238   9.189   4.659   7.408  2.9015  1.9589 -2.1847
  587MOL0     H79239   9.432   4.568   7.463 -0.5007 -0.3026  1.2398
  587MOL0     H79240   9.426   4.731   7.402  0.3345  2.1583  1.8375
  587MOL0     H79241   9.576   4.792   7.783 -0.0628  1.6491 -0.8001
  587MOL0     H79242   9.160   4.224   7.610  1.6064 -3.5205  1.7208
  587MOL0     H79243   9.241   3.945   7.572 -1.1499  0.6586  2.4048
  587MOL0     H79244   9.418   3.983   7.576 -0.9994 -0.1492 -1.7226
  587MOL0     H79245   9.298   4.059   7.691 -0.7541 -0.0123 -0.0263
  588MOL0     O79246   5.999   1.602   2.728 -0.8399 -0.5722 -0.3641
  588MOL0     C79247   5.975   1.705   2.798 -0.1276 -0.2907  0.0000
  588MOL0     O79248   5.910   1.821   2.741 -0.3372 -0.4355 -0.4249
  588MOL0     C79249   5.874   1.801   2.607 -0.0666 -0.1120 -0.2642
  588MOL0     C79250   5.948   1.853   2.501 -0.8700  1.0483  0.6632
  588MOL0     C79251   5.899   1.846   2.367  0.2569 -0.1085 -0.2849
  588MOL0     C79252   5.773   1.807   2.349  0.1299  0.1623  0.7693
  588MOL0     O79253   5.725   1.813   2.215  0.2442 -0.4950  0.1629
  588MOL0     C79254   5.747   1.701   2.135  0.1206  0.0200  0.1113
  588MOL0     C79255   5.657   1.734   2.019  0.2718 -0.6141  0.5372
  588MOL0     C79256   5.737   1.780   1.892  0.9153 -0.5304 -0.8094
  588MOL0     C79257   5.811   1.921   1.928 -0.0934 -1.1331 -0.0243
  588MOL0     C79258   5.859   2.006   1.807  0.4805 -0.5023 -0.5156
  588MOL0     C79259   5.944   2.128   1.865 -0.1167  0.6518  0.1679
  588MOL0     C79260   6.088   2.075   1.893 -0.3941  0.1427  0.2426
  588MOL0     C79261   6.177   2.118   1.776  0.3773  0.3030 -0.1975
  588MOL0     N79262   6.212   2.266   1.799  0.3107 -1.2384  0.0210
  588MOL0     C79263   6.162   2.392   1.756 -0.1811  0.3247 -0.9685
  588MOL0     C79264   6.211   2.476   1.850  0.2922 -0.6839 -0.3870
  588MOL0     C79265   6.162   2.619   1.872 -0.4763  0.2296 -0.9714
  588MOL0     C79266   6.043   2.625   1.969  0.2206 -0.3548 -0.0628
  588MOL0     C79267   5.916   2.560   1.903  0.0762 -0.1808  0.3837
  588MOL0     C79268   5.789   2.612   1.966  0.8142  0.5900  0.0443
  588MOL0     O79269   5.729   2.701   1.864  0.3980  0.3823 -0.5626
  588MOL0     C79270   5.628   2.773   1.911  0.3078  0.5942 -0.1920
  588MOL0     C79271   5.543   2.815   1.814 -0.2940 -0.0981  0.0368
  588MOL0     C79272   5.452   2.920   1.841  0.0140  0.4696  0.6871
  588MOL0     C79273   5.427   2.969   1.971  0.3676  0.4324 -0.9652
  588MOL0     C79274   5.345   3.096   1.983 -0.1830 -0.5310  0.6289
  588MOL0     O79275   5.411   3.205   2.045  0.5818  0.3169 -0.2158
  588MOL0     C79276   5.350   3.324   2.018  0.2418  0.2127  0.4830
  588MOL0     C79277   5.275   3.383   2.115  0.5659  0.6678  0.2499
  588MOL0     C79278   5.209   3.506   2.097 -0.6288  0.0502  0.0309
  588MOL0     C79279   5.230   3.581   1.977 -0.3387 -0.2981  0.7963
  588MOL0     O79280   5.182   3.706   1.971 -0.2102  0.6025  0.1023
  588MOL0     C79281   5.247   3.806   1.899 -0.8375  0.0447  1.0947
  588MOL0     C79282   5.395   3.836   1.934 -0.9020 -0.2633 -0.3720
  588MOL0     C79283   5.419   3.859   2.084  0.4594  0.0363 -0.6148
  588MOL0     C79284   5.340   3.984   2.127 -0.2405  0.4490  0.9079
  588MOL0     C79285   5.390   4.039   2.262  0.8447  0.5839  0.5275
  588MOL0     C79286   5.291   4.124   2.332 -0.8849 -0.4062 -0.0054
  588MOL0     C79287   5.206   4.046   2.435 -1.1857 -0.8241  1.3033
  588MOL0     C79288   5.062   4.103   2.424 -0.3927 -0.4475  0.4933
  588MOL0    Cl79289   4.962   4.045   2.567 -0.2212 -0.4709 -0.3063
  588MOL0     C79290   5.298   3.523   1.869 -0.7391 -0.3089 -0.1916
  588MOL0     C79291   5.365   3.398   1.893 -0.2721  0.2272  0.3857
  588MOL0     O79292   5.236   3.104   1.921 -0.4635 -0.1336  0.1865
  588MOL0     C79293   5.510   2.913   2.073 -0.3490 -0.1749 -0.2425
  588MOL0     C79294   5.616   2.825   2.043  0.1622 -0.5726  0.1365
  588MOL0     N79295   6.309   2.419   1.922 -0.1329 -0.6201 -0.2897
  588MOL0     N79296   6.306   2.293   1.899 -0.5288 -0.5695  0.0841
  588MOL0     C79297   5.703   1.752   2.452 -1.3929 -0.1039 -0.8611
  588MOL0     C79298   5.753   1.752   2.592  0.9372  0.5662  0.2668
  588MOL0     C79299   6.025   1.727   2.941  0.2499 -0.3115 -0.5697
  588MOL0     C79300   6.161   1.713   2.969  0.6275  0.9792  0.3697
  588MOL0     C79301   6.209   1.743   3.093  0.4925 -0.7734  0.5482
  588MOL0     C79302   6.132   1.794   3.195  1.1102 -0.0373  0.5610
  588MOL0     O79303   6.175   1.827   3.325  0.2076 -0.1441 -0.2691
  588MOL0     C79304   6.312   1.837   3.351 -0.2138 -0.1921 -0.4307
  588MOL0     C79305   6.318   1.876   3.497 -0.0949 -0.3799  0.3109
  588MOL0     C79306   6.445   1.832   3.571  0.8405  0.0884  0.3000
  588MOL0     C79307   6.408   1.756   3.701 -0.7027  0.4708 -0.7756
  588MOL0     C79308   6.526   1.696   3.769  0.2419  0.5236  0.7590
  588MOL0     C79309   6.606   1.644   3.836 -0.6460 -1.0119  0.5231
  588MOL0     C79310   5.994   1.807   3.166 -0.5121 -0.0700  0.7027
  588MOL0     C79311   5.945   1.791   3.032  0.0797  0.9136 -0.8715
  588MOL0     C79312   5.795   1.818   3.006  0.3734  0.0024 -0.1584
  588MOL0     H79313   6.042   1.904   2.517 -0.8681  0.9478  0.9911
  588MOL0     H79314   5.967   1.886   2.291 -1.2016  0.4558 -1.3389
  588MOL0     H79315   5.842   1.698   2.081  0.4126  0.3745  0.5921
  588MOL0     H79316   5.719   1.606   2.180 -0.2796  0.7543  1.4684
  588MOL0     H79317   5.569   1.795   2.042  0.6776 -0.4516  1.7194
  588MOL0     H79318   5.608   1.642   1.985  2.1479 -0.3946 -3.3573
  588MOL0     H79319   5.664   1.787   1.811 -2.5675 -0.1610  2.1480
  588MOL0     H79320   5.817   1.709   1.869  1.9981 -0.0672  1.2762
  588MOL0     H79321   5.765   1.999   1.990  0.8414 -0.7873  0.2514
  588MOL0     H79322   5.897   1.881   1.983 -0.4896  2.1835  3.3914
  588MOL0     H79323   5.917   1.947   1.735 -1.2683 -2.3633 -0.4907
  588MOL0     H79324   5.779   2.060   1.757  1.2370  2.3920  1.1578
  588MOL0     H79325   5.928   2.209   1.793  0.1196  2.6023  2.1857
  588MOL0     H79326   5.906   2.153   1.964  0.1701 -1.6334  0.9214
  588MOL0     H79327   6.085   1.966   1.899  3.1390  0.0010  3.6167
  588MOL0     H79328   6.132   2.113   1.986 -3.8677  1.2819  1.5728
  588MOL0     H79329   6.270   2.061   1.773  0.8195  1.0660 -1.9388
  588MOL0     H79330   6.120   2.089   1.688  1.6907 -0.2491 -0.8861
  588MOL0     H79331   6.085   2.405   1.681  0.8981  0.9404 -1.9974
  588MOL0     H79332   6.236   2.688   1.914 -0.5636 -0.2719  0.0381
  588MOL0     H79333   6.138   2.664   1.776 -0.1369  1.7735 -0.3744
  588MOL0     H79334   6.063   2.563   2.056 -0.2293 -0.4526 -0.0276
  588MOL0     H79335   6.026   2.719   2.023  2.6276 -0.6656  1.3903
  588MOL0     H79336   5.929   2.452   1.914  0.2323 -0.6973 -3.4665
  588MOL0     H79337   5.902   2.570   1.795 -1.6043 -2.2631  0.3472
  588MOL0     H79338   5.815   2.657   2.063  2.8267 -1.4094  0.5140
  588MOL0     H79339   5.726   2.525   1.986  1.1684 -0.2641 -2.2308
  588MOL0     H79340   5.563   2.792   1.710  0.6135 -1.2295  0.4335
  588MOL0     H79341   5.396   2.974   1.765  1.4905 -1.5765 -2.0185
  588MOL0     H79342   5.261   3.324   2.205 -1.6087  0.8013  0.0591
  588MOL0     H79343   5.147   3.539   2.180  0.1590 -0.6278  0.9114
  588MOL0     H79344   5.249   3.789   1.791  2.6807  2.3707  0.6066
  588MOL0     H79345   5.184   3.892   1.923 -3.9399 -2.0658  1.1596
  588MOL0     H79346   5.464   3.759   1.899  2.2365  1.9547  0.5306
  588MOL0     H79347   5.420   3.922   1.872  0.9622  0.2533  1.0162
  588MOL0     H79348   5.376   3.775   2.140  0.5815  0.1202 -0.3929
  588MOL0     H79349   5.527   3.876   2.095  0.5492 -0.1353 -1.2253
  588MOL0     H79350   5.235   3.957   2.134  0.3551 -2.7148 -0.5726
  588MOL0     H79351   5.342   4.064   2.052 -1.7146  0.1631  0.5378
  588MOL0     H79352   5.466   4.112   2.234 -0.1189  0.3525 -3.1669
  588MOL0     H79353   5.446   3.971   2.327  1.5940  3.9002  3.7043
  588MOL0     H79354   5.346   4.198   2.390 -1.6676 -1.5831  2.3902
  588MOL0     H79355   5.227   4.171   2.257  0.8677 -0.8592 -1.8719
  588MOL0     H79356   5.250   4.066   2.533  2.6293  4.5131 -0.9772
  588MOL0     H79357   5.201   3.939   2.412 -2.8653 -0.9586  2.2075
  588MOL0     H79358   5.055   4.212   2.421  2.1388  0.0396  4.4069
  588MOL0     H79359   5.012   4.058   2.338  1.3743 -1.4601 -0.0520
  588MOL0     H79360   5.312   3.574   1.774 -0.3667 -0.5106 -0.2459
  588MOL0     H79361   5.414   3.351   1.809 -2.9009 -3.6639  0.7647
  588MOL0     H79362   5.503   2.965   2.168  0.9262  0.6183 -0.5498
  588MOL0     H79363   5.693   2.798   2.115  0.1949 -0.7703  0.0300
  588MOL0     H79364   5.618   1.697   2.413 -2.0141  1.7943 -2.3377
  588MOL0     H79365   5.691   1.711   2.670 -1.1818  0.1190 -1.5666
  588MOL0     H79366   6.217   1.676   2.884  1.3475 -1.5142  1.8071
  588MOL0     H79367   6.312   1.716   3.115  0.9823  0.6590  0.1185
  588MOL0     H79368   6.363   1.910   3.288  1.7570 -2.3526 -1.4981
  588MOL0     H79369   6.370   1.745   3.339  0.9289  0.4850 -0.2981
  588MOL0     H79370   6.240   1.815   3.544 -0.6467 -1.9022 -2.4081
  588MOL0     H79371   6.297   1.983   3.509  1.1124 -0.1716  0.7276
  588MOL0     H79372   6.494   1.928   3.592  1.0751  0.9888 -3.4778
  588MOL0     H79373   6.504   1.766   3.507 -0.5339 -0.2497 -0.6757
  588MOL0     H79374   6.352   1.831   3.756 -0.3811  1.8577 -2.2338
  588MOL0     H79375   6.349   1.669   3.671  3.4274 -1.3537 -4.9967
  588MOL0     H79376   6.666   1.607   3.916 -0.5059  0.2962  1.0590
  588MOL0     H79377   5.929   1.849   3.242 -2.7936 -1.8026 -0.1463
  588MOL0     H79378   5.801   1.913   2.952 -0.7019 -0.3528 -0.9486
  588MOL0     H79379   5.757   1.748   2.931  2.7761  0.2043 -1.6713
  588MOL0     H79380   5.737   1.832   3.097 -0.6151  0.8060 -0.8895
  589MOL0     O79381   6.075   8.387  11.398  0.0666  0.1298 -0.3245
  589MOL0     C79382   5.993   8.443  11.335  0.6347 -0.3883  1.0384
  589MOL0     O79383   6.004   8.468  11.207  0.0337 -0.2169  0.3481
  589MOL0     C79384   6.113   8.445  11.142 -0.3323 -0.3724 -0.0366
  589MOL0     C79385   6.171   8.318  11.137 -0.5466  1.3032  0.6018
  589MOL0     C79386   6.280   8.283  11.051  0.2756  0.8399  0.4092
  589MOL0     C79387   6.313   8.389  10.963  0.6245  0.4865  0.1829
  589MOL0     O79388   6.407   8.365  10.865 -0.6756 -0.1294  0.4691
  589MOL0     C79389   6.534   8.303  10.915  0.3739 -0.4359  0.2819
  589MOL0     C79390   6.614   8.250  10.794 -0.3763  0.4092 -0.4058
  589MOL0     C79391   6.648   8.354  10.685  0.0126  0.9434  0.9590
  589MOL0     C79392   6.741   8.287  10.579 -0.9043  0.3885 -0.5714
  589MOL0     C79393   6.887   8.293  10.625  0.3050  0.2570  1.3896
  589MOL0     C79394   6.958   8.244  10.505 -0.2071  1.5310  0.3250
  589MOL0     C79395   7.101   8.219  10.529 -0.6496  0.0108  0.3862
  589MOL0     C79396   7.173   8.206  10.390  0.1967 -0.3004 -0.4767
  589MOL0     N79397   7.317   8.186  10.407  0.1120  0.2093  0.1127
  589MOL0     C79398   7.392   8.078  10.445  0.0019  0.5514 -0.1107
  589MOL0     C79399   7.515   8.099  10.404  0.0101  0.2647  0.3705
  589MOL0     C79400   7.613   7.988  10.411  0.4223  0.1088  0.4160
  589MOL0     C79401   7.671   7.965  10.552  0.1482  0.0853  0.6869
  589MOL0     C79402   7.765   8.084  10.588 -0.1586  0.7072  0.0428
  589MOL0     C79403   7.847   8.055  10.721 -0.4996  0.4789  0.5639
  589MOL0     O79404   7.950   7.965  10.671 -0.5078  0.2104  0.6296
  589MOL0     C79405   8.050   7.905  10.749  0.1319 -0.5377 -0.5301
  589MOL0     C79406   8.147   7.814  10.699  0.0674 -0.3742  0.8760
  589MOL0     C79407   8.240   7.754  10.780  0.1161 -0.1205  0.8472
  589MOL0     C79408   8.248   7.781  10.917  0.3116  0.3426 -0.1424
  589MOL0     C79409   8.350   7.704  11.001  0.5355  0.2575  0.6521
  589MOL0     O79410   8.377   7.762  11.111 -0.2137 -0.0615 -0.2015
  589MOL0     C79411   8.463   7.699  11.200 -0.1580  0.3383  0.1277
  589MOL0     C79412   8.604   7.716  11.178 -0.2784 -0.3310 -0.1844
  589MOL0     C79413   8.694   7.670  11.277  0.7159  0.3571 -0.0357
  589MOL0     C79414   8.648   7.602  11.388  0.3310  1.0908 -0.3769
  589MOL0     O79415   8.726   7.549  11.489 -0.7371  0.1689 -0.2084
  589MOL0     C79416   8.855   7.510  11.461  0.4492 -0.6171  0.0042
  589MOL0     C79417   8.924   7.471  11.584 -0.5595  0.0846 -1.0855
  589MOL0     C79418   8.882   7.329  11.627 -0.2317 -0.5029 -0.8408
  589MOL0     C79419   8.984   7.268  11.730 -0.3065 -0.1442  1.1878
  589MOL0     C79420   8.951   7.120  11.773 -0.3166  0.3131 -0.4536
  589MOL0     C79421   8.864   7.042  11.683 -0.2443 -0.2045  0.2602
  589MOL0     C79422   8.842   6.905  11.754  0.9165  1.3077 -0.9626
  589MOL0     C79423   8.807   6.788  11.658  0.8429  0.3143  0.1584
  589MOL0    Cl79424   8.965   6.734  11.579 -0.1621  0.1677 -0.1698
  589MOL0     C79425   8.510   7.566  11.404 -0.0883 -0.5731  0.5557
  589MOL0     C79426   8.417   7.618  11.306  0.1926 -0.9953  0.0531
  589MOL0     O79427   8.403   7.601  10.955 -0.3397 -0.5528 -0.6898
  589MOL0     C79428   8.163   7.874  10.968  0.2575  0.1080  0.5240
  589MOL0     C79429   8.067   7.932  10.886 -0.1166 -0.0742  0.5909
  589MOL0     N79430   7.524   8.226  10.343  0.6057  0.2476 -0.1381
  589MOL0     N79431   7.408   8.286  10.365 -0.0371  1.1257  0.0179
  589MOL0     C79432   6.257   8.514  10.960  0.1092  0.7722 -0.3396
  589MOL0     C79433   6.154   8.546  11.053  0.1795 -0.2058 -0.3097
  589MOL0     C79434   5.876   8.491  11.421  0.8591  0.1254 -0.3822
  589MOL0     C79435   5.852   8.438  11.551 -1.0211  0.1256 -0.0938
  589MOL0     C79436   5.742   8.485  11.625 -0.3015 -0.0459  0.4372
  589MOL0     C79437   5.655   8.584  11.582  0.4299 -0.1530 -0.2126
  589MOL0     O79438   5.561   8.630  11.682  1.0735  0.0750  0.3429
  589MOL0     C79439   5.481   8.743  11.637 -0.4462 -0.2192  0.2463
  589MOL0     C79440   5.356   8.736  11.716  0.4569  0.2674 -0.0700
  589MOL0     C79441   5.261   8.841  11.656  0.2236  0.2159 -0.5093
  589MOL0     C79442   5.139   8.865  11.752 -0.0895  0.0862  0.6893
  589MOL0     C79443   5.051   8.748  11.761 -0.8030  0.0733  0.0274
  589MOL0     C79444   5.006   8.636  11.757  1.2609 -0.5536 -0.9770
  589MOL0     C79445   5.682   8.631  11.449 -0.3462 -0.2782  0.5773
  589MOL0     C79446   5.783   8.585  11.369 -0.1960  1.0687  0.3989
  589MOL0     C79447   5.803   8.657  11.231  0.9389  0.2790  0.1818
  589MOL0     H79448   6.143   8.228  11.192 -2.0655 -1.6187 -4.2887
  589MOL0     H79449   6.341   8.196  11.071  3.2276  2.8124  0.7363
  589MOL0     H79450   6.593   8.364  10.985 -0.9226  3.4636 -1.7083
  589MOL0     H79451   6.513   8.212  10.971 -0.0263  0.2822  1.3264
  589MOL0     H79452   6.558   8.169  10.746  1.5533 -0.5829 -1.0915
  589MOL0     H79453   6.702   8.204  10.840 -1.0965  0.7248  1.3818
  589MOL0     H79454   6.694   8.439  10.737 -1.8661  1.6028  1.6246
  589MOL0     H79455   6.552   8.379  10.639 -1.1171  1.3435  3.3878
  589MOL0     H79456   6.709   8.186  10.552  0.1776 -0.5849  1.5415
  589MOL0     H79457   6.733   8.338  10.482  4.5820 -0.7602 -1.9565
  589MOL0     H79458   6.915   8.398  10.638 -0.2473  0.6146 -0.1402
  589MOL0     H79459   6.916   8.233  10.712  3.2267 -0.7088 -0.1172
  589MOL0     H79460   6.909   8.150  10.478 -1.0829  2.2487 -0.6843
  589MOL0     H79461   6.953   8.309  10.417  4.5102 -0.9798 -2.2304
  589MOL0     H79462   7.120   8.136  10.598  2.5003 -0.8239 -1.2693
  589MOL0     H79463   7.137   8.313  10.573 -1.2350  0.9223 -1.0321
  589MOL0     H79464   7.134   8.123  10.330 -3.6670  1.0460 -0.1058
  589MOL0     H79465   7.150   8.293  10.328 -1.9264 -2.1645 -2.4875
  589MOL0     H79466   7.354   7.995  10.505  0.0646  3.2493  4.0448
  589MOL0     H79467   7.564   7.896  10.376 -0.4298  1.5267 -2.3867
  589MOL0     H79468   7.687   8.021  10.338 -2.2051 -1.7268 -3.3786
  589MOL0     H79469   7.598   7.970  10.633 -0.7134  3.7424 -0.1245
  589MOL0     H79470   7.723   7.869  10.540  0.4575  0.1642  1.3439
  589MOL0     H79471   7.707   8.174  10.611 -2.3623 -0.1625 -1.7401
  589MOL0     H79472   7.828   8.107  10.501 -0.2637  0.4577 -0.1019
  589MOL0     H79473   7.790   7.995  10.793  0.0776  1.6249  1.9953
  589MOL0     H79474   7.898   8.138  10.770  1.3195 -0.7096  0.7925
  589MOL0     H79475   8.148   7.800  10.591 -2.0817 -0.1298  0.7794
  589MOL0     H79476   8.303   7.681  10.730  0.6288 -0.0634  1.3975
  589MOL0     H79477   8.624   7.772  11.088 -1.5943  1.4324  0.5521
  589MOL0     H79478   8.792   7.717  11.267  0.6049  0.5695 -0.1406
  589MOL0     H79479   8.862   7.434  11.382 -0.2775 -3.2984  2.3780
  589MOL0     H79480   8.908   7.603  11.438  0.5144 -0.7780 -0.5123
  589MOL0     H79481   9.030   7.488  11.564 -0.3238  0.7243  0.5415
  589MOL0     H79482   8.897   7.554  11.651  1.6968  1.4933 -1.8091
  589MOL0     H79483   8.782   7.334  11.672 -0.3000 -5.8164  0.2637
  589MOL0     H79484   8.872   7.266  11.538 -2.0968 -0.0374 -1.0189
  589MOL0     H79485   8.985   7.340  11.813 -0.4808  0.9832  0.2493
  589MOL0     H79486   9.084   7.277  11.685 -0.8016  1.3522  0.2778
  589MOL0     H79487   8.905   7.113  11.871 -0.1041 -0.4149 -0.4027
  589MOL0     H79488   9.048   7.069  11.782 -0.6030 -0.5636 -1.9495
  589MOL0     H79489   8.768   7.089  11.661 -2.0061 -2.2452  2.8952
  589MOL0     H79490   8.922   7.035  11.591 -1.6484  3.1981 -1.0379
  589MOL0     H79491   8.759   6.926  11.823  1.2277  1.8253 -0.7436
  589MOL0     H79492   8.928   6.868  11.810 -0.6129 -2.6673 -0.8921
  589MOL0     H79493   8.771   6.701  11.713  1.2849  0.7866  1.2225
  589MOL0     H79494   8.731   6.814  11.584 -4.8149 -0.7759  4.8699
  589MOL0     H79495   8.470   7.506  11.485  1.7118 -0.2835  1.7171
  589MOL0     H79496   8.314   7.585  11.298  0.7567 -2.5010 -1.4235
  589MOL0     H79497   8.151   7.900  11.072 -1.4045  1.8812 -0.0682
  589MOL0     H79498   8.005   8.010  10.929 -2.6816  0.7212 -3.8491
  589MOL0     H79499   6.294   8.602  10.908  0.8560 -0.6516 -2.3555
  589MOL0     H79500   6.109   8.644  11.043  1.1987  0.1762 -1.2498
  589MOL0     H79501   5.918   8.368  11.600 -0.0845  1.1758  0.1966
  589MOL0     H79502   5.747   8.444  11.725  0.5617 -0.0646  0.3956
  589MOL0     H79503   5.466   8.733  11.529 -0.0736 -0.6416  0.2305
  589MOL0     H79504   5.536   8.835  11.659  2.4976 -1.9581  0.7013
  589MOL0     H79505   5.381   8.758  11.820 -1.7678  2.0288  0.1716
  589MOL0     H79506   5.314   8.636  11.706 -0.6847  0.4674  2.2135
  589MOL0     H79507   5.222   8.816  11.557  2.6010 -0.5040 -1.3302
  589MOL0     H79508   5.318   8.934  11.659 -1.9413  1.6183  0.1702
  589MOL0     H79509   5.170   8.876  11.856  2.1571  1.3418 -0.0573
  589MOL0     H79510   5.081   8.951  11.716  0.6364 -0.7529 -2.9339
  589MOL0     H79511   4.957   8.543  11.780 -0.7685  0.8354  0.7460
  589MOL0     H79512   5.624   8.707  11.398  0.0367 -0.7461 -0.5783
  589MOL0     H79513   5.905   8.694  11.223  1.4307 -0.2708  3.0350
  589MOL0     H79514   5.790   8.579  11.156  1.0164  0.2151  0.2366
  589MOL0     H79515   5.721   8.728  11.214 -0.2122  0.2695  4.5553
  590MOL0     O79516   6.564   9.203   6.446 -0.2074  0.5034 -0.6183
  590MOL0     C79517   6.496   9.189   6.547 -0.0016 -0.1286 -0.1910
  590MOL0     O79518   6.553   9.158   6.669 -0.2797  0.1030  0.8873
  590MOL0     C79519   6.675   9.102   6.676 -0.5024  0.9595  0.2427
  590MOL0     C79520   6.712   8.979   6.621  1.1393 -0.4787  0.7140
  590MOL0     C79521   6.837   8.923   6.636 -0.4537  0.5360  0.4127
  590MOL0     C79522   6.940   8.990   6.702 -0.4229 -0.2393 -0.4231
  590MOL0     O79523   7.072   8.943   6.731 -0.3001 -0.5129 -0.4251
  590MOL0     C79524   7.085   8.801   6.738 -0.3130 -0.7157  0.3417
  590MOL0     C79525   7.222   8.763   6.799  0.2042 -0.1279  0.0782
  590MOL0     C79526   7.344   8.762   6.688  0.5018 -0.8390 -1.2600
  590MOL0     C79527   7.355   8.868   6.576 -0.3115  1.0236 -0.4002
  590MOL0     C79528   7.499   8.858   6.506 -0.8211 -0.4203  0.6034
  590MOL0     C79529   7.596   8.954   6.566  0.6569  0.1723 -1.1769
  590MOL0     C79530   7.694   9.015   6.471 -0.3005  0.0069 -0.5147
  590MOL0     C79531   7.795   9.094   6.547  1.4991  0.7209 -0.2232
  590MOL0     N79532   7.898   9.150   6.465 -0.1468 -0.8121  0.6360
  590MOL0     C79533   7.992   9.088   6.392 -1.1248  0.4220 -0.3969
  590MOL0     C79534   8.079   9.187   6.356  0.3652 -0.9157 -0.5357
  590MOL0     C79535   8.223   9.173   6.295  0.1969 -0.1288 -0.2182
  590MOL0     C79536   8.276   9.297   6.211 -0.5720  0.5454  0.1420
  590MOL0     C79537   8.360   9.392   6.295 -0.0594  0.5441 -0.2528
  590MOL0     C79538   8.434   9.506   6.229 -0.1677  0.3114 -0.0759
  590MOL0     O79539   8.492   9.451   6.114  0.5113 -0.3784 -0.5428
  590MOL0     C79540   8.524   9.532   6.013 -0.6902  0.4020 -0.8359
  590MOL0     C79541   8.523   9.675   6.016  1.1027 -0.6791 -1.3284
  590MOL0     C79542   8.563   9.748   5.896 -0.5435 -0.0993 -0.7157
  590MOL0     C79543   8.609   9.680   5.780  0.5610  1.0150 -0.0864
  590MOL0     C79544   8.645   9.752   5.651 -0.1408  0.1352 -0.1889
  590MOL0     O79545   8.640   9.878   5.653  0.1960 -0.3214  0.2693
  590MOL0     C79546   8.711   9.948   5.563  0.4188 -0.2529 -0.8616
  590MOL0     C79547   8.853   9.943   5.543  0.5861 -1.4459  0.6072
  590MOL0     C79548   8.913  10.039   5.453  0.4424  0.5608  0.6330
  590MOL0     C79549   8.840  10.122   5.383 -0.8065 -0.5561  0.8587
  590MOL0     O79550   8.916  10.199   5.299  0.4489 -0.4601  0.4330
  590MOL0     C79551   8.848  10.265   5.189  0.2088 -1.3503 -0.7100
  590MOL0     C79552   8.941  10.305   5.072  0.1195 -0.5922 -0.0201
  590MOL0     C79553   8.865  10.380   4.956 -0.1315 -0.1922  0.7305
  590MOL0     C79554   8.853  10.528   4.992  0.6344 -0.4036 -0.0028
  590MOL0     C79555   8.776  10.607   4.879 -1.1562  0.2132 -0.4108
  590MOL0     C79556   8.721  10.731   4.936  0.2235  0.6606  0.2270
  590MOL0     C79557   8.628  10.804   4.846 -0.1285 -0.4520  0.3179
  590MOL0     C79558   8.688  10.933   4.789 -0.9585 -0.0072 -0.1042
  590MOL0    Cl79559   8.793  10.890   4.641  0.1711  0.0078 -0.3953
  590MOL0     C79560   8.697  10.132   5.405 -0.2727  0.5704  0.1720
  590MOL0     C79561   8.639  10.043   5.489 -1.2470  0.3137 -0.2061
  590MOL0     O79562   8.688   9.684   5.559  0.6034 -0.3472  0.3081
  590MOL0     C79563   8.603   9.539   5.784 -0.8010  0.3040  0.3387
  590MOL0     C79564   8.554   9.468   5.895 -1.2621 -0.5148  0.3953
  590MOL0     N79565   8.031   9.305   6.399  0.0811  0.0245 -0.3414
  590MOL0     N79566   7.921   9.284   6.464  0.2817 -0.5228 -0.3248
  590MOL0     C79567   6.915   9.130   6.732  0.0920 -0.1588  1.0906
  590MOL0     C79568   6.783   9.185   6.710  0.8217 -0.7092 -0.9841
  590MOL0     C79569   6.364   9.256   6.552 -0.7398  0.5628  0.7039
  590MOL0     C79570   6.297   9.257   6.678  0.0870 -0.2595 -0.2895
  590MOL0     C79571   6.164   9.292   6.686 -0.2054 -0.2610  0.1475
  590MOL0     C79572   6.085   9.329   6.576  0.7135 -0.2827  0.7628
  590MOL0     O79573   5.947   9.360   6.574 -0.0168  0.6522  0.3617
  590MOL0     C79574   5.853   9.318   6.680 -0.3375  0.3379 -0.5209
  590MOL0     C79575   5.772   9.190   6.639 -0.0379 -0.9470  0.3224
  590MOL0     C79576   5.694   9.211   6.509 -1.1704  0.3978 -0.1453
  590MOL0     C79577   5.600   9.101   6.477  0.0547  0.1235 -0.1927
  590MOL0     C79578   5.673   8.976   6.456 -0.7514 -0.1949 -0.6328
  590MOL0     C79579   5.744   8.876   6.443 -1.1805  0.2481 -0.7680
  590MOL0     C79580   6.155   9.340   6.457 -0.4012 -0.7136  0.3112
  590MOL0     C79581   6.295   9.311   6.435  0.4540 -0.5721 -0.3411
  590MOL0     C79582   6.355   9.320   6.290  0.3845 -0.7715  0.0382
  590MOL0     H79583   6.636   8.920   6.571  0.0036  0.6311  1.0529
  590MOL0     H79584   6.848   8.818   6.612  0.8034  1.2519 -2.4673
  590MOL0     H79585   7.004   8.755   6.795  0.2404 -1.2460  0.7115
  590MOL0     H79586   7.093   8.762   6.637 -0.3085  3.4462 -1.4868
  590MOL0     H79587   7.209   8.661   6.836  0.0181 -0.5711 -1.1453
  590MOL0     H79588   7.230   8.838   6.878 -2.0701 -0.0984  0.3402
  590MOL0     H79589   7.360   8.661   6.647  2.6252 -0.4187 -1.5769
  590MOL0     H79590   7.428   8.781   6.755  2.3211 -0.3501 -3.5407
  590MOL0     H79591   7.277   8.845   6.503 -0.5336  0.5915 -0.0314
  590MOL0     H79592   7.341   8.964   6.625  0.0186 -0.0113  1.8321
  590MOL0     H79593   7.540   8.757   6.504  1.0762  0.3012  0.8091
  590MOL0     H79594   7.481   8.875   6.399  0.7799  1.9490  0.6405
  590MOL0     H79595   7.539   9.037   6.608 -0.2317 -2.0701  2.5721
  590MOL0     H79596   7.651   8.911   6.650 -0.7819  2.4632  1.0920
  590MOL0     H79597   7.641   9.067   6.391 -0.9783  0.1930  0.0404
  590MOL0     H79598   7.760   8.938   6.430  0.7212  0.9611 -0.6983
  590MOL0     H79599   7.749   9.181   6.596  0.5846 -1.0380  2.2098
  590MOL0     H79600   7.833   9.026   6.624 -0.9550 -0.2926  0.1768
  590MOL0     H79601   8.006   8.981   6.376 -0.7309  0.2301  1.0162
  590MOL0     H79602   8.294   9.134   6.369 -1.9242  1.0174  2.5993
  590MOL0     H79603   8.213   9.098   6.217  3.3693 -0.3218 -0.5813
  590MOL0     H79604   8.344   9.245   6.143 -0.4433 -1.8884  1.9839
  590MOL0     H79605   8.184   9.338   6.169 -1.2638  0.9879  1.9787
  590MOL0     H79606   8.439   9.332   6.342 -3.2033 -1.7236  2.6280
  590MOL0     H79607   8.299   9.441   6.370  1.3181  1.1521  0.5061
  590MOL0     H79608   8.504   9.540   6.306 -1.6041  3.3737  0.0196
  590MOL0     H79609   8.363   9.582   6.198  2.9403  1.9105 -4.1652
  590MOL0     H79610   8.483   9.733   6.099 -0.9123 -0.2224 -2.5451
  590MOL0     H79611   8.553   9.855   5.906  0.8424 -0.1461  3.9207
  590MOL0     H79612   8.917   9.876   5.600  0.9121  0.0704  2.0938
  590MOL0     H79613   9.020  10.037   5.436  0.9035 -0.5692  3.1412
  590MOL0     H79614   8.766  10.207   5.144  1.4272 -0.5914 -4.2450
  590MOL0     H79615   8.816  10.363   5.226  3.3868  0.5632 -2.6502
  590MOL0     H79616   9.028  10.363   5.105 -0.2959  0.1263 -0.1815
  590MOL0     H79617   8.976  10.207   5.037  2.8098  0.9469 -2.0699
  590MOL0     H79618   8.917  10.356   4.863 -1.4376 -5.4223  1.0539
  590MOL0     H79619   8.765  10.339   4.939 -0.8036  1.7221 -0.2613
  590MOL0     H79620   8.952  10.570   5.016  0.1693  0.4071  0.5513
  590MOL0     H79621   8.814  10.536   5.093  0.2312  1.5748 -0.2611
  590MOL0     H79622   8.707  10.534   4.837  1.3469 -1.8352 -1.1521
  590MOL0     H79623   8.841  10.629   4.795  1.4294 -3.8499  0.2676
  590MOL0     H79624   8.665  10.706   5.026 -2.6619 -1.7527 -2.0576
  590MOL0     H79625   8.814  10.783   4.963  1.9584 -1.1124 -1.9599
  590MOL0     H79626   8.534  10.819   4.899  0.0537  0.8473  0.3104
  590MOL0     H79627   8.599  10.738   4.763 -0.5399  1.4600 -1.1228
  590MOL0     H79628   8.604  10.994   4.753 -0.8266 -1.1806 -2.5570
  590MOL0     H79629   8.746  10.979   4.870 -0.0737 -0.7347 -0.3182
  590MOL0     H79630   8.634  10.200   5.348 -3.0261 -0.9083  1.2538
  590MOL0     H79631   8.532  10.048   5.506 -0.9747 -0.0866  1.9125
  590MOL0     H79632   8.628   9.471   5.704  0.0693 -0.9389  1.6082
  590MOL0     H79633   8.562   9.360   5.894 -2.0509 -0.6495  2.5324
  590MOL0     H79634   6.995   9.200   6.755  0.1734 -0.1384  0.7402
  590MOL0     H79635   6.775   9.290   6.733 -0.8390 -1.4387  2.3748
  590MOL0     H79636   6.357   9.226   6.762 -0.3085 -1.2349 -0.3604
  590MOL0     H79637   6.106   9.292   6.778 -0.6752 -1.5418 -0.1322
  590MOL0     H79638   5.785   9.403   6.687 -1.4743 -0.6185  0.5421
  590MOL0     H79639   5.893   9.318   6.782 -0.7113  2.1482 -0.3533
  590MOL0     H79640   5.710   9.152   6.721 -1.6633  0.7829 -0.0202
  590MOL0     H79641   5.849   9.116   6.618 -1.1484 -1.6902 -1.3338
  590MOL0     H79642   5.764   9.219   6.425 -1.9336  2.4205 -0.6588
  590MOL0     H79643   5.631   9.301   6.506 -1.7971  0.1943  3.2900
  590MOL0     H79644   5.526   9.097   6.557 -1.3415  0.2460 -1.4436
  590MOL0     H79645   5.549   9.117   6.382 -0.0441 -0.7046 -0.2839
  590MOL0     H79646   5.802   8.787   6.452  3.8098  3.2270  0.6242
  590MOL0     H79647   6.098   9.374   6.371 -1.5870  0.5249  1.5557
  590MOL0     H79648   6.307   9.391   6.222  0.5791 -2.3106 -1.7955
  590MOL0     H79649   6.459   9.351   6.288  0.3187 -0.5679 -0.3188
  590MOL0     H79650   6.343   9.227   6.233  1.2520 -0.4794 -0.6452
  591MOL0     O79651   3.213   0.363   7.000 -0.0222 -0.9842  0.3798
  591MOL0     C79652   3.308   0.417   6.937 -0.4469  0.2525 -0.1094
  591MOL0     O79653   3.292   0.495   6.825 -0.6400  0.7796 -0.6909
  591MOL0     C79654   3.163   0.483   6.774  1.2357 -0.6559 -0.5689
  591MOL0     C79655   3.131   0.390   6.679  0.3032  0.0754 -0.1851
  591MOL0     C79656   3.013   0.388   6.609 -0.1686  0.0159 -0.8776
  591MOL0     C79657   2.915   0.479   6.637  0.7385 -0.7636 -0.1346
  591MOL0     O79658   2.799   0.502   6.570  0.4753  0.4055  0.1262
  591MOL0     C79659   2.764   0.425   6.450  0.5360 -0.2518  0.5278
  591MOL0     C79660   2.754   0.267   6.461 -0.2379 -1.1490 -0.2972
  591MOL0     C79661   2.658   0.213   6.351  0.7907 -0.0443 -0.0064
  591MOL0     C79662   2.747   0.165   6.228 -0.0396  0.2452  0.8195
  591MOL0     C79663   2.656   0.128   6.103 -0.1294 -0.2371  0.3888
  591MOL0     C79664   2.684   0.191   5.966  0.3316  0.2776  0.9283
  591MOL0     C79665   2.591   0.137   5.862  0.6132 -0.4262  0.2333
  591MOL0     C79666   2.619  -0.007   5.814  0.0615  0.9274 -0.4602
  591MOL0     N79667   2.509  -0.063   5.725  0.2594 -0.3274  0.0366
  591MOL0     C79668   2.446  -0.190   5.735 -0.2670  0.6623  0.3720
  591MOL0     C79669   2.351  -0.183   5.638 -0.6922 -0.3118  0.5783
  591MOL0     C79670   2.253  -0.290   5.596 -0.6157 -0.0949 -0.4972
  591MOL0     C79671   2.258  -0.327   5.442 -0.2532 -0.2091 -0.6891
  591MOL0     C79672   2.177  -0.466   5.430 -1.2550 -1.1259  0.0975
  591MOL0     C79673   2.266  -0.594   5.441 -0.1135  0.4239 -0.6234
  591MOL0     O79674   2.243  -0.672   5.564  0.1290 -1.1634 -0.3653
  591MOL0     C79675   2.346  -0.743   5.619 -0.8929  0.8377 -0.8907
  591MOL0     C79676   2.320  -0.788   5.745  0.5120  0.8429  0.2836
  591MOL0     C79677   2.411  -0.872   5.808 -0.4628  0.2365  0.0558
  591MOL0     C79678   2.548  -0.892   5.761 -0.4507  0.4897 -0.1157
  591MOL0     C79679   2.661  -0.970   5.833  0.7632 -1.3271 -0.8039
  591MOL0     O79680   2.788  -0.992   5.773  0.7321 -0.1012 -0.1850
  591MOL0     C79681   2.882  -1.053   5.843  0.0035  1.0217  1.1651
  591MOL0     C79682   2.861  -1.194   5.863  1.2576  0.3003  0.7062
  591MOL0     C79683   2.956  -1.256   5.948  0.1911 -0.1764 -0.6828
  591MOL0     C79684   3.080  -1.200   5.986  0.2803  0.3923 -0.6205
  591MOL0     O79685   3.189  -1.262   6.050 -0.5175 -0.1014  0.2406
  591MOL0     C79686   3.153  -1.382   6.112 -0.0468  0.7378 -0.0351
  591MOL0     C79687   3.277  -1.429   6.194  0.7309  0.4623 -0.1008
  591MOL0     C79688   3.396  -1.483   6.111  0.4006  0.2803  0.2842
  591MOL0     C79689   3.436  -1.398   5.990 -0.9658 -0.3031  0.0512
  591MOL0     C79690   3.559  -1.475   5.934 -0.5985 -0.1882 -0.0962
  591MOL0     C79691   3.616  -1.418   5.802 -0.2833  1.0073  0.0594
  591MOL0     C79692   3.713  -1.522   5.752 -0.2993 -0.6000 -0.3674
  591MOL0     C79693   3.818  -1.446   5.660 -0.7154 -0.4350 -0.4768
  591MOL0    Cl79694   3.944  -1.559   5.590  0.4706 -0.3282 -0.0054
  591MOL0     C79695   3.101  -1.058   5.956 -0.2230  0.3748 -0.3158
  591MOL0     C79696   2.998  -0.988   5.896 -0.5799 -0.5840 -0.1043
  591MOL0     O79697   2.635  -1.004   5.944 -0.1745 -0.4757 -0.5274
  591MOL0     C79698   2.566  -0.842   5.633 -0.8783  0.1189  0.0542
  591MOL0     C79699   2.466  -0.781   5.556 -0.0064 -1.3124 -0.1377
  591MOL0     N79700   2.364  -0.057   5.574  0.7231 -0.1156 -0.2925
  591MOL0     N79701   2.455   0.012   5.626 -0.3895  1.2799 -0.4285
  591MOL0     C79702   2.939   0.579   6.740  0.7849  0.5051  0.7763
  591MOL0     C79703   3.060   0.580   6.811 -0.5569  1.0914 -0.5029
  591MOL0     C79704   3.445   0.397   6.979 -0.6748  0.1371 -1.3702
  591MOL0     C79705   3.477   0.373   7.118 -0.6544  0.0003 -0.0155
  591MOL0     C79706   3.609   0.383   7.166 -0.2769 -1.2117  0.0161
  591MOL0     C79707   3.716   0.398   7.079  0.1368 -0.4998  0.0856
  591MOL0     O79708   3.832   0.416   7.142 -0.4582  0.1154 -0.8915
  591MOL0     C79709   3.946   0.427   7.060 -0.1049 -1.1135 -0.1586
  591MOL0     C79710   4.075   0.458   7.146 -0.4016  1.5005  0.2385
  591MOL0     C79711   4.186   0.531   7.075 -0.1644  0.2092  0.8624
  591MOL0     C79712   4.203   0.479   6.927 -0.0356 -0.0932  0.4631
  591MOL0     C79713   4.297   0.558   6.847  0.1701 -0.8543  0.7881
  591MOL0     C79714   4.377   0.606   6.763  0.2455 -0.4178 -0.2558
  591MOL0     C79715   3.690   0.424   6.947  0.1378  0.3163 -0.0979
  591MOL0     C79716   3.563   0.417   6.894 -0.2008 -0.3831 -0.2748
  591MOL0     C79717   3.536   0.425   6.739  0.2552  0.8038 -0.4330
  591MOL0     H79718   3.207   0.323   6.639  1.0297  1.1300 -0.6270
  591MOL0     H79719   2.999   0.333   6.517 -0.3879 -1.7939  0.2058
  591MOL0     H79720   2.665   0.465   6.425  1.9144  2.6315 -0.8632
  591MOL0     H79721   2.839   0.449   6.374  1.1858 -1.0561  0.9108
  591MOL0     H79722   2.700   0.258   6.556 -1.3685  2.9801 -0.3384
  591MOL0     H79723   2.848   0.211   6.465 -0.8730 -2.1872  1.6538
  591MOL0     H79724   2.579   0.286   6.330 -0.5693 -1.4382  0.1188
  591MOL0     H79725   2.609   0.122   6.386 -1.3129  0.9004 -0.3632
  591MOL0     H79726   2.811   0.249   6.198 -1.9349  0.5363 -3.0989
  591MOL0     H79727   2.811   0.082   6.258 -1.1045  0.4002  3.9010
  591MOL0     H79728   2.680   0.021   6.101 -0.9571 -0.4261 -1.4545
  591MOL0     H79729   2.553   0.129   6.140 -0.5706  2.8713 -0.6011
  591MOL0     H79730   2.666   0.299   5.956  3.7262  0.8897 -0.1509
  591MOL0     H79731   2.793   0.180   5.958  0.7113 -2.0445  5.6148
  591MOL0     H79732   2.592   0.210   5.780 -0.8463  0.6205  1.0801
  591MOL0     H79733   2.493   0.141   5.911  0.0992  0.1073 -0.7963
  591MOL0     H79734   2.712  -0.020   5.758  0.4132  2.6927 -0.3263
  591MOL0     H79735   2.628  -0.075   5.899  0.8600 -1.9740 -2.6763
  591MOL0     H79736   2.456  -0.269   5.809 -2.6744 -1.1868 -1.1188
  591MOL0     H79737   2.281  -0.374   5.660  0.5395 -0.0965 -0.9836
  591MOL0     H79738   2.150  -0.260   5.619 -0.9360 -0.7583 -1.0136
  591MOL0     H79739   2.213  -0.253   5.376  0.4366 -0.1061 -1.0556
  591MOL0     H79740   2.359  -0.342   5.404 -0.1184  1.0429 -0.8729
  591MOL0     H79741   2.125  -0.482   5.335 -2.7457 -1.6375  0.9708
  591MOL0     H79742   2.106  -0.474   5.513 -0.2654  2.8390  1.5453
  591MOL0     H79743   2.371  -0.565   5.442 -0.5305  2.8529 -4.2680
  591MOL0     H79744   2.239  -0.659   5.357 -1.4387  2.0022 -1.4903
  591MOL0     H79745   2.223  -0.772   5.791  1.1716 -0.8190  2.4723
  591MOL0     H79746   2.385  -0.903   5.908 -1.8321 -0.2834 -0.4279
  591MOL0     H79747   2.794  -1.258   5.807  2.0157 -0.3117  0.4653
  591MOL0     H79748   2.938  -1.362   5.962  0.1331 -0.2302 -1.1562
  591MOL0     H79749   3.071  -1.363   6.181 -1.8402  0.4228 -1.9953
  591MOL0     H79750   3.128  -1.455   6.035  0.1418 -1.0329  1.5163
  591MOL0     H79751   3.320  -1.356   6.264  1.7522 -1.2683  1.1504
  591MOL0     H79752   3.248  -1.511   6.261 -1.3847  0.9925 -0.2756
  591MOL0     H79753   3.487  -1.479   6.172 -0.3585  0.2452  1.4464
  591MOL0     H79754   3.373  -1.586   6.080 -3.8631  0.0681  3.2291
  591MOL0     H79755   3.460  -1.297   6.026  0.7588  0.5207 -3.0176
  591MOL0     H79756   3.350  -1.402   5.922 -0.4067 -0.3087 -0.6674
  591MOL0     H79757   3.536  -1.582   5.944  0.5643 -0.6704 -2.0027
  591MOL0     H79758   3.638  -1.458   6.007  0.2297 -1.2047 -0.7214
  591MOL0     H79759   3.534  -1.393   5.735  1.2636  0.6930 -2.0708
  591MOL0     H79760   3.669  -1.326   5.829  1.9782  0.3435 -1.7476
  591MOL0     H79761   3.664  -1.598   5.690 -3.4471 -0.5562  1.8263
  591MOL0     H79762   3.778  -1.567   5.828  3.3351  0.7962 -2.3578
  591MOL0     H79763   3.778  -1.397   5.571  0.2754 -2.1253 -1.9028
  591MOL0     H79764   3.871  -1.375   5.724  0.3347  0.9826 -2.7970
  591MOL0     H79765   3.197  -1.018   5.985  0.3380 -0.6685 -0.6874
  591MOL0     H79766   3.001  -0.880   5.884 -2.0160 -0.5005  0.1464
  591MOL0     H79767   2.665  -0.847   5.587  1.3486 -2.3175  4.4328
  591MOL0     H79768   2.495  -0.758   5.454 -2.3746 -0.4996 -0.6864
  591MOL0     H79769   2.870   0.663   6.752  0.1659  0.2025 -0.4517
  591MOL0     H79770   3.091   0.639   6.897  1.4316  0.5569 -0.8029
  591MOL0     H79771   3.394   0.330   7.172 -0.2766 -2.6279 -1.3253
  591MOL0     H79772   3.623   0.393   7.274 -4.2477 -0.2996  0.6124
  591MOL0     H79773   3.927   0.512   6.994  2.4682  1.0784  1.6699
  591MOL0     H79774   3.964   0.341   6.995  1.4790 -2.9206  2.4855
  591MOL0     H79775   4.119   0.361   7.167  1.3541  1.4708 -2.8842
  591MOL0     H79776   4.056   0.508   7.241  2.0579  1.6186  0.7534
  591MOL0     H79777   4.289   0.522   7.112  0.7506  0.6392 -1.3650
  591MOL0     H79778   4.159   0.637   7.068  2.2046  0.9507  1.8458
  591MOL0     H79779   4.234   0.374   6.935  1.0740  0.3538  4.2723
  591MOL0     H79780   4.114   0.481   6.865  2.6063  2.5656 -3.7977
  591MOL0     H79781   4.448   0.644   6.692 -1.3503  1.2147 -1.0519
  591MOL0     H79782   3.761   0.448   6.868 -0.7458  3.9859  0.0343
  591MOL0     H79783   3.622   0.394   6.679 -1.1079 -0.5155 -1.7921
  591MOL0     H79784   3.451   0.362   6.713  1.1894 -2.9725  4.1029
  591MOL0     H79785   3.516   0.529   6.713  1.7019  0.8800 -1.3358
  592MOL0     O79786   6.221   0.188   1.836 -0.5342 -0.4939  0.0785
  592MOL0     C79787   6.228   0.302   1.798  0.1613 -0.5249 -0.1316
  592MOL0     O79788   6.316   0.347   1.704 -0.8444  0.6546 -0.3055
  592MOL0     C79789   6.433   0.267   1.695 -0.7750 -1.6422  0.0405
  592MOL0     C79790   6.419   0.175   1.597 -1.7532 -0.8984 -0.4105
  592MOL0     C79791   6.509   0.062   1.599  0.0429  0.1318 -0.1207
  592MOL0     C79792   6.609   0.050   1.701  0.8135  0.1979 -1.5532
  592MOL0     O79793   6.677  -0.068   1.708  0.3248 -0.5194 -0.8160
  592MOL0     C79794   6.603  -0.174   1.773 -0.4916 -0.5392 -0.7010
  592MOL0     C79795   6.707  -0.257   1.850 -0.5904  0.3612 -0.4486
  592MOL0     C79796   6.754  -0.202   1.982  0.2934  0.3284 -0.2162
  592MOL0     C79797   6.660  -0.243   2.093 -0.8289 -0.2029  0.5590
  592MOL0     C79798   6.708  -0.373   2.155 -0.4867  0.2352 -1.2994
  592MOL0     C79799   6.623  -0.387   2.285 -0.2705 -0.9994  0.0791
  592MOL0     C79800   6.686  -0.513   2.350  0.1062  0.4095 -0.6613
  592MOL0     C79801   6.647  -0.509   2.506 -0.3688  0.9126 -0.2836
  592MOL0     N79802   6.723  -0.414   2.590 -0.5188 -0.4978  0.8126
  592MOL0     C79803   6.812  -0.316   2.554  0.5034 -0.2025  0.4783
  592MOL0     C79804   6.858  -0.268   2.671  0.3898 -0.6381 -0.9929
  592MOL0     C79805   6.976  -0.171   2.678 -0.0013 -0.0482  0.1344
  592MOL0     C79806   7.099  -0.259   2.618 -0.0070 -0.0657 -1.2687
  592MOL0     C79807   7.153  -0.205   2.493  0.0196  0.1954  1.2848
  592MOL0     C79808   7.275  -0.291   2.455 -0.5549 -0.3360  0.0790
  592MOL0     O79809   7.249  -0.436   2.434  0.0822  0.0230 -0.9821
  592MOL0     C79810   7.337  -0.507   2.361 -0.1711  0.0474  0.3068
  592MOL0     C79811   7.469  -0.478   2.333 -0.9543 -0.1385 -0.1768
  592MOL0     C79812   7.550  -0.567   2.258 -0.8011  0.9928  0.9164
  592MOL0     C79813   7.497  -0.688   2.207  1.0027 -0.6883  0.5833
  592MOL0     C79814   7.575  -0.785   2.136 -0.7386  0.3014 -0.4367
  592MOL0     O79815   7.520  -0.904   2.111  0.1290  0.4856  0.2505
  592MOL0     C79816   7.606  -1.003   2.054 -0.0346 -0.7284 -0.0571
  592MOL0     C79817   7.717  -1.050   2.124 -0.1588  1.2862 -0.2613
  592MOL0     C79818   7.786  -1.167   2.070  0.4944 -0.2633 -0.2980
  592MOL0     C79819   7.742  -1.227   1.951 -0.2604  0.0329 -1.9713
  592MOL0     O79820   7.812  -1.333   1.898 -0.8820  0.1372 -0.8488
  592MOL0     C79821   7.741  -1.424   1.818  0.0828 -0.7792  0.4767
  592MOL0     C79822   7.630  -1.498   1.890 -0.3030  0.1517 -0.3238
  592MOL0     C79823   7.551  -1.595   1.799  0.7412  0.1441  0.7762
  592MOL0     C79824   7.615  -1.736   1.799 -1.2625  0.0311  0.6759
  592MOL0     C79825   7.542  -1.821   1.688  1.5933  0.5996 -0.5137
  592MOL0     C79826   7.383  -1.841   1.686 -0.3974 -0.3434  0.0928
  592MOL0     C79827   7.304  -1.897   1.812  0.0906  0.1988 -1.2587
  592MOL0     C79828   7.352  -2.036   1.853 -0.3914 -0.5658  0.2870
  592MOL0    Cl79829   7.266  -2.159   1.746  0.2716  0.1117 -0.0141
  592MOL0     C79830   7.622  -1.178   1.897 -0.1964 -0.2361  0.8994
  592MOL0     C79831   7.569  -1.057   1.938 -0.2585 -0.4121  1.1144
  592MOL0     O79832   7.683  -0.745   2.093  0.7021 -0.0323  0.2873
  592MOL0     C79833   7.360  -0.718   2.232 -0.4036  0.3213  0.1020
  592MOL0     C79834   7.286  -0.634   2.316  0.1675  0.5747  0.5125
  592MOL0     N79835   6.788  -0.327   2.779  0.5841  0.1950 -0.7165
  592MOL0     N79836   6.710  -0.411   2.730 -0.2014 -0.3390  0.4210
  592MOL0     C79837   6.621   0.161   1.788  0.1904  0.1270 -0.3546
  592MOL0     C79838   6.531   0.269   1.789  0.9975  0.7751  0.2697
  592MOL0     C79839   6.120   0.398   1.846 -0.1826  0.5951  0.3671
  592MOL0     C79840   6.133   0.528   1.801 -0.8195 -0.8024 -0.0046
  592MOL0     C79841   6.062   0.625   1.865  0.8287  0.0499  0.6836
  592MOL0     C79842   5.953   0.607   1.952 -0.3367  0.3382  0.4250
  592MOL0     O79843   5.872   0.704   2.010 -0.3383 -0.2496  0.0143
  592MOL0     C79844   5.918   0.846   2.015 -0.4049  0.1448  0.3838
  592MOL0     C79845   5.883   0.926   2.140  0.4897 -0.5295 -0.6049
  592MOL0     C79846   5.916   0.851   2.276  0.1181  0.8314 -1.3615
  592MOL0     C79847   5.909   0.941   2.397 -0.5265 -0.1270  0.1010
  592MOL0     C79848   5.943   0.881   2.523 -0.1333 -0.0806 -0.3021
  592MOL0     C79849   5.981   0.837   2.632 -0.7308  1.3536  0.3409
  592MOL0     C79850   5.930   0.479   1.980  0.0809  0.2517 -0.3379
  592MOL0     C79851   6.006   0.370   1.926 -0.2348  0.7535  0.8298
  592MOL0     C79852   5.959   0.233   1.969 -0.5286  0.4926  0.3183
  592MOL0     H79853   6.332   0.186   1.534 -0.4510  2.7981 -1.8562
  592MOL0     H79854   6.494  -0.015   1.524 -0.5331  0.4316 -0.3196
  592MOL0     H79855   6.524  -0.128   1.834  1.4160  3.5554 -0.9974
  592MOL0     H79856   6.553  -0.234   1.696  0.6845  0.2378 -2.1299
  592MOL0     H79857   6.794  -0.255   1.785 -0.6154 -1.5543 -0.5768
  592MOL0     H79858   6.680  -0.363   1.856 -0.2995  0.1595 -2.2909
  592MOL0     H79859   6.767  -0.093   1.974 -1.4122  0.6139  0.3373
  592MOL0     H79860   6.855  -0.241   1.997 -0.8082 -3.2364 -1.1613
  592MOL0     H79861   6.672  -0.166   2.170 -1.0821 -0.4376  0.8362
  592MOL0     H79862   6.558  -0.256   2.054 -0.2683  2.3448 -2.0950
  592MOL0     H79863   6.672  -0.459   2.099  1.6043 -2.2947  0.9755
  592MOL0     H79864   6.814  -0.373   2.181 -0.6161  1.5226 -0.6807
  592MOL0     H79865   6.640  -0.300   2.349  0.8339 -0.8185 -0.4368
  592MOL0     H79866   6.518  -0.407   2.261 -0.2749  0.4754 -1.2697
  592MOL0     H79867   6.793  -0.523   2.328 -0.1190 -0.0762 -1.6077
  592MOL0     H79868   6.635  -0.599   2.306 -3.6289  0.6193  2.6688
  592MOL0     H79869   6.540  -0.495   2.523 -0.5049  0.4928 -0.7711
  592MOL0     H79870   6.670  -0.608   2.546 -0.1100  0.7586 -0.8039
  592MOL0     H79871   6.843  -0.293   2.453 -0.1031 -5.0511 -1.0980
  592MOL0     H79872   6.967  -0.082   2.615  0.5245 -0.4880 -0.5735
  592MOL0     H79873   6.987  -0.143   2.783 -1.9111 -1.0758  0.6552
  592MOL0     H79874   7.171  -0.284   2.697 -3.9511 -1.8756  2.1624
  592MOL0     H79875   7.063  -0.361   2.599  0.3959 -0.6141  0.6845
  592MOL0     H79876   7.180  -0.100   2.505  1.9588 -0.2374  1.0687
  592MOL0     H79877   7.080  -0.207   2.412  2.5059 -2.4498 -1.1134
  592MOL0     H79878   7.353  -0.278   2.530  1.3696  0.7652 -1.9773
  592MOL0     H79879   7.307  -0.241   2.363  1.6127  2.9285  2.4010
  592MOL0     H79880   7.516  -0.385   2.362 -2.2588  0.3103  0.5517
  592MOL0     H79881   7.654  -0.548   2.236 -1.0512  0.6059 -0.7515
  592MOL0     H79882   7.732  -1.001   2.219  0.4392  0.1613  0.2478
  592MOL0     H79883   7.865  -1.216   2.128 -0.8513 -1.5470  0.5334
  592MOL0     H79884   7.711  -1.372   1.727 -1.5686 -1.8845  0.3521
  592MOL0     H79885   7.820  -1.494   1.790  2.5837  2.3065 -0.8866
  592MOL0     H79886   7.677  -1.549   1.974 -0.3181  0.2966 -0.2273
  592MOL0     H79887   7.560  -1.418   1.916  1.7794  2.9035 -2.3885
  592MOL0     H79888   7.448  -1.606   1.833  0.3948 -3.4309 -0.9933
  592MOL0     H79889   7.552  -1.546   1.701 -1.2625  0.6631  0.9776
  592MOL0     H79890   7.610  -1.780   1.900 -2.1984 -1.8151 -0.1164
  592MOL0     H79891   7.719  -1.730   1.767 -1.3330  0.4364  0.5288
  592MOL0     H79892   7.570  -1.926   1.702 -0.4178  0.1503  0.6055
  592MOL0     H79893   7.573  -1.804   1.584  1.9963 -1.9434 -0.8913
  592MOL0     H79894   7.355  -1.741   1.652  4.2286  1.6946  1.3954
  592MOL0     H79895   7.375  -1.915   1.607  2.6347  0.3326 -0.9909
  592MOL0     H79896   7.200  -1.892   1.780 -0.1651  1.7023 -0.3275
  592MOL0     H79897   7.327  -1.827   1.893 -1.7243 -1.8866  1.2332
  592MOL0     H79898   7.460  -2.049   1.848 -0.2157  0.4995  0.9592
  592MOL0     H79899   7.316  -2.056   1.955  1.7194 -4.0491  0.5180
  592MOL0     H79900   7.600  -1.220   1.800  3.0045 -0.1368  0.0268
  592MOL0     H79901   7.496  -0.996   1.886 -0.0694  1.0065  2.4639
  592MOL0     H79902   7.301  -0.803   2.199 -3.6834  0.9536  3.5896
  592MOL0     H79903   7.190  -0.662   2.356  0.3936 -1.4526 -0.2092
  592MOL0     H79904   6.700   0.146   1.861  1.0406  2.1326 -0.7986
  592MOL0     H79905   6.514   0.340   1.869 -2.6223 -1.0653  1.3619
  592MOL0     H79906   6.216   0.570   1.746  0.9318  2.0901  4.2947
  592MOL0     H79907   6.080   0.725   1.828  0.9606  0.2318  1.2221
  592MOL0     H79908   5.885   0.913   1.935  2.4656  0.1006 -0.9334
  592MOL0     H79909   6.027   0.847   2.017 -0.3192  2.1720  3.6236
  592MOL0     H79910   5.776   0.944   2.148  0.8349  1.7850 -0.5382
  592MOL0     H79911   5.916   1.030   2.142  0.6087 -0.4266 -3.4633
  592MOL0     H79912   6.009   0.793   2.271  0.1402  0.7353 -0.1897
  592MOL0     H79913   5.849   0.766   2.294  4.0725 -2.9684 -2.7414
  592MOL0     H79914   5.981   1.024   2.392  0.4643 -0.7213  2.8699
  592MOL0     H79915   5.806   0.976   2.404 -0.6955 -0.8498  1.6036
  592MOL0     H79916   6.018   0.795   2.723  2.9389 -3.9930 -3.0025
  592MOL0     H79917   5.852   0.447   2.048  2.0275 -1.2005  1.3518
  592MOL0     H79918   5.939   0.173   1.879  0.0391 -0.0916  0.5772
  592MOL0     H79919   6.030   0.179   2.032 -3.6069 -1.0773  2.7568
  592MOL0     H79920   5.865   0.232   2.025 -1.8051 -2.9981 -1.5731
  593MOL0     O79921  10.467   6.542   7.237 -0.4699 -0.0639  0.2579
  593MOL0     C79922  10.529   6.470   7.154  0.4872  0.4660  0.4978
  593MOL0     O79923  10.503   6.463   7.020 -0.3743  0.6353 -0.0657
  593MOL0     C79924  10.381   6.487   6.969  0.5669 -0.7474 -0.3522
  593MOL0     C79925  10.365   6.556   6.849  0.2895  1.2618  0.1876
  593MOL0     C79926  10.238   6.545   6.780  0.8109 -1.2509  0.0134
  593MOL0     C79927  10.126   6.495   6.849 -0.7627  0.4843  0.2513
  593MOL0     O79928  10.006   6.505   6.785 -0.2454 -0.4959 -0.2286
  593MOL0     C79929   9.888   6.441   6.843  0.8798  0.3508  0.4409
  593MOL0     C79930   9.768   6.475   6.764 -0.1886  1.2909 -0.0557
  593MOL0     C79931   9.642   6.399   6.804 -0.7717 -0.7294 -0.0243
  593MOL0     C79932   9.540   6.409   6.691  0.0608  0.3520  0.5935
  593MOL0     C79933   9.458   6.278   6.712  0.4459 -0.1994  1.4292
  593MOL0     C79934   9.378   6.259   6.838 -0.5177 -0.5125 -0.4879
  593MOL0     C79935   9.297   6.131   6.834 -0.2654 -0.5816 -0.2431
  593MOL0     C79936   9.242   6.059   6.961 -0.7486 -0.0887  0.6229
  593MOL0     N79937   9.167   5.945   6.907 -0.3639  0.4350 -0.5813
  593MOL0     C79938   9.047   5.949   6.832 -0.1818  0.5971  1.0300
  593MOL0     C79939   9.000   5.824   6.828 -0.6677 -0.5405 -0.1357
  593MOL0     C79940   8.867   5.773   6.767  0.1056 -0.4486 -0.1420
  593MOL0     C79941   8.814   5.635   6.810 -0.1295  0.3391 -0.3684
  593MOL0     C79942   8.781   5.633   6.972 -0.5867  0.1084  1.2448
  593MOL0     C79943   8.772   5.480   7.014 -0.6885  0.8211 -0.1071
  593MOL0     O79944   8.676   5.399   6.937 -0.3257 -0.5559 -0.1971
  593MOL0     C79945   8.549   5.399   7.004  0.0404  1.5152 -0.2030
  593MOL0     C79946   8.501   5.265   7.016  0.1606 -0.0640 -0.3257
  593MOL0     C79947   8.372   5.240   7.080 -0.7830  0.8770  0.5041
  593MOL0     C79948   8.289   5.347   7.116  0.6710 -0.9427  0.5561
  593MOL0     C79949   8.153   5.331   7.175  0.3897  0.9761  0.0938
  593MOL0     O79950   8.083   5.434   7.232 -0.4371 -0.0759  0.5650
  593MOL0     C79951   7.946   5.437   7.269  0.2534  0.0753 -0.5764
  593MOL0     C79952   7.882   5.561   7.240 -1.1614 -0.7237 -0.0172
  593MOL0     C79953   7.746   5.579   7.257  0.2453 -1.1606 -1.0684
  593MOL0     C79954   7.674   5.465   7.307  0.5438 -0.2165 -1.3331
  593MOL0     O79955   7.535   5.463   7.316  0.2162 -0.3631 -0.9454
  593MOL0     C79956   7.462   5.587   7.344  0.3958 -0.2599 -0.7197
  593MOL0     C79957   7.470   5.638   7.489  1.2097 -0.4567 -0.6020
  593MOL0     C79958   7.414   5.545   7.595 -0.0731 -0.1678 -0.4847
  593MOL0     C79959   7.481   5.568   7.741 -0.8186 -0.1842  0.4284
  593MOL0     C79960   7.414   5.685   7.804 -0.3876  0.1429 -0.8946
  593MOL0     C79961   7.475   5.704   7.948  0.5326  0.5859  0.0374
  593MOL0     C79962   7.412   5.837   8.014 -0.6382  0.1817  0.3115
  593MOL0     C79963   7.260   5.853   8.012 -1.2695 -0.9935 -0.4024
  593MOL0    Cl79964   7.220   5.998   8.122  0.0978  0.3764  0.0130
  593MOL0     C79965   7.726   5.342   7.325  1.0023 -0.6783 -0.0260
  593MOL0     C79966   7.869   5.335   7.327 -1.1992  0.1612 -1.2417
  593MOL0     O79967   8.103   5.215   7.154 -0.6423  0.5621 -0.6366
  593MOL0     C79968   8.340   5.477   7.089 -0.5906  0.4947 -0.5250
  593MOL0     C79969   8.463   5.498   7.025  0.2903 -0.6785  0.4945
  593MOL0     N79970   9.098   5.741   6.880 -0.4086  0.5613 -0.1407
  593MOL0     N79971   9.201   5.810   6.919 -0.5339  0.2257 -0.3729
  593MOL0     C79972  10.140   6.431   6.978 -0.1168  0.3896  0.7622
  593MOL0     C79973  10.266   6.431   7.026  0.4266  0.0598 -1.0000
  593MOL0     C79974  10.635   6.386   7.214  0.6908 -1.4586 -0.7517
  593MOL0     C79975  10.692   6.425   7.337 -0.1211  1.3572 -0.5011
  593MOL0     C79976  10.809   6.361   7.397 -0.6432 -0.2799  0.2778
  593MOL0     C79977  10.872   6.258   7.326  0.3668 -1.2382  0.3440
  593MOL0     O79978  10.996   6.228   7.383 -0.3122  0.5145 -0.0343
  593MOL0     C79979  11.087   6.131   7.311  0.0119 -0.4721 -1.4358
  593MOL0     C79980  11.051   5.993   7.342  0.0688  0.6554  0.7288
  593MOL0     C79981  11.129   5.886   7.247  0.9856 -0.4113  0.7125
  593MOL0     C79982  11.085   5.734   7.260  0.0407  0.5523 -1.0707
  593MOL0     C79983  11.193   5.650   7.201  0.4622 -0.6886 -0.2041
  593MOL0     C79984  11.281   5.575   7.170  0.7762 -0.0639  0.5820
  593MOL0     C79985  10.801   6.213   7.207 -0.2969 -0.2949 -0.9035
  593MOL0     C79986  10.679   6.272   7.162  0.3202  0.4677 -0.0874
  593MOL0     C79987  10.615   6.202   7.036  0.1596  0.4662 -0.2727
  593MOL0     H79988  10.444   6.615   6.805  0.8365  0.8573  0.6089
  593MOL0     H79989  10.234   6.611   6.694  1.8765 -2.6401 -1.1415
  593MOL0     H79990   9.897   6.332   6.845  1.8953  0.3610 -1.2181
  593MOL0     H79991   9.868   6.486   6.941  0.5310  1.2240 -0.0179
  593MOL0     H79992   9.775   6.448   6.659 -3.0480 -2.1522  0.4657
  593MOL0     H79993   9.752   6.584   6.759 -0.6543  1.1870 -1.3470
  593MOL0     H79994   9.607   6.462   6.886  0.4708  1.5585 -1.1460
  593MOL0     H79995   9.666   6.296   6.834 -0.1779 -0.4093  0.6096
  593MOL0     H79996   9.470   6.491   6.713 -2.0965 -1.5970  1.4217
  593MOL0     H79997   9.580   6.417   6.590 -2.0789  1.8801 -0.2180
  593MOL0     H79998   9.390   6.291   6.627  0.6413  1.5427  1.5125
  593MOL0     H79999   9.526   6.193   6.699  2.4725  1.4767  0.5813
  593MOL0     H80000   9.458   6.257   6.912 -0.5520  0.2665 -0.4180
  593MOL0     H80001   9.309   6.340   6.866  1.8297  1.0516  1.2090
  593MOL0     H80002   9.363   6.070   6.773  0.7127  0.7747 -0.5984
  593MOL0     H80003   9.211   6.164   6.774  1.0762  4.8639  0.2963
  593MOL0     H80004   9.329   6.023   7.017 -0.8252  1.2723  1.6828
  593MOL0     H80005   9.188   6.129   7.026  0.5665 -2.8661  5.1649
  593MOL0     H80006   8.992   6.038   6.802 -4.8642 -1.2187  3.1143
  593MOL0     H80007   8.794   5.845   6.805 -0.6005 -1.3879  0.3258
  593MOL0     H80008   8.885   5.773   6.660 -1.1547  1.5041 -0.4135
  593MOL0     H80009   8.716   5.606   6.770 -0.9627  2.4467 -0.0030
  593MOL0     H80010   8.890   5.559   6.791 -0.3065 -0.5706  2.0976
  593MOL0     H80011   8.690   5.688   6.997  0.5225  1.8607  1.6324
  593MOL0     H80012   8.858   5.684   7.032  1.5878 -1.0613 -0.3997
  593MOL0     H80013   8.757   5.471   7.122  0.3537 -2.2149 -0.1056
  593MOL0     H80014   8.867   5.428   6.997 -1.9799 -1.6705 -0.2061
  593MOL0     H80015   8.557   5.172   7.010  0.7942  0.3426 -0.9237
  593MOL0     H80016   8.351   5.135   7.095  0.4905  0.1672 -2.0916
  593MOL0     H80017   7.949   5.642   7.211 -2.8549  1.9069  2.7334
  593MOL0     H80018   7.695   5.674   7.243  1.8928  0.0256  0.5602
  593MOL0     H80019   7.481   5.668   7.272 -2.9229 -0.3979 -1.8968
  593MOL0     H80020   7.357   5.565   7.325 -0.1850  1.4981  0.2047
  593MOL0     H80021   7.570   5.670   7.519  0.6886 -0.6050  1.4591
  593MOL0     H80022   7.414   5.732   7.487  5.5499  2.5510  2.0778
  593MOL0     H80023   7.306   5.549   7.609 -0.2297 -0.7285 -1.4324
  593MOL0     H80024   7.423   5.439   7.573 -1.7554 -0.2679 -0.8340
  593MOL0     H80025   7.588   5.587   7.730 -0.2932 -2.4805  1.1884
  593MOL0     H80026   7.463   5.481   7.805  1.1819  1.9041  4.1783
  593MOL0     H80027   7.312   5.648   7.816  0.6356 -1.8138  4.2360
  593MOL0     H80028   7.411   5.777   7.744 -2.6301  2.6135  2.6006
  593MOL0     H80029   7.444   5.629   8.021  2.1548 -1.1902 -1.0126
  593MOL0     H80030   7.584   5.712   7.944  0.8004 -2.2011  0.3162
  593MOL0     H80031   7.451   5.919   7.952 -1.0958  0.0294 -0.1907
  593MOL0     H80032   7.455   5.841   8.114  2.6049 -1.8157 -0.8158
  593MOL0     H80033   7.219   5.872   7.913 -0.9805  1.8013 -0.0587
  593MOL0     H80034   7.207   5.764   8.047  0.7339 -1.4691  1.7260
  593MOL0     H80035   7.663   5.260   7.359  0.1137  0.4751  1.2262
  593MOL0     H80036   7.906   5.234   7.347 -0.3803  0.7856  0.6225
  593MOL0     H80037   8.281   5.560   7.125 -0.5811 -0.5750  2.2764
  593MOL0     H80038   8.493   5.599   7.002 -0.5622  0.0578  2.3742
  593MOL0     H80039  10.061   6.373   7.022 -0.2442 -0.3419 -0.3829
  593MOL0     H80040  10.267   6.386   7.125  1.0042  2.2808  0.0569
  593MOL0     H80041  10.650   6.511   7.388  0.0093 -1.0240  4.1493
  593MOL0     H80042  10.868   6.402   7.478  2.7540 -1.3082 -1.5014
  593MOL0     H80043  11.189   6.154   7.340 -0.2994  0.3051 -0.9269
  593MOL0     H80044  11.071   6.138   7.203  0.6077  1.1547 -1.4576
  593MOL0     H80045  10.943   5.990   7.327  0.0369  1.2336  0.8282
  593MOL0     H80046  11.076   5.953   7.441 -0.2714 -1.9271 -0.1525
  593MOL0     H80047  11.235   5.897   7.274  1.3058 -1.1774 -0.2005
  593MOL0     H80048  11.130   5.914   7.142 -0.7534 -0.3985  0.6763
  593MOL0     H80049  11.057   5.725   7.366 -0.0781  0.0416 -1.1452
  593MOL0     H80050  10.996   5.702   7.206 -0.2478  0.7798 -0.7307
  593MOL0     H80051  11.365   5.518   7.137 -0.8359 -1.6647 -1.0299
  593MOL0     H80052  10.829   6.137   7.136  0.3214  0.3232 -1.3314
  593MOL0     H80053  10.641   6.250   6.941 -1.3430 -0.4551 -1.2009
  593MOL0     H80054  10.655   6.101   7.022  2.3254  1.2893 -0.3064
  593MOL0     H80055  10.505   6.198   7.040  0.0562  0.5356 -2.0388
  594MOL0     O80056   0.211   5.619   1.352  0.2520 -0.3870 -0.3318
  594MOL0     C80057   0.317   5.661   1.314 -0.0881  0.5036 -0.4576
  594MOL0     O80058   0.397   5.602   1.223 -0.0562  0.2317  0.6064
  594MOL0     C80059   0.351   5.478   1.163 -0.2153 -0.5987 -0.4781
  594MOL0     C80060   0.425   5.358   1.182  0.3088  0.3495 -0.9929
  594MOL0     C80061   0.382   5.245   1.112  0.2275  0.5720  0.1427
  594MOL0     C80062   0.273   5.241   1.026  0.5408  0.2483  0.5301
  594MOL0     O80063   0.280   5.134   0.936 -0.6177  0.6845 -0.0908
  594MOL0     C80064   0.199   5.142   0.824 -0.6672  0.0653 -0.2082
  594MOL0     C80065   0.251   5.097   0.692  0.3895 -0.0295  0.0213
  594MOL0     C80066   0.306   4.952   0.701  0.1017  0.0813  0.3580
  594MOL0     C80067   0.317   4.890   0.560  0.0224 -0.1304 -0.2894
  594MOL0     C80068   0.327   4.739   0.582 -0.0245 -0.9994  0.1768
  594MOL0     C80069   0.346   4.659   0.443  0.8691  0.1503 -0.2042
  594MOL0     C80070   0.410   4.521   0.456  0.0800  0.2421  0.9917
  594MOL0     C80071   0.301   4.421   0.503 -0.1704  0.1824 -0.6782
  594MOL0     N80072   0.355   4.280   0.489 -0.2292  0.7020 -0.5552
  594MOL0     C80073   0.342   4.165   0.575  0.5366 -0.2190  0.1179
  594MOL0     C80074   0.434   4.078   0.527 -0.5396  0.7588 -0.3090
  594MOL0     C80075   0.442   3.939   0.578 -0.4068  1.1452 -0.1566
  594MOL0     C80076   0.533   3.931   0.708 -0.4768 -0.1864  0.0570
  594MOL0     C80077   0.680   3.967   0.672 -0.8661 -0.6785 -0.1371
  594MOL0     C80078   0.796   3.938   0.769  0.6709  0.2208 -0.0013
  594MOL0     O80079   0.783   4.023   0.878 -0.8633 -1.3652 -0.1005
  594MOL0     C80080   0.895   4.020   0.960 -0.2689  0.0890 -0.5471
  594MOL0     C80081   1.002   3.925   0.965 -0.8894  0.2244  0.1215
  594MOL0     C80082   1.099   3.938   1.065 -0.5501  1.1148 -0.6615
  594MOL0     C80083   1.101   4.042   1.164  1.0586 -0.4397 -0.4177
  594MOL0     C80084   1.196   4.055   1.283 -0.1900  0.9083 -0.0923
  594MOL0     O80085   1.270   3.939   1.301 -0.5803  0.1900 -0.2320
  594MOL0     C80086   1.282   3.883   1.425  0.2995  0.5679  0.0529
  594MOL0     C80087   1.391   3.825   1.466 -0.1013  0.2109  1.0288
  594MOL0     C80088   1.403   3.768   1.596  1.0618 -0.1045  0.9420
  594MOL0     C80089   1.284   3.749   1.674  0.3396  0.0236 -0.3729
  594MOL0     O80090   1.286   3.695   1.802  0.2248 -0.9243  0.8088
  594MOL0     C80091   1.404   3.716   1.884 -0.0449 -0.1432 -0.8619
  594MOL0     C80092   1.365   3.666   2.027  0.1557  0.4786  0.1287
  594MOL0     C80093   1.319   3.514   2.024  0.1083 -0.2529 -1.0874
  594MOL0     C80094   1.332   3.453   2.165 -0.1269 -0.3848 -0.4431
  594MOL0     C80095   1.264   3.319   2.193  0.2631 -0.4976 -0.1446
  594MOL0     C80096   1.296   3.197   2.111  0.3005 -0.0306  0.3259
  594MOL0     C80097   1.168   3.134   2.037 -0.0314  0.2546 -1.3033
  594MOL0     C80098   1.130   3.202   1.908 -1.1834 -1.0457 -0.8561
  594MOL0    Cl80099   1.223   3.141   1.770 -0.0746 -0.3630 -0.4810
  594MOL0     C80100   1.161   3.789   1.618 -0.5247  0.1594 -0.1548
  594MOL0     C80101   1.167   3.859   1.494 -0.9139 -0.7186 -0.4339
  594MOL0     O80102   1.185   4.136   1.368 -0.2319 -0.7122 -0.1414
  594MOL0     C80103   0.982   4.118   1.166 -0.0808  0.2999 -0.3927
  594MOL0     C80104   0.884   4.106   1.065 -0.6421 -0.5483  0.1647
  594MOL0     N80105   0.484   4.124   0.406  0.1994 -0.8946  0.0119
  594MOL0     N80106   0.435   4.242   0.385  0.8420  0.4934  0.0235
  594MOL0     C80107   0.192   5.359   1.017 -0.2560  0.3171  1.0836
  594MOL0     C80108   0.238   5.478   1.071 -0.6230  0.5917  0.4147
  594MOL0     C80109   0.347   5.795   1.362  0.6342  0.1965 -0.1975
  594MOL0     C80110   0.242   5.878   1.406 -1.1543  0.4802  1.1975
  594MOL0     C80111   0.251   6.010   1.440  0.1348 -0.3891  0.5857
  594MOL0     C80112   0.378   6.062   1.424  0.1893 -0.7641 -0.3484
  594MOL0     O80113   0.413   6.198   1.416  0.1185 -0.1534  1.3938
  594MOL0     C80114   0.319   6.290   1.360 -0.7002 -0.1450  0.7448
  594MOL0     C80115   0.382   6.424   1.329  0.4889 -0.7449  0.8175
  594MOL0     C80116   0.479   6.421   1.213 -0.4358 -0.9387  0.9465
  594MOL0     C80117   0.531   6.558   1.179  0.5135  0.0954 -0.6759
  594MOL0     C80118   0.598   6.546   1.052  0.2782  0.3560 -0.4965
  594MOL0     C80119   0.682   6.532   0.967  0.0123 -0.4958  0.2033
  594MOL0     C80120   0.487   5.980   1.406 -0.3210  0.2177  0.5894
  594MOL0     C80121   0.474   5.850   1.376  0.5667  0.0994 -0.4072
  594MOL0     C80122   0.603   5.775   1.370  0.2733 -0.4250  0.6989
  594MOL0     H80123   0.514   5.360   1.244 -1.6630  0.1971  2.0277
  594MOL0     H80124   0.439   5.153   1.108 -0.3575  0.2024  0.1182
  594MOL0     H80125   0.116   5.077   0.851  0.3092 -1.6882 -1.2320
  594MOL0     H80126   0.159   5.241   0.797 -2.6578 -0.5422  0.3452
  594MOL0     H80127   0.338   5.152   0.657 -0.4797  1.9365  0.8186
  594MOL0     H80128   0.170   5.099   0.619  0.8690  0.8459 -0.5041
  594MOL0     H80129   0.230   4.892   0.751 -0.1031  0.3261  0.3421
  594MOL0     H80130   0.394   4.944   0.765 -1.7406 -1.7796  2.8588
  594MOL0     H80131   0.230   4.912   0.498 -0.0340 -3.1698 -1.4621
  594MOL0     H80132   0.413   4.922   0.520  1.6308 -3.8740  0.1862
  594MOL0     H80133   0.415   4.716   0.644  0.8075 -0.8939 -0.9388
  594MOL0     H80134   0.247   4.692   0.639  0.1271 -3.2445 -1.3130
  594MOL0     H80135   0.249   4.660   0.393 -1.5434 -1.0697  3.9766
  594MOL0     H80136   0.417   4.721   0.387 -0.1988  1.5615 -0.0460
  594MOL0     H80137   0.496   4.534   0.521 -0.1364  4.9866  0.6832
  594MOL0     H80138   0.441   4.493   0.355 -1.9018 -1.1251  0.6863
  594MOL0     H80139   0.289   4.439   0.611 -0.9232 -4.0577  0.1395
  594MOL0     H80140   0.209   4.441   0.448 -0.5761  0.4486  0.0816
  594MOL0     H80141   0.280   4.142   0.662  2.2979 -4.1899  0.5860
  594MOL0     H80142   0.346   3.891   0.595  1.4665 -2.0902  2.5112
  594MOL0     H80143   0.486   3.869   0.506 -0.9342 -0.6887  1.2283
  594MOL0     H80144   0.497   4.004   0.782  0.3144  0.6936 -0.3990
  594MOL0     H80145   0.521   3.829   0.745 -0.4397 -1.1026 -2.2668
  594MOL0     H80146   0.683   4.076   0.663 -2.4559 -0.6382 -0.4617
  594MOL0     H80147   0.704   3.931   0.572  0.4846 -2.4414  0.7570
  594MOL0     H80148   0.893   3.938   0.717  1.8734  1.4337  2.0829
  594MOL0     H80149   0.762   3.840   0.802  0.2247  0.8078  1.3286
  594MOL0     H80150   1.004   3.851   0.886  0.2765  0.7712 -0.3783
  594MOL0     H80151   1.185   3.872   1.068  1.1269  3.2145  0.6900
  594MOL0     H80152   1.484   3.830   1.409 -0.0018 -4.2855  0.4220
  594MOL0     H80153   1.492   3.718   1.633  1.0773 -0.7233  0.1029
  594MOL0     H80154   1.496   3.674   1.843 -0.5783 -0.8754 -1.3091
  594MOL0     H80155   1.422   3.823   1.904 -1.9834 -0.1727  1.6293
  594MOL0     H80156   1.447   3.682   2.098 -0.1167 -1.1987  0.8765
  594MOL0     H80157   1.280   3.721   2.069  0.3219  1.7631 -1.1462
  594MOL0     H80158   1.217   3.494   1.989 -0.4904 -1.1873  1.0486
  594MOL0     H80159   1.382   3.463   1.951  0.1766  0.9279 -1.8798
  594MOL0     H80160   1.293   3.521   2.241  0.9571 -1.8840  1.5646
  594MOL0     H80161   1.437   3.453   2.198 -0.3380 -2.5117  0.3648
  594MOL0     H80162   1.158   3.345   2.190  1.0983  3.5111  0.0247
  594MOL0     H80163   1.296   3.286   2.292 -0.7855 -2.2360 -0.3359
  594MOL0     H80164   1.377   3.216   2.040 -1.3217  0.3223 -1.5164
  594MOL0     H80165   1.337   3.130   2.187 -1.2577 -1.6778 -0.2139
  594MOL0     H80166   1.078   3.129   2.098  1.0265  1.2020  0.4138
  594MOL0     H80167   1.191   3.031   2.010  1.7370  0.3213 -0.2065
  594MOL0     H80168   1.024   3.186   1.888 -1.7804  1.9320 -0.4151
  594MOL0     H80169   1.136   3.311   1.912 -3.6293 -0.8517 -0.9769
  594MOL0     H80170   1.063   3.774   1.662 -1.4017  0.1165 -2.0083
  594MOL0     H80171   1.070   3.893   1.460  0.0876  0.9980 -1.7269
  594MOL0     H80172   0.963   4.205   1.228  0.6504  0.0032  0.2673
  594MOL0     H80173   0.800   4.174   1.062 -1.2725 -1.2628  1.1442
  594MOL0     H80174   0.107   5.367   0.949  0.2374  1.3010  0.5471
  594MOL0     H80175   0.155   5.547   1.070 -1.8834 -0.7012 -3.9542
  594MOL0     H80176   0.146   5.826   1.409 -1.3267  0.6308 -0.4576
  594MOL0     H80177   0.161   6.068   1.458 -2.6763 -4.0250 -0.4214
  594MOL0     H80178   0.240   6.314   1.432 -3.0422  2.0358 -2.3129
  594MOL0     H80179   0.274   6.242   1.274 -0.1936 -1.8327  1.3847
  594MOL0     H80180   0.435   6.452   1.420  3.7717  1.1545 -1.4496
  594MOL0     H80181   0.300   6.493   1.306  1.8051  1.1425  1.5638
  594MOL0     H80182   0.422   6.379   1.129 -0.5868 -1.4708  1.3129
  594MOL0     H80183   0.561   6.349   1.223  1.5843  0.2106 -4.0074
  594MOL0     H80184   0.453   6.634   1.168  1.4728  1.9084  3.3708
  594MOL0     H80185   0.598   6.587   1.260  1.0156 -0.6815 -0.8018
  594MOL0     H80186   0.772   6.506   0.915  0.9580  1.5916  0.7222
  594MOL0     H80187   0.585   6.027   1.400  0.5741 -1.4098  1.6149
  594MOL0     H80188   0.583   5.668   1.382 -2.1592  0.1149  1.9620
  594MOL0     H80189   0.653   5.791   1.274  1.7607  1.8416  1.7551
  594MOL0     H80190   0.671   5.812   1.448 -0.6701  2.4085  0.2873
  595MOL0     O80191   7.864   7.167   1.358  0.5699 -0.4207  0.7886
  595MOL0     C80192   7.883   7.104   1.250  1.5116 -0.2362 -0.9279
  595MOL0     O80193   7.990   7.125   1.175  0.1460  0.8551 -0.6689
  595MOL0     C80194   8.116   7.168   1.222  0.4490  0.5669  0.0862
  595MOL0     C80195   8.146   7.162   1.351 -0.6113  0.2531 -0.4156
  595MOL0     C80196   8.273   7.206   1.391  0.1790  0.5023  0.4133
  595MOL0     C80197   8.375   7.239   1.302 -0.7655 -1.0197  0.7969
  595MOL0     O80198   8.502   7.253   1.342  0.5070  0.5495  0.2664
  595MOL0     C80199   8.529   7.227   1.489 -0.9227 -0.2619 -0.4255
  595MOL0     C80200   8.656   7.302   1.500 -0.8213  0.1561  0.4181
  595MOL0     C80201   8.702   7.301   1.648  0.8427  0.0546  0.3020
  595MOL0     C80202   8.810   7.407   1.658  0.1325  0.6147  0.0200
  595MOL0     C80203   8.858   7.423   1.795  0.7810  0.1132  0.2149
  595MOL0     C80204   8.959   7.314   1.834 -0.3454  1.1716  0.4735
  595MOL0     C80205   8.996   7.325   1.988  1.0043  0.2396  0.0677
  595MOL0     C80206   9.074   7.451   2.029  0.1257 -0.6121 -0.4467
  595MOL0     N80207   9.222   7.433   2.015  0.5955  0.0408 -0.9466
  595MOL0     C80208   9.292   7.413   1.900  0.3626 -0.0199  0.4348
  595MOL0     C80209   9.424   7.418   1.931 -0.2376  0.1162 -1.4754
  595MOL0     C80210   9.541   7.403   1.851  0.0446 -0.2279 -0.0365
  595MOL0     C80211   9.516   7.290   1.745 -0.2854  0.8111 -0.8291
  595MOL0     C80212   9.465   7.320   1.605 -0.4517  0.7148 -1.2206
  595MOL0     C80213   9.385   7.206   1.550  0.5377 -0.4154 -0.0449
  595MOL0     O80214   9.258   7.223   1.615 -0.0252  0.4134 -0.0896
  595MOL0     C80215   9.148   7.192   1.527  0.2426 -0.7096 -0.1477
  595MOL0     C80216   9.121   7.242   1.400  0.1618 -0.2555  0.0537
  595MOL0     C80217   9.012   7.194   1.321  0.4291 -1.2623 -0.2600
  595MOL0     C80218   8.941   7.081   1.366  0.0364  0.4560  0.2699
  595MOL0     C80219   8.843   7.005   1.286 -0.0871 -0.5771  0.1458
  595MOL0     O80220   8.737   7.074   1.241  0.2603 -0.4731 -0.2393
  595MOL0     C80221   8.677   7.009   1.134  0.9519  0.0725  0.0084
  595MOL0     C80222   8.705   7.060   1.010  0.7741 -0.2456 -0.1572
  595MOL0     C80223   8.630   7.013   0.895 -0.4489  0.6366 -0.6674
  595MOL0     C80224   8.532   6.906   0.911  0.1598 -0.1339 -1.0792
  595MOL0     O80225   8.466   6.860   0.801  0.9010  0.0753  0.3237
  595MOL0     C80226   8.536   6.764   0.714 -0.6641 -0.5210  0.7718
  595MOL0     C80227   8.474   6.767   0.576 -0.4349 -0.7346  0.4276
  595MOL0     C80228   8.528   6.659   0.484  0.5770 -0.4331 -0.2452
  595MOL0     C80229   8.454   6.675   0.356 -0.3636 -0.9693 -1.6391
  595MOL0     C80230   8.503   6.573   0.254  0.5873  0.4620 -0.3590
  595MOL0     C80231   8.411   6.587   0.129 -0.9579  0.2625 -0.5967
  595MOL0     C80232   8.478   6.610  -0.009 -0.6497 -0.5740  0.3446
  595MOL0     C80233   8.410   6.527  -0.122 -0.4898  0.5706 -0.0001
  595MOL0    Cl80234   8.477   6.579  -0.279 -0.0692 -0.0440 -0.5234
  595MOL0     C80235   8.494   6.871   1.041 -0.5258  0.5812  0.4153
  595MOL0     C80236   8.567   6.920   1.155 -0.2974 -0.9507  0.9888
  595MOL0     O80237   8.859   6.887   1.263 -0.2039 -0.0549 -0.1595
  595MOL0     C80238   8.961   7.036   1.496  0.2050 -0.7975  0.3339
  595MOL0     C80239   9.061   7.089   1.574  0.3862  0.6624 -0.1459
  595MOL0     N80240   9.429   7.428   2.074  0.4587 -1.2126 -1.5422
  595MOL0     N80241   9.312   7.440   2.111  0.1805  0.0098  0.5252
  595MOL0     C80242   8.342   7.243   1.174  0.2685  0.5874  0.4409
  595MOL0     C80243   8.208   7.219   1.134  0.4603  1.3498 -0.2711
  595MOL0     C80244   7.781   7.011   1.208  0.1193  1.0226  0.0341
  595MOL0     C80245   7.822   6.933   1.099 -0.2463  1.4827  0.1608
  595MOL0     C80246   7.745   6.833   1.032 -0.4517 -0.5439  0.2601
  595MOL0     C80247   7.608   6.817   1.078  0.2281  0.0955 -0.0226
  595MOL0     O80248   7.515   6.730   1.023  0.1330 -0.6831 -0.1116
  595MOL0     C80249   7.569   6.597   1.005  0.5032 -0.0706 -1.1566
  595MOL0     C80250   7.453   6.499   0.996 -0.0475  0.3919 -0.3781
  595MOL0     C80251   7.365   6.493   1.126 -0.4727 -0.7258  0.2922
  595MOL0     C80252   7.268   6.374   1.124 -0.5644 -0.7621 -0.4198
  595MOL0     C80253   7.332   6.245   1.156  0.0895  0.8353 -0.4042
  595MOL0     C80254   7.401   6.150   1.183  0.0329 -0.2290 -0.4128
  595MOL0     C80255   7.568   6.898   1.187  0.9332  0.5337 -0.3262
  595MOL0     C80256   7.648   6.987   1.260  0.0800 -0.1751  0.2761
  595MOL0     C80257   7.584   7.067   1.369  0.2308  0.3015 -0.7712
  595MOL0     H80258   8.096   7.114   1.434  0.7504 -0.9568 -0.2549
  595MOL0     H80259   8.288   7.199   1.499  2.8026  0.3545  0.1133
  595MOL0     H80260   8.458   7.277   1.556  0.5164  4.2183 -1.8845
  595MOL0     H80261   8.553   7.124   1.515  0.4986 -0.5248 -2.5052
  595MOL0     H80262   8.630   7.403   1.469  0.6823 -0.0633 -1.8000
  595MOL0     H80263   8.731   7.260   1.432 -2.7198  1.2919 -2.5618
  595MOL0     H80264   8.722   7.200   1.683 -2.1953 -1.1908 -1.1857
  595MOL0     H80265   8.614   7.340   1.701  0.4274 -0.9979  0.4003
  595MOL0     H80266   8.905   7.386   1.607  0.8034 -0.7646  1.7414
  595MOL0     H80267   8.771   7.506   1.631  2.9458  1.4963 -1.2373
  595MOL0     H80268   8.897   7.525   1.802 -2.5192  1.5372 -0.4619
  595MOL0     H80269   8.782   7.421   1.873 -0.1336 -1.8606 -0.6428
  595MOL0     H80270   8.911   7.216   1.831  2.1123 -0.1677  1.3133
  595MOL0     H80271   9.051   7.299   1.776 -0.3132 -2.0811  1.1509
  595MOL0     H80272   9.063   7.240   2.005  0.4446 -0.6939 -2.0751
  595MOL0     H80273   8.911   7.310   2.055 -1.3786 -0.3376 -2.8545
  595MOL0     H80274   9.028   7.530   1.970  2.0866 -0.6711 -2.1715
  595MOL0     H80275   9.062   7.479   2.134 -1.6007 -1.9593 -0.2227
  595MOL0     H80276   9.251   7.405   1.800 -0.9091 -2.4592  1.0800
  595MOL0     H80277   9.557   7.498   1.800 -2.1619 -0.7726 -1.8803
  595MOL0     H80278   9.627   7.378   1.915 -2.0109 -1.7564  2.3298
  595MOL0     H80279   9.601   7.223   1.729 -0.0224  0.1061  2.7635
  595MOL0     H80280   9.444   7.228   1.798 -1.4982  1.1305 -2.0474
  595MOL0     H80281   9.552   7.339   1.541 -1.1972  3.8363 -1.4746
  595MOL0     H80282   9.386   7.395   1.610 -1.2585 -0.1851  0.2882
  595MOL0     H80283   9.424   7.111   1.588 -2.5490 -1.7859  0.0134
  595MOL0     H80284   9.384   7.210   1.441  0.6798 -2.5144 -0.1597
  595MOL0     H80285   9.195   7.308   1.357 -1.5460 -0.8257 -4.3231
  595MOL0     H80286   8.989   7.220   1.219 -2.3482  0.7459  0.7558
  595MOL0     H80287   8.746   7.160   1.000 -1.3043  0.9120  2.1003
  595MOL0     H80288   8.659   7.064   0.803 -2.5647  0.7682 -1.3009
  595MOL0     H80289   8.641   6.788   0.696 -0.2004 -2.5490  0.5688
  595MOL0     H80290   8.536   6.663   0.755 -2.4301 -1.2749 -0.9585
  595MOL0     H80291   8.368   6.749   0.596 -0.1654 -0.8700  1.7815
  595MOL0     H80292   8.488   6.867   0.535 -1.2989 -0.1527  1.5335
  595MOL0     H80293   8.635   6.677   0.474  1.0448 -2.6854  0.1615
  595MOL0     H80294   8.509   6.559   0.523 -1.3826 -1.1978 -2.8836
  595MOL0     H80295   8.467   6.774   0.312 -3.1552 -0.2539 -1.0253
  595MOL0     H80296   8.348   6.652   0.369 -0.2066 -1.0637 -0.4388
  595MOL0     H80297   8.495   6.468   0.285 -1.6288  0.5047 -0.5777
  595MOL0     H80298   8.610   6.589   0.244  1.3268 -2.1286  1.8274
  595MOL0     H80299   8.348   6.498   0.120 -1.0909  0.4033 -1.1207
  595MOL0     H80300   8.347   6.672   0.152 -0.1755  0.6602  0.1830
  595MOL0     H80301   8.581   6.572  -0.010 -0.9542 -1.4070  0.3633
  595MOL0     H80302   8.478   6.718  -0.028 -0.8596 -0.4786  0.8727
  595MOL0     H80303   8.425   6.420  -0.105  0.2838  1.0613  3.1235
  595MOL0     H80304   8.304   6.554  -0.120 -0.5374  0.4058 -0.3066
  595MOL0     H80305   8.406   6.813   1.069 -2.2622  1.9929 -1.8520
  595MOL0     H80306   8.528   6.901   1.255 -0.2550  1.1719  1.4497
  595MOL0     H80307   8.923   6.943   1.536  0.9154 -0.4026  2.0340
  595MOL0     H80308   9.092   7.045   1.668 -1.6556  0.1684  0.3406
  595MOL0     H80309   8.413   7.282   1.102 -0.9589  1.7037 -0.2221
  595MOL0     H80310   8.196   7.232   1.027  1.4648  0.7444 -0.4698
  595MOL0     H80311   7.913   6.952   1.043 -0.1515  0.5488 -0.0060
  595MOL0     H80312   7.798   6.774   0.957  4.1000  0.0392  2.6339
  595MOL0     H80313   7.633   6.568   1.089  1.6945  2.5189 -1.0467
  595MOL0     H80314   7.628   6.588   0.913 -0.1694 -1.5928 -1.4608
  595MOL0     H80315   7.504   6.405   0.972  0.7944  1.0986 -1.4789
  595MOL0     H80316   7.396   6.513   0.903  1.3845  0.3834 -1.2888
  595MOL0     H80317   7.308   6.586   1.123  0.3419 -0.0446  2.9516
  595MOL0     H80318   7.429   6.500   1.215 -0.1492  1.9759 -0.0873
  595MOL0     H80319   7.179   6.388   1.187  0.3499  0.6356  0.6423
  595MOL0     H80320   7.230   6.365   1.022  0.8298 -2.6100 -0.8229
  595MOL0     H80321   7.453   6.056   1.185  2.1072  0.8758  0.6342
  595MOL0     H80322   7.466   6.886   1.224  0.9497 -0.9613 -0.7060
  595MOL0     H80323   7.618   7.042   1.470  1.3181  1.7431 -0.7517
  595MOL0     H80324   7.610   7.172   1.355  2.5438 -0.2518 -1.0686
  595MOL0     H80325   7.476   7.072   1.354  0.4533  2.4155 -2.0115
  596MOL0     O80326   5.297  10.355   4.542  0.3246  0.5093  1.2367
  596MOL0     C80327   5.267  10.234   4.533  0.1067 -0.3526  0.9619
  596MOL0     O80328   5.245  10.162   4.410 -0.0682 -0.4873  0.0083
  596MOL0     C80329   5.260  10.211   4.284 -0.2690  0.2195  0.1576
  596MOL0     C80330   5.287  10.120   4.184  0.1866 -0.8470  1.1919
  596MOL0     C80331   5.297  10.154   4.048  0.0857 -0.3886 -0.3950
  596MOL0     C80332   5.280  10.279   3.994 -1.2776 -1.2584 -0.3888
  596MOL0     O80333   5.303  10.334   3.868 -0.1965 -0.7098  0.7777
  596MOL0     C80334   5.337  10.229   3.778  0.3312  0.1986  0.2860
  596MOL0     C80335   5.395  10.290   3.646  0.4022  0.4315 -0.6365
  596MOL0     C80336   5.531  10.360   3.678  0.3130 -1.0986  1.1590
  596MOL0     C80337   5.615  10.358   3.547 -0.2673 -0.6871 -0.0239
  596MOL0     C80338   5.682  10.229   3.517  0.8108  0.5612 -0.0835
  596MOL0     C80339   5.717  10.209   3.362 -0.0827 -0.0447 -0.6093
  596MOL0     C80340   5.864  10.173   3.338 -0.0992  0.9781  0.3667
  596MOL0     C80341   5.971  10.277   3.299  0.9381  0.4019  0.4882
  596MOL0     N80342   5.978  10.382   3.396 -0.2880 -0.5810  0.2034
  596MOL0     C80343   6.065  10.378   3.507  0.4411  0.9346 -0.1205
  596MOL0     C80344   6.027  10.490   3.582 -0.1260 -0.5840  0.4052
  596MOL0     C80345   6.117  10.539   3.688 -0.0741 -0.0653 -0.1675
  596MOL0     C80346   6.067  10.537   3.829  0.0212 -0.0685 -0.5297
  596MOL0     C80347   6.110  10.418   3.908  0.2486  0.5677  0.0304
  596MOL0     C80348   6.082  10.448   4.055  0.0560  0.3973 -0.4723
  596MOL0     O80349   6.173  10.547   4.117 -0.1898  0.2201  0.7235
  596MOL0     C80350   6.119  10.668   4.148  1.0457  0.4150  0.5962
  596MOL0     C80351   6.169  10.788   4.110  0.2234 -0.5878 -0.3432
  596MOL0     C80352   6.115  10.920   4.148  0.3714 -0.7500  0.6323
  596MOL0     C80353   6.005  10.908   4.238  0.1066  1.4014  0.3774
  596MOL0     C80354   5.935  11.028   4.285  0.5517 -1.2631 -0.3729
  596MOL0     O80355   5.997  11.142   4.293 -0.3302 -0.5153  0.1222
  596MOL0     C80356   5.947  11.240   4.368  0.2157  0.0165  0.2871
  596MOL0     C80357   5.975  11.254   4.507  0.1380 -0.3665  0.1461
  596MOL0     C80358   5.901  11.344   4.582 -0.0524 -0.7085  0.0991
  596MOL0     C80359   5.800  11.420   4.527 -0.5005  0.3310  0.0144
  596MOL0     O80360   5.731  11.504   4.614 -0.5272  0.0544  0.9312
  596MOL0     C80361   5.619  11.588   4.568  0.1536  0.6512 -0.6841
  596MOL0     C80362   5.527  11.629   4.679  0.2420  0.8676 -0.2595
  596MOL0     C80363   5.576  11.757   4.749  1.0237  0.3679 -0.5165
  596MOL0     C80364   5.493  11.809   4.867  0.2372 -0.5627  0.3435
  596MOL0     C80365   5.500  11.728   4.993 -0.1796  0.6247 -0.4409
  596MOL0     C80366   5.423  11.801   5.105  0.3816 -0.9198 -0.0047
  596MOL0     C80367   5.436  11.730   5.237  0.8237  0.4348 -0.4464
  596MOL0     C80368   5.360  11.800   5.350  0.2302 -0.1887  1.0919
  596MOL0    Cl80369   5.422  11.723   5.502 -0.0729 -0.1254 -0.2368
  596MOL0     C80370   5.793  11.415   4.383 -0.1766  0.0010 -0.1717
  596MOL0     C80371   5.858  11.321   4.309 -0.9937 -0.3626  0.2036
  596MOL0     O80372   5.824  11.010   4.336 -0.1319 -0.6738 -0.0565
  596MOL0     C80373   5.950  10.777   4.279 -0.3551 -0.2354 -0.2979
  596MOL0     C80374   6.009  10.670   4.226  0.2274 -0.4565  0.4233
  596MOL0     N80375   5.932  10.555   3.504 -0.1559  0.4010  0.9398
  596MOL0     N80376   5.909  10.498   3.391 -0.2164 -0.0264 -0.0654
  596MOL0     C80377   5.263  10.379   4.107 -0.7894  0.9655 -0.0770
  596MOL0     C80378   5.250  10.343   4.240  0.0917 -0.3524  0.1764
  596MOL0     C80379   5.233  10.161   4.658 -0.5743  0.9606  0.3206
  596MOL0     C80380   5.191  10.021   4.641 -0.6064 -0.1646 -1.2420
  596MOL0     C80381   5.178   9.928   4.745 -0.2669  0.4555 -0.3274
  596MOL0     C80382   5.187   9.975   4.879  0.5203  0.7233  0.4174
  596MOL0     O80383   5.173   9.898   4.994 -0.1647  0.3705 -0.6808
  596MOL0     C80384   5.201   9.756   4.982 -0.1525  0.3190 -0.8913
  596MOL0     C80385   5.239   9.698   5.113 -0.0369 -0.0793 -0.4708
  596MOL0     C80386   5.359   9.777   5.176  0.8689  0.4614  0.3963
  596MOL0     C80387   5.479   9.686   5.180 -0.1260 -0.5310  0.9775
  596MOL0     C80388   5.563   9.694   5.063 -0.2477  0.5317  0.5077
  596MOL0     C80389   5.646   9.675   4.974  0.1359 -0.0279  0.3292
  596MOL0     C80390   5.217  10.116   4.899  0.3497 -0.7555  0.1262
  596MOL0     C80391   5.237  10.210   4.793 -0.2923  0.8219  0.2837
  596MOL0     C80392   5.277  10.343   4.841  0.9388 -0.3606  0.6229
  596MOL0     H80393   5.291  10.017   4.216  1.4149 -1.3517 -0.4724
  596MOL0     H80394   5.327  10.061   4.001  1.9809 -1.1315  2.0869
  596MOL0     H80395   5.412  10.167   3.828  1.3648 -1.0553 -2.6154
  596MOL0     H80396   5.245  10.173   3.760  0.7738 -1.0587  1.6941
  596MOL0     H80397   5.328  10.356   3.590 -0.7667  1.0215  1.3343
  596MOL0     H80398   5.398  10.209   3.573 -2.9463 -0.8585  0.4257
  596MOL0     H80399   5.583  10.304   3.756 -0.3288 -2.3715  0.7012
  596MOL0     H80400   5.513  10.459   3.721  1.3784 -0.8803  1.1276
  596MOL0     H80401   5.541  10.374   3.468 -2.2620  2.8479  2.3020
  596MOL0     H80402   5.686  10.441   3.555 -0.1685 -0.5059 -2.1156
  596MOL0     H80403   5.769  10.228   3.583 -0.7376 -4.1745  2.2740
  596MOL0     H80404   5.618  10.151   3.559  1.0942  0.1694 -0.3796
  596MOL0     H80405   5.644  10.143   3.316 -0.6380  1.5246 -2.1017
  596MOL0     H80406   5.696  10.298   3.302  2.7434  2.5854  1.8797
  596MOL0     H80407   5.856  10.108   3.250  4.6733 -2.5510  2.1528
  596MOL0     H80408   5.899  10.102   3.413  0.1430 -2.1661 -2.4737
  596MOL0     H80409   6.067  10.226   3.288  0.1309 -1.6291  2.1948
  596MOL0     H80410   5.936  10.315   3.203 -0.4220 -0.7259  0.4981
  596MOL0     H80411   6.131  10.297   3.536  0.4577  1.1659  0.5219
  596MOL0     H80412   6.220  10.501   3.682  0.0681  0.2922 -0.0602
  596MOL0     H80413   6.140  10.638   3.649 -2.3398  0.6447  0.1527
  596MOL0     H80414   6.107  10.631   3.869 -0.0495 -0.6634  1.0144
  596MOL0     H80415   5.958  10.543   3.825 -0.2173 -2.9688 -0.9437
  596MOL0     H80416   6.212  10.398   3.876  0.6647  1.5953  0.6692
  596MOL0     H80417   6.060  10.324   3.882 -0.9413 -0.0289  3.8613
  596MOL0     H80418   6.092  10.353   4.108  3.4556 -0.6232 -2.6231
  596MOL0     H80419   5.979  10.481   4.069  0.2908  2.9281 -3.4930
  596MOL0     H80420   6.250  10.803   4.040  0.7671 -4.5339 -0.7562
  596MOL0     H80421   6.142  11.016   4.104 -3.6121  0.2038 -0.1736
  596MOL0     H80422   6.036  11.179   4.557 -0.1957 -1.4834 -1.0487
  596MOL0     H80423   5.914  11.332   4.689 -0.7566 -1.0511  0.1533
  596MOL0     H80424   5.656  11.666   4.501  1.4921 -0.9349 -1.8658
  596MOL0     H80425   5.548  11.532   4.507 -0.0219 -1.5243  1.3742
  596MOL0     H80426   5.429  11.645   4.633 -0.1810 -0.2130  0.2585
  596MOL0     H80427   5.518  11.550   4.753  1.6992  2.0714  1.3000
  596MOL0     H80428   5.677  11.747   4.789  0.4527 -0.4293  0.7917
  596MOL0     H80429   5.576  11.834   4.672 -1.6391  1.8648  0.8245
  596MOL0     H80430   5.388  11.819   4.838  0.0707 -0.6691  0.8831
  596MOL0     H80431   5.522  11.908   4.903  4.4653 -2.1495  1.8817
  596MOL0     H80432   5.605  11.726   5.026 -1.0722  0.1240  2.7073
  596MOL0     H80433   5.473  11.622   4.986 -1.1284  0.8213  0.1169
  596MOL0     H80434   5.451  11.907   5.107 -3.5631  0.4798 -3.6667
  596MOL0     H80435   5.318  11.798   5.077 -0.2129 -2.2027  2.1469
  596MOL0     H80436   5.543  11.740   5.257  0.8082 -0.0083 -0.1255
  596MOL0     H80437   5.403  11.627   5.222 -2.9293  1.4240  0.0105
  596MOL0     H80438   5.389  11.906   5.346  2.3571 -0.7206 -2.1046
  596MOL0     H80439   5.251  11.792   5.342  0.3177 -1.7140  1.1402
  596MOL0     H80440   5.715  11.479   4.343 -1.1714  0.2994  2.0533
  596MOL0     H80441   5.835  11.306   4.204 -0.3335 -0.1600  0.0264
  596MOL0     H80442   5.869  10.751   4.346 -0.3508 -0.5295 -0.4055
  596MOL0     H80443   5.986  10.569   4.259 -0.5909 -0.6831 -0.7613
  596MOL0     H80444   5.256  10.483   4.077 -2.4805  0.8378 -0.2222
  596MOL0     H80445   5.224  10.434   4.294 -0.9632 -0.0334 -0.8182
  596MOL0     H80446   5.184   9.979   4.541 -0.5747 -0.7181 -1.0112
  596MOL0     H80447   5.176   9.821   4.726  0.2606 -0.5929  4.2604
  596MOL0     H80448   5.290   9.731   4.923  2.0967 -0.5339  2.5677
  596MOL0     H80449   5.111   9.715   4.936 -0.4114 -0.7027  0.4607
  596MOL0     H80450   5.255   9.590   5.106 -0.3283 -0.0418 -2.1130
  596MOL0     H80451   5.147   9.707   5.172 -0.3365 -0.5104 -0.8614
  596MOL0     H80452   5.325   9.796   5.279 -2.7415 -1.1958 -0.3314
  596MOL0     H80453   5.376   9.869   5.120 -3.0517 -0.8457 -3.4799
  596MOL0     H80454   5.531   9.710   5.273  4.0262  1.9946 -1.6570
  596MOL0     H80455   5.467   9.577   5.174  3.3060 -0.9181 -1.9165
  596MOL0     H80456   5.716   9.657   4.895  1.5226  0.6953  1.3464
  596MOL0     H80457   5.208  10.143   5.004  2.4127  2.8963 -0.4750
  596MOL0     H80458   5.384  10.366   4.848  0.9746 -0.0946 -0.5186
  596MOL0     H80459   5.244  10.418   4.769  2.3797  0.8676  1.1751
  596MOL0     H80460   5.234  10.363   4.939  0.7803 -0.9558  0.6756
  597MOL0     O80461   1.507   6.842   2.992 -0.2885  0.4495 -0.3604
  597MOL0     C80462   1.424   6.928   2.995  0.0595 -0.1776 -0.8026
  597MOL0     O80463   1.320   6.932   3.086 -0.0286 -0.0654 -0.1048
  597MOL0     C80464   1.275   6.828   3.158 -0.4501 -0.3639 -0.3578
  597MOL0     C80465   1.350   6.743   3.233 -0.3915 -1.0288 -1.1635
  597MOL0     C80466   1.300   6.630   3.297  0.6003 -0.8361 -0.0159
  597MOL0     C80467   1.166   6.594   3.272  1.3649 -1.2270 -0.4325
  597MOL0     O80468   1.138   6.474   3.318 -0.0449  0.2025  0.4801
  597MOL0     C80469   1.004   6.434   3.284 -0.9067  0.1005  0.3952
  597MOL0     C80470   0.997   6.287   3.329  0.3389 -0.5333  0.3061
  597MOL0     C80471   1.091   6.201   3.240  0.3576 -0.8234 -0.6454
  597MOL0     C80472   1.223   6.168   3.317 -0.2729 -0.6109  0.0188
  597MOL0     C80473   1.319   6.061   3.247  0.4865 -0.0084 -0.2451
  597MOL0     C80474   1.396   6.121   3.123  0.0122  0.1962  0.1452
  597MOL0     C80475   1.465   6.261   3.141 -0.3896 -0.5099  0.8301
  597MOL0     C80476   1.581   6.270   3.037  0.2564 -0.0647 -1.2942
  597MOL0     N80477   1.679   6.369   3.056 -0.8349  0.2100  0.2562
  597MOL0     C80478   1.665   6.502   3.024  0.4901  0.3946 -0.4991
  597MOL0     C80479   1.775   6.569   3.065 -0.0591 -0.7652 -0.9530
  597MOL0     C80480   1.782   6.725   3.076  0.0866 -0.1889  0.3131
  597MOL0     C80481   1.821   6.790   2.940 -0.5357  0.1762 -0.3657
  597MOL0     C80482   1.954   6.740   2.894 -0.1067  0.5842 -1.1214
  597MOL0     C80483   1.974   6.785   2.758 -1.0038 -0.2217 -0.4183
  597MOL0     O80484   1.893   6.731   2.657 -0.2973 -0.4775  0.7029
  597MOL0     C80485   1.844   6.823   2.566 -0.5779 -0.1025 -1.0144
  597MOL0     C80486   1.895   6.953   2.537 -0.6791  0.0687 -1.0764
  597MOL0     C80487   1.850   7.028   2.429  0.8433 -0.0565 -0.1296
  597MOL0     C80488   1.745   6.981   2.344  0.3244 -0.6550  0.8614
  597MOL0     C80489   1.698   7.045   2.215  0.0331  0.5486 -0.4109
  597MOL0     O80490   1.775   7.138   2.155  0.3605 -0.2695  0.3039
  597MOL0     C80491   1.741   7.189   2.032 -0.7374 -0.0078 -0.2813
  597MOL0     C80492   1.757   7.098   1.931 -0.2165 -0.2505  0.7920
  597MOL0     C80493   1.769   7.148   1.795 -0.5432  0.4919  0.2809
  597MOL0     C80494   1.748   7.286   1.765 -0.5693 -0.4174 -0.2749
  597MOL0     O80495   1.763   7.336   1.636  0.5115 -0.2592 -0.2840
  597MOL0     C80496   1.727   7.252   1.527 -0.0516 -0.1069 -0.6452
  597MOL0     C80497   1.732   7.345   1.404 -0.4634  0.3801 -0.9379
  597MOL0     C80498   1.611   7.426   1.361  0.7451 -0.4417  0.9209
  597MOL0     C80499   1.600   7.553   1.437  0.1830  0.2893  0.3240
  597MOL0     C80500   1.509   7.662   1.374  1.2517 -1.1714  0.4593
  597MOL0     C80501   1.486   7.780   1.479  0.1460  0.3121 -0.3077
  597MOL0     C80502   1.414   7.906   1.428  0.6244 -0.7397  1.0432
  597MOL0     C80503   1.273   7.930   1.486  0.1431  0.9386 -0.0944
  597MOL0    Cl80504   1.193   8.042   1.366 -0.0588  0.1682  0.2571
  597MOL0     C80505   1.737   7.375   1.871  0.8826 -0.4262 -0.6664
  597MOL0     C80506   1.732   7.323   2.004  0.8811 -0.9883  0.7386
  597MOL0     O80507   1.585   7.009   2.170 -0.1892  0.6985  0.7470
  597MOL0     C80508   1.692   6.860   2.384 -0.5904  0.8672  0.0555
  597MOL0     C80509   1.742   6.786   2.493  0.4333 -0.6251  0.6637
  597MOL0     N80510   1.855   6.481   3.130  1.1251 -0.8160  0.1630
  597MOL0     N80511   1.794   6.369   3.127 -0.9712  0.2742  0.3353
  597MOL0     C80512   1.093   6.679   3.181 -0.1141 -0.6002  0.0627
  597MOL0     C80513   1.144   6.799   3.133 -0.3097  0.2235 -0.5070
  597MOL0     C80514   1.409   7.020   2.876  0.1301 -0.1771  0.3250
  597MOL0     C80515   1.495   7.000   2.773 -0.4392 -0.6087  1.0110
  597MOL0     C80516   1.502   7.072   2.655 -0.1785  0.3649 -0.4756
  597MOL0     C80517   1.416   7.177   2.633  0.9149 -0.0232  0.3107
  597MOL0     O80518   1.427   7.259   2.527 -0.3207 -0.1883 -0.7014
  597MOL0     C80519   1.420   7.208   2.388 -0.0075  0.3987  0.5896
  597MOL0     C80520   1.279   7.208   2.322  0.0903 -0.4265  0.0117
  597MOL0     C80521   1.276   7.158   2.184  0.1479 -0.2091 -0.0530
  597MOL0     C80522   1.135   7.152   2.123 -0.0817  1.4603 -0.8731
  597MOL0     C80523   1.058   7.272   2.076 -0.4276 -0.1622  0.4675
  597MOL0     C80524   1.006   7.373   2.031 -0.3906 -0.4764 -0.0920
  597MOL0     C80525   1.317   7.195   2.727  0.2900  0.8304 -0.6815
  597MOL0     C80526   1.308   7.126   2.858 -0.0168  0.2913  0.6656
  597MOL0     C80527   1.206   7.166   2.956 -0.3205 -0.5772  0.2362
  597MOL0     H80528   1.456   6.768   3.235 -0.1063 -1.6809  3.1180
  597MOL0     H80529   1.370   6.568   3.351  2.0735  0.8492  0.1087
  597MOL0     H80530   0.926   6.475   3.348 -2.6331 -3.4383  0.7988
  597MOL0     H80531   0.979   6.443   3.178 -0.5266  1.6491  0.4226
  597MOL0     H80532   0.892   6.257   3.319  0.3925 -0.7472  0.3661
  597MOL0     H80533   1.024   6.267   3.433  1.5199  0.9620  0.3097
  597MOL0     H80534   1.112   6.254   3.146 -1.2569  2.5839  0.7615
  597MOL0     H80535   1.044   6.103   3.223 -0.6968  0.0473 -3.2862
  597MOL0     H80536   1.279   6.261   3.327 -0.0114 -0.7096 -0.4986
  597MOL0     H80537   1.207   6.127   3.417  3.6673  1.3430  1.6402
  597MOL0     H80538   1.390   6.033   3.325  1.9567 -1.8553 -2.1172
  597MOL0     H80539   1.272   5.966   3.222 -1.4676  0.2856  2.0433
  597MOL0     H80540   1.465   6.047   3.082  1.1830  1.5711 -0.4321
  597MOL0     H80541   1.319   6.142   3.048  3.6426  5.8821 -2.6327
  597MOL0     H80542   1.505   6.274   3.242  3.5107 -5.4508  0.3278
  597MOL0     H80543   1.399   6.346   3.120 -1.3683 -1.6263 -0.8232
  597MOL0     H80544   1.627   6.174   3.012  1.8782  1.4201 -4.6859
  597MOL0     H80545   1.538   6.298   2.940  0.1333 -0.7439 -1.4473
  597MOL0     H80546   1.578   6.558   2.990  1.6730  1.8292 -1.2445
  597MOL0     H80547   1.705   6.786   3.125  3.1629  3.5229  1.0346
  597MOL0     H80548   1.869   6.735   3.142 -1.4027  3.2544  2.0235
  597MOL0     H80549   1.732   6.769   2.879 -2.1113  0.5853  1.7037
  597MOL0     H80550   1.833   6.897   2.957 -2.0897  0.0399  1.9545
  597MOL0     H80551   1.953   6.631   2.903 -0.3771  0.4497 -2.5667
  597MOL0     H80552   2.032   6.767   2.966  0.8235  2.0537 -2.6362
  597MOL0     H80553   2.080   6.767   2.735 -0.3021 -0.1338  2.3933
  597MOL0     H80554   1.967   6.893   2.772  2.0897 -0.2075  2.2637
  597MOL0     H80555   1.972   7.002   2.596 -1.7005 -0.4718  0.7835
  597MOL0     H80556   1.912   7.114   2.405  3.2538 -1.7549 -0.4477
  597MOL0     H80557   1.757   6.991   1.952  0.9194 -1.1421 -2.9883
  597MOL0     H80558   1.783   7.070   1.720 -2.1898 -2.7776  3.1100
  597MOL0     H80559   1.798   7.171   1.505  0.6996  0.7671 -1.5338
  597MOL0     H80560   1.631   7.203   1.543 -1.1497  2.2953  0.6011
  597MOL0     H80561   1.828   7.398   1.404  0.7183 -1.6607 -0.6637
  597MOL0     H80562   1.742   7.270   1.326 -1.5833 -0.4235 -0.3322
  597MOL0     H80563   1.614   7.449   1.254  2.8934 -1.8935  0.6098
  597MOL0     H80564   1.519   7.367   1.361  0.8991 -0.6869  0.0208
  597MOL0     H80565   1.700   7.590   1.460 -1.0016  2.4639  2.2995
  597MOL0     H80566   1.550   7.529   1.531 -0.8668 -3.5715 -0.9884
  597MOL0     H80567   1.416   7.617   1.336  2.3742 -0.0113 -4.3351
  597MOL0     H80568   1.545   7.703   1.279 -3.7541  2.7341 -0.1861
  597MOL0     H80569   1.432   7.736   1.564 -0.3037  2.6831  0.7031
  597MOL0     H80570   1.584   7.815   1.512  0.0635  1.4385 -1.2003
  597MOL0     H80571   1.393   7.910   1.321  2.1886  2.9433  0.7023
  597MOL0     H80572   1.477   7.991   1.456 -2.0935  1.0065  2.2428
  597MOL0     H80573   1.212   7.840   1.500  0.7524  0.5165 -0.1109
  597MOL0     H80574   1.291   7.974   1.585  1.3792  0.5156 -0.1036
  597MOL0     H80575   1.723   7.479   1.843  0.5871 -1.3066 -4.1660
  597MOL0     H80576   1.743   7.398   2.082  1.1443 -0.9390  0.6560
  597MOL0     H80577   1.614   6.820   2.320  0.0694 -0.0761 -0.1877
  597MOL0     H80578   1.690   6.693   2.514 -1.2051  0.6899  2.8688
  597MOL0     H80579   0.996   6.647   3.147 -1.7753  2.6965  1.2153
  597MOL0     H80580   1.100   6.865   3.059  0.1437 -1.4604 -2.3815
  597MOL0     H80581   1.579   6.930   2.775 -1.5339 -1.9834  0.4993
  597MOL0     H80582   1.578   7.039   2.585 -0.8403 -3.3926  0.3469
  597MOL0     H80583   1.442   7.101   2.377 -1.3171  0.3611 -3.7082
  597MOL0     H80584   1.489   7.258   2.319 -0.1877  0.6209  0.5721
  597MOL0     H80585   1.224   7.302   2.333  1.0653  0.0216  1.2548
  597MOL0     H80586   1.220   7.136   2.379  0.4124  0.8080  1.9817
  597MOL0     H80587   1.333   7.065   2.183  2.9662  1.2899  2.9958
  597MOL0     H80588   1.327   7.224   2.113 -1.5112 -1.6558 -2.7602
  597MOL0     H80589   1.148   7.095   2.030  3.2874  0.6028 -0.0246
  597MOL0     H80590   1.071   7.095   2.191  1.8870  0.9073  0.6275
  597MOL0     H80591   0.957   7.444   1.968 -1.7322 -1.9882 -0.8264
  597MOL0     H80592   1.259   7.284   2.707 -4.9122 -1.6127  1.4450
  597MOL0     H80593   1.137   7.087   2.989 -0.1544 -1.6509 -1.8126
  597MOL0     H80594   1.251   7.210   3.045  0.8292  2.3278 -1.6248
  597MOL0     H80595   1.142   7.235   2.901  1.2401 -0.5104 -1.6302
  598MOL0     O80596   5.132   1.308   1.903 -0.1261  0.8378  0.5322
  598MOL0     C80597   5.233   1.341   1.958  0.5101  0.7640  0.1269
  598MOL0     O80598   5.340   1.250   1.996 -0.0699  0.1523 -0.4553
  598MOL0     C80599   5.341   1.129   1.936  0.3696  0.0262 -0.8574
  598MOL0     C80600   5.384   1.018   2.017  1.3888  0.0113  0.0834
  598MOL0     C80601   5.414   0.903   1.954 -0.4124  0.0433 -0.6211
  598MOL0     C80602   5.384   0.877   1.818  0.0794  0.0276 -0.0539
  598MOL0     O80603   5.381   0.757   1.749 -0.0642  0.5394  0.8043
  598MOL0     C80604   5.518   0.711   1.727  0.3285 -0.2727 -0.6829
  598MOL0     C80605   5.550   0.731   1.583 -1.0035 -0.8862  0.0339
  598MOL0     C80606   5.613   0.866   1.549  0.2884  0.0401  0.1896
  598MOL0     C80607   5.731   0.910   1.640 -1.1024  1.1004 -0.1335
  598MOL0     C80608   5.771   1.054   1.618 -0.0812  0.0489  0.9942
  598MOL0     C80609   5.895   1.087   1.693 -0.8749  0.2297  0.5354
  598MOL0     C80610   5.996   1.142   1.600 -0.0187  0.1075 -0.5241
  598MOL0     C80611   6.066   1.047   1.502 -0.2795  1.0444  0.2960
  598MOL0     N80612   6.165   0.963   1.564  0.1237  0.6535 -0.4500
  598MOL0     C80613   6.291   1.008   1.595  0.6224 -0.0242  0.9736
  598MOL0     C80614   6.347   0.904   1.660 -0.8764 -0.8340  0.1734
  598MOL0     C80615   6.494   0.903   1.702 -0.9061 -0.0463 -0.2638
  598MOL0     C80616   6.520   0.839   1.841 -0.2431  0.7995  0.0162
  598MOL0     C80617   6.482   0.688   1.860  0.3017 -0.4734  0.3122
  598MOL0     C80618   6.526   0.635   2.006 -0.5732  0.1988 -0.2621
  598MOL0     O80619   6.436   0.697   2.100  0.1382 -0.5223 -0.5618
  598MOL0     C80620   6.419   0.643   2.225  1.5666  0.5683  0.1284
  598MOL0     C80621   6.493   0.541   2.279  0.9306  0.2840  0.3665
  598MOL0     C80622   6.475   0.510   2.412  1.1904 -0.0904  0.5108
  598MOL0     C80623   6.374   0.580   2.497 -0.8193  0.0799  0.9390
  598MOL0     C80624   6.365   0.537   2.639  0.4695  0.0363 -0.2547
  598MOL0     O80625   6.452   0.439   2.679  0.0375  0.2517 -0.0294
  598MOL0     C80626   6.489   0.410   2.811 -0.1938 -1.4202  0.4703
  598MOL0     C80627   6.629   0.422   2.839  1.2673  0.1178  0.1119
  598MOL0     C80628   6.685   0.402   2.965  0.9745  0.7892  0.1659
  598MOL0     C80629   6.600   0.390   3.072  0.1999 -0.3814  1.3826
  598MOL0     O80630   6.666   0.384   3.200  0.4205 -0.0832 -0.8311
  598MOL0     C80631   6.595   0.302   3.298 -0.1560 -0.2476 -0.1555
  598MOL0     C80632   6.669   0.304   3.425 -1.0681  0.2367 -0.4477
  598MOL0     C80633   6.762   0.183   3.439 -0.3683  0.7561  1.1104
  598MOL0     C80634   6.865   0.194   3.553  1.1594  0.6673  0.7234
  598MOL0     C80635   6.900   0.042   3.588 -0.0891 -0.2944 -0.1825
  598MOL0     C80636   6.995   0.036   3.718  0.2911 -0.4877  0.8354
  598MOL0     C80637   7.142   0.029   3.664  0.7674  0.5968 -0.0594
  598MOL0     C80638   7.250   0.082   3.767  0.3861  0.8424  0.1583
  598MOL0    Cl80639   7.224   0.248   3.812 -0.2224 -0.0596  0.2109
  598MOL0     C80640   6.469   0.381   3.048 -0.4535  0.3050  0.3624
  598MOL0     C80641   6.412   0.383   2.921  0.7726 -0.5074  0.2900
  598MOL0     O80642   6.285   0.593   2.709 -0.3379 -0.2392 -0.4957
  598MOL0     C80643   6.310   0.693   2.438  0.9409  1.2319  0.9211
  598MOL0     C80644   6.332   0.721   2.312 -1.1353 -1.0163  0.3956
  598MOL0     N80645   6.257   0.793   1.662  0.1255 -0.3628  0.1406
  598MOL0     N80646   6.147   0.836   1.610 -0.5579 -0.1136  0.5977
  598MOL0     C80647   5.345   0.985   1.749 -0.2556  0.3126  0.3300
  598MOL0     C80648   5.321   1.111   1.802 -0.0758 -0.3573 -0.5989
  598MOL0     C80649   5.228   1.480   2.009 -0.5152  1.1831 -0.0284
  598MOL0     C80650   5.255   1.491   2.146 -0.6647  0.1937  0.0203
  598MOL0     C80651   5.269   1.630   2.198  0.1119  0.5924 -0.4480
  598MOL0     C80652   5.264   1.740   2.118  0.5059 -0.3745 -0.4527
  598MOL0     O80653   5.293   1.866   2.159  0.3018  0.0130  0.6793
  598MOL0     C80654   5.332   1.888   2.299  1.2216  0.0059  0.3290
  598MOL0     C80655   5.306   2.039   2.356  0.0010 -1.1857  0.4440
  598MOL0     C80656   5.374   2.139   2.267  0.4734  0.2145 -0.3644
  598MOL0     C80657   5.350   2.289   2.321 -0.0267 -0.4906  1.0446
  598MOL0     C80658   5.213   2.325   2.358  0.3999 -0.6230  0.2980
  598MOL0     C80659   5.097   2.343   2.381  0.0657  0.0854 -0.6389
  598MOL0     C80660   5.223   1.721   1.986 -0.0686  0.0401  0.2491
  598MOL0     C80661   5.203   1.598   1.934  0.2075 -0.7076 -0.0993
  598MOL0     C80662   5.174   1.589   1.785 -0.3153 -0.1904 -0.0643
  598MOL0     H80663   5.411   1.034   2.121  0.2918  1.7873  0.1410
  598MOL0     H80664   5.457   0.821   2.011  1.9636  1.0061 -0.8954
  598MOL0     H80665   5.581   0.757   1.803 -1.5398  1.9558 -0.3686
  598MOL0     H80666   5.516   0.601   1.733 -0.1922 -0.1625  2.7761
  598MOL0     H80667   5.461   0.712   1.522 -0.0062 -0.0658 -1.7330
  598MOL0     H80668   5.627   0.656   1.563  1.5751  0.9814  2.1862
  598MOL0     H80669   5.537   0.944   1.552 -0.2379 -0.4846  0.8667
  598MOL0     H80670   5.636   0.882   1.443  1.7219  2.6634  0.7931
  598MOL0     H80671   5.721   0.900   1.748 -0.9496  3.4834  0.1579
  598MOL0     H80672   5.819   0.857   1.602 -0.8806  0.6825  0.9258
  598MOL0     H80673   5.778   1.063   1.509 -2.7101  1.8958  0.9022
  598MOL0     H80674   5.688   1.116   1.651  2.0775  0.6324  6.4058
  598MOL0     H80675   5.866   1.167   1.762  0.6224  1.3826 -0.1335
  598MOL0     H80676   5.940   1.000   1.743  2.1175  0.9642 -0.7175
  598MOL0     H80677   6.064   1.204   1.660 -2.6357  2.1879  0.5040
  598MOL0     H80678   5.960   1.214   1.526  2.1908  1.7345 -0.1284
  598MOL0     H80679   5.999   0.985   1.441  0.1381  1.3854 -0.5126
  598MOL0     H80680   6.121   1.108   1.431 -0.4764 -0.5758 -1.3314
  598MOL0     H80681   6.340   1.105   1.591  1.1112 -0.2670  0.9760
  598MOL0     H80682   6.543   0.856   1.616 -1.4697 -2.0790  0.4633
  598MOL0     H80683   6.537   1.003   1.708  0.3323 -0.4800 -1.4111
  598MOL0     H80684   6.620   0.865   1.877 -0.8472  2.9814  0.2808
  598MOL0     H80685   6.455   0.890   1.913 -0.7294 -0.0844  0.2193
  598MOL0     H80686   6.542   0.625   1.794 -1.6369 -3.1028  0.8940
  598MOL0     H80687   6.374   0.675   1.848  0.3376  0.9006 -2.0214
  598MOL0     H80688   6.626   0.669   2.036 -0.9482  0.4592  0.7188
  598MOL0     H80689   6.529   0.525   2.003  0.9657  0.2360 -2.5861
  598MOL0     H80690   6.560   0.467   2.235  3.3787  3.4931 -1.8009
  598MOL0     H80691   6.535   0.422   2.433  2.5776 -0.4427 -3.9195
  598MOL0     H80692   6.688   0.431   2.748 -0.6874 -0.8866 -1.3050
  598MOL0     H80693   6.792   0.400   2.980  0.6902  2.2908  3.3753
  598MOL0     H80694   6.497   0.350   3.312  0.1879  0.1050  1.1442
  598MOL0     H80695   6.572   0.199   3.269  0.6167  0.1992 -2.6566
  598MOL0     H80696   6.718   0.401   3.438  2.1348 -1.4517  1.0564
  598MOL0     H80697   6.595   0.295   3.505 -1.9858  2.3661 -0.9640
  598MOL0     H80698   6.704   0.092   3.456 -0.5061  0.8464  1.1317
  598MOL0     H80699   6.816   0.173   3.345 -1.6871  1.4494  0.2397
  598MOL0     H80700   6.819   0.235   3.644 -0.6670 -0.8632  0.5481
  598MOL0     H80701   6.947   0.257   3.519  1.3055 -0.3028 -0.8454
  598MOL0     H80702   6.953  -0.008   3.507  0.4580  0.6503 -0.4213
  598MOL0     H80703   6.807  -0.002   3.626 -0.3283  0.7407  0.4677
  598MOL0     H80704   6.985   0.119   3.789  6.1405  0.3227  1.2169
  598MOL0     H80705   6.966  -0.059   3.763 -1.8534 -0.5262 -0.5070
  598MOL0     H80706   7.143   0.090   3.573 -1.4589  1.1079  0.2076
  598MOL0     H80707   7.156  -0.073   3.628 -0.9670  0.1567  0.4401
  598MOL0     H80708   7.238   0.029   3.862  4.0184 -0.2994  0.1348
  598MOL0     H80709   7.355   0.079   3.739  0.3448 -1.2191  0.0193
  598MOL0     H80710   6.402   0.348   3.127  1.6315  0.9750  2.5178
  598MOL0     H80711   6.304   0.374   2.915  0.6968  1.1084 -2.1478
  598MOL0     H80712   6.238   0.750   2.496 -0.2865  1.2033 -0.5088
  598MOL0     H80713   6.275   0.807   2.278  0.2066 -0.5672 -0.8139
  598MOL0     H80714   5.320   0.967   1.645 -3.5111 -1.1737  1.2197
  598MOL0     H80715   5.294   1.189   1.732 -0.7587 -0.9977 -1.0655
  598MOL0     H80716   5.278   1.404   2.207 -4.2227 -0.8728  0.1026
  598MOL0     H80717   5.293   1.627   2.304  0.1400  0.0378 -0.4659
  598MOL0     H80718   5.441   1.881   2.310  1.5945  0.4596 -2.4024
  598MOL0     H80719   5.279   1.817   2.364  0.7405 -1.2237 -1.3383
  598MOL0     H80720   5.337   2.051   2.461  0.1339  3.6318  0.0965
  598MOL0     H80721   5.200   2.060   2.343 -0.1133 -3.0048 -2.3683
  598MOL0     H80722   5.329   2.139   2.167  0.0595 -1.7535 -0.2207
  598MOL0     H80723   5.482   2.124   2.258  0.4168 -1.5100  1.2872
  598MOL0     H80724   5.413   2.308   2.409  2.2537  1.8373 -0.9277
  598MOL0     H80725   5.376   2.367   2.249  1.3110  0.8383  2.8543
  598MOL0     H80726   5.000   2.387   2.386 -0.3604 -0.9758  1.3548
  598MOL0     H80727   5.223   1.807   1.921 -2.2818  0.6202  0.9450
  598MOL0     H80728   5.064   1.592   1.781 -0.2794  0.1665 -2.4297
  598MOL0     H80729   5.222   1.667   1.725 -2.3148  1.3921  0.2825
  598MOL0     H80730   5.202   1.496   1.735 -0.0087 -0.9990  1.5468
  599MOL0     O80731   6.723   3.893   8.903 -0.5228 -0.7212 -0.7595
  599MOL0     C80732   6.663   4.000   8.914 -0.1870 -0.6698  0.2700
  599MOL0     O80733   6.546   4.031   8.843  0.0927  0.1441 -0.3355
  599MOL0     C80734   6.474   3.959   8.754 -0.3045  0.0925 -0.0140
  599MOL0     C80735   6.514   3.834   8.708 -0.7777  0.0419  1.1813
  599MOL0     C80736   6.442   3.778   8.604  0.2045  1.2693  0.8480
  599MOL0     C80737   6.324   3.836   8.555  0.3640 -0.2554 -0.4140
  599MOL0     O80738   6.241   3.771   8.471 -0.6081 -0.8294  0.5844
  599MOL0     C80739   6.299   3.718   8.348 -0.1332 -1.2921  0.4106
  599MOL0     C80740   6.270   3.823   8.246 -0.7143 -0.0367  0.1517
  599MOL0     C80741   6.342   3.806   8.113  0.4423  1.0748  0.3120
  599MOL0     C80742   6.317   3.673   8.031 -0.4684 -0.5528  0.9488
  599MOL0     C80743   6.409   3.649   7.909 -0.6061 -0.0487 -0.3329
  599MOL0     C80744   6.428   3.766   7.809 -1.2066  0.2455  0.2913
  599MOL0     C80745   6.506   3.708   7.695  0.8330  0.4991  1.3642
  599MOL0     C80746   6.585   3.825   7.627  0.1702 -0.1643 -0.6095
  599MOL0     N80747   6.506   3.928   7.578 -0.4338 -0.0954  0.4716
  599MOL0     C80748   6.394   3.909   7.505  0.4666  0.0573  0.6001
  599MOL0     C80749   6.344   4.035   7.497 -0.5103 -0.4687  0.3094
  599MOL0     C80750   6.209   4.079   7.444 -0.4085 -0.2841 -0.3397
  599MOL0     C80751   6.133   3.993   7.333 -0.4954  0.1746  0.0962
  599MOL0     C80752   6.209   3.957   7.199  0.5242 -0.0639 -0.0606
  599MOL0     C80753   6.294   4.071   7.142 -0.5945  0.7135  0.3841
  599MOL0     O80754   6.220   4.189   7.117  0.1969 -0.4718  0.0620
  599MOL0     C80755   6.154   4.228   7.005 -0.1809  0.8627 -0.4076
  599MOL0     C80756   6.149   4.142   6.898  0.9612 -0.6578  0.5348
  599MOL0     C80757   6.072   4.173   6.784 -0.1017  0.7722 -0.5176
  599MOL0     C80758   5.981   4.280   6.788  0.8421  0.8463 -0.3411
  599MOL0     C80759   5.862   4.285   6.698 -0.4556 -0.4072 -0.3128
  599MOL0     O80760   5.828   4.167   6.623 -0.4769 -0.3543  0.6408
  599MOL0     C80761   5.706   4.139   6.559  0.6305  0.9053  0.0911
  599MOL0     C80762   5.671   4.000   6.535  0.4827 -0.0465 -0.3319
  599MOL0     C80763   5.562   3.974   6.448  0.2578  0.2339 -0.1002
  599MOL0     C80764   5.500   4.072   6.372 -0.9033  0.4095  0.3250
  599MOL0     O80765   5.402   4.048   6.282  0.6626 -0.1307 -0.1453
  599MOL0     C80766   5.277   4.056   6.361 -0.4408 -0.6481  0.1414
  599MOL0     C80767   5.175   4.080   6.249  0.2568  0.0535  0.5828
  599MOL0     C80768   5.037   4.106   6.311 -0.4882 -0.3949  0.3056
  599MOL0     C80769   4.927   4.142   6.212  0.2624 -0.3528 -0.0883
  599MOL0     C80770   4.790   4.156   6.288 -0.7969  0.0707  0.7467
  599MOL0     C80771   4.710   4.019   6.285 -0.2655  0.6740 -0.7170
  599MOL0     C80772   4.596   4.036   6.395 -1.7837  0.0900 -0.6350
  599MOL0     C80773   4.480   3.950   6.361  0.6971  0.5694 -0.8590
  599MOL0    Cl80774   4.527   3.775   6.413 -0.3973  0.5071  0.0798
  599MOL0     C80775   5.531   4.209   6.402 -1.0311 -0.2912  1.0285
  599MOL0     C80776   5.635   4.242   6.484 -0.0429  0.3566 -0.3451
  599MOL0     O80777   5.787   4.382   6.722 -0.0143  0.0942 -0.0684
  599MOL0     C80778   5.999   4.372   6.884 -1.7532  0.1541  0.3456
  599MOL0     C80779   6.080   4.350   6.996  0.2684  0.3156 -0.8510
  599MOL0     N80780   6.433   4.127   7.552  0.2752  1.0362  0.0593
  599MOL0     N80781   6.535   4.062   7.598  0.8203 -0.4322 -0.3926
  599MOL0     C80782   6.289   3.962   8.598  0.2798 -1.0647  0.0130
  599MOL0     C80783   6.367   4.020   8.695 -0.4859  0.0035 -0.3927
  599MOL0     C80784   6.724   4.105   8.992  1.2564 -0.3161  0.0883
  599MOL0     C80785   6.806   4.196   8.922 -0.0478 -0.3523 -0.0988
  599MOL0     C80786   6.865   4.304   8.984  0.4137 -0.4625 -0.3441
  599MOL0     C80787   6.847   4.327   9.117 -0.1283  1.5572 -0.8276
  599MOL0     O80788   6.913   4.425   9.193 -0.8348 -0.3985 -0.1840
  599MOL0     C80789   7.028   4.497   9.140 -0.4198  0.1363  0.4187
  599MOL0     C80790   7.127   4.491   9.254  0.0549 -0.2802  0.5691
  599MOL0     C80791   7.204   4.619   9.258 -0.1514 -0.0869 -0.4732
  599MOL0     C80792   7.312   4.614   9.373  0.0865 -0.7399  0.1959
  599MOL0     C80793   7.263   4.590   9.506 -0.9666  0.3491  0.7609
  599MOL0     C80794   7.219   4.541   9.603  1.4006  0.1605 -1.1796
  599MOL0     C80795   6.765   4.234   9.189  0.2570  0.3798  0.7275
  599MOL0     C80796   6.704   4.127   9.129  0.0271  0.4976  0.8770
  599MOL0     C80797   6.612   4.034   9.207 -0.5288  0.3909 -0.8920
  599MOL0     H80798   6.598   3.780   8.751  2.5584  2.4469 -1.6654
  599MOL0     H80799   6.467   3.689   8.546  1.4367  2.8561 -1.1665
  599MOL0     H80800   6.408   3.720   8.363  0.0714 -2.6242 -0.6962
  599MOL0     H80801   6.266   3.619   8.317 -0.6179 -0.9546 -0.1558
  599MOL0     H80802   6.306   3.921   8.277 -3.1170  0.4266  1.7062
  599MOL0     H80803   6.161   3.819   8.234 -0.4578 -0.4061 -3.0775
  599MOL0     H80804   6.450   3.817   8.101  0.3870  0.0306 -1.3968
  599MOL0     H80805   6.305   3.896   8.063  3.6309  1.3355 -1.8004
  599MOL0     H80806   6.314   3.595   8.107 -2.2533 -1.0430  0.4305
  599MOL0     H80807   6.218   3.679   7.985  0.2615 -0.0121 -0.6490
  599MOL0     H80808   6.503   3.612   7.953 -0.8513 -0.4911 -0.1718
  599MOL0     H80809   6.359   3.563   7.864 -1.3022 -0.0270  0.3851
  599MOL0     H80810   6.333   3.813   7.782 -1.2359  1.3139  2.1110
  599MOL0     H80811   6.486   3.841   7.864  2.1162 -2.8780  1.4315
  599MOL0     H80812   6.437   3.654   7.631  1.0278 -1.5115  2.7605
  599MOL0     H80813   6.581   3.633   7.722  0.8241 -1.3448 -2.8853
  599MOL0     H80814   6.662   3.866   7.693  0.2848  1.6896 -1.8028
  599MOL0     H80815   6.647   3.788   7.545 -0.3475  2.1181 -2.1417
  599MOL0     H80816   6.345   3.817   7.475 -6.0209  3.6147 -1.6385
  599MOL0     H80817   6.139   4.104   7.523 -0.1737  2.0385 -0.8030
  599MOL0     H80818   6.226   4.167   7.381  1.6228 -1.0297 -0.9218
  599MOL0     H80819   6.120   3.893   7.375 -2.5665  0.3702  0.0147
  599MOL0     H80820   6.037   4.043   7.317  0.2998  0.9272 -3.1181
  599MOL0     H80821   6.132   3.918   7.133  3.0435 -2.0492 -1.9983
  599MOL0     H80822   6.272   3.869   7.208 -0.7911 -0.9924  0.4643
  599MOL0     H80823   6.337   4.027   7.052 -0.4204  2.4690 -0.4496
  599MOL0     H80824   6.389   4.079   7.196 -0.5729  0.4026  0.3886
  599MOL0     H80825   6.197   4.045   6.913  1.3257 -0.3205  1.6518
  599MOL0     H80826   6.062   4.114   6.694  0.1730 -1.5237  0.8728
  599MOL0     H80827   5.735   3.926   6.581 -2.3536 -2.2238  0.3716
  599MOL0     H80828   5.521   3.873   6.448 -0.1123  0.3393 -2.1822
  599MOL0     H80829   5.262   3.962   6.416  1.6620  1.6067  5.1644
  599MOL0     H80830   5.278   4.134   6.437  2.9215 -0.4696  0.0572
  599MOL0     H80831   5.198   4.166   6.186 -0.8160 -1.3532 -1.8552
  599MOL0     H80832   5.180   3.981   6.203  0.3814 -1.1891  3.1053
  599MOL0     H80833   5.010   4.017   6.369 -0.4946  0.5074  1.7185
  599MOL0     H80834   5.051   4.195   6.373 -0.2818  0.1275 -0.4718
  599MOL0     H80835   4.914   4.063   6.138 -0.7566  0.2094 -0.5323
  599MOL0     H80836   4.955   4.240   6.171  0.0696  0.8327  2.4038
  599MOL0     H80837   4.717   4.218   6.236 -2.5110 -1.5393  1.1222
  599MOL0     H80838   4.799   4.192   6.391  1.7967 -0.3490  0.7256
  599MOL0     H80839   4.660   3.996   6.190 -1.4049 -0.7063  0.1756
  599MOL0     H80840   4.781   3.943   6.316 -1.3671  0.5423  1.7182
  599MOL0     H80841   4.562   4.139   6.381  0.2545  0.5763 -2.7992
  599MOL0     H80842   4.629   4.002   6.494 -2.7408  0.5809 -0.1414
  599MOL0     H80843   4.393   3.983   6.419 -0.2970 -0.8851 -1.4510
  599MOL0     H80844   4.464   3.954   6.253  1.4066 -2.3653 -1.1562
  599MOL0     H80845   5.463   4.275   6.350 -0.4119 -1.2525 -1.1413
  599MOL0     H80846   5.654   4.346   6.509  0.6255  0.6104 -1.7653
  599MOL0     H80847   5.944   4.466   6.886 -4.5541 -1.2296 -2.9453
  599MOL0     H80848   6.084   4.412   7.085 -0.7880  2.1745 -2.0479
  599MOL0     H80849   6.215   4.008   8.533 -1.0429 -4.2840 -0.9419
  599MOL0     H80850   6.343   4.120   8.730  1.2851 -0.2129  1.6264
  599MOL0     H80851   6.842   4.183   8.820 -2.1168  0.5577 -0.9883
  599MOL0     H80852   6.933   4.366   8.925  1.8534  0.1804  1.8528
  599MOL0     H80853   7.006   4.604   9.129 -1.1079 -0.0070  0.3654
  599MOL0     H80854   7.069   4.444   9.054  0.8142 -2.9814  2.7375
  599MOL0     H80855   7.205   4.415   9.241  0.5911  0.1687  1.0892
  599MOL0     H80856   7.071   4.479   9.347  0.8182  0.1296  1.0848
  599MOL0     H80857   7.137   4.705   9.269  1.3392  1.0006  0.5179
  599MOL0     H80858   7.246   4.628   9.157  1.6867  2.8491  0.4292
  599MOL0     H80859   7.384   4.534   9.354 -0.5884 -1.4916  0.7367
  599MOL0     H80860   7.363   4.711   9.374 -3.5850  1.7025 -4.6706
  599MOL0     H80861   7.168   4.499   9.688 -0.1200 -2.8944 -3.3745
  599MOL0     H80862   6.768   4.241   9.297  1.4875 -1.2949  0.8261
  599MOL0     H80863   6.646   3.930   9.212 -0.4013  0.4682  2.1842
  599MOL0     H80864   6.598   4.071   9.309  0.0855  0.2545 -0.7529
  599MOL0     H80865   6.513   4.031   9.160 -2.0331 -2.5072  2.0546
  600MOL0     O80866   3.928   2.671   2.417 -0.4778 -0.3260  0.7567
  600MOL0     C80867   3.857   2.772   2.396  0.1179  0.3506 -1.2375
  600MOL0     O80868   3.907   2.899   2.369 -0.2764  0.3530  0.2176
  600MOL0     C80869   4.046   2.909   2.356 -0.2519 -0.0820  0.3129
  600MOL0     C80870   4.131   2.965   2.456 -0.7665 -0.3594  0.7705
  600MOL0     C80871   4.265   2.982   2.432  1.1820  0.3731  0.0232
  600MOL0     C80872   4.317   2.949   2.309  0.0672  0.3825  0.4606
  600MOL0     O80873   4.446   2.971   2.264 -0.4016 -1.0757  0.0773
  600MOL0     C80874   4.560   2.973   2.341  1.1749  1.3023 -0.0560
  600MOL0     C80875   4.598   2.831   2.383  0.3446  0.7179  0.1668
  600MOL0     C80876   4.656   2.842   2.526  0.0457  0.0785 -0.1626
  600MOL0     C80877   4.725   2.708   2.578  0.5598  0.1918  0.1950
  600MOL0     C80878   4.865   2.679   2.520  0.4565  0.5112 -0.9815
  600MOL0     C80879   4.969   2.761   2.594 -0.2171 -0.3665 -0.1654
  600MOL0     C80880   5.107   2.709   2.536  0.6782  0.8645  0.6428
  600MOL0     C80881   5.228   2.780   2.597 -1.0563  0.7981  0.5702
  600MOL0     N80882   5.344   2.729   2.522 -0.7301  0.3091 -0.4887
  600MOL0     C80883   5.460   2.675   2.579  1.1746 -0.2006  0.0003
  600MOL0     C80884   5.553   2.673   2.475 -0.3678 -0.3764 -1.0353
  600MOL0     C80885   5.697   2.627   2.487 -0.3809 -0.3621 -0.4533
  600MOL0     C80886   5.795   2.735   2.550 -0.6898 -1.5499  0.2886
  600MOL0     C80887   5.763   2.888   2.544  0.4920  0.0518  0.0124
  600MOL0     C80888   5.651   2.938   2.646  0.0784 -0.0781  0.1256
  600MOL0     O80889   5.631   2.855   2.767 -0.4158  0.8691  0.1698
  600MOL0     C80890   5.721   2.860   2.866  0.2431  0.2089 -1.3305
  600MOL0     C80891   5.690   2.788   2.986  0.1576 -0.9740 -0.6291
  600MOL0     C80892   5.761   2.807   3.106  0.3139  0.0273  0.7439
  600MOL0     C80893   5.859   2.907   3.104 -0.3016  1.0496 -0.2335
  600MOL0     C80894   5.930   2.937   3.229  0.2924 -0.4888 -0.5828
  600MOL0     O80895   5.909   2.849   3.338  0.2047 -0.7145  0.6675
  600MOL0     C80896   5.975   2.890   3.451  0.1431  0.3277 -0.6103
  600MOL0     C80897   6.053   2.788   3.517  0.9679 -0.3359 -0.4177
  600MOL0     C80898   6.111   2.815   3.646 -0.8000 -0.6791  0.5160
  600MOL0     C80899   6.096   2.948   3.700  0.0616 -0.1000  0.6362
  600MOL0     O80900   6.137   2.999   3.820  0.2188  0.1995  0.3675
  600MOL0     C80901   6.158   2.895   3.922 -0.1913 -1.0924  0.1824
  600MOL0     C80902   6.304   2.893   3.951 -0.4920 -0.3423  0.5324
  600MOL0     C80903   6.336   2.799   4.071 -0.8083  0.4920 -0.0282
  600MOL0     C80904   6.495   2.797   4.097 -0.4717  0.0464  0.5489
  600MOL0     C80905   6.528   2.702   4.217  0.8248 -0.4012  0.5963
  600MOL0     C80906   6.523   2.784   4.351  0.1994  0.3443 -0.3182
  600MOL0     C80907   6.554   2.689   4.467  0.2743  0.4717 -0.0489
  600MOL0     C80908   6.710   2.654   4.464  0.0428  0.4876 -0.9683
  600MOL0    Cl80909   6.748   2.595   4.626 -0.2365  0.3088  0.0213
  600MOL0     C80910   6.025   3.038   3.627 -0.1369 -0.8126 -0.9255
  600MOL0     C80911   5.964   3.016   3.515 -0.6841 -0.8122  0.2092
  600MOL0     O80912   5.994   3.038   3.236 -0.0291 -0.5024  1.0270
  600MOL0     C80913   5.910   2.966   2.983 -0.0070 -0.0706 -0.2110
  600MOL0     C80914   5.843   2.937   2.864  0.4600  0.1617 -0.0586
  600MOL0     N80915   5.485   2.712   2.354  0.1739  0.7916 -0.9524
  600MOL0     N80916   5.366   2.754   2.385  1.0412 -0.4401  0.1633
  600MOL0     C80917   4.241   2.894   2.213 -0.1040 -0.5781  0.0943
  600MOL0     C80918   4.102   2.877   2.228  0.1958 -1.0437  0.5669
  600MOL0     C80919   3.712   2.766   2.388  0.5760 -0.9328 -0.0611
  600MOL0     C80920   3.646   2.844   2.474  0.1157  0.8277 -0.0905
  600MOL0     C80921   3.502   2.864   2.479  0.0479 -0.3690  0.0967
  600MOL0     C80922   3.426   2.798   2.383 -0.3038 -0.3550  0.0493
  600MOL0     O80923   3.290   2.794   2.377 -0.7141 -0.3170 -0.6277
  600MOL0     C80924   3.202   2.856   2.469  1.1394  0.0900 -1.1728
  600MOL0     C80925   3.073   2.903   2.402 -0.2917  0.9303  1.0518
  600MOL0     C80926   3.068   3.000   2.272  0.2436 -0.1398  0.0560
  600MOL0     C80927   3.191   2.980   2.179 -0.1811  0.2864 -0.4707
  600MOL0     C80928   3.199   3.090   2.082 -0.2735 -0.1939  0.3874
  600MOL0     C80929   3.196   3.174   1.986  0.5861  0.6742 -0.3377
  600MOL0     C80930   3.498   2.708   2.284  1.0742 -0.7597  1.2376
  600MOL0     C80931   3.643   2.700   2.284 -0.0511  0.1404  0.2827
  600MOL0     C80932   3.712   2.628   2.182 -0.0875  0.2727  0.7893
  600MOL0     H80933   4.082   2.980   2.552 -0.3496  0.6872  0.8265
  600MOL0     H80934   4.315   3.015   2.522 -0.8743  0.1083  1.3368
  600MOL0     H80935   4.638   3.012   2.275  1.7909  3.2239  1.7082
  600MOL0     H80936   4.561   3.047   2.422 -0.4301  2.3714 -0.9621
  600MOL0     H80937   4.679   2.793   2.321  2.2419  0.5617  2.5960
  600MOL0     H80938   4.515   2.760   2.387  1.5853 -0.7694  3.7515
  600MOL0     H80939   4.576   2.874   2.593 -1.5077 -1.4479 -1.2093
  600MOL0     H80940   4.739   2.912   2.517 -0.8325  1.0775 -0.6324
  600MOL0     H80941   4.729   2.724   2.686 -0.6002 -1.2637  0.4793
  600MOL0     H80942   4.656   2.630   2.545 -0.4724  1.7547 -1.5378
  600MOL0     H80943   4.899   2.575   2.525  5.4464  1.8396 -2.1840
  600MOL0     H80944   4.865   2.691   2.411 -1.0802 -0.5774 -1.1439
  600MOL0     H80945   4.951   2.868   2.581 -1.1381 -0.2438  1.7868
  600MOL0     H80946   4.976   2.737   2.701  1.7573  0.9762  0.0417
  600MOL0     H80947   5.115   2.730   2.429  4.1752 -5.7158 -0.8538
  600MOL0     H80948   5.116   2.601   2.550  0.2659  0.7637  0.1665
  600MOL0     H80949   5.217   2.882   2.559 -2.6191  0.4134 -0.1154
  600MOL0     H80950   5.222   2.769   2.705 -2.6415  1.7741  0.6264
  600MOL0     H80951   5.490   2.645   2.678  1.7875  2.2082  0.6181
  600MOL0     H80952   5.679   2.538   2.547 -0.7701  0.8390  1.2931
  600MOL0     H80953   5.745   2.595   2.394  4.2018 -0.3171  1.5897
  600MOL0     H80954   5.813   2.724   2.657  2.1083 -3.6601 -0.2774
  600MOL0     H80955   5.896   2.719   2.511  1.3009  2.8544  2.8863
  600MOL0     H80956   5.739   2.919   2.442 -0.9757 -1.5901 -0.1708
  600MOL0     H80957   5.855   2.934   2.583  2.2829  0.1480 -3.8885
  600MOL0     H80958   5.549   2.933   2.606 -0.8503 -1.5359  2.4535
  600MOL0     H80959   5.677   3.038   2.681 -1.7993 -0.0639  1.6670
  600MOL0     H80960   5.600   2.727   2.985 -1.9625  1.9738 -1.1392
  600MOL0     H80961   5.727   2.757   3.196 -0.0674  0.2519  0.7269
  600MOL0     H80962   6.059   2.686   3.480 -3.5607 -0.4946 -1.3144
  600MOL0     H80963   6.154   2.729   3.695  0.9833 -0.9448 -1.3587
  600MOL0     H80964   6.115   2.929   4.017  0.1071 -3.6255  1.2855
  600MOL0     H80965   6.105   2.800   3.914  0.0114 -1.4608  2.4667
  600MOL0     H80966   6.351   2.863   3.858  0.3941  1.1840  0.4529
  600MOL0     H80967   6.327   2.996   3.980  2.1348 -0.0028 -2.3289
  600MOL0     H80968   6.301   2.837   4.167 -0.1107  2.5959 -0.5502
  600MOL0     H80969   6.289   2.702   4.054 -0.3678  0.2577  0.0766
  600MOL0     H80970   6.533   2.899   4.113  0.4882 -0.5304  2.2227
  600MOL0     H80971   6.553   2.755   4.015 -1.7033 -0.7214  0.0477
  600MOL0     H80972   6.624   2.650   4.212  0.6714 -0.6549  0.2228
  600MOL0     H80973   6.452   2.623   4.207 -1.4733  1.6995  0.6485
  600MOL0     H80974   6.587   2.873   4.343  1.2732 -0.4647 -0.9807
  600MOL0     H80975   6.420   2.819   4.367 -0.3118 -0.0987 -2.3145
  600MOL0     H80976   6.491   2.600   4.460  1.5068 -0.6745  2.2020
  600MOL0     H80977   6.529   2.743   4.559 -0.0953 -0.7178  0.5690
  600MOL0     H80978   6.743   2.590   4.382  1.5434  1.5802 -1.2540
  600MOL0     H80979   6.762   2.749   4.450  1.9984 -0.2276  0.7927
  600MOL0     H80980   6.016   3.139   3.667  1.5149 -0.7164 -0.7259
  600MOL0     H80981   5.909   3.095   3.466  1.2085  0.6062  0.2326
  600MOL0     H80982   5.989   3.040   2.982  0.4937 -0.5995 -0.1049
  600MOL0     H80983   5.874   3.005   2.786 -1.7583  0.5422 -0.6624
  600MOL0     H80984   4.283   2.866   2.117 -1.3401  1.1011 -0.9861
  600MOL0     H80985   4.041   2.857   2.141 -1.9399  3.4161  0.7565
  600MOL0     H80986   3.707   2.888   2.552 -0.1240  0.8964  0.0604
  600MOL0     H80987   3.460   2.935   2.550 -0.6968 -2.4984  1.9181
  600MOL0     H80988   3.243   2.933   2.535  0.2871 -1.5563  1.4575
  600MOL0     H80989   3.163   2.785   2.542  0.2920  2.1273  0.4547
  600MOL0     H80990   3.045   2.965   2.487  0.1664 -1.2299  2.8788
  600MOL0     H80991   2.998   2.825   2.390  0.7062  0.1686 -0.5004
  600MOL0     H80992   3.063   3.104   2.306 -1.6274  0.4610 -1.8089
  600MOL0     H80993   2.977   2.987   2.212 -0.4394  0.3174  0.9693
  600MOL0     H80994   3.281   3.000   2.238  1.4006  3.7210 -3.6084
  600MOL0     H80995   3.183   2.876   2.145 -1.1355 -0.8016  2.7230
  600MOL0     H80996   3.188   3.235   1.898  1.5248  0.4826 -0.5689
  600MOL0     H80997   3.427   2.659   2.218 -0.3743  2.8733 -0.1853
  600MOL0     H80998   3.792   2.567   2.226 -1.5774 -1.0418  1.7854
  600MOL0     H80999   3.644   2.561   2.129 -1.1502  2.9428 -1.4499
  600MOL0     H81000   3.754   2.698   2.109  0.2143 -0.9050 -0.1901
  601MOL0     O81001   7.750   0.902   3.988 -0.8625  0.5444  0.4251
  601MOL0     C81002   7.863   0.908   4.048  0.1576 -0.0310  0.7086
  601MOL0     O81003   7.961   0.994   4.008  0.0593 -0.3400 -0.5195
  601MOL0     C81004   7.928   1.113   3.944 -0.2759 -0.7817  0.7975
  601MOL0     C81005   7.815   1.188   3.974 -0.6318  0.5963 -0.1645
  601MOL0     C81006   7.788   1.310   3.902 -0.7194 -0.0306  0.0682
  601MOL0     C81007   7.883   1.352   3.801  0.4508 -1.0729  0.8536
  601MOL0     O81008   7.864   1.455   3.719 -0.3090 -0.0683  0.0238
  601MOL0     C81009   7.734   1.493   3.671  0.1179  0.9256 -0.6642
  601MOL0     C81010   7.686   1.381   3.572  0.1551 -0.7376  1.1613
  601MOL0     C81011   7.597   1.268   3.619 -0.8221  0.1224 -0.0680
  601MOL0     C81012   7.589   1.154   3.514 -0.8956 -0.3264 -0.4234
  601MOL0     C81013   7.481   1.053   3.545  0.3338  0.0132  0.6479
  601MOL0     C81014   7.332   1.102   3.549 -0.4092 -0.2029  1.1808
  601MOL0     C81015   7.242   0.981   3.583  0.3686  0.1758 -0.3235
  601MOL0     C81016   7.094   1.008   3.580 -0.0783  0.4223 -0.3001
  601MOL0     N81017   7.039   1.000   3.443  0.4854 -0.2065  0.3702
  601MOL0     C81018   7.016   0.879   3.381  0.2083  0.0350  0.1485
  601MOL0     C81019   6.952   0.907   3.270 -0.7422 -0.1212 -0.2565
  601MOL0     C81020   6.932   0.801   3.168  1.1191  0.4550 -0.1670
  601MOL0     C81021   6.984   0.850   3.030 -0.2502 -0.2908  0.7542
  601MOL0     C81022   7.016   0.725   2.928 -0.3976 -0.0756 -0.3408
  601MOL0     C81023   7.086   0.779   2.801  0.0398 -0.0675 -0.0403
  601MOL0     O81024   7.146   0.665   2.725  0.9089 -1.1030 -0.3959
  601MOL0     C81025   7.087   0.626   2.606  0.1322  0.2033  0.7618
  601MOL0     C81026   6.948   0.603   2.588  0.5057 -1.4834 -0.8552
  601MOL0     C81027   6.889   0.556   2.468 -0.1910 -0.3194 -0.0137
  601MOL0     C81028   6.973   0.509   2.361 -0.1457 -0.4435  0.0492
  601MOL0     C81029   6.925   0.474   2.229  0.3770 -0.8198  0.5069
  601MOL0     O81030   7.006   0.431   2.125 -0.0576 -0.1596 -0.0261
  601MOL0     C81031   6.971   0.456   2.000 -0.2090  0.0480 -0.0846
  601MOL0     C81032   7.037   0.372   1.908  0.2082  0.5945 -0.3154
  601MOL0     C81033   7.019   0.372   1.772 -0.5619  0.0360 -0.1510
  601MOL0     C81034   6.933   0.463   1.718 -0.7306 -0.2000 -0.1561
  601MOL0     O81035   6.917   0.465   1.588 -0.3413 -0.5372  0.7562
  601MOL0     C81036   6.840   0.355   1.535 -0.5688 -0.0302 -0.8222
  601MOL0     C81037   6.696   0.405   1.529 -0.0556 -0.4011 -0.3369
  601MOL0     C81038   6.681   0.519   1.436  0.7831 -0.9578  0.7987
  601MOL0     C81039   6.536   0.589   1.438 -0.2570  0.0234  0.5667
  601MOL0     C81040   6.432   0.491   1.381  0.0365 -0.7558 -0.1330
  601MOL0     C81041   6.295   0.556   1.393 -1.7372 -0.8315 -0.1720
  601MOL0     C81042   6.182   0.462   1.361 -0.2169 -0.4677  0.6532
  601MOL0     C81043   6.035   0.520   1.392  0.3208  0.9112  0.3262
  601MOL0    Cl81044   5.919   0.381   1.420  0.1965  0.0082 -0.0071
  601MOL0     C81045   6.875   0.555   1.801 -0.4157  0.5448 -0.0531
  601MOL0     C81046   6.878   0.540   1.944 -0.2356 -0.2023 -0.6195
  601MOL0     O81047   6.805   0.486   2.209 -0.1464 -0.0798 -0.0467
  601MOL0     C81048   7.108   0.521   2.382 -0.5700 -0.1721 -0.2338
  601MOL0     C81049   7.170   0.579   2.502  1.3914 -0.1971  0.1005
  601MOL0     N81050   6.939   1.043   3.263 -0.0822  0.7109  0.3500
  601MOL0     N81051   6.987   1.101   3.368  0.4493 -0.0484 -0.2296
  601MOL0     C81052   7.998   1.281   3.778  0.5083 -0.0826  0.0164
  601MOL0     C81053   8.018   1.162   3.841  0.5394  0.4255 -0.2263
  601MOL0     C81054   7.879   0.822   4.165  0.2336 -0.2028  1.2147
  601MOL0     C81055   7.791   0.826   4.269 -0.6851  0.1135  0.4502
  601MOL0     C81056   7.822   0.740   4.383 -0.1254  0.7870 -0.5269
  601MOL0     C81057   7.938   0.668   4.387 -0.0775  0.3969 -0.2401
  601MOL0     O81058   7.979   0.590   4.490  0.5530  0.6021  0.3209
  601MOL0     C81059   7.918   0.461   4.482 -0.1808  0.6112 -0.2378
  601MOL0     C81060   7.908   0.407   4.623  0.2227 -0.0736 -0.4475
  601MOL0     C81061   7.800   0.303   4.637 -0.8983 -1.0498 -0.3186
  601MOL0     C81062   7.832   0.211   4.748 -1.4122  0.4567  0.8706
  601MOL0     C81063   7.835   0.285   4.874  0.4499  0.1094 -0.4410
  601MOL0     C81064   7.838   0.331   4.985  0.3273 -0.4628 -0.7665
  601MOL0     C81065   8.027   0.673   4.281  0.2883  0.1313  0.1199
  601MOL0     C81066   7.997   0.747   4.173  1.5521  0.0563  0.2902
  601MOL0     C81067   8.105   0.745   4.071 -0.2627  0.1117 -0.3564
  601MOL0     H81068   7.745   1.149   4.047 -1.6943  0.4916 -1.2158
  601MOL0     H81069   7.698   1.370   3.895 -1.5533 -1.3886 -1.5226
  601MOL0     H81070   7.656   1.516   3.745 -1.5215  0.3335 -2.1274
  601MOL0     H81071   7.737   1.583   3.610  0.2348  1.6014  0.3125
  601MOL0     H81072   7.778   1.336   3.535 -0.3037 -3.0343  2.5703
  601MOL0     H81073   7.628   1.427   3.493 -1.2726 -1.4362  1.7619
  601MOL0     H81074   7.496   1.306   3.634 -1.7471 -2.5683  1.1505
  601MOL0     H81075   7.626   1.225   3.715  0.6810  1.0157 -0.0796
  601MOL0     H81076   7.583   1.198   3.414  1.7934  1.2583 -0.0046
  601MOL0     H81077   7.690   1.114   3.525 -0.1393  1.8665  1.2721
  601MOL0     H81078   7.489   0.984   3.460  3.9120  1.4984 -0.4375
  601MOL0     H81079   7.504   1.006   3.641  1.0678  0.3826  0.6580
  601MOL0     H81080   7.315   1.189   3.613 -4.8237  1.3596 -1.7013
  601MOL0     H81081   7.304   1.145   3.453 -1.6328 -1.9709  0.6998
  601MOL0     H81082   7.268   0.950   3.685 -1.1572 -4.2418 -1.0826
  601MOL0     H81083   7.275   0.901   3.517 -0.3502 -2.0815  1.9137
  601MOL0     H81084   7.054   0.925   3.637 -0.6062 -0.4501 -1.8848
  601MOL0     H81085   7.080   1.101   3.636  0.0792 -1.5038  3.2009
  601MOL0     H81086   7.040   0.782   3.422  0.7991  1.5060  3.6026
  601MOL0     H81087   6.981   0.709   3.202  1.2697  1.3904  2.3488
  601MOL0     H81088   6.826   0.776   3.166  1.5888 -1.9441  1.4067
  601MOL0     H81089   6.901   0.911   2.994 -2.8052 -2.3263  2.7587
  601MOL0     H81090   7.075   0.910   3.039 -0.6158  1.3992 -4.1305
  601MOL0     H81091   6.924   0.672   2.906 -0.3105 -0.8559  1.0502
  601MOL0     H81092   7.076   0.651   2.983 -2.2271 -2.9111 -1.9482
  601MOL0     H81093   7.165   0.849   2.827  2.0123 -1.0740 -2.8364
  601MOL0     H81094   7.009   0.838   2.750 -1.1319  0.8805  2.6781
  601MOL0     H81095   6.884   0.624   2.674 -1.2559 -0.2276 -2.3780
  601MOL0     H81096   6.781   0.563   2.455  0.0311  4.3153 -1.1023
  601MOL0     H81097   7.122   0.310   1.938 -1.6525 -2.5142 -1.0799
  601MOL0     H81098   7.077   0.294   1.724 -0.0224 -0.0374  0.6000
  601MOL0     H81099   6.880   0.314   1.442 -2.6657 -3.4219 -0.4137
  601MOL0     H81100   6.850   0.275   1.609  0.2332 -0.3112 -1.2345
  601MOL0     H81101   6.645   0.313   1.500  0.6821  0.1193 -3.6595
  601MOL0     H81102   6.671   0.432   1.632 -1.7178 -0.7016 -0.6419
  601MOL0     H81103   6.752   0.598   1.461 -0.8940  0.1772  2.2798
  601MOL0     H81104   6.695   0.484   1.334  1.8327 -0.4664  0.7649
  601MOL0     H81105   6.540   0.681   1.379  3.1453 -2.0382 -2.8925
  601MOL0     H81106   6.503   0.610   1.540 -3.1164  3.6276 -0.8992
  601MOL0     H81107   6.438   0.399   1.441  2.3696  0.3361  1.4884
  601MOL0     H81108   6.430   0.457   1.277 -1.7240  1.3262 -0.8369
  601MOL0     H81109   6.279   0.599   1.492 -0.8411  2.8041 -1.4410
  601MOL0     H81110   6.309   0.634   1.318  4.8672 -1.0379  0.2006
  601MOL0     H81111   6.183   0.378   1.431 -0.1506  1.4327  3.0644
  601MOL0     H81112   6.193   0.429   1.257  0.2334 -1.1377  0.9056
  601MOL0     H81113   6.033   0.578   1.484  0.5964  0.5157  0.5841
  601MOL0     H81114   6.006   0.587   1.310  0.2259 -1.7410 -1.9769
  601MOL0     H81115   6.815   0.631   1.752 -2.7119 -2.1501 -1.7371
  601MOL0     H81116   6.825   0.620   1.995  0.3372  0.6966 -1.3802
  601MOL0     H81117   7.186   0.505   2.308  0.5779 -2.7338  1.3808
  601MOL0     H81118   7.278   0.582   2.505  1.4957 -1.9532 -0.9128
  601MOL0     H81119   8.071   1.320   3.708  0.4715  0.0896  0.0723
  601MOL0     H81120   8.106   1.103   3.817 -0.5128 -1.1871 -0.2277
  601MOL0     H81121   7.699   0.884   4.271  1.5282  4.0034  0.2171
  601MOL0     H81122   7.759   0.729   4.471  1.7267  1.2072  0.9251
  601MOL0     H81123   7.985   0.394   4.427  1.5819  1.6819  0.4982
  601MOL0     H81124   7.820   0.463   4.434 -0.2311  1.4338 -0.1187
  601MOL0     H81125   7.885   0.495   4.683  2.1774  0.3607 -0.2515
  601MOL0     H81126   8.007   0.369   4.649  2.5422  3.3144 -3.3621
  601MOL0     H81127   7.797   0.251   4.541 -2.8530  2.7547 -2.5426
  601MOL0     H81128   7.710   0.361   4.658  1.8907  3.1152  1.4532
  601MOL0     H81129   7.752   0.137   4.751 -0.2720 -0.9499 -1.2352
  601MOL0     H81130   7.931   0.166   4.738 -0.4532  2.4105  1.0672
  601MOL0     H81131   7.833   0.391   5.074  1.2719  3.6516 -3.2425
  601MOL0     H81132   8.125   0.627   4.286  0.2538 -0.0668  6.0906
  601MOL0     H81133   8.078   0.755   3.965 -0.7615  1.0811 -0.1422
  601MOL0     H81134   8.171   0.832   4.074 -4.1492  3.5788 -3.6627
  601MOL0     H81135   8.168   0.656   4.083  1.7548  1.7721  2.5567
  602MOL0     O81136  10.982   3.525   3.020  0.0449 -0.0363  0.6209
  602MOL0     C81137  10.881   3.451   3.007 -0.3118  0.3923 -0.3510
  602MOL0     O81138  10.751   3.493   2.984 -0.4171  0.6905 -0.4467
  602MOL0     C81139  10.726   3.633   2.979 -0.4388 -0.7885  0.2129
  602MOL0     C81140  10.622   3.683   3.052  0.2393  0.3689  0.8634
  602MOL0     C81141  10.593   3.816   3.051 -1.3409 -0.1709  1.4690
  602MOL0     C81142  10.667   3.906   2.970 -0.4952  1.5153 -0.3116
  602MOL0     O81143  10.618   4.036   2.972  0.1892  0.6299  0.2057
  602MOL0     C81144  10.667   4.130   2.868 -0.7131  0.6964 -0.4292
  602MOL0     C81145  10.623   4.265   2.919 -0.2334 -0.9265  0.6358
  602MOL0     C81146  10.714   4.378   2.871  0.4524  0.0738  0.1251
  602MOL0     C81147  10.663   4.521   2.897 -0.2194  0.5404  0.2675
  602MOL0     C81148  10.580   4.577   2.775 -0.1203  1.0531 -0.7914
  602MOL0     C81149  10.473   4.696   2.805 -0.6147  0.5984 -1.0650
  602MOL0     C81150  10.418   4.755   2.681 -0.2335  0.6600  1.0568
  602MOL0     C81151  10.276   4.812   2.706  0.3689 -0.4546 -0.1829
  602MOL0     N81152  10.283   4.903   2.816  0.2313  0.1670 -0.5332
  602MOL0     C81153  10.325   5.033   2.798  0.1504 -0.2011  0.4353
  602MOL0     C81154  10.294   5.106   2.905 -0.3996  1.0623 -0.6453
  602MOL0     C81155  10.339   5.246   2.933 -0.3417  0.3984  0.5735
  602MOL0     C81156  10.225   5.347   2.906 -0.4576 -0.5647 -1.2219
  602MOL0     C81157  10.240   5.482   2.995 -0.7616 -0.3818  0.6381
  602MOL0     C81158  10.103   5.542   3.041 -0.8071 -0.4364 -0.8135
  602MOL0     O81159  10.133   5.651   3.127 -0.3425  0.1266  0.2875
  602MOL0     C81160  10.169   5.767   3.055  0.7620 -0.3872 -0.3337
  602MOL0     C81161  10.111   5.809   2.931  0.1708 -0.1596 -0.1440
  602MOL0     C81162  10.155   5.926   2.863  0.5851  0.7684 -0.1749
  602MOL0     C81163  10.264   5.991   2.910  0.1386 -1.2860  0.7868
  602MOL0     C81164  10.319   6.110   2.830  0.1282  0.6384  0.1924
  602MOL0     O81165  10.430   6.179   2.877 -0.4947  0.7804 -0.3570
  602MOL0     C81166  10.490   6.270   2.810 -0.6061 -0.0163  0.0380
  602MOL0     C81167  10.525   6.393   2.872  0.0964  0.8878 -0.4908
  602MOL0     C81168  10.618   6.475   2.815 -0.4967  0.1447  0.2435
  602MOL0     C81169  10.674   6.462   2.684  0.2771 -0.4558  0.1882
  602MOL0     O81170  10.754   6.550   2.615 -0.5082 -0.0077 -0.1548
  602MOL0     C81171  10.797   6.673   2.683  0.7966  0.9484  0.1031
  602MOL0     C81172  10.833   6.771   2.577 -0.5409  0.1933  0.9403
  602MOL0     C81173  10.860   6.909   2.631  0.4747  0.7631 -0.4798
  602MOL0     C81174  10.879   7.013   2.523 -0.7938  1.0258  0.1572
  602MOL0     C81175  10.891   7.154   2.577  0.9063 -0.0502 -0.2832
  602MOL0     C81176  10.956   7.238   2.472 -0.4985 -0.5708  0.7311
  602MOL0     C81177  10.854   7.277   2.368 -0.5001 -1.2499 -0.0821
  602MOL0     C81178  10.798   7.422   2.387 -0.2196 -0.1453  0.5748
  602MOL0    Cl81179  10.670   7.422   2.514  0.0675  0.1712 -0.5304
  602MOL0     C81180  10.632   6.347   2.619 -0.7949 -0.1855 -0.3619
  602MOL0     C81181  10.541   6.259   2.682  0.3024  1.0079  0.8283
  602MOL0     O81182  10.253   6.142   2.728  0.5690 -0.1970  0.4544
  602MOL0     C81183  10.322   5.947   3.030  0.9922  0.5037 -0.6800
  602MOL0     C81184  10.273   5.838   3.103 -0.1474 -0.6216 -0.7370
  602MOL0     N81185  10.218   5.017   2.986  0.4886  0.3817 -0.0526
  602MOL0     N81186  10.204   4.905   2.922 -0.7771 -0.1043 -0.3340
  602MOL0     C81187  10.777   3.857   2.900 -0.2316  0.1015 -0.6636
  602MOL0     C81188  10.804   3.719   2.898  0.2518 -1.2439 -0.1769
  602MOL0     C81189  10.908   3.311   2.994 -0.1360  0.1419  0.1662
  602MOL0     C81190  10.926   3.233   3.113 -0.0981 -0.5265 -0.8531
  602MOL0     C81191  10.930   3.098   3.112  0.7214  0.2806  0.0469
  602MOL0     C81192  10.939   3.033   2.994  0.0344  0.4336 -1.1323
  602MOL0     O81193  10.946   2.892   3.010  0.5007  0.3726 -0.3806
  602MOL0     C81194  10.856   2.810   2.937  0.4166  0.3016 -0.2841
  602MOL0     C81195  10.908   2.680   2.883 -0.2163 -1.3870  0.0552
  602MOL0     C81196  10.804   2.608   2.786  0.3671  0.4436 -0.0323
  602MOL0     C81197  10.885   2.555   2.661  0.3619 -0.2897 -0.6447
  602MOL0     C81198  10.921   2.653   2.566  0.4376 -0.4163 -0.2559
  602MOL0     C81199  10.960   2.748   2.496  0.5279  0.0551 -0.2232
  602MOL0     C81200  10.934   3.103   2.878 -0.6121 -0.7060  0.1042
  602MOL0     C81201  10.920   3.239   2.869  0.3701  0.3702  0.6648
  602MOL0     C81202  10.923   3.306   2.731 -0.3059 -0.6748 -0.1157
  602MOL0     H81203  10.562   3.602   3.091  2.7440 -2.4534 -0.6430
  602MOL0     H81204  10.506   3.866   3.092 -2.2622  0.4764 -1.0443
  602MOL0     H81205  10.776   4.132   2.862 -0.7010 -1.5000 -2.2174
  602MOL0     H81206  10.629   4.103   2.770 -1.0976  0.4172 -0.2078
  602MOL0     H81207  10.607   4.264   3.027 -1.6287 -5.1583  0.5880
  602MOL0     H81208  10.523   4.297   2.888  1.1206  3.2112 -0.0660
  602MOL0     H81209  10.746   4.353   2.770  2.1649  0.6215  0.5083
  602MOL0     H81210  10.811   4.370   2.921 -0.0323 -4.4684  0.7130
  602MOL0     H81211  10.589   4.512   2.977 -0.7556  0.2263 -0.2576
  602MOL0     H81212  10.743   4.594   2.910  0.7396 -0.2583 -0.9866
  602MOL0     H81213  10.644   4.599   2.688 -0.9633 -1.0336 -2.0158
  602MOL0     H81214  10.530   4.490   2.730  3.6314 -1.8447  0.1079
  602MOL0     H81215  10.408   4.651   2.881  0.9545 -1.5154 -0.8782
  602MOL0     H81216  10.531   4.769   2.862 -1.3810  0.7668 -0.4878
  602MOL0     H81217  10.413   4.675   2.607 -3.0574  2.9408 -1.4413
  602MOL0     H81218  10.480   4.837   2.646  3.8322 -1.3118  2.9303
  602MOL0     H81219  10.249   4.882   2.626 -2.3637  0.2870  1.2800
  602MOL0     H81220  10.198   4.738   2.724  1.5016 -1.1374  2.2990
  602MOL0     H81221  10.370   5.069   2.706  2.1374  0.0201  1.4454
  602MOL0     H81222  10.371   5.239   3.038 -0.6746 -0.2662  0.6300
  602MOL0     H81223  10.422   5.283   2.871 -0.4841  0.9686  0.7169
  602MOL0     H81224  10.211   5.365   2.799  1.5261 -2.5743 -1.8993
  602MOL0     H81225  10.137   5.293   2.942  2.4263 -4.5947  0.6844
  602MOL0     H81226  10.293   5.561   2.942 -4.0453  0.5113 -1.5923
  602MOL0     H81227  10.299   5.467   3.086  0.9719  1.2760 -0.1526
  602MOL0     H81228  10.042   5.473   3.100 -1.6984  0.0733 -1.1171
  602MOL0     H81229  10.038   5.575   2.959  0.7284  0.1356 -1.8321
  602MOL0     H81230  10.029   5.755   2.884  1.4055  0.0865 -2.7881
  602MOL0     H81231  10.112   5.940   2.765 -2.4100 -1.0197  0.7460
  602MOL0     H81232  10.486   6.413   2.971 -1.9548  3.1046 -1.6478
  602MOL0     H81233  10.634   6.569   2.868  0.4465  0.5069 -0.6536
  602MOL0     H81234  10.711   6.713   2.737  0.6744 -0.7317  1.1984
  602MOL0     H81235  10.873   6.640   2.754  0.0356 -1.6306 -0.1787
  602MOL0     H81236  10.920   6.725   2.530 -3.0729 -4.4236  0.1680
  602MOL0     H81237  10.757   6.777   2.500  1.4150  4.1759 -0.9677
  602MOL0     H81238  10.764   6.931   2.678  0.6870 -0.7594  0.7521
  602MOL0     H81239  10.944   6.899   2.700  0.1392 -0.9177 -0.2815
  602MOL0     H81240  10.793   7.012   2.455  0.2947  2.0820 -1.3200
  602MOL0     H81241  10.956   6.986   2.450  1.5293  3.3104  1.6186
  602MOL0     H81242  10.941   7.156   2.674  0.2950  1.2525  0.0304
  602MOL0     H81243  10.789   7.188   2.597  1.4254  1.0977  0.5267
  602MOL0     H81244  11.012   7.322   2.516  0.6188 -0.2775 -1.1229
  602MOL0     H81245  11.044   7.179   2.443  2.1815  2.8346  1.3182
  602MOL0     H81246  10.770   7.210   2.348  0.3071 -1.5476 -2.9359
  602MOL0     H81247  10.916   7.273   2.277  0.5084  2.5519  0.2631
  602MOL0     H81248  10.878   7.492   2.414 -0.7449  0.7021 -0.0217
  602MOL0     H81249  10.752   7.463   2.297 -4.4942  0.2851  2.7390
  602MOL0     H81250  10.676   6.325   2.522  0.7411 -3.6130  0.9744
  602MOL0     H81251  10.504   6.175   2.626 -2.2490  0.6450  2.8724
  602MOL0     H81252  10.398   5.997   3.089 -2.2001  2.3465  2.2189
  602MOL0     H81253  10.311   5.810   3.201  0.8885  2.8328 -0.0424
  602MOL0     H81254  10.837   3.918   2.834 -0.3814  0.6985 -0.2469
  602MOL0     H81255  10.882   3.677   2.835  0.9039  2.2825 -2.0023
  602MOL0     H81256  10.916   3.282   3.209 -2.3679 -0.4565 -1.0714
  602MOL0     H81257  10.931   3.049   3.208  4.0544 -2.4871 -1.1896
  602MOL0     H81258  10.812   2.866   2.854 -1.2031  0.3043  0.5298
  602MOL0     H81259  10.777   2.770   3.001  0.7317  0.9330  0.5194
  602MOL0     H81260  10.925   2.618   2.971  0.6820  1.0229  1.6943
  602MOL0     H81261  10.994   2.707   2.821 -2.7587  2.1950 -2.3659
  602MOL0     H81262  10.744   2.690   2.745  4.0353  2.6919 -1.4877
  602MOL0     H81263  10.750   2.520   2.821  0.4107  0.4149 -0.0387
  602MOL0     H81264  10.971   2.493   2.686  0.0952 -0.3907  0.0432
  602MOL0     H81265  10.818   2.482   2.614  1.3432 -0.5134 -1.7419
  602MOL0     H81266  10.974   2.828   2.426 -0.2128 -0.2993 -0.7862
  602MOL0     H81267  10.938   3.049   2.784 -2.8518  2.5578 -2.1324
  602MOL0     H81268  10.894   3.225   2.662  1.8332 -0.2523 -1.5907
  602MOL0     H81269  10.857   3.392   2.719 -0.1319 -0.5220  0.0241
  602MOL0     H81270  11.020   3.337   2.692 -1.3970  0.7479 -1.8278
  603MOL0     O81271   5.917   0.370  10.228 -0.1525  0.5971  0.8043
  603MOL0     C81272   5.804   0.348  10.237  0.2056 -0.7929 -0.2653
  603MOL0     O81273   5.738   0.309  10.357 -0.4252 -0.5451 -0.1412
  603MOL0     C81274   5.823   0.272  10.456  0.3939 -0.2953  0.5186
  603MOL0     C81275   5.847   0.356  10.566 -0.9999  0.0914 -1.1536
  603MOL0     C81276   5.923   0.298  10.673  0.4074 -0.5876 -0.1268
  603MOL0     C81277   5.994   0.175  10.673 -0.2616 -0.0870 -0.0444
  603MOL0     O81278   6.070   0.129  10.776  0.0660 -0.8483 -0.0355
  603MOL0     C81279   6.196   0.066  10.752  0.5262  0.0096 -0.4849
  603MOL0     C81280   6.262   0.031  10.891 -0.6139  0.6031  0.6820
  603MOL0     C81281   6.169  -0.082  10.971  0.2836 -0.5229 -0.1926
  603MOL0     C81282   6.219  -0.131  11.108  0.4199 -0.7195  0.0122
  603MOL0     C81283   6.108  -0.172  11.200  0.6434  0.1445  0.0159
  603MOL0     C81284   6.167  -0.264  11.298 -0.2053  0.4436  0.0727
  603MOL0     C81285   6.053  -0.308  11.396  0.0155  0.0739 -0.1321
  603MOL0     C81286   6.089  -0.425  11.490 -0.7049 -0.7728 -0.1353
  603MOL0     N81287   6.168  -0.374  11.607 -1.1085  0.6315  0.0529
  603MOL0     C81288   6.295  -0.334  11.602 -0.0187 -0.0816 -0.1760
  603MOL0     C81289   6.320  -0.264  11.717  0.2097  0.1835  1.1757
  603MOL0     C81290   6.432  -0.173  11.750 -0.6761  0.5096 -1.5719
  603MOL0     C81291   6.382  -0.018  11.731 -0.3100  0.0526 -0.1209
  603MOL0     C81292   6.399   0.034  11.590  0.4401 -0.3457  0.1937
  603MOL0     C81293   6.290   0.126  11.546 -0.5187 -0.5500  0.2463
  603MOL0     O81294   6.309   0.253  11.618  0.0571  0.0696 -0.1085
  603MOL0     C81295   6.210   0.350  11.619 -0.2636  0.5462  0.7642
  603MOL0     C81296   6.089   0.350  11.535 -0.5074 -0.6126  0.0108
  603MOL0     C81297   6.000   0.460  11.542  0.5371  0.9180  0.0495
  603MOL0     C81298   6.013   0.562  11.639 -0.0044 -0.6829 -0.3614
  603MOL0     C81299   5.928   0.687  11.642 -0.2364  1.0246  0.2357
  603MOL0     O81300   5.800   0.657  11.615  0.6841  0.2487  0.8177
  603MOL0     C81301   5.705   0.753  11.633  0.1835 -1.3142  0.1031
  603MOL0     C81302   5.723   0.887  11.590  0.4007 -0.1991  0.1659
  603MOL0     C81303   5.630   0.982  11.610 -0.2090 -0.2191  0.0117
  603MOL0     C81304   5.518   0.955  11.686 -0.1040 -1.3768 -0.7325
  603MOL0     O81305   5.412   1.045  11.704 -0.1305  0.1285  0.0414
  603MOL0     C81306   5.438   1.181  11.671 -0.5952 -0.2563 -0.0610
  603MOL0     C81307   5.303   1.250  11.676 -0.6236  0.5133  0.6388
  603MOL0     C81308   5.313   1.403  11.684  0.1397 -0.0401  0.0885
  603MOL0     C81309   5.178   1.458  11.641  0.3360  0.0857  0.2713
  603MOL0     C81310   5.166   1.609  11.649 -0.8866 -0.2932 -0.3226
  603MOL0     C81311   5.042   1.670  11.579 -0.2297  0.5027 -0.2325
  603MOL0     C81312   5.032   1.654  11.422  0.3210  0.6716  0.1188
  603MOL0     C81313   4.897   1.707  11.377  0.2058  0.2371  0.4244
  603MOL0    Cl81314   4.894   1.739  11.194  0.5813  0.2449 -0.0463
  603MOL0     C81315   5.502   0.827  11.745 -0.3089 -0.7340 -0.9853
  603MOL0     C81316   5.603   0.732  11.719 -0.6917  0.4528  0.1452
  603MOL0     O81317   5.983   0.788  11.673  0.0768 -0.0744  0.0862
  603MOL0     C81318   6.134   0.561  11.718 -0.3428 -0.0873  0.1226
  603MOL0     C81319   6.223   0.455  11.710  0.0488  1.1330 -0.3568
  603MOL0     N81320   6.204  -0.269  11.788  0.3224  0.1056  0.4364
  603MOL0     N81321   6.119  -0.349  11.725 -0.5033 -0.2819  0.3573
  603MOL0     C81322   5.980   0.101  10.553 -0.6566 -0.5544 -0.6943
  603MOL0     C81323   5.894   0.152  10.446  0.3631  0.1947 -0.2024
  603MOL0     C81324   5.714   0.394  10.129  1.3152 -0.5532  0.6357
  603MOL0     C81325   5.577   0.413  10.153 -0.6101 -1.0296 -0.2399
  603MOL0     C81326   5.482   0.457  10.054 -0.3857  0.7989  0.4150
  603MOL0     C81327   5.521   0.465   9.913  0.7255 -0.2476 -1.1845
  603MOL0     O81328   5.430   0.485   9.812  1.2252 -1.2225  0.1069
  603MOL0     C81329   5.300   0.446   9.845  0.1653  0.7845  0.1870
  603MOL0     C81330   5.212   0.462   9.718 -0.1029  0.9350 -0.3124
  603MOL0     C81331   5.239   0.375   9.595 -0.3774  0.0586 -0.4518
  603MOL0     C81332   5.125   0.392   9.493  0.9236  0.2130 -0.4343
  603MOL0     C81333   5.015   0.305   9.505 -0.1431 -0.3762  0.5949
  603MOL0     C81334   4.920   0.224   9.508  0.6345 -0.4493  0.0606
  603MOL0     C81335   5.658   0.454   9.891  0.1829 -0.3151  0.3644
  603MOL0     C81336   5.752   0.415   9.993  0.4002 -0.1122  0.3862
  603MOL0     C81337   5.888   0.374   9.943 -0.1464  0.3009 -0.3539
  603MOL0     H81338   5.803   0.455  10.577 -0.3918  0.2269  0.4299
  603MOL0     H81339   5.928   0.354  10.767  0.8383  1.1009 -1.1021
  603MOL0     H81340   6.174  -0.021  10.690  0.0412  1.6409 -2.6992
  603MOL0     H81341   6.256   0.126  10.683  0.7866  0.3421  0.0140
  603MOL0     H81342   6.257   0.130  10.939 -0.9190  0.0754  1.7911
  603MOL0     H81343   6.360  -0.011  10.865 -0.3282  1.2772  0.6529
  603MOL0     H81344   6.149  -0.166  10.905 -3.6416 -0.2390  0.4137
  603MOL0     H81345   6.066  -0.048  10.982 -0.7866 -3.4938 -0.3086
  603MOL0     H81346   6.304  -0.198  11.091  0.6849 -0.5662  0.7084
  603MOL0     H81347   6.259  -0.043  11.159 -2.6402  0.1743  1.0755
  603MOL0     H81348   6.078  -0.086  11.261  0.1388 -2.6355  4.0467
  603MOL0     H81349   6.032  -0.232  11.150  2.1880 -3.1790  1.3657
  603MOL0     H81350   6.205  -0.359  11.259  2.8842  0.8150  1.8348
  603MOL0     H81351   6.253  -0.214  11.344 -0.5281  0.4080  0.7204
  603MOL0     H81352   5.977  -0.335  11.322  0.1521  0.2417 -0.3340
  603MOL0     H81353   6.020  -0.220  11.453  0.6919 -0.2408  0.7619
  603MOL0     H81354   5.993  -0.460  11.528 -1.3977 -0.1344 -1.2357
  603MOL0     H81355   6.142  -0.500  11.431  0.4655 -1.6911  1.9550
  603MOL0     H81356   6.368  -0.349  11.523  2.0160 -0.4730  1.6812
  603MOL0     H81357   6.443  -0.187  11.858  0.5338 -0.9428 -1.8508
  603MOL0     H81358   6.527  -0.201  11.703  0.1624 -0.6514  0.6620
  603MOL0     H81359   6.273  -0.014  11.739 -0.4086 -0.3663 -1.0350
  603MOL0     H81360   6.422   0.039  11.815 -2.4774 -0.8299  1.5934
  603MOL0     H81361   6.414  -0.045  11.516 -3.0660 -0.0524 -1.0163
  603MOL0     H81362   6.490   0.095  11.586  0.6634 -0.5297  1.7777
  603MOL0     H81363   6.189   0.087  11.561 -0.9450  0.4633  0.0847
  603MOL0     H81364   6.310   0.137  11.439  2.5440 -2.9226  0.4441
  603MOL0     H81365   6.058   0.265  11.475 -2.7991  0.0879  0.1078
  603MOL0     H81366   5.921   0.454  11.468  0.9126  0.4548 -0.3148
  603MOL0     H81367   5.817   0.916  11.545 -0.7896  1.7703 -1.1634
  603MOL0     H81368   5.650   1.082  11.572 -3.5041  0.3690 -0.5021
  603MOL0     H81369   5.519   1.226  11.728  0.0036  0.1500 -1.1844
  603MOL0     H81370   5.462   1.188  11.564 -1.6106 -0.5832 -0.3340
  603MOL0     H81371   5.246   1.229  11.585 -1.8974  3.1995  0.7042
  603MOL0     H81372   5.252   1.208  11.763  0.9742 -1.5033  0.6618
  603MOL0     H81373   5.329   1.425  11.790 -1.4389 -0.7846  0.5193
  603MOL0     H81374   5.398   1.436  11.623  0.9428 -0.7475  0.7879
  603MOL0     H81375   5.095   1.410  11.694 -1.0868  0.0950 -1.8212
  603MOL0     H81376   5.173   1.440  11.533 -2.2757 -1.4836  0.5647
  603MOL0     H81377   5.257   1.652  11.606  0.7128 -2.6597  0.4941
  603MOL0     H81378   5.154   1.640  11.753 -4.4959 -0.1539 -0.6399
  603MOL0     H81379   4.952   1.620  11.614 -0.5992 -0.7665 -2.7298
  603MOL0     H81380   5.038   1.777  11.601 -2.7747  0.3884  0.1037
  603MOL0     H81381   5.056   1.551  11.394  1.1826  0.4419  1.6079
  603MOL0     H81382   5.113   1.713  11.378 -0.2427  1.0092 -0.4923
  603MOL0     H81383   4.810   1.645  11.404 -1.8658  3.2251  1.1660
  603MOL0     H81384   4.876   1.797  11.435  2.7263  1.1345  0.0466
  603MOL0     H81385   5.412   0.826  11.806  0.2448  2.1303  0.0450
  603MOL0     H81386   5.590   0.632  11.760 -2.8681 -0.4186 -2.3479
  603MOL0     H81387   6.151   0.634  11.797 -0.3621  1.9496 -1.6652
  603MOL0     H81388   6.306   0.436  11.779 -1.6832 -2.0857  1.0941
  603MOL0     H81389   6.022   0.001  10.543  2.5670  0.5099  0.9945
  603MOL0     H81390   5.900   0.116  10.344  3.4991 -1.0205  0.2700
  603MOL0     H81391   5.543   0.378  10.250  1.0547  0.0590  0.7738
  603MOL0     H81392   5.379   0.466  10.085 -0.2288  0.6657  0.9802
  603MOL0     H81393   5.253   0.503   9.925 -0.2421 -0.4134  0.8162
  603MOL0     H81394   5.291   0.342   9.876 -0.5139 -0.6673 -4.1972
  603MOL0     H81395   5.227   0.568   9.693  3.2043  1.2772  2.4062
  603MOL0     H81396   5.111   0.450   9.757 -0.5142 -1.4410 -1.9324
  603MOL0     H81397   5.252   0.269   9.621 -1.0867 -0.0413 -0.4871
  603MOL0     H81398   5.328   0.415   9.546  0.3602 -2.0836 -0.9540
  603MOL0     H81399   5.090   0.496   9.493 -0.7327 -0.2997  0.8903
  603MOL0     H81400   5.176   0.380   9.397  1.8893 -0.5862  0.1533
  603MOL0     H81401   4.836   0.159   9.516 -3.0436  3.5700 -1.8144
  603MOL0     H81402   5.700   0.466   9.792  0.3606 -0.0465  0.4700
  603MOL0     H81403   5.956   0.435  10.002 -3.7260  2.5632  1.8377
  603MOL0     H81404   5.890   0.265   9.937 -2.0779  0.2187 -0.0277
  603MOL0     H81405   5.915   0.422   9.848 -0.0546  2.5525  0.7452
  604MOL0     O81406  10.950   0.233   6.701  0.1096  0.5243  0.3848
  604MOL0     C81407  11.065   0.261   6.670 -0.5842  0.0087 -0.7860
  604MOL0     O81408  11.157   0.164   6.639 -0.5983 -0.1463 -0.3572
  604MOL0     C81409  11.144   0.053   6.723  0.1093  0.1436  0.7234
  604MOL0     C81410  11.106  -0.073   6.671  0.6756  0.5988 -0.5278
  604MOL0     C81411  11.087  -0.181   6.761  1.2713 -0.1413  0.0617
  604MOL0     C81412  11.104  -0.170   6.904 -0.0903  0.1200 -0.2744
  604MOL0     O81413  11.074  -0.268   7.003  0.2088  0.5783 -1.0767
  604MOL0     C81414  11.162  -0.283   7.120  0.6741 -0.7867 -0.6000
  604MOL0     C81415  11.144  -0.419   7.186  0.0960  0.4461 -0.0386
  604MOL0     C81416  11.227  -0.523   7.101  0.5276 -0.3737 -0.6761
  604MOL0     C81417  11.221  -0.667   7.168  0.0027  0.0047  0.2850
  604MOL0     C81418  11.331  -0.758   7.107  0.1127  0.4880 -0.5351
  604MOL0     C81419  11.323  -0.792   6.955  0.2571  0.0755 -0.4296
  604MOL0     C81420  11.438  -0.883   6.918 -0.6500 -0.1766 -0.0212
  604MOL0     C81421  11.397  -1.031   6.909 -0.1671  0.4126  0.2866
  604MOL0     N81422  11.511  -1.127   6.895  0.0200 -0.7267  0.5482
  604MOL0     C81423  11.611  -1.111   6.792 -0.0222  0.1941  0.2916
  604MOL0     C81424  11.709  -1.201   6.818 -0.3295 -0.3695 -0.2166
  604MOL0     C81425  11.829  -1.221   6.725  0.5353 -0.3631  0.1257
  604MOL0     C81426  11.825  -1.340   6.621 -0.0753  0.7737 -0.3311
  604MOL0     C81427  11.817  -1.483   6.688 -0.1238  0.0405  0.2181
  604MOL0     C81428  11.919  -1.502   6.801 -0.4416  0.6415  0.1277
  604MOL0     O81429  11.934  -1.635   6.840 -0.5980  0.4389 -0.4609
  604MOL0     C81430  12.011  -1.736   6.779  0.3294 -0.8301  0.6151
  604MOL0     C81431  11.987  -1.865   6.830  0.0969  0.7765 -0.0993
  604MOL0     C81432  12.048  -1.974   6.779  0.1189 -0.5398  0.5519
  604MOL0     C81433  12.139  -1.963   6.667 -0.3805 -1.1630  1.2781
  604MOL0     C81434  12.181  -2.079   6.591 -0.5864  0.3180 -1.7223
  604MOL0     O81435  12.251  -2.051   6.480 -0.0835 -0.0732  0.3274
  604MOL0     C81436  12.313  -2.154   6.414  0.0929 -0.1240  0.6068
  604MOL0     C81437  12.288  -2.162   6.271  0.3081  0.7707 -0.0475
  604MOL0     C81438  12.330  -2.265   6.190  0.3192  0.1567 -0.2139
  604MOL0     C81439  12.391  -2.375   6.245 -0.1848 -0.8936  0.4184
  604MOL0     O81440  12.397  -2.475   6.159 -0.6075 -0.1982 -0.3329
  604MOL0     C81441  12.487  -2.577   6.202  0.7553  0.8950 -0.2670
  604MOL0     C81442  12.532  -2.640   6.066  0.5086 -0.6529 -0.9930
  604MOL0     C81443  12.416  -2.717   5.985  0.1880  0.1393  0.1395
  604MOL0     C81444  12.464  -2.814   5.873 -1.3732 -0.5939 -0.6806
  604MOL0     C81445  12.554  -2.759   5.759 -0.2776  0.3293 -0.3857
  604MOL0     C81446  12.613  -2.862   5.661 -0.3772 -0.3332 -0.1109
  604MOL0     C81447  12.514  -2.939   5.585  0.6815 -0.4802 -0.5164
  604MOL0     C81448  12.441  -2.857   5.477 -0.2194 -1.1664 -0.1152
  604MOL0    Cl81449  12.545  -2.800   5.355  0.1115  0.0513  0.3064
  604MOL0     C81450  12.407  -2.378   6.382  0.1329  0.2740 -0.4677
  604MOL0     C81451  12.388  -2.272   6.470  0.7156 -1.2683 -0.1352
  604MOL0     O81452  12.173  -2.192   6.643 -0.2468  0.4437 -0.2681
  604MOL0     C81453  12.163  -1.825   6.609  0.2434  0.2498 -0.2280
  604MOL0     C81454  12.090  -1.714   6.665 -0.4064  0.5328  0.5589
  604MOL0     N81455  11.675  -1.273   6.933  0.6379  0.1596  0.2087
  604MOL0     N81456  11.554  -1.226   6.971  1.1512 -0.2677  0.1781
  604MOL0     C81457  11.147  -0.040   6.947 -0.2043  0.2998 -0.0920
  604MOL0     C81458  11.167   0.070   6.860  0.0325 -0.1084  1.1026
  604MOL0     C81459  11.091   0.400   6.617  0.7208 -0.3650 -0.7783
  604MOL0     C81460  11.225   0.418   6.564 -0.3615  0.3400  0.9714
  604MOL0     C81461  11.260   0.531   6.482  0.2503  0.2131  0.8623
  604MOL0     C81462  11.158   0.628   6.462 -0.2704  0.7309  0.4877
  604MOL0     O81463  11.162   0.741   6.390  0.2105  0.4807  0.1162
  604MOL0     C81464  11.191   0.720   6.247  0.6852  0.1712 -0.4194
  604MOL0     C81465  11.054   0.731   6.183 -0.8403 -0.3448 -0.1907
  604MOL0     C81466  11.067   0.712   6.030  0.5602 -1.2466  0.5229
  604MOL0     C81467  10.937   0.740   5.962 -0.2193  1.2881 -0.5485
  604MOL0     C81468  10.969   0.722   5.818 -0.0553 -0.3463 -0.6105
  604MOL0     C81469  11.003   0.701   5.710 -0.1367  0.8402 -0.1140
  604MOL0     C81470  11.042   0.624   6.540  1.0325  1.6952 -0.6083
  604MOL0     C81471  11.002   0.506   6.614 -0.4163 -0.4497  0.1956
  604MOL0     C81472  10.862   0.519   6.684 -1.0911  0.7074  1.0273
  604MOL0     H81473  11.065  -0.082   6.571 -3.4322 -2.3414  1.1064
  604MOL0     H81474  11.065  -0.280   6.723  1.5075  0.4218 -1.6187
  604MOL0     H81475  11.268  -0.259   7.105  0.5495 -0.7200 -1.3976
  604MOL0     H81476  11.136  -0.215   7.202  1.9197 -0.9713 -0.0219
  604MOL0     H81477  11.039  -0.448   7.176  0.2091 -0.3153  0.9193
  604MOL0     H81478  11.169  -0.411   7.292 -1.5197  2.2432  0.2577
  604MOL0     H81479  11.331  -0.493   7.085 -0.0693  1.4491 -1.4574
  604MOL0     H81480  11.187  -0.526   6.999  2.6025  0.9499 -1.6086
  604MOL0     H81481  11.233  -0.670   7.276  1.2027  1.8163  0.2442
  604MOL0     H81482  11.122  -0.707   7.144  0.1986  0.7775 -2.1473
  604MOL0     H81483  11.431  -0.727   7.137  0.3691 -1.1823  0.5083
  604MOL0     H81484  11.314  -0.860   7.143 -0.2266  0.3105 -1.1709
  604MOL0     H81485  11.225  -0.833   6.928 -0.3731 -1.2977  3.4143
  604MOL0     H81486  11.343  -0.698   6.902  3.3203 -1.2709 -1.9450
  604MOL0     H81487  11.528  -0.875   6.980  0.3917  0.7269 -1.5868
  604MOL0     H81488  11.458  -0.861   6.813  1.4124 -0.0976  0.3425
  604MOL0     H81489  11.335  -1.055   6.996 -0.1284  1.1693  0.5339
  604MOL0     H81490  11.320  -1.035   6.831 -0.1061  0.3078  0.2312
  604MOL0     H81491  11.622  -1.030   6.721 -0.3965  1.5864  1.7872
  604MOL0     H81492  11.842  -1.134   6.660  1.2342 -1.6667 -1.5627
  604MOL0     H81493  11.918  -1.224   6.787  1.7743  2.0074 -1.3936
  604MOL0     H81494  11.725  -1.333   6.577 -0.6882 -1.8462  0.4843
  604MOL0     H81495  11.914  -1.337   6.558  2.8123 -3.7823  2.8994
  604MOL0     H81496  11.827  -1.560   6.611  0.1917  2.1591 -2.0080
  604MOL0     H81497  11.716  -1.492   6.728  0.2059  1.5620  1.5267
  604MOL0     H81498  11.908  -1.436   6.888  0.3368 -1.1698  1.6789
  604MOL0     H81499  12.014  -1.471   6.756 -0.0835 -0.5097  0.0474
  604MOL0     H81500  11.917  -1.879   6.912  0.7036  2.9362  0.8588
  604MOL0     H81501  12.019  -2.071   6.817  1.7904 -1.7859 -1.1720
  604MOL0     H81502  12.234  -2.073   6.241  0.0267  0.7150  0.2820
  604MOL0     H81503  12.318  -2.254   6.083  4.0524 -0.4720 -0.8366
  604MOL0     H81504  12.571  -2.535   6.259  1.3407  1.6764 -1.6376
  604MOL0     H81505  12.437  -2.653   6.261 -1.1574  2.5529  0.3446
  604MOL0     H81506  12.568  -2.560   6.000  1.4128  0.3915  0.7002
  604MOL0     H81507  12.614  -2.709   6.088  1.2770  0.6546  0.4421
  604MOL0     H81508  12.351  -2.773   6.052 -0.1742 -0.4759 -0.7057
  604MOL0     H81509  12.360  -2.642   5.928 -0.7367 -4.6929 -6.4504
  604MOL0     H81510  12.368  -2.849   5.832 -2.3229  0.4115  0.6198
  604MOL0     H81511  12.521  -2.896   5.917 -3.4342 -1.6161  0.2444
  604MOL0     H81512  12.626  -2.696   5.813 -2.9988  3.7431 -0.3821
  604MOL0     H81513  12.498  -2.686   5.700 -0.1085  0.7838  0.0000
  604MOL0     H81514  12.684  -2.816   5.591 -1.2275 -0.4025 -1.0246
  604MOL0     H81515  12.655  -2.931   5.735  1.6257 -0.6643 -1.4784
  604MOL0     H81516  12.443  -2.992   5.650  0.8806 -0.1960 -0.0595
  604MOL0     H81517  12.561  -3.026   5.538 -0.7234 -1.7257  0.2726
  604MOL0     H81518  12.354  -2.908   5.437 -2.3893  0.5094  2.1408
  604MOL0     H81519  12.395  -2.769   5.523  2.6488 -0.0330  0.8725
  604MOL0     H81520  12.432  -2.474   6.426 -1.4985 -0.4786 -1.0915
  604MOL0     H81521  12.407  -2.268   6.577 -0.2388  3.3812  0.0275
  604MOL0     H81522  12.219  -1.811   6.517  0.1973  1.9359 -0.0244
  604MOL0     H81523  12.101  -1.623   6.607 -3.9766  1.1057  0.5818
  604MOL0     H81524  11.154  -0.017   7.053 -1.6847  2.4394 -0.4074
  604MOL0     H81525  11.201   0.166   6.899  2.2979 -1.0350  1.5872
  604MOL0     H81526  11.307   0.351   6.585 -1.6810 -1.0494  1.8861
  604MOL0     H81527  11.358   0.531   6.436  1.2541  2.2969  2.8408
  604MOL0     H81528  11.241   0.626   6.222 -0.3996 -0.4819 -0.1892
  604MOL0     H81529  11.254   0.803   6.212 -2.1930  2.8403  0.2900
  604MOL0     H81530  11.036   0.839   6.195  4.4563  1.1475 -2.7486
  604MOL0     H81531  10.979   0.664   6.225  0.9968 -4.4090 -2.7893
  604MOL0     H81532  11.091   0.606   6.015  2.5534 -0.7051 -0.4152
  604MOL0     H81533  11.149   0.771   5.990 -1.7485  4.0970  2.6755
  604MOL0     H81534  10.867   0.662   5.992 -0.1301  2.2562  2.4137
  604MOL0     H81535  10.882   0.834   5.977 -1.6046  0.2572  1.2158
  604MOL0     H81536  11.030   0.683   5.608 -2.8219  1.9589 -1.0871
  604MOL0     H81537  10.971   0.706   6.540  0.5615  1.2975 -0.0186
  604MOL0     H81538  10.853   0.618   6.731 -2.0392  0.1803  2.0034
  604MOL0     H81539  10.783   0.514   6.609  0.8729  0.6103 -1.1258
  604MOL0     H81540  10.845   0.448   6.766 -0.0073  1.7958  2.2552
  605MOL0     O81541   0.343   4.339   2.932  0.7675 -0.2339 -0.3579
  605MOL0     C81542   0.250   4.339   2.857 -0.3000 -0.0475  0.8104
  605MOL0     O81543   0.189   4.453   2.808 -0.2124 -0.2530 -0.7069
  605MOL0     C81544   0.199   4.576   2.875 -0.3533  0.9346  0.2595
  605MOL0     C81545   0.247   4.595   3.008 -0.2316 -0.1943 -0.1443
  605MOL0     C81546   0.237   4.721   3.066 -0.6915  0.9952 -0.2297
  605MOL0     C81547   0.177   4.821   2.996 -0.5855 -0.7587 -0.8575
  605MOL0     O81548   0.176   4.941   3.070 -0.0341 -0.9680  0.3820
  605MOL0     C81549   0.037   4.981   3.101  0.0065 -0.0852 -1.0734
  605MOL0     C81550  -0.041   5.060   2.991  0.6604 -0.2282 -0.0944
  605MOL0     C81551  -0.145   5.157   3.052 -0.1279 -0.6552 -0.3175
  605MOL0     C81552  -0.229   5.212   2.941 -0.2187 -0.2460  0.4544
  605MOL0     C81553  -0.341   5.301   2.985  0.8215  0.0448 -0.5714
  605MOL0     C81554  -0.404   5.372   2.867  1.1959 -1.0364  0.7785
  605MOL0     C81555  -0.533   5.445   2.905  0.3011 -0.3373  0.7319
  605MOL0     C81556  -0.609   5.478   2.776  0.3707 -0.9584  0.2062
  605MOL0     N81557  -0.736   5.551   2.813  0.0751 -0.1697 -0.5412
  605MOL0     C81558  -0.748   5.664   2.886 -0.1337  0.2359  0.3652
  605MOL0     C81559  -0.876   5.692   2.866  0.2695 -0.7764 -0.1585
  605MOL0     C81560  -0.952   5.807   2.918  0.2141 -0.2019  1.4783
  605MOL0     C81561  -0.877   5.904   3.006 -0.0677  0.3557 -0.5295
  605MOL0     C81562  -0.887   5.888   3.156 -0.6461  0.7923  0.1057
  605MOL0     C81563  -0.806   5.770   3.211  1.1464 -0.6492  0.3064
  605MOL0     O81564  -0.670   5.814   3.224  0.4068  0.4300  0.1204
  605MOL0     C81565  -0.576   5.743   3.293  0.1156  0.2687  0.1942
  605MOL0     C81566  -0.456   5.805   3.328 -0.4643 -0.0925 -0.3904
  605MOL0     C81567  -0.352   5.725   3.380 -0.1901  0.2656 -0.6103
  605MOL0     C81568  -0.375   5.584   3.417 -0.4163  0.4064 -0.3999
  605MOL0     C81569  -0.255   5.502   3.453 -0.0862  0.6762 -0.5605
  605MOL0     O81570  -0.126   5.560   3.432  0.5830  0.3373  0.1670
  605MOL0     C81571  -0.020   5.476   3.463 -0.3763  0.0489  0.7690
  605MOL0     C81572   0.030   5.451   3.599 -0.1203 -0.2710  0.4818
  605MOL0     C81573   0.150   5.384   3.612  0.1406  0.3030 -0.3432
  605MOL0     C81574   0.208   5.328   3.504 -0.5656  0.3829  0.2009
  605MOL0     O81575   0.314   5.243   3.533 -0.2294  0.6980  0.1584
  605MOL0     C81576   0.386   5.190   3.422  0.2044 -0.8173  1.0020
  605MOL0     C81577   0.490   5.277   3.344  0.5331 -0.8753 -0.6288
  605MOL0     C81578   0.600   5.339   3.434 -0.6061  0.2142 -0.3030
  605MOL0     C81579   0.698   5.422   3.366 -0.1003  0.0470  0.1683
  605MOL0     C81580   0.782   5.344   3.267  0.0475 -0.2527 -0.0251
  605MOL0     C81581   0.861   5.442   3.181 -0.3436 -0.0732 -0.0856
  605MOL0     C81582   0.779   5.516   3.075  0.2530  0.1025  0.4242
  605MOL0     C81583   0.717   5.424   2.966  0.1215 -0.4516  0.0829
  605MOL0    Cl81584   0.553   5.365   3.013  0.4891  0.3895 -0.0379
  605MOL0     C81585   0.165   5.358   3.373 -0.1677 -0.6651  0.0598
  605MOL0     C81586   0.047   5.426   3.352 -0.5118  0.0165  0.1760
  605MOL0     O81587  -0.271   5.392   3.505 -0.7262 -0.1602 -0.1124
  605MOL0     C81588  -0.508   5.529   3.398 -0.1798  0.2422 -0.9051
  605MOL0     C81589  -0.603   5.605   3.332 -1.1492  0.3127  0.1495
  605MOL0     N81590  -0.941   5.584   2.800  0.1793  0.0291 -0.5234
  605MOL0     N81591  -0.860   5.503   2.762  0.2682  0.7681  0.4180
  605MOL0     C81592   0.141   4.812   2.862 -0.7787  0.0442 -0.1083
  605MOL0     C81593   0.151   4.687   2.803  0.8488  0.1970  0.0783
  605MOL0     C81594   0.219   4.213   2.775  1.0215 -0.4472 -1.1629
  605MOL0     C81595   0.128   4.227   2.663 -0.5932  0.0851 -0.2077
  605MOL0     C81596   0.107   4.110   2.582 -0.5557  0.1046  0.6279
  605MOL0     C81597   0.189   4.006   2.589 -0.7543  0.7807 -0.6586
  605MOL0     O81598   0.172   3.918   2.486  0.3459  0.4981  0.8561
  605MOL0     C81599   0.266   3.818   2.471 -0.2649  0.5368  0.5823
  605MOL0     C81600   0.205   3.714   2.373  0.5193  0.0930 -0.3577
  605MOL0     C81601   0.115   3.603   2.436  0.4219  0.4974 -1.0771
  605MOL0     C81602   0.083   3.484   2.348  0.4765 -0.8374 -0.4542
  605MOL0     C81603   0.204   3.407   2.305 -0.4852  0.7164 -0.8771
  605MOL0     C81604   0.309   3.362   2.273  0.1502 -0.1321  0.0697
  605MOL0     C81605   0.279   3.992   2.701 -0.1310  1.3907 -0.0678
  605MOL0     C81606   0.285   4.088   2.798 -0.3043 -0.7114 -0.2285
  605MOL0     C81607   0.364   4.069   2.933 -0.2112 -0.2728  0.0239
  605MOL0     H81608   0.270   4.516   3.079 -1.5288 -0.9991 -0.5757
  605MOL0     H81609   0.249   4.733   3.174 -1.7218  0.0882  0.0001
  605MOL0     H81610  -0.031   4.895   3.109 -0.1665  0.1038 -0.4868
  605MOL0     H81611   0.044   5.030   3.198  1.1378 -1.0847 -0.6168
  605MOL0     H81612  -0.099   4.992   2.927  2.3718 -1.5066 -0.3621
  605MOL0     H81613   0.040   5.118   2.946  3.3092 -1.6983  2.4033
  605MOL0     H81614  -0.099   5.242   3.103 -0.1170 -1.1729  0.5645
  605MOL0     H81615  -0.212   5.118   3.129  0.6591  2.7890  2.3278
  605MOL0     H81616  -0.164   5.263   2.869 -0.2477  1.9200  1.8442
  605MOL0     H81617  -0.269   5.124   2.890  2.6584  0.7757 -4.2032
  605MOL0     H81618  -0.415   5.232   3.027  1.6837 -1.0927 -0.8657
  605MOL0     H81619  -0.310   5.377   3.058 -0.6466 -0.9396  1.1411
  605MOL0     H81620  -0.350   5.452   2.818 -2.8887 -0.4474 -3.4868
  605MOL0     H81621  -0.421   5.289   2.797 -0.6712  0.5257 -0.7123
  605MOL0     H81622  -0.504   5.541   2.949 -0.2537  0.1070  0.1418
  605MOL0     H81623  -0.593   5.381   2.971  0.4924 -0.5426  0.7057
  605MOL0     H81624  -0.549   5.546   2.715  2.3288 -1.7620  1.1446
  605MOL0     H81625  -0.636   5.395   2.710 -1.1372 -0.8910  0.7102
  605MOL0     H81626  -0.672   5.714   2.945 -1.2961  0.7760  1.4348
  605MOL0     H81627  -0.983   5.857   2.825 -0.9057 -4.1110 -0.4703
  605MOL0     H81628  -1.035   5.758   2.970  1.2101  0.1057  3.4397
  605MOL0     H81629  -0.773   5.922   2.978  1.3946  2.7744  4.9821
  605MOL0     H81630  -0.920   6.004   2.999 -3.2663 -0.5424  2.9715
  605MOL0     H81631  -0.996   5.879   3.165 -0.7398  1.6946  0.0052
  605MOL0     H81632  -0.847   5.977   3.204 -0.8407  0.2861  1.2292
  605MOL0     H81633  -0.806   5.679   3.149 -0.1264 -0.1125 -0.5359
  605MOL0     H81634  -0.851   5.752   3.309  2.2212 -0.1198  0.9015
  605MOL0     H81635  -0.441   5.911   3.314 -1.3105 -0.1090 -1.5880
  605MOL0     H81636  -0.254   5.771   3.389  0.0277 -0.3980  0.7026
  605MOL0     H81637  -0.025   5.505   3.675  1.6701 -0.2983  1.8641
  605MOL0     H81638   0.192   5.377   3.712 -0.0997  1.7298 -0.1121
  605MOL0     H81639   0.447   5.115   3.472  2.6805 -0.0983 -0.7167
  605MOL0     H81640   0.313   5.149   3.351 -1.9868  3.5026  0.4186
  605MOL0     H81641   0.531   5.216   3.263  0.9624  0.7785 -1.7007
  605MOL0     H81642   0.448   5.366   3.295  1.4318  0.0727  0.2683
  605MOL0     H81643   0.563   5.411   3.508  0.3183  1.9345 -1.4466
  605MOL0     H81644   0.661   5.260   3.478  0.2082 -0.1317 -1.9662
  605MOL0     H81645   0.773   5.468   3.432  4.1027 -1.9339 -2.7637
  605MOL0     H81646   0.648   5.503   3.311 -0.2824 -0.4049 -0.3390
  605MOL0     H81647   0.728   5.285   3.192  0.6954  2.2551 -2.6414
  605MOL0     H81648   0.853   5.275   3.315  1.9468  0.1365 -2.0957
  605MOL0     H81649   0.900   5.510   3.257 -3.9462 -1.6055  3.5095
  605MOL0     H81650   0.949   5.395   3.136 -0.0252  0.6331 -0.2027
  605MOL0     H81651   0.841   5.591   3.026  1.7228 -2.2593 -1.5648
  605MOL0     H81652   0.694   5.570   3.118 -0.6952 -0.3166 -0.8316
  605MOL0     H81653   0.708   5.469   2.866 -2.6133 -0.8340  0.0616
  605MOL0     H81654   0.772   5.330   2.957 -1.5286 -1.5422  0.7628
  605MOL0     H81655   0.211   5.337   3.276 -3.5631 -0.0420 -1.8286
  605MOL0     H81656   0.010   5.447   3.253 -0.7112 -1.6092 -0.1154
  605MOL0     H81657  -0.527   5.423   3.413  1.9970 -0.1484 -0.6248
  605MOL0     H81658  -0.695   5.552   3.311 -1.6132  1.4464 -0.8362
  605MOL0     H81659   0.121   4.894   2.794  1.6903 -2.1992 -3.9348
  605MOL0     H81660   0.127   4.666   2.699  2.2899 -1.6058  0.0657
  605MOL0     H81661   0.066   4.314   2.645 -0.1566 -0.0491 -2.7527
  605MOL0     H81662   0.025   4.116   2.512 -1.9102  2.0952  2.2338
  605MOL0     H81663   0.286   3.764   2.564  1.0177 -3.2698 -1.6563
  605MOL0     H81664   0.358   3.862   2.433  0.9138  0.1828  2.8378
  605MOL0     H81665   0.296   3.666   2.335 -0.1194  0.0818 -1.9386
  605MOL0     H81666   0.151   3.769   2.295 -0.1541 -0.6304 -0.4144
  605MOL0     H81667   0.026   3.653   2.474 -0.2481 -2.2095  1.2858
  605MOL0     H81668   0.155   3.563   2.530 -0.2088 -1.3676 -1.5576
  605MOL0     H81669   0.011   3.420   2.400 -2.7969  1.7466 -1.3889
  605MOL0     H81670   0.026   3.524   2.264  0.7374  0.0257 -0.2341
  605MOL0     H81671   0.403   3.316   2.248 -0.0513 -0.7795  0.4713
  605MOL0     H81672   0.355   3.915   2.708 -1.0962  0.4393  0.1911
  605MOL0     H81673   0.395   3.964   2.929  3.7537  0.7472 -0.9022
  605MOL0     H81674   0.450   4.134   2.953 -0.1170 -0.9425  2.0236
  605MOL0     H81675   0.300   4.065   3.022 -3.2269 -2.1591 -2.0480
  606MOL0     O81676   1.227   0.784   6.013 -0.1065  0.4391 -0.1973
  606MOL0     C81677   1.343   0.787   5.957  0.4541  0.1078  0.4286
  606MOL0     O81678   1.388   0.707   5.858 -0.3548 -0.0354 -0.2167
  606MOL0     C81679   1.315   0.608   5.806 -0.2564 -0.0057 -0.3874
  606MOL0     C81680   1.179   0.627   5.770 -0.3430  0.2553  0.3436
  606MOL0     C81681   1.113   0.530   5.698  0.0221  0.4473 -0.2372
  606MOL0     C81682   1.179   0.403   5.667 -0.4288  0.7646  0.6216
  606MOL0     O81683   1.120   0.312   5.583  0.5448 -0.1621 -0.5180
  606MOL0     C81684   1.156   0.174   5.609 -0.8124 -0.0122  0.1151
  606MOL0     C81685   1.117   0.075   5.505  0.7539  0.5132 -0.1338
  606MOL0     C81686   1.094  -0.061   5.570  0.3655  0.2785 -0.2823
  606MOL0     C81687   1.222  -0.143   5.572  1.1130 -0.3340  0.1846
  606MOL0     C81688   1.193  -0.268   5.659 -0.4847  0.5416  0.0690
  606MOL0     C81689   1.325  -0.353   5.668  1.2295  1.0180 -0.8266
  606MOL0     C81690   1.269  -0.485   5.714 -0.7513  0.5975  0.1912
  606MOL0     C81691   1.372  -0.561   5.793  1.0195 -0.3569  0.6607
  606MOL0     N81692   1.494  -0.593   5.703  0.3584  0.6315  0.6643
  606MOL0     C81693   1.608  -0.515   5.690  1.2705 -0.1653 -0.4837
  606MOL0     C81694   1.653  -0.570   5.582 -0.4023  0.4443 -0.0664
  606MOL0     C81695   1.767  -0.521   5.504  0.4095 -0.3909 -0.5166
  606MOL0     C81696   1.728  -0.429   5.386  0.4580  0.2746  1.0650
  606MOL0     C81697   1.660  -0.506   5.264 -0.1582  0.6216 -0.3955
  606MOL0     C81698   1.681  -0.420   5.146 -0.1012  0.2538  0.2082
  606MOL0     O81699   1.809  -0.432   5.097 -0.6184  0.3561  0.1512
  606MOL0     C81700   1.828  -0.371   4.974  0.0761  0.7651 -0.1702
  606MOL0     C81701   1.794  -0.431   4.854 -0.0553 -0.5196  0.0858
  606MOL0     C81702   1.837  -0.374   4.733 -0.7188 -0.3895 -1.4214
  606MOL0     C81703   1.922  -0.264   4.729  0.1663 -1.0038 -0.0952
  606MOL0     C81704   1.979  -0.228   4.601 -0.1551  0.4925 -0.0929
  606MOL0     O81705   2.107  -0.172   4.597 -0.3565  0.5364  0.0408
  606MOL0     C81706   2.171  -0.144   4.479  0.1573  0.2519 -0.3969
  606MOL0     C81707   2.184  -0.233   4.367  0.8133 -0.0423 -0.3626
  606MOL0     C81708   2.247  -0.190   4.247 -0.0382 -0.3996 -0.5362
  606MOL0     C81709   2.306  -0.060   4.237  0.5887 -0.5197 -0.8283
  606MOL0     O81710   2.358  -0.005   4.121 -0.7398 -0.0968 -0.1607
  606MOL0     C81711   2.293  -0.046   3.999  0.6322  0.0799 -0.6587
  606MOL0     C81712   2.304   0.077   3.911 -0.9279 -0.4925  0.0298
  606MOL0     C81713   2.446   0.115   3.866 -0.4728  0.4722 -0.0695
  606MOL0     C81714   2.446   0.219   3.753 -0.1034 -0.3778  0.1239
  606MOL0     C81715   2.474   0.158   3.613  0.6074 -0.3941 -0.1617
  606MOL0     C81716   2.602   0.076   3.593  0.2885 -0.1987 -0.7585
  606MOL0     C81717   2.728   0.151   3.643  0.4435 -0.2418 -0.1005
  606MOL0     C81718   2.849   0.054   3.670  0.4536  0.0624 -0.0849
  606MOL0    Cl81719   2.925   0.031   3.521  0.0425  0.0544  0.0092
  606MOL0     C81720   2.303   0.018   4.354 -0.2292  0.0747 -0.3669
  606MOL0     C81721   2.237  -0.020   4.472 -0.7093 -0.1757 -0.3479
  606MOL0     O81722   1.909  -0.234   4.500  0.5924 -0.5370  0.4789
  606MOL0     C81723   1.953  -0.206   4.854 -0.5870 -0.5903  0.5591
  606MOL0     C81724   1.896  -0.254   4.972 -0.7627 -0.5051  0.0596
  606MOL0     N81725   1.597  -0.685   5.549  0.5625 -0.0780  0.0271
  606MOL0     N81726   1.495  -0.700   5.617  0.0681  0.5232  1.7469
  606MOL0     C81727   1.311   0.390   5.719 -0.2044  0.4184 -0.0129
  606MOL0     C81728   1.378   0.485   5.782 -0.0149  0.3920  0.3063
  606MOL0     C81729   1.436   0.895   6.010 -0.3165 -0.3326  0.3357
  606MOL0     C81730   1.393   1.005   6.076 -0.1324  0.2640 -0.8142
  606MOL0     C81731   1.472   1.084   6.151  0.5343 -0.1607 -0.2910
  606MOL0     C81732   1.609   1.071   6.157 -0.0124  1.1957  1.4713
  606MOL0     O81733   1.705   1.148   6.211 -0.0127 -0.3133 -0.8521
  606MOL0     C81734   1.666   1.254   6.304 -1.0582  0.6469 -0.7552
  606MOL0     C81735   1.764   1.284   6.423 -0.7196  0.0099 -0.5541
  606MOL0     C81736   1.870   1.385   6.383  0.5649  0.3254 -0.4352
  606MOL0     C81737   1.963   1.354   6.260  0.2332 -0.0628 -0.0534
  606MOL0     C81738   2.056   1.459   6.218 -0.5272  0.1807  0.6151
  606MOL0     C81739   2.145   1.551   6.203  1.1996  0.9844 -0.7164
  606MOL0     C81740   1.660   0.952   6.096  0.8253 -0.6140  0.1150
  606MOL0     C81741   1.579   0.867   6.026  0.7838  0.5913 -0.4563
  606MOL0     C81742   1.649   0.734   5.980  0.7477 -0.2043 -0.7037
  606MOL0     H81743   1.136   0.725   5.787  1.1344  0.5130  3.2505
  606MOL0     H81744   1.009   0.545   5.671  0.2852 -0.7596 -2.0505
  606MOL0     H81745   1.262   0.155   5.630 -0.9069 -0.3940  0.2554
  606MOL0     H81746   1.116   0.143   5.706  1.9661 -0.5890  1.1679
  606MOL0     H81747   1.184   0.077   5.418  0.1905  0.7197 -0.5702
  606MOL0     H81748   1.022   0.117   5.471 -0.1435  1.2332  2.9776
  606MOL0     H81749   1.025  -0.119   5.507 -2.2462 -1.2704  3.5995
  606MOL0     H81750   1.044  -0.041   5.665  0.8887 -3.0797  0.8462
  606MOL0     H81751   1.246  -0.176   5.471 -0.6186  3.3481 -1.6096
  606MOL0     H81752   1.305  -0.093   5.624  0.6864  0.7163 -0.1348
  606MOL0     H81753   1.159  -0.243   5.760 -0.6987 -1.7455  0.6335
  606MOL0     H81754   1.109  -0.320   5.612 -1.4385  0.7068  1.5283
  606MOL0     H81755   1.366  -0.361   5.567 -0.5346  1.3273 -1.5904
  606MOL0     H81756   1.404  -0.317   5.735  0.8960  0.9280 -0.3772
  606MOL0     H81757   1.239  -0.549   5.631 -0.3423  2.1393 -1.1794
  606MOL0     H81758   1.182  -0.474   5.779 -0.3346 -1.1841  1.1396
  606MOL0     H81759   1.398  -0.512   5.887 -0.3510  0.2893  0.7219
  606MOL0     H81760   1.322  -0.655   5.819  1.8139 -1.1494 -0.5501
  606MOL0     H81761   1.639  -0.417   5.726  0.6531 -0.6020  1.3147
  606MOL0     H81762   1.818  -0.447   5.568 -4.1579  0.6521  2.3570
  606MOL0     H81763   1.835  -0.597   5.464  2.3563  0.5506  0.8129
  606MOL0     H81764   1.652  -0.362   5.429 -1.5149 -0.1623 -1.4965
  606MOL0     H81765   1.812  -0.365   5.358 -0.2369  0.2266 -1.3163
  606MOL0     H81766   1.551  -0.521   5.269 -0.0855 -0.0491 -0.6889
  606MOL0     H81767   1.715  -0.600   5.253 -1.5388 -0.4903  1.4780
  606MOL0     H81768   1.677  -0.317   5.181 -0.4453  0.4053 -0.2783
  606MOL0     H81769   1.609  -0.447   5.069  1.0277  0.8274 -1.0925
  606MOL0     H81770   1.738  -0.524   4.856  0.3151 -0.7539 -0.2129
  606MOL0     H81771   1.812  -0.432   4.645 -1.3462  0.9171 -2.1410
  606MOL0     H81772   2.134  -0.330   4.369 -2.9382  1.7300  1.8487
  606MOL0     H81773   2.240  -0.263   4.167 -1.3043 -0.2956 -0.5425
  606MOL0     H81774   2.346  -0.134   3.960  2.7252  1.1914 -0.4685
  606MOL0     H81775   2.187  -0.065   4.016  1.2370 -2.1023  1.1882
  606MOL0     H81776   2.239   0.051   3.827 -0.9150  0.4637 -0.2868
  606MOL0     H81777   2.248   0.163   3.949 -2.2583  0.1756 -3.0958
  606MOL0     H81778   2.503   0.151   3.952 -2.7497 -2.4473  2.9142
  606MOL0     H81779   2.494   0.023   3.831 -1.9191 -0.0665 -0.7101
  606MOL0     H81780   2.532   0.286   3.768  0.0854 -0.3178 -1.0828
  606MOL0     H81781   2.366   0.293   3.760  1.1860  1.1794 -0.7819
  606MOL0     H81782   2.469   0.238   3.537  2.0982 -0.5093 -0.4145
  606MOL0     H81783   2.392   0.091   3.586 -0.5274  0.2845  1.4224
  606MOL0     H81784   2.588  -0.019   3.645  1.8827 -0.2764 -0.4067
  606MOL0     H81785   2.614   0.059   3.486  0.0179  0.6883 -0.9405
  606MOL0     H81786   2.711   0.188   3.745  0.0222  0.5203 -0.4442
  606MOL0     H81787   2.749   0.229   3.570  0.2531 -1.0295 -1.0179
  606MOL0     H81788   2.922   0.100   3.737  1.8475 -2.3739  0.2154
  606MOL0     H81789   2.827  -0.042   3.718 -0.4443 -0.8311 -2.1326
  606MOL0     H81790   2.337   0.121   4.349 -0.5115  0.3380  2.1365
  606MOL0     H81791   2.232   0.057   4.548  0.8689 -0.7735  0.4117
  606MOL0     H81792   2.008  -0.113   4.868 -1.9894  0.0383  2.2736
  606MOL0     H81793   1.923  -0.198   5.061 -2.0356  2.3992 -1.2389
  606MOL0     H81794   1.378   0.308   5.698  1.5848  2.0290 -0.9442
  606MOL0     H81795   1.479   0.459   5.814  0.1589  0.8184  0.1155
  606MOL0     H81796   1.288   1.026   6.061 -0.0544 -0.5651 -2.8632
  606MOL0     H81797   1.431   1.168   6.206  0.1987  0.2335 -1.1382
  606MOL0     H81798   1.575   1.237   6.363 -0.8867  2.5511  0.1383
  606MOL0     H81799   1.653   1.338   6.236  3.2707  1.1806 -1.1881
  606MOL0     H81800   1.805   1.186   6.450  0.3169  0.5186 -0.2027
  606MOL0     H81801   1.715   1.316   6.516  1.4470 -0.2621  0.7681
  606MOL0     H81802   1.936   1.381   6.470 -3.0153 -0.8246  2.4866
  606MOL0     H81803   1.836   1.489   6.378  2.6644  1.0853  0.3325
  606MOL0     H81804   2.019   1.261   6.269 -0.9493 -0.7307  0.6572
  606MOL0     H81805   1.891   1.317   6.187  0.6916 -0.2819 -0.3962
  606MOL0     H81806   2.211   1.633   6.184 -1.6407  3.2161 -1.7161
  606MOL0     H81807   1.768   0.950   6.103  0.8503 -0.5638 -0.2059
  606MOL0     H81808   1.733   0.706   6.045 -1.0973 -3.0589  0.6377
  606MOL0     H81809   1.587   0.644   5.985  2.9853 -1.8320 -0.5844
  606MOL0     H81810   1.682   0.751   5.876  0.1796 -1.7061 -1.1576
  607MOL0     O81811   7.777   0.017   0.405  1.0046  0.3905  0.2060
  607MOL0     C81812   7.817  -0.075   0.481  0.0528 -0.3074 -0.1128
  607MOL0     O81813   7.867  -0.068   0.614  0.5135 -0.0928 -0.0102
  607MOL0     C81814   7.879   0.054   0.680 -0.0899  0.7453  0.4801
  607MOL0     C81815   7.810   0.175   0.651  0.5471 -0.5020 -0.1275
  607MOL0     C81816   7.823   0.286   0.749  0.0884  1.3865 -0.0471
  607MOL0     C81817   7.886   0.272   0.869 -0.3994 -0.3418  0.2884
  607MOL0     O81818   7.881   0.373   0.972  0.7173  0.1555  0.1258
  607MOL0     C81819   7.820   0.500   0.941 -0.6471 -0.9528  0.0862
  607MOL0     C81820   7.815   0.584   1.077 -0.1875 -0.3148 -0.5652
  607MOL0     C81821   7.800   0.736   1.065 -0.5218  0.1228  0.2314
  607MOL0     C81822   7.769   0.816   1.193  0.8543  0.4110 -0.7033
  607MOL0     C81823   7.733   0.960   1.137 -0.4354 -0.5597  0.3387
  607MOL0     C81824   7.644   1.047   1.222  0.3038  0.1076 -0.5669
  607MOL0     C81825   7.632   1.185   1.163  0.5860 -0.0766  1.0148
  607MOL0     C81826   7.527   1.260   1.230 -0.4532 -1.1504  0.9601
  607MOL0     N81827   7.546   1.419   1.221 -0.5241 -0.6088 -0.3230
  607MOL0     C81828   7.468   1.509   1.153 -1.0927  0.2230 -0.9853
  607MOL0     C81829   7.536   1.629   1.164  0.6795  0.3178 -0.5896
  607MOL0     C81830   7.487   1.749   1.099 -0.3728 -0.1017  0.1425
  607MOL0     C81831   7.469   1.871   1.186  0.9553  0.5367 -0.6718
  607MOL0     C81832   7.598   1.953   1.218 -0.3256  0.0324  0.1528
  607MOL0     C81833   7.592   2.059   1.329  0.1889 -0.0818 -1.0471
  607MOL0     O81834   7.477   2.147   1.323 -0.7254 -0.8638  0.2246
  607MOL0     C81835   7.469   2.268   1.247 -1.1339 -0.3271  0.8000
  607MOL0     C81836   7.578   2.344   1.194 -0.1041  0.6471  0.0215
  607MOL0     C81837   7.562   2.463   1.122 -0.9199 -0.4894 -1.0500
  607MOL0     C81838   7.430   2.524   1.120 -0.8993  0.9452 -0.4761
  607MOL0     C81839   7.405   2.653   1.058 -0.6962 -1.3414  0.3721
  607MOL0     O81840   7.276   2.681   1.033 -0.0151  0.6755 -1.0240
  607MOL0     C81841   7.239   2.814   1.037  0.5501  0.0348  0.2865
  607MOL0     C81842   7.211   2.873   0.918 -0.5250  0.8679  1.7047
  607MOL0     C81843   7.165   3.003   0.914 -0.0319  0.0995 -0.5691
  607MOL0     C81844   7.161   3.089   1.026  0.4070  0.7484  0.4480
  607MOL0     O81845   7.122   3.220   1.042 -0.7957  0.0345 -0.1505
  607MOL0     C81846   7.114   3.310   0.933 -0.2284 -0.7118 -0.1923
  607MOL0     C81847   7.092   3.439   1.009  0.1512  0.4613  1.0066
  607MOL0     C81848   7.113   3.569   0.919 -0.3095  0.3011  0.9536
  607MOL0     C81849   7.109   3.703   0.990  0.4375 -1.2647 -0.6500
  607MOL0     C81850   6.970   3.773   0.987 -0.8838 -0.2960 -0.8951
  607MOL0     C81851   6.866   3.689   1.069 -0.1292 -0.1000  0.4669
  607MOL0     C81852   6.731   3.762   1.055  1.0408 -0.5424  0.8883
  607MOL0     C81853   6.633   3.720   1.160  0.2593 -0.0648  0.0398
  607MOL0    Cl81854   6.606   3.538   1.129 -0.5064 -0.0203  0.4217
  607MOL0     C81855   7.187   3.021   1.141  1.0623 -0.0836  0.7587
  607MOL0     C81856   7.220   2.889   1.153  0.4823  0.7755  0.4679
  607MOL0     O81857   7.503   2.733   1.044  0.3344 -0.0587  0.2943
  607MOL0     C81858   7.331   2.453   1.177 -0.0435  0.0823  0.7002
  607MOL0     C81859   7.349   2.329   1.233  0.1873  1.4914  1.6218
  607MOL0     N81860   7.643   1.603   1.243  0.4299 -0.2678  0.7474
  607MOL0     N81861   7.650   1.485   1.279  0.5360  0.2572 -1.0730
  607MOL0     C81862   7.955   0.153   0.886  0.5985 -0.5224  0.0410
  607MOL0     C81863   7.950   0.042   0.798  0.5024  0.3373  0.4872
  607MOL0     C81864   7.811  -0.211   0.416 -0.2303 -0.0701 -0.3136
  607MOL0     C81865   7.923  -0.251   0.342 -0.3210  0.6164 -0.5881
  607MOL0     C81866   7.938  -0.388   0.302  0.3600 -0.1252  0.2729
  607MOL0     C81867   7.843  -0.481   0.335  0.9265 -0.7181  0.1109
  607MOL0     O81868   7.837  -0.619   0.306 -0.2677 -0.1095  0.3925
  607MOL0     C81869   7.956  -0.701   0.295 -0.3172 -0.1300 -0.4071
  607MOL0     C81870   7.976  -0.769   0.427 -0.0029  0.8483  0.5160
  607MOL0     C81871   8.097  -0.865   0.426  0.1391 -0.0106 -0.3134
  607MOL0     C81872   8.058  -1.002   0.372  0.0405 -0.1794  0.5053
  607MOL0     C81873   8.071  -1.001   0.231  0.6765  0.2859  0.6337
  607MOL0     C81874   8.065  -0.999   0.111  0.2089 -1.0711 -0.0525
  607MOL0     C81875   7.726  -0.439   0.406 -0.8662 -0.0102  0.6328
  607MOL0     C81876   7.721  -0.301   0.454  0.3337 -0.1277 -0.3543
  607MOL0     C81877   7.613  -0.275   0.546 -0.4913 -0.2096 -0.5549
  607MOL0     H81878   7.740   0.192   0.569  0.4190  5.0332  0.7014
  607MOL0     H81879   7.762   0.373   0.727  0.8447  2.0691  0.5033
  607MOL0     H81880   7.890   0.548   0.872  3.2523 -2.9245  2.2862
  607MOL0     H81881   7.719   0.495   0.898 -0.5801  2.3095 -0.6416
  607MOL0     H81882   7.913   0.564   1.122  0.9499 -0.1793 -2.8035
  607MOL0     H81883   7.738   0.541   1.141  2.1136 -2.1062  1.2020
  607MOL0     H81884   7.717   0.748   0.995 -1.1080  1.5558  1.1361
  607MOL0     H81885   7.889   0.786   1.024 -0.7424  0.5798  0.3078
  607MOL0     H81886   7.680   0.770   1.238  3.0784 -0.5840  3.1058
  607MOL0     H81887   7.849   0.812   1.267  0.4301  1.6187 -0.1560
  607MOL0     H81888   7.828   1.011   1.124  1.7712 -3.7348  2.4090
  607MOL0     H81889   7.673   0.957   1.046  0.4901 -0.5603 -0.2716
  607MOL0     H81890   7.545   1.001   1.219  1.0187 -1.4621 -1.0746
  607MOL0     H81891   7.678   1.050   1.326  1.6305 -2.5333 -0.8553
  607MOL0     H81892   7.604   1.176   1.058  0.8221  0.3337  0.9124
  607MOL0     H81893   7.728   1.237   1.171  1.2375 -1.1393  0.2372
  607MOL0     H81894   7.427   1.246   1.188 -0.3846 -0.2217  0.4453
  607MOL0     H81895   7.532   1.236   1.336  3.2666 -3.9826  0.3646
  607MOL0     H81896   7.372   1.494   1.105 -1.2772 -3.7811  0.2674
  607MOL0     H81897   7.565   1.768   1.023 -0.5266  0.5749  0.1528
  607MOL0     H81898   7.397   1.715   1.047  0.8427 -2.7447 -0.4304
  607MOL0     H81899   7.401   1.941   1.138  0.2876  0.6061  0.3483
  607MOL0     H81900   7.420   1.846   1.280  3.5168 -1.2781  0.3167
  607MOL0     H81901   7.628   2.003   1.126  0.9303 -1.5078 -0.3179
  607MOL0     H81902   7.682   1.882   1.227 -1.9538 -1.9796  0.2904
  607MOL0     H81903   7.681   2.120   1.345 -0.5278  0.6236  0.4153
  607MOL0     H81904   7.580   2.004   1.423 -1.7548 -1.4206 -2.0149
  607MOL0     H81905   7.680   2.308   1.202  0.1650  1.4783  0.4445
  607MOL0     H81906   7.642   2.508   1.065  0.4970 -2.6107 -0.8589
  607MOL0     H81907   7.223   2.818   0.825 -1.8837  2.4215  0.5367
  607MOL0     H81908   7.151   3.056   0.821 -1.8307  4.7190  1.9928
  607MOL0     H81909   7.205   3.330   0.875  0.3387 -0.8237  0.6468
  607MOL0     H81910   7.029   3.295   0.865 -1.2615 -2.2232  1.3504
  607MOL0     H81911   7.001   3.451   1.069  1.1044  3.5153  2.0258
  607MOL0     H81912   7.173   3.462   1.079  0.2307  2.2940  0.3736
  607MOL0     H81913   7.208   3.558   0.867 -1.1147 -1.0609 -0.3204
  607MOL0     H81914   7.037   3.553   0.841  1.7326 -1.3193 -0.8273
  607MOL0     H81915   7.169   3.776   0.935 -2.4140  1.9949  0.2142
  607MOL0     H81916   7.150   3.695   1.091  0.3522 -2.2480 -0.6800
  607MOL0     H81917   6.937   3.779   0.882 -1.6188  1.3393 -0.5958
  607MOL0     H81918   6.982   3.875   1.024  2.0383 -0.6884 -0.4974
  607MOL0     H81919   6.851   3.588   1.030  0.4988  1.2247 -3.6540
  607MOL0     H81920   6.897   3.678   1.173  2.5771 -1.5968 -0.4239
  607MOL0     H81921   6.694   3.732   0.956  2.5312 -1.9842  0.7306
  607MOL0     H81922   6.739   3.871   1.064  1.3357 -0.5341  0.5551
  607MOL0     H81923   6.667   3.738   1.263  2.0277 -1.7747 -0.1739
  607MOL0     H81924   6.538   3.771   1.144  0.4197  0.1926 -0.1039
  607MOL0     H81925   7.185   3.073   1.236 -2.7050 -0.8060  1.2363
  607MOL0     H81926   7.258   2.855   1.249  2.3383  2.0572  0.2448
  607MOL0     H81927   7.231   2.492   1.164  0.4669  0.5418 -2.5858
  607MOL0     H81928   7.256   2.280   1.261 -0.3537  1.0360 -0.7162
  607MOL0     H81929   8.002   0.125   0.980  0.8166  1.7407  0.6479
  607MOL0     H81930   7.999  -0.049   0.831 -0.7338 -1.2282 -1.7197
  607MOL0     H81931   8.006  -0.183   0.327  2.6350 -2.8726 -1.4455
  607MOL0     H81932   8.037  -0.411   0.263  0.2059 -2.1795  0.9619
  607MOL0     H81933   8.036  -0.631   0.267 -1.7103  2.4640  1.6164
  607MOL0     H81934   7.940  -0.780   0.222  3.0084 -0.4122 -0.9569
  607MOL0     H81935   7.888  -0.833   0.438  1.1684 -0.8232  0.6112
  607MOL0     H81936   7.984  -0.695   0.507  1.3153  1.4688 -0.1589
  607MOL0     H81937   8.128  -0.887   0.528  0.8130 -1.2685 -0.7653
  607MOL0     H81938   8.187  -0.825   0.380 -0.9228  2.9386 -0.0258
  607MOL0     H81939   8.135  -1.073   0.405 -2.1905 -2.8810  0.1727
  607MOL0     H81940   7.967  -1.056   0.397 -0.2770  0.2649  0.3152
  607MOL0     H81941   8.067  -0.980   0.006 -0.3083  0.1534  0.1415
  607MOL0     H81942   7.640  -0.501   0.425 -2.2174  1.2645 -0.9720
  607MOL0     H81943   7.511  -0.261   0.511 -0.3450 -1.0681 -1.3555
  607MOL0     H81944   7.602  -0.362   0.611  1.4961 -0.0965  0.0141
  607MOL0     H81945   7.639  -0.201   0.623 -0.8261 -1.7994  1.1656
  608MOL0     O81946   6.167   8.506   6.830 -0.1549 -0.7267  0.2773
  608MOL0     C81947   6.048   8.543   6.861 -0.9155  0.5062  0.0626
  608MOL0     O81948   5.943   8.559   6.776  0.1606  0.3693 -0.9786
  608MOL0     C81949   5.949   8.546   6.645 -0.5361  0.0999  0.6486
  608MOL0     C81950   6.051   8.603   6.561 -0.4225  0.3655  0.0551
  608MOL0     C81951   6.051   8.585   6.422  0.3593 -0.0794  0.0863
  608MOL0     C81952   5.958   8.500   6.369  0.0628 -0.1389  0.0274
  608MOL0     O81953   5.968   8.487   6.231 -0.0207 -0.4511 -0.0175
  608MOL0     C81954   5.853   8.513   6.142  0.2169  0.1603 -0.1188
  608MOL0     C81955   5.819   8.663   6.114 -0.1006  0.0740  0.1583
  608MOL0     C81956   5.695   8.682   6.029 -0.3031  0.4517 -0.1757
  608MOL0     C81957   5.689   8.821   5.974 -0.8827 -0.4903  0.1785
  608MOL0     C81958   5.544   8.850   5.922  0.2893 -0.7438 -0.4400
  608MOL0     C81959   5.533   9.006   5.905 -0.8935  0.0749  0.1416
  608MOL0     C81960   5.538   9.092   6.030 -0.3023 -0.2729 -0.6584
  608MOL0     C81961   5.543   9.238   5.998 -1.1121 -1.1547 -0.1340
  608MOL0     N81962   5.540   9.313   6.128 -0.2817 -0.5235 -1.0240
  608MOL0     C81963   5.648   9.355   6.204  1.5050  0.3024  0.5603
  608MOL0     C81964   5.608   9.466   6.270  0.4531 -0.1907 -0.0539
  608MOL0     C81965   5.704   9.562   6.331 -0.1342 -0.4007  0.4720
  608MOL0     C81966   5.745   9.655   6.221 -0.4055  0.5892 -0.2781
  608MOL0     C81967   5.635   9.760   6.181  0.6197  0.6997 -0.4633
  608MOL0     C81968   5.681   9.830   6.049 -0.4993 -0.2475 -0.3907
  608MOL0     O81969   5.700   9.738   5.934  0.6320  0.1159  0.0980
  608MOL0     C81970   5.760   9.791   5.822 -1.0291  0.1565 -0.1550
  608MOL0     C81971   5.782   9.922   5.788 -0.4953  0.3139  0.1237
  608MOL0     C81972   5.840   9.970   5.675 -1.0031 -0.9218 -0.6363
  608MOL0     C81973   5.874   9.875   5.573 -0.4464 -0.2467  0.2171
  608MOL0     C81974   5.933   9.922   5.440  0.4757 -0.4647 -0.3790
  608MOL0     O81975   5.973   9.824   5.357 -1.0585 -0.2838 -0.4121
  608MOL0     C81976   6.045   9.861   5.243 -0.5762 -0.4179 -0.5194
  608MOL0     C81977   6.189   9.861   5.233  1.0386  0.4922  0.1049
  608MOL0     C81978   6.267   9.909   5.128 -0.2111  0.2312 -0.6197
  608MOL0     C81979   6.198   9.945   5.011  1.1509 -0.3237  0.3294
  608MOL0     O81980   6.273   9.978   4.904  0.8047  0.2242 -0.3493
  608MOL0     C81981   6.220  10.038   4.788 -0.3783  0.0026  0.5770
  608MOL0     C81982   6.330  10.091   4.692 -0.2709  0.4165 -0.7910
  608MOL0     C81983   6.281  10.111   4.548  0.5931  0.6685  0.3618
  608MOL0     C81984   6.176  10.223   4.544  0.0311 -0.5251 -0.2789
  608MOL0     C81985   6.227  10.362   4.587 -0.6701 -1.0824  0.3295
  608MOL0     C81986   6.105  10.452   4.620 -0.0539  0.2918 -0.0566
  608MOL0     C81987   6.143  10.593   4.628 -1.1095  0.0147  0.0436
  608MOL0     C81988   6.015  10.692   4.644  0.6054  0.0704 -0.2708
  608MOL0    Cl81989   5.933  10.644   4.797  0.2026 -0.1692  0.1154
  608MOL0     C81990   6.053   9.931   5.009  0.3465 -0.5447  1.1803
  608MOL0     C81991   5.983   9.900   5.128 -0.1549 -0.6657 -0.4809
  608MOL0     O81992   5.939  10.041   5.425 -0.8635 -0.0149 -0.0067
  608MOL0     C81993   5.859   9.736   5.608 -0.1705  0.1903 -0.2231
  608MOL0     C81994   5.807   9.692   5.730  1.2628  0.6026  0.0448
  608MOL0     N81995   5.469   9.490   6.236 -0.7556 -0.2771 -0.3914
  608MOL0     N81996   5.428   9.383   6.169 -1.0565  0.1097 -0.6058
  608MOL0     C81997   5.857   8.442   6.446  0.2857 -0.3795  0.0010
  608MOL0     C81998   5.854   8.474   6.579 -1.0454 -0.7042  0.0535
  608MOL0     C81999   6.024   8.546   7.009  0.9644  1.1049 -0.5103
  608MOL0     C82000   5.908   8.490   7.056  0.1240  0.3304  0.2113
  608MOL0     C82001   5.892   8.467   7.194 -0.0891 -0.6581 -1.0733
  608MOL0     C82002   5.993   8.495   7.279 -0.5243  0.1961 -0.5030
  608MOL0     O82003   5.981   8.476   7.417 -0.1316  0.0282  0.0453
  608MOL0     C82004   5.870   8.542   7.473 -0.8755  0.7660  0.2205
  608MOL0     C82005   5.859   8.521   7.628 -0.3863  0.2698  0.9378
  608MOL0     C82006   5.990   8.569   7.699 -0.3185 -0.0818  0.3114
  608MOL0     C82007   5.962   8.608   7.848  0.0927  0.1686 -0.3693
  608MOL0     C82008   5.910   8.494   7.929 -0.6971 -0.1955  0.0336
  608MOL0     C82009   5.865   8.430   8.010 -0.5348  2.0824 -0.1136
  608MOL0     C82010   6.109   8.554   7.237 -0.6913  0.3103  0.3497
  608MOL0     C82011   6.120   8.581   7.100 -0.3832 -0.5096 -0.2248
  608MOL0     C82012   6.241   8.667   7.052  0.7292 -0.6401 -0.1855
  608MOL0     H82013   6.140   8.652   6.599  2.2481 -1.1466 -3.6836
  608MOL0     H82014   6.132   8.628   6.364  2.5650 -0.8922  2.3462
  608MOL0     H82015   5.878   8.461   6.048 -0.9637  3.4422 -2.4400
  608MOL0     H82016   5.764   8.464   6.183 -0.8559  1.6705 -0.5238
  608MOL0     H82017   5.907   8.708   6.068  0.3305 -1.6803 -0.8093
  608MOL0     H82018   5.817   8.714   6.211  2.3777  2.2906 -0.8385
  608MOL0     H82019   5.612   8.650   6.093  0.2506  1.5040  1.1099
  608MOL0     H82020   5.691   8.622   5.937  1.8476  4.3690 -3.1431
  608MOL0     H82021   5.724   8.886   6.055  3.2335 -2.7254  0.4241
  608MOL0     H82022   5.761   8.830   5.892 -1.0593 -0.6227  0.0067
  608MOL0     H82023   5.527   8.793   5.830  0.5647  0.7039 -1.4313
  608MOL0     H82024   5.462   8.826   5.990 -1.4262  1.0313 -1.7413
  608MOL0     H82025   5.610   9.034   5.833 -0.9151 -0.9043 -0.2831
  608MOL0     H82026   5.443   9.016   5.843 -0.3695  0.4939 -0.5672
  608MOL0     H82027   5.620   9.064   6.098  2.2105 -1.3224 -3.8811
  608MOL0     H82028   5.442   9.088   6.082  0.3909  0.2968  0.7461
  608MOL0     H82029   5.642   9.253   5.954  0.9792  0.5748  4.5402
  608MOL0     H82030   5.462   9.275   5.935  0.2868  1.9503 -0.2898
  608MOL0     H82031   5.749   9.315   6.193  1.2600 -0.1209 -0.2174
  608MOL0     H82032   5.664   9.631   6.407  0.3421  1.5850 -0.9989
  608MOL0     H82033   5.787   9.508   6.378  0.6754  1.3491  1.1362
  608MOL0     H82034   5.831   9.711   6.259 -1.7362  0.0775  4.0223
  608MOL0     H82035   5.783   9.596   6.137  0.6661  2.1769 -0.9522
  608MOL0     H82036   5.613   9.831   6.261  1.3677  1.6470 -1.0704
  608MOL0     H82037   5.545   9.705   6.154  2.9215 -2.6296 -2.0213
  608MOL0     H82038   5.775   9.881   6.071  1.7144 -3.4790 -1.4879
  608MOL0     H82039   5.605   9.902   6.016 -0.1627  0.6429  0.7394
  608MOL0     H82040   5.755   9.998   5.861  1.7022  0.7345  0.5738
  608MOL0     H82041   5.858  10.074   5.652 -2.5428 -0.7399 -1.0716
  608MOL0     H82042   6.232   9.828   5.327  0.5013  0.6286  0.4084
  608MOL0     H82043   6.373   9.901   5.149  0.0523  0.7485 -1.6990
  608MOL0     H82044   6.173   9.965   4.722  2.3761  1.3021 -3.1710
  608MOL0     H82045   6.141  10.111   4.806 -0.4469 -0.3214  1.6907
  608MOL0     H82046   6.358  10.189   4.732 -1.2762  1.8787 -3.4424
  608MOL0     H82047   6.414  10.022   4.703 -0.7618 -0.1832 -0.6879
  608MOL0     H82048   6.371  10.124   4.487  1.4217 -1.3868  1.0499
  608MOL0     H82049   6.242  10.024   4.494  0.9183  2.0023 -2.1487
  608MOL0     H82050   6.097  10.199   4.616 -0.0304  2.8335  0.9259
  608MOL0     H82051   6.131  10.222   4.444  4.2869  0.0640 -2.4514
  608MOL0     H82052   6.292  10.393   4.505  1.9887 -3.9001  1.1774
  608MOL0     H82053   6.299  10.361   4.670 -2.2412 -2.9545  1.7820
  608MOL0     H82054   6.022  10.437   4.550 -0.4745 -1.3025  0.7180
  608MOL0     H82055   6.068  10.410   4.714 -1.5424 -1.1927 -1.2495
  608MOL0     H82056   6.201  10.620   4.540 -0.8166 -2.8477 -0.7283
  608MOL0     H82057   6.218  10.600   4.708 -0.4429 -1.0490 -0.4583
  608MOL0     H82058   6.035  10.798   4.656 -0.9889  0.2087  1.6457
  608MOL0     H82059   5.954  10.664   4.558 -0.4302  0.6065  0.2778
  608MOL0     H82060   6.000   9.946   4.915  2.9807  2.6932  0.0410
  608MOL0     H82061   5.875   9.909   5.134 -0.1098  0.8848 -1.2591
  608MOL0     H82062   5.903   9.665   5.539  1.6565  1.8827 -0.9112
  608MOL0     H82063   5.803   9.586   5.755 -1.4172 -0.5297 -4.1453
  608MOL0     H82064   5.772   8.389   6.403 -0.7846  0.6993  0.7175
  608MOL0     H82065   5.780   8.430   6.644 -0.9297  1.1820  1.5702
  608MOL0     H82066   5.828   8.457   6.990  0.3143  0.8603 -0.2973
  608MOL0     H82067   5.802   8.422   7.235  1.5593  0.7415  4.9202
  608MOL0     H82068   5.781   8.494   7.432  0.7596 -2.0496 -0.2919
  608MOL0     H82069   5.885   8.647   7.447 -0.2058  0.6481  0.1031
  608MOL0     H82070   5.859   8.414   7.651  0.9791 -0.3820 -1.6757
  608MOL0     H82071   5.771   8.580   7.656 -0.7245  1.0252 -1.4976
  608MOL0     H82072   6.030   8.661   7.656  2.4195 -1.4965 -0.4077
  608MOL0     H82073   6.059   8.484   7.698  1.2610  1.0237 -3.5618
  608MOL0     H82074   6.058   8.636   7.892 -1.1889  0.9604  2.1038
  608MOL0     H82075   5.884   8.684   7.863  0.2483 -0.3226  4.2173
  608MOL0     H82076   5.822   8.356   8.075 -0.8534  1.1152 -1.3847
  608MOL0     H82077   6.183   8.579   7.313  1.4376 -2.4672 -0.6644
  608MOL0     H82078   6.335   8.610   7.050  2.4927  2.0904 -0.2491
  608MOL0     H82079   6.214   8.705   6.953 -2.6465 -0.1081  0.8394
  608MOL0     H82080   6.260   8.755   7.113  1.4078 -1.5842  1.0019
  609MOL0     O82081   1.440   7.068   4.865 -0.0888 -0.6544  0.0859
  609MOL0     C82082   1.388   7.172   4.837 -0.3283 -0.4382 -0.7219
  609MOL0     O82083   1.285   7.231   4.909 -0.0301  0.1215  0.4592
  609MOL0     C82084   1.245   7.165   5.018 -0.0267 -0.4298 -0.4226
  609MOL0     C82085   1.115   7.139   5.021 -1.0889 -0.7094  0.4579
  609MOL0     C82086   1.049   7.070   5.131  0.2512  0.5133 -0.8686
  609MOL0     C82087   1.131   7.032   5.233 -0.6835 -0.3085 -0.9744
  609MOL0     O82088   1.073   6.975   5.342  0.2486  0.2640 -0.5968
  609MOL0     C82089   1.142   6.876   5.419 -0.0924  0.5763  0.0558
  609MOL0     C82090   1.043   6.777   5.482  0.0100  0.0856  0.2631
  609MOL0     C82091   0.995   6.676   5.377  0.0063  0.2134  0.3651
  609MOL0     C82092   0.862   6.594   5.417  0.0917 -0.4008 -0.3649
  609MOL0     C82093   0.850   6.468   5.333  0.8582 -0.3428  0.4147
  609MOL0     C82094   0.710   6.436   5.276  0.4046  0.0784 -0.2396
  609MOL0     C82095   0.714   6.324   5.171 -0.6848 -0.1171 -0.3427
  609MOL0     C82096   0.581   6.292   5.107  0.1462 -0.0935 -1.1313
  609MOL0     N82097   0.592   6.192   5.002  1.1238 -0.2792  0.2106
  609MOL0     C82098   0.581   6.209   4.866  0.3639 -0.7591 -0.1431
  609MOL0     C82099   0.593   6.085   4.813 -0.2201 -0.1227 -0.1650
  609MOL0     C82100   0.576   6.035   4.675 -0.7612  0.1573 -1.1337
  609MOL0     C82101   0.433   6.031   4.624  0.7496  0.4349 -0.4843
  609MOL0     C82102   0.422   5.952   4.490 -0.6563  0.2216  0.7183
  609MOL0     C82103   0.285   5.970   4.419 -0.1185 -0.5682  0.4191
  609MOL0     O82104   0.275   6.091   4.334 -0.3147 -0.3481 -0.5322
  609MOL0     C82105   0.166   6.144   4.271 -0.5303  0.2064  0.0918
  609MOL0     C82106   0.036   6.098   4.296  0.1497 -0.6042 -0.2118
  609MOL0     C82107  -0.072   6.174   4.240 -0.3158  0.2167  0.0696
  609MOL0     C82108  -0.050   6.289   4.161  1.5595  0.5276  0.4420
  609MOL0     C82109  -0.168   6.366   4.111 -0.8153 -0.2334  0.2064
  609MOL0     O82110  -0.284   6.334   4.171 -0.1533 -0.6826 -0.4975
  609MOL0     C82111  -0.398   6.402   4.149  0.0073  0.1022 -0.0022
  609MOL0     C82112  -0.455   6.424   4.022  0.2020  0.0881 -0.3490
  609MOL0     C82113  -0.590   6.459   4.006  0.2389 -0.0059  0.5775
  609MOL0     C82114  -0.664   6.491   4.126  0.2390  0.4087 -0.5827
  609MOL0     O82115  -0.798   6.515   4.135 -0.1885 -0.6686 -0.7251
  609MOL0     C82116  -0.875   6.541   4.016  0.2319 -0.1450 -0.0698
  609MOL0     C82117  -0.921   6.408   3.959  0.9326  0.7247  0.5410
  609MOL0     C82118  -0.999   6.418   3.824  0.4277 -0.2649  0.5070
  609MOL0     C82119  -0.902   6.438   3.698 -0.2309 -0.9343  0.1672
  609MOL0     C82120  -0.982   6.500   3.587 -0.4264  1.0039 -0.1168
  609MOL0     C82121  -1.036   6.639   3.607  0.9090  0.6303  0.2882
  609MOL0     C82122  -1.044   6.719   3.480 -0.0991  0.3425 -0.7731
  609MOL0     C82123  -1.184   6.732   3.409 -0.6662 -0.3416  0.1751
  609MOL0    Cl82124  -1.155   6.819   3.252 -0.3349 -0.0282  0.1217
  609MOL0     C82125  -0.602   6.488   4.251 -0.5091  0.2230 -0.6620
  609MOL0     C82126  -0.473   6.454   4.261 -0.7227  0.2506 -0.2281
  609MOL0     O82127  -0.152   6.471   4.044  0.4169  1.0621 -0.5372
  609MOL0     C82128   0.082   6.342   4.142  0.2910  0.6702  0.7975
  609MOL0     C82129   0.186   6.256   4.199 -0.7021 -0.5731 -0.0646
  609MOL0     N82130   0.622   5.996   4.917  0.9721 -0.0275  0.2446
  609MOL0     N82131   0.623   6.062   5.025 -0.3188 -0.0624 -0.0924
  609MOL0     C82132   1.272   7.052   5.228  0.4043  0.2871 -0.5297
  609MOL0     C82133   1.329   7.115   5.120 -0.4307  0.1381 -1.0221
  609MOL0     C82134   1.438   7.244   4.706 -0.6699  1.1297  0.2623
  609MOL0     C82135   1.552   7.193   4.637 -0.3114 -0.0693 -0.0648
  609MOL0     C82136   1.596   7.237   4.510  0.0325  0.0650  0.2035
  609MOL0     C82137   1.521   7.349   4.454 -0.2093 -0.7950 -0.1314
  609MOL0     O82138   1.552   7.422   4.339  0.1612  0.4005 -0.2659
  609MOL0     C82139   1.656   7.380   4.245  0.0702 -0.1379 -0.1783
  609MOL0     C82140   1.662   7.482   4.130 -0.3545  0.4151  0.2199
  609MOL0     C82141   1.663   7.621   4.189  0.7529  0.0959  0.2126
  609MOL0     C82142   1.748   7.710   4.098  0.5328  0.3761  0.1934
  609MOL0     C82143   1.672   7.743   3.980 -0.3585  0.2638  0.8920
  609MOL0     C82144   1.607   7.768   3.873  1.1269  0.2689 -0.1980
  609MOL0     C82145   1.406   7.394   4.522  0.4930  0.2175  1.2800
  609MOL0     C82146   1.363   7.348   4.639 -1.1845  0.0287 -0.4356
  609MOL0     C82147   1.230   7.408   4.692 -0.3157  0.6469 -0.8248
  609MOL0     H82148   1.058   7.190   4.944  0.4478  1.8827  0.9244
  609MOL0     H82149   0.941   7.057   5.131  0.4553 -2.3078  1.4852
  609MOL0     H82150   1.227   6.827   5.371 -0.3321 -1.0915  1.2464
  609MOL0     H82151   1.179   6.948   5.494 -1.5576  0.6883  0.7001
  609MOL0     H82152   0.951   6.823   5.519 -0.2077 -0.2304  0.1138
  609MOL0     H82153   1.100   6.721   5.557  1.6901  0.1256 -0.9139
  609MOL0     H82154   1.074   6.604   5.354 -3.2749 -3.4522 -0.5232
  609MOL0     H82155   0.991   6.733   5.284  3.3608 -2.1369 -1.4579
  609MOL0     H82156   0.858   6.567   5.523  2.4797 -2.5357 -0.7236
  609MOL0     H82157   0.771   6.654   5.409 -0.6662 -1.5233 -0.4805
  609MOL0     H82158   0.916   6.473   5.246  2.2571  0.4768  1.4855
  609MOL0     H82159   0.888   6.393   5.404 -2.4201  1.5220  4.5931
  609MOL0     H82160   0.633   6.416   5.351 -1.5492 -0.0349 -2.1508
  609MOL0     H82161   0.690   6.530   5.224 -0.4210 -0.4540 -0.9409
  609MOL0     H82162   0.732   6.242   5.241  0.8674 -0.1086 -0.7104
  609MOL0     H82163   0.799   6.330   5.104 -0.1602  1.6727  0.4238
  609MOL0     H82164   0.497   6.273   5.174 -0.8925  1.7677 -1.8286
  609MOL0     H82165   0.546   6.385   5.062 -1.0302 -0.4430 -0.9777
  609MOL0     H82166   0.553   6.305   4.824  3.3805  0.2374 -0.1198
  609MOL0     H82167   0.638   6.097   4.610 -1.0689  1.0549 -0.5917
  609MOL0     H82168   0.621   5.935   4.674  0.2629  0.3737  3.0891
  609MOL0     H82169   0.360   5.990   4.694 -2.0797  2.2297 -2.1775
  609MOL0     H82170   0.405   6.135   4.601 -3.0013 -0.6013 -1.2708
  609MOL0     H82171   0.457   5.848   4.499  2.2931  1.2495  2.8743
  609MOL0     H82172   0.506   5.986   4.429 -1.3608  0.5943 -0.0494
  609MOL0     H82173   0.202   5.959   4.489 -2.8811 -1.3480 -2.7132
  609MOL0     H82174   0.266   5.889   4.348  0.4609  0.3924 -0.8799
  609MOL0     H82175   0.007   6.021   4.367 -1.4326  0.4775  0.3724
  609MOL0     H82176  -0.175   6.150   4.265 -0.3470 -0.0252 -0.2916
  609MOL0     H82177  -0.398   6.391   3.936 -2.7334 -2.5035 -1.5197
  609MOL0     H82178  -0.622   6.461   3.902 -1.0070 -1.7049  0.8945
  609MOL0     H82179  -0.954   6.614   4.038  3.5194  4.0710 -0.9667
  609MOL0     H82180  -0.813   6.601   3.948  2.4812  1.1193  2.9016
  609MOL0     H82181  -0.834   6.345   3.937  1.5264 -0.8163  5.9556
  609MOL0     H82182  -0.984   6.357   4.033  1.3796  0.2678  0.6112
  609MOL0     H82183  -1.051   6.322   3.815 -1.9875  0.9969  0.2620
  609MOL0     H82184  -1.071   6.499   3.840  1.7274  0.9754  0.2309
  609MOL0     H82185  -0.852   6.345   3.669  2.0985 -0.5843  2.6939
  609MOL0     H82186  -0.823   6.509   3.724  1.9831 -2.2035 -2.5880
  609MOL0     H82187  -1.059   6.425   3.569 -0.6536  0.7289  1.8142
  609MOL0     H82188  -0.912   6.503   3.503 -0.0598 -0.4598  0.1122
  609MOL0     H82189  -1.136   6.630   3.650 -0.6333  0.5523 -3.0669
  609MOL0     H82190  -0.976   6.702   3.673  2.6550  0.8338 -1.4227
  609MOL0     H82191  -0.958   6.693   3.417 -2.3611  0.9042 -4.3565
  609MOL0     H82192  -1.017   6.818   3.517  0.8373 -0.1469 -0.1027
  609MOL0     H82193  -1.215   6.631   3.381 -1.3398  0.6582 -3.1147
  609MOL0     H82194  -1.262   6.775   3.472  0.9112  1.5174  0.9770
  609MOL0     H82195  -0.653   6.508   4.344  1.5458 -0.2854  0.6435
  609MOL0     H82196  -0.435   6.437   4.361 -0.0656  1.1170 -0.3193
  609MOL0     H82197   0.100   6.427   4.077 -0.5687 -0.4592 -1.0020
  609MOL0     H82198   0.290   6.280   4.177 -0.7144 -1.9026 -1.8320
  609MOL0     H82199   1.320   7.034   5.323 -2.9001  0.6892  1.3638
  609MOL0     H82200   1.435   7.137   5.109 -0.5583  2.0183  1.0592
  609MOL0     H82201   1.622   7.123   4.681 -0.2363  0.0586  0.0170
  609MOL0     H82202   1.687   7.201   4.462 -2.3380 -2.9162 -2.4800
  609MOL0     H82203   1.635   7.278   4.210 -0.0731  0.5536 -2.1981
  609MOL0     H82204   1.753   7.382   4.296 -1.6043  3.3070  3.3716
  609MOL0     H82205   1.577   7.462   4.065  1.5296 -1.7623 -1.7730
  609MOL0     H82206   1.744   7.467   4.059 -1.2792 -2.4587 -0.3797
  609MOL0     H82207   1.715   7.630   4.285  0.9295  0.1776  0.1120
  609MOL0     H82208   1.568   7.673   4.207 -1.2098 -2.5392 -1.8464
  609MOL0     H82209   1.756   7.805   4.151 -2.7827  1.6973 -1.4137
  609MOL0     H82210   1.843   7.670   4.059 -0.8860  1.1243 -4.6584
  609MOL0     H82211   1.538   7.798   3.797 -0.9361 -0.3473  1.3334
  609MOL0     H82212   1.339   7.463   4.472  1.1711 -0.3435 -0.4995
  609MOL0     H82213   1.145   7.341   4.713 -0.5287  0.7012 -1.4920
  609MOL0     H82214   1.245   7.462   4.785  1.4892  1.5654 -1.6127
  609MOL0     H82215   1.188   7.482   4.623 -3.1741  0.5682  0.6479
  610MOL0     O82216  11.407   4.512   0.379  0.0296 -0.1004  0.0830
  610MOL0     C82217  11.475   4.614   0.377  0.5655  0.2816 -0.3038
  610MOL0     O82218  11.557   4.658   0.275 -0.0523  0.0511  0.4509
  610MOL0     C82219  11.592   4.572   0.178 -0.5687 -0.2075 -0.6938
  610MOL0     C82220  11.588   4.618   0.042  0.5300  0.5173 -0.4884
  610MOL0     C82221  11.647   4.548  -0.065  0.5764  0.2255 -1.1233
  610MOL0     C82222  11.705   4.424  -0.047  0.2230 -0.1436 -0.6411
  610MOL0     O82223  11.753   4.360  -0.162  0.1488 -0.3095 -0.5515
  610MOL0     C82224  11.864   4.281  -0.151 -0.6805  0.7177 -1.0684
  610MOL0     C82225  11.805   4.137  -0.142  0.1368 -1.1948 -0.7520
  610MOL0     C82226  11.908   4.035  -0.100  0.7491  0.0175 -0.3273
  610MOL0     C82227  11.939   4.038   0.049  0.3481 -0.8067  0.8154
  610MOL0     C82228  12.050   3.950   0.081 -0.0348  0.1657  0.0391
  610MOL0     C82229  12.176   4.014   0.053 -0.3215  0.3942  0.5021
  610MOL0     C82230  12.293   3.938   0.122  1.5809 -0.9359 -0.2251
  610MOL0     C82231  12.293   3.934   0.277 -0.1714 -0.2269 -0.3143
  610MOL0     N82232  12.423   3.869   0.327 -0.3014 -0.4287 -0.6533
  610MOL0     C82233  12.552   3.916   0.309 -0.1247 -0.3759 -0.2693
  610MOL0     C82234  12.631   3.838   0.387  1.2094  0.8849  0.1206
  610MOL0     C82235  12.776   3.863   0.414 -0.2413  0.0428  0.4154
  610MOL0     C82236  12.772   3.933   0.553  0.8499  0.2265 -0.6577
  610MOL0     C82237  12.716   4.076   0.567  0.1067  0.2593  0.0388
  610MOL0     C82238  12.734   4.127   0.714 -1.0958 -1.3422 -0.6949
  610MOL0     O82239  12.878   4.163   0.736 -0.0709 -1.0783 -0.1401
  610MOL0     C82240  12.911   4.186   0.869 -0.0187 -0.9829  0.4114
  610MOL0     C82241  12.888   4.314   0.928 -0.3607 -0.1725  0.3566
  610MOL0     C82242  12.917   4.332   1.068 -0.5766  0.1767 -1.4382
  610MOL0     C82243  12.977   4.225   1.144  1.0606  0.6397 -0.0364
  610MOL0     C82244  13.005   4.251   1.283 -1.5524 -0.4698 -0.5658
  610MOL0     O82245  13.105   4.181   1.339  1.0524  0.0352  0.4296
  610MOL0     C82246  13.103   4.136   1.470 -0.2675 -1.0123 -0.5107
  610MOL0     C82247  13.193   4.049   1.515  0.1099  0.3327 -1.2948
  610MOL0     C82248  13.205   4.013   1.659  0.4132 -0.2374  0.5549
  610MOL0     C82249  13.124   4.075   1.757  0.2664  1.3946  0.3529
  610MOL0     O82250  13.160   4.058   1.887 -0.2901  0.1739  0.2109
  610MOL0     C82251  13.099   4.144   1.979  1.0406  0.1542  0.5795
  610MOL0     C82252  13.143   4.098   2.117 -0.1792  0.1433  0.3805
  610MOL0     C82253  13.070   3.987   2.183 -1.2150 -0.4234  0.4121
  610MOL0     C82254  13.116   3.965   2.330 -0.3256 -0.0231 -0.2370
  610MOL0     C82255  13.042   3.869   2.420 -0.1692  0.3462 -0.2553
  610MOL0     C82256  13.075   3.875   2.568  0.0897 -0.0569 -0.5317
  610MOL0     C82257  13.232   3.893   2.588  0.0989 -0.9918  0.4805
  610MOL0     C82258  13.272   3.875   2.731 -0.0714  0.0557  0.0766
  610MOL0    Cl82259  13.185   3.979   2.853 -0.1025  0.0903  0.2664
  610MOL0     C82260  13.029   4.169   1.708 -0.4951  0.4811  0.3320
  610MOL0     C82261  13.022   4.194   1.571  0.0089  0.7140 -0.3710
  610MOL0     O82262  12.948   4.343   1.342 -0.0493 -0.8480 -0.0228
  610MOL0     C82263  12.992   4.103   1.080  0.9707  0.0523  0.0662
  610MOL0     C82264  12.967   4.081   0.941 -0.5679 -0.2269  0.7926
  610MOL0     N82265  12.555   3.731   0.446 -0.4618 -0.5041  0.2665
  610MOL0     N82266  12.433   3.755   0.399 -0.0828  0.1042 -0.3821
  610MOL0     C82267  11.707   4.364   0.081 -0.9103 -0.2935 -0.4659
  610MOL0     C82268  11.645   4.437   0.196  0.7595  0.1987 -0.2295
  610MOL0     C82269  11.445   4.702   0.490  1.0042  0.4249 -0.2731
  610MOL0     C82270  11.421   4.839   0.469  0.0290  1.5945 -0.2907
  610MOL0     C82271  11.379   4.922   0.575 -0.4841 -0.5177  0.0789
  610MOL0     C82272  11.378   4.871   0.706  0.5311 -0.0677 -0.6804
  610MOL0     O82273  11.344   4.971   0.804 -0.3245 -0.4310 -0.2254
  610MOL0     C82274  11.388   4.955   0.940 -0.4588  0.1036  0.6515
  610MOL0     C82275  11.335   5.069   1.027  0.5016 -0.2912 -0.2177
  610MOL0     C82276  11.184   5.070   1.062  0.5927  0.7933  0.0933
  610MOL0     C82277  11.156   5.133   1.202 -0.4057  0.4535 -0.7801
  610MOL0     C82278  11.185   5.044   1.318 -0.7897  0.8206  0.5941
  610MOL0     C82279  11.218   4.976   1.411  0.4196  0.0382 -1.1006
  610MOL0     C82280  11.413   4.740   0.731  0.3620  0.4571  0.6960
  610MOL0     C82281  11.450   4.660   0.624  0.0892  0.4134  0.1325
  610MOL0     C82282  11.516   4.525   0.667  0.0756 -0.3042 -0.6684
  610MOL0     H82283  11.552   4.720   0.029  1.9720  1.2020  0.6236
  610MOL0     H82284  11.644   4.590  -0.166 -2.2613  1.6890 -0.5278
  610MOL0     H82285  11.914   4.284  -0.248 -0.4370 -4.6829 -1.3993
  610MOL0     H82286  11.931   4.310  -0.070 -1.3331 -2.0483  0.6154
  610MOL0     H82287  11.773   4.101  -0.240 -1.7303  0.3194 -0.7541
  610MOL0     H82288  11.719   4.129  -0.074  0.1533  0.1121 -0.5631
  610MOL0     H82289  11.995   4.049  -0.165  0.5636  0.8150 -0.4114
  610MOL0     H82290  11.870   3.936  -0.129  1.5350 -0.3473 -0.1304
  610MOL0     H82291  11.948   4.143   0.081  1.1227 -0.2159 -1.1506
  610MOL0     H82292  11.845   3.998   0.089  0.0968 -2.2128 -1.0449
  610MOL0     H82293  12.036   3.932   0.188 -3.1426  1.0360 -0.1076
  610MOL0     H82294  12.053   3.853   0.031 -0.9202 -0.3085  0.8736
  610MOL0     H82295  12.188   4.008  -0.056  0.1715 -2.0916  0.6506
  610MOL0     H82296  12.178   4.117   0.092  1.0235  0.6845 -0.2551
  610MOL0     H82297  12.392   3.971   0.089  1.5788 -2.2808 -1.6852
  610MOL0     H82298  12.296   3.834   0.090  1.2745 -1.1112  0.3035
  610MOL0     H82299  12.299   4.039   0.307 -0.8238 -0.1250 -0.5382
  610MOL0     H82300  12.209   3.872   0.311  1.8524 -3.6132 -1.0507
  610MOL0     H82301  12.577   4.008   0.257  0.9849 -0.2176  0.5145
  610MOL0     H82302  12.832   3.772   0.437 -2.4906 -1.4308  0.3587
  610MOL0     H82303  12.827   3.921   0.337 -0.7000 -0.1237 -0.0200
  610MOL0     H82304  12.710   3.871   0.618 -1.6464 -0.5347 -3.5561
  610MOL0     H82305  12.874   3.928   0.594 -0.2905  1.5786  2.7582
  610MOL0     H82306  12.608   4.087   0.555  0.3287  3.7201  0.2617
  610MOL0     H82307  12.774   4.146   0.506 -1.6389  2.3197  0.5963
  610MOL0     H82308  12.683   4.052   0.776  1.3881 -2.2908  0.3357
  610MOL0     H82309  12.689   4.226   0.723  1.4726  0.3850 -4.4069
  610MOL0     H82310  12.851   4.390   0.860 -2.0979 -1.7366 -0.5404
  610MOL0     H82311  12.902   4.433   1.105  6.0535  1.5123 -1.2992
  610MOL0     H82312  13.277   4.017   1.454  1.6037  1.5794  0.0352
  610MOL0     H82313  13.276   3.938   1.691  1.3204 -0.3268 -1.4838
  610MOL0     H82314  13.113   4.251   1.964  1.6622 -0.3232 -3.7443
  610MOL0     H82315  12.994   4.116   1.959  1.9833 -2.7736 -0.9436
  610MOL0     H82316  13.251   4.082   2.116 -0.5802 -3.2980  1.0576
  610MOL0     H82317  13.133   4.190   2.176  2.2433  0.7848 -0.1218
  610MOL0     H82318  12.960   3.988   2.184 -1.2662 -0.5734 -1.4142
  610MOL0     H82319  13.088   3.901   2.118 -1.7239 -0.2626  0.0496
  610MOL0     H82320  13.112   4.059   2.387  1.7659 -0.3782  0.5942
  610MOL0     H82321  13.220   3.932   2.326 -0.4549 -0.3084 -1.3784
  610MOL0     H82322  13.063   3.766   2.387  1.7077  1.2426 -2.1358
  610MOL0     H82323  12.933   3.877   2.417 -0.1806  1.5195  1.7002
  610MOL0     H82324  13.023   3.963   2.608 -0.1477 -1.5213  2.6882
  610MOL0     H82325  13.043   3.786   2.623  2.4919  0.3606  1.7242
  610MOL0     H82326  13.264   3.992   2.555  2.1704 -0.5528  3.4373
  610MOL0     H82327  13.289   3.824   2.526 -1.2444 -1.5206 -0.2200
  610MOL0     H82328  13.265   3.768   2.749  0.2458 -0.1604 -0.9967
  610MOL0     H82329  13.381   3.881   2.738  0.1219 -1.4734 -1.2007
  610MOL0     H82330  12.959   4.221   1.773 -0.0929  1.1223  0.2624
  610MOL0     H82331  12.952   4.272   1.544 -0.0532  1.1591  0.9738
  610MOL0     H82332  13.010   4.010   1.133 -3.9017 -2.6988 -2.3930
  610MOL0     H82333  12.968   3.986   0.888 -2.1307  1.8180 -3.3554
  610MOL0     H82334  11.739   4.260   0.087 -1.4522 -0.6032 -2.3438
  610MOL0     H82335  11.647   4.385   0.291 -2.6102 -1.7785 -1.0950
  610MOL0     H82336  11.414   4.865   0.364 -2.2337  0.3693 -0.5075
  610MOL0     H82337  11.354   5.025   0.550  1.9755 -0.5151 -2.9522
  610MOL0     H82338  11.498   4.950   0.941 -0.4811 -0.4490  0.9023
  610MOL0     H82339  11.359   4.858   0.981  0.8053 -0.2139  0.8580
  610MOL0     H82340  11.351   5.168   0.984  0.9612  0.9655  2.5831
  610MOL0     H82341  11.390   5.055   1.121 -3.4257  0.4345  2.4351
  610MOL0     H82342  11.154   4.966   1.070  0.9348  0.6956  0.1102
  610MOL0     H82343  11.131   5.129   0.986  1.9571  1.9533 -0.0065
  610MOL0     H82344  11.216   5.225   1.205  0.9869 -0.2796  5.1938
  610MOL0     H82345  11.052   5.157   1.223 -0.7473 -0.5922 -1.2238
  610MOL0     H82346  11.256   4.909   1.486 -0.2731 -0.6771 -1.3717
  610MOL0     H82347  11.431   4.697   0.829  1.1317 -1.6866 -0.3107
  610MOL0     H82348  11.519   4.443   0.595 -0.4993  0.4906 -1.6304
  610MOL0     H82349  11.620   4.539   0.697 -0.0349 -0.3889 -0.2478
  610MOL0     H82350  11.458   4.488   0.752 -1.2944 -0.0719 -1.4711
  611MOL0     O82351   2.410   5.167   8.531 -0.3998 -0.6769  0.3489
  611MOL0     C82352   2.366   5.092   8.609 -0.5096  0.2140 -1.0143
  611MOL0     O82353   2.233   5.049   8.608  0.5337  0.8269 -0.3740
  611MOL0     C82354   2.128   5.100   8.529 -0.2221 -0.0785 -0.5323
  611MOL0     C82355   2.141   5.194   8.424 -0.2850  0.1725  0.3454
  611MOL0     C82356   2.024   5.252   8.374 -0.3625  0.4217 -1.1098
  611MOL0     C82357   1.894   5.215   8.414 -0.1014 -0.2999 -1.6738
  611MOL0     O82358   1.800   5.284   8.348 -0.3159  0.0073 -0.4072
  611MOL0     C82359   1.694   5.213   8.308 -0.1881 -0.5653 -0.5990
  611MOL0     C82360   1.605   5.293   8.210 -0.2864 -0.2450 -0.7220
  611MOL0     C82361   1.475   5.224   8.181  0.9368  0.4693 -0.9686
  611MOL0     C82362   1.389   5.285   8.071  0.4843 -0.0789 -0.3500
  611MOL0     C82363   1.247   5.219   8.054  0.1708  0.5568  0.4282
  611MOL0     C82364   1.217   5.198   7.906  1.1451  0.1552  0.6352
  611MOL0     C82365   1.096   5.114   7.867  0.1449 -0.4945  0.1871
  611MOL0     C82366   1.108   4.956   7.889  0.0922  0.1670  0.4504
  611MOL0     N82367   0.979   4.890   7.858 -0.2251  0.4755 -0.3552
  611MOL0     C82368   0.927   4.852   7.726 -0.2520 -0.8635 -0.6323
  611MOL0     C82369   0.789   4.846   7.753 -0.2166 -0.1040  0.0120
  611MOL0     C82370   0.670   4.826   7.659  0.0481  0.4381 -0.6718
  611MOL0     C82371   0.567   4.719   7.714 -0.0539 -0.7627 -0.0995
  611MOL0     C82372   0.436   4.693   7.635  0.7026 -0.2153 -0.4867
  611MOL0     C82373   0.360   4.822   7.610  0.0387 -0.8402 -0.3760
  611MOL0     O82374   0.318   4.865   7.742  0.2778 -0.6654  0.4266
  611MOL0     C82375   0.218   4.965   7.740 -0.6604  0.9285 -0.0718
  611MOL0     C82376   0.185   5.003   7.865 -0.2503 -0.5005  1.0578
  611MOL0     C82377   0.084   5.100   7.881  0.1564 -0.3526 -0.7355
  611MOL0     C82378   0.007   5.147   7.773 -0.2064 -0.1647  0.0548
  611MOL0     C82379  -0.111   5.238   7.781 -0.1623 -0.6762  0.0842
  611MOL0     O82380  -0.184   5.261   7.668  0.0588  0.8171  0.4484
  611MOL0     C82381  -0.309   5.327   7.680  0.5055 -0.2267  0.5066
  611MOL0     C82382  -0.408   5.287   7.769  0.0991  0.9462  0.3066
  611MOL0     C82383  -0.522   5.371   7.790  0.3219 -0.2215 -0.2038
  611MOL0     C82384  -0.547   5.485   7.716  0.2264 -0.7787 -0.2972
  611MOL0     O82385  -0.658   5.557   7.740 -0.3017 -0.4252 -0.0804
  611MOL0     C82386  -0.711   5.643   7.641 -0.3720  0.7052 -0.4764
  611MOL0     C82387  -0.847   5.693   7.682  0.1449 -0.3034 -0.7054
  611MOL0     C82388  -0.840   5.842   7.741 -0.4104 -0.5575  0.0417
  611MOL0     C82389  -0.841   5.952   7.631  0.4613  1.2804 -1.1538
  611MOL0     C82390  -0.851   6.089   7.690 -0.3125 -0.1221 -0.0963
  611MOL0     C82391  -0.723   6.112   7.779  0.3798 -0.4344 -0.0500
  611MOL0     C82392  -0.717   6.264   7.815  0.9009 -0.8967  0.1362
  611MOL0     C82393  -0.589   6.291   7.893 -0.0876  0.4402 -0.4246
  611MOL0    Cl82394  -0.555   6.468   7.907 -0.2147 -0.1380  0.1086
  611MOL0     C82395  -0.459   5.514   7.609  0.3166  1.0763  0.6011
  611MOL0     C82396  -0.338   5.439   7.591  0.7753 -0.5656 -0.0364
  611MOL0     O82397  -0.134   5.293   7.885  0.9790  0.3842 -0.1828
  611MOL0     C82398   0.031   5.097   7.638 -1.7395  0.0724 -1.1711
  611MOL0     C82399   0.140   5.010   7.632 -0.2005 -0.1285 -0.5981
  611MOL0     N82400   0.774   4.881   7.891 -0.0447  0.4902  0.6374
  611MOL0     N82401   0.879   4.901   7.957 -0.3765  0.2674 -0.2184
  611MOL0     C82402   1.878   5.114   8.513  0.4529 -0.3392 -0.2067
  611MOL0     C82403   1.997   5.059   8.569 -0.3378  0.3560 -0.1372
  611MOL0     C82404   2.467   5.041   8.715 -0.2246 -1.3983  0.5551
  611MOL0     C82405   2.419   5.016   8.848  0.4674 -0.6810  0.9752
  611MOL0     C82406   2.511   4.972   8.937  0.6490 -1.0570  0.3920
  611MOL0     C82407   2.653   4.947   8.911  0.3733 -0.3906  0.1328
  611MOL0     O82408   2.721   4.893   9.011  1.1797  0.1806 -0.3230
  611MOL0     C82409   2.842   4.823   8.999  0.8331  0.0420 -0.1437
  611MOL0     C82410   2.949   4.865   9.101  0.4746  0.3167 -0.5744
  611MOL0     C82411   2.907   4.817   9.240 -0.2183 -0.4763  0.6552
  611MOL0     C82412   2.987   4.880   9.345  0.6393  0.2552 -0.9506
  611MOL0     C82413   2.920   4.865   9.477 -0.5341 -0.5807 -0.4287
  611MOL0     C82414   2.886   4.834   9.589  0.2985 -0.1955  0.2373
  611MOL0     C82415   2.699   4.966   8.781  1.0729  1.2287  0.3471
  611MOL0     C82416   2.606   5.015   8.677 -0.8281  0.7267  0.2340
  611MOL0     C82417   2.670   5.036   8.535  0.8596  0.0486  0.5029
  611MOL0     H82418   2.234   5.247   8.406 -0.4862  1.4670  2.7174
  611MOL0     H82419   2.039   5.321   8.291 -1.6902  2.6865  0.4347
  611MOL0     H82420   1.724   5.126   8.250 -0.2929 -1.6019  0.8539
  611MOL0     H82421   1.632   5.176   8.391  0.6364 -1.5552 -0.4094
  611MOL0     H82422   1.648   5.319   8.113  0.6581 -0.9874 -0.5133
  611MOL0     H82423   1.563   5.385   8.253 -0.8639 -1.0503  0.4923
  611MOL0     H82424   1.403   5.228   8.263 -1.6391  1.4224 -3.1306
  611MOL0     H82425   1.484   5.115   8.172 -1.7736  0.0762  0.1643
  611MOL0     H82426   1.355   5.384   8.104 -3.4743 -1.3717 -0.0065
  611MOL0     H82427   1.434   5.274   7.972  0.1889 -1.7533 -0.3174
  611MOL0     H82428   1.238   5.121   8.103  0.6658  0.8877  1.2020
  611MOL0     H82429   1.174   5.281   8.107  2.0387  1.6579  1.8581
  611MOL0     H82430   1.202   5.294   7.854  0.8618 -0.9249 -1.4057
  611MOL0     H82431   1.302   5.150   7.858  0.6864 -0.6988  0.6585
  611MOL0     H82432   1.070   5.136   7.764  1.4313  0.9343  0.1400
  611MOL0     H82433   1.007   5.151   7.920 -1.1246  1.1697 -2.8357
  611MOL0     H82434   1.180   4.907   7.822 -2.6691 -3.1590 -0.4355
  611MOL0     H82435   1.141   4.932   7.990  0.5102 -1.1317  0.0371
  611MOL0     H82436   0.971   4.864   7.628  2.0554  1.7263  0.5997
  611MOL0     H82437   0.628   4.927   7.666 -2.8470 -0.7807  1.3061
  611MOL0     H82438   0.703   4.801   7.557 -0.3794  3.4460 -1.6497
  611MOL0     H82439   0.620   4.624   7.728 -0.2421 -0.4573  3.6911
  611MOL0     H82440   0.543   4.755   7.814 -1.4017  0.7283 -0.9144
  611MOL0     H82441   0.365   4.634   7.694 -1.0309  1.4716 -0.7854
  611MOL0     H82442   0.454   4.639   7.541  1.4215 -2.5297  0.8924
  611MOL0     H82443   0.278   4.786   7.546 -1.4392  0.5969  0.6346
  611MOL0     H82444   0.415   4.896   7.550 -2.7814  0.1094 -1.9850
  611MOL0     H82445   0.236   4.950   7.946 -1.0394 -1.8567  0.7000
  611MOL0     H82446   0.065   5.146   7.978  0.1799 -1.3383 -0.2466
  611MOL0     H82447  -0.370   5.208   7.833  2.1462  0.3112 -1.5575
  611MOL0     H82448  -0.589   5.354   7.874 -1.0606 -0.8583 -1.3951
  611MOL0     H82449  -0.641   5.720   7.607  1.3383 -1.0270 -1.0622
  611MOL0     H82450  -0.723   5.577   7.554 -0.5729  0.3213 -0.1641
  611MOL0     H82451  -0.920   5.707   7.602 -0.9442  2.0916  0.6034
  611MOL0     H82452  -0.891   5.617   7.746 -0.3973  0.5431 -0.0496
  611MOL0     H82453  -0.925   5.854   7.810  1.2252 -2.0548  2.4903
  611MOL0     H82454  -0.753   5.862   7.804 -0.1922 -1.6869  0.1113
  611MOL0     H82455  -0.930   5.924   7.575  0.9644 -3.0205 -0.1665
  611MOL0     H82456  -0.755   5.942   7.564  0.3844 -0.7995 -1.0085
  611MOL0     H82457  -0.940   6.098   7.753  0.2029 -0.4311  0.6831
  611MOL0     H82458  -0.852   6.167   7.613 -0.3186 -0.6970 -0.6810
  611MOL0     H82459  -0.731   6.059   7.875  0.9916  1.0240  0.8467
  611MOL0     H82460  -0.636   6.077   7.723  0.5384 -3.2273  1.7217
  611MOL0     H82461  -0.807   6.297   7.868 -0.8061 -1.4105 -2.2739
  611MOL0     H82462  -0.716   6.328   7.726  1.9058 -0.9694  0.0754
  611MOL0     H82463  -0.595   6.243   7.992 -0.2955 -3.5572 -2.1791
  611MOL0     H82464  -0.504   6.245   7.843  1.9025  1.8192  1.4944
  611MOL0     H82465  -0.470   5.602   7.546  0.3402 -0.7009 -2.0331
  611MOL0     H82466  -0.260   5.465   7.520  2.6873 -0.1509  2.1077
  611MOL0     H82467  -0.031   5.112   7.551 -0.3556  0.1872 -2.1662
  611MOL0     H82468   0.162   4.966   7.535  2.1609 -0.8187  0.1972
  611MOL0     H82469   1.779   5.087   8.549  0.5644  2.1496  2.3849
  611MOL0     H82470   1.983   4.990   8.651  1.5083 -2.0112 -1.6711
  611MOL0     H82471   2.313   5.024   8.871  0.2037 -0.6366 -0.1993
  611MOL0     H82472   2.475   4.955   9.038 -0.9747  1.5366  0.3490
  611MOL0     H82473   2.895   4.844   8.906 -0.0789 -2.0742 -1.2144
  611MOL0     H82474   2.825   4.716   9.005  4.0011 -0.4856  1.3172
  611MOL0     H82475   2.959   4.974   9.090  1.7361  0.3164  0.3086
  611MOL0     H82476   3.044   4.815   9.082  0.3926 -1.3224  2.6954
  611MOL0     H82477   2.923   4.709   9.247 -1.1603 -0.7962 -1.3024
  611MOL0     H82478   2.799   4.831   9.250 -0.7729 -1.9173 -2.1090
  611MOL0     H82479   3.085   4.832   9.342  1.4478  1.4244  2.5048
  611MOL0     H82480   2.995   4.987   9.322 -1.7580  1.5680  3.2132
  611MOL0     H82481   2.861   4.820   9.692  2.3976 -1.3022  0.6446
  611MOL0     H82482   2.798   4.961   8.738  0.2905  0.3739 -1.4388
  611MOL0     H82483   2.762   4.981   8.514  0.9953 -0.0697  1.3400
  611MOL0     H82484   2.603   5.003   8.455  2.5837 -4.0836  0.5490
  611MOL0     H82485   2.687   5.144   8.523  2.7474 -0.5189 -3.1992
  612MOL0     O82486   0.326   7.425   9.962  0.3442  0.8795  0.4667
  612MOL0     C82487   0.379   7.394  10.068  0.8355  1.1840 -0.7024
  612MOL0     O82488   0.313   7.346  10.183  0.4119 -0.8988  0.4418
  612MOL0     C82489   0.186   7.298  10.184 -0.2074  0.3518  0.2951
  612MOL0     C82490   0.150   7.189  10.268 -0.1832 -1.0158  0.4719
  612MOL0     C82491   0.026   7.131  10.267  0.1145  0.7697 -0.5067
  612MOL0     C82492  -0.075   7.195  10.182 -0.0181  0.5828 -0.1814
  612MOL0     O82493  -0.182   7.117  10.181 -0.5137 -0.0057 -0.1949
  612MOL0     C82494  -0.248   7.083  10.056  1.2845  0.1477 -0.2567
  612MOL0     C82495  -0.255   6.931  10.036 -0.0806 -0.3353 -0.1713
  612MOL0     C82496  -0.354   6.888   9.927  0.1753 -0.2039 -0.6409
  612MOL0     C82497  -0.406   6.746   9.935  0.1559  0.2620 -1.0099
  612MOL0     C82498  -0.512   6.740  10.045  0.6909  0.1150 -0.4526
  612MOL0     C82499  -0.638   6.839  10.031 -0.0779  0.2906 -0.6796
  612MOL0     C82500  -0.720   6.816   9.895  0.3944  0.8144  0.4444
  612MOL0     C82501  -0.749   6.956   9.840  0.5771  1.0787  0.4249
  612MOL0     N82502  -0.778   6.935   9.694  1.7166 -0.2679  0.0687
  612MOL0     C82503  -0.686   6.884   9.606  0.8848 -0.1845 -0.4582
  612MOL0     C82504  -0.755   6.873   9.486 -0.1473 -0.3872 -0.6863
  612MOL0     C82505  -0.694   6.819   9.356  0.4660  0.9484 -1.0985
  612MOL0     C82506  -0.615   6.930   9.286  0.2999  0.3693 -0.6001
  612MOL0     C82507  -0.477   6.869   9.237 -0.8522  0.2147 -0.4781
  612MOL0     C82508  -0.417   6.970   9.142  0.4201 -1.3577  0.3333
  612MOL0     O82509  -0.502   6.990   9.029 -0.3259 -0.3332  0.1087
  612MOL0     C82510  -0.537   6.886   8.943 -0.1558 -0.5613 -0.0042
  612MOL0     C82511  -0.458   6.768   8.919 -0.2392  0.7828  1.1863
  612MOL0     C82512  -0.495   6.670   8.824  0.4483 -0.0766  1.0650
  612MOL0     C82513  -0.608   6.686   8.742  0.1819 -0.5365 -0.2901
  612MOL0     C82514  -0.643   6.583   8.634 -0.1611  0.0349  0.4407
  612MOL0     O82515  -0.715   6.615   8.529  0.3761 -0.7989  0.2140
  612MOL0     C82516  -0.773   6.515   8.459  0.1968  0.9161 -0.5681
  612MOL0     C82517  -0.726   6.488   8.325 -0.4115 -0.3324  0.2300
  612MOL0     C82518  -0.775   6.381   8.252 -0.2395 -0.5358  0.4985
  612MOL0     C82519  -0.883   6.310   8.307  0.9226  0.2166 -0.4631
  612MOL0     O82520  -0.959   6.219   8.239  0.5685 -0.6427 -0.3606
  612MOL0     C82521  -0.907   6.167   8.112  1.3883 -0.9212 -0.7764
  612MOL0     C82522  -0.977   6.028   8.095 -0.1568 -0.1165  0.3206
  612MOL0     C82523  -1.115   6.048   8.018 -0.6248 -0.2673  1.1941
  612MOL0     C82524  -1.191   5.920   7.998  0.4639  0.2605  0.3076
  612MOL0     C82525  -1.309   5.925   7.902  0.6263 -0.6470  0.4431
  612MOL0     C82526  -1.381   5.787   7.885 -0.0283 -0.8292  0.8386
  612MOL0     C82527  -1.437   5.736   8.026  0.6633 -0.5311  0.4799
  612MOL0     C82528  -1.497   5.597   8.028 -0.3187 -0.7308  0.6262
  612MOL0    Cl82529  -1.673   5.583   7.953  0.0060  0.4436 -0.2442
  612MOL0     C82530  -0.935   6.344   8.428  1.0783  0.1176 -0.2717
  612MOL0     C82531  -0.885   6.447   8.508  0.4620  0.1874 -0.6910
  612MOL0     O82532  -0.600   6.462   8.659  0.4074 -0.9449 -0.1250
  612MOL0     C82533  -0.682   6.801   8.773 -0.0534  0.0794  1.1160
  612MOL0     C82534  -0.651   6.899   8.864  0.0453 -0.1976 -0.6171
  612MOL0     N82535  -0.892   6.910   9.508  0.7874 -0.8327 -0.6363
  612MOL0     N82536  -0.898   6.965   9.627 -0.1907  0.5496 -0.0452
  612MOL0     C82537  -0.037   7.296  10.088  0.8031  0.8031 -0.4931
  612MOL0     C82538   0.088   7.349  10.094 -0.2293  0.8627  0.2127
  612MOL0     C82539   0.528   7.402  10.081  0.2417 -0.0824 -0.5603
  612MOL0     C82540   0.583   7.440  10.210  0.4429  0.8015 -0.8593
  612MOL0     C82541   0.726   7.472  10.234 -0.6844 -0.1714 -0.0867
  612MOL0     C82542   0.816   7.461  10.123  0.2173  0.1368 -0.0422
  612MOL0     O82543   0.954   7.466  10.129  1.3786  0.2135 -0.0658
  612MOL0     C82544   1.009   7.494  10.258  0.0078 -1.2150 -0.8979
  612MOL0     C82545   1.158   7.513  10.236  0.3656  0.5680 -0.0762
  612MOL0     C82546   1.235   7.379  10.222 -0.7462  0.0246 -0.1695
  612MOL0     C82547   1.387   7.409  10.239 -0.1553 -0.0251 -0.6948
  612MOL0     C82548   1.453   7.480  10.128  0.4076  0.3261 -0.0137
  612MOL0     C82549   1.513   7.530  10.033 -0.3507 -0.3254 -1.2256
  612MOL0     C82550   0.756   7.418  10.003  0.5115  0.0481  0.4530
  612MOL0     C82551   0.621   7.393   9.980  0.1028  0.3985 -1.5217
  612MOL0     C82552   0.589   7.362   9.845  0.1400  0.7833 -0.8982
  612MOL0     H82553   0.232   7.156  10.332  3.4053  2.7487 -1.7530
  612MOL0     H82554   0.002   7.048  10.333 -1.4996  1.0332 -0.7298
  612MOL0     H82555  -0.346   7.132  10.055  1.4664  0.5837 -2.8029
  612MOL0     H82556  -0.190   7.114   9.969  1.6509 -2.1191 -0.8606
  612MOL0     H82557  -0.288   6.884  10.129 -1.8513  1.1444  0.0075
  612MOL0     H82558  -0.152   6.899  10.014  0.4004  1.3453 -0.4593
  612MOL0     H82559  -0.294   6.901   9.836 -1.0874 -0.4407 -1.5342
  612MOL0     H82560  -0.441   6.953   9.914 -3.8155 -4.1429  3.1223
  612MOL0     H82561  -0.451   6.726   9.837 -1.8415 -0.3475 -0.0185
  612MOL0     H82562  -0.323   6.681   9.963 -0.1216 -0.1965 -1.2277
  612MOL0     H82563  -0.551   6.637  10.050 -1.1692  0.7890 -0.1187
  612MOL0     H82564  -0.466   6.752  10.143  0.7682 -2.2368 -0.1430
  612MOL0     H82565  -0.694   6.816  10.122  2.3235 -1.3181  0.4901
  612MOL0     H82566  -0.593   6.936  10.053  0.5650  0.4398 -2.4902
  612MOL0     H82567  -0.804   6.747   9.904  1.7727 -1.1268 -0.7335
  612MOL0     H82568  -0.655   6.759   9.828  2.3064 -1.3962  3.8415
  612MOL0     H82569  -0.841   6.986   9.892 -2.7490  0.5468 -4.5062
  612MOL0     H82570  -0.665   7.024   9.860  2.4882 -1.5879  2.1542
  612MOL0     H82571  -0.586   6.853   9.636  0.6695 -0.8515 -0.4288
  612MOL0     H82572  -0.627   6.733   9.367  0.6203  0.7969 -2.8432
  612MOL0     H82573  -0.781   6.794   9.295 -0.1932  2.7963 -0.9493
  612MOL0     H82574  -0.678   6.967   9.205 -1.0217 -2.3258 -0.9311
  612MOL0     H82575  -0.597   7.011   9.357  4.1812 -1.6800  1.0479
  612MOL0     H82576  -0.496   6.781   9.175  1.1136  1.9062 -3.7379
  612MOL0     H82577  -0.403   6.835   9.310 -0.4436  0.2394 -0.8735
  612MOL0     H82578  -0.316   6.950   9.106 -0.2781 -2.1461 -1.2661
  612MOL0     H82579  -0.420   7.069   9.188 -0.4812  0.3203 -3.0303
  612MOL0     H82580  -0.365   6.758   8.973 -0.2995  1.7316  1.4817
  612MOL0     H82581  -0.420   6.596   8.795 -0.1298 -1.1166  2.1008
  612MOL0     H82582  -0.644   6.537   8.273 -1.5331 -0.3389 -1.6019
  612MOL0     H82583  -0.723   6.368   8.158  1.1353  1.6347  0.8777
  612MOL0     H82584  -0.911   6.230   8.023 -0.9373  0.0140 -0.0744
  612MOL0     H82585  -0.806   6.130   8.133  1.5830  1.0647  2.5118
  612MOL0     H82586  -0.929   5.952   8.033 -0.8084 -0.5224  0.2959
  612MOL0     H82587  -1.006   5.982   8.190 -0.2347  0.9813  0.8393
  612MOL0     H82588  -1.172   6.121   8.077 -0.8361 -1.0976  2.0436
  612MOL0     H82589  -1.089   6.099   7.925  2.1848 -0.1499  1.9551
  612MOL0     H82590  -1.228   5.896   8.098 -0.4832 -0.8427 -0.2940
  612MOL0     H82591  -1.129   5.842   7.954 -4.0495 -1.3816 -4.0394
  612MOL0     H82592  -1.269   5.956   7.805  2.1253 -0.1102  1.2039
  612MOL0     H82593  -1.376   6.001   7.943  1.0557 -0.4426  0.7756
  612MOL0     H82594  -1.461   5.796   7.811  0.5871 -1.4101  0.0889
  612MOL0     H82595  -1.308   5.718   7.842  1.0945  1.1104 -0.5225
  612MOL0     H82596  -1.520   5.800   8.061  1.1757  0.9800 -0.9335
  612MOL0     H82597  -1.358   5.742   8.101  1.3277  0.4567 -0.2624
  612MOL0     H82598  -1.437   5.536   7.960 -2.4094  0.1339 -2.1816
  612MOL0     H82599  -1.496   5.552   8.128  1.6363 -0.6940  0.6778
  612MOL0     H82600  -1.020   6.285   8.460  2.5373 -1.3500  1.1326
  612MOL0     H82601  -0.930   6.460   8.605  3.9732  1.7487  0.8923
  612MOL0     H82602  -0.761   6.837   8.707  2.9319  0.6021 -2.5457
  612MOL0     H82603  -0.706   6.993   8.861 -0.5082 -0.5418 -2.3902
  612MOL0     H82604  -0.106   7.331  10.013 -2.1180 -2.9118  0.1444
  612MOL0     H82605   0.114   7.427  10.023 -0.6358  1.0445  0.2627
  612MOL0     H82606   0.516   7.450  10.295  1.9993  3.1300  0.1846
  612MOL0     H82607   0.767   7.494  10.332  2.1755  5.0769 -2.0892
  612MOL0     H82608   0.978   7.416  10.327 -0.8961  0.0845  0.2032
  612MOL0     H82609   0.971   7.587  10.302  2.0449 -0.4530 -0.6415
  612MOL0     H82610   1.200   7.568  10.320 -0.3036 -0.0013  0.6517
  612MOL0     H82611   1.171   7.573  10.146  0.2213  1.9553  0.8088
  612MOL0     H82612   1.215   7.336  10.124 -0.8648 -0.6549  0.1442
  612MOL0     H82613   1.203   7.306  10.297  1.7336 -0.8775  0.0847
  612MOL0     H82614   1.406   7.469  10.328  3.2084 -1.6066 -0.2092
  612MOL0     H82615   1.441   7.314  10.252  0.4545  0.3661 -0.3292
  612MOL0     H82616   1.577   7.574   9.959 -0.7557  0.1434 -1.3125
  612MOL0     H82617   0.836   7.416   9.930 -0.0064  3.7808 -0.4397
  612MOL0     H82618   0.675   7.387   9.782  1.3319  2.4298  1.2494
  612MOL0     H82619   0.555   7.259   9.833 -3.6270  1.8544 -0.8239
  612MOL0     H82620   0.501   7.419   9.812 -2.6685 -2.3999  0.4983
  613MOL0     O82621  10.295   8.715   7.853  0.0199 -0.1818  0.2877
  613MOL0     C82622  10.238   8.730   7.745 -0.4259 -0.3804 -0.3730
  613MOL0     O82623  10.159   8.837   7.714  0.9174  0.2716 -0.7616
  613MOL0     C82624  10.112   8.921   7.816  0.7735 -0.4833 -0.4090
  613MOL0     C82625  10.092   9.055   7.789  0.5873  0.6380  0.2252
  613MOL0     C82626  10.049   9.145   7.886  0.4530 -0.1842  0.1113
  613MOL0     C82627  10.009   9.093   8.017 -0.0872 -1.1657  0.0845
  613MOL0     O82628   9.966   9.169   8.131  0.7867  0.2210  0.3935
  613MOL0     C82629   9.946   9.315   8.128  0.4964  0.4545 -0.4625
  613MOL0     C82630   9.899   9.378   8.262  1.5387 -0.0419 -0.0279
  613MOL0     C82631   9.868   9.526   8.246 -0.2530 -0.1101 -0.1436
  613MOL0     C82632   9.920   9.607   8.368 -0.1446 -0.2049 -0.7063
  613MOL0     C82633   9.933   9.763   8.331 -0.0280  0.7447  0.5409
  613MOL0     C82634  10.010   9.854   8.433  0.2722 -0.1148 -0.8076
  613MOL0     C82635   9.929   9.870   8.563 -0.0311  0.0876  0.3452
  613MOL0     C82636  10.021   9.949   8.666  0.9932 -1.3190  0.1351
  613MOL0     N82637   9.960   9.966   8.802 -0.0178  0.4941  0.2879
  613MOL0     C82638   9.874   9.878   8.855  0.1906  1.2247 -0.3248
  613MOL0     C82639   9.830   9.930   8.973  0.0896 -0.7736 -1.0147
  613MOL0     C82640   9.717   9.891   9.076 -0.6571  0.3938 -0.3702
  613MOL0     C82641   9.747   9.779   9.163  0.2723  0.5291  0.7211
  613MOL0     C82642   9.729   9.657   9.066 -0.4071  0.2383 -0.0587
  613MOL0     C82643   9.764   9.535   9.146 -0.6113  0.3789  0.3890
  613MOL0     O82644   9.727   9.423   9.072 -0.1080  0.7374  0.1188
  613MOL0     C82645   9.692   9.301   9.129  0.8180 -0.4744  0.2446
  613MOL0     C82646   9.672   9.267   9.266 -0.3744 -0.3465 -1.1416
  613MOL0     C82647   9.629   9.141   9.294  0.3613  0.3956 -0.2631
  613MOL0     C82648   9.607   9.036   9.196 -0.4510 -0.2960  0.5774
  613MOL0     C82649   9.589   8.894   9.243 -0.2313 -0.5879  0.8709
  613MOL0     O82650   9.517   8.885   9.364  0.0558 -0.1263  0.6166
  613MOL0     C82651   9.485   8.764   9.414 -0.2844 -0.9268 -0.2039
  613MOL0     C82652   9.498   8.745   9.554 -0.4725 -0.1090 -0.2902
  613MOL0     C82653   9.461   8.630   9.627  0.0009 -0.5828  0.0731
  613MOL0     C82654   9.400   8.527   9.554  0.7192 -0.3024  0.0433
  613MOL0     O82655   9.339   8.439   9.640  0.0145  0.4033 -0.4365
  613MOL0     C82656   9.234   8.358   9.591  0.1700 -0.2692  0.4036
  613MOL0     C82657   9.153   8.313   9.714  0.8158 -0.9246  0.0866
  613MOL0     C82658   9.053   8.412   9.779  1.0639 -0.1109  0.4830
  613MOL0     C82659   8.923   8.340   9.840 -0.0768 -0.0571 -0.1338
  613MOL0     C82660   8.831   8.440   9.926 -0.3946 -0.2279 -0.4448
  613MOL0     C82661   8.719   8.359   9.991 -0.6003  0.2102 -1.1286
  613MOL0     C82662   8.618   8.456  10.040 -0.0741 -0.3032 -1.2363
  613MOL0     C82663   8.505   8.396  10.118 -0.5766  0.4193  0.1048
  613MOL0    Cl82664   8.389   8.536  10.125 -0.1328  0.4553  0.1618
  613MOL0     C82665   9.396   8.534   9.414  1.0294 -0.5309  1.0556
  613MOL0     C82666   9.439   8.650   9.343  0.2131 -0.1251 -0.7821
  613MOL0     O82667   9.631   8.801   9.175 -0.0027  0.4055 -0.3076
  613MOL0     C82668   9.617   9.079   9.063  1.1833 -0.3687 -0.1702
  613MOL0     C82669   9.651   9.211   9.032 -0.3939 -0.9334 -0.3385
  613MOL0     N82670   9.881  10.065   8.980 -0.2928 -0.4422 -0.5132
  613MOL0     N82671   9.955  10.083   8.871 -0.3269  0.7706 -0.5168
  613MOL0     C82672  10.022   8.960   8.043 -0.0230  1.2269  0.5790
  613MOL0     C82673  10.066   8.872   7.943  1.3843 -0.4576 -0.2962
  613MOL0     C82674  10.267   8.641   7.633  0.4740  0.6521  0.7091
  613MOL0     C82675  10.251   8.505   7.650  0.5146 -0.2567 -0.5021
  613MOL0     C82676  10.259   8.417   7.542  0.4578 -0.3949  0.7487
  613MOL0     C82677  10.282   8.469   7.414  0.9155  1.5834  0.6008
  613MOL0     O82678  10.266   8.382   7.311 -0.0869 -0.2129  0.6370
  613MOL0     C82679  10.379   8.304   7.264 -0.8494 -0.3325 -0.0725
  613MOL0     C82680  10.474   8.252   7.371  0.6867 -0.2209  0.3694
  613MOL0     C82681  10.580   8.171   7.297 -0.0732 -0.1373 -0.5535
  613MOL0     C82682  10.712   8.150   7.378  0.0157 -0.6606  1.1390
  613MOL0     C82683  10.798   8.270   7.389 -0.0328 -0.3401  0.2624
  613MOL0     C82684  10.870   8.373   7.393  0.3589  0.7276  0.6750
  613MOL0     C82685  10.316   8.598   7.404 -0.1114 -0.2324  0.4450
  613MOL0     C82686  10.309   8.694   7.509  0.5462  0.9253 -0.1257
  613MOL0     C82687  10.342   8.840   7.488 -0.2980 -0.1642  0.9979
  613MOL0     H82688  10.125   9.099   7.696  0.3978  1.2970  0.4615
  613MOL0     H82689  10.051   9.251   7.861  0.7118 -0.3038 -0.3749
  613MOL0     H82690  10.044   9.360   8.112 -0.2805  1.4067 -2.9929
  613MOL0     H82691   9.895   9.355   8.040 -5.6161 -0.8914  1.9342
  613MOL0     H82692   9.980   9.347   8.328  1.2205 -0.8145  0.0059
  613MOL0     H82693   9.810   9.319   8.287  3.2476 -3.8127 -2.1158
  613MOL0     H82694   9.765   9.542   8.214 -1.2596 -0.8542  2.4461
  613MOL0     H82695   9.929   9.569   8.166 -2.8808  2.2679 -1.0669
  613MOL0     H82696   9.854   9.596   8.454  1.3853  0.2709  0.5799
  613MOL0     H82697  10.018   9.572   8.402  0.8817  1.9834 -1.1847
  613MOL0     H82698   9.992   9.765   8.239 -2.0957  1.2546 -0.8342
  613MOL0     H82699   9.836   9.809   8.310  1.5729  3.1518 -2.3172
  613MOL0     H82700  10.110   9.815   8.456  0.4674  0.5207 -0.5379
  613MOL0     H82701  10.022   9.952   8.386 -0.0532  0.7367  0.7833
  613MOL0     H82702   9.896   9.775   8.606  2.5368 -1.1977 -0.3340
  613MOL0     H82703   9.835   9.921   8.537  2.8158  5.0438 -1.7059
  613MOL0     H82704  10.126   9.919   8.658  0.5192 -3.0996  0.2593
  613MOL0     H82705  10.024  10.053   8.631 -1.8441 -0.2520  2.6750
  613MOL0     H82706   9.858   9.775   8.824 -1.2791  1.5858 -0.8651
  613MOL0     H82707   9.725   9.974   9.148 -1.4462 -0.8005  1.1516
  613MOL0     H82708   9.616   9.890   9.035 -0.9801  2.1825  0.2699
  613MOL0     H82709   9.849   9.786   9.201  0.7767  3.2749 -0.8744
  613MOL0     H82710   9.667   9.778   9.237  0.8958  2.2362  1.4781
  613MOL0     H82711   9.794   9.653   8.978 -0.3161  3.0143 -0.2171
  613MOL0     H82712   9.623   9.646   9.046 -0.4808 -3.4343  1.6344
  613MOL0     H82713   9.708   9.550   9.239  1.3469  4.9432  1.0934
  613MOL0     H82714   9.867   9.539   9.181 -0.3536  2.7532 -0.4568
  613MOL0     H82715   9.699   9.344   9.338  1.1890 -2.4033  0.6085
  613MOL0     H82716   9.625   9.116   9.400 -1.5078  2.8397  0.3544
  613MOL0     H82717   9.538   8.828   9.612 -2.7857 -0.1639  1.5260
  613MOL0     H82718   9.479   8.617   9.733  0.8913 -6.3218 -0.4589
  613MOL0     H82719   9.168   8.425   9.535 -0.0993  0.1274  1.1865
  613MOL0     H82720   9.270   8.273   9.532  0.5002 -0.4602  0.8792
  613MOL0     H82721   9.092   8.232   9.673 -1.4749  1.2248 -1.0635
  613MOL0     H82722   9.219   8.270   9.789  0.1447 -1.3940  0.4123
  613MOL0     H82723   9.109   8.478   9.846 -2.4671  4.0769 -0.2520
  613MOL0     H82724   9.018   8.482   9.703 -1.9176 -0.0225  1.7917
  613MOL0     H82725   8.956   8.270   9.917  3.4443  2.5091  0.9663
  613MOL0     H82726   8.868   8.284   9.764 -0.8164  0.9634 -0.3765
  613MOL0     H82727   8.793   8.511   9.852 -0.5087 -0.7552 -0.8949
  613MOL0     H82728   8.885   8.495  10.005 -1.9610 -1.3457  1.4898
  613MOL0     H82729   8.674   8.294   9.915  1.2746 -3.4094  0.6077
  613MOL0     H82730   8.771   8.309  10.073 -2.6487 -0.6892 -0.2932
  613MOL0     H82731   8.572   8.499   9.951 -1.4027 -0.0527 -0.4541
  613MOL0     H82732   8.671   8.537  10.090 -0.0084 -0.0879 -1.6470
  613MOL0     H82733   8.466   8.306  10.070  2.7260 -0.2495 -1.6130
  613MOL0     H82734   8.544   8.377  10.219  1.0342  1.1836 -0.3382
  613MOL0     H82735   9.357   8.455   9.351  1.5019  0.1593 -0.1442
  613MOL0     H82736   9.424   8.643   9.236  1.6691  2.1151 -1.2036
  613MOL0     H82737   9.588   9.018   8.978  0.1010  0.5774 -0.4896
  613MOL0     H82738   9.653   9.236   8.927 -1.5218 -0.7702 -0.3338
  613MOL0     H82739   9.997   8.919   8.140 -0.0662  0.5756  0.2964
  613MOL0     H82740  10.068   8.764   7.957  1.4684 -0.4627 -0.3427
  613MOL0     H82741  10.212   8.480   7.748 -2.4990  1.0120 -1.2929
  613MOL0     H82742  10.221   8.315   7.540 -1.0623  0.1060  2.2088
  613MOL0     H82743  10.430   8.369   7.192 -0.7731 -1.4777 -1.0681
  613MOL0     H82744  10.336   8.226   7.202  1.5055 -1.5837 -0.2456
  613MOL0     H82745  10.413   8.189   7.438 -0.2113 -1.2879 -1.3760
  613MOL0     H82746  10.516   8.335   7.428  1.2632 -0.5310  0.3965
  613MOL0     H82747  10.601   8.214   7.198  2.3547 -2.0605 -0.9848
  613MOL0     H82748  10.530   8.079   7.266 -4.1181  1.4582  0.5981
  613MOL0     H82749  10.692   8.107   7.477 -0.1962 -0.8942  0.9974
  613MOL0     H82750  10.766   8.072   7.323 -0.7643  0.2539 -1.0339
  613MOL0     H82751  10.938   8.454   7.413 -0.6005  1.5629  0.6725
  613MOL0     H82752  10.364   8.647   7.319  1.4537  1.8319  2.4109
  613MOL0     H82753  10.378   8.897   7.573  4.7906 -1.6091  0.1680
  613MOL0     H82754  10.417   8.848   7.409  0.9028  0.5051  2.1679
  613MOL0     H82755  10.250   8.881   7.446  2.1418  2.4105 -2.4454
  614MOL0     O82756  10.476   1.013   0.709  0.0232 -1.1914 -0.1938
  614MOL0     C82757  10.507   1.133   0.730  0.9726 -0.8546  0.2254
  614MOL0     O82758  10.482   1.204   0.849 -0.2058  0.6745  0.5441
  614MOL0     C82759  10.445   1.137   0.965 -0.1341 -0.9046  0.3069
  614MOL0     C82760  10.519   1.034   1.029 -0.4634  0.6139  0.0389
  614MOL0     C82761  10.495   1.001   1.164  0.0947  0.3901  0.5759
  614MOL0     C82762  10.388   1.054   1.223 -0.0459 -0.9835  0.4469
  614MOL0     O82763  10.363   1.020   1.344 -0.0672  0.3659 -0.0483
  614MOL0     C82764  10.434   1.112   1.437  0.9570  0.3773 -0.5649
  614MOL0     C82765  10.342   1.223   1.491  0.0430 -0.0821  0.1132
  614MOL0     C82766  10.421   1.303   1.595 -0.3432  0.6165 -0.5490
  614MOL0     C82767  10.335   1.426   1.637  0.8502 -0.0500 -0.0999
  614MOL0     C82768  10.303   1.526   1.520 -0.0769 -0.9124  0.5525
  614MOL0     C82769  10.268   1.670   1.566  0.2300  0.4220 -0.5077
  614MOL0     C82770  10.155   1.666   1.670 -0.2485 -0.4238 -0.2158
  614MOL0     C82771  10.067   1.791   1.650  0.0385 -0.2761  0.8341
  614MOL0     N82772  10.165   1.911   1.650 -0.0255 -0.6987  0.8505
  614MOL0     C82773  10.213   1.967   1.760 -0.1869  0.3168 -0.2065
  614MOL0     C82774  10.271   2.081   1.718 -0.3704 -0.0269  0.3271
  614MOL0     C82775  10.347   2.170   1.811 -0.0965 -0.3255  0.1333
  614MOL0     C82776  10.267   2.292   1.849  0.0768 -0.0755  0.4155
  614MOL0     C82777  10.260   2.404   1.744 -0.0735 -1.0462  0.5642
  614MOL0     C82778  10.205   2.539   1.813 -0.1350  0.8434  0.0557
  614MOL0     O82779  10.222   2.653   1.730 -0.0565 -0.1087  0.5262
  614MOL0     C82780  10.140   2.769   1.757  0.2305  0.8979 -0.1547
  614MOL0     C82781  10.160   2.876   1.669 -0.1672 -0.2635  0.0010
  614MOL0     C82782  10.100   2.998   1.693 -0.9540 -0.4137 -0.0998
  614MOL0     C82783  10.027   3.024   1.808  0.2472  0.0879  0.3841
  614MOL0     C82784   9.969   3.157   1.823  0.6539  0.8258 -1.0377
  614MOL0     O82785   9.940   3.209   1.950  0.1906 -1.1026 -0.3141
  614MOL0     C82786   9.899   3.340   1.954  0.5216  0.5953 -0.8904
  614MOL0     C82787   9.960   3.454   1.904  0.1414 -0.2602  0.6233
  614MOL0     C82788   9.909   3.573   1.950  0.6263  0.5874  1.0006
  614MOL0     C82789   9.792   3.592   2.026 -0.1132 -0.2816  0.1726
  614MOL0     O82790   9.740   3.714   2.048 -0.0785 -0.6639 -1.1852
  614MOL0     C82791   9.808   3.844   2.043 -0.6715  0.5038 -0.2709
  614MOL0     C82792   9.784   3.902   1.899  0.3667 -0.0808 -0.5130
  614MOL0     C82793   9.868   4.024   1.884  0.2141 -0.2719 -0.3693
  614MOL0     C82794   9.847   4.078   1.750  0.4155 -0.2681  0.6505
  614MOL0     C82795   9.978   4.154   1.713  0.3648  0.2848 -0.2364
  614MOL0     C82796   9.955   4.241   1.584  0.3753 -0.8724 -0.3177
  614MOL0     C82797   9.934   4.135   1.478  0.1944 -0.3960  0.0507
  614MOL0     C82798   9.945   4.201   1.344 -1.0142  0.1415  0.0209
  614MOL0    Cl82799   9.832   4.343   1.332 -0.0470  0.4701  0.4314
  614MOL0     C82800   9.735   3.482   2.075 -0.4897 -0.1963 -0.6761
  614MOL0     C82801   9.784   3.358   2.040  0.1156 -0.9742 -0.2615
  614MOL0     O82802   9.966   3.226   1.726  0.5932  0.8679  0.4213
  614MOL0     C82803  10.001   2.915   1.898 -0.6351 -0.2763  0.4013
  614MOL0     C82804  10.047   2.789   1.867  0.3423  0.3802  0.9382
  614MOL0     N82805  10.252   2.089   1.580  1.1519  0.0929  0.8891
  614MOL0     N82806  10.189   1.993   1.539 -0.0418  0.1489  0.2559
  614MOL0     C82807  10.307   1.146   1.162 -0.1945 -0.1230  0.1118
  614MOL0     C82808  10.333   1.195   1.031 -2.0697 -1.2282  0.7325
  614MOL0     C82809  10.583   1.202   0.625  0.4041  0.7923 -0.5352
  614MOL0     C82810  10.631   1.336   0.650  1.8964  0.3742  1.3695
  614MOL0     C82811  10.710   1.394   0.551 -0.5533 -0.3309 -0.1187
  614MOL0     C82812  10.763   1.332   0.440 -0.0427  0.4329 -0.0279
  614MOL0     O82813  10.842   1.388   0.358 -0.4011 -0.2788 -0.3755
  614MOL0     C82814  10.901   1.513   0.394 -0.8446  0.5272  0.3804
  614MOL0     C82815  10.989   1.548   0.267  0.4170  0.1169 -0.6324
  614MOL0     C82816  11.078   1.681   0.284 -0.6004  0.5248 -0.9440
  614MOL0     C82817  11.109   1.748   0.149  0.0589  0.7302  0.8542
  614MOL0     C82818  11.178   1.663   0.054 -0.6730 -0.0354  0.2337
  614MOL0     C82819  11.245   1.598  -0.018 -0.0664  0.8201  0.1813
  614MOL0     C82820  10.719   1.203   0.415  0.8808  0.1719 -0.1779
  614MOL0     C82821  10.625   1.137   0.502 -0.6767 -0.7323  1.0297
  614MOL0     C82822  10.604   0.993   0.457  1.4072  0.0016  0.0453
  614MOL0     H82823  10.606   0.998   0.977  0.5102  1.3416  1.1074
  614MOL0     H82824  10.554   0.929   1.220 -1.6530 -0.3894  1.4979
  614MOL0     H82825  10.487   1.065   1.521  3.3644  2.6365 -0.6821
  614MOL0     H82826  10.523   1.158   1.394  1.4265 -1.8109 -2.1168
  614MOL0     H82827  10.269   1.160   1.543  0.7924 -0.6761  0.4591
  614MOL0     H82828  10.301   1.283   1.409  1.9569  0.2061 -0.6984
  614MOL0     H82829  10.520   1.333   1.560 -0.1744 -1.0889 -1.6124
  614MOL0     H82830  10.431   1.251   1.691 -1.0689  0.7763 -0.3788
  614MOL0     H82831  10.246   1.386   1.687  1.6171  0.2925  1.5897
  614MOL0     H82832  10.390   1.477   1.717  2.6741 -3.0732  0.6893
  614MOL0     H82833  10.381   1.532   1.443 -0.9287 -0.6736 -0.3154
  614MOL0     H82834  10.216   1.479   1.474 -1.8743  1.8693  0.8859
  614MOL0     H82835  10.357   1.726   1.594  0.6021 -0.3602 -0.0971
  614MOL0     H82836  10.241   1.721   1.473  2.4599 -0.8897 -1.9677
  614MOL0     H82837  10.204   1.671   1.768 -2.6914  1.9779  1.0352
  614MOL0     H82838  10.090   1.579   1.655  0.6887 -1.0853 -0.4570
  614MOL0     H82839  10.005   1.779   1.561  1.8427  1.5805 -0.8047
  614MOL0     H82840   9.994   1.805   1.730  0.4392  2.9247  0.7957
  614MOL0     H82841  10.203   1.922   1.859 -0.5926 -1.0206 -0.8372
  614MOL0     H82842  10.375   2.117   1.902 -1.4577 -0.3255  0.5801
  614MOL0     H82843  10.442   2.211   1.775  1.6270 -1.8655  2.6146
  614MOL0     H82844  10.165   2.257   1.869  0.3520  0.2062  2.4926
  614MOL0     H82845  10.311   2.333   1.941  2.6395 -2.8397  0.5655
  614MOL0     H82846  10.205   2.364   1.658  0.1676 -2.3871  1.0019
  614MOL0     H82847  10.359   2.430   1.704 -0.7290  0.4355 -0.1659
  614MOL0     H82848  10.245   2.549   1.915  1.5255 -0.6489 -0.4015
  614MOL0     H82849  10.099   2.517   1.832 -0.2789  2.6238  1.5757
  614MOL0     H82850  10.227   2.864   1.585 -0.9606  3.9850 -1.4987
  614MOL0     H82851  10.122   3.072   1.617  2.3421 -3.4907 -2.4909
  614MOL0     H82852  10.031   3.471   1.824 -0.6681  0.5459  0.0564
  614MOL0     H82853   9.963   3.654   1.903  1.5066 -0.9544 -0.8024
  614MOL0     H82854   9.768   3.915   2.115  0.2790  1.7161 -0.8946
  614MOL0     H82855   9.915   3.836   2.064  0.3229  1.2679 -4.2225
  614MOL0     H82856   9.825   3.827   1.830  1.3017  1.5659 -1.8181
  614MOL0     H82857   9.676   3.907   1.880  0.1096  0.6484  1.0033
  614MOL0     H82858   9.847   4.104   1.956 -0.5766 -0.2317 -0.6364
  614MOL0     H82859   9.972   4.001   1.907  0.1459  0.5593  0.8722
  614MOL0     H82860   9.758   4.142   1.746  0.1965 -0.5749  0.6431
  614MOL0     H82861   9.839   3.996   1.679  1.4167  0.9215 -0.8931
  614MOL0     H82862  10.058   4.080   1.703  1.6249  1.5030  0.4501
  614MOL0     H82863  10.002   4.222   1.795  2.2454  2.1827 -2.1966
  614MOL0     H82864   9.869   4.308   1.591  1.6044  1.1213 -2.8798
  614MOL0     H82865  10.041   4.305   1.565 -0.6226 -0.0637 -2.4152
  614MOL0     H82866   9.830   4.102   1.489  0.4215 -0.3305  2.8985
  614MOL0     H82867  10.009   4.055   1.475  2.0253  1.1704  1.3812
  614MOL0     H82868  10.051   4.223   1.332 -0.5250 -1.4647  1.0599
  614MOL0     H82869   9.911   4.132   1.267 -2.6599  3.1199 -2.1455
  614MOL0     H82870   9.651   3.487   2.143 -0.7653 -0.6892 -0.9767
  614MOL0     H82871   9.731   3.274   2.084  1.2488 -1.7455 -0.3329
  614MOL0     H82872   9.936   2.932   1.983 -0.0538 -0.3713  0.8757
  614MOL0     H82873  10.025   2.704   1.931  2.7708 -2.0715 -1.2109
  614MOL0     H82874  10.224   1.191   1.215  2.0889  1.8000  2.3086
  614MOL0     H82875  10.283   1.286   1.002  3.5426  3.6286  3.9976
  614MOL0     H82876  10.603   1.385   0.743  3.1877  3.3235  0.3227
  614MOL0     H82877  10.712   1.500   0.573 -2.9116  0.1532 -1.8116
  614MOL0     H82878  10.955   1.512   0.489 -0.3019 -0.7589  0.0837
  614MOL0     H82879  10.835   1.599   0.409 -0.6927  0.6080  0.5965
  614MOL0     H82880  10.932   1.557   0.174  2.3227  3.0085 -1.6587
  614MOL0     H82881  11.054   1.463   0.247  2.7498  1.7895 -0.5725
  614MOL0     H82882  11.176   1.646   0.320 -0.1503  0.3769 -2.2738
  614MOL0     H82883  11.033   1.755   0.351  1.8216  2.2343 -1.0742
  614MOL0     H82884  11.012   1.770   0.103  0.2724  1.6977  0.8491
  614MOL0     H82885  11.171   1.836   0.169  0.0385  0.3385  2.8202
  614MOL0     H82886  11.323   1.548  -0.071 -2.2873 -2.2785 -0.4694
  614MOL0     H82887  10.761   1.145   0.333 -1.1466  0.3405 -1.4179
  614MOL0     H82888  10.500   0.959   0.457  1.2624  0.2877 -2.1049
  614MOL0     H82889  10.633   0.978   0.353  0.5668  0.7412 -0.3008
  614MOL0     H82890  10.667   0.922   0.511  2.4341 -0.4049 -1.6123
  615MOL0     O82891   6.850   7.935   6.623  0.2293 -0.2249 -0.4047
  615MOL0     C82892   6.798   8.040   6.595  0.0412  0.1134 -0.5356
  615MOL0     O82893   6.728   8.122   6.684 -0.3177 -0.5962  0.3837
  615MOL0     C82894   6.697   8.081   6.813 -0.8357 -1.1547  0.9983
  615MOL0     C82895   6.569   8.056   6.854  0.0989 -0.1348  0.2454
  615MOL0     C82896   6.546   8.006   6.982 -0.7655 -0.1121  0.6724
  615MOL0     C82897   6.643   7.997   7.082  0.8620 -0.6425 -0.4156
  615MOL0     O82898   6.618   7.928   7.196 -0.2515  0.1537  0.2022
  615MOL0     C82899   6.678   7.967   7.323  0.3499 -0.0850  0.8779
  615MOL0     C82900   6.554   8.011   7.412 -1.2259  0.5929  0.8213
  615MOL0     C82901   6.602   8.043   7.548  0.0726  0.2449 -0.8359
  615MOL0     C82902   6.569   8.192   7.584  0.2483  0.6915 -0.6922
  615MOL0     C82903   6.669   8.288   7.528  0.5399 -0.7207  0.4150
  615MOL0     C82904   6.807   8.291   7.605  0.3239  0.6055 -0.5276
  615MOL0     C82905   6.893   8.407   7.567 -0.8638  0.8534  0.1324
  615MOL0     C82906   6.996   8.405   7.453  0.4049  0.6251  0.9814
  615MOL0     N82907   7.053   8.276   7.423  1.2555  0.2470  0.5521
  615MOL0     C82908   7.148   8.209   7.492 -0.3074 -0.2447 -0.3569
  615MOL0     C82909   7.170   8.095   7.424  0.7512 -1.0748 -0.1357
  615MOL0     C82910   7.281   7.996   7.472  0.8117 -0.4212  0.6680
  615MOL0     C82911   7.421   8.033   7.410 -0.1238 -0.8138  0.1250
  615MOL0     C82912   7.542   7.955   7.476  0.3541 -0.5532 -0.6501
  615MOL0     C82913   7.678   7.999   7.413  0.3629 -0.3452 -0.8245
  615MOL0     O82914   7.673   7.941   7.287  0.0370 -0.5049 -0.4232
  615MOL0     C82915   7.707   8.008   7.172  1.8239  0.9147 -0.5442
  615MOL0     C82916   7.674   7.933   7.053 -0.7267  0.5774 -0.3476
  615MOL0     C82917   7.702   8.001   6.929  0.2016  0.0650 -0.1010
  615MOL0     C82918   7.769   8.125   6.924 -0.0635 -0.3509 -1.2905
  615MOL0     C82919   7.820   8.167   6.796  1.1032  0.0571 -0.1101
  615MOL0     O82920   7.797   8.077   6.692 -0.1755 -0.6107  0.2086
  615MOL0     C82921   7.871   8.072   6.577  1.2391  0.3834 -0.6016
  615MOL0     C82922   7.989   8.143   6.551  0.6636  0.1740  0.7511
  615MOL0     C82923   8.054   8.124   6.425  0.2424 -0.0152  0.3463
  615MOL0     C82924   7.994   8.046   6.332  0.6518  1.4831 -0.1359
  615MOL0     O82925   8.054   8.007   6.210 -0.2968  0.5086 -0.9347
  615MOL0     C82926   8.192   7.947   6.206 -0.7080 -0.2510  0.1710
  615MOL0     C82927   8.256   7.932   6.062 -0.0801 -0.4404 -0.6626
  615MOL0     C82928   8.387   7.849   6.063 -0.2508  0.4741 -0.0288
  615MOL0     C82929   8.444   7.861   5.920 -0.1226 -0.5846 -0.4161
  615MOL0     C82930   8.587   7.808   5.918  0.7052  0.6834 -0.2102
  615MOL0     C82931   8.595   7.659   5.889 -0.0458  0.1273  0.0079
  615MOL0     C82932   8.738   7.609   5.876 -0.0814  0.2398 -0.4454
  615MOL0     C82933   8.750   7.476   5.796  0.0339 -0.6849 -0.1070
  615MOL0    Cl82934   8.711   7.331   5.892  0.4455 -1.2038 -0.6048
  615MOL0     C82935   7.878   7.967   6.361  0.1587  0.4036  0.5556
  615MOL0     C82936   7.817   7.985   6.486  0.0223 -1.0432 -0.3391
  615MOL0     O82937   7.874   8.275   6.797 -0.0693  0.0654  0.3497
  615MOL0     C82938   7.803   8.186   7.047  0.2187 -0.6567  1.1319
  615MOL0     C82939   7.780   8.127   7.167 -0.1643 -0.4383 -0.3027
  615MOL0     N82940   7.085   8.084   7.309  0.2144 -0.1003 -0.7026
  615MOL0     N82941   7.012   8.195   7.321  0.0323 -1.0452  0.2447
  615MOL0     C82942   6.768   8.047   7.045 -0.7305 -1.0573 -0.0046
  615MOL0     C82943   6.792   8.092   6.912 -0.5262  0.0308 -0.1216
  615MOL0     C82944   6.804   8.070   6.452 -0.3131 -0.6377 -0.4665
  615MOL0     C82945   6.710   8.158   6.404 -0.6346 -0.2377  0.2128
  615MOL0     C82946   6.722   8.200   6.269  0.5951 -0.3203 -0.1731
  615MOL0     C82947   6.827   8.158   6.187  0.0261  0.5416 -0.1665
  615MOL0     O82948   6.846   8.187   6.052  0.3762 -0.4032 -0.2244
  615MOL0     C82949   6.732   8.231   5.988  0.1420  0.0867  0.6805
  615MOL0     C82950   6.761   8.262   5.834 -0.4754 -0.6124 -0.6987
  615MOL0     C82951   6.630   8.274   5.751 -0.5557 -0.1697 -0.6107
  615MOL0     C82952   6.676   8.279   5.606 -0.3401 -0.3926 -0.4512
  615MOL0     C82953   6.574   8.296   5.505  0.9300 -0.1612  0.1735
  615MOL0     C82954   6.480   8.310   5.425  0.2689  0.0010  0.3890
  615MOL0     C82955   6.926   8.077   6.248 -0.1523 -0.5393  0.3503
  615MOL0     C82956   6.922   8.039   6.382  1.0867 -0.3371 -0.1489
  615MOL0     C82957   7.044   7.955   6.415 -0.3503 -0.4670 -0.7152
  615MOL0     H82958   6.490   8.056   6.780  2.3612 -0.7707 -2.3522
  615MOL0     H82959   6.444   7.970   6.994 -1.8536  0.5168 -4.3991
  615MOL0     H82960   6.719   7.878   7.372 -4.1156 -0.8206  3.9211
  615MOL0     H82961   6.758   8.041   7.317  0.5074 -0.0373  2.7617
  615MOL0     H82962   6.471   7.940   7.410 -1.7810  1.2351  0.6145
  615MOL0     H82963   6.510   8.102   7.371 -2.4432  1.2793  3.4684
  615MOL0     H82964   6.708   8.020   7.560  0.4624  2.2089 -0.1465
  615MOL0     H82965   6.553   7.983   7.625  0.4724  1.7063  0.6167
  615MOL0     H82966   6.468   8.217   7.549 -1.3527  1.6855  3.9299
  615MOL0     H82967   6.583   8.208   7.691 -3.5957  0.3488  0.0157
  615MOL0     H82968   6.698   8.256   7.428  1.9948  2.1657 -0.2149
  615MOL0     H82969   6.624   8.388   7.522 -0.7902 -1.2539  1.0767
  615MOL0     H82970   6.790   8.306   7.712 -5.4496 -0.0521 -1.0172
  615MOL0     H82971   6.869   8.203   7.587  0.9836 -0.1463  4.1966
  615MOL0     H82972   6.951   8.419   7.660 -0.9642  0.8056  0.2014
  615MOL0     H82973   6.831   8.497   7.564 -0.7641  1.0708  2.4801
  615MOL0     H82974   6.930   8.446   7.376 -0.7632 -1.4610  0.8223
  615MOL0     H82975   7.073   8.482   7.471 -0.7517  1.2869  3.5704
  615MOL0     H82976   7.206   8.250   7.575  0.8672 -1.2630 -0.6415
  615MOL0     H82977   7.278   7.983   7.581 -0.0826 -3.7390  0.3513
  615MOL0     H82978   7.247   7.897   7.444 -1.4806  0.5075 -0.0265
  615MOL0     H82979   7.404   8.025   7.302 -1.3738 -1.2111  0.3321
  615MOL0     H82980   7.419   8.141   7.427 -0.2766 -0.8244  0.1715
  615MOL0     H82981   7.520   7.848   7.486 -2.6150  0.1990  5.1039
  615MOL0     H82982   7.557   7.989   7.579 -0.8127  1.1234 -0.9847
  615MOL0     H82983   7.765   7.961   7.467  0.6332  1.3950  0.0301
  615MOL0     H82984   7.690   8.108   7.414  3.7142 -0.5711  2.0958
  615MOL0     H82985   7.628   7.835   7.044  1.4264 -0.4762 -0.6240
  615MOL0     H82986   7.691   7.930   6.848  0.6445 -0.6350  0.4363
  615MOL0     H82987   8.032   8.213   6.622  1.0411  0.1271  0.5687
  615MOL0     H82988   8.151   8.167   6.401  0.1411 -1.1542 -2.5798
  615MOL0     H82989   8.262   8.011   6.261  0.3612 -1.0121 -0.2692
  615MOL0     H82990   8.202   7.844   6.240  0.0235 -1.5750 -3.6455
  615MOL0     H82991   8.179   7.889   5.999 -0.4086 -2.7796  1.2060
  615MOL0     H82992   8.284   8.035   6.038 -2.4062  0.7928  1.3643
  615MOL0     H82993   8.467   7.879   6.130  1.0367 -4.4580  1.0457
  615MOL0     H82994   8.365   7.745   6.089  2.1069 -0.4784 -1.4984
  615MOL0     H82995   8.450   7.967   5.893  0.2776 -1.1085 -2.5869
  615MOL0     H82996   8.382   7.806   5.848 -0.4556  0.5966 -1.0606
  615MOL0     H82997   8.640   7.847   6.006 -0.8781  1.2345  0.5491
  615MOL0     H82998   8.636   7.856   5.834  0.6404  1.4955  0.2056
  615MOL0     H82999   8.531   7.599   5.954 -1.4732  2.2074  0.6219
  615MOL0     H83000   8.544   7.663   5.792 -3.1423  0.5837  1.5196
  615MOL0     H83001   8.776   7.585   5.975 -3.5792  3.7639  2.0887
  615MOL0     H83002   8.802   7.684   5.829  0.9233 -0.3695 -0.0718
  615MOL0     H83003   8.691   7.468   5.704  0.2902 -2.0754 -0.1773
  615MOL0     H83004   8.851   7.459   5.756  0.2696  0.9319 -0.2727
  615MOL0     H83005   7.837   7.897   6.289  2.2683 -0.0379 -0.2910
  615MOL0     H83006   7.748   7.911   6.528  0.9989 -2.4428 -1.1058
  615MOL0     H83007   7.861   8.278   7.047  1.0495 -0.8499 -4.2260
  615MOL0     H83008   7.808   8.181   7.257 -1.8239 -0.8631  0.5159
  615MOL0     H83009   6.837   8.049   7.129  0.1373 -0.4548 -0.7116
  615MOL0     H83010   6.893   8.116   6.882 -1.3460  1.4905 -1.9281
  615MOL0     H83011   6.627   8.185   6.469 -1.3816 -1.0219 -0.4010
  615MOL0     H83012   6.663   8.281   6.226  0.1118 -1.3935 -1.5974
  615MOL0     H83013   6.702   8.327   6.031  0.8440  0.9574 -0.6815
  615MOL0     H83014   6.656   8.153   5.992 -0.1236  0.2612 -0.6270
  615MOL0     H83015   6.837   8.188   5.806  0.2949 -0.2609  0.3971
  615MOL0     H83016   6.811   8.359   5.834 -3.4827  1.0655 -0.9740
  615MOL0     H83017   6.579   8.366   5.783 -0.7371 -0.4881  0.0223
  615MOL0     H83018   6.573   8.182   5.763  0.9548 -0.8942  1.4026
  615MOL0     H83019   6.739   8.366   5.585  0.8380 -1.4348 -1.4348
  615MOL0     H83020   6.737   8.193   5.576  0.8099  0.3402 -0.2632
  615MOL0     H83021   6.399   8.321   5.356 -0.8633 -2.4187  1.2037
  615MOL0     H83022   7.012   8.051   6.187  0.5767  1.3613  0.4804
  615MOL0     H83023   7.026   7.848   6.420 -0.0589 -0.4586  2.7395
  615MOL0     H83024   7.121   7.970   6.338 -0.8500  0.5025 -1.0501
  615MOL0     H83025   7.072   7.993   6.514 -0.0515 -2.1389 -0.1344
  616MOL0     O83026  10.114   7.512   1.146 -0.8079 -0.1572  0.8954
  616MOL0     C83027  10.045   7.563   1.056 -1.1000  0.8460 -0.1881
  616MOL0     O83028  10.019   7.691   1.038  0.7698 -0.4319  0.0572
  616MOL0     C83029  10.062   7.786   1.125 -0.0279 -0.0381 -0.5795
  616MOL0     C83030  10.148   7.886   1.082 -0.4675 -1.2184  0.5875
  616MOL0     C83031  10.200   7.987   1.165 -0.4637 -0.3582  0.4046
  616MOL0     C83032  10.169   7.977   1.299  0.4119  0.2537 -0.4593
  616MOL0     O83033  10.209   8.063   1.397 -0.5153 -0.1529 -0.1043
  616MOL0     C83034  10.323   8.012   1.473  1.2880 -0.0775 -0.3065
  616MOL0     C83035  10.446   8.099   1.473  0.9279  0.1165 -0.3595
  616MOL0     C83036  10.500   8.129   1.340 -0.4569  0.3969 -0.1465
  616MOL0     C83037  10.582   8.008   1.274  0.1117 -0.5780 -0.9525
  616MOL0     C83038  10.710   7.992   1.347  0.3786  0.1255 -0.1725
  616MOL0     C83039  10.787   7.879   1.272 -0.2217 -0.3014 -1.1798
  616MOL0     C83040  10.903   7.943   1.197 -0.2701  0.4820  0.5643
  616MOL0     C83041  10.991   7.838   1.134  0.1716  0.1750  0.6083
  616MOL0     N83042  11.080   7.900   1.045  0.7347  0.2163  0.5435
  616MOL0     C83043  11.165   7.986   1.090 -0.7734  0.0928 -0.0701
  616MOL0     C83044  11.216   8.041   0.979 -0.5661 -0.5843 -1.1690
  616MOL0     C83045  11.337   8.131   0.975 -0.4430 -0.2247  0.4891
  616MOL0     C83046  11.440   8.075   0.878 -0.1643  1.0755 -0.6433
  616MOL0     C83047  11.483   7.936   0.920  0.2994  0.2636 -0.7105
  616MOL0     C83048  11.563   7.881   0.809 -0.6665  0.1785  0.9612
  616MOL0     O83049  11.473   7.869   0.693  0.2266  0.4208 -0.1312
  616MOL0     C83050  11.510   7.791   0.591 -0.2779 -0.2595  0.5290
  616MOL0     C83051  11.642   7.759   0.547 -0.4271  0.6590 -0.5868
  616MOL0     C83052  11.663   7.671   0.437  0.0913 -0.8326  0.1155
  616MOL0     C83053  11.557   7.627   0.362  0.1350  0.3871  0.4984
  616MOL0     C83054  11.579   7.545   0.245  0.6617  0.7893  0.8236
  616MOL0     O83055  11.464   7.512   0.170  0.2073 -0.5020 -0.0692
  616MOL0     C83056  11.485   7.466   0.039 -0.4165  1.0675  0.7430
  616MOL0     C83057  11.416   7.355  -0.001 -0.8765 -0.0142  0.0246
  616MOL0     C83058  11.428   7.321  -0.137  0.5980 -0.8577 -0.8257
  616MOL0     C83059  11.509   7.390  -0.227  0.7670 -0.3297 -0.5322
  616MOL0     O83060  11.501   7.354  -0.359 -1.0229  0.1612  0.1562
  616MOL0     C83061  11.613   7.313  -0.431 -0.5459 -0.7176  0.1777
  616MOL0     C83062  11.562   7.268  -0.560 -0.2666  0.8793 -0.4368
  616MOL0     C83063  11.669   7.193  -0.643  1.5549 -0.2285 -0.9900
  616MOL0     C83064  11.616   7.145  -0.777  0.1444  0.5929  1.2174
  616MOL0     C83065  11.700   7.148  -0.898 -0.6444  0.0475  0.4877
  616MOL0     C83066  11.768   7.282  -0.929  0.7662 -0.4773 -0.0551
  616MOL0     C83067  11.671   7.401  -0.936  0.4660  0.7044  0.7304
  616MOL0     C83068  11.748   7.531  -0.955  0.2886 -0.5984  0.5063
  616MOL0    Cl83069  11.853   7.520  -1.109 -0.1139 -0.1110 -0.7757
  616MOL0     C83070  11.568   7.512  -0.186 -0.5678 -0.9317 -0.3414
  616MOL0     C83071  11.550   7.553  -0.053  0.3183  0.4006 -0.5168
  616MOL0     O83072  11.688   7.499   0.224 -1.2935  1.3103  0.4476
  616MOL0     C83073  11.429   7.664   0.395 -0.8793  1.1624 -0.1781
  616MOL0     C83074  11.409   7.744   0.513  0.7502  1.1381 -0.1458
  616MOL0     N83075  11.171   7.970   0.878  0.1393  0.3101 -0.1242
  616MOL0     N83076  11.093   7.872   0.911  0.0826 -1.1311 -0.1034
  616MOL0     C83077  10.081   7.878   1.344 -0.7474  0.3498 -0.7340
  616MOL0     C83078  10.026   7.785   1.256 -0.5534 -0.0589  0.3875
  616MOL0     C83079   9.970   7.471   0.957  0.1097  0.2475  0.3227
  616MOL0     C83080   9.869   7.519   0.869  0.3997  0.3065 -0.8415
  616MOL0     C83081   9.802   7.445   0.772 -0.5204 -0.6444 -0.6415
  616MOL0     C83082   9.848   7.313   0.759 -0.4992 -0.0350 -0.4937
  616MOL0     O83083   9.784   7.217   0.667  0.8042  0.1324 -0.1725
  616MOL0     C83084   9.682   7.267   0.582  0.1018  0.0547  0.6187
  616MOL0     C83085   9.683   7.169   0.459 -0.2773  0.2789  0.4228
  616MOL0     C83086   9.634   7.027   0.493  0.2490  0.8215  0.2493
  616MOL0     C83087   9.616   6.939   0.367  0.3110  1.2690 -0.3995
  616MOL0     C83088   9.491   6.977   0.289 -0.1817 -0.3118  0.6007
  616MOL0     C83089   9.397   6.976   0.211 -0.0697 -0.0305 -0.3547
  616MOL0     C83090   9.957   7.257   0.837 -0.3921  0.5016  0.4715
  616MOL0     C83091  10.013   7.337   0.940  0.6429 -0.0750 -0.4644
  616MOL0     C83092  10.115   7.261   1.018  0.3020 -0.8665  0.5831
  616MOL0     H83093  10.173   7.893   0.977  0.9618  0.3860  0.9883
  616MOL0     H83094  10.273   8.060   1.132 -0.2673 -0.4776  0.5703
  616MOL0     H83095  10.300   7.997   1.579  0.0611  2.4371 -0.1318
  616MOL0     H83096  10.346   7.915   1.430 -1.4214 -0.8043 -0.3069
  616MOL0     H83097  10.516   8.062   1.549  1.6502 -0.6037 -1.3481
  616MOL0     H83098  10.416   8.199   1.503 -0.5031 -0.1544 -0.8266
  616MOL0     H83099  10.563   8.217   1.351  0.5944 -0.3773  0.1877
  616MOL0     H83100  10.426   8.159   1.266  0.3863  3.5432  0.1618
  616MOL0     H83101  10.518   7.919   1.272 -1.0479  0.2230 -0.4973
  616MOL0     H83102  10.602   8.030   1.168 -0.4087  0.7243 -0.8093
  616MOL0     H83103  10.778   8.078   1.347 -0.6449  0.9736 -1.3904
  616MOL0     H83104  10.701   7.969   1.453 -2.1921  0.3059 -0.3003
  616MOL0     H83105  10.831   7.814   1.349  1.0693  1.1360 -0.6621
  616MOL0     H83106  10.718   7.834   1.200 -1.8374  1.3073 -0.6954
  616MOL0     H83107  10.970   8.006   1.257  3.3227 -2.3943 -0.0637
  616MOL0     H83108  10.867   8.013   1.121  2.3517  3.6649  1.9808
  616MOL0     H83109  11.034   7.769   1.208 -0.3110  1.8234  2.4833
  616MOL0     H83110  10.924   7.777   1.072  1.1203  0.5953 -0.8817
  616MOL0     H83111  11.191   8.029   1.186 -0.6994  1.1979 -0.5697
  616MOL0     H83112  11.319   8.237   0.951  1.7086  0.6276  2.2384
  616MOL0     H83113  11.383   8.149   1.072  0.5271 -0.5363  0.1013
  616MOL0     H83114  11.405   8.078   0.774  1.2652  0.7532 -1.1675
  616MOL0     H83115  11.530   8.137   0.874  0.7399 -0.2313 -4.0129
  616MOL0     H83116  11.400   7.867   0.936 -0.1636  0.2736 -2.6976
  616MOL0     H83117  11.538   7.948   1.014  1.9492 -0.2879 -1.5605
  616MOL0     H83118  11.599   7.779   0.827  1.9567  1.4281  3.4828
  616MOL0     H83119  11.655   7.936   0.791  0.6958 -1.9551  1.0608
  616MOL0     H83120  11.733   7.786   0.599 -1.1801 -3.4288  3.6355
  616MOL0     H83121  11.768   7.648   0.418  0.3173  0.0755  0.2088
  616MOL0     H83122  11.346   7.308   0.068 -3.1362  1.1553 -1.3517
  616MOL0     H83123  11.356   7.248  -0.171 -2.0240 -0.3417  2.9812
  616MOL0     H83124  11.687   7.392  -0.443 -0.3899 -0.7723  0.7786
  616MOL0     H83125  11.658   7.237  -0.367 -0.3101  1.1748  2.3664
  616MOL0     H83126  11.468   7.214  -0.544  1.0296 -0.4932  3.9543
  616MOL0     H83127  11.537   7.356  -0.622 -3.7983  0.4436  0.1616
  616MOL0     H83128  11.744   7.271  -0.658 -0.7401  2.3486  0.0369
  616MOL0     H83129  11.708   7.109  -0.584  0.7130  1.1455  1.7410
  616MOL0     H83130  11.530   7.211  -0.795  0.3345 -0.1683 -3.7447
  616MOL0     H83131  11.562   7.050  -0.773  1.2242 -0.0547  0.8083
  616MOL0     H83132  11.634   7.142  -0.985 -0.2703  0.0655  0.1992
  616MOL0     H83133  11.780   7.074  -0.900  1.0420  1.7752  0.4691
  616MOL0     H83134  11.850   7.302  -0.860  0.5102  0.5977 -0.0459
  616MOL0     H83135  11.817   7.254  -1.023 -0.3773 -3.0167  0.0220
  616MOL0     H83136  11.616   7.403  -0.842 -2.2747  0.7899 -0.7854
  616MOL0     H83137  11.601   7.388  -1.019 -1.1011  0.7070  2.0297
  616MOL0     H83138  11.679   7.614  -0.974 -1.5306 -1.8813  1.2443
  616MOL0     H83139  11.816   7.567  -0.877 -3.2059  2.4652  2.4382
  616MOL0     H83140  11.645   7.548  -0.253  0.9423  0.1598  1.8676
  616MOL0     H83141  11.605   7.636  -0.011 -1.4903  1.5504 -0.3276
  616MOL0     H83142  11.344   7.618   0.345 -0.9395  0.8741  0.1848
  616MOL0     H83143  11.305   7.768   0.528  0.5535  2.4472 -3.0053
  616MOL0     H83144  10.039   7.881   1.444  0.6123 -3.2390  0.0910
  616MOL0     H83145   9.941   7.725   1.288 -2.7215  1.6568 -1.7756
  616MOL0     H83146   9.837   7.622   0.880 -1.1727 -0.3105  0.8596
  616MOL0     H83147   9.721   7.491   0.717  1.9226  3.2215 -1.3989
  616MOL0     H83148   9.697   7.360   0.527 -2.1438 -2.5315 -5.1966
  616MOL0     H83149   9.590   7.268   0.641 -0.2101  1.1600  0.1309
  616MOL0     H83150   9.787   7.162   0.426 -0.5945 -2.3424 -0.2948
  616MOL0     H83151   9.623   7.205   0.374 -1.9240 -1.3848  0.8123
  616MOL0     H83152   9.541   7.034   0.549 -1.0303 -0.5181 -1.5676
  616MOL0     H83153   9.717   6.979   0.545  2.2642  1.3645 -2.2316
  616MOL0     H83154   9.703   6.967   0.307  1.4594  0.2347  0.7181
  616MOL0     H83155   9.629   6.832   0.386  2.2892  1.7617  1.4620
  616MOL0     H83156   9.309   6.962   0.152 -0.6401  1.3696  0.1419
  616MOL0     H83157   9.989   7.154   0.821 -1.6133  0.2097 -0.2781
  616MOL0     H83158  10.125   7.158   0.983  1.3760 -0.9751  1.1958
  616MOL0     H83159  10.212   7.312   1.019  0.0469 -0.3617  1.6802
  616MOL0     H83160  10.075   7.256   1.120  0.7982 -0.2154  0.8169
  617MOL0     O83161   7.816   6.433   4.560 -0.5773  0.6287 -0.2839
  617MOL0     C83162   7.709   6.385   4.584  0.0339 -0.0974 -0.1684
  617MOL0     O83163   7.689   6.281   4.669  0.4073 -0.1486 -0.4269
  617MOL0     C83164   7.808   6.233   4.725 -0.0660 -0.3572  0.6131
  617MOL0     C83165   7.846   6.272   4.844 -0.2965 -0.3561 -0.1756
  617MOL0     C83166   7.959   6.218   4.909 -0.8944 -0.7644 -0.3692
  617MOL0     C83167   8.031   6.112   4.850  0.6274 -0.3240 -0.6690
  617MOL0     O83168   8.146   6.058   4.915 -0.1542 -1.2144  0.2779
  617MOL0     C83169   8.194   6.102   5.038  0.0246  0.4549 -0.0020
  617MOL0     C83170   8.297   6.009   5.082 -0.1763 -0.3461  0.8799
  617MOL0     C83171   8.268   5.860   5.073  0.7257  0.7046  0.9828
  617MOL0     C83172   8.132   5.825   5.143  0.2382 -0.0027  0.3923
  617MOL0     C83173   8.089   5.683   5.165 -0.4920 -0.4819 -0.0895
  617MOL0     C83174   8.051   5.610   5.038 -0.6015  0.0677 -1.4336
  617MOL0     C83175   7.973   5.479   5.071 -0.0969 -0.1280  0.2420
  617MOL0     C83176   8.020   5.383   5.180  0.9644  0.1009  0.0048
  617MOL0     N83177   8.164   5.345   5.173 -0.8214 -0.1409 -0.6615
  617MOL0     C83178   8.241   5.339   5.288 -0.4297  0.6993  0.1738
  617MOL0     C83179   8.357   5.297   5.245 -0.0898 -0.4603  0.5452
  617MOL0     C83180   8.484   5.293   5.322 -0.9132 -0.4337  0.3725
  617MOL0     C83181   8.579   5.418   5.279  0.2166  0.9887 -0.2072
  617MOL0     C83182   8.560   5.529   5.383 -0.8645 -0.0248  0.1659
  617MOL0     C83183   8.619   5.660   5.323 -0.1796 -1.0618 -0.7722
  617MOL0     O83184   8.760   5.648   5.286 -0.2518 -0.8530 -0.8665
  617MOL0     C83185   8.808   5.744   5.200  1.1044  0.3526 -0.2731
  617MOL0     C83186   8.937   5.731   5.150  0.1787 -1.1072  0.7142
  617MOL0     C83187   8.975   5.824   5.044 -1.3097  0.0426 -0.5881
  617MOL0     C83188   8.888   5.914   4.980 -0.3162  0.2793  0.6351
  617MOL0     C83189   8.931   5.988   4.858 -0.0157 -0.3589 -0.1628
  617MOL0     O83190   9.055   5.954   4.810 -0.3468 -0.1006  0.0310
  617MOL0     C83191   9.106   5.977   4.683  0.5438  0.6537  1.2827
  617MOL0     C83192   9.238   5.929   4.648 -0.6819 -0.3983 -0.8698
  617MOL0     C83193   9.293   5.929   4.520 -0.6528 -0.7126  0.3622
  617MOL0     C83194   9.214   5.976   4.409 -0.3802  0.0061  0.5162
  617MOL0     O83195   9.250   5.989   4.279  0.0506  1.1216 -0.7585
  617MOL0     C83196   9.379   5.935   4.248 -0.2060 -0.5039 -0.3807
  617MOL0     C83197   9.395   5.996   4.114  0.5744  0.2657  0.1041
  617MOL0     C83198   9.544   6.019   4.073 -0.9291 -0.7891 -0.6866
  617MOL0     C83199   9.635   5.904   4.108  0.7853 -0.1836 -1.0586
  617MOL0     C83200   9.786   5.915   4.081 -0.4622  0.0916  0.6044
  617MOL0     C83201   9.852   6.029   4.138  0.6019 -0.2535 -0.2800
  617MOL0     C83202  10.003   6.037   4.118 -0.6846  0.1227  0.6131
  617MOL0     C83203  10.073   5.978   4.243 -0.6147  0.5909  0.6554
  617MOL0    Cl83204  10.249   6.000   4.248 -0.1656 -0.0604  0.2511
  617MOL0     C83205   9.088   6.011   4.437 -0.0676  0.0483 -0.3826
  617MOL0     C83206   9.029   6.016   4.569  0.4562 -0.5264 -0.8256
  617MOL0     O83207   8.849   6.064   4.802 -0.3083 -0.8299  0.2330
  617MOL0     C83208   8.760   5.935   5.046  0.3600  0.3323 -1.1511
  617MOL0     C83209   8.725   5.849   5.149  0.1402  1.0603 -0.6399
  617MOL0     N83210   8.342   5.263   5.110 -0.9471  1.1446 -0.7115
  617MOL0     N83211   8.230   5.288   5.071 -0.4488 -0.1049  0.1424
  617MOL0     C83212   7.994   6.069   4.722 -0.1632  0.5343 -0.4384
  617MOL0     C83213   7.879   6.127   4.660 -0.0081 -0.1968 -0.3041
  617MOL0     C83214   7.591   6.454   4.516 -0.4537 -0.6510 -0.1526
  617MOL0     C83215   7.627   6.573   4.441  0.2934  1.1919  0.6411
  617MOL0     C83216   7.525   6.649   4.384 -0.8026  1.0673 -0.3170
  617MOL0     C83217   7.393   6.616   4.400 -0.4759  0.2737  0.5689
  617MOL0     O83218   7.300   6.700   4.349 -0.7772  0.9777 -0.0907
  617MOL0     C83219   7.213   6.657   4.238 -0.3809 -0.9384 -0.2898
  617MOL0     C83220   7.272   6.637   4.104  0.0447  0.2665  0.7679
  617MOL0     C83221   7.348   6.760   4.058  0.0502 -0.0477 -0.3083
  617MOL0     C83222   7.357   6.776   3.907 -0.9546 -0.5432 -0.0716
  617MOL0     C83223   7.429   6.666   3.834 -0.8109  0.7479  0.8133
  617MOL0     C83224   7.475   6.556   3.803 -0.1501 -0.0639 -0.1951
  617MOL0     C83225   7.358   6.497   4.464 -0.3372 -0.3988  0.3150
  617MOL0     C83226   7.447   6.420   4.531 -1.5961  0.0684  0.6626
  617MOL0     C83227   7.397   6.293   4.599  0.6325  0.1015  0.2049
  617MOL0     H83228   7.789   6.346   4.899  1.7776 -0.9842  3.1205
  617MOL0     H83229   7.997   6.260   5.002  0.1666  1.1273 -1.5868
  617MOL0     H83230   8.227   6.207   5.029  2.0459 -0.1557 -0.3125
  617MOL0     H83231   8.114   6.111   5.112  1.4786  1.4055  1.5444
  617MOL0     H83232   8.323   6.041   5.183 -1.9940  1.2657  0.8896
  617MOL0     H83233   8.391   6.021   5.027 -0.1342 -3.4109  0.0926
  617MOL0     H83234   8.351   5.812   5.126  2.1268  1.6628 -0.2694
  617MOL0     H83235   8.270   5.832   4.967  0.5390 -2.9764  1.8190
  617MOL0     H83236   8.138   5.875   5.240 -0.1156 -1.2423  1.0609
  617MOL0     H83237   8.051   5.869   5.083  1.2300  0.2276 -0.8289
  617MOL0     H83238   8.165   5.623   5.216 -1.9420 -2.5370 -0.2011
  617MOL0     H83239   7.991   5.683   5.215  0.1647 -1.4062  1.2842
  617MOL0     H83240   7.981   5.676   4.984  1.1180  3.6520  0.3715
  617MOL0     H83241   8.142   5.593   4.980  0.1119  1.2979 -0.7131
  617MOL0     H83242   7.958   5.419   4.980 -3.3305  1.0622 -0.1438
  617MOL0     H83243   7.868   5.506   5.086 -0.0666  1.5765 -1.9873
  617MOL0     H83244   8.002   5.421   5.281  0.7796 -2.3589  0.9885
  617MOL0     H83245   7.965   5.289   5.162  0.0882  1.0955 -3.0963
  617MOL0     H83246   8.206   5.371   5.385 -0.8407  0.1739  0.2021
  617MOL0     H83247   8.458   5.274   5.426 -0.4521  0.1496  0.5969
  617MOL0     H83248   8.539   5.205   5.286 -1.5926 -0.0824 -1.6933
  617MOL0     H83249   8.678   5.373   5.265 -0.9355 -1.1832 -2.1147
  617MOL0     H83250   8.534   5.457   5.187  1.0412  1.6559 -0.3378
  617MOL0     H83251   8.623   5.496   5.466  1.1880 -0.9850 -1.6872
  617MOL0     H83252   8.456   5.545   5.413 -0.3439  2.5823  0.8454
  617MOL0     H83253   8.607   5.746   5.389  2.0997 -1.4793  0.2908
  617MOL0     H83254   8.551   5.681   5.240 -0.6845 -3.4691 -1.0396
  617MOL0     H83255   9.013   5.659   5.179  1.7885  0.9192  1.7741
  617MOL0     H83256   9.080   5.817   5.021 -1.0416 -1.4259  0.8615
  617MOL0     H83257   9.297   5.897   4.734  0.3013 -0.4354 -1.5460
  617MOL0     H83258   9.392   5.890   4.501 -0.3610 -0.4766  1.3669
  617MOL0     H83259   9.450   5.974   4.322 -1.3498 -1.0372  1.0499
  617MOL0     H83260   9.386   5.826   4.239 -0.4535 -0.4500 -1.3132
  617MOL0     H83261   9.350   5.929   4.041  1.5155 -1.6668  1.2214
  617MOL0     H83262   9.339   6.089   4.103 -0.7925 -0.4865  0.5328
  617MOL0     H83263   9.546   6.045   3.967  0.2574 -2.9209 -1.2328
  617MOL0     H83264   9.580   6.104   4.133  2.0413 -1.4640 -1.3707
  617MOL0     H83265   9.597   5.811   4.065 -0.1105 -0.3132 -0.0419
  617MOL0     H83266   9.635   5.903   4.217 -2.3089  2.4767 -0.8743
  617MOL0     H83267   9.795   5.915   3.972  0.0950  0.7212  0.6420
  617MOL0     H83268   9.841   5.825   4.108  0.4371  0.7050  0.8699
  617MOL0     H83269   9.804   6.121   4.106 -0.2458 -0.7701 -0.5255
  617MOL0     H83270   9.831   6.027   4.246  1.2542 -0.5073 -0.1539
  617MOL0     H83271  10.028   6.141   4.097 -0.0304  0.9206  4.4805
  617MOL0     H83272  10.031   5.990   4.023  0.9522  0.8432  0.7034
  617MOL0     H83273  10.032   6.028   4.332 -0.4635  0.6716  0.6800
  617MOL0     H83274  10.052   5.872   4.265  0.0935  0.8873  3.1232
  617MOL0     H83275   9.022   6.039   4.356 -1.1402 -1.9784 -0.2550
  617MOL0     H83276   8.925   6.048   4.571  1.0942  1.9851  2.6420
  617MOL0     H83277   8.692   6.015   5.020  1.9364  2.4220  0.7691
  617MOL0     H83278   8.625   5.868   5.186 -0.0773  3.1015 -2.0711
  617MOL0     H83279   8.051   5.989   4.676 -2.6119 -0.4321 -2.0207
  617MOL0     H83280   7.862   6.079   4.564 -0.0965 -0.6727 -0.0504
  617MOL0     H83281   7.730   6.603   4.428  1.3019 -1.7594  1.0767
  617MOL0     H83282   7.545   6.736   4.323  0.4420 -0.1288 -1.7095
  617MOL0     H83283   7.137   6.735   4.221  3.4841  2.8269 -2.2314
  617MOL0     H83284   7.175   6.557   4.257 -0.4086 -0.5785  1.8843
  617MOL0     H83285   7.195   6.616   4.029  0.4638 -3.4047  1.1789
  617MOL0     H83286   7.331   6.546   4.095 -0.4034 -0.0160  0.6561
  617MOL0     H83287   7.449   6.768   4.098 -0.0556 -2.0909  0.4659
  617MOL0     H83288   7.294   6.849   4.094  0.2480  0.3258 -0.9263
  617MOL0     H83289   7.257   6.787   3.864 -0.7713 -1.8677 -0.9008
  617MOL0     H83290   7.408   6.872   3.892 -0.2015 -1.0021 -0.5240
  617MOL0     H83291   7.521   6.464   3.774  2.1393  1.0457 -0.3410
  617MOL0     H83292   7.253   6.470   4.450  0.4996 -3.0693 -1.5982
  617MOL0     H83293   7.288   6.286   4.601  0.5104  1.0952 -1.4629
  617MOL0     H83294   7.433   6.198   4.558 -2.7590 -0.6355 -1.4067
  617MOL0     H83295   7.422   6.304   4.705  2.6644 -0.5250 -0.1494
  618MOL0     O83296   4.404   0.827   1.766 -1.1784  0.0248  0.1017
  618MOL0     C83297   4.519   0.847   1.759 -0.1686  0.3784 -0.0811
  618MOL0     O83298   4.581   0.949   1.690 -0.9132  0.9857 -0.9009
  618MOL0     C83299   4.521   1.043   1.616 -0.1859  0.3349 -0.6281
  618MOL0     C83300   4.410   1.107   1.658  0.6632 -0.8995  0.4531
  618MOL0     C83301   4.328   1.186   1.571  0.1776 -0.1686 -0.2273
  618MOL0     C83302   4.357   1.195   1.438 -0.0219  0.0663 -0.3994
  618MOL0     O83303   4.289   1.270   1.352 -0.5137 -0.0840  0.0151
  618MOL0     C83304   4.152   1.225   1.348 -0.5515  0.2792 -0.2076
  618MOL0     C83305   4.090   1.258   1.206  0.2241 -0.5231 -0.4144
  618MOL0     C83306   3.942   1.235   1.202  0.4297 -0.8004 -0.0764
  618MOL0     C83307   3.879   1.317   1.087  0.3163 -0.0426  0.1112
  618MOL0     C83308   3.915   1.235   0.958 -0.3327 -0.5864  0.1470
  618MOL0     C83309   3.860   1.307   0.831  0.2530 -0.3886 -0.4083
  618MOL0     C83310   3.920   1.448   0.804 -0.2667 -0.2160 -0.8858
  618MOL0     C83311   4.055   1.446   0.738  0.7564 -0.0390 -0.3553
  618MOL0     N83312   4.049   1.404   0.591 -1.2094  0.4495 -0.3198
  618MOL0     C83313   4.080   1.277   0.551 -0.2303 -0.3216  0.1306
  618MOL0     C83314   4.106   1.294   0.418 -0.2138 -0.1732 -0.2833
  618MOL0     C83315   4.161   1.181   0.340 -0.0269  0.4886  0.7704
  618MOL0     C83316   4.182   1.211   0.187  0.7375  0.4608 -0.5513
  618MOL0     C83317   4.296   1.312   0.166 -0.0361  0.4969  0.9718
  618MOL0     C83318   4.324   1.353   0.026  0.3558 -0.8246  1.2541
  618MOL0     O83319   4.376   1.238  -0.049 -0.9829 -0.0987 -0.0916
  618MOL0     C83320   4.340   1.211  -0.184  0.0550 -0.2725  0.1624
  618MOL0     C83321   4.296   1.310  -0.269  0.2797 -0.1333 -0.3551
  618MOL0     C83322   4.257   1.276  -0.397 -0.4188  0.3677  0.7038
  618MOL0     C83323   4.254   1.150  -0.447  1.1147  0.7735  0.7400
  618MOL0     C83324   4.213   1.121  -0.592 -0.6334 -0.6031  0.4859
  618MOL0     O83325   4.206   0.997  -0.634 -0.7066  0.6011  0.2291
  618MOL0     C83326   4.197   0.962  -0.766  0.4006  0.6461  0.1991
  618MOL0     C83327   4.186   1.043  -0.875  0.3536 -0.1747  0.7035
  618MOL0     C83328   4.181   1.000  -1.011  1.0928  0.1924 -0.4997
  618MOL0     C83329   4.173   0.865  -1.036 -0.0190 -0.5852 -1.0890
  618MOL0     O83330   4.146   0.811  -1.156  0.2061 -0.2480 -0.2553
  618MOL0     C83331   4.091   0.898  -1.262 -0.8760  0.5980 -0.4147
  618MOL0     C83332   4.067   0.814  -1.378 -0.1406  0.4537  0.5503
  618MOL0     C83333   4.186   0.802  -1.472 -0.1933  0.8105 -0.2487
  618MOL0     C83334   4.145   0.684  -1.564 -0.2648  1.0909  0.7239
  618MOL0     C83335   4.242   0.676  -1.685  0.5176 -1.3390  0.0336
  618MOL0     C83336   4.175   0.593  -1.793 -0.9733  0.2983 -0.1395
  618MOL0     C83337   4.246   0.581  -1.922  0.4024  0.2779  1.2013
  618MOL0     C83338   4.261   0.720  -1.991  0.2731 -0.1300  0.5934
  618MOL0    Cl83339   4.104   0.799  -2.019 -0.0750 -0.0419 -0.5355
  618MOL0     C83340   4.182   0.784  -0.935  0.9132  0.6793 -0.3136
  618MOL0     C83341   4.184   0.829  -0.801 -0.1774  1.0536 -0.0649
  618MOL0     O83342   4.178   1.224  -0.656 -0.3068 -0.1317  0.0573
  618MOL0     C83343   4.304   1.045  -0.365 -0.5710  0.8594 -0.2477
  618MOL0     C83344   4.353   1.082  -0.235 -0.8519  0.4510 -0.0784
  618MOL0     N83345   4.071   1.427   0.381 -0.2837 -0.1649 -0.0714
  618MOL0     N83346   4.046   1.492   0.492 -0.7238 -0.7682  0.3804
  618MOL0     C83347   4.477   1.134   1.392 -0.3842 -0.0641 -1.0269
  618MOL0     C83348   4.548   1.051   1.479 -0.0517 -0.2200  0.3718
  618MOL0     C83349   4.618   0.765   1.836  0.3527 -0.0791 -0.6474
  618MOL0     C83350   4.727   0.829   1.882 -1.0611 -0.0129  0.3575
  618MOL0     C83351   4.821   0.771   1.968 -0.6017  0.4403  0.9025
  618MOL0     C83352   4.806   0.632   1.996  0.6667 -0.1068 -0.3041
  618MOL0     O83353   4.907   0.576   2.071 -0.8087  0.2191 -0.3970
  618MOL0     C83354   4.915   0.437   2.094  0.0417  0.3079 -0.2056
  618MOL0     C83355   5.046   0.373   2.147 -0.0101 -0.2025 -0.6669
  618MOL0     C83356   5.027   0.240   2.221 -0.1413 -0.3122 -0.0857
  618MOL0     C83357   5.032   0.121   2.131 -0.5383  0.6478 -0.0621
  618MOL0     C83358   5.016  -0.003   2.216 -0.7881 -0.0283  0.7607
  618MOL0     C83359   5.009  -0.083   2.306 -0.5120 -0.3943  0.1772
  618MOL0     C83360   4.692   0.564   1.934 -0.2658  0.7738  0.7776
  618MOL0     C83361   4.604   0.631   1.854  0.7452  0.4513 -0.0606
  618MOL0     C83362   4.499   0.548   1.778 -0.6370 -0.5393 -0.3700
  618MOL0     H83363   4.383   1.105   1.763 -2.6865 -0.1380 -0.2738
  618MOL0     H83364   4.236   1.230   1.609  0.0444 -0.3233 -0.3655
  618MOL0     H83365   4.143   1.117   1.365 -0.1855  0.1740 -0.6726
  618MOL0     H83366   4.094   1.274   1.427 -0.8776 -0.6324  0.1409
  618MOL0     H83367   4.141   1.201   1.128  2.7166 -0.1906  0.8927
  618MOL0     H83368   4.120   1.362   1.189  2.8150 -0.5918  2.8712
  618MOL0     H83369   3.889   1.262   1.294  2.3883 -0.5784  1.0206
  618MOL0     H83370   3.925   1.127   1.188  1.5069 -1.2184  1.5350
  618MOL0     H83371   3.773   1.336   1.107  1.5716  4.4825  4.5688
  618MOL0     H83372   3.922   1.417   1.083  4.1044 -1.4162  1.8006
  618MOL0     H83373   4.022   1.221   0.942 -0.6840 -0.7280 -2.4079
  618MOL0     H83374   3.877   1.134   0.975 -1.7482  0.0487  0.9835
  618MOL0     H83375   3.878   1.242   0.745  4.1272 -0.1144  0.0425
  618MOL0     H83376   3.754   1.333   0.837  0.4227  0.4144 -0.6652
  618MOL0     H83377   3.903   1.516   0.888 -0.5298  2.2815 -2.8286
  618MOL0     H83378   3.859   1.502   0.731  0.1328 -0.4307 -1.3814
  618MOL0     H83379   4.093   1.548   0.737  3.6437 -1.0308 -1.3578
  618MOL0     H83380   4.130   1.386   0.789 -0.1438 -1.6737 -0.8554
  618MOL0     H83381   4.092   1.196   0.622  0.3535 -0.1544  0.2300
  618MOL0     H83382   4.254   1.141   0.381  1.2350 -0.8973 -3.0426
  618MOL0     H83383   4.101   1.090   0.349  3.0584 -1.9209 -1.0091
  618MOL0     H83384   4.212   1.115   0.143 -0.1297  0.8021 -1.9754
  618MOL0     H83385   4.091   1.256   0.146  0.1434  0.8608  1.1235
  618MOL0     H83386   4.388   1.265   0.201  0.3658  1.1292  0.7869
  618MOL0     H83387   4.290   1.397   0.234  3.0355 -0.3329  2.4608
  618MOL0     H83388   4.408   1.423   0.020 -0.5968  0.3155  0.7796
  618MOL0     H83389   4.232   1.405  -0.004  2.4935  4.2051  2.4184
  618MOL0     H83390   4.307   1.413  -0.235 -0.8407  0.1432 -0.7843
  618MOL0     H83391   4.232   1.357  -0.466 -1.7442 -1.3518 -0.9224
  618MOL0     H83392   4.187   1.151  -0.869 -3.7793  0.0128  0.7919
  618MOL0     H83393   4.174   1.079  -1.085  0.2365 -2.7526 -3.8567
  618MOL0     H83394   3.995   0.938  -1.229  0.8713  2.9100  2.3501
  618MOL0     H83395   4.166   0.976  -1.278 -1.5296  1.7092  1.6880
  618MOL0     H83396   4.031   0.714  -1.351 -4.5133  0.8510 -2.6382
  618MOL0     H83397   3.984   0.859  -1.434 -1.5313 -0.9966  1.3595
  618MOL0     H83398   4.202   0.894  -1.529  0.3555  0.4753 -0.6313
  618MOL0     H83399   4.277   0.777  -1.418 -1.2453 -0.3984  1.0463
  618MOL0     H83400   4.045   0.707  -1.602  0.2352 -0.5150 -1.8232
  618MOL0     H83401   4.155   0.596  -1.500  0.0079  2.2235  2.3057
  618MOL0     H83402   4.345   0.651  -1.658  1.3792  0.7569 -1.1051
  618MOL0     H83403   4.251   0.781  -1.712  1.9382 -1.2746  0.6780
  618MOL0     H83404   4.166   0.491  -1.755 -1.7585  0.6888  0.7596
  618MOL0     H83405   4.070   0.616  -1.809 -1.5402 -0.8239  1.6748
  618MOL0     H83406   4.187   0.510  -1.981  0.9856  0.9123 -0.1747
  618MOL0     H83407   4.345   0.537  -1.903  2.0472  2.3639 -1.6998
  618MOL0     H83408   4.335   0.785  -1.941  2.2521  1.2591 -3.6505
  618MOL0     H83409   4.296   0.690  -2.090 -0.3086  1.2668 -0.0623
  618MOL0     H83410   4.171   0.677  -0.949  4.0450  0.2230 -0.0922
  618MOL0     H83411   4.203   0.760  -0.719  2.2553  2.2104  0.4588
  618MOL0     H83412   4.325   0.950  -0.413 -2.7441  0.1085  0.1744
  618MOL0     H83413   4.382   1.001  -0.168 -2.3071 -1.7183 -1.9091
  618MOL0     H83414   4.510   1.150   1.290  2.4557  0.7576 -0.0687
  618MOL0     H83415   4.634   0.992   1.452 -0.2351  0.5207 -2.0496
  618MOL0     H83416   4.748   0.936   1.876 -1.1971  0.1439  2.2464
  618MOL0     H83417   4.915   0.807   2.009  0.3295 -0.7698 -0.0970
  618MOL0     H83418   4.892   0.385   2.001  1.2280 -0.5562 -0.0304
  618MOL0     H83419   4.834   0.412   2.164  0.1043  0.6159 -0.0210
  618MOL0     H83420   5.083   0.449   2.216 -1.0285 -0.3884  0.1125
  618MOL0     H83421   5.134   0.361   2.084  1.7459 -1.5036  1.8819
  618MOL0     H83422   4.933   0.237   2.276 -0.4877 -0.1892 -0.6574
  618MOL0     H83423   5.118   0.246   2.280  1.5394 -1.5117 -2.3741
  618MOL0     H83424   4.955   0.126   2.053 -1.8164  0.7369  1.1708
  618MOL0     H83425   5.129   0.103   2.083 -0.6591  2.2616 -0.9949
  618MOL0     H83426   5.002  -0.160   2.381  3.2435  0.0605  1.1717
  618MOL0     H83427   4.675   0.458   1.949 -1.1382  0.5231 -1.5655
  618MOL0     H83428   4.409   0.531   1.836 -2.6097 -0.8164 -3.2935
  618MOL0     H83429   4.456   0.598   1.691 -5.2585 -4.5685 -0.8329
  618MOL0     H83430   4.540   0.456   1.734 -0.6897  0.0525 -1.7039
  619MOL0     O83431   5.849   3.318   9.408  0.2091  0.2712 -0.3206
  619MOL0     C83432   5.892   3.317   9.294 -0.5147 -0.5829 -0.0146
  619MOL0     O83433   5.852   3.394   9.188 -0.1865  0.9752  0.0604
  619MOL0     C83434   5.792   3.510   9.221 -0.0454  0.0307 -0.3721
  619MOL0     C83435   5.666   3.514   9.291  0.9637  0.0883  0.5456
  619MOL0     C83436   5.623   3.654   9.321  0.3355  0.6057 -0.1481
  619MOL0     C83437   5.688   3.764   9.280 -0.5191 -0.5321  0.6441
  619MOL0     O83438   5.620   3.879   9.308  0.1575 -0.4051 -0.2758
  619MOL0     C83439   5.695   4.001   9.297 -0.5638 -1.9493 -0.7344
  619MOL0     C83440   5.698   4.063   9.156 -0.3935  0.9195  0.1349
  619MOL0     C83441   5.568   4.117   9.110  0.5674 -1.9917  0.3732
  619MOL0     C83442   5.515   4.252   9.177  0.1004 -0.6146  1.0064
  619MOL0     C83443   5.379   4.298   9.126 -0.7762  0.4254 -1.0954
  619MOL0     C83444   5.391   4.400   9.008 -1.1059  0.4798  0.4404
  619MOL0     C83445   5.471   4.358   8.882 -0.8637 -0.0390 -0.4548
  619MOL0     C83446   5.458   4.462   8.767  0.0858 -0.7827 -0.3249
  619MOL0     N83447   5.583   4.529   8.737  0.6294  0.3398 -0.5618
  619MOL0     C83448   5.648   4.594   8.836  0.7186 -0.7425  0.2824
  619MOL0     C83449   5.762   4.638   8.789 -0.0020 -1.2338 -0.5646
  619MOL0     C83450   5.857   4.728   8.863 -0.2102  0.6746 -0.3364
  619MOL0     C83451   5.892   4.692   8.999 -0.6482 -0.1658  1.0604
  619MOL0     C83452   5.941   4.554   9.016  0.0075 -0.5122  0.0698
  619MOL0     C83453   5.993   4.539   9.165 -0.0955 -0.3397  0.1820
  619MOL0     O83454   5.906   4.575   9.274 -0.0318  0.3998 -0.3160
  619MOL0     C83455   5.939   4.535   9.401  1.3709  0.9204 -0.5444
  619MOL0     C83456   5.832   4.526   9.499  0.4366  0.3139 -0.2252
  619MOL0     C83457   5.854   4.487   9.633  0.2481  0.9974  0.1789
  619MOL0     C83458   5.983   4.449   9.675  1.4493  0.5256  0.3961
  619MOL0     C83459   6.021   4.365   9.804 -0.4972  0.3507  0.6017
  619MOL0     O83460   6.155   4.325   9.822  0.5676  0.2977  0.6125
  619MOL0     C83461   6.189   4.259   9.941 -0.7364  0.3720  0.5218
  619MOL0     C83462   6.113   4.160   9.998 -0.9698  0.2504 -0.7579
  619MOL0     C83463   6.159   4.104  10.117 -0.5349 -0.5155  0.0068
  619MOL0     C83464   6.282   4.132  10.158 -0.6832 -0.6267 -0.0946
  619MOL0     O83465   6.320   4.096  10.284 -0.0735 -0.3190 -0.4244
  619MOL0     C83466   6.322   3.954  10.316  0.3968  0.1214  0.7063
  619MOL0     C83467   6.447   3.870  10.273  0.5209 -0.7895  0.2834
  619MOL0     C83468   6.464   3.729  10.332  0.8477 -0.6402  0.8781
  619MOL0     C83469   6.525   3.728  10.469 -0.4582 -0.0524  0.1713
  619MOL0     C83470   6.584   3.589  10.496 -0.3341 -0.6943 -0.1656
  619MOL0     C83471   6.658   3.597  10.631  0.2841 -0.4767 -0.1002
  619MOL0     C83472   6.732   3.474  10.678  0.2897  1.0537  0.5615
  619MOL0     C83473   6.824   3.512  10.797  0.2864 -0.7192 -0.4937
  619MOL0    Cl83474   6.930   3.380  10.823  0.1894  0.1168 -0.4960
  619MOL0     C83475   6.369   4.217  10.091  0.7409  0.3820  0.4324
  619MOL0     C83476   6.322   4.278   9.975 -0.0283  0.5846  0.0862
  619MOL0     O83477   5.937   4.334   9.885 -0.9634 -0.4936  0.2088
  619MOL0     C83478   6.088   4.461   9.586  0.0828 -1.0432 -0.2642
  619MOL0     C83479   6.069   4.500   9.452  0.2680  0.3671  0.5351
  619MOL0     N83480   5.756   4.617   8.650 -0.3151 -0.2623  0.5021
  619MOL0     N83481   5.647   4.558   8.614  0.7278 -0.0028 -0.9360
  619MOL0     C83482   5.802   3.752   9.200 -0.0396 -0.7227 -0.4525
  619MOL0     C83483   5.853   3.629   9.177  1.6076  0.8917 -0.4351
  619MOL0     C83484   5.984   3.210   9.249 -0.2603 -0.4540  0.2590
  619MOL0     C83485   6.082   3.258   9.159  0.2162  0.5769  0.0733
  619MOL0     C83486   6.192   3.178   9.116  0.5180 -0.0786  0.5473
  619MOL0     C83487   6.212   3.059   9.177 -0.5693  0.3402 -1.2046
  619MOL0     O83488   6.326   2.983   9.143  0.2866 -0.7197 -0.0295
  619MOL0     C83489   6.434   2.994   9.234 -0.1236 -0.1978  0.1108
  619MOL0     C83490   6.543   3.076   9.162 -0.3817 -0.3914 -0.4637
  619MOL0     C83491   6.636   3.147   9.262  0.2973 -0.4126 -1.3764
  619MOL0     C83492   6.733   3.244   9.190 -0.9018  0.7125 -0.0538
  619MOL0     C83493   6.824   3.175   9.096 -0.0472  0.6499  0.0088
  619MOL0     C83494   6.900   3.113   9.023 -0.3496  0.1171 -0.6221
  619MOL0     C83495   6.107   3.003   9.256 -0.3633  0.4918  0.8833
  619MOL0     C83496   5.991   3.077   9.290 -1.0244  0.0898  0.0071
  619MOL0     C83497   5.887   3.011   9.355  0.7048  0.7558 -0.2706
  619MOL0     H83498   5.621   3.428   9.339  0.8632  0.9999  2.1451
  619MOL0     H83499   5.540   3.678   9.386  0.5970 -0.4762  0.5971
  619MOL0     H83500   5.653   4.080   9.361 -0.2874 -1.3231 -1.3103
  619MOL0     H83501   5.793   3.987   9.344 -1.8812 -2.6881  2.0559
  619MOL0     H83502   5.724   3.974   9.097 -2.8904  0.7770 -0.9131
  619MOL0     H83503   5.769   4.145   9.149 -1.0736  1.5842  0.8384
  619MOL0     H83504   5.494   4.038   9.126 -0.7277 -1.7150 -3.3843
  619MOL0     H83505   5.571   4.127   9.002  1.0634 -2.8881  0.2878
  619MOL0     H83506   5.491   4.222   9.279  1.2232 -1.2112  1.1038
  619MOL0     H83507   5.598   4.323   9.185  0.6646 -1.0021 -0.8498
  619MOL0     H83508   5.317   4.214   9.093  0.4956 -1.7475  1.5412
  619MOL0     H83509   5.328   4.346   9.210 -0.4788 -3.7141  1.7724
  619MOL0     H83510   5.293   4.431   8.973 -2.0601  2.5236  4.3256
  619MOL0     H83511   5.445   4.486   9.049  1.9611 -1.2770  0.4628
  619MOL0     H83512   5.420   4.265   8.855 -0.4843  0.3005 -2.5572
  619MOL0     H83513   5.578   4.355   8.904 -0.3085  3.4369 -1.8956
  619MOL0     H83514   5.445   4.411   8.671  0.7349  0.6873 -1.2303
  619MOL0     H83515   5.377   4.534   8.785  1.4417  0.9712 -0.9222
  619MOL0     H83516   5.621   4.595   8.941  1.6505  0.3278  0.5263
  619MOL0     H83517   5.954   4.733   8.812  0.1361  1.2624  0.3518
  619MOL0     H83518   5.816   4.829   8.864 -0.2667  0.6585  1.3898
  619MOL0     H83519   5.974   4.761   9.024 -0.3094  0.1975 -0.8778
  619MOL0     H83520   5.805   4.713   9.063 -2.8994 -0.2891 -1.7671
  619MOL0     H83521   6.023   4.536   8.946  1.3552  0.8143  1.2556
  619MOL0     H83522   5.854   4.493   8.988 -1.5572  1.3396  0.6757
  619MOL0     H83523   6.086   4.594   9.183  0.6731 -2.0489  1.8041
  619MOL0     H83524   6.022   4.434   9.171  2.2750 -0.0951 -3.7470
  619MOL0     H83525   5.729   4.546   9.472 -0.8984 -0.0291  3.9391
  619MOL0     H83526   5.762   4.475   9.689 -1.0489 -0.1726 -2.0471
  619MOL0     H83527   6.018   4.124   9.961 -1.2709  1.0069 -0.7412
  619MOL0     H83528   6.098   4.030  10.166  0.2151 -2.3871 -1.7167
  619MOL0     H83529   6.318   3.944  10.425 -0.2018  2.2694  0.9264
  619MOL0     H83530   6.231   3.908  10.276 -0.7893 -1.7489  4.9582
  619MOL0     H83531   6.464   3.863  10.165 -0.4989  0.9931 -0.0306
  619MOL0     H83532   6.533   3.927  10.308 -1.6824 -0.4829  6.5933
  619MOL0     H83533   6.369   3.676  10.329  0.2314  0.4490 -1.0371
  619MOL0     H83534   6.536   3.674  10.270  2.3403 -1.7819  3.4764
  619MOL0     H83535   6.461   3.752  10.554  1.0830 -1.8126  1.9053
  619MOL0     H83536   6.609   3.798  10.457 -2.5424  3.1451  2.6084
  619MOL0     H83537   6.653   3.550  10.421  0.6521  0.2380  0.2314
  619MOL0     H83538   6.498   3.522  10.507 -0.8342  0.1912  1.8357
  619MOL0     H83539   6.723   3.686  10.627 -1.5370  0.9049 -0.1574
  619MOL0     H83540   6.590   3.622  10.713  2.9698  3.3267  1.2828
  619MOL0     H83541   6.789   3.434  10.594 -0.6919 -1.5245  1.0416
  619MOL0     H83542   6.673   3.393  10.721  2.5505  1.2990  4.6243
  619MOL0     H83543   6.889   3.593  10.763  0.7519 -1.1203 -0.5746
  619MOL0     H83544   6.782   3.547  10.892  1.3535  4.5386 -1.6780
  619MOL0     H83545   6.471   4.234  10.124  0.8615 -0.9124  0.7779
  619MOL0     H83546   6.385   4.338   9.910 -0.3188 -1.3863 -2.1572
  619MOL0     H83547   6.188   4.423   9.603 -1.4975 -4.5874  2.3869
  619MOL0     H83548   6.152   4.497   9.382 -0.0345  4.7050 -0.3000
  619MOL0     H83549   5.853   3.835   9.152  2.8791 -2.3765 -0.4255
  619MOL0     H83550   5.945   3.621   9.121  1.2113  0.1545 -1.0076
  619MOL0     H83551   6.082   3.363   9.131 -0.2668  0.3671 -0.7514
  619MOL0     H83552   6.267   3.229   9.056  2.8453 -0.1263  3.2244
  619MOL0     H83553   6.469   2.901   9.278 -2.2562 -0.3008  1.7476
  619MOL0     H83554   6.398   3.057   9.316  0.6778  1.4062 -0.7150
  619MOL0     H83555   6.490   3.152   9.103 -0.4472 -0.8027 -0.9491
  619MOL0     H83556   6.597   3.005   9.099  3.1016  1.3975  0.2766
  619MOL0     H83557   6.691   3.071   9.319  1.9585  1.6551 -0.0830
  619MOL0     H83558   6.581   3.205   9.337  1.9803  0.3850 -0.7251
  619MOL0     H83559   6.665   3.315   9.142  0.3880  1.6625 -0.5255
  619MOL0     H83560   6.788   3.303   9.264 -2.2232  2.1323 -0.1417
  619MOL0     H83561   6.960   3.053   8.958  0.3449 -0.4719  0.5250
  619MOL0     H83562   6.118   2.905   9.301  0.2502 -0.2917 -0.9259
  619MOL0     H83563   5.803   3.078   9.375 -0.7125 -1.8614  3.8906
  619MOL0     H83564   5.860   2.923   9.296 -0.5506  1.6127 -1.0137
  619MOL0     H83565   5.919   2.975   9.453  1.2307 -0.1261 -0.7462
  620MOL0     O83566   3.089   9.867   5.014 -0.1778 -0.1706 -0.2366
  620MOL0     C83567   3.086   9.864   5.137  0.2058  0.3369 -0.0002
  620MOL0     O83568   3.045   9.969   5.216 -0.1803 -0.1944  1.0795
  620MOL0     C83569   2.961  10.057   5.146 -0.7392  0.0544  0.2309
  620MOL0     C83570   2.978  10.195   5.170 -0.2366  0.2766 -0.1719
  620MOL0     C83571   2.922  10.285   5.085  1.5843  0.3735  0.2974
  620MOL0     C83572   2.826  10.254   4.987  1.2306 -0.3087  0.4393
  620MOL0     O83573   2.741  10.345   4.915 -0.1028 -0.0525 -0.1149
  620MOL0     C83574   2.619  10.311   4.851  0.4025 -0.5547 -0.2129
  620MOL0     C83575   2.570  10.431   4.786  0.5874 -0.3378  0.3798
  620MOL0     C83576   2.663  10.460   4.662  0.1334 -0.5007  0.7517
  620MOL0     C83577   2.604  10.562   4.564 -0.4247  0.6201 -0.8070
  620MOL0     C83578   2.703  10.592   4.448  0.1571  0.5792 -0.6506
  620MOL0     C83579   2.670  10.730   4.391  0.0051 -0.0698 -0.3711
  620MOL0     C83580   2.682  10.742   4.239 -0.8190 -0.1884  1.5286
  620MOL0     C83581   2.579  10.660   4.159 -0.3247 -0.3535  0.0751
  620MOL0     N83582   2.587  10.677   4.009  0.2593  0.2346 -0.5874
  620MOL0     C83583   2.691  10.631   3.936  0.1550 -0.7100 -1.0006
  620MOL0     C83584   2.658  10.627   3.808 -0.1129  0.2483 -0.0738
  620MOL0     C83585   2.748  10.581   3.696  0.0579  0.5621 -0.1641
  620MOL0     C83586   2.873  10.671   3.682  0.5257 -0.3177 -0.2090
  620MOL0     C83587   2.944  10.634   3.556  0.5489  0.3094  0.1729
  620MOL0     C83588   2.909  10.698   3.426  0.2720 -0.8045  0.5793
  620MOL0     O83589   3.009  10.697   3.324 -0.3294  0.0948 -0.1108
  620MOL0     C83590   3.120  10.779   3.323  0.2496  0.2601 -0.6133
  620MOL0     C83591   3.215  10.745   3.227  0.6223 -0.4716  0.7036
  620MOL0     C83592   3.334  10.821   3.225 -0.0935 -0.1382  0.6025
  620MOL0     C83593   3.344  10.924   3.315  0.1345  0.0972  0.8262
  620MOL0     C83594   3.463  11.021   3.299 -0.3466  0.0481  0.2318
  620MOL0     O83595   3.436  11.145   3.359 -0.0793  0.3484 -0.0314
  620MOL0     C83596   3.513  11.251   3.323  0.4351 -0.0138 -0.6288
  620MOL0     C83597   3.530  11.293   3.192  0.3205  0.2658  0.0900
  620MOL0     C83598   3.595  11.414   3.159  0.1107 -0.9196 -0.7964
  620MOL0     C83599   3.653  11.485   3.257 -0.2475 -0.2655 -0.2212
  620MOL0     O83600   3.712  11.608   3.215  0.3370 -0.2784 -0.1885
  620MOL0     C83601   3.782  11.690   3.318  0.4543  0.3331  0.5104
  620MOL0     C83602   3.869  11.795   3.243  0.8582  0.7601  0.1831
  620MOL0     C83603   3.982  11.726   3.172  0.8096  0.9937 -0.3925
  620MOL0     C83604   4.062  11.836   3.106  0.7832 -0.3371 -1.1583
  620MOL0     C83605   4.162  11.759   3.020  0.3680 -0.9032  0.8229
  620MOL0     C83606   4.249  11.866   2.943  0.5656  0.3962 -0.2752
  620MOL0     C83607   4.354  11.792   2.856  0.1250  0.4473  0.4659
  620MOL0     C83608   4.468  11.873   2.804  0.4818 -1.0067  0.4647
  620MOL0    Cl83609   4.407  12.020   2.714 -0.0043 -0.3450  0.2386
  620MOL0     C83610   3.651  11.438   3.387  0.4977  0.5003 -0.4040
  620MOL0     C83611   3.578  11.321   3.423 -0.0115  0.6524  0.7796
  620MOL0     O83612   3.560  10.991   3.225  0.1548  0.1593  0.6346
  620MOL0     C83613   3.251  10.950   3.409 -0.2603 -0.1555 -0.2029
  620MOL0     C83614   3.136  10.879   3.414 -0.9632 -0.5541  0.2476
  620MOL0     N83615   2.523  10.662   3.796 -0.3901  0.2118  0.5175
  620MOL0     N83616   2.488  10.700   3.915 -0.4885  0.6888  0.1910
  620MOL0     C83617   2.779  10.112   4.989  0.2778 -0.5949  0.0020
  620MOL0     C83618   2.852  10.018   5.068 -0.7820  0.9072 -0.3075
  620MOL0     C83619   3.120   9.736   5.201 -0.3461  1.0045 -0.7004
  620MOL0     C83620   3.103   9.732   5.344  0.4415  0.1031  0.0940
  620MOL0     C83621   3.125   9.626   5.424 -0.3250  0.4010  0.3115
  620MOL0     C83622   3.178   9.506   5.367 -0.1297  0.7019 -0.3266
  620MOL0     O83623   3.203   9.382   5.430  0.3370  0.1277  0.8242
  620MOL0     C83624   3.199   9.386   5.573  0.4202 -0.7434  0.1528
  620MOL0     C83625   3.155   9.240   5.624 -0.0523  0.8679 -0.8424
  620MOL0     C83626   3.263   9.126   5.614 -0.8226 -1.0464  0.9642
  620MOL0     C83627   3.213   8.984   5.600  0.0576  0.1707  0.0977
  620MOL0     C83628   3.221   8.905   5.727  0.0608 -0.3106  0.3314
  620MOL0     C83629   3.248   8.850   5.822 -0.3589 -0.8651 -0.2511
  620MOL0     C83630   3.196   9.513   5.222  0.9014  0.3083 -1.3996
  620MOL0     C83631   3.160   9.618   5.136 -0.6183  0.3478  0.3806
  620MOL0     C83632   3.176   9.607   4.983 -0.5120  0.8657 -0.3685
  620MOL0     H83633   3.050  10.245   5.234  1.5040  0.1180 -1.9284
  620MOL0     H83634   2.946  10.389   5.102 -0.1550  0.9776 -0.7246
  620MOL0     H83635   2.644  10.234   4.778 -0.3441 -2.4748  1.4769
  620MOL0     H83636   2.550  10.267   4.923  1.7696 -0.2279  1.3426
  620MOL0     H83637   2.568  10.517   4.853 -0.6290  0.2653 -0.3778
  620MOL0     H83638   2.465  10.425   4.755 -0.4136 -1.2831  3.6185
  620MOL0     H83639   2.720  10.381   4.612  2.3359  0.1496  2.0938
  620MOL0     H83640   2.734  10.519   4.721 -0.7423  1.3130  0.0763
  620MOL0     H83641   2.507  10.521   4.533  1.1315 -3.0270 -1.3446
  620MOL0     H83642   2.607  10.658   4.616  0.5105 -0.3896  1.0863
  620MOL0     H83643   2.798  10.599   4.501 -1.5315 -0.6462  2.7950
  620MOL0     H83644   2.693  10.516   4.370 -1.5690  0.7959 -0.6662
  620MOL0     H83645   2.571  10.763   4.424  0.7288  2.3180 -0.4271
  620MOL0     H83646   2.745  10.800   4.430  0.6116  1.7751 -4.3819
  620MOL0     H83647   2.780  10.699   4.216 -1.3246 -2.5537  3.4111
  620MOL0     H83648   2.686  10.847   4.211 -0.3556 -0.1586  1.7012
  620MOL0     H83649   2.582  10.552   4.180 -2.7838 -0.3749  0.7408
  620MOL0     H83650   2.481  10.702   4.185 -0.3985  0.6693 -1.6944
  620MOL0     H83651   2.780  10.594   3.986  1.2900  1.9372 -0.8877
  620MOL0     H83652   2.765  10.473   3.705 -1.1245  0.1850 -1.9989
  620MOL0     H83653   2.684  10.582   3.608  0.6051 -2.1468 -0.7070
  620MOL0     H83654   2.850  10.778   3.678 -1.1533 -0.5951  0.9825
  620MOL0     H83655   2.938  10.651   3.767 -0.4062 -0.6280  0.4471
  620MOL0     H83656   2.947  10.526   3.537  1.2078  0.8137 -3.3106
  620MOL0     H83657   3.050  10.662   3.565  0.8597 -1.4999  3.9998
  620MOL0     H83658   2.858  10.794   3.445  3.1347  0.8810  0.3366
  620MOL0     H83659   2.822  10.645   3.387 -1.3825  2.3510 -0.3662
  620MOL0     H83660   3.195  10.669   3.152  0.7204  1.3358 -1.2212
  620MOL0     H83661   3.408  10.803   3.148 -1.9551  0.9289 -1.5433
  620MOL0     H83662   3.493  11.231   3.111 -0.5652  3.7164 -2.3849
  620MOL0     H83663   3.602  11.457   3.059  0.5055 -0.7578 -0.7021
  620MOL0     H83664   3.700  11.742   3.368 -0.4452 -1.2178  0.7212
  620MOL0     H83665   3.841  11.625   3.383  1.3384 -2.6939 -2.9943
  620MOL0     H83666   3.808  11.818   3.155 -0.0375 -2.0959 -0.0717
  620MOL0     H83667   3.891  11.885   3.301 -0.8611  0.7212  0.9618
  620MOL0     H83668   4.042  11.672   3.246 -1.2430 -0.2494  0.4534
  620MOL0     H83669   3.945  11.659   3.094 -0.9963  1.9715 -0.4388
  620MOL0     H83670   4.119  11.896   3.177  1.9387 -1.4211 -1.1329
  620MOL0     H83671   3.997  11.897   3.043  1.1563  2.2490  0.7978
  620MOL0     H83672   4.110  11.682   2.962 -0.7224  0.9614 -0.7659
  620MOL0     H83673   4.242  11.712   3.078  0.8281 -1.5716 -0.3409
  620MOL0     H83674   4.183  11.929   2.883 -1.9060 -2.2710 -0.5902
  620MOL0     H83675   4.296  11.926   3.021 -0.8109 -0.8787  1.6563
  620MOL0     H83676   4.299  11.746   2.772  1.6972  0.8202 -0.8185
  620MOL0     H83677   4.393  11.700   2.901 -1.5647 -1.0823 -0.9837
  620MOL0     H83678   4.526  11.907   2.890  0.8414 -1.4763  0.4140
  620MOL0     H83679   4.535  11.814   2.741 -0.8251 -2.4000  0.3208
  620MOL0     H83680   3.690  11.486   3.476  3.8068 -1.7370 -0.4277
  620MOL0     H83681   3.564  11.292   3.527 -1.8119  0.5040  0.5407
  620MOL0     H83682   3.263  11.039   3.470  1.5514  0.2703 -1.1082
  620MOL0     H83683   3.059  10.910   3.484 -1.5806 -0.0700 -0.6351
  620MOL0     H83684   2.702  10.069   4.925 -1.2557 -0.8703  1.9497
  620MOL0     H83685   2.821   9.915   5.080  0.3551  0.7665  1.8656
  620MOL0     H83686   3.073   9.823   5.395  0.2180  0.4820 -0.7103
  620MOL0     H83687   3.113   9.634   5.532 -0.7101 -2.5873  0.5757
  620MOL0     H83688   3.140   9.460   5.628  1.1406  0.7819 -1.0499
  620MOL0     H83689   3.302   9.404   5.604  0.2765 -4.2059  3.3094
  620MOL0     H83690   3.071   9.219   5.557  1.9694 -0.7536 -3.0689
  620MOL0     H83691   3.129   9.240   5.730 -0.6750 -0.4618 -0.9777
  620MOL0     H83692   3.339   9.126   5.693  1.2455 -2.5667 -0.9180
  620MOL0     H83693   3.312   9.149   5.519 -0.8461 -0.2830  1.1330
  620MOL0     H83694   3.105   8.988   5.578  0.3335  0.0921 -1.4038
  620MOL0     H83695   3.258   8.927   5.519 -0.1422  1.3259 -0.8565
  620MOL0     H83696   3.266   8.811   5.920 -2.1031  1.6863  1.2250
  620MOL0     H83697   3.225   9.415   5.185  1.4390 -0.2487  0.3563
  620MOL0     H83698   3.086   9.646   4.934 -2.3400 -2.0581  0.4449
  620MOL0     H83699   3.258   9.668   4.942  1.5292 -0.6925  1.2116
  620MOL0     H83700   3.208   9.509   4.948  0.3622  0.7126  0.8152
  621MOL0     O83701   9.413   2.225   8.128 -0.8318 -0.3916 -1.1183
  621MOL0     C83702   9.299   2.249   8.111 -0.5231  0.1618 -0.3550
  621MOL0     O83703   9.205   2.165   8.068 -0.0196  0.4356 -0.3367
  621MOL0     C83704   9.271   2.052   8.015  0.3717 -0.3721  0.0276
  621MOL0     C83705   9.313   2.047   7.880  0.9396 -0.1266 -0.0576
  621MOL0     C83706   9.382   1.934   7.827 -0.1999 -0.0486  1.1638
  621MOL0     C83707   9.382   1.818   7.900  0.2828 -0.4839 -0.5217
  621MOL0     O83708   9.424   1.710   7.828 -0.8525  0.1981  0.0677
  621MOL0     C83709   9.418   1.582   7.881  0.5562 -0.5133 -1.0257
  621MOL0     C83710   9.390   1.490   7.761 -0.5512  1.0980  0.5242
  621MOL0     C83711   9.262   1.529   7.690 -0.4929  0.8672 -0.5505
  621MOL0     C83712   9.242   1.437   7.570 -0.3818 -0.5320  0.0742
  621MOL0     C83713   9.132   1.476   7.473  0.3442  0.5883  0.2116
  621MOL0     C83714   8.991   1.421   7.522  0.0570 -0.0231 -0.2382
  621MOL0     C83715   8.906   1.398   7.399 -0.1003 -0.2927 -0.2494
  621MOL0     C83716   8.796   1.300   7.408 -0.8476  0.2722 -0.9470
  621MOL0     N83717   8.826   1.159   7.454 -0.7421  0.3208  0.4010
  621MOL0     C83718   8.939   1.096   7.410  0.4815  0.1570  0.6306
  621MOL0     C83719   8.920   0.963   7.417  0.3037  0.6260 -0.6476
  621MOL0     C83720   9.015   0.855   7.369 -0.0136  0.1785  0.4053
  621MOL0     C83721   9.150   0.894   7.312 -0.3166 -1.0962  1.0308
  621MOL0     C83722   9.140   0.902   7.158  0.4680 -1.3179 -0.0117
  621MOL0     C83723   9.060   1.016   7.095  0.5118 -0.5960 -0.4174
  621MOL0     O83724   9.121   1.141   7.128 -0.4741 -0.5405 -0.5145
  621MOL0     C83725   9.062   1.263   7.098  0.9841  0.2609  0.2829
  621MOL0     C83726   8.918   1.273   7.068  0.0103  0.1353 -0.2810
  621MOL0     C83727   8.868   1.389   7.011  0.4484 -0.1273  0.1609
  621MOL0     C83728   8.944   1.501   6.993 -0.5960 -0.7584 -0.7469
  621MOL0     C83729   8.878   1.624   6.956 -0.1932 -0.0724 -0.0208
  621MOL0     O83730   8.779   1.610   6.857 -0.1661  0.1265  0.4485
  621MOL0     C83731   8.686   1.707   6.845  0.3078  0.4625  0.0410
  621MOL0     C83732   8.611   1.753   6.958  0.2108  0.2865  0.9157
  621MOL0     C83733   8.499   1.833   6.927 -1.2635  0.3886 -0.5997
  621MOL0     C83734   8.479   1.894   6.803 -0.3035  0.2544 -0.7257
  621MOL0     O83735   8.367   1.969   6.797  0.2285 -0.2584 -0.4554
  621MOL0     C83736   8.275   1.924   6.695 -0.1482  0.4153  0.8510
  621MOL0     C83737   8.130   1.965   6.729 -1.1951  0.4038 -0.8865
  621MOL0     C83738   8.096   1.936   6.868  0.7291  0.6435  1.6206
  621MOL0     C83739   7.958   1.991   6.916  0.7395 -0.1719 -0.2331
  621MOL0     C83740   7.871   1.896   6.996 -0.2265 -0.2757 -0.1697
  621MOL0     C83741   7.751   1.977   7.045 -0.7377  0.4592  0.3020
  621MOL0     C83742   7.787   2.059   7.174 -0.2229  1.0418 -0.5184
  621MOL0     C83743   7.694   2.172   7.206 -0.6726 -1.2326 -0.2324
  621MOL0    Cl83744   7.690   2.305   7.086 -0.5414 -0.0180 -0.4282
  621MOL0     C83745   8.555   1.846   6.701  0.0690 -0.0965 -0.5090
  621MOL0     C83746   8.652   1.749   6.720  1.2872 -0.1020 -0.3822
  621MOL0     O83747   8.914   1.726   7.015 -0.2844 -0.5972 -0.4017
  621MOL0     C83748   9.079   1.500   7.045 -1.1708 -0.0698 -1.5289
  621MOL0     C83749   9.136   1.384   7.103  0.8522  0.2764 -0.7072
  621MOL0     N83750   8.797   0.940   7.468  0.1969  0.8076 -0.4153
  621MOL0     N83751   8.737   1.058   7.473 -0.4017  0.0022 -0.1059
  621MOL0     C83752   9.343   1.824   8.033  0.1306  0.1665 -0.5469
  621MOL0     C83753   9.300   1.943   8.092 -0.4447  0.1811 -0.5035
  621MOL0     C83754   9.265   2.387   8.124  0.3038  0.6331  1.6329
  621MOL0     C83755   9.283   2.451   8.251  1.1110  0.6984 -0.9362
  621MOL0     C83756   9.236   2.583   8.269 -0.1548  0.6133 -0.1524
  621MOL0     C83757   9.186   2.656   8.160  0.0730  0.1617 -0.2020
  621MOL0     O83758   9.129   2.780   8.157  0.2383 -0.2742 -0.2083
  621MOL0     C83759   9.205   2.885   8.228 -0.3082  1.2774  0.2537
  621MOL0     C83760   9.135   3.019   8.209  0.3626 -0.4367  0.2699
  621MOL0     C83761   8.998   3.014   8.287 -0.1572 -0.2723  0.1551
  621MOL0     C83762   8.909   3.133   8.281  0.1769 -0.8905  0.9783
  621MOL0     C83763   8.947   3.231   8.382  0.3510 -0.1561  0.7225
  621MOL0     C83764   8.991   3.319   8.453 -0.1952  0.4291 -0.0270
  621MOL0     C83765   9.162   2.596   8.040 -0.8258  0.2237 -1.0396
  621MOL0     C83766   9.200   2.461   8.017 -0.3260 -0.0860 -0.1202
  621MOL0     C83767   9.196   2.401   7.878 -0.2072  0.1083  0.4507
  621MOL0     H83768   9.298   2.136   7.819 -1.0837  0.9037  1.8384
  621MOL0     H83769   9.419   1.930   7.725 -4.5116 -0.8552 -0.6013
  621MOL0     H83770   9.517   1.568   7.926 -0.3953  2.3514  2.4985
  621MOL0     H83771   9.346   1.569   7.963  0.3611 -2.7689 -1.4915
  621MOL0     H83772   9.386   1.391   7.807 -0.1773  0.0877 -1.5145
  621MOL0     H83773   9.480   1.495   7.699  0.3876 -1.1498  1.5763
  621MOL0     H83774   9.277   1.636   7.670  1.4064  0.6808 -0.3188
  621MOL0     H83775   9.172   1.507   7.749 -0.1204  4.7720  1.8650
  621MOL0     H83776   9.338   1.438   7.518 -0.0956  2.5103  0.4616
  621MOL0     H83777   9.220   1.333   7.594 -0.4789 -0.7410 -0.8875
  621MOL0     H83778   9.137   1.583   7.450  0.6332  0.0789 -2.4346
  621MOL0     H83779   9.162   1.429   7.379 -1.7571 -3.3733  1.2824
  621MOL0     H83780   9.002   1.329   7.581 -0.6929 -1.2921 -2.0035
  621MOL0     H83781   8.925   1.489   7.578 -1.0636 -0.0984 -1.4193
  621MOL0     H83782   8.964   1.367   7.311  1.6510 -3.0001  1.6982
  621MOL0     H83783   8.850   1.491   7.385  1.2141  0.7666  1.1750
  621MOL0     H83784   8.716   1.339   7.472 -1.2990  0.2561 -1.4981
  621MOL0     H83785   8.746   1.298   7.311 -3.6011  3.4380  0.1849
  621MOL0     H83786   9.034   1.140   7.384  0.8995 -0.0410  1.7711
  621MOL0     H83787   9.024   0.780   7.448  0.9748 -0.8386 -0.6336
  621MOL0     H83788   8.949   0.795   7.305 -2.6919 -2.0476  4.7298
  621MOL0     H83789   9.199   0.979   7.360  0.5867  0.7852 -2.8145
  621MOL0     H83790   9.213   0.812   7.349  0.5002 -1.6001 -1.3301
  621MOL0     H83791   9.109   0.804   7.123  0.3537 -0.8608 -1.2310
  621MOL0     H83792   9.239   0.920   7.114  0.2597  0.1491  0.0526
  621MOL0     H83793   8.958   1.006   7.131 -1.0220 -1.3582 -4.4588
  621MOL0     H83794   9.048   0.999   6.987  1.3506  0.8971 -0.7859
  621MOL0     H83795   8.850   1.189   7.059  2.2409 -2.3289  3.4261
  621MOL0     H83796   8.761   1.402   7.001  0.1664 -3.0989 -1.6769
  621MOL0     H83797   8.629   1.729   7.062  2.3705  1.4960  0.8578
  621MOL0     H83798   8.419   1.841   7.001 -3.2682  0.0186 -2.6235
  621MOL0     H83799   8.313   1.979   6.608 -0.5606  2.2473  1.7685
  621MOL0     H83800   8.286   1.817   6.675  0.6649  0.7211 -0.4866
  621MOL0     H83801   8.118   2.072   6.710  1.0945  0.7744 -0.5880
  621MOL0     H83802   8.059   1.902   6.677  0.9349 -5.1191  2.0133
  621MOL0     H83803   8.104   1.828   6.886  2.4722  0.4705  0.1150
  621MOL0     H83804   8.176   1.996   6.913  0.6380  3.8690 -1.9950
  621MOL0     H83805   7.898   2.030   6.834  0.5690  3.0206  1.2895
  621MOL0     H83806   7.989   2.076   6.977  3.1653 -0.0959 -1.4572
  621MOL0     H83807   7.936   1.869   7.079  1.3757  2.1197 -0.5262
  621MOL0     H83808   7.838   1.818   6.927  0.2023  1.0011 -1.9068
  621MOL0     H83809   7.709   2.035   6.962 -0.1911 -1.1607 -1.1670
  621MOL0     H83810   7.670   1.912   7.080 -1.2164 -0.3230 -2.0901
  621MOL0     H83811   7.891   2.093   7.171  0.7755 -1.3572  2.2750
  621MOL0     H83812   7.786   1.981   7.250 -1.1140  0.0551 -1.5045
  621MOL0     H83813   7.596   2.124   7.215  0.1174 -2.9298 -0.3351
  621MOL0     H83814   7.718   2.207   7.307 -1.6141  0.3162 -0.5178
  621MOL0     H83815   8.534   1.877   6.599 -2.2453 -0.0132 -0.0518
  621MOL0     H83816   8.700   1.721   6.627  1.2814  0.7288 -0.6417
  621MOL0     H83817   9.156   1.576   7.032 -2.0301  1.5385  1.6991
  621MOL0     H83818   9.236   1.392   7.145  0.8291  0.4834 -0.6912
  621MOL0     H83819   9.336   1.730   8.087 -2.8654  1.8236  2.3308
  621MOL0     H83820   9.266   1.950   8.195  3.1343  0.1261  0.8067
  621MOL0     H83821   9.327   2.402   8.337  0.6872  2.3394  0.2874
  621MOL0     H83822   9.236   2.627   8.369 -0.9277 -2.0978  1.1510
  621MOL0     H83823   9.300   2.892   8.174 -0.3624  5.3069  0.3530
  621MOL0     H83824   9.233   2.867   8.333  0.7720  2.1233  0.1335
  621MOL0     H83825   9.124   3.055   8.106  0.4750 -0.5767  0.2089
  621MOL0     H83826   9.193   3.101   8.253 -2.1782  2.6520 -1.7015
  621MOL0     H83827   9.015   2.993   8.393  1.6889  0.0870 -0.0469
  621MOL0     H83828   8.945   2.933   8.236  0.9061 -2.5261  2.3622
  621MOL0     H83829   8.927   3.189   8.188  4.4157  1.2684  2.8221
  621MOL0     H83830   8.810   3.089   8.290 -0.0360 -0.4721  0.7138
  621MOL0     H83831   9.022   3.404   8.510  1.9555 -0.4938  0.2760
  621MOL0     H83832   9.111   2.648   7.960 -0.0296  1.2170 -0.9230
  621MOL0     H83833   9.104   2.342   7.876  0.8942 -1.6584 -0.3768
  621MOL0     H83834   9.192   2.474   7.797 -3.6766 -0.7185 -0.2716
  621MOL0     H83835   9.284   2.336   7.879 -0.0788  0.2869  0.9356
  622MOL0     O83836   8.077   3.798   8.211 -0.0307 -0.5403  1.0823
  622MOL0     C83837   8.047   3.826   8.328  0.0627 -0.2057  0.4153
  622MOL0     O83838   7.944   3.771   8.402  0.1026  0.4849 -0.0123
  622MOL0     C83839   7.886   3.651   8.351  0.2620 -0.5309 -1.6408
  622MOL0     C83840   7.759   3.656   8.296  0.2658  0.0714  0.1487
  622MOL0     C83841   7.687   3.546   8.256  0.2613  0.0823 -0.4680
  622MOL0     C83842   7.745   3.424   8.269 -0.5036 -0.2184  0.4350
  622MOL0     O83843   7.693   3.304   8.231 -0.6071 -0.1587 -0.5707
  622MOL0     C83844   7.548   3.308   8.214 -0.8012 -0.5636  0.8386
  622MOL0     C83845   7.482   3.167   8.191 -1.2013 -0.9858 -0.2972
  622MOL0     C83846   7.494   3.089   8.319 -0.7137 -0.4476  0.5133
  622MOL0     C83847   7.436   2.953   8.327 -0.3829  0.2611  0.0359
  622MOL0     C83848   7.470   2.855   8.216  0.9934  0.5127 -0.2519
  622MOL0     C83849   7.620   2.797   8.219  0.9691  0.6584  0.8357
  622MOL0     C83850   7.644   2.705   8.337 -0.1415 -0.0502  0.1297
  622MOL0     C83851   7.784   2.638   8.315 -0.8228  0.2488 -0.7858
  622MOL0     N83852   7.910   2.716   8.350 -0.3716  0.1018  0.1260
  622MOL0     C83853   7.985   2.808   8.283 -0.3752  0.3055  1.7388
  622MOL0     C83854   8.075   2.848   8.380  0.0087 -0.2980 -0.4513
  622MOL0     C83855   8.166   2.972   8.381 -0.7113 -0.2927  0.3859
  622MOL0     C83856   8.203   3.011   8.518 -0.4905  0.0599  0.3290
  622MOL0     C83857   8.349   3.076   8.522  0.0753 -0.8380 -0.0372
  622MOL0     C83858   8.381   3.150   8.652  0.8015  1.0103  0.0086
  622MOL0     O83859   8.289   3.263   8.656 -0.0090  0.0272 -0.3422
  622MOL0     C83860   8.331   3.382   8.707 -0.3818  0.1339  0.6186
  622MOL0     C83861   8.428   3.394   8.807  0.1127 -0.0383  1.1038
  622MOL0     C83862   8.465   3.516   8.870  0.3962 -0.0794 -0.2533
  622MOL0     C83863   8.397   3.636   8.848  0.1725  1.0799  0.1795
  622MOL0     C83864   8.438   3.770   8.911  1.3773 -0.3264 -0.2372
  622MOL0     O83865   8.343   3.864   8.928  0.0950 -0.5768 -0.2309
  622MOL0     C83866   8.364   3.973   9.010 -0.3754  0.1000 -0.8251
  622MOL0     C83867   8.277   3.994   9.120  0.1980 -0.1394 -0.2051
  622MOL0     C83868   8.295   4.098   9.218 -0.8855  0.4573 -0.2532
  622MOL0     C83869   8.406   4.181   9.217  0.7921  0.6841 -0.0505
  622MOL0     O83870   8.423   4.269   9.323  0.2975 -0.7598  0.8691
  622MOL0     C83871   8.554   4.329   9.347  0.3255 -0.0483  0.9492
  622MOL0     C83872   8.559   4.469   9.300 -0.4124 -0.1181  0.1917
  622MOL0     C83873   8.693   4.539   9.311 -0.2640 -0.0568  0.0026
  622MOL0     C83874   8.685   4.672   9.236  0.4144 -0.2964  0.6709
  622MOL0     C83875   8.829   4.728   9.234  0.2916  0.3967  0.6239
  622MOL0     C83876   8.839   4.870   9.165  0.1979  0.4430  0.6408
  622MOL0     C83877   8.796   4.869   9.017 -0.9431  0.5240  0.8632
  622MOL0     C83878   8.853   4.981   8.933  0.3058 -0.1947  0.1093
  622MOL0    Cl83879   8.788   5.123   8.999  0.2750 -0.3403 -0.0616
  622MOL0     C83880   8.500   4.159   9.109 -0.9101  0.5485  0.1094
  622MOL0     C83881   8.475   4.060   9.006  0.2225  0.4748 -0.0917
  622MOL0     O83882   8.552   3.770   8.964  0.4253 -0.5979 -0.5816
  622MOL0     C83883   8.289   3.625   8.755  0.2162 -0.2509  0.4083
  622MOL0     C83884   8.268   3.508   8.671  0.0966  0.1795 -0.4211
  622MOL0     N83885   8.062   2.764   8.485  0.0255  1.1473 -0.1287
  622MOL0     N83886   7.966   2.682   8.468  0.3877  0.8221 -0.0663
  622MOL0     C83887   7.881   3.413   8.303 -0.1667  0.2719 -0.6502
  622MOL0     C83888   7.946   3.529   8.356 -0.3124 -0.1489 -0.0608
  622MOL0     C83889   8.145   3.907   8.409 -0.3748  0.7807 -0.4835
  622MOL0     C83890   8.110   3.936   8.544  0.6612 -1.9384  0.0593
  622MOL0     C83891   8.185   4.011   8.629 -0.4231  0.0587 -0.3346
  622MOL0     C83892   8.314   4.059   8.591  0.4316 -0.1489  0.5168
  622MOL0     O83893   8.401   4.117   8.683 -0.1288 -0.0371 -0.3819
  622MOL0     C83894   8.333   4.240   8.746  0.0380 -0.3677 -0.5680
  622MOL0     C83895   8.408   4.367   8.711 -0.2733 -0.3117 -0.1500
  622MOL0     C83896   8.540   4.377   8.788  0.6084 -0.0336 -0.0139
  622MOL0     C83897   8.643   4.478   8.733  0.1986  0.4591  0.2285
  622MOL0     C83898   8.762   4.479   8.821  0.3131 -0.2677  0.1029
  622MOL0     C83899   8.851   4.493   8.901  0.6810 -0.6688  0.7201
  622MOL0     C83900   8.348   4.033   8.455  0.4173 -0.8739 -1.0082
  622MOL0     C83901   8.272   3.960   8.366 -0.2687  0.8625 -1.1845
  622MOL0     C83902   8.314   3.957   8.219 -0.3679 -0.3492  0.1138
  622MOL0     H83903   7.728   3.759   8.278 -0.2297 -0.1161 -0.0917
  622MOL0     H83904   7.589   3.574   8.220 -1.5292 -2.0493  2.3450
  622MOL0     H83905   7.514   3.340   8.313  0.4235 -4.2726  2.6447
  622MOL0     H83906   7.510   3.376   8.136 -1.1444  0.6317  2.0123
  622MOL0     H83907   7.548   3.113   8.122 -0.1661 -1.7732  1.2559
  622MOL0     H83908   7.379   3.173   8.154 -0.1729 -2.7003 -3.9363
  622MOL0     H83909   7.441   3.154   8.390 -3.5659 -0.9740 -0.9502
  622MOL0     H83910   7.597   3.077   8.353 -1.1969  1.2630  2.8359
  622MOL0     H83911   7.466   2.902   8.419 -2.8393 -1.1191  0.1625
  622MOL0     H83912   7.328   2.971   8.332 -0.6055 -0.1660 -2.2926
  622MOL0     H83913   7.407   2.765   8.221  3.2458 -1.4051 -2.7806
  622MOL0     H83914   7.449   2.889   8.114 -1.7577 -3.6746 -1.3571
  622MOL0     H83915   7.645   2.747   8.124  3.2571 -1.3027  2.3665
  622MOL0     H83916   7.682   2.887   8.218  1.9495 -0.0063  0.6391
  622MOL0     H83917   7.571   2.624   8.330 -0.4588  0.2453 -0.0167
  622MOL0     H83918   7.635   2.770   8.424  1.4641 -0.7026  0.8202
  622MOL0     H83919   7.792   2.539   8.360  0.8710 -0.1032 -1.8014
  622MOL0     H83920   7.788   2.620   8.207 -1.8556 -0.9573 -0.6533
  622MOL0     H83921   7.969   2.858   8.188 -1.3715 -0.3637  1.5453
  622MOL0     H83922   8.252   2.942   8.320 -1.8345  0.3793 -1.6341
  622MOL0     H83923   8.117   3.056   8.332 -2.4474  0.8746  3.7699
  622MOL0     H83924   8.124   3.077   8.556 -0.1312 -0.8194  2.8159
  622MOL0     H83925   8.218   2.925   8.584  1.7368  1.5828  1.9568
  622MOL0     H83926   8.350   3.159   8.450  3.7471 -1.8208 -1.3356
  622MOL0     H83927   8.433   3.011   8.498  2.9757  1.1560  3.7157
  622MOL0     H83928   8.484   3.185   8.650  1.5419 -1.0081 -3.3913
  622MOL0     H83929   8.367   3.095   8.746  0.5377 -0.3734 -0.8173
  622MOL0     H83930   8.480   3.304   8.840 -4.2431 -3.2660  0.1558
  622MOL0     H83931   8.547   3.522   8.940  1.2352 -2.4855 -0.9294
  622MOL0     H83932   8.190   3.935   9.149  0.0068  0.9444  1.5978
  622MOL0     H83933   8.226   4.106   9.302 -1.0723  3.0520 -0.5783
  622MOL0     H83934   8.579   4.314   9.452  2.6282 -1.7143  0.2573
  622MOL0     H83935   8.636   4.272   9.301  0.5223  1.0299 -0.0944
  622MOL0     H83936   8.534   4.462   9.193 -0.0626 -0.7698  0.1476
  622MOL0     H83937   8.498   4.543   9.352  0.0323  1.1068 -0.9709
  622MOL0     H83938   8.707   4.557   9.418 -5.1203 -1.0589  1.0485
  622MOL0     H83939   8.775   4.475   9.277  0.7869  1.5448 -0.6112
  622MOL0     H83940   8.625   4.739   9.298 -1.9631 -1.4579 -0.2578
  622MOL0     H83941   8.651   4.666   9.132  1.4083 -1.7153  0.4002
  622MOL0     H83942   8.899   4.664   9.180  1.5354  3.9321 -2.3117
  622MOL0     H83943   8.856   4.735   9.340 -3.6412 -0.5198  1.8734
  622MOL0     H83944   8.780   4.943   9.221 -1.2305 -0.7213  0.7338
  622MOL0     H83945   8.944   4.897   9.178  0.3006 -0.1708  1.1867
  622MOL0     H83946   8.689   4.888   9.032 -1.5329 -0.9173 -1.0531
  622MOL0     H83947   8.787   4.774   8.964 -1.1355 -0.0990  1.9829
  622MOL0     H83948   8.962   4.991   8.933  0.3085  0.4498  2.3497
  622MOL0     H83949   8.826   4.973   8.828 -0.5154  4.1397 -0.1932
  622MOL0     H83950   8.576   4.236   9.102  0.4715 -0.4403  2.8361
  622MOL0     H83951   8.543   4.038   8.924 -0.6790 -3.9141  0.1092
  622MOL0     H83952   8.230   3.713   8.734 -3.6914 -2.6067  0.5592
  622MOL0     H83953   8.184   3.507   8.602 -1.3932  0.0034  1.2916
  622MOL0     H83954   7.925   3.316   8.322  0.3729  0.9952  2.3441
  622MOL0     H83955   8.040   3.533   8.410  0.3338 -1.3603 -1.0343
  622MOL0     H83956   8.011   3.925   8.586 -1.1799  5.7055 -0.9293
  622MOL0     H83957   8.166   4.025   8.735  0.0759  0.8876 -0.3531
  622MOL0     H83958   8.331   4.233   8.855  4.0820  1.7345 -0.1937
  622MOL0     H83959   8.230   4.253   8.711 -0.2773  0.5541  0.6664
  622MOL0     H83960   8.358   4.461   8.733  0.6377  0.3702 -0.9422
  622MOL0     H83961   8.422   4.365   8.603 -1.5248  1.1038 -0.3696
  622MOL0     H83962   8.581   4.277   8.798 -0.5057 -0.5750 -0.6877
  622MOL0     H83963   8.520   4.400   8.894  0.7417  0.0660 -0.0098
  622MOL0     H83964   8.661   4.446   8.630 -2.2486  1.4311 -0.5817
  622MOL0     H83965   8.587   4.572   8.730  0.1597  0.5298  2.1845
  622MOL0     H83966   8.918   4.515   8.982 -0.4848  3.0618  0.8764
  622MOL0     H83967   8.449   4.062   8.425  0.7716 -0.3253  0.6289
  622MOL0     H83968   8.257   4.010   8.142 -3.7736 -3.4400  0.2872
  622MOL0     H83969   8.412   4.005   8.206 -0.2488  0.4843  3.3317
  622MOL0     H83970   8.332   3.857   8.178  2.8075  0.0340  0.3104
  623MOL0     O83971  10.666   9.325   6.132 -0.3199  0.1814  0.1734
  623MOL0     C83972  10.662   9.205   6.119  0.2083  0.3654 -0.0130
  623MOL0     O83973  10.542   9.132   6.104 -1.1600  0.5511 -0.5658
  623MOL0     C83974  10.439   9.205   6.054  0.0753  0.1320 -0.8107
  623MOL0     C83975  10.424   9.235   5.920 -0.6182  0.1855 -0.0263
  623MOL0     C83976  10.319   9.313   5.881 -0.2674 -0.1610 -1.0052
  623MOL0     C83977  10.242   9.382   5.968  1.0534 -0.7498 -0.3150
  623MOL0     O83978  10.152   9.477   5.930 -0.5298 -0.5322  0.1823
  623MOL0     C83979  10.114   9.493   5.788  0.1777 -0.1253 -0.6887
  623MOL0     C83980  10.064   9.630   5.761 -0.5146  0.4247  0.2013
  623MOL0     C83981  10.087   9.661   5.615 -0.4628 -0.2413  0.7168
  623MOL0     C83982   9.960   9.710   5.541 -0.0646  0.2855 -0.0144
  623MOL0     C83983   9.950   9.669   5.385  0.6685 -0.3277  0.8459
  623MOL0     C83984   9.880   9.778   5.294  0.3176 -0.5263 -0.2449
  623MOL0     C83985   9.731   9.805   5.330  0.2754 -0.6898 -0.4585
  623MOL0     C83986   9.660   9.695   5.402 -0.4832  0.3985 -0.2560
  623MOL0     N83987   9.633   9.560   5.343 -0.2061  0.0897 -0.2796
  623MOL0     C83988   9.691   9.465   5.253 -0.8181 -1.1612  0.0293
  623MOL0     C83989   9.612   9.357   5.251  0.1656  0.8695  0.0933
  623MOL0     C83990   9.648   9.218   5.180 -0.0638  0.9939  0.1466
  623MOL0     C83991   9.533   9.121   5.156 -0.2256  0.3766 -0.3038
  623MOL0     C83992   9.573   8.983   5.083 -0.3324  0.6498  0.0507
  623MOL0     C83993   9.706   8.922   5.121  0.0158  0.2577  0.2159
  623MOL0     O83994   9.709   8.809   5.035  0.1416  0.6994 -0.7477
  623MOL0     C83995   9.677   8.686   5.084  0.5823  0.7307  0.5339
  623MOL0     C83996   9.637   8.590   4.991  0.2494 -1.0375  0.4516
  623MOL0     C83997   9.586   8.468   5.022 -0.7634  0.5115  0.6479
  623MOL0     C83998   9.582   8.424   5.158  1.2912  0.3275 -0.3302
  623MOL0     C83999   9.536   8.287   5.191 -0.8716 -0.6774 -0.8007
  623MOL0     O84000   9.443   8.236   5.108  0.5299  0.5819 -0.0462
  623MOL0     C84001   9.362   8.135   5.140 -0.4687 -0.9561 -0.0580
  623MOL0     C84002   9.310   8.105   5.268 -0.0381  0.0773  0.6681
  623MOL0     C84003   9.226   7.996   5.296 -0.3629  0.1785 -0.5118
  623MOL0     C84004   9.198   7.902   5.189 -1.2160  0.2014 -0.9230
  623MOL0     O84005   9.134   7.780   5.206  0.3206  0.2156  0.0431
  623MOL0     C84006   9.147   7.717   5.336  0.9929  0.0032  0.3174
  623MOL0     C84007   9.064   7.592   5.349 -1.2895  0.5429 -0.8142
  623MOL0     C84008   9.133   7.481   5.431 -0.0852 -0.0726 -0.2628
  623MOL0     C84009   9.054   7.340   5.450 -0.8095  0.2968 -0.3440
  623MOL0     C84010   9.116   7.245   5.555  0.4042  0.5115 -0.6971
  623MOL0     C84011   9.082   7.299   5.702 -0.2048  0.0001  0.1816
  623MOL0     C84012   9.129   7.186   5.806 -0.1092 -0.2351  0.5618
  623MOL0     C84013   9.054   7.203   5.933 -0.0113  0.5448 -0.0744
  623MOL0    Cl84014   9.090   7.369   5.997 -0.3748  0.0920  0.1249
  623MOL0     C84015   9.272   7.921   5.070 -0.2485  0.5479  0.6279
  623MOL0     C84016   9.332   8.041   5.037  0.3266 -0.8441 -0.3643
  623MOL0     O84017   9.587   8.225   5.282  0.1911  0.0628 -1.0462
  623MOL0     C84018   9.634   8.519   5.255  0.5422 -0.5235 -0.0856
  623MOL0     C84019   9.678   8.654   5.213  0.9735 -0.2642 -1.3536
  623MOL0     N84020   9.513   9.375   5.341 -1.0326  0.5746 -0.9153
  623MOL0     N84021   9.527   9.502   5.389  0.9123 -0.2175 -0.4041
  623MOL0     C84022  10.252   9.352   6.110 -0.1013 -0.3734 -0.3231
  623MOL0     C84023  10.353   9.258   6.157 -0.1176 -0.6395 -0.6636
  623MOL0     C84024  10.782   9.126   6.163 -0.0534 -1.1283 -0.1415
  623MOL0     C84025  10.769   8.985   6.204 -0.0087  0.0476  0.2943
  623MOL0     C84026  10.886   8.906   6.231  0.3923  0.1521  0.0569
  623MOL0     C84027  11.014   8.962   6.217  0.9410  0.9585 -0.6645
  623MOL0     O84028  11.126   8.882   6.247  0.4755 -0.5044  0.9314
  623MOL0     C84029  11.217   8.851   6.130  0.6160 -0.1357 -0.1643
  623MOL0     C84030  11.146   8.741   6.047 -1.1124 -0.3979  0.2094
  623MOL0     C84031  11.242   8.627   5.991  0.0533 -0.2146  0.8190
  623MOL0     C84032  11.320   8.685   5.863  1.0173 -0.1692  1.0873
  623MOL0     C84033  11.432   8.778   5.900 -0.1771  0.8715 -0.2923
  623MOL0     C84034  11.534   8.843   5.938 -0.0482 -0.0108  0.2311
  623MOL0     C84035  11.029   9.089   6.168  0.4430 -0.2756  0.2778
  623MOL0     C84036  10.920   9.168   6.136 -0.6069  0.0055 -1.1523
  623MOL0     C84037  10.950   9.296   6.072 -0.6787  0.1492  0.1841
  623MOL0     H84038  10.480   9.173   5.851  3.5251  0.2408  2.8784
  623MOL0     H84039  10.310   9.325   5.773 -4.3124  1.4170 -0.6518
  623MOL0     H84040  10.202   9.486   5.723 -0.1539  0.2515 -1.1883
  623MOL0     H84041  10.050   9.409   5.760 -0.9472  0.2728  0.5964
  623MOL0     H84042  10.125   9.696   5.823  0.0915  1.0668 -1.0461
  623MOL0     H84043   9.956   9.628   5.776 -1.2494 -1.7116 -3.9649
  623MOL0     H84044  10.108   9.567   5.564  2.3179  1.6412 -1.9589
  623MOL0     H84045  10.167   9.734   5.606 -2.1230  1.9012  2.1748
  623MOL0     H84046   9.868   9.669   5.583  0.7128 -0.0109  1.4660
  623MOL0     H84047   9.954   9.815   5.571  1.4904 -0.3434  2.7996
  623MOL0     H84048  10.054   9.660   5.354  0.3926 -0.1075 -0.1566
  623MOL0     H84049   9.906   9.569   5.370  0.9565 -0.1846 -1.2363
  623MOL0     H84050   9.942   9.868   5.288  0.3563 -0.5670 -0.4831
  623MOL0     H84051   9.879   9.736   5.193  0.9973 -2.0819  0.3657
  623MOL0     H84052   9.679   9.812   5.234 -1.0361 -2.6461  0.0581
  623MOL0     H84053   9.716   9.893   5.393 -1.7212  0.2073 -2.0804
  623MOL0     H84054   9.690   9.685   5.507  2.2159 -0.4037 -1.0283
  623MOL0     H84055   9.563   9.747   5.406  0.7978  2.9963 -0.8672
  623MOL0     H84056   9.785   9.475   5.200  0.5391  1.0485  2.6287
  623MOL0     H84057   9.688   9.246   5.082  2.9114 -0.2442  0.9027
  623MOL0     H84058   9.722   9.157   5.233 -1.2913 -0.3511  0.3915
  623MOL0     H84059   9.492   9.093   5.253 -3.7458  0.3356 -1.6379
  623MOL0     H84060   9.452   9.173   5.103  0.4738  2.4153  0.5427
  623MOL0     H84061   9.589   8.993   4.975 -0.3070 -0.3154 -0.0405
  623MOL0     H84062   9.492   8.910   5.079 -1.2872  1.5968 -5.1408
  623MOL0     H84063   9.724   8.908   5.228 -1.5977 -3.9947  0.1136
  623MOL0     H84064   9.791   8.988   5.099  1.6058 -0.6664  3.0674
  623MOL0     H84065   9.641   8.623   4.887  1.4237 -1.6906  0.2793
  623MOL0     H84066   9.568   8.413   4.931 -2.7103  0.2140  1.1716
  623MOL0     H84067   9.342   8.161   5.356  0.8920 -2.0382  1.7340
  623MOL0     H84068   9.185   7.975   5.394 -1.9182 -1.0359 -1.3603
  623MOL0     H84069   9.252   7.701   5.365  0.5094 -1.3791  1.4120
  623MOL0     H84070   9.118   7.782   5.419 -1.6154 -0.5196 -0.1144
  623MOL0     H84071   8.968   7.605   5.400 -1.9909  0.3575 -2.0201
  623MOL0     H84072   9.040   7.559   5.247  1.1608  0.4853 -1.4373
  623MOL0     H84073   9.240   7.469   5.410  0.8165  0.9531  3.1571
  623MOL0     H84074   9.138   7.509   5.536 -0.2841 -1.9421  0.2749
  623MOL0     H84075   9.055   7.278   5.360 -0.5330  2.2469 -1.7640
  623MOL0     H84076   8.952   7.364   5.480 -0.8624 -0.2908 -0.0448
  623MOL0     H84077   9.220   7.220   5.533 -0.0402 -3.2338  0.8258
  623MOL0     H84078   9.076   7.145   5.542  2.1236 -0.3382  0.2278
  623MOL0     H84079   9.117   7.401   5.716  0.0550 -0.2107  1.1304
  623MOL0     H84080   8.973   7.308   5.707 -0.1780  4.1345 -2.4462
  623MOL0     H84081   9.232   7.194   5.841  0.6628  3.0270 -1.9508
  623MOL0     H84082   9.111   7.090   5.756 -1.0354 -0.3168  1.0208
  623MOL0     H84083   8.947   7.183   5.933 -0.0362  0.6765  0.0112
  623MOL0     H84084   9.094   7.136   6.010  1.9752  0.7528 -0.8656
  623MOL0     H84085   9.273   7.848   4.990 -0.7326  1.5978 -0.3633
  623MOL0     H84086   9.363   8.052   4.933  1.5007 -0.9673 -0.0366
  623MOL0     H84087   9.633   8.483   5.357  3.5191 -0.8493 -0.0720
  623MOL0     H84088   9.725   8.720   5.285  2.7427 -3.5517  0.7034
  623MOL0     H84089  10.194   9.409   6.181 -2.5868 -3.8457  0.6906
  623MOL0     H84090  10.378   9.246   6.262  1.2860  0.0222 -0.8913
  623MOL0     H84091  10.673   8.935   6.216 -0.5027  1.1598  1.0788
  623MOL0     H84092  10.879   8.804   6.268  2.9860 -0.2788 -0.4421
  623MOL0     H84093  11.310   8.800   6.156  0.9242  1.1697  1.5836
  623MOL0     H84094  11.244   8.937   6.068 -0.4967  1.4306  1.3723
  623MOL0     H84095  11.096   8.801   5.970 -0.0649  0.2260  0.0043
  623MOL0     H84096  11.075   8.696   6.116 -1.2465 -0.8267 -0.2057
  623MOL0     H84097  11.178   8.542   5.969  2.4093 -1.3667 -2.4561
  623MOL0     H84098  11.316   8.601   6.067 -0.7107  0.8029  1.9593
  623MOL0     H84099  11.358   8.600   5.805 -2.4125 -1.8673  1.0909
  623MOL0     H84100  11.245   8.740   5.805  2.7888  0.4593 -0.7308
  623MOL0     H84101  11.621   8.897   5.969 -1.8673  2.6680  0.9916
  623MOL0     H84102  11.129   9.118   6.138  0.0038 -0.5773 -1.5465
  623MOL0     H84103  11.049   9.298   6.026 -1.2757 -1.4464 -1.2193
  623MOL0     H84104  10.871   9.312   5.999  1.0225 -0.3080 -1.8284
  623MOL0     H84105  10.940   9.376   6.146  3.4157  0.3592  0.7235
  624MOL0     O84106   9.876  11.127   0.043  0.7660  0.3133  0.1566
  624MOL0     C84107   9.936  11.113  -0.061  0.0832  0.1802 -0.1320
  624MOL0     O84108  10.018  11.207  -0.122 -0.9254 -0.2168  0.2384
  624MOL0     C84109  10.040  11.320  -0.052  0.6848  0.0035  0.4635
  624MOL0     C84110   9.936  11.413  -0.047  0.2695  0.5722 -0.1586
  624MOL0     C84111   9.958  11.536   0.017  0.5330 -1.0210  0.1719
  624MOL0     C84112  10.072  11.562   0.087 -0.5166  0.1775  0.8750
  624MOL0     O84113  10.088  11.681   0.162 -0.5067 -0.2687  0.4117
  624MOL0     C84114   9.976  11.742   0.233 -0.5171  0.5667 -0.3362
  624MOL0     C84115  10.000  11.739   0.377  0.4357  0.6477 -0.4716
  624MOL0     C84116  10.003  11.594   0.423  0.7768  0.5252 -1.0354
  624MOL0     C84117   9.934  11.567   0.562  0.7975  0.2886  0.1648
  624MOL0     C84118  10.019  11.620   0.668  0.0845 -0.0298 -1.1164
  624MOL0     C84119   9.940  11.647   0.795  0.4115 -0.3455 -0.6797
  624MOL0     C84120  10.027  11.706   0.909  0.1969  0.4509  0.8989
  624MOL0     C84121   9.948  11.736   1.040 -0.1992  0.0862  0.5053
  624MOL0     N84122   9.917  11.611   1.121 -0.7109  0.6588 -0.6546
  624MOL0     C84123  10.014  11.546   1.197  0.3296 -0.1858 -0.7488
  624MOL0     C84124   9.944  11.439   1.247  0.5109  0.6404 -0.5428
  624MOL0     C84125  10.013  11.327   1.329  0.3014  0.4826  0.0596
  624MOL0     C84126  10.106  11.374   1.434 -0.2593 -0.3224  1.0715
  624MOL0     C84127  10.217  11.276   1.494  0.3775 -0.6054  1.3624
  624MOL0     C84128  10.323  11.355   1.560  0.4391  0.4224  0.2449
  624MOL0     O84129  10.447  11.278   1.578 -0.1751  1.0281 -0.4204
  624MOL0     C84130  10.549  11.301   1.487  0.1987  0.5661 -0.4204
  624MOL0     C84131  10.523  11.310   1.344 -0.8786  0.4373 -0.7281
  624MOL0     C84132  10.628  11.359   1.257 -0.2888 -0.0335  0.4591
  624MOL0     C84133  10.757  11.377   1.311 -0.3914 -0.4358 -0.9273
  624MOL0     C84134  10.861  11.424   1.223  0.2399  0.3773 -0.8689
  624MOL0     O84135  10.995  11.399   1.266 -0.1877  0.0848  1.0495
  624MOL0     C84136  11.090  11.466   1.193  0.0201  0.1400  0.7065
  624MOL0     C84137  11.203  11.395   1.149  0.5665  0.0723 -0.3781
  624MOL0     C84138  11.319  11.458   1.093  0.2323 -0.4103 -0.0673
  624MOL0     C84139  11.300  11.600   1.053  0.4169  1.6414 -0.8066
  624MOL0     O84140  11.389  11.643   0.971 -0.2710 -0.7603 -0.0200
  624MOL0     C84141  11.338  11.706   0.853 -0.1725 -0.6547  0.5330
  624MOL0     C84142  11.467  11.727   0.764  1.0397 -0.6318 -0.5103
  624MOL0     C84143  11.529  11.603   0.704 -0.0773  0.2924  0.1941
  624MOL0     C84144  11.677  11.637   0.650  0.5098  0.2899  0.2242
  624MOL0     C84145  11.761  11.507   0.631  0.0367 -0.0141 -0.0858
  624MOL0     C84146  11.805  11.480   0.483  0.5804 -0.4006 -0.4992
  624MOL0     C84147  11.892  11.586   0.428  0.5838  0.3609  0.1394
  624MOL0     C84148  11.961  11.521   0.306  0.1847 -0.3985 -0.0589
  624MOL0    Cl84149  11.850  11.446   0.190  0.1856  0.2358  0.0003
  624MOL0     C84150  11.196  11.672   1.101  0.1830  0.5017 -0.0788
  624MOL0     C84151  11.088  11.603   1.175  1.0253  0.4379  0.7208
  624MOL0     O84152  10.829  11.491   1.124 -0.1233 -0.0386  0.2226
  624MOL0     C84153  10.788  11.351   1.443 -0.4375  0.6397 -0.4938
  624MOL0     C84154  10.680  11.317   1.528  0.7240 -0.1479 -0.3577
  624MOL0     N84155   9.809  11.440   1.202 -0.8613  0.3186  0.2368
  624MOL0     N84156   9.797  11.544   1.122 -1.1585  0.0073  0.3746
  624MOL0     C84157  10.176  11.468   0.095  0.0604 -0.0519  0.0328
  624MOL0     C84158  10.157  11.347   0.027  0.2961  0.1100  0.8320
  624MOL0     C84159   9.930  10.985  -0.138  0.3324 -0.0843 -0.6433
  624MOL0     C84160   9.983  10.979  -0.271 -0.2908 -0.4489  0.1627
  624MOL0     C84161   9.948  10.864  -0.347  0.5259  0.3914  0.1706
  624MOL0     C84162   9.879  10.752  -0.289 -0.7042 -0.1852 -0.3735
  624MOL0     O84163   9.855  10.632  -0.358  0.0277  0.2852 -0.6875
  624MOL0     C84164   9.971  10.544  -0.398 -0.2248 -0.7586 -0.2052
  624MOL0     C84165   9.931  10.406  -0.437  0.2978  0.6090 -0.2683
  624MOL0     C84166  10.049  10.306  -0.445 -0.6374 -0.8403  0.4255
  624MOL0     C84167  10.125  10.329  -0.580  0.3548  0.3080  0.7339
  624MOL0     C84168  10.227  10.225  -0.595  0.5264  0.0685  0.6328
  624MOL0     C84169  10.307  10.128  -0.605 -1.0662 -0.0067  0.3443
  624MOL0     C84170   9.839  10.757  -0.158 -0.1576 -0.7884 -0.4077
  624MOL0     C84171   9.876  10.861  -0.081 -0.8620 -0.4393  0.0185
  624MOL0     C84172   9.847  10.845   0.066 -0.0019 -0.6388 -0.8254
  624MOL0     H84173   9.843  11.400  -0.101 -0.1774 -1.3306  0.9954
  624MOL0     H84174   9.880  11.610   0.001  3.2564  1.7268 -1.5567
  624MOL0     H84175   9.948  11.843   0.203 -1.6250 -0.1609 -1.9130
  624MOL0     H84176   9.884  11.685   0.219 -0.2457  0.0126  0.0742
  624MOL0     H84177   9.924  11.799   0.429  2.0372  4.1991 -1.9178
  624MOL0     H84178  10.094  11.790   0.399  0.0321  0.8919  0.8019
  624MOL0     H84179  10.106  11.566   0.447  1.2012  2.4761 -0.3335
  624MOL0     H84180   9.969  11.524   0.346  4.2609  0.8225 -3.0817
  624MOL0     H84181   9.839  11.621   0.560 -0.0438 -1.0682  1.4105
  624MOL0     H84182   9.922  11.459   0.573  0.2350  0.3562  0.2211
  624MOL0     H84183  10.083  11.533   0.686 -0.4081 -0.0047  1.0145
  624MOL0     H84184  10.082  11.703   0.636  1.5237  0.2959  2.1047
  624MOL0     H84185   9.850  11.709   0.784 -1.5383 -1.7335  4.3158
  624MOL0     H84186   9.898  11.556   0.839 -0.7907  1.8331  3.1984
  624MOL0     H84187  10.075  11.799   0.877  0.9548  0.1829  1.2292
  624MOL0     H84188  10.114  11.644   0.935  1.9286  1.8229 -1.2194
  624MOL0     H84189   9.996  11.810   1.105  0.8177  0.2719 -0.4276
  624MOL0     H84190   9.853  11.786   1.018 -0.7380 -0.7238  0.9258
  624MOL0     H84191  10.122  11.545   1.193  0.5828 -3.3076  2.0885
  624MOL0     H84192   9.938  11.256   1.366  0.6114 -0.3116 -0.7905
  624MOL0     H84193  10.072  11.263   1.263 -0.0944 -0.2943  0.4409
  624MOL0     H84194  10.152  11.467   1.397  1.3162 -1.8234 -0.9870
  624MOL0     H84195  10.047  11.416   1.516  2.8812  2.7643  2.0421
  624MOL0     H84196  10.258  11.221   1.409  1.7160 -1.0876  2.2817
  624MOL0     H84197  10.183  11.200   1.567  3.0717 -3.5960 -0.2441
  624MOL0     H84198  10.289  11.380   1.661  2.5461 -1.3168  1.4579
  624MOL0     H84199  10.342  11.448   1.505 -0.0169 -0.6816 -1.8851
  624MOL0     H84200  10.428  11.298   1.293 -2.4060  4.6863  0.7010
  624MOL0     H84201  10.630  11.372   1.149  0.8776 -0.4093  0.4121
  624MOL0     H84202  11.208  11.290   1.176  0.6109  0.2998  0.5308
  624MOL0     H84203  11.405  11.400   1.063  0.5514  1.4138 -3.0412
  624MOL0     H84204  11.269  11.648   0.791  0.6809 -1.1169 -0.0100
  624MOL0     H84205  11.294  11.805   0.870 -3.9667 -1.7480 -1.6349
  624MOL0     H84206  11.453  11.800   0.684  2.3207  3.4345  2.6298
  624MOL0     H84207  11.534  11.783   0.830 -1.8163  1.5058  0.7835
  624MOL0     H84208  11.548  11.542   0.792 -3.4749 -0.3438  0.6009
  624MOL0     H84209  11.465  11.562   0.625 -0.1443  2.5216 -1.0274
  624MOL0     H84210  11.728  11.701   0.724 -1.2993  0.1460  1.6679
  624MOL0     H84211  11.662  11.697   0.560  0.3589 -0.3072 -0.1523
  624MOL0     H84212  11.711  11.423   0.680 -1.3030  0.5898 -0.3596
  624MOL0     H84213  11.854  11.531   0.683  0.0218 -0.5650  0.2006
  624MOL0     H84214  11.847  11.380   0.474 -0.3435 -1.0947  2.1576
  624MOL0     H84215  11.721  11.472   0.413  2.5125 -3.2307 -2.7044
  624MOL0     H84216  11.967  11.623   0.498  1.9800 -0.3034 -0.9682
  624MOL0     H84217  11.830  11.666   0.385 -0.2856 -1.5368 -2.4713
  624MOL0     H84218  12.028  11.588   0.252  1.9546 -3.8237 -2.5133
  624MOL0     H84219  12.019  11.439   0.350 -1.4569 -1.5273  0.0958
  624MOL0     H84220  11.179  11.777   1.080  0.0085  0.4784 -0.0566
  624MOL0     H84221  11.005  11.663   1.211 -0.6214 -1.8498  0.9721
  624MOL0     H84222  10.886  11.369   1.485  0.0246 -3.8148  0.9211
  624MOL0     H84223  10.704  11.325   1.634 -0.5335  2.4078 -0.1831
  624MOL0     H84224  10.267  11.485   0.151 -0.9603  4.1643  0.7586
  624MOL0     H84225  10.223  11.261   0.031 -0.2235 -0.4548 -1.3804
  624MOL0     H84226  10.015  11.059  -0.335 -2.5177 -0.0276 -0.5203
  624MOL0     H84227   9.976  10.872  -0.452  0.3040 -0.6515  0.0223
  624MOL0     H84228  10.043  10.532  -0.317 -0.1118 -0.0024 -0.1913
  624MOL0     H84229  10.031  10.591  -0.476 -1.0872  3.2913  1.3352
  624MOL0     H84230   9.872  10.395  -0.529  0.9121 -3.3893 -0.3923
  624MOL0     H84231   9.858  10.375  -0.362 -1.3480  0.2192 -1.9692
  624MOL0     H84232  10.012  10.203  -0.446  2.4411 -2.0366 -0.0273
  624MOL0     H84233  10.123  10.313  -0.364 -0.3782 -1.9654  0.2898
  624MOL0     H84234  10.065  10.326  -0.671  0.0785 -0.7295  0.9389
  624MOL0     H84235  10.178  10.425  -0.575 -0.1839  0.6058  0.7266
  624MOL0     H84236  10.377  10.050  -0.622 -1.4985  0.3280 -4.1432
  624MOL0     H84237   9.789  10.671  -0.115 -1.1674  0.5650  1.2691
  624MOL0     H84238   9.767  10.912   0.100  2.0715  0.1004  3.1667
  624MOL0     H84239   9.835  10.741   0.100  2.0094 -0.1108  1.7736
  624MOL0     H84240   9.922  10.891   0.130 -0.6470 -1.1001  0.2976
  625MOL0     O84241   3.947   8.833   0.290  0.0492 -0.1311  0.7527
  625MOL0     C84242   4.037   8.904   0.332  0.4596  0.7553  0.2494
  625MOL0     O84243   4.153   8.933   0.264  0.3544 -1.1321 -0.0986
  625MOL0     C84244   4.176   8.883   0.132 -0.1563 -0.2823  0.2275
  625MOL0     C84245   4.300   8.828   0.105 -0.4538 -1.2499  0.1440
  625MOL0     C84246   4.319   8.764  -0.016  0.1313 -0.5761 -1.0951
  625MOL0     C84247   4.229   8.773  -0.123 -0.5043  0.7141  0.1623
  625MOL0     O84248   4.267   8.719  -0.248  0.3995  0.7540  0.2172
  625MOL0     C84249   4.180   8.690  -0.356  0.0098 -0.7695 -1.1320
  625MOL0     C84250   4.167   8.542  -0.375 -0.0262 -0.3881  0.2359
  625MOL0     C84251   4.308   8.477  -0.405 -0.6391 -0.4638  0.6087
  625MOL0     C84252   4.285   8.332  -0.454 -0.5122  0.2332  0.3200
  625MOL0     C84253   4.414   8.265  -0.507  0.6905 -0.7086  1.6614
  625MOL0     C84254   4.382   8.110  -0.543 -0.3708  0.1736 -1.4304
  625MOL0     C84255   4.513   8.044  -0.603  1.8559 -0.3505 -0.5310
  625MOL0     C84256   4.511   8.070  -0.757 -0.0702 -0.6136 -0.4043
  625MOL0     N84257   4.623   8.010  -0.823 -0.7645 -0.2490 -0.3712
  625MOL0     C84258   4.751   7.991  -0.775  0.4472  0.0918 -1.3124
  625MOL0     C84259   4.808   7.919  -0.869 -1.3917  0.4914 -0.3547
  625MOL0     C84260   4.953   7.898  -0.873 -0.3207  0.2940  0.2155
  625MOL0     C84261   5.004   7.784  -0.794 -0.0597 -0.0422 -0.5773
  625MOL0     C84262   4.995   7.652  -0.871  0.2852 -0.4733 -0.3072
  625MOL0     C84263   5.092   7.554  -0.815  0.9378 -0.4836 -0.1280
  625MOL0     O84264   5.079   7.427  -0.866 -0.0643  0.5186  0.2242
  625MOL0     C84265   5.096   7.396  -1.001 -1.0089 -0.5106  0.0764
  625MOL0     C84266   4.991   7.411  -1.100  1.0312 -0.3086 -0.0075
  625MOL0     C84267   5.015   7.384  -1.237 -0.4933 -0.4822 -1.7435
  625MOL0     C84268   5.152   7.351  -1.274  0.0953  0.4167  0.2089
  625MOL0     C84269   5.177   7.304  -1.415  0.5476  0.1814 -0.6833
  625MOL0     O84270   5.304   7.268  -1.453  0.3856 -0.1891 -0.1031
  625MOL0     C84271   5.319   7.234  -1.586  0.7002 -0.0447 -0.1736
  625MOL0     C84272   5.397   7.308  -1.673 -0.4093  1.0986  0.2102
  625MOL0     C84273   5.416   7.275  -1.811 -0.0228 -0.0588 -0.9026
  625MOL0     C84274   5.349   7.168  -1.869  0.7477 -0.5948 -0.0771
  625MOL0     O84275   5.365   7.141  -2.003 -0.2420  0.6000 -0.8189
  625MOL0     C84276   5.496   7.132  -2.047  0.2701 -0.0852 -0.7008
  625MOL0     C84277   5.506   7.003  -2.128 -0.0112  0.6711 -0.2510
  625MOL0     C84278   5.428   6.886  -2.076  0.3291 -0.2412  0.2699
  625MOL0     C84279   5.447   6.770  -2.177  0.5094 -0.6356 -0.1957
  625MOL0     C84280   5.360   6.646  -2.122  0.7140 -0.5013  0.9374
  625MOL0     C84281   5.336   6.541  -2.224 -0.1981 -0.8539  0.4982
  625MOL0     C84282   5.270   6.415  -2.174  0.0157 -0.1135 -1.0494
  625MOL0     C84283   5.338   6.290  -2.226  0.1109 -0.7189  0.7978
  625MOL0    Cl84284   5.513   6.291  -2.161 -0.2456 -0.0770  0.1530
  625MOL0     C84285   5.276   7.084  -1.795 -0.5120  0.3833 -0.1732
  625MOL0     C84286   5.256   7.118  -1.655 -0.8557 -0.3363  0.4942
  625MOL0     O84287   5.080   7.308  -1.487  0.2141 -0.9414  0.0243
  625MOL0     C84288   5.248   7.346  -1.179 -0.2777 -0.5511 -0.2744
  625MOL0     C84289   5.219   7.349  -1.047  0.1995 -1.2278 -0.0320
  625MOL0     N84290   4.720   7.896  -0.973 -0.6583  0.6159 -0.1079
  625MOL0     N84291   4.608   7.956  -0.944 -0.2042  0.6528  0.1142
  625MOL0     C84292   4.112   8.842  -0.102 -0.2239  0.2900 -0.7128
  625MOL0     C84293   4.084   8.894   0.027  0.2585  0.1922  1.2324
  625MOL0     C84294   4.011   8.969   0.463 -0.1778 -0.2022 -0.4101
  625MOL0     C84295   4.112   9.046   0.528 -0.5650 -0.0876  1.2247
  625MOL0     C84296   4.082   9.135   0.635  0.2312 -0.5085  0.1222
  625MOL0     C84297   3.952   9.147   0.684  0.7798  0.3561  0.5770
  625MOL0     O84298   3.943   9.244   0.776  1.2904 -0.4150 -0.2867
  625MOL0     C84299   3.820   9.267   0.851  0.3983  0.8208  0.0288
  625MOL0     C84300   3.832   9.224   1.001 -0.3014 -0.4433  0.6233
  625MOL0     C84301   3.807   9.076   1.016 -1.3608 -0.6860 -1.5795
  625MOL0     C84302   3.661   9.025   1.021  0.7032  0.5606 -0.1264
  625MOL0     C84303   3.565   9.075   0.916 -0.8795  0.0910 -1.1791
  625MOL0     C84304   3.477   9.110   0.839  1.2543 -0.2082 -1.0343
  625MOL0     C84305   3.852   9.064   0.637 -0.6431 -0.6829  0.2024
  625MOL0     C84306   3.879   8.972   0.533 -1.1823  0.2344  0.0770
  625MOL0     C84307   3.757   8.891   0.502  0.0138 -0.4018  0.6053
  625MOL0     H84308   4.373   8.831   0.185 -0.9514  2.3781  0.6456
  625MOL0     H84309   4.416   8.728  -0.051 -0.7683  0.0989 -4.7691
  625MOL0     H84310   4.082   8.737  -0.343 -0.5601 -2.2551  0.3798
  625MOL0     H84311   4.229   8.739  -0.441  2.1878  1.3265  1.1289
  625MOL0     H84312   4.112   8.524  -0.468  3.1022  1.8013 -2.2788
  625MOL0     H84313   4.120   8.500  -0.285 -0.0882  1.6439  1.2041
  625MOL0     H84314   4.380   8.486  -0.324  1.2605  2.6118 -1.2469
  625MOL0     H84315   4.350   8.533  -0.488 -0.3137 -0.9707  0.4260
  625MOL0     H84316   4.234   8.277  -0.374 -0.9489 -0.2879 -0.3007
  625MOL0     H84317   4.211   8.332  -0.534  0.3135  0.9462 -0.4655
  625MOL0     H84318   4.431   8.320  -0.601  0.4532  0.0075  2.0305
  625MOL0     H84319   4.501   8.293  -0.447  0.6596 -2.0155  2.3442
  625MOL0     H84320   4.348   8.070  -0.448 -0.6510  0.5475 -1.3713
  625MOL0     H84321   4.291   8.106  -0.603 -1.8653  0.3721  0.7265
  625MOL0     H84322   4.511   7.935  -0.590 -0.5156 -0.2290  0.3994
  625MOL0     H84323   4.603   8.075  -0.549  1.5695  0.2597 -0.4056
  625MOL0     H84324   4.417   8.041  -0.806 -2.6425  3.2138  1.7884
  625MOL0     H84325   4.521   8.176  -0.783 -1.1397 -0.4163 -0.0694
  625MOL0     H84326   4.799   8.021  -0.682 -2.3494 -1.9387  0.9741
  625MOL0     H84327   4.999   7.887  -0.971  1.0312 -0.0785  0.8770
  625MOL0     H84328   4.997   7.992  -0.840  1.1233  0.9619 -3.2097
  625MOL0     H84329   5.111   7.807  -0.784 -0.3388  1.0749  0.0182
  625MOL0     H84330   4.955   7.774  -0.697 -1.0843 -1.2600 -1.1774
  625MOL0     H84331   5.027   7.675  -0.973  5.4950  3.9791  1.8137
  625MOL0     H84332   4.892   7.614  -0.871 -0.6784  1.9045  0.7987
  625MOL0     H84333   5.072   7.535  -0.709 -1.2630  1.4645 -0.1032
  625MOL0     H84334   5.196   7.585  -0.804  0.8950 -0.8922  1.7498
  625MOL0     H84335   4.895   7.448  -1.065 -0.8682 -1.3348 -3.6712
  625MOL0     H84336   4.927   7.391  -1.300 -1.3327 -1.1856 -0.6735
  625MOL0     H84337   5.435   7.403  -1.635  1.6469  0.6601 -0.5858
  625MOL0     H84338   5.476   7.341  -1.873  0.2915 -1.0403 -1.6724
  625MOL0     H84339   5.521   7.209  -2.121  1.8070  1.3459  1.1998
  625MOL0     H84340   5.571   7.129  -1.967  0.4312  0.9972 -0.8013
  625MOL0     H84341   5.468   7.028  -2.228  1.3931 -1.4381 -1.4002
  625MOL0     H84342   5.613   6.989  -2.147  0.1567  1.3680  0.1795
  625MOL0     H84343   5.450   6.859  -1.973  1.3071 -1.4075 -0.2253
  625MOL0     H84344   5.324   6.921  -2.069  0.2586 -0.7613  3.5316
  625MOL0     H84345   5.552   6.740  -2.174  1.0901  1.3423  0.4394
  625MOL0     H84346   5.420   6.809  -2.275  0.9583 -2.0042 -0.8841
  625MOL0     H84347   5.261   6.676  -2.084  1.2729  0.0605  1.9964
  625MOL0     H84348   5.403   6.601  -2.032  0.9663  3.8234  3.2549
  625MOL0     H84349   5.276   6.574  -2.309 -0.8570 -0.4549  1.1115
  625MOL0     H84350   5.425   6.513  -2.283 -2.2731 -2.3842 -2.1678
  625MOL0     H84351   5.169   6.412  -2.218 -0.2174 -3.0184 -0.5374
  625MOL0     H84352   5.275   6.405  -2.065  1.6993 -0.0549 -1.0943
  625MOL0     H84353   5.291   6.202  -2.182  2.7808 -3.0660 -0.7175
  625MOL0     H84354   5.332   6.283  -2.335  0.4153  0.3635  0.6984
  625MOL0     H84355   5.230   6.999  -1.844 -0.3951  0.0142  0.3426
  625MOL0     H84356   5.189   7.057  -1.596 -1.1193 -2.6537 -2.0003
  625MOL0     H84357   5.352   7.324  -1.200  0.8570  1.9152  2.0772
  625MOL0     H84358   5.296   7.330  -0.973  0.7211 -3.3234 -1.0422
  625MOL0     H84359   4.036   8.846  -0.180 -0.8865 -3.5163 -0.4385
  625MOL0     H84360   3.989   8.940   0.051 -0.8981 -0.8099 -1.1627
  625MOL0     H84361   4.211   9.058   0.487 -0.9786 -0.9242 -0.1089
  625MOL0     H84362   4.159   9.205   0.665  1.2720 -1.6972  0.2837
  625MOL0     H84363   3.735   9.217   0.804  0.0179  2.2366 -0.8452
  625MOL0     H84364   3.804   9.375   0.847  0.6355  0.9725  2.2244
  625MOL0     H84365   3.753   9.272   1.060 -0.3725  0.4489 -0.1676
  625MOL0     H84366   3.931   9.239   1.045 -1.0478  2.5281  1.4855
  625MOL0     H84367   3.865   9.047   1.105 -2.0458  2.6925  0.1408
  625MOL0     H84368   3.851   9.009   0.942 -0.4697 -0.8977 -0.8812
  625MOL0     H84369   3.671   8.916   1.027  1.2593  0.5117 -1.5134
  625MOL0     H84370   3.617   9.042   1.120 -2.5391 -2.5630 -0.8337
  625MOL0     H84371   3.402   9.149   0.773  1.8116  0.4726 -1.2893
  625MOL0     H84372   3.751   9.060   0.677 -1.3605  0.9463 -1.3247
  625MOL0     H84373   3.688   8.928   0.426  1.2581 -4.5980 -3.0125
  625MOL0     H84374   3.787   8.796   0.455 -1.9849 -0.9221  0.2957
  625MOL0     H84375   3.702   8.870   0.594 -0.2182 -1.8485  0.1657
  626MOL0     O84376   3.253   3.544   5.133 -0.6934 -0.3244 -0.2435
  626MOL0     C84377   3.338   3.595   5.065  0.3206 -1.7969 -0.1921
  626MOL0     O84378   3.355   3.725   5.035  0.2554 -0.2263 -0.2220
  626MOL0     C84379   3.279   3.831   5.091 -0.1452 -0.1725  0.3648
  626MOL0     C84380   3.244   3.833   5.222  0.4238  0.0706  0.7615
  626MOL0     C84381   3.153   3.926   5.269 -0.6117 -0.6697  0.6241
  626MOL0     C84382   3.108   4.036   5.200 -0.3560  0.1061  0.3056
  626MOL0     O84383   3.031   4.125   5.251  0.1396 -0.1723  1.0788
  626MOL0     C84384   3.065   4.255   5.230 -0.2631 -0.8605  0.1664
  626MOL0     C84385   3.002   4.344   5.342 -0.0449 -0.3402 -0.1256
  626MOL0     C84386   3.022   4.482   5.294  0.3981 -0.4198  0.0106
  626MOL0     C84387   3.153   4.542   5.344  0.1637 -0.4706 -0.3853
  626MOL0     C84388   3.203   4.670   5.282  0.6608 -0.5572  0.1856
  626MOL0     C84389   3.090   4.757   5.230  0.1280 -0.0668  0.3159
  626MOL0     C84390   3.146   4.881   5.177  1.0585  0.8420 -0.3718
  626MOL0     C84391   3.233   4.960   5.266  0.5827 -1.3506  0.3190
  626MOL0     N84392   3.256   5.094   5.211 -1.8597  0.7170  0.3248
  626MOL0     C84393   3.378   5.136   5.150 -1.1438  0.2358  0.2255
  626MOL0     C84394   3.349   5.267   5.121 -0.4532 -0.1875  1.0752
  626MOL0     C84395   3.436   5.366   5.052  0.4829 -0.2427  0.2545
  626MOL0     C84396   3.548   5.417   5.128 -0.5301  0.7630 -0.8308
  626MOL0     C84397   3.492   5.490   5.251 -0.7141 -0.1213 -0.5478
  626MOL0     C84398   3.597   5.566   5.330  0.1521 -1.0415  1.1546
  626MOL0     O84399   3.556   5.690   5.382 -0.2468 -0.3364 -0.1667
  626MOL0     C84400   3.540   5.800   5.301  0.8418  0.3901 -0.6533
  626MOL0     C84401   3.566   5.800   5.169  0.0118  0.3245 -0.1350
  626MOL0     C84402   3.550   5.916   5.097  0.0408 -0.5977  0.8478
  626MOL0     C84403   3.505   6.038   5.151  0.2363 -0.6668 -0.2185
  626MOL0     C84404   3.515   6.170   5.078 -0.5639  0.1706 -0.2743
  626MOL0     O84405   3.621   6.179   4.990  0.1758  1.0157 -0.0029
  626MOL0     C84406   3.636   6.282   4.897 -0.9631  0.3913  0.4666
  626MOL0     C84407   3.717   6.247   4.794  0.0867  0.3321 -0.0290
  626MOL0     C84408   3.747   6.334   4.684  0.0965 -0.8117  0.8131
  626MOL0     C84409   3.687   6.453   4.671  0.3965  0.3346 -0.7692
  626MOL0     O84410   3.695   6.520   4.554  0.1645  0.2764 -0.6793
  626MOL0     C84411   3.743   6.659   4.565 -0.5066  0.9294  0.9832
  626MOL0     C84412   3.871   6.678   4.644 -0.0188  0.5704 -0.9261
  626MOL0     C84413   3.995   6.608   4.582 -0.9435  0.6754 -0.4778
  626MOL0     C84414   4.113   6.599   4.685  0.6249  0.3076  0.0310
  626MOL0     C84415   4.083   6.488   4.795 -0.0174  0.0269  0.2563
  626MOL0     C84416   4.196   6.468   4.898 -0.0264 -0.3122  0.9158
  626MOL0     C84417   4.249   6.598   4.964  0.2377 -1.1905 -0.3260
  626MOL0     C84418   4.326   6.562   5.091  0.0127 -0.0517 -0.4577
  626MOL0    Cl84419   4.483   6.503   5.065  0.1476 -1.3569 -0.5130
  626MOL0     C84420   3.592   6.489   4.775  0.0898  0.6562 -0.7801
  626MOL0     C84421   3.571   6.399   4.884  0.7993  0.1202 -0.7488
  626MOL0     O84422   3.439   6.254   5.115  1.5809  0.6244 -0.6092
  626MOL0     C84423   3.456   6.029   5.281  0.2099 -0.0827  0.2228
  626MOL0     C84424   3.488   5.915   5.356  0.4048  0.3277 -0.3189
  626MOL0     N84425   3.223   5.302   5.162  0.6355  0.3833  0.3323
  626MOL0     N84426   3.174   5.204   5.227  0.3235 -0.3315 -0.0893
  626MOL0     C84427   3.154   4.042   5.066  1.1253 -0.5323  0.5295
  626MOL0     C84428   3.242   3.946   5.019  0.5567  0.0588  0.2810
  626MOL0     C84429   3.435   3.502   5.001  0.1261  1.0822 -1.1110
  626MOL0     C84430   3.478   3.383   5.080  0.1341  0.4817  1.0858
  626MOL0     C84431   3.561   3.291   5.026 -0.7217 -0.5416  0.6314
  626MOL0     C84432   3.615   3.304   4.902 -0.0496 -0.0595 -0.2158
  626MOL0     O84433   3.703   3.200   4.876 -0.5545 -0.1053  0.1416
  626MOL0     C84434   3.821   3.231   4.795  0.4421 -0.4803 -0.5774
  626MOL0     C84435   3.935   3.277   4.893 -0.6060  0.3047  0.2940
  626MOL0     C84436   4.058   3.312   4.808 -0.2783  0.4950  0.3162
  626MOL0     C84437   4.181   3.264   4.876  0.0886 -0.0367 -0.3891
  626MOL0     C84438   4.218   3.353   4.990  0.6348  0.1893  0.6163
  626MOL0     C84439   4.259   3.415   5.081 -0.9632  0.0031  1.5590
  626MOL0     C84440   3.596   3.422   4.834  0.0353  0.0858  0.3597
  626MOL0     C84441   3.510   3.523   4.881  0.6261  0.5562  0.5340
  626MOL0     C84442   3.482   3.637   4.781  0.5840  0.0989  0.2502
  626MOL0     H84443   3.299   3.765   5.287 -0.1062 -0.7170  0.3975
  626MOL0     H84444   3.128   3.914   5.374  1.6979  3.2787  1.8265
  626MOL0     H84445   3.173   4.275   5.238 -0.6267  2.8636 -2.2433
  626MOL0     H84446   3.027   4.294   5.136  0.7559  0.8050  0.4123
  626MOL0     H84447   3.060   4.334   5.434 -1.4339  1.9367  1.0918
  626MOL0     H84448   2.897   4.316   5.348 -0.8477  1.7361 -2.3726
  626MOL0     H84449   2.942   4.551   5.322  1.5560  1.0596 -0.1941
  626MOL0     H84450   3.021   4.491   5.185 -2.5123  2.7367  0.1319
  626MOL0     H84451   3.137   4.554   5.451  1.0599 -2.5947  0.0334
  626MOL0     H84452   3.236   4.473   5.329  2.3325  1.7861  0.5695
  626MOL0     H84453   3.274   4.720   5.348  1.0555 -1.4119  0.4112
  626MOL0     H84454   3.263   4.629   5.200  2.7862  2.1836  0.2077
  626MOL0     H84455   3.030   4.694   5.163  2.7376 -3.7524  1.1500
  626MOL0     H84456   3.024   4.781   5.314 -0.0666  2.1566 -0.4170
  626MOL0     H84457   3.054   4.939   5.167  1.2448  1.4048  1.0412
  626MOL0     H84458   3.185   4.862   5.076 -1.5869 -1.2894 -1.1157
  626MOL0     H84459   3.181   4.980   5.360 -4.1607  0.9251 -2.3880
  626MOL0     H84460   3.333   4.918   5.279  1.7448  0.2512 -2.6604
  626MOL0     H84461   3.467   5.078   5.127 -1.5042 -0.3475  0.2642
  626MOL0     H84462   3.481   5.320   4.964  0.8715 -0.9097  0.7972
  626MOL0     H84463   3.374   5.455   5.038 -0.7962 -0.4204  3.8437
  626MOL0     H84464   3.623   5.341   5.150 -1.5434 -0.1440 -0.4331
  626MOL0     H84465   3.614   5.478   5.066  0.2028  0.1388 -0.6839
  626MOL0     H84466   3.450   5.417   5.320 -0.0428 -2.3912 -2.3840
  626MOL0     H84467   3.396   5.533   5.220  1.0352  1.7619 -3.9790
  626MOL0     H84468   3.692   5.564   5.276 -1.3643  0.8452 -1.8832
  626MOL0     H84469   3.630   5.503   5.413  1.0535 -0.1372  1.4959
  626MOL0     H84470   3.600   5.710   5.118 -2.7354 -0.2748 -1.1394
  626MOL0     H84471   3.574   5.921   4.992  3.7153 -0.4250  1.5851
  626MOL0     H84472   3.769   6.152   4.792  0.3464  0.4837 -1.0632
  626MOL0     H84473   3.827   6.306   4.616  0.7640  2.2912  0.1831
  626MOL0     H84474   3.761   6.690   4.462 -0.9322 -3.8308 -0.7887
  626MOL0     H84475   3.666   6.716   4.617 -0.7657  1.8687 -0.4035
  626MOL0     H84476   3.897   6.783   4.654  0.2564  0.4648 -0.4908
  626MOL0     H84477   3.860   6.643   4.747  1.9396  1.0845 -0.5038
  626MOL0     H84478   3.979   6.509   4.537 -0.5453  0.3886 -0.0023
  626MOL0     H84479   4.026   6.667   4.495 -0.1000 -1.1816 -1.4909
  626MOL0     H84480   4.122   6.695   4.735 -2.2561 -1.0761  3.5986
  626MOL0     H84481   4.205   6.576   4.628 -0.5477  1.3026 -2.4160
  626MOL0     H84482   4.065   6.392   4.746  0.0754  0.2932 -0.3116
  626MOL0     H84483   3.992   6.516   4.849 -0.3235 -1.0670  0.3247
  626MOL0     H84484   4.144   6.408   4.974 -1.0830 -1.5910 -0.7600
  626MOL0     H84485   4.274   6.414   4.843 -4.3615 -6.1676 -0.4574
  626MOL0     H84486   4.164   6.659   4.995  1.1405 -0.0801  0.0732
  626MOL0     H84487   4.320   6.652   4.899  0.2617 -1.6126 -0.6520
  626MOL0     H84488   4.330   6.649   5.157  0.9797  0.0726 -0.6733
  626MOL0     H84489   4.256   6.497   5.145 -1.0217  0.8154 -0.7193
  626MOL0     H84490   3.545   6.587   4.778 -0.0984  0.7361  5.2061
  626MOL0     H84491   3.510   6.426   4.970  1.1082 -3.7977  0.8826
  626MOL0     H84492   3.422   6.115   5.338  1.7715 -0.3575  1.6676
  626MOL0     H84493   3.461   5.901   5.460 -2.8603 -0.6541 -1.1533
  626MOL0     H84494   3.148   4.139   5.018 -0.3090 -2.0502 -2.6842
  626MOL0     H84495   3.292   3.952   4.923 -0.6143 -1.3584 -0.4695
  626MOL0     H84496   3.446   3.377   5.184  0.5225 -1.4661  1.1395
  626MOL0     H84497   3.574   3.198   5.079  3.1979  1.0437  2.7986
  626MOL0     H84498   3.804   3.309   4.720  2.3393  0.0355 -0.5342
  626MOL0     H84499   3.850   3.145   4.734  1.8193  1.0012 -2.1516
  626MOL0     H84500   3.949   3.183   4.947 -0.9459 -0.6902 -1.2948
  626MOL0     H84501   3.894   3.358   4.954 -3.5549  0.2055 -1.3871
  626MOL0     H84502   4.059   3.418   4.780 -4.3444  0.6246 -0.0638
  626MOL0     H84503   4.056   3.256   4.714  0.5898  1.3739 -0.2431
  626MOL0     H84504   4.167   3.158   4.896  0.0676 -0.4892 -2.5635
  626MOL0     H84505   4.264   3.268   4.805  1.9097  2.9778  1.6693
  626MOL0     H84506   4.307   3.455   5.168  0.9418 -1.6019  1.3036
  626MOL0     H84507   3.656   3.441   4.745  2.1819  2.7055  2.1764
  626MOL0     H84508   3.581   3.646   4.734  0.4213 -1.2044 -0.4074
  626MOL0     H84509   3.414   3.599   4.704 -2.2714 -1.2075  3.2161
  626MOL0     H84510   3.448   3.734   4.819 -2.2600  1.1328 -4.1639
  627MOL0     O84511   9.649   3.038   1.654  0.1023  0.2663 -0.8295
  627MOL0     C84512   9.588   3.052   1.545 -0.3099 -0.1014  0.0782
  627MOL0     O84513   9.582   2.963   1.445  0.3494  0.4626 -0.1303
  627MOL0     C84514   9.645   2.840   1.458  0.1231 -0.2803 -0.0770
  627MOL0     C84515   9.584   2.722   1.416  0.6071 -0.9939  0.1031
  627MOL0     C84516   9.652   2.601   1.426  0.7587 -0.5760 -0.2709
  627MOL0     C84517   9.779   2.593   1.476 -0.0102  1.1044  0.8463
  627MOL0     O84518   9.857   2.476   1.479  0.4181  0.9421 -0.0708
  627MOL0     C84519   9.819   2.360   1.406 -0.0208  0.0915  0.1660
  627MOL0     C84520   9.928   2.243   1.406 -0.1608  0.9837 -0.2812
  627MOL0     C84521  10.058   2.285   1.351  0.4664  0.9607  1.1244
  627MOL0     C84522  10.083   2.192   1.226 -0.3032  0.2662 -0.0208
  627MOL0     C84523  10.211   2.256   1.160  0.8724  0.6007 -0.2703
  627MOL0     C84524  10.213   2.226   1.010  0.3053 -0.6062 -0.0835
  627MOL0     C84525  10.307   2.314   0.938  0.1079 -1.1271  0.4071
  627MOL0     C84526  10.301   2.287   0.785  0.5622  0.4788  0.7561
  627MOL0     N84527  10.411   2.346   0.710  0.4293 -1.1859 -0.3743
  627MOL0     C84528  10.454   2.468   0.728 -0.1924 -0.5718  0.2104
  627MOL0     C84529  10.565   2.472   0.650  0.6189 -0.4351  1.1802
  627MOL0     C84530  10.657   2.589   0.636 -0.3529  0.7111  0.2787
  627MOL0     C84531  10.728   2.655   0.756  0.4581 -0.6456 -0.2426
  627MOL0     C84532  10.864   2.607   0.800 -0.1751 -0.1749 -0.6514
  627MOL0     C84533  10.871   2.459   0.818  0.0335 -0.9702  0.4395
  627MOL0     O84534  10.794   2.416   0.924 -0.2492 -0.1393  0.1988
  627MOL0     C84535  10.827   2.288   0.970  0.3431  0.4385  0.7053
  627MOL0     C84536  10.750   2.256   1.089 -0.0659 -0.4012  0.8581
  627MOL0     C84537  10.757   2.139   1.162  0.1480 -0.0078  1.2428
  627MOL0     C84538  10.839   2.036   1.115 -0.3543 -0.7710  1.0722
  627MOL0     C84539  10.841   1.900   1.184  0.4615  1.2325  0.0033
  627MOL0     O84540  10.767   1.891   1.302  0.1604  0.0522  0.0041
  627MOL0     C84541  10.760   1.774   1.382 -0.5163 -0.3238  1.0352
  627MOL0     C84542  10.644   1.744   1.452 -0.9292 -0.9096  0.0150
  627MOL0     C84543  10.652   1.642   1.551  0.3013 -0.7826  0.8547
  627MOL0     C84544  10.767   1.565   1.569 -0.4470  0.0163 -0.6577
  627MOL0     O84545  10.750   1.455   1.649 -0.8983  0.3940  0.4346
  627MOL0     C84546  10.864   1.363   1.672 -0.0569  0.2092 -0.8139
  627MOL0     C84547  10.845   1.273   1.797  0.5514  0.0414 -0.0191
  627MOL0     C84548  10.704   1.219   1.799  1.2411 -1.1242  0.5632
  627MOL0     C84549  10.701   1.082   1.876  0.4796 -0.0736 -0.3480
  627MOL0     C84550  10.552   1.041   1.888 -0.3894 -0.5796 -0.5678
  627MOL0     C84551  10.524   0.920   1.800  0.4322  0.0885 -0.2589
  627MOL0     C84552  10.367   0.897   1.787 -0.0328 -0.0841 -0.5695
  627MOL0     C84553  10.301   0.874   1.932  0.6419  0.4792 -0.3774
  627MOL0    Cl84554  10.129   0.827   1.910 -0.2784  0.2206 -0.2417
  627MOL0     C84555  10.884   1.590   1.501 -0.6390 -1.0844  0.2239
  627MOL0     C84556  10.882   1.695   1.408 -1.0690 -0.2664  0.8150
  627MOL0     O84557  10.904   1.810   1.134  0.2220 -0.9883 -0.1824
  627MOL0     C84558  10.919   2.060   0.995  0.8648  1.2252  1.8497
  627MOL0     C84559  10.916   2.186   0.933  1.2945 -1.0817 -0.2428
  627MOL0     N84560  10.577   2.361   0.579 -0.1326  0.7906  0.3763
  627MOL0     N84561  10.481   2.283   0.621  0.5606  0.2005  0.6682
  627MOL0     C84562   9.839   2.704   1.521 -0.0468 -0.2822  0.5701
  627MOL0     C84563   9.778   2.826   1.510  0.0233  0.3240  0.1623
  627MOL0     C84564   9.538   3.182   1.495  0.2194 -0.1099 -0.6747
  627MOL0     C84565   9.468   3.187   1.375 -0.4117  1.0350  0.1348
  627MOL0     C84566   9.395   3.296   1.334  0.1574 -0.6306  0.3925
  627MOL0     C84567   9.410   3.413   1.397  0.4002  0.4939 -0.2065
  627MOL0     O84568   9.356   3.520   1.328 -0.4140  0.6202 -0.4188
  627MOL0     C84569   9.444   3.632   1.311 -1.4398  0.4795  0.6976
  627MOL0     C84570   9.543   3.596   1.198 -0.3878 -0.4102 -0.5144
  627MOL0     C84571   9.479   3.571   1.062  0.4655 -0.4713  0.6291
  627MOL0     C84572   9.583   3.555   0.946 -0.3284  0.6828  1.3632
  627MOL0     C84573   9.526   3.463   0.850  0.5473 -0.4749 -0.6215
  627MOL0     C84574   9.467   3.392   0.766 -0.1781 -1.0576  0.5968
  627MOL0     C84575   9.482   3.419   1.513 -0.1441 -0.8958  0.0442
  627MOL0     C84576   9.540   3.304   1.566 -0.8519  0.2653  0.6862
  627MOL0     C84577   9.608   3.312   1.698 -0.5275  0.3126 -0.4336
  627MOL0     H84578   9.492   2.725   1.358  1.3023  0.2345 -0.9975
  627MOL0     H84579   9.593   2.515   1.396  0.9494  0.2681 -3.4744
  627MOL0     H84580   9.723   2.322   1.442 -0.1952 -2.5458 -2.6946
  627MOL0     H84581   9.801   2.394   1.304 -2.1927  1.6197  0.9718
  627MOL0     H84582   9.895   2.152   1.354 -4.4262  1.9913  0.3009
  627MOL0     H84583   9.935   2.223   1.513 -0.9733  2.5167  0.0848
  627MOL0     H84584  10.136   2.271   1.426  0.9027 -0.4004  0.4568
  627MOL0     H84585  10.058   2.386   1.310 -0.2568 -0.4265 -2.7747
  627MOL0     H84586  10.103   2.088   1.256  2.5508  0.4752 -0.9074
  627MOL0     H84587   9.994   2.186   1.163 -0.8070  1.7584  0.5156
  627MOL0     H84588  10.213   2.364   1.179  4.3403  0.4371  1.1026
  627MOL0     H84589  10.296   2.207   1.209 -1.0632 -0.5352  2.1954
  627MOL0     H84590  10.239   2.121   0.997 -1.1504 -1.0630  0.5098
  627MOL0     H84591  10.114   2.251   0.972  0.7000 -1.7577 -1.9690
  627MOL0     H84592  10.409   2.307   0.975 -1.2681 -0.7344  4.7863
  627MOL0     H84593  10.274   2.415   0.964  1.9530 -0.3685 -0.0517
  627MOL0     H84594  10.286   2.182   0.757 -0.6724  1.0138 -0.7596
  627MOL0     H84595  10.203   2.320   0.751  0.6131 -1.4922 -1.6563
  627MOL0     H84596  10.413   2.542   0.796  1.0055  0.4605 -0.1496
  627MOL0     H84597  10.741   2.570   0.568  0.3818  1.2406  1.0229
  627MOL0     H84598  10.591   2.670   0.605  1.6701  2.4500  0.2940
  627MOL0     H84599  10.750   2.759   0.732  0.3944 -1.1345 -2.6869
  627MOL0     H84600  10.662   2.652   0.843  0.3476 -2.0661 -0.3535
  627MOL0     H84601  10.873   2.648   0.901 -2.6155  0.4650 -0.6252
  627MOL0     H84602  10.932   2.642   0.722 -0.8269  3.3622  0.2147
  627MOL0     H84603  10.976   2.447   0.846 -0.7768  0.9520  5.1813
  627MOL0     H84604  10.848   2.404   0.726  3.0245  1.5532 -2.0324
  627MOL0     H84605  10.669   2.317   1.127 -0.3852 -0.6269  0.5509
  627MOL0     H84606  10.719   2.140   1.264 -0.9026 -0.7672  0.8821
  627MOL0     H84607  10.557   1.809   1.442 -0.1630  0.6816  2.7464
  627MOL0     H84608  10.557   1.628   1.602  0.5137 -0.3784  1.3635
  627MOL0     H84609  10.877   1.295   1.588 -1.2218 -0.8408 -0.1778
  627MOL0     H84610  10.947   1.432   1.687 -1.0633  0.8886  2.5599
  627MOL0     H84611  10.925   1.200   1.805  3.1410  2.9060  4.2783
  627MOL0     H84612  10.861   1.340   1.882 -3.1328  0.9336  0.1553
  627MOL0     H84613  10.632   1.295   1.833  1.0177  0.0787 -2.3207
  627MOL0     H84614  10.661   1.189   1.703  0.9841 -3.7321  1.3981
  627MOL0     H84615  10.725   1.099   1.982 -1.7145 -0.5718  0.2761
  627MOL0     H84616  10.766   1.012   1.824  2.2400 -0.4839  2.1880
  627MOL0     H84617  10.483   1.120   1.854  0.8071  0.3386 -0.9612
  627MOL0     H84618  10.536   1.023   1.994  0.0104  0.4839 -0.3118
  627MOL0     H84619  10.562   0.955   1.703  1.4691 -1.1057 -0.3040
  627MOL0     H84620  10.589   0.836   1.825  2.5178  1.5789 -0.3881
  627MOL0     H84621  10.356   0.800   1.737 -0.1968 -0.8535  0.9181
  627MOL0     H84622  10.327   0.977   1.724  1.0722  0.9603  0.0157
  627MOL0     H84623  10.349   0.794   1.989 -0.5726 -0.3602 -0.5088
  627MOL0     H84624  10.300   0.958   2.003  0.8014  0.9094 -0.8768
  627MOL0     H84625  10.977   1.540   1.526  0.3594  0.2453 -0.6608
  627MOL0     H84626  10.971   1.714   1.348 -0.8210  1.3732  1.6494
  627MOL0     H84627  10.976   1.976   0.956  0.7481  2.4503 -1.2333
  627MOL0     H84628  10.967   2.182   0.837  0.6750 -0.7532 -0.5939
  627MOL0     H84629   9.946   2.702   1.540 -0.2532 -0.3840  1.7844
  627MOL0     H84630   9.828   2.912   1.554 -3.4648  1.6286  1.8960
  627MOL0     H84631   9.488   3.111   1.300 -1.3104  2.7141 -1.9106
  627MOL0     H84632   9.358   3.304   1.232  2.2480 -0.2277 -0.3947
  627MOL0     H84633   9.501   3.649   1.402 -0.6607 -1.0780  0.5390
  627MOL0     H84634   9.388   3.720   1.279  0.4459  1.3728 -0.2871
  627MOL0     H84635   9.602   3.508   1.227 -3.4757 -1.7523  2.3016
  627MOL0     H84636   9.608   3.683   1.196 -2.6970  1.4272  0.0282
  627MOL0     H84637   9.417   3.658   1.036  0.1001 -1.2063 -1.1756
  627MOL0     H84638   9.403   3.492   1.058  2.8502 -2.8918  0.6106
  627MOL0     H84639   9.602   3.656   0.909  2.2595 -0.5848 -1.2283
  627MOL0     H84640   9.675   3.513   0.988  0.6166  0.2682 -0.9842
  627MOL0     H84641   9.408   3.336   0.696 -0.9559 -0.4492  0.7555
  627MOL0     H84642   9.503   3.513   1.563  1.3314 -2.0448  1.7141
  627MOL0     H84643   9.704   3.261   1.688 -0.3565 -0.7154  4.3192
  627MOL0     H84644   9.630   3.416   1.724 -0.7288  0.5716 -1.2573
  627MOL0     H84645   9.548   3.262   1.774 -2.2696  3.9420  0.7890
  628MOL0     O84646   6.977   2.099   4.847 -0.5967 -0.6407  0.0917
  628MOL0     C84647   7.047   2.100   4.953 -0.0966  0.3331 -0.4871
  628MOL0     O84648   7.141   2.001   4.978 -0.0163  0.2066 -0.3650
  628MOL0     C84649   7.182   1.904   4.887  0.9037 -0.3352 -0.1508
  628MOL0     C84650   7.178   1.775   4.920 -0.9439  0.1024  0.1403
  628MOL0     C84651   7.200   1.672   4.829  0.3852 -0.1191 -0.3411
  628MOL0     C84652   7.241   1.713   4.699  0.7253  0.1872  0.4220
  628MOL0     O84653   7.251   1.611   4.605 -0.2423  0.0297 -0.1085
  628MOL0     C84654   7.162   1.599   4.496 -0.0059  0.4010  0.1968
  628MOL0     C84655   7.097   1.458   4.501 -0.0045  0.2849 -0.4886
  628MOL0     C84656   7.187   1.349   4.538 -0.8477 -0.1125 -0.3678
  628MOL0     C84657   7.129   1.208   4.531  0.0666 -0.5093  0.6519
  628MOL0     C84658   7.229   1.108   4.589  0.6420 -1.4580 -1.5091
  628MOL0     C84659   7.374   1.122   4.542 -0.9101 -0.6836 -0.3320
  628MOL0     C84660   7.383   1.088   4.401 -0.0577  0.2193  0.1446
  628MOL0     C84661   7.538   1.089   4.364 -0.0853  0.3920  0.4655
  628MOL0     N84662   7.578   1.221   4.326  0.6813  0.7860 -0.8492
  628MOL0     C84663   7.637   1.305   4.408 -0.1625  0.3762 -0.0662
  628MOL0     C84664   7.659   1.415   4.338 -0.1176  1.0109 -0.0988
  628MOL0     C84665   7.713   1.545   4.394  0.4214  1.1284  0.9205
  628MOL0     C84666   7.622   1.624   4.493 -0.3605  0.8093  0.8651
  628MOL0     C84667   7.583   1.764   4.472  0.9744 -0.9873 -0.6218
  628MOL0     C84668   7.515   1.800   4.338 -0.7231  0.4909 -1.1034
  628MOL0     O84669   7.473   1.934   4.356  0.7783  0.7399 -0.6304
  628MOL0     C84670   7.413   2.006   4.256 -0.3574  0.0988 -0.4850
  628MOL0     C84671   7.402   1.965   4.117 -0.3658 -0.3919 -1.0175
  628MOL0     C84672   7.353   2.061   4.026  0.9799  0.1969 -0.3671
  628MOL0     C84673   7.319   2.198   4.063 -0.1907 -0.1992  0.6302
  628MOL0     C84674   7.282   2.299   3.961 -0.1017  0.1411  0.5509
  628MOL0     O84675   7.281   2.262   3.832  0.4788  0.5163 -0.1723
  628MOL0     C84676   7.207   2.328   3.733 -0.4227  0.0930  1.1212
  628MOL0     C84677   7.094   2.412   3.758  1.3216  0.6378 -0.0390
  628MOL0     C84678   7.038   2.493   3.659  0.7651 -0.4202 -0.1626
  628MOL0     C84679   7.081   2.475   3.527 -0.0461  0.2262 -0.4441
  628MOL0     O84680   7.022   2.554   3.429  0.1710  0.2365 -0.2414
  628MOL0     C84681   6.972   2.499   3.302  0.4491  0.5484 -0.1626
  628MOL0     C84682   6.845   2.565   3.240  0.7502 -0.0748 -0.3678
  628MOL0     C84683   6.882   2.673   3.141  0.5407  0.3499 -0.6669
  628MOL0     C84684   6.772   2.776   3.118 -0.3017 -0.1151 -0.1744
  628MOL0     C84685   6.815   2.885   3.018  0.8740 -0.0591 -0.9871
  628MOL0     C84686   6.811   2.825   2.874  0.3875 -0.5753  0.3597
  628MOL0     C84687   6.666   2.808   2.827 -0.4815  0.1757  0.2461
  628MOL0     C84688   6.650   2.818   2.668 -0.0822 -0.3278 -0.4129
  628MOL0    Cl84689   6.657   2.986   2.593 -0.0007 -0.1740 -0.0949
  628MOL0     C84690   7.181   2.378   3.497 -0.6547  0.0346 -0.8129
  628MOL0     C84691   7.247   2.306   3.600  0.5879 -0.2097  0.1138
  628MOL0     O84692   7.264   2.413   3.997 -0.1020  1.2142  0.4785
  628MOL0     C84693   7.328   2.227   4.202 -0.6364 -0.4631  0.1049
  628MOL0     C84694   7.375   2.132   4.299  0.7107  0.0829 -0.5785
  628MOL0     N84695   7.595   1.401   4.217 -0.2527  0.1406 -0.8114
  628MOL0     N84696   7.555   1.281   4.206 -0.3725 -0.6258 -0.1053
  628MOL0     C84697   7.251   1.848   4.664 -0.5110 -0.1933  0.0044
  628MOL0     C84698   7.227   1.952   4.756 -0.2691  0.6268 -0.0005
  628MOL0     C84699   7.008   2.207   5.048 -0.0874 -1.0896 -0.2448
  628MOL0     C84700   7.063   2.195   5.177  0.2849  0.4894 -0.6260
  628MOL0     C84701   7.044   2.296   5.271  0.4002 -0.8180 -1.3090
  628MOL0     C84702   6.958   2.397   5.252  0.0152 -0.2451 -0.0057
  628MOL0     O84703   6.936   2.484   5.358  0.4880  0.3050 -0.2135
  628MOL0     C84704   6.805   2.536   5.372  0.1348 -0.8273  0.2378
  628MOL0     C84705   6.776   2.592   5.517  1.2632  0.4928  1.1182
  628MOL0     C84706   6.894   2.663   5.584  0.7575  0.2543  0.1573
  628MOL0     C84707   6.985   2.572   5.667 -1.0258 -0.0536 -0.1271
  628MOL0     C84708   6.920   2.544   5.800  0.9263 -0.3922  0.4006
  628MOL0     C84709   6.876   2.503   5.906 -0.0948 -0.1105 -0.0698
  628MOL0     C84710   6.898   2.402   5.126 -0.1168  0.1604 -1.3181
  628MOL0     C84711   6.928   2.319   5.021 -0.4096  0.0118  0.1312
  628MOL0     C84712   6.883   2.362   4.882 -0.6431 -1.1899 -1.1042
  628MOL0     H84713   7.164   1.752   5.025  1.1401  1.3056  0.7510
  628MOL0     H84714   7.179   1.569   4.855 -4.1091  1.3816  3.3103
  628MOL0     H84715   7.086   1.676   4.508 -0.6442 -0.1710 -0.0992
  628MOL0     H84716   7.202   1.618   4.396 -0.6649 -0.4058 -0.2293
  628MOL0     H84717   7.052   1.441   4.403  1.9936 -3.4856 -0.9496
  628MOL0     H84718   7.014   1.470   4.571  1.7884  0.7536  1.6963
  628MOL0     H84719   7.223   1.370   4.639  0.3685 -3.7254  0.1019
  628MOL0     H84720   7.273   1.351   4.470  0.5644 -2.4228  1.1979
  628MOL0     H84721   7.031   1.221   4.578  1.8736  2.8477  4.0452
  628MOL0     H84722   7.095   1.191   4.429 -0.9383  1.0426  0.6925
  628MOL0     H84723   7.227   1.127   4.697  3.2960  2.2627 -1.9080
  628MOL0     H84724   7.181   1.012   4.568  0.8014 -2.3697  1.7464
  628MOL0     H84725   7.415   1.218   4.576 -0.6792 -0.8494 -0.1407
  628MOL0     H84726   7.425   1.047   4.603 -1.1175 -1.3392 -0.9525
  628MOL0     H84727   7.326   1.150   4.332  2.2568  0.9657 -1.2196
  628MOL0     H84728   7.352   0.983   4.400  0.9370 -0.0829 -0.0896
  628MOL0     H84729   7.609   1.036   4.428 -2.6988 -1.5788  1.9281
  628MOL0     H84730   7.527   1.011   4.287 -1.1402 -2.7273  3.5237
  628MOL0     H84731   7.657   1.296   4.515  0.3182 -0.6006 -0.2209
  628MOL0     H84732   7.801   1.512   4.450  1.6352 -0.4498 -1.7158
  628MOL0     H84733   7.719   1.604   4.302  1.8578 -1.0787 -0.4878
  628MOL0     H84734   7.533   1.563   4.507  0.1622 -0.5752 -1.3582
  628MOL0     H84735   7.678   1.617   4.586  0.3168  0.4603  0.4411
  628MOL0     H84736   7.679   1.815   4.465  1.2670 -0.8880  2.6716
  628MOL0     H84737   7.515   1.792   4.553  0.8402 -0.2898 -0.9660
  628MOL0     H84738   7.436   1.725   4.327 -0.0999 -0.5489  0.9688
  628MOL0     H84739   7.599   1.803   4.268  0.0165  0.0373 -0.2524
  628MOL0     H84740   7.441   1.866   4.095 -0.8755 -1.0930  1.0310
  628MOL0     H84741   7.344   2.019   3.927  2.3939  1.8794 -1.2690
  628MOL0     H84742   7.037   2.425   3.849  0.5096 -1.5641 -0.1522
  628MOL0     H84743   6.957   2.562   3.681 -0.4624 -1.0453 -2.3835
  628MOL0     H84744   7.040   2.512   3.218  0.0171  1.5810 -0.3703
  628MOL0     H84745   6.966   2.391   3.317  0.6789  0.8022  2.1239
  628MOL0     H84746   6.772   2.495   3.198 -0.3755  0.7388  0.1806
  628MOL0     H84747   6.786   2.612   3.319 -1.1874 -1.5438 -0.8697
  628MOL0     H84748   6.968   2.728   3.179 -0.1665  2.1488 -1.5363
  628MOL0     H84749   6.906   2.622   3.047 -3.3108 -0.5507 -1.3471
  628MOL0     H84750   6.745   2.824   3.213  0.1729 -2.1155  1.0350
  628MOL0     H84751   6.684   2.721   3.082  1.1997 -2.9345  0.1661
  628MOL0     H84752   6.922   2.899   3.035  1.3745 -2.2166 -1.9779
  628MOL0     H84753   6.762   2.980   3.033 -0.5505 -0.9211 -0.3681
  628MOL0     H84754   6.864   2.894   2.809  0.2964 -0.9732 -0.1470
  628MOL0     H84755   6.864   2.729   2.870  1.4492 -0.0296  1.0340
  628MOL0     H84756   6.597   2.876   2.878  0.0097  0.1242  0.9897
  628MOL0     H84757   6.622   2.712   2.856 -3.7546  1.7266  0.8039
  628MOL0     H84758   6.726   2.757   2.618 -0.5188 -1.9073  0.7620
  628MOL0     H84759   6.556   2.773   2.638 -0.3462 -2.0629  2.6064
  628MOL0     H84760   7.214   2.373   3.393 -0.6573 -1.4323 -0.7552
  628MOL0     H84761   7.320   2.227   3.587 -1.6491 -2.6809  1.4996
  628MOL0     H84762   7.313   2.329   4.237  1.7015 -0.1331  0.2597
  628MOL0     H84763   7.385   2.155   4.404  0.2770 -1.3803 -0.1988
  628MOL0     H84764   7.288   1.862   4.563  0.5569 -3.2613 -0.1382
  628MOL0     H84765   7.238   2.058   4.736  4.0632  0.4369  0.3669
  628MOL0     H84766   7.124   2.109   5.204  4.7609  3.1662 -1.0844
  628MOL0     H84767   7.085   2.287   5.371 -0.9334 -4.6514 -0.9110
  628MOL0     H84768   6.728   2.466   5.339  1.3906 -1.4401 -1.5615
  628MOL0     H84769   6.798   2.620   5.301 -2.5045  0.6013  1.9857
  628MOL0     H84770   6.747   2.512   5.586 -1.6412  3.4130  3.6071
  628MOL0     H84771   6.693   2.663   5.512 -0.1609 -1.0846  1.1051
  628MOL0     H84772   6.857   2.739   5.654 -0.1136  0.1500 -0.1870
  628MOL0     H84773   6.952   2.704   5.501  0.8740  0.7256  0.4707
  628MOL0     H84774   7.005   2.475   5.620  1.4540  0.8455 -1.1215
  628MOL0     H84775   7.081   2.621   5.686  0.1589 -1.6296 -1.6018
  628MOL0     H84776   6.821   2.481   5.996 -0.9052  2.6677  0.1953
  628MOL0     H84777   6.841   2.490   5.099  2.9141  2.5751 -0.3427
  628MOL0     H84778   6.808   2.289   4.850 -1.7576  0.1875 -1.7255
  628MOL0     H84779   6.832   2.458   4.883 -0.3991 -0.9753  2.4220
  628MOL0     H84780   6.970   2.369   4.816 -1.3278 -0.3830 -1.9392
  629MOL0     O84781  11.287  11.379   5.505 -0.1111  0.3392  0.3150
  629MOL0     C84782  11.182  11.431   5.468  0.2841 -0.4940  0.0859
  629MOL0     O84783  11.156  11.470   5.339 -0.2613 -0.0030 -0.1720
  629MOL0     C84784  11.250  11.460   5.236 -0.2512 -0.0920  0.2181
  629MOL0     C84785  11.196  11.406   5.119  0.5024 -0.4279  0.5214
  629MOL0     C84786  11.284  11.416   5.015  0.8938 -1.5544 -0.2944
  629MOL0     C84787  11.412  11.467   5.010 -0.1235 -0.9672 -0.5221
  629MOL0     O84788  11.504  11.470   4.900 -0.7081  0.4932  0.2096
  629MOL0     C84789  11.463  11.393   4.780 -0.1979  0.3307 -0.6314
  629MOL0     C84790  11.568  11.403   4.664 -0.4962 -0.3151 -0.1543
  629MOL0     C84791  11.717  11.412   4.690  0.1096 -0.5631  0.7524
  629MOL0     C84792  11.802  11.446   4.570 -0.5803  0.7092 -0.1694
  629MOL0     C84793  11.946  11.440   4.610 -0.6751 -0.5948  0.5680
  629MOL0     C84794  12.027  11.550   4.540 -0.4465  0.5983  1.3324
  629MOL0     C84795  12.174  11.561   4.585  0.1941  0.1820  0.0888
  629MOL0     C84796  12.265  11.446   4.544 -0.2624 -0.5046  0.0839
  629MOL0     N84797  12.396  11.443   4.617 -0.7311  0.3131  0.2461
  629MOL0     C84798  12.413  11.397   4.744  0.0289  0.5065 -0.5207
  629MOL0     C84799  12.542  11.424   4.780 -0.1522  0.5024  0.5161
  629MOL0     C84800  12.596  11.397   4.919  1.4141 -0.0601  0.3329
  629MOL0     C84801  12.520  11.466   5.029 -0.2256  0.0950 -0.0934
  629MOL0     C84802  12.504  11.616   5.011  0.8755 -0.0158 -0.5023
  629MOL0     C84803  12.642  11.688   4.992 -0.3705  0.4618  0.2629
  629MOL0     O84804  12.732  11.655   5.112 -0.9768  0.5036  0.5287
  629MOL0     C84805  12.826  11.752   5.127 -0.5948 -0.5216 -0.0851
  629MOL0     C84806  12.951  11.748   5.058  0.6841  0.3641  0.9960
  629MOL0     C84807  13.042  11.851   5.046 -0.0736 -0.6481  1.0668
  629MOL0     C84808  13.027  11.964   5.133 -1.0430 -1.3133 -0.7013
  629MOL0     C84809  13.130  12.081   5.134 -0.2542  1.1148  0.3907
  629MOL0     O84810  13.142  12.159   5.243 -0.1216 -0.3840  0.7689
  629MOL0     C84811  13.223  12.271   5.241 -0.0104 -1.0411  0.0331
  629MOL0     C84812  13.360  12.267   5.202 -0.0948 -0.1997  0.1107
  629MOL0     C84813  13.435  12.381   5.196 -0.1906  0.1886 -0.1272
  629MOL0     C84814  13.381  12.501   5.251  0.6247 -0.9288 -0.5114
  629MOL0     O84815  13.458  12.617   5.254  0.2772  0.3229  0.2029
  629MOL0     C84816  13.504  12.652   5.120  0.6670 -0.7605 -1.2208
  629MOL0     C84817  13.589  12.776   5.130  0.0281 -0.1414  0.3639
  629MOL0     C84818  13.604  12.840   4.998 -0.1935 -0.9568  0.3227
  629MOL0     C84819  13.719  12.952   5.005  0.1481 -0.4331 -0.4371
  629MOL0     C84820  13.764  13.028   4.883 -0.2509  1.1146 -0.3745
  629MOL0     C84821  13.660  13.108   4.808 -0.3448 -0.3642  0.9749
  629MOL0     C84822  13.739  13.172   4.692 -0.0560 -0.1622 -0.8997
  629MOL0     C84823  13.665  13.288   4.610 -0.0161 -0.0263  0.2901
  629MOL0    Cl84824  13.584  13.412   4.713 -0.3400 -0.8064  0.0645
  629MOL0     C84825  13.249  12.505   5.290  0.4535  0.3423  0.9987
  629MOL0     C84826  13.176  12.393   5.284 -0.3533  0.2219 -1.0648
  629MOL0     O84827  13.203  12.082   5.038  0.9026  0.5449  0.6814
  629MOL0     C84828  12.919  11.963   5.226  0.2730  0.3337 -0.7902
  629MOL0     C84829  12.818  11.861   5.212  0.8341  0.4917  0.3057
  629MOL0     N84830  12.603  11.468   4.665  0.1323 -0.1509  0.7476
  629MOL0     N84831  12.512  11.488   4.571 -0.9369 -1.4122  0.4065
  629MOL0     C84832  11.456  11.523   5.126 -0.5610 -0.1714  0.8386
  629MOL0     C84833  11.379  11.508   5.240 -0.4639  0.5195 -0.3600
  629MOL0     C84834  11.077  11.469   5.565 -0.2645  0.6837  0.3269
  629MOL0     C84835  10.975  11.551   5.518  0.3536 -0.4260  0.1842
  629MOL0     C84836  10.883  11.592   5.609  0.1975  0.2370  0.3435
  629MOL0     C84837  10.878  11.554   5.744 -0.3334  0.2543 -0.5535
  629MOL0     O84838  10.765  11.594   5.812  0.2078 -0.2970 -0.3678
  629MOL0     C84839  10.740  11.524   5.930  0.7627  0.6419  0.2038
  629MOL0     C84840  10.671  11.391   5.893 -0.9848 -0.0402  0.1536
  629MOL0     C84841  10.530  11.414   5.824 -0.8114 -0.1932  0.1600
  629MOL0     C84842  10.431  11.300   5.831  0.6339  1.0571  0.4050
  629MOL0     C84843  10.402  11.240   5.959 -0.9719  0.0616  0.4777
  629MOL0     C84844  10.397  11.204   6.075 -0.0892 -0.7389 -0.6725
  629MOL0     C84845  10.978  11.465   5.790 -0.2451  0.2327  0.1922
  629MOL0     C84846  11.081  11.429   5.706  0.6698  0.6579 -0.1844
  629MOL0     C84847  11.171  11.310   5.756 -0.0667  0.1717 -0.7599
  629MOL0     H84848  11.096  11.363   5.117 -1.8783  4.4847 -1.4428
  629MOL0     H84849  11.244  11.398   4.915 -1.0429 -3.4234  0.7370
  629MOL0     H84850  11.462  11.287   4.809  1.5895  0.7614  1.2362
  629MOL0     H84851  11.363  11.422   4.747  0.0141  0.8443 -0.8324
  629MOL0     H84852  11.545  11.487   4.597 -1.1566  0.3421  0.8575
  629MOL0     H84853  11.558  11.308   4.612  1.7081 -2.2771  2.7144
  629MOL0     H84854  11.747  11.312   4.721 -2.0467 -1.8030 -0.8869
  629MOL0     H84855  11.723  11.490   4.766 -2.2715  1.7182 -1.1847
  629MOL0     H84856  11.786  11.375   4.488 -0.2152 -2.6380  2.4115
  629MOL0     H84857  11.765  11.540   4.528 -0.3046  0.2695 -1.4619
  629MOL0     H84858  11.952  11.470   4.715  1.9910  2.0218 -0.1891
  629MOL0     H84859  11.990  11.341   4.598  0.8335  0.1434 -0.3188
  629MOL0     H84860  12.030  11.548   4.431 -1.5332  3.2495  1.1760
  629MOL0     H84861  11.986  11.648   4.564 -1.2350  0.7234 -0.4015
  629MOL0     H84862  12.179  11.595   4.689 -2.2997  2.8012 -0.5416
  629MOL0     H84863  12.214  11.646   4.530  0.9247  0.0401  0.3757
  629MOL0     H84864  12.219  11.348   4.560  0.5069 -1.0135 -0.7803
  629MOL0     H84865  12.288  11.458   4.438 -0.0075  2.7918  0.4011
  629MOL0     H84866  12.338  11.364   4.816 -0.5412  3.6773  0.5114
  629MOL0     H84867  12.583  11.290   4.933 -1.0974 -0.3556 -2.9805
  629MOL0     H84868  12.703  11.423   4.915  2.1872 -2.5639  2.3911
  629MOL0     H84869  12.424  11.415   5.040  0.7264 -2.7320 -3.2179
  629MOL0     H84870  12.564  11.450   5.128 -1.9688  1.5696  0.9708
  629MOL0     H84871  12.443  11.644   5.097 -0.7696 -0.5643 -1.4598
  629MOL0     H84872  12.438  11.634   4.926  0.1532  4.7536  0.7576
  629MOL0     H84873  12.623  11.795   4.995  0.9139  0.6915  1.1299
  629MOL0     H84874  12.684  11.675   4.892  1.2391  1.1495  0.8070
  629MOL0     H84875  12.959  11.671   4.982 -1.9075  0.0259  0.9640
  629MOL0     H84876  13.131  11.853   4.984 -1.6262 -2.4071 -1.4125
  629MOL0     H84877  13.392  12.175   5.154 -5.2353 -2.2318 -0.0660
  629MOL0     H84878  13.535  12.374   5.154 -0.8243 -0.1417 -1.6416
  629MOL0     H84879  13.571  12.571   5.088  1.4950 -0.1920 -0.9533
  629MOL0     H84880  13.429  12.670   5.042 -0.7152 -2.4473 -0.3661
  629MOL0     H84881  13.547  12.858   5.190 -0.9288  1.0068 -1.7627
  629MOL0     H84882  13.687  12.749   5.169  1.3465  2.0094 -1.2176
  629MOL0     H84883  13.618  12.761   4.923 -1.3446  3.5121 -5.3745
  629MOL0     H84884  13.504  12.876   4.973 -1.9688 -4.1838  2.1931
  629MOL0     H84885  13.806  12.898   5.043  1.2510  1.9827  0.6178
  629MOL0     H84886  13.700  13.025   5.084  2.9484  0.6760 -0.7042
  629MOL0     H84887  13.797  12.952   4.811  0.1900 -0.2212  1.1777
  629MOL0     H84888  13.838  13.105   4.905  1.4576 -0.9030  1.2392
  629MOL0     H84889  13.577  13.051   4.768  2.3306 -3.8558 -0.0890
  629MOL0     H84890  13.637  13.176   4.891  1.8914 -1.4742  2.6326
  629MOL0     H84891  13.786  13.107   4.618 -1.2431  1.4614 -3.2105
  629MOL0     H84892  13.827  13.214   4.742 -0.5465 -2.4360  2.1511
  629MOL0     H84893  13.719  13.344   4.534 -0.2836 -1.0864 -0.7154
  629MOL0     H84894  13.594  13.228   4.553  0.1074  1.5856 -1.6488
  629MOL0     H84895  13.199  12.595   5.325  0.5517  1.6380 -1.9666
  629MOL0     H84896  13.074  12.392   5.320  0.1085 -0.2814  0.3078
  629MOL0     H84897  12.905  12.036   5.305 -2.5958  0.5248 -1.3514
  629MOL0     H84898  12.723  11.879   5.262 -1.1599 -0.4694 -2.8186
  629MOL0     H84899  11.542  11.589   5.126 -0.8329  0.3140  3.9199
  629MOL0     H84900  11.422  11.543   5.334 -1.6381  1.2576 -0.0747
  629MOL0     H84901  10.985  11.583   5.414  1.0527 -3.2244 -0.7022
  629MOL0     H84902  10.797  11.649   5.573 -0.5856 -2.7009 -2.9882
  629MOL0     H84903  10.662  11.574   5.988 -0.8838  2.3629 -3.2341
  629MOL0     H84904  10.823  11.513   6.001 -0.5139 -2.1585  1.4235
  629MOL0     H84905  10.654  11.331   5.983 -2.5734 -0.0495 -0.1338
  629MOL0     H84906  10.746  11.338   5.834 -0.2171  3.7006 -2.5957
  629MOL0     H84907  10.539  11.456   5.724 -0.2883  2.3502  1.2103
  629MOL0     H84908  10.474  11.489   5.879 -3.2501 -1.2164 -0.7910
  629MOL0     H84909  10.337  11.339   5.790 -0.5093  1.1554  2.9458
  629MOL0     H84910  10.457  11.219   5.762 -0.0895 -0.8106  2.2098
  629MOL0     H84911  10.385  11.168   6.176 -1.8715 -1.1805 -1.0082
  629MOL0     H84912  10.976  11.432   5.894 -0.5809  0.7425  0.3553
  629MOL0     H84913  11.134  11.291   5.858  0.2757  0.6759 -0.5335
  629MOL0     H84914  11.154  11.222   5.694  0.3139  0.0984 -0.7634
  629MOL0     H84915  11.278  11.331   5.765  0.3000 -1.6358 -0.6354
  630MOL0     O84916   8.905   6.384   4.114 -0.6371  0.1074 -1.2059
  630MOL0     C84917   8.969   6.431   4.017 -0.1201 -0.0134  1.0454
  630MOL0     O84918   8.899   6.456   3.897  0.5794 -0.2282  0.4392
  630MOL0     C84919   8.776   6.405   3.893 -0.8614  0.5279 -0.5221
  630MOL0     C84920   8.670   6.472   3.944  0.3750  1.0313 -0.8356
  630MOL0     C84921   8.537   6.409   3.925 -1.0171 -0.2158 -0.2031
  630MOL0     C84922   8.519   6.280   3.878  0.2608  0.4376 -0.5436
  630MOL0     O84923   8.384   6.231   3.860  0.1486 -0.5401 -0.2223
  630MOL0     C84924   8.288   6.319   3.798 -0.3902  0.5768  0.3520
  630MOL0     C84925   8.189   6.248   3.703  0.1367 -0.2900  0.2309
  630MOL0     C84926   8.268   6.219   3.564 -0.6246  0.7065 -0.2341
  630MOL0     C84927   8.172   6.212   3.442 -0.6753  0.0411 -0.7107
  630MOL0     C84928   8.246   6.199   3.308  0.2845 -0.0160  0.9272
  630MOL0     C84929   8.137   6.239   3.189 -1.0589 -0.0386 -0.1958
  630MOL0     C84930   8.109   6.379   3.179 -1.2725 -0.3753  0.1844
  630MOL0     C84931   8.045   6.431   3.053  0.4428  0.7825  0.4476
  630MOL0     N84932   7.907   6.372   3.040  0.2735 -0.1171  0.8840
  630MOL0     C84933   7.782   6.432   3.066 -0.5324  0.0920 -0.6232
  630MOL0     C84934   7.686   6.349   3.022  0.0307  0.6008 -0.2826
  630MOL0     C84935   7.540   6.347   3.065  0.4663 -0.6112  0.2345
  630MOL0     C84936   7.447   6.310   2.943  0.2261 -0.0196  1.4159
  630MOL0     C84937   7.296   6.337   2.970  0.1134  0.0893 -0.4293
  630MOL0     C84938   7.244   6.295   3.112  0.7053 -0.8455  0.8145
  630MOL0     O84939   7.278   6.394   3.216  0.0194  0.8265  0.2256
  630MOL0     C84940   7.240   6.364   3.343 -0.4008 -0.3684 -0.0033
  630MOL0     C84941   7.179   6.247   3.388  0.3972 -0.6316  0.0324
  630MOL0     C84942   7.128   6.232   3.516 -0.9014  0.8053 -0.7995
  630MOL0     C84943   7.153   6.332   3.612  0.1557 -0.2829 -0.6817
  630MOL0     C84944   7.124   6.302   3.753 -0.2065 -1.0639  0.2026
  630MOL0     O84945   7.184   6.383   3.840  0.7689 -1.0813 -0.0679
  630MOL0     C84946   7.204   6.332   3.960 -1.5483  0.3538 -0.1554
  630MOL0     C84947   7.118   6.350   4.065 -0.5045  0.3634 -0.9222
  630MOL0     C84948   7.139   6.293   4.189 -0.0178  0.8576 -0.6218
  630MOL0     C84949   7.251   6.223   4.220  0.0246  0.6856  0.3325
  630MOL0     O84950   7.273   6.162   4.343  0.6107 -0.3942  0.7484
  630MOL0     C84951   7.150   6.097   4.392  0.1813 -0.3149  0.2039
  630MOL0     C84952   7.214   5.974   4.447  0.5354  0.1498 -0.2259
  630MOL0     C84953   7.197   5.874   4.333 -0.3849 -0.0387 -0.9965
  630MOL0     C84954   7.286   5.899   4.214  0.1958  0.0162  0.8155
  630MOL0     C84955   7.317   5.767   4.140  0.4458 -0.1824 -0.5511
  630MOL0     C84956   7.387   5.800   4.012  0.7590 -0.0744  0.2911
  630MOL0     C84957   7.427   5.677   3.929  0.5113  0.7030  0.4038
  630MOL0     C84958   7.496   5.730   3.801 -0.0372 -0.4979  0.3037
  630MOL0    Cl84959   7.674   5.751   3.853  0.4421 -0.2384  0.1015
  630MOL0     C84960   7.356   6.209   4.127 -0.0722 -0.5142 -0.1639
  630MOL0     C84961   7.328   6.266   3.997 -0.2965  0.5900  0.0530
  630MOL0     O84962   7.046   6.215   3.783 -0.4640 -0.3177 -0.2623
  630MOL0     C84963   7.224   6.450   3.571  0.0394 -0.5146 -0.3782
  630MOL0     C84964   7.262   6.466   3.439  0.4883 -0.4949 -0.0059
  630MOL0     N84965   7.748   6.251   2.948 -0.3245 -0.1975 -1.2845
  630MOL0     N84966   7.879   6.259   2.960 -0.4585  0.1288 -0.5739
  630MOL0     C84967   8.631   6.214   3.827 -0.6105 -0.2907 -1.0312
  630MOL0     C84968   8.754   6.281   3.839  0.2081 -0.1380  0.4832
  630MOL0     C84969   9.112   6.480   4.034 -0.4907  0.0389 -0.2991
  630MOL0     C84970   9.157   6.574   3.941 -0.9279  0.1651  0.7634
  630MOL0     C84971   9.292   6.610   3.922  0.3829  0.2955  0.4505
  630MOL0     C84972   9.382   6.542   4.012 -0.2201 -0.1381  0.1789
  630MOL0     O84973   9.522   6.556   4.010 -0.2327 -0.1620 -0.4869
  630MOL0     C84974   9.586   6.613   3.901  0.2377 -0.4517  0.5659
  630MOL0     C84975   9.722   6.556   3.870 -0.4775  0.1268 -0.4019
  630MOL0     C84976   9.744   6.410   3.920 -0.3878 -0.3685  0.3171
  630MOL0     C84977   9.684   6.290   3.827 -0.1925  0.0227  0.6052
  630MOL0     C84978   9.538   6.304   3.817  0.5337  0.1538  0.9044
  630MOL0     C84979   9.417   6.313   3.795  0.4745 -0.9277  1.2835
  630MOL0     C84980   9.337   6.458   4.112  0.0339 -0.0956  0.0699
  630MOL0     C84981   9.201   6.417   4.122 -0.6442  0.0504  0.2514
  630MOL0     C84982   9.165   6.321   4.234  0.3478  0.8219 -0.5867
  630MOL0     H84983   8.672   6.573   3.983  0.6793  0.8903 -0.4761
  630MOL0     H84984   8.448   6.463   3.953 -1.7729 -0.9804 -1.0403
  630MOL0     H84985   8.223   6.369   3.871 -0.4429  0.0355  0.6812
  630MOL0     H84986   8.343   6.390   3.736 -0.5527 -0.1410 -0.6436
  630MOL0     H84987   8.110   6.322   3.683 -0.1555 -0.8224 -0.6277
  630MOL0     H84988   8.147   6.154   3.740  1.2631  0.0354  2.5221
  630MOL0     H84989   8.325   6.128   3.583 -1.2094  0.1480 -1.0878
  630MOL0     H84990   8.340   6.300   3.545  3.1666 -2.2717  0.2835
  630MOL0     H84991   8.105   6.126   3.445  0.9508 -1.3320 -1.8061
  630MOL0     H84992   8.108   6.299   3.459  0.1038  0.2143  1.7235
  630MOL0     H84993   8.331   6.268   3.298 -1.5434  2.1199 -1.1795
  630MOL0     H84994   8.290   6.100   3.299 -1.1738 -0.6078 -0.0659
  630MOL0     H84995   8.169   6.203   3.091 -2.2905  4.4008 -2.5320
  630MOL0     H84996   8.047   6.183   3.215 -2.2997  1.1522 -1.6975
  630MOL0     H84997   8.202   6.436   3.184 -1.5861  0.0688  1.1700
  630MOL0     H84998   8.050   6.410   3.266  1.2860  2.6569  1.0222
  630MOL0     H84999   8.042   6.539   3.063  3.3362  0.7795  2.4997
  630MOL0     H85000   8.104   6.394   2.968  2.2192  0.2573  1.8581
  630MOL0     H85001   7.770   6.520   3.129  2.7621  0.5947 -0.5000
  630MOL0     H85002   7.515   6.282   3.149 -1.6297  0.0626  0.1829
  630MOL0     H85003   7.509   6.450   3.088 -1.1564 -1.1541  0.5888
  630MOL0     H85004   7.476   6.357   2.848 -0.0930 -3.0473 -0.3104
  630MOL0     H85005   7.470   6.207   2.914  2.4482  0.9052 -0.4756
  630MOL0     H85006   7.227   6.287   2.902  0.8786 -1.2302 -0.2733
  630MOL0     H85007   7.286   6.444   2.946  2.0232  0.7306  1.3325
  630MOL0     H85008   7.285   6.197   3.137  0.7061 -1.4936 -1.4968
  630MOL0     H85009   7.136   6.276   3.111  0.5002  0.1816 -1.4094
  630MOL0     H85010   7.150   6.179   3.309  0.3980 -1.3114  0.6091
  630MOL0     H85011   7.074   6.144   3.549  2.2310 -0.0811  2.5724
  630MOL0     H85012   7.035   6.420   4.052 -0.1114  1.2200  0.8396
  630MOL0     H85013   7.057   6.304   4.260 -0.6388 -1.3194 -0.9177
  630MOL0     H85014   7.100   6.162   4.465  1.0075  0.5439  0.0258
  630MOL0     H85015   7.073   6.072   4.319 -1.4738  0.2854  1.6855
  630MOL0     H85016   7.320   5.977   4.474  0.5317  1.8394 -0.2767
  630MOL0     H85017   7.158   5.942   4.535  1.7991 -1.6845 -0.0444
  630MOL0     H85018   7.241   5.784   4.377  3.6381  3.0922  2.2384
  630MOL0     H85019   7.093   5.860   4.300  0.3655 -2.5649 -2.5908
  630MOL0     H85020   7.380   5.953   4.233  1.1194 -0.7430 -1.2816
  630MOL0     H85021   7.228   5.966   4.150 -0.5355 -1.5821 -0.2405
  630MOL0     H85022   7.222   5.714   4.125 -1.4614  2.0706  2.2891
  630MOL0     H85023   7.389   5.709   4.198 -1.4240 -0.5700  1.5207
  630MOL0     H85024   7.315   5.853   3.949  1.7879  1.0268  0.0026
  630MOL0     H85025   7.469   5.869   4.035  0.4423  1.9362 -3.7082
  630MOL0     H85026   7.343   5.617   3.893  0.3273  2.3302 -2.1317
  630MOL0     H85027   7.499   5.622   3.991 -0.1335 -3.1474 -1.9233
  630MOL0     H85028   7.476   5.664   3.716  0.8087 -0.0934 -0.2173
  630MOL0     H85029   7.456   5.821   3.755 -0.3804 -2.2097 -3.1739
  630MOL0     H85030   7.452   6.164   4.150  1.2214  2.9008  1.7348
  630MOL0     H85031   7.408   6.268   3.924 -0.7888  2.9297 -0.4935
  630MOL0     H85032   7.254   6.536   3.629  0.9919 -1.2263  0.2162
  630MOL0     H85033   7.283   6.568   3.409 -1.4739  0.3789  1.3527
  630MOL0     H85034   8.620   6.115   3.784  2.4692 -2.0447  1.6516
  630MOL0     H85035   8.852   6.241   3.813  0.9343  0.7817  1.6661
  630MOL0     H85036   9.080   6.623   3.882 -1.2397  0.3751  1.3405
  630MOL0     H85037   9.311   6.672   3.835  1.7653  1.1144  1.2914
  630MOL0     H85038   9.597   6.718   3.929  0.7628 -0.5567  0.7620
  630MOL0     H85039   9.520   6.605   3.813 -0.0138 -2.3401  0.8749
  630MOL0     H85040   9.798   6.629   3.900 -0.2471 -0.9738  1.9004
  630MOL0     H85041   9.720   6.551   3.760 -1.8512  1.2267 -0.4593
  630MOL0     H85042   9.710   6.409   4.024  1.2764  0.5264  0.9053
  630MOL0     H85043   9.853   6.406   3.926 -0.4375 -1.7775  0.6992
  630MOL0     H85044   9.720   6.304   3.724 -0.9205 -2.2818 -0.0150
  630MOL0     H85045   9.718   6.196   3.872  3.3891  1.1710  0.6664
  630MOL0     H85046   9.311   6.325   3.807  0.6657  1.6666  0.9481
  630MOL0     H85047   9.408   6.417   4.183 -1.9313 -2.8524  0.6020
  630MOL0     H85048   9.113   6.372   4.315  3.2770  1.1583  1.2474
  630MOL0     H85049   9.112   6.232   4.198 -2.6907  2.5147 -0.6098
  630MOL0     H85050   9.261   6.297   4.282  1.3984  0.5849 -2.6796
  631MOL0     O85051   9.498   6.822   1.854  1.0235 -0.7759  0.8064
  631MOL0     C85052   9.559   6.841   1.750 -0.4723  0.5022 -0.1510
  631MOL0     O85053   9.694   6.872   1.739 -0.4525 -0.6764  0.1331
  631MOL0     C85054   9.781   6.828   1.836 -0.3871  1.2098  0.1261
  631MOL0     C85055   9.761   6.754   1.960 -0.1175  0.0990 -0.0310
  631MOL0     C85056   9.856   6.747   2.057 -0.0882  0.0661  0.1350
  631MOL0     C85057   9.988   6.798   2.031 -0.1508 -1.0393 -0.5534
  631MOL0     O85058  10.073   6.815   2.137  1.0151  0.6173 -0.8497
  631MOL0     C85059  10.213   6.787   2.107  0.3509 -1.7015 -0.4474
  631MOL0     C85060  10.228   6.636   2.092  0.5148  0.0227  0.1601
  631MOL0     C85061  10.203   6.557   2.228  0.6031 -0.7696 -0.8527
  631MOL0     C85062  10.110   6.438   2.229 -0.0838  0.1002 -0.7700
  631MOL0     C85063  10.062   6.390   2.363 -0.2656 -0.2004 -0.0206
  631MOL0     C85064   9.985   6.258   2.358 -0.2947 -0.0817  0.5741
  631MOL0     C85065   9.985   6.197   2.502 -0.5530  0.5509 -0.0589
  631MOL0     C85066   9.904   6.277   2.607 -0.3453  0.2732  0.1904
  631MOL0     N85067   9.854   6.196   2.721  0.2047 -0.4531 -0.6043
  631MOL0     C85068   9.924   6.176   2.838 -0.1453 -0.8436 -0.8729
  631MOL0     C85069   9.828   6.112   2.920 -0.2218 -0.4742  0.3592
  631MOL0     C85070   9.836   6.081   3.069  0.1722 -0.2347 -0.0090
  631MOL0     C85071   9.762   5.950   3.115  0.6947  0.0020  1.5763
  631MOL0     C85072   9.780   5.920   3.256  0.4993 -0.5113 -0.8845
  631MOL0     C85073   9.724   5.786   3.297  1.1682  0.1362  0.0970
  631MOL0     O85074   9.730   5.787   3.443  0.2697  0.3161 -0.0954
  631MOL0     C85075   9.620   5.755   3.516  0.1535 -0.0811 -0.3599
  631MOL0     C85076   9.606   5.829   3.635 -0.3129  0.1600  0.2008
  631MOL0     C85077   9.495   5.788   3.716 -0.2111 -0.4092 -0.8861
  631MOL0     C85078   9.397   5.710   3.673  0.4092  0.3118 -0.0406
  631MOL0     C85079   9.274   5.674   3.749  0.2946  0.8637 -0.9352
  631MOL0     O85080   9.161   5.633   3.684  0.1846 -0.0154 -0.0672
  631MOL0     C85081   9.033   5.588   3.742 -0.1845  0.7734  0.7477
  631MOL0     C85082   9.031   5.527   3.872 -0.4007  0.2885  0.1695
  631MOL0     C85083   8.910   5.489   3.927  0.1183 -0.4741  0.0703
  631MOL0     C85084   8.789   5.486   3.846  0.2451  0.4657  0.6896
  631MOL0     O85085   8.663   5.456   3.886  0.1870  0.4490 -1.1816
  631MOL0     C85086   8.637   5.409   4.020  0.6842 -0.5696  0.2808
  631MOL0     C85087   8.499   5.350   4.051  0.5765 -0.6332 -0.7849
  631MOL0     C85088   8.495   5.285   4.190  0.0021  0.6313 -0.6943
  631MOL0     C85089   8.361   5.223   4.220  0.1497 -0.0521 -0.1450
  631MOL0     C85090   8.347   5.067   4.186  0.3380  0.1316 -0.6194
  631MOL0     C85091   8.383   4.986   4.308 -0.6123 -0.5386  0.8398
  631MOL0     C85092   8.373   4.837   4.271  0.2642 -0.6094  0.0565
  631MOL0     C85093   8.424   4.752   4.389  0.4361 -0.1594  0.4056
  631MOL0    Cl85094   8.371   4.575   4.379  0.0141  0.2680  0.0429
  631MOL0     C85095   8.800   5.550   3.722  0.4186 -0.8126 -0.0754
  631MOL0     C85096   8.915   5.601   3.670 -0.4582  0.4551 -0.5412
  631MOL0     O85097   9.290   5.681   3.872  0.0470 -0.7085  0.0033
  631MOL0     C85098   9.400   5.651   3.550  0.1497 -0.0350  0.9196
  631MOL0     C85099   9.515   5.673   3.469  0.1660  0.6468 -0.9723
  631MOL0     N85100   9.720   6.091   2.841  1.1914  0.4944 -0.5059
  631MOL0     N85101   9.742   6.131   2.725 -0.4506  0.4634  0.2342
  631MOL0     C85102  10.010   6.850   1.903  0.2969  0.0165  0.8657
  631MOL0     C85103   9.912   6.862   1.812 -0.7335  0.1949  1.2633
  631MOL0     C85104   9.477   6.850   1.619 -0.7429  0.3816  0.3363
  631MOL0     C85105   9.551   6.860   1.496 -0.3095 -0.8025 -0.0753
  631MOL0     C85106   9.488   6.852   1.373 -0.5650 -0.7734  0.0275
  631MOL0     C85107   9.348   6.837   1.357 -0.3184 -0.3325 -0.3359
  631MOL0     O85108   9.306   6.817   1.228 -0.5669  0.1599  0.4824
  631MOL0     C85109   9.169   6.765   1.229  0.0629  0.0446  0.1493
  631MOL0     C85110   9.111   6.758   1.089 -0.7936 -0.2078 -0.5669
  631MOL0     C85111   9.113   6.903   1.027 -0.3430  0.8674  0.0285
  631MOL0     C85112   9.081   6.901   0.877  0.6165  0.1814  0.5341
  631MOL0     C85113   9.038   7.035   0.842  0.1715  0.3231 -0.7336
  631MOL0     C85114   9.002   7.153   0.847  0.6537 -0.2792  0.7620
  631MOL0     C85115   9.266   6.842   1.479 -0.1094 -0.0734  0.0514
  631MOL0     C85116   9.327   6.849   1.610  0.0297  0.1672 -0.1736
  631MOL0     C85117   9.232   6.816   1.731  0.2900 -0.8891  0.1234
  631MOL0     H85118   9.665   6.705   1.974 -0.5715  1.1582  0.6434
  631MOL0     H85119   9.834   6.712   2.158 -4.7373  1.9845  0.0366
  631MOL0     H85120  10.248   6.850   2.024  1.8893 -1.1801  0.5351
  631MOL0     H85121  10.281   6.826   2.184 -0.4969  1.8930 -1.3200
  631MOL0     H85122  10.325   6.608   2.051  1.0902  0.1318  1.4172
  631MOL0     H85123  10.164   6.598   2.012  2.8265 -4.6190  0.2247
  631MOL0     H85124  10.174   6.632   2.302  0.6342 -2.1589  0.6369
  631MOL0     H85125  10.303   6.524   2.259  1.0351  1.4295  0.2613
  631MOL0     H85126  10.025   6.463   2.165 -1.7556  0.0579  1.3261
  631MOL0     H85127  10.168   6.359   2.180  1.6421 -1.0179  2.7697
  631MOL0     H85128  10.143   6.360   2.431 -0.4197 -3.2071 -1.0388
  631MOL0     H85129  10.015   6.473   2.417 -1.7521 -1.1180  0.1375
  631MOL0     H85130   9.879   6.275   2.337 -0.6629  2.4723  3.7187
  631MOL0     H85131  10.018   6.188   2.281  3.3257 -1.7363  3.3434
  631MOL0     H85132  10.089   6.171   2.526 -1.0498 -0.0237  1.6532
  631MOL0     H85133   9.942   6.097   2.494  0.7009 -0.4593  3.5685
  631MOL0     H85134   9.970   6.362   2.624  4.0505 -2.8049  0.2767
  631MOL0     H85135   9.815   6.308   2.551  1.5322  1.8987 -2.0506
  631MOL0     H85136  10.019   6.221   2.866  1.7852 -3.6277 -2.4407
  631MOL0     H85137   9.945   6.080   3.084  0.2626  1.3578 -0.3493
  631MOL0     H85138   9.794   6.162   3.129  1.0104 -1.4476  2.3800
  631MOL0     H85139   9.656   5.967   3.098  0.6248  0.3022  2.2542
  631MOL0     H85140   9.797   5.866   3.054 -1.7843  1.2053 -1.8315
  631MOL0     H85141   9.732   5.998   3.316  0.9177 -0.0879 -1.0937
  631MOL0     H85142   9.888   5.922   3.272  0.0207 -0.0718  3.1456
  631MOL0     H85143   9.780   5.701   3.257  0.1684 -1.2492  1.5497
  631MOL0     H85144   9.622   5.775   3.259  0.6327  0.6656  1.3534
  631MOL0     H85145   9.670   5.914   3.659 -0.5971  1.2734 -2.6803
  631MOL0     H85146   9.483   5.838   3.811  0.2066 -0.4883 -0.7912
  631MOL0     H85147   9.123   5.517   3.928 -0.4161 -3.8165 -0.2037
  631MOL0     H85148   8.912   5.459   4.031 -0.7351 -0.7901  0.0041
  631MOL0     H85149   8.706   5.325   4.034  0.4745 -0.6339  0.9339
  631MOL0     H85150   8.662   5.497   4.079 -0.0656  2.2429 -3.2138
  631MOL0     H85151   8.417   5.423   4.051 -0.5999 -1.8335 -3.2946
  631MOL0     H85152   8.465   5.281   3.974  1.8154  0.4101 -2.3147
  631MOL0     H85153   8.570   5.208   4.211 -0.5927  0.3659  0.5492
  631MOL0     H85154   8.521   5.353   4.271 -0.7149 -1.6065  1.5529
  631MOL0     H85155   8.290   5.288   4.169 -0.6839  0.4154  1.5536
  631MOL0     H85156   8.345   5.237   4.327 -0.4496 -1.5473 -0.0060
  631MOL0     H85157   8.399   5.035   4.095  1.8615 -1.4787  0.7438
  631MOL0     H85158   8.247   5.031   4.162 -0.6117  0.9353  1.8619
  631MOL0     H85159   8.486   5.013   4.333 -0.9055  1.1532  0.2871
  631MOL0     H85160   8.311   5.014   4.385  3.7177  4.1593  3.8331
  631MOL0     H85161   8.430   4.802   4.185  0.2632 -2.5447  0.7824
  631MOL0     H85162   8.266   4.818   4.258 -0.3058 -0.4786  3.4453
  631MOL0     H85163   8.533   4.746   4.389  0.5063  0.7175 -0.7612
  631MOL0     H85164   8.392   4.804   4.480  1.6058  0.7417  0.3251
  631MOL0     H85165   8.716   5.557   3.654  0.7667 -1.2413 -0.5603
  631MOL0     H85166   8.915   5.652   3.574  2.7057 -1.9970 -2.0318
  631MOL0     H85167   9.324   5.583   3.513  2.3654 -2.4327  0.5494
  631MOL0     H85168   9.518   5.622   3.373 -0.5497 -2.1269  0.3683
  631MOL0     H85169  10.107   6.862   1.856 -0.3464  2.3297  0.0356
  631MOL0     H85170   9.924   6.894   1.709  0.7145 -2.5923  0.4608
  631MOL0     H85171   9.659   6.862   1.488 -0.4145  0.0748 -1.7627
  631MOL0     H85172   9.546   6.826   1.285 -0.9335 -1.3068 -0.0595
  631MOL0     H85173   9.104   6.839   1.278  1.7832  2.8007 -1.5263
  631MOL0     H85174   9.160   6.664   1.270 -0.5178 -1.9359 -4.3428
  631MOL0     H85175   9.017   6.703   1.095  0.8866 -3.4061 -1.0888
  631MOL0     H85176   9.175   6.685   1.038 -0.6321 -2.0309  2.0321
  631MOL0     H85177   9.194   6.972   1.052 -1.3712  0.9207  3.7481
  631MOL0     H85178   9.032   6.957   1.076 -1.0250 -0.7077  0.7009
  631MOL0     H85179   9.158   6.863   0.809  0.4026  1.2771 -0.3464
  631MOL0     H85180   9.001   6.827   0.865  0.6176  0.1329  0.8199
  631MOL0     H85181   8.950   7.246   0.833 -1.7887 -1.6761 -0.0785
  631MOL0     H85182   9.159   6.834   1.462  0.0893  1.2938 -2.3402
  631MOL0     H85183   9.250   6.714   1.768  1.1593 -0.8195 -0.0858
  631MOL0     H85184   9.239   6.882   1.818  1.7039  0.9027 -1.2780
  631MOL0     H85185   9.126   6.816   1.704 -0.0567 -2.7387  1.2564
  632MOL0     O85186   4.361   1.316  10.478 -0.9157  0.4824 -0.2533
  632MOL0     C85187   4.429   1.356  10.576 -0.1151  0.1270 -0.1308
  632MOL0     O85188   4.439   1.483  10.623  0.3735 -0.6267  0.5538
  632MOL0     C85189   4.359   1.580  10.565 -0.3785  0.4175 -1.0204
  632MOL0     C85190   4.410   1.646  10.461  0.0023  0.2619 -0.4077
  632MOL0     C85191   4.331   1.747  10.400 -0.4690  0.6494 -0.3341
  632MOL0     C85192   4.205   1.778  10.447  0.1961  1.5836 -0.3302
  632MOL0     O85193   4.142   1.882  10.384 -0.1415 -0.3258  0.3241
  632MOL0     C85194   4.008   1.905  10.390  0.8932  0.7791  0.4973
  632MOL0     C85195   3.924   1.798  10.325  0.4009  0.2852  0.4740
  632MOL0     C85196   3.775   1.838  10.301  0.7405 -0.8647  0.4837
  632MOL0     C85197   3.681   1.796  10.411  0.0708 -0.0820 -0.6186
  632MOL0     C85198   3.562   1.895  10.431  0.7800 -0.6090  0.1614
  632MOL0     C85199   3.475   1.944  10.318 -0.1289  0.7069  0.2836
  632MOL0     C85200   3.392   2.068  10.348 -0.1575 -0.1360  0.7351
  632MOL0     C85201   3.284   2.030  10.459  0.1099 -0.2073  0.5354
  632MOL0     N85202   3.197   2.145  10.476  0.6258  1.1852 -0.5023
  632MOL0     C85203   3.209   2.237  10.580  0.6805 -0.2574 -0.4891
  632MOL0     C85204   3.121   2.340  10.550  0.0506 -0.5328 -0.3468
  632MOL0     C85205   3.093   2.461  10.632 -0.2243  0.0138 -0.3702
  632MOL0     C85206   3.222   2.541  10.666 -0.4892 -0.3807 -0.0236
  632MOL0     C85207   3.200   2.698  10.680 -0.7906  0.4957  0.1702
  632MOL0     C85208   3.332   2.756  10.739  1.3404 -0.2527 -1.0316
  632MOL0     O85209   3.354   2.712  10.873  0.1320 -0.2083  0.1813
  632MOL0     C85210   3.470   2.758  10.943 -0.4512  0.2293  0.4879
  632MOL0     C85211   3.509   2.889  10.961 -0.7150 -0.0564  0.8176
  632MOL0     C85212   3.610   2.918  11.059 -0.4019  1.1108 -0.8061
  632MOL0     C85213   3.679   2.813  11.128 -0.3416 -0.2767 -0.2293
  632MOL0     C85214   3.785   2.847  11.226  0.5445  0.6454  0.8561
  632MOL0     O85215   3.887   2.763  11.260  0.2565  0.0358 -0.0637
  632MOL0     C85216   3.989   2.794  11.338 -1.1088  0.8860  0.0686
  632MOL0     C85217   4.085   2.882  11.294 -0.6129  1.1466  1.0626
  632MOL0     C85218   4.178   2.929  11.385  0.8787 -0.0571  0.3965
  632MOL0     C85219   4.188   2.873  11.508 -0.8860 -0.0528  0.0192
  632MOL0     O85220   4.288   2.917  11.590  1.0172  0.5108  0.4502
  632MOL0     C85221   4.238   2.961  11.719 -0.2947 -0.5314  0.0628
  632MOL0     C85222   4.225   3.116  11.745 -0.0504  0.1366  0.2462
  632MOL0     C85223   4.166   3.161  11.888 -0.5138  0.2665  0.0438
  632MOL0     C85224   4.126   3.310  11.891  0.3399  0.1235 -0.4095
  632MOL0     C85225   4.083   3.350  12.037  0.3305  0.0467 -0.1941
  632MOL0     C85226   3.985   3.455  12.034  0.1136 -0.4995  0.9619
  632MOL0     C85227   3.977   3.514  12.176  0.1003  0.1521  0.5864
  632MOL0     C85228   3.852   3.603  12.193  0.0722  0.4261 -0.9449
  632MOL0    Cl85229   3.861   3.670  12.362  0.8841 -0.5881 -0.2280
  632MOL0     C85230   4.115   2.758  11.531 -0.7261 -0.8474  0.0930
  632MOL0     C85231   4.008   2.724  11.462  0.0421 -0.1676 -0.7143
  632MOL0     O85232   3.770   2.961  11.266 -0.4058  0.2229 -0.5324
  632MOL0     C85233   3.638   2.680  11.106  0.0402  0.4585 -0.0458
  632MOL0     C85234   3.534   2.661  11.018 -0.2487 -0.7803 -0.4171
  632MOL0     N85235   3.041   2.298  10.442 -0.4849 -0.1119 -0.3793
  632MOL0     N85236   3.083   2.178  10.397 -0.1638 -0.4796  0.1340
  632MOL0     C85237   4.152   1.696  10.555 -0.8763 -0.7931 -0.9532
  632MOL0     C85238   4.225   1.598  10.616  0.5784  0.0465 -0.6958
  632MOL0     C85239   4.501   1.255  10.652 -0.5893  0.3993 -0.6256
  632MOL0     C85240   4.504   1.265  10.791  0.0271 -0.1341 -0.4310
  632MOL0     C85241   4.569   1.169  10.866 -0.4580  0.7675 -0.3067
  632MOL0     C85242   4.632   1.054  10.811 -0.8651  0.1143 -0.6197
  632MOL0     O85243   4.688   0.961  10.890  0.4821  0.2753 -0.5569
  632MOL0     C85244   4.707   0.823  10.850  0.2489  0.0444  0.4941
  632MOL0     C85245   4.572   0.748  10.855 -1.0395 -1.0929  0.6179
  632MOL0     C85246   4.533   0.714  10.999 -0.2394 -0.6514 -1.3019
  632MOL0     C85247   4.425   0.606  11.003 -0.0523  1.1848 -0.1753
  632MOL0     C85248   4.484   0.471  10.987 -0.6420 -0.4758 -1.1490
  632MOL0     C85249   4.537   0.362  10.979 -0.9502  0.8262  0.3365
  632MOL0     C85250   4.647   1.058  10.673  0.3619  0.4566  0.0329
  632MOL0     C85251   4.583   1.156  10.593 -0.0850  1.0711 -0.1327
  632MOL0     C85252   4.613   1.154  10.446 -0.2911  0.3786  0.2535
  632MOL0     H85253   4.515   1.636  10.435  1.1888  2.4483  2.8317
  632MOL0     H85254   4.360   1.794  10.307  4.0992  2.0653  1.4854
  632MOL0     H85255   3.966   1.930  10.488  1.9168  4.3128  0.1719
  632MOL0     H85256   4.004   1.988  10.319  3.0803 -0.7500 -1.5368
  632MOL0     H85257   3.927   1.701  10.375  1.6162  0.1018  0.0790
  632MOL0     H85258   3.963   1.777  10.225  0.9128  0.6741  0.5826
  632MOL0     H85259   3.750   1.792  10.205 -0.3695 -3.9241  2.1213
  632MOL0     H85260   3.776   1.944  10.273 -2.7354 -1.5156 -2.9155
  632MOL0     H85261   3.648   1.698  10.375  1.5044 -0.1332 -1.8893
  632MOL0     H85262   3.728   1.785  10.509 -0.1634 -1.7942 -0.6711
  632MOL0     H85263   3.502   1.865  10.517  1.2584 -0.9165  0.3954
  632MOL0     H85264   3.618   1.984  10.461 -0.0361  0.8797 -2.4625
  632MOL0     H85265   3.543   1.973  10.237 -0.8974  2.3156  0.1922
  632MOL0     H85266   3.416   1.864  10.274 -0.2942  1.6664 -1.3154
  632MOL0     H85267   3.333   2.081  10.257 -1.0848  0.5642  1.4045
  632MOL0     H85268   3.450   2.159  10.366 -0.6525  0.9673 -2.5447
  632MOL0     H85269   3.230   1.938  10.434  1.4632 -0.4637 -1.8968
  632MOL0     H85270   3.329   2.020  10.558 -1.6976 -2.0684  1.2330
  632MOL0     H85271   3.282   2.236  10.660 -1.8685  2.8200  2.1577
  632MOL0     H85272   3.035   2.527  10.566 -0.1815 -0.0109 -0.4334
  632MOL0     H85273   3.025   2.446  10.717 -1.8785  0.1912 -1.5938
  632MOL0     H85274   3.263   2.513  10.763  1.8048 -0.7189 -1.0150
  632MOL0     H85275   3.291   2.517  10.584  2.7368 -0.6478  2.5516
  632MOL0     H85276   3.115   2.714  10.748 -1.8303 -2.4723 -0.2730
  632MOL0     H85277   3.182   2.734  10.577 -1.4477 -2.4936 -0.8450
  632MOL0     H85278   3.334   2.865  10.738 -0.3434 -0.1235  1.1604
  632MOL0     H85279   3.413   2.724  10.672 -0.2930 -3.7076 -1.5880
  632MOL0     H85280   3.469   2.971  10.902 -2.3587  0.2942  2.3294
  632MOL0     H85281   3.643   3.022  11.060  5.4089 -0.3665 -1.5825
  632MOL0     H85282   4.092   2.920  11.192  2.9558  2.3616  1.6082
  632MOL0     H85283   4.252   3.001  11.349 -0.1110 -0.7093 -3.2905
  632MOL0     H85284   4.150   2.907  11.755 -1.3296 -0.6312 -2.3991
  632MOL0     H85285   4.326   2.933  11.778  1.5827  0.0169 -2.3319
  632MOL0     H85286   4.322   3.167  11.747  0.5349 -0.9783  2.0671
  632MOL0     H85287   4.149   3.161  11.679  0.1034  2.1975  1.3843
  632MOL0     H85288   4.081   3.103  11.924  0.5920 -1.6631 -0.3304
  632MOL0     H85289   4.251   3.132  11.951  1.7985  1.0166 -2.5193
  632MOL0     H85290   4.048   3.331  11.818  1.7259  3.3029 -1.1205
  632MOL0     H85291   4.207   3.374  11.856 -0.9661  0.7259 -2.4355
  632MOL0     H85292   4.167   3.372  12.103  0.5230 -0.5747 -0.2260
  632MOL0     H85293   4.033   3.263  12.078 -0.2878  1.4990  2.3316
  632MOL0     H85294   3.993   3.529  11.954 -2.5413 -1.2705 -0.1003
  632MOL0     H85295   3.892   3.402  12.010  0.4011 -0.6557  0.1566
  632MOL0     H85296   4.066   3.574  12.196 -1.2237  2.7831 -0.7915
  632MOL0     H85297   3.968   3.428  12.243 -1.7811 -1.5412 -1.6133
  632MOL0     H85298   3.854   3.688  12.125  1.9848  2.0868  1.0512
  632MOL0     H85299   3.755   3.555  12.174 -0.8919  2.9326 -2.8546
  632MOL0     H85300   4.140   2.711  11.626 -0.7310 -1.0255  0.0060
  632MOL0     H85301   3.939   2.652  11.504 -0.4849  2.5381  3.7494
  632MOL0     H85302   3.694   2.609  11.165 -0.5798 -0.8932 -1.0210
  632MOL0     H85303   3.496   2.559  11.024  1.1630 -1.2545  1.8329
  632MOL0     H85304   4.055   1.709  10.603 -0.2244 -1.4277  0.6042
  632MOL0     H85305   4.174   1.533  10.686  0.4707  1.2922  0.4333
  632MOL0     H85306   4.432   1.325  10.845 -0.6329 -0.2459 -1.1693
  632MOL0     H85307   4.557   1.170  10.973  0.2394  0.9343 -0.2238
  632MOL0     H85308   4.770   0.779  10.928 -0.6882 -0.1605  1.1549
  632MOL0     H85309   4.746   0.799  10.751 -0.2266  0.0630  0.2979
  632MOL0     H85310   4.596   0.651  10.811 -0.1500 -0.1837 -1.0175
  632MOL0     H85311   4.492   0.805  10.807 -0.4308  0.5782  1.5018
  632MOL0     H85312   4.485   0.806  11.036 -1.6285 -1.0667 -1.9987
  632MOL0     H85313   4.612   0.694  11.072  1.6812 -0.3135 -3.2148
  632MOL0     H85314   4.362   0.614  11.092 -1.9178  4.8661 -1.6386
  632MOL0     H85315   4.359   0.618  10.917 -1.0922 -2.0954  0.0232
  632MOL0     H85316   4.571   0.261  10.964 -0.5446  1.1612 -1.1049
  632MOL0     H85317   4.699   0.976  10.624 -1.4864 -0.7322 -0.0365
  632MOL0     H85318   4.551   1.077  10.398  2.0467 -0.0376 -2.3783
  632MOL0     H85319   4.588   1.252  10.404 -0.2346  1.4588  2.6111
  632MOL0     H85320   4.717   1.133  10.421  0.5896 -0.6111  4.1337
  633MOL0     O85321   7.943  10.840   8.540 -0.2693 -0.3891  0.3873
  633MOL0     C85322   7.884  10.739   8.584 -0.4378 -0.6068 -1.3352
  633MOL0     O85323   7.801  10.664   8.510  0.0787  0.0519 -0.0839
  633MOL0     C85324   7.751  10.717   8.392  0.2289 -0.3460 -1.4051
  633MOL0     C85325   7.633  10.805   8.409 -0.3148 -0.1598 -0.4689
  633MOL0     C85326   7.579  10.880   8.300  1.0451  0.8806 -0.4305
  633MOL0     C85327   7.634  10.849   8.172 -0.2560 -0.0389  0.4565
  633MOL0     O85328   7.619  10.916   8.053  0.0864 -0.8292 -0.4106
  633MOL0     C85329   7.531  11.030   8.035 -0.1830 -0.3429 -0.0368
  633MOL0     C85330   7.512  11.081   7.896 -0.9138 -0.2069  0.6586
  633MOL0     C85331   7.430  11.206   7.903  1.3515 -0.1391 -0.4014
  633MOL0     C85332   7.381  11.252   7.767  0.2969  0.1082 -1.0143
  633MOL0     C85333   7.284  11.372   7.768 -0.3372 -0.0377 -0.2685
  633MOL0     C85334   7.198  11.388   7.648 -0.1055  0.0865 -0.1797
  633MOL0     C85335   7.069  11.478   7.682 -0.3778 -1.3307  0.0653
  633MOL0     C85336   7.106  11.625   7.665  0.4933  0.3620 -0.4599
  633MOL0     N85337   6.988  11.710   7.639  0.4270 -0.3992 -0.1367
  633MOL0     C85338   6.986  11.802   7.548 -0.1534 -0.6471  0.6572
  633MOL0     C85339   6.892  11.898   7.577  0.7650  0.5642  0.3147
  633MOL0     C85340   6.862  12.032   7.532 -0.2847 -0.7517 -0.5327
  633MOL0     C85341   6.781  12.035   7.403  0.4462  0.2559 -0.0406
  633MOL0     C85342   6.754  12.183   7.342  0.4937  0.3593 -0.8184
  633MOL0     C85343   6.626  12.185   7.264 -0.0124  0.1676  0.4128
  633MOL0     O85344   6.659  12.241   7.133 -0.8355  0.4064  0.1050
  633MOL0     C85345   6.583  12.342   7.078 -1.0177 -0.2352 -0.3313
  633MOL0     C85346   6.453  12.386   7.121  0.6215  0.6015  0.1090
  633MOL0     C85347   6.386  12.496   7.054 -0.5968 -0.7887  0.4011
  633MOL0     C85348   6.451  12.572   6.956  0.1265  0.0378 -0.4844
  633MOL0     C85349   6.402  12.699   6.906  0.8502  0.2759 -0.6546
  633MOL0     O85350   6.274  12.734   6.952  0.1248  0.0568 -0.0500
  633MOL0     C85351   6.225  12.862   6.938 -0.1644 -0.2475 -0.2137
  633MOL0     C85352   6.091  12.877   6.908  0.0417 -0.7386  0.4019
  633MOL0     C85353   6.045  13.009   6.908 -1.0891 -1.2267  0.5335
  633MOL0     C85354   6.118  13.131   6.910  0.1880  0.6712 -0.0599
  633MOL0     O85355   6.043  13.250   6.912  0.2559 -0.0109 -0.2958
  633MOL0     C85356   6.121  13.372   6.910 -0.1042 -0.6080  0.1927
  633MOL0     C85357   6.023  13.498   6.936 -0.2742  0.9791 -0.0073
  633MOL0     C85358   6.115  13.620   6.926 -0.9522 -0.6143 -0.0273
  633MOL0     C85359   6.132  13.656   6.780 -0.0353 -0.5718 -0.2028
  633MOL0     C85360   6.172  13.803   6.769  0.0817  0.0277 -1.5289
  633MOL0     C85361   6.210  13.827   6.621 -0.3856  0.3047 -0.3671
  633MOL0     C85362   6.220  13.977   6.596 -0.0221  0.6591 -0.0750
  633MOL0     C85363   6.228  13.999   6.450  0.0822 -0.6105 -0.3810
  633MOL0    Cl85364   6.071  14.023   6.379 -0.0610  0.3861 -0.0041
  633MOL0     C85365   6.252  13.110   6.941  0.2927  1.0693 -0.6032
  633MOL0     C85366   6.304  12.981   6.955 -0.2957  0.8357  0.4998
  633MOL0     O85367   6.483  12.764   6.850  0.7079 -0.2458 -0.6468
  633MOL0     C85368   6.590  12.529   6.925  0.0753 -0.9018 -0.1283
  633MOL0     C85369   6.656  12.422   6.985  0.8082 -0.1746  0.9443
  633MOL0     N85370   6.824  11.853   7.689  0.7586  0.4593  0.2858
  633MOL0     N85371   6.883  11.743   7.726  0.0155  0.7382  0.6056
  633MOL0     C85372   7.745  10.755   8.162 -0.5200 -0.0931 -0.3230
  633MOL0     C85373   7.810  10.693   8.271  0.4258 -0.2023 -0.2596
  633MOL0     C85374   7.918  10.696   8.725 -0.1123 -0.2307 -0.0101
  633MOL0     C85375   8.018  10.605   8.724  0.6743  0.1297 -1.3009
  633MOL0     C85376   8.070  10.546   8.845 -0.0289 -0.8595 -0.1127
  633MOL0     C85377   8.021  10.597   8.969 -0.3276  0.3319  0.8567
  633MOL0     O85378   8.058  10.531   9.077  0.7767  0.3592 -0.2878
  633MOL0     C85379   8.022  10.590   9.198  0.1516  0.4250  0.3244
  633MOL0     C85380   8.083  10.519   9.326 -1.6843 -0.4026 -0.0715
  633MOL0     C85381   8.239  10.550   9.339  0.5339 -0.1729 -0.9238
  633MOL0     C85382   8.283  10.531   9.481 -0.0561 -0.4609  0.0318
  633MOL0     C85383   8.258  10.645   9.574 -0.5479 -0.3297  0.9349
  633MOL0     C85384   8.244  10.750   9.639  0.3191 -0.0992  0.7160
  633MOL0     C85385   7.915  10.695   8.967  0.3791  0.5230  0.3091
  633MOL0     C85386   7.868  10.745   8.845  0.4032 -0.3430  0.2323
  633MOL0     C85387   7.756  10.845   8.849  0.2149 -0.9388  0.4964
  633MOL0     H85388   7.596  10.808   8.511  0.3855 -4.9906  0.1717
  633MOL0     H85389   7.507  10.961   8.306 -0.4878 -0.4287 -0.4236
  633MOL0     H85390   7.429  11.006   8.066 -1.2773  3.3830 -0.2744
  633MOL0     H85391   7.557  11.120   8.092  0.5780  0.0080 -0.9227
  633MOL0     H85392   7.465  10.999   7.841  0.2830 -1.8674  2.0048
  633MOL0     H85393   7.605  11.103   7.844 -0.5130 -1.5502  0.7582
  633MOL0     H85394   7.488  11.285   7.952  0.8110  0.2266 -0.3427
  633MOL0     H85395   7.341  11.175   7.958 -1.4030  1.2087 -3.7590
  633MOL0     H85396   7.475  11.278   7.718  3.1537 -0.9860  3.3789
  633MOL0     H85397   7.328  11.172   7.714 -2.2174  1.9044 -1.4343
  633MOL0     H85398   7.229  11.368   7.863 -2.3059 -0.5195 -1.3678
  633MOL0     H85399   7.341  11.465   7.773 -4.5087  2.7666  0.0255
  633MOL0     H85400   7.261  11.428   7.568  2.4741  2.4594  2.7781
  633MOL0     H85401   7.168  11.286   7.621 -1.1225  0.7626 -1.8121
  633MOL0     H85402   7.039  11.457   7.785 -0.9462  2.0819  0.7321
  633MOL0     H85403   6.976  11.450   7.631 -1.9168 -0.1290  2.0573
  633MOL0     H85404   7.172  11.652   7.748  0.6941 -1.6351  0.0803
  633MOL0     H85405   7.169  11.621   7.576  0.7375  4.1787 -0.6084
  633MOL0     H85406   7.060  11.802   7.469  0.8455 -3.5212  1.4764
  633MOL0     H85407   6.832  12.100   7.612  1.4638  1.1214 -1.3715
  633MOL0     H85408   6.965  12.063   7.512  0.0906 -2.2751 -1.1070
  633MOL0     H85409   6.843  11.987   7.328 -0.2012 -0.4243 -0.1544
  633MOL0     H85410   6.688  11.979   7.416 -0.6518  1.8969 -0.5884
  633MOL0     H85411   6.842  12.201   7.280 -0.0332  0.9668 -1.4000
  633MOL0     H85412   6.761  12.250   7.428 -3.0856  1.4521 -1.2183
  633MOL0     H85413   6.554  12.247   7.318  2.3123  1.1514  2.5529
  633MOL0     H85414   6.588  12.084   7.244  0.4453 -0.2185  1.4414
  633MOL0     H85415   6.398  12.319   7.187 -0.3825 -1.9199 -3.0465
  633MOL0     H85416   6.284  12.519   7.084 -1.4882 -2.8793 -0.8082
  633MOL0     H85417   6.031  12.789   6.888 -3.9550  1.4149  1.8530
  633MOL0     H85418   5.939  13.026   6.897 -0.5888  1.4527 -1.3517
  633MOL0     H85419   6.194  13.368   6.991 -0.4791 -0.1070  0.5598
  633MOL0     H85420   6.161  13.389   6.810  0.0235  0.4532  0.4177
  633MOL0     H85421   5.947  13.510   6.859 -1.0786  2.5921  0.9690
  633MOL0     H85422   5.968  13.488   7.030  0.0508 -2.0858 -0.0562
  633MOL0     H85423   6.060  13.702   6.972 -2.9865 -0.9807 -1.6394
  633MOL0     H85424   6.212  13.597   6.972 -0.5025 -2.2695 -1.6645
  633MOL0     H85425   6.042  13.642   6.719 -2.5106 -2.1139  3.4155
  633MOL0     H85426   6.216  13.594   6.746  1.0646 -0.6951  2.4152
  633MOL0     H85427   6.255  13.830   6.836 -0.3326 -2.4732  0.1294
  633MOL0     H85428   6.090  13.871   6.796  2.4880  2.6773 -0.2964
  633MOL0     H85429   6.308  13.782   6.600  1.8090  3.3669  2.1640
  633MOL0     H85430   6.133  13.790   6.553  0.5812 -0.1162 -1.2596
  633MOL0     H85431   6.317  14.000   6.643 -1.0380  1.9291  1.5015
  633MOL0     H85432   6.146  14.034   6.653 -2.0320  0.5988 -2.4695
  633MOL0     H85433   6.279  14.092   6.426  1.9485 -1.3475  0.5306
  633MOL0     H85434   6.282  13.921   6.395  1.1683  0.4504 -0.8529
  633MOL0     H85435   6.307  13.201   6.921 -0.3194  1.1650 -2.0130
  633MOL0     H85436   6.412  12.971   6.962  0.2838  3.0297 -2.7819
  633MOL0     H85437   6.651  12.597   6.866 -0.7305 -1.4781 -1.6806
  633MOL0     H85438   6.754  12.407   6.941 -0.4562  1.5122 -2.9133
  633MOL0     H85439   7.793  10.739   8.066  0.4210 -1.4633  0.3273
  633MOL0     H85440   7.900  10.632   8.271  1.4254  1.0172  3.3517
  633MOL0     H85441   8.061  10.578   8.628 -0.1310  2.5979 -2.4291
  633MOL0     H85442   8.139  10.463   8.839  2.5165  1.1522 -0.5575
  633MOL0     H85443   7.915  10.567   9.198 -0.0226  1.1372 -1.0603
  633MOL0     H85444   8.046  10.696   9.194 -2.2734  1.0068 -4.4092
  633MOL0     H85445   8.067  10.415   9.296  3.5842 -1.1909 -1.1566
  633MOL0     H85446   8.042  10.541   9.425 -0.7764 -0.6549  0.3676
  633MOL0     H85447   8.268  10.653   9.314  5.4436 -1.6495 -2.3146
  633MOL0     H85448   8.285  10.481   9.268 -1.9286 -3.6583  0.6023
  633MOL0     H85449   8.245  10.442   9.532  2.1064 -1.2064  0.4433
  633MOL0     H85450   8.391  10.518   9.480 -0.0568 -1.7984  3.3841
  633MOL0     H85451   8.254  10.841   9.693 -0.3109  0.4087 -0.0131
  633MOL0     H85452   7.868  10.725   9.060 -3.2497 -1.8406 -0.5956
  633MOL0     H85453   7.801  10.935   8.806  0.0777 -0.8224  0.5945
  633MOL0     H85454   7.673  10.808   8.787  0.1858  1.7590 -1.2379
  633MOL0     H85455   7.706  10.860   8.945 -2.1554  1.0343 -0.9160
  634MOL0     O85456   3.577   8.748   7.084 -0.3432  1.0757  0.3491
  634MOL0     C85457   3.615   8.655   7.008  0.8070  0.2839 -0.0582
  634MOL0     O85458   3.747   8.614   7.005  0.2249  0.3087  0.4901
  634MOL0     C85459   3.837   8.660   7.098  0.6770  0.9692 -0.9330
  634MOL0     C85460   3.863   8.790   7.113  0.1472  0.5200 -0.5170
  634MOL0     C85461   3.968   8.831   7.197  0.1131 -0.9879 -0.6173
  634MOL0     C85462   4.047   8.743   7.267 -0.4670  0.4584  0.4914
  634MOL0     O85463   4.141   8.770   7.362 -0.7140  0.8384  0.0274
  634MOL0     C85464   4.172   8.913   7.389 -0.3406 -0.1972  0.0248
  634MOL0     C85465   4.078   8.965   7.495  1.0438 -0.1983 -0.2391
  634MOL0     C85466   4.131   9.101   7.535  0.2011 -0.3164 -0.0390
  634MOL0     C85467   4.049   9.163   7.650  0.3331 -0.4202  0.6097
  634MOL0     C85468   4.066   9.315   7.662  0.1659  0.1860  0.0144
  634MOL0     C85469   4.211   9.362   7.695  0.3287  1.0661 -0.6259
  634MOL0     C85470   4.219   9.510   7.735  0.4238  0.1132 -0.5851
  634MOL0     C85471   4.160   9.539   7.876 -0.1028 -0.2750 -0.7455
  634MOL0     N85472   4.190   9.682   7.909 -0.1929  0.1185  0.5364
  634MOL0     C85473   4.095   9.780   7.881 -0.3776 -0.3175 -0.2198
  634MOL0     C85474   4.160   9.894   7.916 -0.4531  0.1316  0.0570
  634MOL0     C85475   4.110  10.041   7.897  0.3582 -0.1530  0.4767
  634MOL0     C85476   4.169  10.133   7.792 -0.3964  0.8864 -0.0417
  634MOL0     C85477   4.129  10.277   7.803 -0.0143 -0.1823  0.2967
  634MOL0     C85478   4.179  10.365   7.689 -0.2073 -0.1805 -0.3359
  634MOL0     O85479   4.125  10.315   7.564  0.2739  0.3291  1.0138
  634MOL0     C85480   4.003  10.350   7.536 -1.0492  0.2522  0.7507
  634MOL0     C85481   3.915  10.441   7.596 -0.2150 -0.2585  0.1152
  634MOL0     C85482   3.787  10.470   7.545  0.4713  0.5077 -0.8945
  634MOL0     C85483   3.745  10.396   7.441 -0.2155  0.1244  0.3137
  634MOL0     C85484   3.602  10.426   7.386  0.4960  0.4611 -0.2354
  634MOL0     O85485   3.551  10.555   7.400 -0.3389 -0.5260 -0.1385
  634MOL0     C85486   3.422  10.574   7.385  0.4144 -1.1831  0.0686
  634MOL0     C85487   3.326  10.482   7.421 -0.5156 -0.4697 -1.0968
  634MOL0     C85488   3.193  10.518   7.426  0.3483 -0.0693 -0.3312
  634MOL0     C85489   3.148  10.647   7.402 -0.5746  0.5516  0.0915
  634MOL0     O85490   3.018  10.676   7.412 -0.8770 -0.0051 -0.0325
  634MOL0     C85491   2.976  10.768   7.513  1.0986  0.4964  0.0457
  634MOL0     C85492   2.879  10.877   7.463  0.0292 -0.9476 -0.3533
  634MOL0     C85493   2.736  10.817   7.433 -0.5037  1.1345 -0.6770
  634MOL0     C85494   2.645  10.921   7.372  0.1008  0.2657 -0.6499
  634MOL0     C85495   2.502  10.875   7.373  0.1017 -0.1185  0.6458
  634MOL0     C85496   2.446  10.870   7.519  0.5362  0.1162  0.2619
  634MOL0     C85497   2.300  10.927   7.522  1.0011  0.0682  0.1436
  634MOL0     C85498   2.243  10.949   7.673  0.7678  0.0699  0.3571
  634MOL0    Cl85499   2.076  11.004   7.667  0.1002 -0.3880 -0.5122
  634MOL0     C85500   3.239  10.744   7.371 -0.7625 -0.0278  0.6093
  634MOL0     C85501   3.381  10.708   7.361  0.8196 -0.2692 -1.3461
  634MOL0     O85502   3.558  10.331   7.330 -0.1940 -0.0240  0.3218
  634MOL0     C85503   3.825  10.296   7.378  0.3684  0.4944  0.4633
  634MOL0     C85504   3.953  10.282   7.425  0.8178  0.1880 -0.9749
  634MOL0     N85505   4.287   9.861   7.967  0.5506 -0.8412 -0.2411
  634MOL0     N85506   4.306   9.733   7.959  0.8888 -0.3168 -0.1163
  634MOL0     C85507   4.004   8.616   7.267  0.2578  0.3042 -0.2082
  634MOL0     C85508   3.899   8.571   7.180 -0.0252 -0.8462 -0.0927
  634MOL0     C85509   3.504   8.580   6.938 -0.7989 -0.1531 -0.8116
  634MOL0     C85510   3.541   8.459   6.886 -0.3866 -0.0033  0.4403
  634MOL0     C85511   3.459   8.389   6.792  0.4718  0.1485  0.0092
  634MOL0     C85512   3.333   8.431   6.761 -0.3290  0.8583 -0.8275
  634MOL0     O85513   3.240   8.361   6.679 -0.2315 -0.5364  0.0279
  634MOL0     C85514   3.103   8.394   6.662 -0.2570  0.1072  0.1265
  634MOL0     C85515   3.012   8.378   6.785  1.0559  0.5946 -0.8072
  634MOL0     C85516   2.873   8.444   6.788 -0.3465  0.3218 -0.8011
  634MOL0     C85517   2.797   8.431   6.920 -0.8262  0.1036  0.4145
  634MOL0     C85518   2.768   8.294   6.946  0.3205  0.0879 -0.2783
  634MOL0     C85519   2.726   8.182   6.945  0.1362 -1.1548 -0.2204
  634MOL0     C85520   3.289   8.549   6.819 -0.3603  0.1964  0.6817
  634MOL0     C85521   3.367   8.619   6.907 -0.3119 -0.0166  0.6727
  634MOL0     C85522   3.301   8.733   6.958  0.1798 -0.5667  0.1272
  634MOL0     H85523   3.812   8.871   7.061  2.0524  0.9345 -1.8648
  634MOL0     H85524   3.985   8.934   7.227 -1.3215 -2.0007  4.7277
  634MOL0     H85525   4.272   8.942   7.424  0.6200 -0.9907 -1.8692
  634MOL0     H85526   4.173   8.971   7.296 -0.7003 -0.6241 -0.2511
  634MOL0     H85527   4.072   8.897   7.581  0.3934  0.7520  0.4835
  634MOL0     H85528   3.974   8.968   7.462  0.7277  2.5122  0.7162
  634MOL0     H85529   4.149   9.161   7.445  0.4418  2.8310  1.9687
  634MOL0     H85530   4.228   9.091   7.584 -0.9687 -1.0201  2.2746
  634MOL0     H85531   3.942   9.151   7.631  0.1009  4.2486 -2.5183
  634MOL0     H85532   4.072   9.114   7.745  3.4707 -0.4349 -0.0419
  634MOL0     H85533   4.044   9.362   7.566  2.8859 -1.7717 -1.7150
  634MOL0     H85534   3.986   9.347   7.729  0.1711  1.8051 -0.7080
  634MOL0     H85535   4.252   9.311   7.782 -2.8990 -0.8001 -0.0551
  634MOL0     H85536   4.279   9.346   7.611  0.4433  2.0777 -0.7382
  634MOL0     H85537   4.159   9.567   7.664 -0.5352  2.8492  2.2227
  634MOL0     H85538   4.324   9.540   7.732  0.2647  0.9710  1.2759
  634MOL0     H85539   4.052   9.527   7.874 -0.1112 -0.3663 -0.0805
  634MOL0     H85540   4.193   9.468   7.953  1.9559  0.7887 -0.5728
  634MOL0     H85541   3.996   9.778   7.836 -0.3452  4.1962 -0.9642
  634MOL0     H85542   4.002  10.040   7.878 -0.6392 -5.0531  4.1188
  634MOL0     H85543   4.129  10.089   7.994 -1.6454  0.6998  0.4889
  634MOL0     H85544   4.278  10.130   7.786 -0.2043  2.0627  1.9858
  634MOL0     H85545   4.134  10.097   7.695  0.8160 -3.4265  0.9047
  634MOL0     H85546   4.164  10.315   7.900  1.7254 -0.3371 -0.2410
  634MOL0     H85547   4.020  10.271   7.796 -0.0472 -0.2857  0.8329
  634MOL0     H85548   4.288  10.364   7.692 -0.1974 -1.5133 -0.5837
  634MOL0     H85549   4.145  10.467   7.713 -1.4428 -0.3328 -1.3389
  634MOL0     H85550   3.931  10.491   7.691 -0.6275 -2.6963  1.5340
  634MOL0     H85551   3.726  10.544   7.595  1.7962 -0.4022  2.3224
  634MOL0     H85552   3.358  10.380   7.443  1.9714  0.2782 -0.9351
  634MOL0     H85553   3.118  10.446   7.457 -0.1174 -0.1692 -1.6198
  634MOL0     H85554   2.944  10.709   7.599  3.0317  1.4301  1.4767
  634MOL0     H85555   3.066  10.820   7.548  0.6330  1.6381 -0.3917
  634MOL0     H85556   2.864  10.953   7.540  0.5050 -0.1713 -1.0094
  634MOL0     H85557   2.914  10.926   7.371  2.2116  0.3747  1.0812
  634MOL0     H85558   2.747  10.726   7.373  1.0943  0.1653  0.9566
  634MOL0     H85559   2.702  10.777   7.529  3.1014 -0.0111  0.3078
  634MOL0     H85560   2.665  10.952   7.269  0.0019 -2.2249 -1.4869
  634MOL0     H85561   2.657  11.013   7.430  1.2259  0.4658 -1.1732
  634MOL0     H85562   2.506  10.779   7.321  0.4867 -0.9546  2.1551
  634MOL0     H85563   2.439  10.947   7.320 -0.0548  0.8680  2.1133
  634MOL0     H85564   2.454  10.767   7.555  1.7777 -0.1570 -0.7076
  634MOL0     H85565   2.502  10.942   7.578 -1.7121  0.7134  1.7733
  634MOL0     H85566   2.235  10.859   7.466  2.2254 -0.2733 -0.9027
  634MOL0     H85567   2.289  11.028   7.481  3.3597  0.7075  0.9352
  634MOL0     H85568   2.235  10.856   7.730 -4.6872 -0.3943 -0.5677
  634MOL0     H85569   2.304  11.026   7.720 -0.3339  1.3589 -0.2637
  634MOL0     H85570   3.208  10.847   7.357  3.8452  1.5329  0.0176
  634MOL0     H85571   3.461  10.779   7.342 -0.2027  0.6577 -2.3466
  634MOL0     H85572   3.794  10.248   7.287  1.0444 -1.6983  1.3246
  634MOL0     H85573   4.016  10.217   7.365  0.6656 -0.1152 -0.8121
  634MOL0     H85574   4.065   8.549   7.328  2.1854  3.8988  2.2303
  634MOL0     H85575   3.882   8.464   7.186 -0.4191 -1.0163 -2.8632
  634MOL0     H85576   3.647   8.435   6.880 -0.0774  1.4422 -0.4227
  634MOL0     H85577   3.493   8.296   6.748  0.1397 -0.1934  0.4722
  634MOL0     H85578   3.063   8.328   6.583  3.1295 -0.7791 -1.0163
  634MOL0     H85579   3.097   8.493   6.615 -2.8567 -1.1181 -2.4602
  634MOL0     H85580   3.061   8.421   6.873 -1.4290  3.3878 -0.6369
  634MOL0     H85581   2.999   8.272   6.812  1.2606  0.3857 -1.5040
  634MOL0     H85582   2.802   8.414   6.711 -1.1951  1.8320 -0.6387
  634MOL0     H85583   2.882   8.550   6.766 -2.4280  0.7611  0.2037
  634MOL0     H85584   2.858   8.471   7.002 -2.2678  0.5264  1.3160
  634MOL0     H85585   2.704   8.486   6.909 -0.1265  1.0762 -1.0047
  634MOL0     H85586   2.680   8.085   6.940 -1.9268 -0.2718  0.7164
  634MOL0     H85587   3.186   8.570   6.792 -0.6615 -0.8886  0.9491
  634MOL0     H85588   3.200   8.737   6.918 -0.0226  3.3863  0.6731
  634MOL0     H85589   3.295   8.731   7.067 -1.2155 -1.4970  0.0483
  634MOL0     H85590   3.350   8.823   6.920 -0.6358 -0.9099 -1.8660
  635MOL0     O85591  10.355   9.151   3.745 -0.6520 -0.3489  0.6275
  635MOL0     C85592  10.470   9.160   3.734  0.0053  1.4436  1.3895
  635MOL0     O85593  10.530   9.256   3.669  0.1148 -0.0532 -0.5092
  635MOL0     C85594  10.468   9.374   3.644  0.2437 -0.7486 -0.1923
  635MOL0     C85595  10.450   9.474   3.739 -0.3242 -0.7354  0.0780
  635MOL0     C85596  10.395   9.601   3.711  0.6574  0.5869 -0.4786
  635MOL0     C85597  10.362   9.628   3.580  0.6354  0.3376  0.5184
  635MOL0     O85598  10.305   9.744   3.550 -0.2816 -0.8943  1.0059
  635MOL0     C85599  10.193   9.796   3.620 -0.0243 -1.0495  0.0932
  635MOL0     C85600  10.068   9.701   3.616  0.8404 -0.3712  0.7894
  635MOL0     C85601  10.008   9.654   3.477 -0.1135  0.5563 -0.3257
  635MOL0     C85602   9.916   9.532   3.476  0.3379  0.1514  0.9036
  635MOL0     C85603   9.797   9.548   3.382  1.4884  0.2652  0.5778
  635MOL0     C85604   9.736   9.410   3.342 -0.2102 -0.2119 -0.0287
  635MOL0     C85605   9.593   9.419   3.283 -0.2415 -0.3328  0.1021
  635MOL0     C85606   9.569   9.321   3.174 -0.4466  0.0194  0.7923
  635MOL0     N85607   9.429   9.314   3.116 -0.2088  0.0301 -1.2397
  635MOL0     C85608   9.317   9.313   3.201  0.3629 -0.3181  0.8950
  635MOL0     C85609   9.211   9.298   3.107  0.0740 -0.7143 -0.9008
  635MOL0     C85610   9.068   9.272   3.122  0.1276  0.4704 -0.5096
  635MOL0     C85611   9.023   9.226   3.268  0.5905 -0.5282  0.5217
  635MOL0     C85612   9.009   9.364   3.351 -0.0822 -1.1060  0.4364
  635MOL0     C85613   9.008   9.347   3.502 -0.0112  0.1175  0.4443
  635MOL0     O85614   9.147   9.348   3.548  0.3067 -0.1222  0.1891
  635MOL0     C85615   9.221   9.238   3.574 -0.2258  0.7017 -0.5320
  635MOL0     C85616   9.172   9.115   3.605 -0.7592  0.2628 -0.6484
  635MOL0     C85617   9.250   9.005   3.645 -0.9096  0.9172 -0.9360
  635MOL0     C85618   9.394   9.020   3.649 -0.2189  0.2023  0.4400
  635MOL0     C85619   9.489   8.917   3.691  0.2531 -0.3215 -0.4853
  635MOL0     O85620   9.450   8.836   3.796 -0.5213  0.5275  0.4543
  635MOL0     C85621   9.542   8.750   3.847  0.9185 -0.2999  0.8287
  635MOL0     C85622   9.653   8.683   3.789  0.8374  1.3349  0.1891
  635MOL0     C85623   9.721   8.590   3.866  0.7959  1.0634  0.2337
  635MOL0     C85624   9.671   8.541   3.981 -0.4754  0.9117 -0.7221
  635MOL0     O85625   9.739   8.448   4.064  0.4456  1.0660 -0.0579
  635MOL0     C85626   9.667   8.335   4.115 -0.3693 -0.2732  0.3658
  635MOL0     C85627   9.659   8.362   4.262  0.3813  0.0650  0.0997
  635MOL0     C85628   9.784   8.404   4.355 -0.2232  0.3735  0.1314
  635MOL0     C85629   9.749   8.428   4.505 -0.7084 -0.2910 -0.1067
  635MOL0     C85630   9.866   8.489   4.585  0.0566 -0.0292  0.4021
  635MOL0     C85631   9.861   8.637   4.565 -0.8867 -0.6394  0.3459
  635MOL0     C85632   9.880   8.729   4.698 -0.5444  0.6031 -0.3200
  635MOL0     C85633   9.792   8.847   4.686 -0.8171 -0.3203  0.9543
  635MOL0    Cl85634   9.627   8.789   4.679 -0.0050  0.1562 -0.0326
  635MOL0     C85635   9.562   8.608   4.038  0.7598  0.3392  0.1580
  635MOL0     C85636   9.495   8.714   3.971  0.5772  0.4468  1.4380
  635MOL0     O85637   9.597   8.915   3.639 -0.5061  0.6959 -0.4405
  635MOL0     C85638   9.448   9.144   3.605 -0.7830  0.0121 -0.0256
  635MOL0     C85639   9.362   9.250   3.574 -0.4664 -0.4656 -0.4302
  635MOL0     N85640   9.262   9.321   2.986  0.0778  0.7839  0.0294
  635MOL0     N85641   9.387   9.328   2.987 -0.6248 -0.2601 -0.0825
  635MOL0     C85642  10.384   9.529   3.480  0.4663 -0.5355  0.5925
  635MOL0     C85643  10.437   9.411   3.512 -0.5524  0.7782 -0.1065
  635MOL0     C85644  10.538   9.026   3.775  0.6698 -1.1448 -0.3584
  635MOL0     C85645  10.467   8.954   3.871  0.2328  0.1961 -0.9750
  635MOL0     C85646  10.512   8.826   3.925 -0.4661 -0.7068 -0.4201
  635MOL0     C85647  10.635   8.784   3.876  0.0392  0.0880  0.3402
  635MOL0     O85648  10.700   8.671   3.916  0.5879  0.0847  0.9092
  635MOL0     C85649  10.635   8.586   4.020 -1.3109 -0.4159 -0.0071
  635MOL0     C85650  10.717   8.460   4.059 -0.9602  0.0651  0.5160
  635MOL0     C85651  10.732   8.370   3.939  0.1143 -0.9186 -0.3554
  635MOL0     C85652  10.732   8.222   3.967  0.3254 -0.0347  0.2868
  635MOL0     C85653  10.857   8.184   4.032  2.0262  0.2062  0.1191
  635MOL0     C85654  10.952   8.180   4.089 -0.3108  0.9595  0.2502
  635MOL0     C85655  10.698   8.846   3.770 -0.1359  0.1056 -0.1965
  635MOL0     C85656  10.654   8.967   3.716 -0.9864 -0.3372 -0.0989
  635MOL0     C85657  10.743   9.027   3.605 -0.1098 -0.3315  0.2888
  635MOL0     H85658  10.506   9.464   3.831  3.7412  0.8538 -1.9712
  635MOL0     H85659  10.386   9.676   3.788 -1.6881  2.6574 -2.5836
  635MOL0     H85660  10.227   9.802   3.724  2.1473 -4.2101 -0.2786
  635MOL0     H85661  10.165   9.897   3.589 -1.2690 -1.0886  1.0326
  635MOL0     H85662   9.984   9.746   3.670  0.2569  1.3621 -1.4393
  635MOL0     H85663  10.107   9.608   3.659  1.4973  0.5311  2.2036
  635MOL0     H85664  10.099   9.629   3.422  0.5754  0.7282  0.7053
  635MOL0     H85665   9.983   9.746   3.423 -1.0157  2.0923  2.4920
  635MOL0     H85666   9.989   9.453   3.456 -0.4001 -0.5946  1.1055
  635MOL0     H85667   9.879   9.512   3.577 -1.9180  0.6481  0.2290
  635MOL0     H85668   9.727   9.614   3.435 -0.0058  0.3920 -1.4694
  635MOL0     H85669   9.832   9.606   3.297  0.1948  0.1292 -0.0673
  635MOL0     H85670   9.804   9.361   3.271 -0.1868  0.8080 -0.7318
  635MOL0     H85671   9.725   9.340   3.425  1.3906 -0.5744 -0.0810
  635MOL0     H85672   9.576   9.524   3.257  1.6937 -0.2416 -0.9266
  635MOL0     H85673   9.522   9.409   3.366 -1.7089 -1.1677 -1.1841
  635MOL0     H85674   9.625   9.348   3.084 -0.4907  2.1363  1.3338
  635MOL0     H85675   9.595   9.223   3.215  1.9017  0.4645  0.5303
  635MOL0     H85676   9.301   9.301   3.307 -0.1967 -0.6693  0.7770
  635MOL0     H85677   9.014   9.357   3.079  3.0054  3.2468  0.9495
  635MOL0     H85678   9.044   9.187   3.057 -0.6904 -0.5780  1.0748
  635MOL0     H85679   8.924   9.188   3.242  0.2094  0.7881 -0.0638
  635MOL0     H85680   9.083   9.152   3.321  1.1163  2.9362  5.4393
  635MOL0     H85681   8.931   9.425   3.305  1.0048 -2.0436 -2.9646
  635MOL0     H85682   9.100   9.422   3.332 -0.6196 -1.2630 -3.6268
  635MOL0     H85683   8.959   9.252   3.522  3.8701 -2.1333  0.1478
  635MOL0     H85684   8.963   9.443   3.531 -0.3240  0.2177 -0.3328
  635MOL0     H85685   9.065   9.099   3.611 -0.7175 -0.9446 -2.2593
  635MOL0     H85686   9.208   8.911   3.682  0.6498  0.5155 -0.0999
  635MOL0     H85687   9.697   8.720   3.697 -0.8475 -3.6469 -3.0272
  635MOL0     H85688   9.811   8.545   3.826 -0.5053 -0.8656 -0.7192
  635MOL0     H85689   9.566   8.320   4.077 -0.0458 -2.9101  0.3029
  635MOL0     H85690   9.727   8.244   4.100  0.3933  0.0660  1.2434
  635MOL0     H85691   9.587   8.441   4.284 -0.4486 -0.9308  1.0234
  635MOL0     H85692   9.616   8.270   4.301 -0.1532  0.0131 -0.5867
  635MOL0     H85693   9.866   8.332   4.348 -0.4429  0.1442 -0.1514
  635MOL0     H85694   9.822   8.502   4.326  0.0896  0.2048 -0.0344
  635MOL0     H85695   9.735   8.326   4.542  5.0870 -1.1776  0.6108
  635MOL0     H85696   9.663   8.494   4.522  1.1422  3.0354 -2.4373
  635MOL0     H85697   9.951   8.442   4.534 -2.7719 -3.3074 -1.7565
  635MOL0     H85698   9.856   8.460   4.690  0.2502  1.3919  0.8330
  635MOL0     H85699   9.936   8.665   4.491  0.3531  1.0149  2.1228
  635MOL0     H85700   9.764   8.669   4.524 -1.0570  0.3013  1.4299
  635MOL0     H85701   9.985   8.758   4.707  0.3949 -1.6935 -2.7345
  635MOL0     H85702   9.851   8.668   4.784  1.8211  1.8764  1.5309
  635MOL0     H85703   9.815   8.904   4.777  4.0473 -0.9634  0.4350
  635MOL0     H85704   9.816   8.895   4.590  1.0552 -2.4418  0.2730
  635MOL0     H85705   9.532   8.576   4.137 -1.7286  1.3711 -0.1649
  635MOL0     H85706   9.400   8.745   4.014 -0.8185  0.6901 -1.5262
  635MOL0     H85707   9.556   9.158   3.600 -0.8987  0.4329 -2.9143
  635MOL0     H85708   9.399   9.346   3.540 -0.1626  0.2944  1.8874
  635MOL0     H85709  10.358   9.551   3.376 -2.3644  4.4366  2.0169
  635MOL0     H85710  10.472   9.336   3.441 -1.7202 -0.4739  0.5747
  635MOL0     H85711  10.385   9.012   3.913 -0.2478 -2.3099  1.8947
  635MOL0     H85712  10.452   8.781   4.003  0.4010 -1.2147 -0.0365
  635MOL0     H85713  10.532   8.563   3.993 -2.4180  2.5292  1.2431
  635MOL0     H85714  10.638   8.650   4.109  1.7212  0.5265 -0.6561
  635MOL0     H85715  10.669   8.401   4.138  0.4708  1.2131  2.3188
  635MOL0     H85716  10.815   8.470   4.107 -1.8062 -0.9945  2.5913
  635MOL0     H85717  10.823   8.385   3.880 -0.1052 -1.0975 -0.7410
  635MOL0     H85718  10.651   8.394   3.870  1.3698  0.5749 -1.3949
  635MOL0     H85719  10.654   8.200   4.040  0.7241 -2.1781  0.1374
  635MOL0     H85720  10.714   8.161   3.878 -1.6247 -2.5396  2.2389
  635MOL0     H85721  11.052   8.196   4.122  0.6539  2.0188 -2.8152
  635MOL0     H85722  10.799   8.813   3.746 -0.3221  0.1734 -1.1136
  635MOL0     H85723  10.822   9.085   3.655  0.3571 -1.0250  0.3730
  635MOL0     H85724  10.785   8.954   3.535 -0.6200 -1.9465  1.6071
  635MOL0     H85725  10.676   9.095   3.553 -3.9742 -4.4162 -0.6393
  636MOL0     O85726  11.468   9.049   3.580  0.0135  0.1886  0.2170
  636MOL0     C85727  11.495   9.128   3.672 -0.1529 -0.3354 -1.0805
  636MOL0     O85728  11.619   9.166   3.724  0.3258  0.5129  0.5522
  636MOL0     C85729  11.721   9.112   3.654  0.9910  0.4011  0.2348
  636MOL0     C85730  11.827   9.042   3.728  0.1771  0.1220  0.6603
  636MOL0     C85731  11.945   9.000   3.664 -0.1356  0.6932 -0.1489
  636MOL0     C85732  11.963   9.018   3.528 -0.4762 -0.5430 -0.2472
  636MOL0     O85733  12.062   8.980   3.445 -0.7501 -0.3955 -0.4169
  636MOL0     C85734  12.162   8.887   3.497  0.1154  0.0279 -0.3952
  636MOL0     C85735  12.295   8.938   3.540  0.7034 -0.5596  0.1993
  636MOL0     C85736  12.309   8.989   3.687 -0.2767 -0.0502 -0.1304
  636MOL0     C85737  12.449   9.007   3.733  0.5922  0.4449  1.0066
  636MOL0     C85738  12.514   9.136   3.692 -0.0445 -0.1929 -0.4717
  636MOL0     C85739  12.661   9.151   3.722  0.3727 -0.2445  0.1702
  636MOL0     C85740  12.680   9.181   3.873 -0.0534 -0.2679 -0.5288
  636MOL0     C85741  12.798   9.114   3.934  0.0203 -0.9249  0.9447
  636MOL0     N85742  12.800   9.165   4.070 -0.7576 -1.2683 -1.0306
  636MOL0     C85743  12.888   9.254   4.126 -0.8323  1.1816 -0.0092
  636MOL0     C85744  12.841   9.277   4.254  0.2956 -0.6592  0.0205
  636MOL0     C85745  12.894   9.370   4.352  1.1364  1.0036  0.4589
  636MOL0     C85746  12.834   9.514   4.323 -1.0342 -0.1353 -0.8425
  636MOL0     C85747  12.914   9.601   4.426 -0.0812  0.7503 -0.5388
  636MOL0     C85748  12.864   9.747   4.426  0.9260 -0.2841 -0.3649
  636MOL0     O85749  12.949   9.836   4.500  0.0191  0.1461 -0.5534
  636MOL0     C85750  12.971   9.946   4.432 -0.6711 -0.2696  0.2857
  636MOL0     C85751  12.882  10.058   4.452 -0.4033 -0.1301  0.9357
  636MOL0     C85752  12.918  10.171   4.380 -0.1927  0.4212 -0.8832
  636MOL0     C85753  13.028  10.174   4.289  0.2126 -0.1438  0.6195
  636MOL0     C85754  13.078  10.298   4.224  0.4185 -0.4098  0.9072
  636MOL0     O85755  13.198  10.290   4.151 -0.6303 -0.7872 -0.0548
  636MOL0     C85756  13.227  10.399   4.068 -0.6159  0.9434  0.3402
  636MOL0     C85757  13.329  10.493   4.109  0.3055 -0.0925 -0.5221
  636MOL0     C85758  13.345  10.602   4.026 -0.0069 -0.5832 -1.0638
  636MOL0     C85759  13.305  10.593   3.896 -0.5300  0.2672  0.2714
  636MOL0     O85760  13.347  10.700   3.816  0.0704  0.4015 -0.8093
  636MOL0     C85761  13.286  10.718   3.677 -0.0651 -0.2069  0.8320
  636MOL0     C85762  13.344  10.844   3.620 -0.5014 -0.8662  0.5162
  636MOL0     C85763  13.488  10.844   3.560  1.1746 -0.0177 -0.6338
  636MOL0     C85764  13.495  10.746   3.443  0.0151  0.1854 -1.5678
  636MOL0     C85765  13.634  10.743   3.385  0.0332  0.6505  0.4947
  636MOL0     C85766  13.729  10.629   3.431 -0.9622  0.3325  0.0778
  636MOL0     C85767  13.857  10.637   3.357 -0.1245  0.2435  0.3923
  636MOL0     C85768  13.956  10.737   3.420 -1.0493 -0.2348 -0.5100
  636MOL0    Cl85769  14.111  10.739   3.345  0.1464  0.0565  0.1730
  636MOL0     C85770  13.202  10.498   3.855  0.1786  0.4597 -0.4922
  636MOL0     C85771  13.171  10.392   3.939  0.6543 -1.0022  0.8930
  636MOL0     O85772  12.999  10.395   4.229 -0.5056 -0.2915  0.2120
  636MOL0     C85773  13.098  10.056   4.262  0.1417  0.1826 -0.4352
  636MOL0     C85774  13.081   9.947   4.345  0.9479 -0.6683 -0.0487
  636MOL0     N85775  12.731   9.207   4.283 -0.4027 -1.2855  0.6608
  636MOL0     N85776  12.701   9.146   4.171 -0.2171 -0.3119 -0.4738
  636MOL0     C85777  11.867   9.094   3.463  0.5237 -0.0395  0.1568
  636MOL0     C85778  11.747   9.142   3.522  0.7040  0.0188  0.8601
  636MOL0     C85779  11.372   9.197   3.743  0.8651  0.2337  0.0855
  636MOL0     C85780  11.245   9.172   3.686  0.1546  0.5512  0.0126
  636MOL0     C85781  11.130   9.218   3.746  0.0933  0.0222  0.0696
  636MOL0     C85782  11.127   9.302   3.850 -0.3416 -0.0332  1.4569
  636MOL0     O85783  11.025   9.364   3.904  1.2667  0.9641 -0.0894
  636MOL0     C85784  10.884   9.331   3.855 -0.3575 -0.7590  0.2974
  636MOL0     C85785  10.803   9.416   3.948  0.5073  0.4250 -0.8992
  636MOL0     C85786  10.828   9.571   3.937 -0.4758 -0.0613 -0.0976
  636MOL0     C85787  10.718   9.669   3.953 -0.0069  0.4636 -0.1891
  636MOL0     C85788  10.649   9.641   4.078  0.7613 -0.1749 -0.6857
  636MOL0     C85789  10.578   9.641   4.175  0.2285 -0.2002  0.4166
  636MOL0     C85790  11.254   9.332   3.906 -1.3138  1.0945  0.2925
  636MOL0     C85791  11.378   9.276   3.857 -0.5853 -0.1057  0.2054
  636MOL0     C85792  11.502   9.296   3.938  0.2398 -0.2063  0.1689
  636MOL0     H85793  11.815   9.020   3.833  1.5820 -4.2081  0.1035
  636MOL0     H85794  12.021   8.951   3.724  2.9775  0.7489 -3.6722
  636MOL0     H85795  12.111   8.828   3.575 -1.9822  0.4578 -1.3676
  636MOL0     H85796  12.185   8.820   3.414 -1.4807  0.0034 -0.8623
  636MOL0     H85797  12.334   9.019   3.477  1.1699 -0.1773  0.9600
  636MOL0     H85798  12.367   8.857   3.528  2.5890  0.9952  0.3716
  636MOL0     H85799  12.261   8.913   3.748  2.3904 -1.4120  0.4255
  636MOL0     H85800  12.261   9.087   3.691  0.7860  0.6104 -1.9591
  636MOL0     H85801  12.440   8.982   3.839  1.5445 -0.6440  0.8605
  636MOL0     H85802  12.515   8.928   3.695 -1.8807 -1.0910 -0.3163
  636MOL0     H85803  12.505   9.136   3.583 -1.5754  2.8597 -0.4510
  636MOL0     H85804  12.471   9.228   3.732  0.8552 -0.6144  1.5741
  636MOL0     H85805  12.728   9.067   3.702 -1.2496 -1.6413  0.3892
  636MOL0     H85806  12.700   9.232   3.660  0.4846 -0.7758 -0.4563
  636MOL0     H85807  12.589   9.150   3.926  0.0390 -0.7541 -0.6543
  636MOL0     H85808  12.692   9.290   3.880  3.3842 -0.5339 -0.4582
  636MOL0     H85809  12.775   9.007   3.924  1.1746 -1.1233  0.2578
  636MOL0     H85810  12.883   9.144   3.872 -2.8376  1.9815 -2.0417
  636MOL0     H85811  12.969   9.310   4.080 -0.5801  0.2895 -0.6668
  636MOL0     H85812  12.873   9.347   4.457 -3.0120  3.0397  0.2948
  636MOL0     H85813  13.002   9.363   4.339  2.9770 -0.8638  9.4377
  636MOL0     H85814  12.840   9.547   4.219 -0.7825  2.0875 -0.1834
  636MOL0     H85815  12.731   9.525   4.359  0.0196  1.6680  1.9441
  636MOL0     H85816  13.020   9.607   4.399 -0.4029  5.1734 -1.7144
  636MOL0     H85817  12.906   9.553   4.524  3.4553 -2.0158 -1.4008
  636MOL0     H85818  12.761   9.758   4.463  0.0372 -2.1269 -2.0850
  636MOL0     H85819  12.856   9.774   4.320 -1.8663  0.8095  0.0306
  636MOL0     H85820  12.799  10.038   4.518 -2.0783 -1.8404 -1.4905
  636MOL0     H85821  12.860  10.258   4.411 -0.1371  0.5479 -1.1394
  636MOL0     H85822  13.375  10.485   4.207 -0.2548  1.4111 -0.1032
  636MOL0     H85823  13.408  10.682   4.064 -1.1048  0.7105 -1.8642
  636MOL0     H85824  13.318  10.630   3.621 -3.6841 -1.9035  1.1138
  636MOL0     H85825  13.178  10.732   3.692 -0.5181 -2.7728  0.3727
  636MOL0     H85826  13.270  10.888   3.553 -2.1483 -1.4174  1.9195
  636MOL0     H85827  13.344  10.918   3.700 -0.0477 -2.9438  2.5542
  636MOL0     H85828  13.516  10.941   3.520 -1.7110  0.5881 -1.4329
  636MOL0     H85829  13.561  10.805   3.632  0.2606  0.4679  0.5866
  636MOL0     H85830  13.437  10.777   3.355 -0.5114  1.3695 -0.8314
  636MOL0     H85831  13.464  10.650   3.486  1.3878  0.5297  0.3304
  636MOL0     H85832  13.689  10.836   3.402 -0.9563  1.6518 -1.4576
  636MOL0     H85833  13.615  10.735   3.278 -3.4653 -0.1379  1.0650
  636MOL0     H85834  13.751  10.635   3.538  1.7233 -1.5406 -0.2628
  636MOL0     H85835  13.669  10.539   3.412 -0.5645 -0.0087  0.4074
  636MOL0     H85836  13.831  10.666   3.255 -2.9403  2.3089  1.5883
  636MOL0     H85837  13.898  10.535   3.346  0.8229  0.5350  1.1003
  636MOL0     H85838  13.913  10.838   3.423  0.1371  0.2582  0.3693
  636MOL0     H85839  13.974  10.707   3.524  3.4118 -0.6083 -1.2083
  636MOL0     H85840  13.157  10.486   3.757 -0.4761 -0.7479 -0.0559
  636MOL0     H85841  13.111  10.305   3.914  1.4941 -1.4045  0.2318
  636MOL0     H85842  13.181  10.067   4.193  1.8059  1.0018  1.6118
  636MOL0     H85843  13.140   9.856   4.339 -0.5412 -1.7027  0.3464
  636MOL0     H85844  11.883   9.125   3.360 -3.7073  1.2312 -0.2767
  636MOL0     H85845  11.679   9.201   3.462  2.9308 -0.5898 -2.5462
  636MOL0     H85846  11.235   9.103   3.603 -2.8414  1.7701 -0.7893
  636MOL0     H85847  11.039   9.183   3.699  1.3994  0.0641 -2.6864
  636MOL0     H85848  10.856   9.225   3.862 -2.4081 -0.4058 -1.4808
  636MOL0     H85849  10.878   9.369   3.753  0.8392 -1.0588  0.0989
  636MOL0     H85850  10.818   9.385   4.052 -0.1964  1.1340 -0.5738
  636MOL0     H85851  10.697   9.389   3.937  0.3604 -1.7107  3.6196
  636MOL0     H85852  10.879   9.588   3.842 -0.1995 -1.6273 -0.2575
  636MOL0     H85853  10.888   9.603   4.022 -2.0504  1.7160  0.4021
  636MOL0     H85854  10.752   9.773   3.954 -0.5701  0.6538 -0.5971
  636MOL0     H85855  10.638   9.670   3.878  0.3841 -4.2387 -0.9375
  636MOL0     H85856  10.505   9.659   4.251 -1.4697  0.5996 -1.3309
  636MOL0     H85857  11.273   9.373   4.004  1.8765 -2.9554  1.6535
  636MOL0     H85858  11.462   9.367   4.011  1.0553  1.3141 -0.7904
  636MOL0     H85859  11.529   9.198   3.980 -2.2750 -1.3663 -0.7580
  636MOL0     H85860  11.585   9.346   3.887  0.8711 -2.0739 -0.7376
  637MOL0     O85861  10.501   4.503   7.844 -0.3448  0.4863 -0.6697
  637MOL0     C85862  10.411   4.416   7.855  0.0980 -0.3494 -0.2859
  637MOL0     O85863  10.358   4.341   7.749 -0.1041  0.7107  0.3300
  637MOL0     C85864  10.385   4.384   7.622 -1.8592  0.3836 -0.0010
  637MOL0     C85865  10.512   4.407   7.575 -0.4237 -0.6543  0.3500
  637MOL0     C85866  10.532   4.450   7.444 -0.3451 -0.3447  0.3354
  637MOL0     C85867  10.419   4.486   7.365  0.6712 -0.7072  0.1609
  637MOL0     O85868  10.433   4.530   7.237 -0.1468  0.0283  0.3501
  637MOL0     C85869  10.358   4.639   7.174  0.0188  0.0275 -1.2757
  637MOL0     C85870  10.378   4.670   7.032 -0.5709  0.4868  0.0459
  637MOL0     C85871  10.346   4.541   6.950 -0.5961 -0.0127 -0.4607
  637MOL0     C85872  10.328   4.577   6.797  0.6808  1.5700 -0.2085
  637MOL0     C85873  10.419   4.668   6.731  0.8044  0.8533  0.5165
  637MOL0     C85874  10.557   4.602   6.705 -0.3616 -0.5087 -0.2905
  637MOL0     C85875  10.664   4.706   6.681  1.1265  0.1030  0.5272
  637MOL0     C85876  10.792   4.627   6.662  0.1310  0.1279 -0.2468
  637MOL0     N85877  10.907   4.708   6.622 -0.9048  0.1976  0.6872
  637MOL0     C85878  10.955   4.805   6.700 -0.4667 -0.0251  0.4813
  637MOL0     C85879  11.070   4.828   6.643 -0.3093 -0.4480 -0.3125
  637MOL0     C85880  11.167   4.925   6.698  0.2108  0.1534 -0.1104
  637MOL0     C85881  11.207   5.050   6.607  0.2380  0.0880  0.2804
  637MOL0     C85882  11.085   5.151   6.594  0.6354 -0.6454  0.0495
  637MOL0     C85883  11.104   5.279   6.502  0.0148 -0.1623 -0.1938
  637MOL0     O85884  11.190   5.357   6.574  0.3186 -0.2294  0.2398
  637MOL0     C85885  11.212   5.493   6.538  0.9771  0.1251 -0.0500
  637MOL0     C85886  11.129   5.580   6.462 -0.7314 -0.3305 -0.2242
  637MOL0     C85887  11.181   5.700   6.412  0.2167  0.7863 -0.3315
  637MOL0     C85888  11.318   5.741   6.429 -0.2796  0.2452  0.0231
  637MOL0     C85889  11.354   5.876   6.381  0.4401  0.0421 -0.8465
  637MOL0     O85890  11.464   5.939   6.439 -0.3911  0.3909 -0.0564
  637MOL0     C85891  11.501   6.074   6.426  0.2746  0.2608 -0.7938
  637MOL0     C85892  11.628   6.105   6.475 -0.7166 -1.2972  1.1128
  637MOL0     C85893  11.667   6.240   6.477  0.5204 -0.1172 -0.2895
  637MOL0     C85894  11.595   6.348   6.429 -0.1703 -0.0104 -0.2544
  637MOL0     O85895  11.651   6.478   6.427  0.9777  0.1129 -0.5030
  637MOL0     C85896  11.577   6.577   6.351  0.4718  0.2716  0.4015
  637MOL0     C85897  11.633   6.713   6.389  0.4550 -0.4481 -0.4750
  637MOL0     C85898  11.763   6.745   6.309 -0.0461 -1.1306 -0.1645
  637MOL0     C85899  11.840   6.876   6.360  0.7263  0.6201 -0.6917
  637MOL0     C85900  11.748   7.000   6.339 -1.2632  0.1968  0.1771
  637MOL0     C85901  11.823   7.136   6.350  0.2256 -0.9971 -0.0368
  637MOL0     C85902  11.729   7.257   6.369  0.3144  0.0816 -0.3496
  637MOL0     C85903  11.807   7.395   6.383 -0.5016  0.1565 -0.8065
  637MOL0    Cl85904  11.890   7.427   6.242 -0.0102 -0.2881 -0.1801
  637MOL0     C85905  11.465   6.314   6.383  0.0648  0.7543  0.1497
  637MOL0     C85906  11.415   6.187   6.384  0.1802  0.6838 -0.1297
  637MOL0     O85907  11.288   5.920   6.290  0.4560 -0.1131  0.5828
  637MOL0     C85908  11.394   5.652   6.494 -0.7463 -0.0794 -0.1092
  637MOL0     C85909  11.344   5.532   6.559  0.2389  0.2251  0.4200
  637MOL0     N85910  11.086   4.760   6.526 -0.0795  0.2846  1.1400
  637MOL0     N85911  10.984   4.682   6.513  0.2993  0.0966 -0.1984
  637MOL0     C85912  10.293   4.466   7.413 -0.0138 -0.5763 -0.1221
  637MOL0     C85913  10.268   4.409   7.533 -0.0789  0.4761 -0.0237
  637MOL0     C85914  10.332   4.401   7.983 -0.4548 -0.1751 -0.3452
  637MOL0     C85915  10.259   4.282   7.997 -0.6375 -0.8029 -0.4545
  637MOL0     C85916  10.163   4.274   8.103 -0.8668  0.8153 -0.4728
  637MOL0     C85917  10.141   4.373   8.192  0.2945 -1.7546  0.5398
  637MOL0     O85918  10.043   4.349   8.282  0.6332 -0.2246 -0.0683
  637MOL0     C85919  10.021   4.433   8.394  0.1484  0.7709  0.3951
  637MOL0     C85920   9.906   4.529   8.376 -0.4630  0.2465 -0.1105
  637MOL0     C85921   9.782   4.475   8.307  0.5750 -0.5519 -0.2169
  637MOL0     C85922   9.672   4.575   8.316 -0.1365  0.0022 -0.5112
  637MOL0     C85923   9.536   4.517   8.292  0.5425  0.3493  0.2771
  637MOL0     C85924   9.427   4.461   8.283  0.2533 -0.1933  0.4509
  637MOL0     C85925  10.223   4.492   8.190 -0.5704 -0.1075 -0.1166
  637MOL0     C85926  10.317   4.508   8.081  0.9413 -1.5045  0.3004
  637MOL0     C85927  10.403   4.628   8.087  0.6063 -1.0633  0.0238
  637MOL0     H85928  10.601   4.392   7.635  2.5604 -0.9020 -3.6869
  637MOL0     H85929  10.636   4.470   7.418  0.7336 -0.5159  3.9276
  637MOL0     H85930  10.253   4.637   7.204  0.1954 -1.2003 -0.6458
  637MOL0     H85931  10.391   4.727   7.230 -2.1484 -0.5883  1.1655
  637MOL0     H85932  10.481   4.701   7.014  0.1397 -1.0655  1.1538
  637MOL0     H85933  10.312   4.747   6.992  0.1568  1.4227  0.6157
  637MOL0     H85934  10.251   4.501   6.985  0.5445 -2.3193  0.1514
  637MOL0     H85935  10.417   4.460   6.970 -0.4964  1.1420  5.8662
  637MOL0     H85936  10.335   4.478   6.751  0.7451  0.8350  1.3374
  637MOL0     H85937  10.225   4.610   6.783  1.3651  2.7783 -3.0993
  637MOL0     H85938  10.370   4.701   6.639  0.3951 -0.4867  0.2277
  637MOL0     H85939  10.427   4.763   6.784 -1.5384  0.5575  1.5158
  637MOL0     H85940  10.587   4.557   6.800  1.4828  4.0643  1.6063
  637MOL0     H85941  10.553   4.522   6.631 -1.0069 -0.1041 -0.7087
  637MOL0     H85942  10.669   4.776   6.764 -0.3075 -0.6894  1.3184
  637MOL0     H85943  10.646   4.766   6.591 -1.1984  0.7285  1.3549
  637MOL0     H85944  10.818   4.582   6.758 -1.4064  0.8016  0.5254
  637MOL0     H85945  10.794   4.545   6.590  1.9394 -0.5947  0.5591
  637MOL0     H85946  10.902   4.846   6.785 -2.5707 -0.9305 -0.3236
  637MOL0     H85947  11.119   4.963   6.789 -3.1976 -0.1405 -1.6161
  637MOL0     H85948  11.254   4.863   6.721 -0.8842 -1.6002 -0.5050
  637MOL0     H85949  11.302   5.091   6.640 -0.1406 -1.2426  3.3126
  637MOL0     H85950  11.228   5.010   6.508 -2.5555 -0.6013 -0.1139
  637MOL0     H85951  11.054   5.195   6.689 -1.9974  0.9374 -1.4462
  637MOL0     H85952  11.004   5.087   6.557  0.1729  0.8765 -1.7178
  637MOL0     H85953  11.006   5.325   6.485  0.4729  1.6379  1.6956
  637MOL0     H85954  11.143   5.260   6.402 -0.9464 -2.1570 -0.2473
  637MOL0     H85955  11.023   5.564   6.449 -1.8085 -0.1274  5.4392
  637MOL0     H85956  11.112   5.759   6.353 -2.1450  2.3039  3.6510
  637MOL0     H85957  11.688   6.017   6.491 -0.8168 -2.0991 -2.2159
  637MOL0     H85958  11.769   6.258   6.510  0.2788 -2.1845  1.9439
  637MOL0     H85959  11.601   6.540   6.251  2.0380  2.2582 -0.0189
  637MOL0     H85960  11.471   6.571   6.377  0.8265 -1.8458  1.5492
  637MOL0     H85961  11.564   6.792   6.358  1.0475  0.2442 -0.0726
  637MOL0     H85962  11.654   6.726   6.496 -0.8971 -1.4544 -0.0689
  637MOL0     H85963  11.827   6.657   6.315  1.7402  0.1332  0.1209
  637MOL0     H85964  11.730   6.774   6.209  0.0774  2.2798  0.6403
  637MOL0     H85965  11.932   6.895   6.304 -0.1838  0.2157 -2.3687
  637MOL0     H85966  11.864   6.866   6.467  1.4034  0.6174 -0.8387
  637MOL0     H85967  11.677   6.993   6.422  0.3157 -1.5657  1.4737
  637MOL0     H85968  11.698   6.990   6.242 -2.1786 -4.6441  0.8909
  637MOL0     H85969  11.906   7.135   6.421  1.4781  0.1241 -1.4278
  637MOL0     H85970  11.863   7.148   6.249 -2.3082  1.1334 -0.8958
  637MOL0     H85971  11.666   7.255   6.458 -0.8170 -2.5420 -1.1250
  637MOL0     H85972  11.663   7.254   6.282  1.0971  1.0839 -1.0028
  637MOL0     H85973  11.735   7.475   6.405 -2.3262 -1.3065 -1.1516
  637MOL0     H85974  11.877   7.386   6.466 -0.2115  1.2461 -0.9247
  637MOL0     H85975  11.388   6.390   6.376 -0.7235  0.1251  1.5616
  637MOL0     H85976  11.312   6.162   6.362  0.4432  1.1779 -2.0660
  637MOL0     H85977  11.500   5.671   6.513 -0.0197 -3.6760  0.0155
  637MOL0     H85978  11.416   5.469   6.609  4.4400  2.1373 -2.5966
  637MOL0     H85979  10.201   4.480   7.358  0.7249  0.5982 -1.1130
  637MOL0     H85980  10.170   4.380   7.570 -0.1646  1.9690  1.0206
  637MOL0     H85981  10.280   4.195   7.936  1.8640  1.6352 -3.3747
  637MOL0     H85982  10.099   4.188   8.117 -2.4161  2.1487  1.0944
  637MOL0     H85983  10.115   4.486   8.412  1.5508  0.4529 -4.4508
  637MOL0     H85984  10.011   4.368   8.481  0.1742 -0.6410 -0.6140
  637MOL0     H85985   9.948   4.611   8.316  0.9003  0.1888  0.7112
  637MOL0     H85986   9.889   4.543   8.483 -1.9904 -1.3744 -0.0961
  637MOL0     H85987   9.757   4.386   8.366 -1.0264  0.0447  0.0430
  637MOL0     H85988   9.803   4.456   8.201  1.3529 -1.1112  0.0272
  637MOL0     H85989   9.669   4.622   8.415  3.0414  0.6542 -0.5960
  637MOL0     H85990   9.669   4.660   8.247 -1.3530  0.8472  0.5369
  637MOL0     H85991   9.335   4.407   8.279  1.5944 -2.4880 -1.5726
  637MOL0     H85992  10.211   4.570   8.266 -2.5809  0.2877 -0.7630
  637MOL0     H85993  10.404   4.670   8.188  0.8994  0.3229 -0.5409
  637MOL0     H85994  10.503   4.591   8.064 -0.3762 -1.7803 -3.8250
  637MOL0     H85995  10.362   4.697   8.013 -0.9184 -3.1210 -1.1786
  638MOL0     O85996   4.092   7.898   7.883  0.1006 -0.0187  0.2802
  638MOL0     C85997   4.023   7.950   7.970  0.3677  0.2828 -0.8933
  638MOL0     O85998   3.912   7.892   8.024  0.7787 -0.7672  0.1058
  638MOL0     C85999   3.880   7.767   7.990 -0.7098  0.1597  0.5789
  638MOL0     C86000   3.971   7.661   8.026 -1.2322  0.0231 -0.7110
  638MOL0     C86001   3.947   7.528   8.003 -0.4284 -0.1149  0.8866
  638MOL0     C86002   3.820   7.490   7.953 -0.2356 -0.5731 -0.6591
  638MOL0     O86003   3.780   7.361   7.941 -0.1209 -0.1042 -1.2327
  638MOL0     C86004   3.874   7.255   7.955  0.8917 -0.1240  0.1053
  638MOL0     C86005   3.797   7.123   7.914  0.8216 -0.1314  0.2047
  638MOL0     C86006   3.873   7.000   7.970 -0.9104  0.3904 -0.7200
  638MOL0     C86007   3.867   6.966   8.121  1.2609 -0.0783 -0.4033
  638MOL0     C86008   3.987   6.879   8.156  0.5612  0.5904  0.5095
  638MOL0     C86009   3.944   6.730   8.170  0.1690 -0.2354  0.0956
  638MOL0     C86010   4.064   6.640   8.169  1.4949  0.0052  0.2019
  638MOL0     C86011   4.033   6.496   8.133 -1.3094 -0.4417 -0.6182
  638MOL0     N86012   4.143   6.407   8.161  0.3856 -1.1337 -0.2121
  638MOL0     C86013   4.214   6.342   8.065 -0.8740 -0.4113  0.2959
  638MOL0     C86014   4.319   6.290   8.123  0.2828 -0.1145 -0.2968
  638MOL0     C86015   4.423   6.203   8.058  0.0861 -0.1453  0.5701
  638MOL0     C86016   4.368   6.075   7.988 -0.3487 -0.4997 -0.6283
  638MOL0     C86017   4.468   5.961   7.957  1.4271 -0.0314 -0.7522
  638MOL0     C86018   4.404   5.833   7.946 -0.3337  0.7266  0.5088
  638MOL0     O86019   4.494   5.734   7.895 -0.8353 -1.0701  0.0065
  638MOL0     C86020   4.446   5.622   7.829 -0.2919  0.2345  0.3220
  638MOL0     C86021   4.451   5.499   7.890  0.1179  0.1787 -0.1037
  638MOL0     C86022   4.390   5.392   7.823 -0.5025  0.6964  0.3409
  638MOL0     C86023   4.313   5.408   7.699 -0.1934  0.4269  0.6504
  638MOL0     C86024   4.249   5.292   7.637  0.8963  1.2741 -0.1314
  638MOL0     O86025   4.215   5.286   7.500  0.5188 -0.1912 -0.0964
  638MOL0     C86026   4.099   5.215   7.475 -0.5623 -0.4532 -0.1892
  638MOL0     C86027   3.984   5.272   7.526 -0.2355  0.3571  0.5045
  638MOL0     C86028   3.859   5.219   7.518  0.3352  0.2449 -1.2903
  638MOL0     C86029   3.846   5.101   7.457 -0.0432  1.0710  1.0573
  638MOL0     O86030   3.732   5.024   7.429 -0.1456  0.5224 -0.2784
  638MOL0     C86031   3.629   5.044   7.527 -0.2645 -0.1791  0.5805
  638MOL0     C86032   3.505   4.958   7.494 -0.6103 -0.4729  0.5137
  638MOL0     C86033   3.529   4.809   7.476  0.2687 -0.0813 -0.2173
  638MOL0     C86034   3.399   4.717   7.472 -0.2287 -0.1330  0.0471
  638MOL0     C86035   3.447   4.575   7.438  0.4064  0.8743 -0.4648
  638MOL0     C86036   3.344   4.463   7.451  0.2697  0.2019  0.4071
  638MOL0     C86037   3.418   4.336   7.417  0.4590  0.2670 -0.5755
  638MOL0     C86038   3.363   4.209   7.479  0.3096  0.2793 -0.1647
  638MOL0    Cl86039   3.514   4.110   7.514  0.1775  0.0956  0.0562
  638MOL0     C86040   3.958   5.044   7.395  0.7930 -0.3539 -0.0978
  638MOL0     C86041   4.085   5.095   7.407 -1.3133 -0.5242  0.1190
  638MOL0     O86042   4.218   5.206   7.720 -0.2635  0.2963  0.2289
  638MOL0     C86043   4.321   5.536   7.634  0.5830 -0.0930  0.1587
  638MOL0     C86044   4.386   5.643   7.707  0.1057 -0.6286 -0.7220
  638MOL0     N86045   4.307   6.322   8.260 -0.2268  0.7184 -0.6299
  638MOL0     N86046   4.207   6.396   8.279  0.5206 -0.0972  0.0091
  638MOL0     C86047   3.724   7.591   7.918 -0.0410 -0.2359 -1.2880
  638MOL0     C86048   3.759   7.728   7.941 -0.9119  0.3082  0.6570
  638MOL0     C86049   4.063   8.087   8.020  0.2838  0.4636  0.1158
  638MOL0     C86050   4.015   8.124   8.150 -1.2808 -0.2792 -0.0623
  638MOL0     C86051   4.058   8.243   8.215  0.1428  0.1550 -0.0616
  638MOL0     C86052   4.142   8.336   8.151 -0.0555 -0.2371 -0.3374
  638MOL0     O86053   4.173   8.448   8.224 -0.3247  0.0233 -0.2782
  638MOL0     C86054   4.307   8.452   8.276 -0.6923  0.5791 -0.1353
  638MOL0     C86055   4.388   8.555   8.187  0.4647  0.3194 -0.1699
  638MOL0     C86056   4.324   8.696   8.190 -0.6751 -0.2329  0.1278
  638MOL0     C86057   4.342   8.767   8.324  0.4579  0.7284 -0.8031
  638MOL0     C86058   4.228   8.854   8.337 -0.6499 -0.5240  0.0062
  638MOL0     C86059   4.127   8.914   8.341  0.8168 -0.1099 -0.6868
  638MOL0     C86060   4.191   8.301   8.025 -1.0166 -0.2392 -0.0388
  638MOL0     C86061   4.155   8.183   7.957 -0.5384  0.1708  0.1869
  638MOL0     C86062   4.222   8.177   7.820 -0.2743  0.8990 -0.4863
  638MOL0     H86063   4.067   7.675   8.074 -3.1448  1.0151  3.1979
  638MOL0     H86064   4.031   7.461   8.020  0.1544  0.5818  0.7955
  638MOL0     H86065   3.969   7.274   7.904  1.0918  2.4446  1.2580
  638MOL0     H86066   3.899   7.241   8.060  0.2895 -2.6976 -0.0377
  638MOL0     H86067   3.785   7.119   7.805 -2.9735 -1.4407  0.5223
  638MOL0     H86068   3.693   7.119   7.947 -0.3167 -1.4537 -3.0767
  638MOL0     H86069   3.975   7.011   7.933  0.5177  2.4242  3.2465
  638MOL0     H86070   3.826   6.914   7.921 -0.1893  0.4792 -1.5962
  638MOL0     H86071   3.878   7.055   8.185 -0.0726  0.0642 -0.3472
  638MOL0     H86072   3.772   6.917   8.145  3.4169 -4.0443  1.0943
  638MOL0     H86073   4.059   6.884   8.074 -0.6567 -2.0995 -0.8289
  638MOL0     H86074   4.038   6.918   8.245 -0.1311 -1.1761  1.7570
  638MOL0     H86075   3.881   6.707   8.257  0.5809  0.1429  0.5025
  638MOL0     H86076   3.886   6.699   8.083  0.6344 -1.5450  0.2242
  638MOL0     H86077   4.101   6.640   8.272 -1.1971 -4.0032  1.4176
  638MOL0     H86078   4.141   6.685   8.106 -0.5680  0.3114 -2.2510
  638MOL0     H86079   3.934   6.463   8.166 -0.3444 -3.1866 -0.2050
  638MOL0     H86080   4.007   6.481   8.027 -4.9702 -0.8942  0.1953
  638MOL0     H86081   4.195   6.341   7.959  0.6475  0.0217 -0.0064
  638MOL0     H86082   4.474   6.260   7.980 -0.7595  0.6216  0.5693
  638MOL0     H86083   4.492   6.179   8.140 -0.3178  1.0352  1.2682
  638MOL0     H86084   4.295   6.039   8.060  0.6260  0.1899  0.7600
  638MOL0     H86085   4.325   6.097   7.890 -3.2785  1.0165  0.8883
  638MOL0     H86086   4.554   5.958   8.026 -0.4012 -1.8282  1.6281
  638MOL0     H86087   4.506   5.978   7.856  1.3718  0.8937 -0.6333
  638MOL0     H86088   4.333   5.848   7.865  0.3948  2.6811  0.1903
  638MOL0     H86089   4.360   5.817   8.045  0.2216  4.6431  1.5365
  638MOL0     H86090   4.512   5.493   7.979  3.6067  1.4054 -2.1910
  638MOL0     H86091   4.406   5.296   7.872 -6.2198  1.6627  5.2797
  638MOL0     H86092   3.989   5.365   7.582 -1.7221  0.0284  1.2428
  638MOL0     H86093   3.775   5.271   7.562  1.0258  3.5303 -3.4672
  638MOL0     H86094   3.663   5.004   7.623  0.4625 -1.2992 -0.1265
  638MOL0     H86095   3.596   5.147   7.543 -2.6066 -1.0693  1.9845
  638MOL0     H86096   3.430   4.972   7.572  0.8552  0.1668  1.8681
  638MOL0     H86097   3.466   4.991   7.398  1.0717  0.7437  0.2130
  638MOL0     H86098   3.587   4.795   7.384  1.1148  3.3344 -0.3533
  638MOL0     H86099   3.581   4.780   7.568 -0.3795 -0.5661  0.0038
  638MOL0     H86100   3.338   4.733   7.382  2.2872  2.5109 -1.3704
  638MOL0     H86101   3.336   4.730   7.560  0.0015 -0.2275  0.2259
  638MOL0     H86102   3.523   4.553   7.513 -1.0607 -0.0642  0.8066
  638MOL0     H86103   3.490   4.576   7.338 -1.0260 -4.0677 -1.4195
  638MOL0     H86104   3.282   4.461   7.541  2.0865 -1.0346  1.7028
  638MOL0     H86105   3.275   4.485   7.369  0.9232  1.6200  0.1875
  638MOL0     H86106   3.515   4.343   7.467 -2.9612  0.3087  7.6507
  638MOL0     H86107   3.437   4.315   7.311  3.4579  0.7844 -0.2311
  638MOL0     H86108   3.298   4.228   7.565  1.2366  1.6250  0.2674
  638MOL0     H86109   3.305   4.160   7.400 -0.3835  1.0670 -0.1566
  638MOL0     H86110   3.941   4.948   7.347  1.9178 -0.2639 -0.7019
  638MOL0     H86111   4.178   5.060   7.363  2.9710  3.1215  4.9837
  638MOL0     H86112   4.271   5.545   7.538  1.4509  0.4201 -0.2508
  638MOL0     H86113   4.392   5.739   7.657  2.5008 -1.0973 -1.4708
  638MOL0     H86114   3.623   7.570   7.882 -1.5288  1.1992  1.6702
  638MOL0     H86115   3.685   7.801   7.910 -0.8460  0.2405  0.3312
  638MOL0     H86116   3.939   8.065   8.200 -0.8697 -2.5009 -1.9214
  638MOL0     H86117   4.014   8.267   8.312  2.8792  3.5035  0.5535
  638MOL0     H86118   4.361   8.358   8.264 -0.8410  0.6135 -1.1663
  638MOL0     H86119   4.312   8.489   8.379 -0.6204  0.8101 -0.2212
  638MOL0     H86120   4.397   8.521   8.083 -0.9445 -0.5045 -0.0486
  638MOL0     H86121   4.489   8.567   8.226  0.5612  2.3705 -0.9469
  638MOL0     H86122   4.215   8.687   8.179 -0.6348 -0.8796  0.2508
  638MOL0     H86123   4.359   8.762   8.109 -1.3365 -1.7203 -1.4394
  638MOL0     H86124   4.331   8.693   8.405 -0.7491 -0.6807 -2.1976
  638MOL0     H86125   4.437   8.822   8.328  1.6970 -1.3646  1.0243
  638MOL0     H86126   4.041   8.976   8.330  1.9221  1.1069 -3.2903
  638MOL0     H86127   4.269   8.361   7.978 -0.7373  0.4059  1.2078
  638MOL0     H86128   4.156   8.125   7.750 -2.0596 -0.0141  1.7342
  638MOL0     H86129   4.240   8.280   7.786  1.2419  0.8169 -0.0137
  638MOL0     H86130   4.317   8.125   7.831 -2.1320 -2.5779  0.6533
  639MOL0     O86131   6.550   3.235   9.709  1.6793  0.4804  1.1173
  639MOL0     C86132   6.554   3.291   9.813  0.4384  0.2742 -0.3905
  639MOL0     O86133   6.674   3.323   9.867  0.3930  0.3875  0.7810
  639MOL0     C86134   6.785   3.345   9.786  0.2347 -0.2935 -0.0045
  639MOL0     C86135   6.771   3.385   9.641 -0.0983 -0.4729  0.5165
  639MOL0     C86136   6.883   3.404   9.567 -0.5259  0.5971  0.5514
  639MOL0     C86137   7.014   3.383   9.616 -0.1193 -0.3728  0.2578
  639MOL0     O86138   7.123   3.429   9.540  0.2514  0.8273  0.5698
  639MOL0     C86139   7.159   3.338   9.432  0.1303  0.0556  0.0260
  639MOL0     C86140   7.236   3.218   9.484 -0.8097  0.3355 -0.3205
  639MOL0     C86141   7.309   3.148   9.365  0.3764 -0.3727  0.1786
  639MOL0     C86142   7.362   3.015   9.421 -1.0114 -1.1732  0.7432
  639MOL0     C86143   7.428   2.937   9.307  0.2379  0.5440  0.3809
  639MOL0     C86144   7.427   2.781   9.342  0.5498  0.5654  0.9500
  639MOL0     C86145   7.514   2.753   9.470  1.4103  0.8785 -0.6302
  639MOL0     C86146   7.562   2.612   9.447 -0.7430  0.3500  0.2318
  639MOL0     N86147   7.636   2.544   9.555  0.0070 -0.0218  0.2819
  639MOL0     C86148   7.618   2.407   9.575  0.3085  0.0295  0.3184
  639MOL0     C86149   7.730   2.374   9.646  0.1664 -0.1395 -0.2211
  639MOL0     C86150   7.760   2.237   9.701 -0.4333 -0.0739 -0.4357
  639MOL0     C86151   7.828   2.145   9.597 -0.6970  0.3270  0.3274
  639MOL0     C86152   7.740   2.033   9.542 -0.1717  0.1522  0.3580
  639MOL0     C86153   7.618   2.070   9.463  0.6003 -0.7289  1.0464
  639MOL0     O86154   7.658   2.148   9.345 -1.4507 -1.1819 -0.3804
  639MOL0     C86155   7.578   2.231   9.274  0.8616 -0.4668 -0.0379
  639MOL0     C86156   7.436   2.253   9.308  0.1474  0.9568  0.0934
  639MOL0     C86157   7.350   2.336   9.241 -0.1560  1.7750  0.6264
  639MOL0     C86158   7.407   2.412   9.142 -0.6111  0.1667  0.1154
  639MOL0     C86159   7.312   2.507   9.071 -0.3608 -0.2984  0.2094
  639MOL0     O86160   7.180   2.491   9.111  0.5436  0.4154  0.1610
  639MOL0     C86161   7.085   2.553   9.035  0.2815  0.4071  0.1112
  639MOL0     C86162   7.036   2.497   8.919 -0.0957  0.4152  0.1962
  639MOL0     C86163   6.947   2.565   8.841  0.0503 -1.4207 -1.1116
  639MOL0     C86164   6.882   2.685   8.883  0.1194  0.1824 -0.0393
  639MOL0     O86165   6.804   2.760   8.811  0.4781 -0.6573  0.5582
  639MOL0     C86166   6.750   2.715   8.683 -1.1618  0.3001 -0.1001
  639MOL0     C86167   6.640   2.820   8.653  0.0233  0.7407  1.0014
  639MOL0     C86168   6.563   2.776   8.524 -0.4459 -0.1278 -0.5239
  639MOL0     C86169   6.457   2.884   8.482  0.2114  0.2806  0.4656
  639MOL0     C86170   6.342   2.908   8.585 -0.2729 -0.0965  1.0899
  639MOL0     C86171   6.257   2.785   8.618  0.1929 -0.7615  0.8199
  639MOL0     C86172   6.207   2.717   8.489  0.0895 -0.8541 -0.0647
  639MOL0     C86173   6.115   2.602   8.528 -0.7597  0.4331  0.4084
  639MOL0    Cl86174   6.211   2.452   8.574 -0.0868 -0.0655 -0.1623
  639MOL0     C86175   6.917   2.728   9.011 -0.5902  0.7880  0.2608
  639MOL0     C86176   7.028   2.670   9.077 -0.8965  0.2977  0.1856
  639MOL0     O86177   7.352   2.587   8.987 -0.0610  0.0079  0.8791
  639MOL0     C86178   7.543   2.403   9.105 -0.9975 -0.5856  0.3412
  639MOL0     C86179   7.624   2.312   9.172  0.1578  0.3671 -0.6377
  639MOL0     N86180   7.810   2.488   9.660  0.4263  0.6428 -0.0919
  639MOL0     N86181   7.755   2.588   9.607 -0.9966  0.7869 -0.4917
  639MOL0     C86182   7.022   3.353   9.754  0.4579 -0.3024 -0.2149
  639MOL0     C86183   6.910   3.329   9.831  0.5773 -0.4110 -0.5423
  639MOL0     C86184   6.425   3.321   9.881 -0.1408 -0.4622 -0.4788
  639MOL0     C86185   6.327   3.218   9.873 -0.2682  0.8056  0.5866
  639MOL0     C86186   6.202   3.226   9.943  0.6547 -0.9048 -0.8495
  639MOL0     C86187   6.181   3.333  10.029 -0.2674 -0.2999 -0.0551
  639MOL0     O86188   6.071   3.337  10.108  0.7501  0.1687  0.5243
  639MOL0     C86189   6.088   3.353  10.247  0.0914 -0.9167 -0.2343
  639MOL0     C86190   6.013   3.244  10.298 -0.1816 -0.0538 -0.5911
  639MOL0     C86191   5.956   3.273  10.441  0.0658  0.1543 -0.1539
  639MOL0     C86192   5.900   3.138  10.492  0.5038 -0.1104  0.4630
  639MOL0     C86193   5.895   3.136  10.637 -0.0125 -0.4542 -0.1312
  639MOL0     C86194   5.899   3.101  10.758  1.1802 -1.7332  0.0808
  639MOL0     C86195   6.283   3.430  10.045 -0.2759 -0.0530  0.7189
  639MOL0     C86196   6.399   3.431   9.970  0.2916  0.1417 -0.1839
  639MOL0     C86197   6.496   3.545   9.967 -0.2335 -0.2615  0.2291
  639MOL0     H86198   6.672   3.401   9.600  0.4528 -0.8301 -1.0249
  639MOL0     H86199   6.879   3.441   9.465  1.2042  0.9301  0.5682
  639MOL0     H86200   7.071   3.296   9.382  0.1774 -1.9292  1.4904
  639MOL0     H86201   7.219   3.392   9.358  0.5246 -0.4875 -0.0583
  639MOL0     H86202   7.170   3.149   9.538 -0.1017 -1.6067 -1.8226
  639MOL0     H86203   7.305   3.259   9.559 -0.4109  0.0872 -0.5508
  639MOL0     H86204   7.393   3.211   9.333 -0.5804 -0.5006 -2.8579
  639MOL0     H86205   7.235   3.134   9.286 -4.3873  2.5481  3.5971
  639MOL0     H86206   7.448   3.045   9.482  0.3252 -1.9315 -0.6817
  639MOL0     H86207   7.287   2.958   9.477 -1.2320 -2.2390 -0.5798
  639MOL0     H86208   7.354   2.947   9.226 -0.5428 -2.4219  0.6031
  639MOL0     H86209   7.529   2.965   9.277 -0.3955 -1.3216 -4.3254
  639MOL0     H86210   7.323   2.746   9.349  1.3817 -1.6575  4.9267
  639MOL0     H86211   7.468   2.728   9.255 -1.8338  1.5969 -0.9312
  639MOL0     H86212   7.449   2.757   9.558  2.0849  0.7936 -0.1232
  639MOL0     H86213   7.603   2.816   9.476  3.5621 -1.7457 -2.7276
  639MOL0     H86214   7.473   2.554   9.421 -0.7655  1.4964 -2.6161
  639MOL0     H86215   7.625   2.611   9.357 -0.0554 -0.0237  0.7063
  639MOL0     H86216   7.525   2.353   9.560 -0.5963  1.6466 -0.0345
  639MOL0     H86217   7.826   2.246   9.787 -0.0157  1.0457 -0.8579
  639MOL0     H86218   7.669   2.194   9.743 -0.6343 -0.1576 -0.9394
  639MOL0     H86219   7.846   2.204   9.507 -0.3445 -0.6036 -0.2206
  639MOL0     H86220   7.913   2.101   9.650 -0.2768 -2.2955 -2.2525
  639MOL0     H86221   7.714   1.971   9.629  0.1781 -1.5738 -0.7076
  639MOL0     H86222   7.798   1.976   9.469  1.1533  1.3448  0.4358
  639MOL0     H86223   7.548   2.126   9.525  1.0964  0.8755  0.2283
  639MOL0     H86224   7.563   1.980   9.435 -0.3592  0.0444  0.3985
  639MOL0     H86225   7.390   2.195   9.387 -1.1037  2.8913  0.8558
  639MOL0     H86226   7.252   2.347   9.286 -2.1550 -7.4322  0.5193
  639MOL0     H86227   7.076   2.406   8.876 -1.7283  2.0131 -5.6435
  639MOL0     H86228   6.917   2.523   8.746  1.7224  1.4248 -3.0986
  639MOL0     H86229   6.829   2.700   8.608 -0.9533 -3.1717  0.6275
  639MOL0     H86230   6.698   2.620   8.701 -1.1083  0.9363  4.3015
  639MOL0     H86231   6.568   2.823   8.734 -0.3283 -0.3213  0.7505
  639MOL0     H86232   6.681   2.919   8.633  3.5784 -0.6421  0.5618
  639MOL0     H86233   6.627   2.765   8.436 -1.4744 -4.4384 -0.9660
  639MOL0     H86234   6.510   2.681   8.536 -2.2343  0.4530 -2.9362
  639MOL0     H86235   6.411   2.860   8.385  2.4557  2.0648 -1.1570
  639MOL0     H86236   6.505   2.979   8.456 -2.3112  1.8333  1.1446
  639MOL0     H86237   6.283   2.985   8.535 -1.0560 -1.1900  0.2661
  639MOL0     H86238   6.372   2.962   8.675  0.9221 -0.4245  0.9073
  639MOL0     H86239   6.313   2.714   8.679 -0.2652 -1.1521  0.7915
  639MOL0     H86240   6.180   2.826   8.684  0.6191  1.3219  0.1007
  639MOL0     H86241   6.288   2.680   8.426  0.0525 -0.3001 -0.4355
  639MOL0     H86242   6.147   2.790   8.434  0.3138 -1.5252 -1.2183
  639MOL0     H86243   6.053   2.625   8.615 -0.1825  2.6589  0.2864
  639MOL0     H86244   6.048   2.568   8.448 -0.5349 -2.1504  1.2317
  639MOL0     H86245   6.858   2.811   9.049  1.3156  2.8332 -1.0552
  639MOL0     H86246   7.066   2.700   9.174 -0.9576  1.3056 -0.0972
  639MOL0     H86247   7.587   2.467   9.029 -1.3122 -1.8705 -0.9668
  639MOL0     H86248   7.730   2.309   9.148 -0.0033 -3.4028 -1.4621
  639MOL0     H86249   7.118   3.323   9.795 -0.1735 -0.2905  1.3333
  639MOL0     H86250   6.919   3.305   9.936 -1.2552  0.7938 -0.0756
  639MOL0     H86251   6.338   3.124   9.819  2.7549  1.8235 -0.7837
  639MOL0     H86252   6.126   3.149   9.935  1.2151 -1.4695 -0.7762
  639MOL0     H86253   6.045   3.451  10.270  2.0728  0.0717 -0.5663
  639MOL0     H86254   6.193   3.345  10.274  0.0173 -1.8836 -0.2058
  639MOL0     H86255   6.079   3.158  10.306 -0.7432 -0.4272  0.1207
  639MOL0     H86256   5.926   3.218  10.236  1.2777 -1.8067 -2.0195
  639MOL0     H86257   5.878   3.350  10.446 -0.6177 -0.3974 -1.6474
  639MOL0     H86258   6.034   3.303  10.511  1.1222  0.8685 -1.5886
  639MOL0     H86259   5.796   3.125  10.461  0.1956  0.8744  1.0324
  639MOL0     H86260   5.955   3.055  10.447 -1.2962 -0.4778 -1.1890
  639MOL0     H86261   5.905   3.086  10.864 -3.2054 -1.4777  0.5725
  639MOL0     H86262   6.258   3.519  10.102 -1.7706 -0.3603  0.6034
  639MOL0     H86263   6.496   3.592   9.868 -1.0053 -1.1080 -0.1824
  639MOL0     H86264   6.459   3.622  10.035 -0.9895 -0.3170 -0.1092
  639MOL0     H86265   6.597   3.514   9.995 -0.1694  1.0726  1.6528
  640MOL0     O86266   4.115   2.539   6.846  0.1282  0.2784  0.0831
  640MOL0     C86267   4.018   2.539   6.777 -0.4615 -0.8713 -0.5218
  640MOL0     O86268   3.957   2.655   6.723 -0.4309 -0.6561  1.0176
  640MOL0     C86269   4.012   2.766   6.780 -0.7462  0.7826  0.2814
  640MOL0     C86270   3.958   2.827   6.890  0.1397  0.7852 -0.5048
  640MOL0     C86271   4.007   2.944   6.953  0.2283  0.3044 -0.1170
  640MOL0     C86272   4.117   3.001   6.894  0.1316 -0.4110  1.4236
  640MOL0     O86273   4.176   3.106   6.963 -0.5017  0.1846 -0.0150
  640MOL0     C86274   4.311   3.149   6.943  0.2761  0.6979  0.4247
  640MOL0     C86275   4.334   3.237   7.058 -0.9109 -0.5546 -0.3364
  640MOL0     C86276   4.485   3.242   7.082 -0.4598  0.9265 -0.4643
  640MOL0     C86277   4.558   3.354   6.997  0.3697  0.3198  0.3408
  640MOL0     C86278   4.707   3.360   7.007 -1.1285  0.1316 -0.2956
  640MOL0     C86279   4.769   3.476   6.913  0.2159  0.5952  0.5722
  640MOL0     C86280   4.915   3.502   6.955  0.1292 -0.6686  0.1839
  640MOL0     C86281   4.975   3.622   6.878  0.1188  0.2709 -0.0245
  640MOL0     N86282   5.118   3.637   6.909  0.7219 -0.2697 -0.0308
  640MOL0     C86283   5.159   3.691   7.021  0.6118 -0.2199  0.0559
  640MOL0     C86284   5.296   3.674   7.020  0.2250 -0.3612  0.0790
  640MOL0     C86285   5.406   3.714   7.126  0.3950  0.4879  0.4664
  640MOL0     C86286   5.353   3.691   7.268 -0.0129 -0.5230 -0.3113
  640MOL0     C86287   5.456   3.720   7.388  0.0196  0.1166 -1.0837
  640MOL0     C86288   5.400   3.675   7.526  0.0053 -1.4331  0.7178
  640MOL0     O86289   5.504   3.687   7.626 -0.6607 -0.3432 -0.3542
  640MOL0     C86290   5.526   3.573   7.700 -1.2638 -0.7733  0.2555
  640MOL0     C86291   5.629   3.487   7.661 -0.0454 -1.5293 -0.5287
  640MOL0     C86292   5.672   3.388   7.750 -0.0277  0.8345 -0.0740
  640MOL0     C86293   5.595   3.362   7.873  0.8875  0.7563  0.4874
  640MOL0     C86294   5.611   3.241   7.957  0.3773  0.1049  0.2607
  640MOL0     O86295   5.727   3.174   7.916  0.1831 -0.4075 -1.0856
  640MOL0     C86296   5.753   3.040   7.953  0.8607  0.1629  0.1631
  640MOL0     C86297   5.667   2.948   8.034  0.7491  0.1907  0.0307
  640MOL0     C86298   5.718   2.818   8.073  0.4786 -0.5640 -1.0206
  640MOL0     C86299   5.838   2.765   8.013 -0.0623 -0.7405  0.3800
  640MOL0     O86300   5.880   2.651   8.077 -0.8758 -0.6078  0.3308
  640MOL0     C86301   5.930   2.547   7.997 -0.1744  0.2221  0.0507
  640MOL0     C86302   6.043   2.460   8.069 -1.1496 -0.3248  0.7913
  640MOL0     C86303   5.989   2.387   8.198  1.2272  0.1918 -0.0233
  640MOL0     C86304   6.099   2.296   8.257  0.2485  0.7079 -0.4856
  640MOL0     C86305   6.031   2.217   8.359  0.1874  0.1224  0.2938
  640MOL0     C86306   6.124   2.128   8.443  0.0208 -1.2922 -0.6301
  640MOL0     C86307   6.187   2.018   8.345  0.5367  0.2694 -0.0551
  640MOL0     C86308   6.230   1.899   8.416  0.3036 -0.0112  0.5671
  640MOL0    Cl86309   6.278   1.765   8.314 -0.1732 -0.6267 -0.1370
  640MOL0     C86310   5.911   2.849   7.926 -0.0373  0.1878 -0.2791
  640MOL0     C86311   5.867   2.981   7.898 -0.3693 -1.0194 -1.4216
  640MOL0     O86312   5.520   3.201   8.037 -0.2599 -0.8860 -0.3066
  640MOL0     C86313   5.487   3.452   7.906  0.4364  0.2240  0.2174
  640MOL0     C86314   5.455   3.557   7.812  0.1148  0.3656  0.7000
  640MOL0     N86315   5.325   3.610   6.903  0.9852  0.8955  0.0402
  640MOL0     N86316   5.217   3.588   6.837  0.3312  0.3803 -0.1570
  640MOL0     C86317   4.172   2.950   6.772  0.1579  0.7095  0.0952
  640MOL0     C86318   4.118   2.833   6.719  0.4971 -0.5118  1.2097
  640MOL0     C86319   3.970   2.404   6.742  0.7091  0.1493 -0.6552
  640MOL0     C86320   4.069   2.301   6.735  0.4642  0.0661 -0.2076
  640MOL0     C86321   4.035   2.165   6.723  0.1528 -0.5332 -1.1729
  640MOL0     C86322   3.909   2.123   6.731 -0.3059  0.6578  0.0104
  640MOL0     O86323   3.860   1.996   6.730 -0.2025 -0.4705  0.5667
  640MOL0     C86324   3.931   1.878   6.681 -0.1863 -0.2149  0.2924
  640MOL0     C86325   3.849   1.757   6.699 -0.2343 -0.7362  0.0102
  640MOL0     C86326   3.894   1.697   6.835  0.5486  0.2162  0.6323
  640MOL0     C86327   3.812   1.562   6.860  0.1660  0.0872  0.3669
  640MOL0     C86328   3.666   1.576   6.875  0.3716 -0.4127  0.1825
  640MOL0     C86329   3.551   1.563   6.879  0.2208 -0.2448  1.1570
  640MOL0     C86330   3.808   2.217   6.745  0.3094  0.5952 -0.0309
  640MOL0     C86331   3.840   2.359   6.742  0.4632 -0.1448  0.3538
  640MOL0     C86332   3.730   2.462   6.737 -0.1785 -1.0000 -0.1965
  640MOL0     H86333   3.866   2.775   6.914  0.0982 -0.6827 -3.5037
  640MOL0     H86334   3.974   2.983   7.049  1.5194  0.2827  0.3529
  640MOL0     H86335   4.385   3.069   6.943  0.1813  0.5807 -1.0228
  640MOL0     H86336   4.314   3.209   6.852  0.3295  1.6702  1.0497
  640MOL0     H86337   4.275   3.213   7.147  0.2649  1.9988  1.2525
  640MOL0     H86338   4.303   3.340   7.037 -0.3719 -0.7028 -2.0132
  640MOL0     H86339   4.535   3.154   7.041 -0.2496 -0.0433  1.7339
  640MOL0     H86340   4.503   3.250   7.190 -2.0983  1.3630 -0.1947
  640MOL0     H86341   4.523   3.329   6.896 -1.1978  0.9771  0.6922
  640MOL0     H86342   4.525   3.450   7.036 -1.0771 -0.5816  1.4246
  640MOL0     H86343   4.715   3.390   7.112 -2.4651  2.2935 -0.7269
  640MOL0     H86344   4.761   3.266   6.993  0.1285  0.6365  0.9607
  640MOL0     H86345   4.755   3.443   6.810 -0.8711 -1.6224  1.3643
  640MOL0     H86346   4.719   3.573   6.923 -4.5541 -1.6996  1.9358
  640MOL0     H86347   4.961   3.407   6.929  0.6005 -1.1780  2.5916
  640MOL0     H86348   4.933   3.527   7.060  4.0081  0.6788 -0.6419
  640MOL0     H86349   4.981   3.603   6.771 -3.5556 -0.6809 -0.2016
  640MOL0     H86350   4.928   3.719   6.897 -0.5304  0.5842 -2.7752
  640MOL0     H86351   5.107   3.740   7.102  2.1598  0.2775  0.7907
  640MOL0     H86352   5.498   3.656   7.112 -0.6932 -2.1905  3.3724
  640MOL0     H86353   5.419   3.823   7.124  1.0472  0.4106 -0.6925
  640MOL0     H86354   5.253   3.735   7.272 -0.3377 -1.2299 -0.5088
  640MOL0     H86355   5.329   3.585   7.284 -0.9789 -0.3001 -0.2112
  640MOL0     H86356   5.482   3.826   7.398 -0.2577 -0.0347  3.5233
  640MOL0     H86357   5.550   3.666   7.383 -1.2487 -2.5165  1.0344
  640MOL0     H86358   5.362   3.573   7.516  1.6837 -1.9092 -1.6443
  640MOL0     H86359   5.315   3.741   7.549  1.4890  0.6956  0.4553
  640MOL0     H86360   5.691   3.508   7.574  3.7986  1.3696  2.4877
  640MOL0     H86361   5.754   3.325   7.718  0.3456  2.2408 -2.1266
  640MOL0     H86362   5.578   2.987   8.083  0.6633  2.3373 -1.7016
  640MOL0     H86363   5.675   2.764   8.157  0.6261 -0.4614 -0.8773
  640MOL0     H86364   5.853   2.473   7.972  2.8366 -2.8938 -0.7760
  640MOL0     H86365   5.972   2.590   7.906 -3.3007 -0.4395 -1.8410
  640MOL0     H86366   6.070   2.382   7.998 -2.1763  0.6168 -0.6698
  640MOL0     H86367   6.126   2.528   8.091  0.8805 -2.6621  0.7991
  640MOL0     H86368   5.960   2.458   8.275 -0.3589  0.0730 -0.4683
  640MOL0     H86369   5.901   2.331   8.165  1.7562  0.7090 -2.5411
  640MOL0     H86370   6.175   2.348   8.315 -0.3916  3.6693 -2.1010
  640MOL0     H86371   6.139   2.237   8.174 -2.9979  1.3563 -2.7390
  640MOL0     H86372   5.953   2.150   8.323 -0.2569 -0.0773  1.5580
  640MOL0     H86373   5.986   2.289   8.428  1.4451 -0.4564  1.7814
  640MOL0     H86374   6.201   2.178   8.503 -0.5083 -2.0035  0.7051
  640MOL0     H86375   6.069   2.066   8.516  0.1863  0.1523  0.7866
  640MOL0     H86376   6.256   2.063   8.273 -3.1351  4.1442 -1.5884
  640MOL0     H86377   6.102   1.975   8.291 -0.5111  3.6244 -1.3163
  640MOL0     H86378   6.311   1.914   8.488 -0.2787  0.0826  1.2153
  640MOL0     H86379   6.154   1.851   8.478  0.3212 -3.9181 -2.0449
  640MOL0     H86380   6.001   2.795   7.895 -1.9326 -2.8326 -0.9854
  640MOL0     H86381   5.932   3.045   7.840 -0.6584  1.5778  0.8820
  640MOL0     H86382   5.437   3.428   7.999 -0.0408 -2.6879 -0.6803
  640MOL0     H86383   5.372   3.624   7.829  0.0654  1.1568 -2.1592
  640MOL0     H86384   4.256   2.998   6.722 -1.3514 -1.5588 -5.3294
  640MOL0     H86385   4.172   2.794   6.633 -0.9864 -0.6771  0.3214
  640MOL0     H86386   4.175   2.310   6.756  0.4413 -2.1017  1.1421
  640MOL0     H86387   4.107   2.085   6.715 -0.8073 -1.6650  0.6951
  640MOL0     H86388   4.026   1.875   6.734 -0.0412  2.1021  0.2304
  640MOL0     H86389   3.950   1.886   6.573 -0.4230  0.8096  0.3254
  640MOL0     H86390   3.872   1.683   6.622  1.3441  0.8966 -1.1597
  640MOL0     H86391   3.744   1.788   6.698 -0.4581 -1.4691 -1.1884
  640MOL0     H86392   3.891   1.766   6.920  1.8580 -0.5422  1.3195
  640MOL0     H86393   4.001   1.675   6.828  1.1259  2.4537  1.4860
  640MOL0     H86394   3.825   1.507   6.767  0.4070  0.5820  0.1088
  640MOL0     H86395   3.850   1.513   6.950 -3.6165  0.4635  2.3795
  640MOL0     H86396   3.447   1.543   6.898  0.1225 -4.1779 -2.0530
  640MOL0     H86397   3.705   2.187   6.729 -0.2488  1.6337  1.3789
  640MOL0     H86398   3.640   2.425   6.787 -1.2664  0.9825 -0.5794
  640MOL0     H86399   3.754   2.546   6.803 -0.3273 -1.0174 -0.1213
  640MOL0     H86400   3.697   2.500   6.640 -0.5404 -1.4657 -0.2602
  641MOL0     O86401   7.622   9.278   7.248  0.0083 -0.5716 -0.1563
  641MOL0     C86402   7.547   9.183   7.232 -0.7718 -0.2150 -0.0752
  641MOL0     O86403   7.575   9.052   7.264  0.4108 -0.2895  1.3274
  641MOL0     C86404   7.696   8.993   7.269 -1.0646  0.5466 -0.4355
  641MOL0     C86405   7.827   9.064   7.268  0.6338 -0.7107 -0.4651
  641MOL0     C86406   7.944   8.993   7.303  0.1545 -0.9069  0.3956
  641MOL0     C86407   7.932   8.855   7.338 -0.2736 -0.5292  0.1904
  641MOL0     O86408   8.052   8.782   7.365 -0.2928 -0.0686 -0.9068
  641MOL0     C86409   8.039   8.680   7.471 -1.0068 -0.5872  0.1738
  641MOL0     C86410   8.174   8.653   7.536  0.3342  0.2136 -0.1464
  641MOL0     C86411   8.234   8.778   7.603 -0.1194 -0.1111  0.2348
  641MOL0     C86412   8.343   8.751   7.709  1.0975 -0.8961  1.7065
  641MOL0     C86413   8.435   8.880   7.735  0.3111  0.2252 -0.1643
  641MOL0     C86414   8.551   8.843   7.824  0.1529 -0.4045 -0.0799
  641MOL0     C86415   8.668   8.785   7.750  0.0986  0.2178  0.0703
  641MOL0     C86416   8.750   8.705   7.835 -0.2517  0.7264  0.7277
  641MOL0     N86417   8.898   8.701   7.783  0.2037 -0.8636 -0.1672
  641MOL0     C86418   8.924   8.697   7.645 -0.4616  0.9340  0.0316
  641MOL0     C86419   9.059   8.710   7.636 -0.5481  0.4687  0.7078
  641MOL0     C86420   9.154   8.721   7.512 -0.3933  0.5709  0.0649
  641MOL0     C86421   9.266   8.830   7.542 -0.3368  0.5131  0.4047
  641MOL0     C86422   9.358   8.839   7.429  0.1034  0.0234 -0.1685
  641MOL0     C86423   9.464   8.952   7.453 -0.2676  0.9226 -0.2676
  641MOL0     O86424   9.545   8.923   7.566 -1.0833 -0.0391  0.4885
  641MOL0     C86425   9.533   9.021   7.666  0.7239 -0.6319  0.7507
  641MOL0     C86426   9.427   9.045   7.756 -0.4915 -0.3387 -0.3144
  641MOL0     C86427   9.441   9.140   7.862  0.8020 -0.3398  1.0103
  641MOL0     C86428   9.554   9.218   7.864 -0.7450 -0.3870 -0.4152
  641MOL0     C86429   9.547   9.337   7.954  0.6192  0.3474  0.3182
  641MOL0     O86430   9.427   9.365   8.005 -0.6079 -1.1951 -0.0900
  641MOL0     C86431   9.403   9.478   8.083  0.0523  0.3126  0.3477
  641MOL0     C86432   9.282   9.467   8.148  0.1362  0.8388  0.5445
  641MOL0     C86433   9.233   9.558   8.242  0.0730 -0.3129 -0.0569
  641MOL0     C86434   9.307   9.676   8.270  1.3245 -0.7427  0.6523
  641MOL0     O86435   9.257   9.776   8.357  0.6454 -0.2308 -0.1308
  641MOL0     C86436   9.116   9.796   8.378 -0.0046 -1.2766  0.6750
  641MOL0     C86437   9.096   9.945   8.351 -0.7678 -0.0407 -0.2708
  641MOL0     C86438   8.956   9.979   8.303  0.3546  0.5177  0.2408
  641MOL0     C86439   8.908  10.120   8.323  0.0665  0.2310 -0.3089
  641MOL0     C86440   8.768  10.144   8.278  0.4335  0.9895 -0.0585
  641MOL0     C86441   8.665  10.086   8.375 -0.0007 -0.9438 -0.1934
  641MOL0     C86442   8.527  10.096   8.336 -0.5026 -0.5257  0.5028
  641MOL0     C86443   8.429  10.041   8.441 -0.2499 -0.1773 -0.8246
  641MOL0    Cl86444   8.472   9.859   8.484  0.3585  0.0207  0.2704
  641MOL0     C86445   9.421   9.701   8.191 -0.3980  0.4227 -0.7372
  641MOL0     C86446   9.477   9.601   8.101  1.1010 -0.0899  0.1759
  641MOL0     O86447   9.655   9.391   7.975  0.1870  0.0288 -0.0380
  641MOL0     C86448   9.673   9.195   7.785  0.3971 -0.7170 -0.0586
  641MOL0     C86449   9.662   9.089   7.685 -0.3286 -0.5061 -0.3829
  641MOL0     N86450   9.110   8.705   7.766 -0.3840  0.4312  0.6186
  641MOL0     N86451   9.015   8.694   7.851 -0.6651 -0.1660 -0.7829
  641MOL0     C86452   7.806   8.788   7.334 -0.4099 -0.0575 -0.3228
  641MOL0     C86453   7.691   8.855   7.294  0.2428 -0.9442  0.0003
  641MOL0     C86454   7.412   9.201   7.165  0.2432  0.6548  0.4357
  641MOL0     C86455   7.319   9.297   7.224  1.2131 -0.0089  1.1543
  641MOL0     C86456   7.181   9.302   7.188 -0.6064  0.0481  0.6967
  641MOL0     C86457   7.139   9.214   7.084  0.6759 -1.0019 -0.8663
  641MOL0     O86458   7.010   9.217   7.039 -0.0216  0.6553 -0.0107
  641MOL0     C86459   6.905   9.219   7.134  0.8442  0.2193  0.1340
  641MOL0     C86460   6.818   9.102   7.095  0.2658  0.3468 -0.0796
  641MOL0     C86461   6.887   8.966   7.075  0.1604 -0.2456 -0.0591
  641MOL0     C86462   6.773   8.858   7.060 -0.3804 -0.9792 -0.6238
  641MOL0     C86463   6.689   8.839   7.185  0.2026 -0.2015  1.5893
  641MOL0     C86464   6.603   8.857   7.270  0.9579  0.1655  0.3998
  641MOL0     C86465   7.227   9.123   7.020 -0.3444  0.2925  0.9294
  641MOL0     C86466   7.368   9.120   7.051 -0.0107  0.0156 -0.3627
  641MOL0     C86467   7.462   9.003   6.995 -0.2516 -0.1092 -0.4292
  641MOL0     H86468   7.826   9.170   7.243 -4.8393 -0.6138 -0.9320
  641MOL0     H86469   8.042   9.038   7.298 -0.5986  0.6886 -1.0206
  641MOL0     H86470   7.968   8.710   7.548 -0.9127 -0.9551  0.4052
  641MOL0     H86471   7.997   8.591   7.423  0.1682 -0.6593 -0.7964
  641MOL0     H86472   8.236   8.604   7.461  0.3734 -1.2887  0.8256
  641MOL0     H86473   8.147   8.587   7.619  1.2118  3.2365  2.7825
  641MOL0     H86474   8.153   8.825   7.658  2.8428  1.8040  3.2975
  641MOL0     H86475   8.276   8.846   7.529  0.6382  1.4484  2.0295
  641MOL0     H86476   8.301   8.708   7.800  2.3225  2.7884  4.2609
  641MOL0     H86477   8.408   8.674   7.668  0.8063 -0.5502  0.5497
  641MOL0     H86478   8.470   8.915   7.638  0.3333 -0.4643 -0.4104
  641MOL0     H86479   8.378   8.954   7.792 -0.0306 -0.4068  0.3310
  641MOL0     H86480   8.585   8.918   7.896 -0.7774 -1.2969  1.3420
  641MOL0     H86481   8.521   8.759   7.887 -0.5302 -0.8388 -0.9549
  641MOL0     H86482   8.719   8.874   7.711 -1.1955  1.1380  0.4082
  641MOL0     H86483   8.645   8.735   7.656 -1.2472 -0.5728  0.7950
  641MOL0     H86484   8.748   8.745   7.937 -1.9581 -4.0633  2.8671
  641MOL0     H86485   8.711   8.603   7.829  0.5780  0.3634  1.3581
  641MOL0     H86486   8.846   8.684   7.570 -0.4026 -1.7121  0.3215
  641MOL0     H86487   9.204   8.624   7.507 -0.0918  0.7988 -2.6535
  641MOL0     H86488   9.100   8.738   7.419 -0.3207 -2.6157 -0.6660
  641MOL0     H86489   9.224   8.926   7.574 -1.6284 -0.2068  0.9389
  641MOL0     H86490   9.319   8.796   7.631 -2.7165  2.2238  2.6303
  641MOL0     H86491   9.295   8.869   7.345 -3.4852  0.5013  2.4698
  641MOL0     H86492   9.407   8.744   7.408 -0.9650 -0.5127 -0.2940
  641MOL0     H86493   9.410   9.045   7.469  2.5373  2.5423  0.5750
  641MOL0     H86494   9.530   8.954   7.365  0.5957 -1.0319  0.2684
  641MOL0     H86495   9.334   8.990   7.747 -0.7797  0.2690 -1.1534
  641MOL0     H86496   9.363   9.158   7.936  2.9592 -0.8743  3.6020
  641MOL0     H86497   9.233   9.375   8.119  4.8787 -1.2498 -1.9154
  641MOL0     H86498   9.132   9.539   8.276 -0.3435  1.6375 -0.0898
  641MOL0     H86499   9.058   9.730   8.313  0.4881 -0.2883 -0.8288
  641MOL0     H86500   9.095   9.775   8.484 -0.4048 -2.7837  0.3270
  641MOL0     H86501   9.096  10.000   8.445 -0.5936  0.6568 -0.6737
  641MOL0     H86502   9.167   9.989   8.280  1.5544  1.1029  2.5282
  641MOL0     H86503   8.954   9.948   8.198  1.8815  2.2889 -0.3650
  641MOL0     H86504   8.892   9.907   8.356 -0.8953  1.1190 -0.4147
  641MOL0     H86505   8.974  10.182   8.262 -0.2758 -0.5859 -1.5594
  641MOL0     H86506   8.921  10.141   8.429  0.4210 -1.6702  0.0665
  641MOL0     H86507   8.738  10.100   8.182 -3.6498  0.0804  1.4599
  641MOL0     H86508   8.751  10.251   8.269  0.7730  1.0522  0.0378
  641MOL0     H86509   8.704   9.987   8.400  1.6750 -0.0180  1.0925
  641MOL0     H86510   8.680  10.154   8.459 -0.3712 -1.7462  0.5299
  641MOL0     H86511   8.514  10.050   8.237 -1.6871 -0.5370  0.6538
  641MOL0     H86512   8.500  10.202   8.337  3.1319  0.5500 -0.5193
  641MOL0     H86513   8.441  10.110   8.525 -2.5796 -0.9986  0.2964
  641MOL0     H86514   8.324  10.042   8.409 -0.1542  0.7684 -1.1469
  641MOL0     H86515   9.467   9.798   8.206  0.5543 -0.4647  3.2354
  641MOL0     H86516   9.567   9.623   8.045 -0.3444 -1.9225 -3.2198
  641MOL0     H86517   9.756   9.263   7.797  0.1765 -0.5674  0.6272
  641MOL0     H86518   9.752   9.060   7.631  1.7088  1.0577  1.9025
  641MOL0     H86519   7.803   8.680   7.340  0.2768 -0.0217  1.1383
  641MOL0     H86520   7.592   8.809   7.295  0.2564 -1.0094  1.5962
  641MOL0     H86521   7.358   9.366   7.299  0.3242  3.1900 -1.0747
  641MOL0     H86522   7.114   9.368   7.244  0.2149 -0.5140  2.4250
  641MOL0     H86523   6.866   9.321   7.126  0.4130  0.2043  1.7294
  641MOL0     H86524   6.927   9.205   7.240 -1.8720 -1.9463  0.5082
  641MOL0     H86525   6.762   9.126   7.004  1.0023  2.0114 -0.1368
  641MOL0     H86526   6.750   9.099   7.180  2.6133  4.0706  2.2227
  641MOL0     H86527   6.954   8.937   7.156 -0.7721 -2.8339 -0.1222
  641MOL0     H86528   6.943   8.974   6.981 -0.8507  0.7091 -0.6061
  641MOL0     H86529   6.712   8.891   6.976  1.0540  0.5720 -1.1126
  641MOL0     H86530   6.801   8.754   7.041 -4.3159 -2.0627 -1.3239
  641MOL0     H86531   6.519   8.877   7.334 -3.3959 -2.5494 -3.8010
  641MOL0     H86532   7.192   9.046   6.951 -1.5567  1.0332  0.6886
  641MOL0     H86533   7.423   8.914   7.045 -0.2113  0.4887  0.6940
  641MOL0     H86534   7.467   8.995   6.886  0.0605 -0.2462 -0.4066
  641MOL0     H86535   7.563   9.015   7.036 -0.4707 -3.6929  1.5899
  642MOL0     O86536  10.208   7.831   8.864  0.3785 -0.3639  0.2948
  642MOL0     C86537  10.145   7.895   8.949 -0.4199 -0.1277 -0.1003
  642MOL0     O86538  10.155   8.035   8.969 -0.1910 -0.3585  0.3638
  642MOL0     C86539  10.215   8.136   8.889 -0.2353 -0.0701 -0.0176
  642MOL0     C86540  10.250   8.259   8.942 -0.3356 -1.4782 -0.4800
  642MOL0     C86541  10.335   8.349   8.875  0.6393  0.1654  0.3553
  642MOL0     C86542  10.348   8.325   8.736 -0.8470 -1.0612  0.3509
  642MOL0     O86543  10.394   8.429   8.656 -0.2747 -0.6329 -0.4492
  642MOL0     C86544  10.499   8.525   8.705 -0.1582  0.1847  0.8824
  642MOL0     C86545  10.599   8.503   8.589  0.6567  0.0799  0.4435
  642MOL0     C86546  10.563   8.554   8.445  0.3662  1.0764 -1.0448
  642MOL0     C86547  10.649   8.482   8.343 -0.1915 -0.2295 -0.0431
  642MOL0     C86548  10.694   8.573   8.226  0.4233  0.6556 -0.2739
  642MOL0     C86549  10.585   8.622   8.129 -1.0991  0.2508  0.5634
  642MOL0     C86550  10.636   8.644   7.988  0.2605 -0.8069  0.1945
  642MOL0     C86551  10.732   8.765   7.998 -0.2154 -0.2558 -0.5133
  642MOL0     N86552  10.672   8.886   8.042  0.3288  0.3878 -0.5938
  642MOL0     C86553  10.566   8.959   7.979 -0.9589  0.0675 -0.2947
  642MOL0     C86554  10.570   9.076   8.044 -0.8002  0.2252  0.6404
  642MOL0     C86555  10.475   9.192   8.004 -0.1214  0.8737 -0.5280
  642MOL0     C86556  10.541   9.293   7.915  1.1857 -0.7222  0.5782
  642MOL0     C86557  10.535   9.440   7.976  1.0907  1.2581 -0.4120
  642MOL0     C86558  10.597   9.537   7.882 -0.3001 -0.9979 -0.6815
  642MOL0     O86559  10.592   9.671   7.934 -0.9819 -0.0419  0.5681
  642MOL0     C86560  10.706   9.726   7.996  0.3143 -0.2246  0.3005
  642MOL0     C86561  10.693   9.861   8.020  0.5488  1.7205 -0.4363
  642MOL0     C86562  10.806   9.937   8.069  0.1156  0.0142 -0.2441
  642MOL0     C86563  10.932   9.874   8.084  0.7986 -0.4806  0.3163
  642MOL0     C86564  11.055   9.942   8.119 -0.7927  0.3110 -0.2154
  642MOL0     O86565  11.177   9.871   8.116  0.0449 -0.1747 -0.0141
  642MOL0     C86566  11.287   9.947   8.153  0.2510 -0.2001  0.5809
  642MOL0     C86567  11.310  10.014   8.269  0.7291 -1.0128  0.2448
  642MOL0     C86568  11.430  10.089   8.292 -0.7518  0.3985 -0.2189
  642MOL0     C86569  11.532  10.074   8.199 -0.2315 -0.0955 -0.0698
  642MOL0     O86570  11.653  10.121   8.233 -0.4538  0.2180  0.1073
  642MOL0     C86571  11.762  10.026   8.204  0.1494 -0.3017  0.2989
  642MOL0     C86572  11.878  10.042   8.302  0.1780 -1.0033  0.8054
  642MOL0     C86573  11.955   9.904   8.290  0.0542  0.9856  0.0452
  642MOL0     C86574  12.052   9.915   8.408  0.5753 -0.1653  0.5207
  642MOL0     C86575  12.127   9.793   8.446  0.1306  0.2716 -0.4454
  642MOL0     C86576  12.243   9.798   8.540 -0.2077  0.4980 -0.2635
  642MOL0     C86577  12.221   9.851   8.679  0.9045 -0.1685  0.8905
  642MOL0     C86578  12.117   9.781   8.768  0.1420 -0.0234 -0.0770
  642MOL0    Cl86579  12.188   9.615   8.825  0.0743  0.0545  0.4583
  642MOL0     C86580  11.516   9.999   8.081 -0.6439 -0.1580  0.4314
  642MOL0     C86581  11.387   9.939   8.064 -1.1254 -0.9148  0.0718
  642MOL0     O86582  11.056  10.056   8.142  0.3841  0.4179 -0.5656
  642MOL0     C86583  10.929   9.734   8.076 -0.0594  0.2581 -0.5801
  642MOL0     C86584  10.821   9.661   8.041  0.0775 -0.1826  0.5480
  642MOL0     N86585  10.657   9.059   8.160  0.2292 -0.1494 -0.1675
  642MOL0     N86586  10.707   8.940   8.164  0.2634 -0.9682 -0.1860
  642MOL0     C86587  10.310   8.205   8.676 -0.4712 -0.8385  0.1812
  642MOL0     C86588  10.243   8.111   8.751 -0.0434 -0.0693  0.1763
  642MOL0     C86589  10.062   7.809   9.035  0.4619 -0.6074 -0.9331
  642MOL0     C86590   9.985   7.713   8.976 -0.1608 -0.9205 -0.2061
  642MOL0     C86591   9.892   7.633   9.041  0.6453 -0.3653 -0.5498
  642MOL0     C86592   9.870   7.647   9.181  0.5611 -1.1360 -0.4412
  642MOL0     O86593   9.770   7.571   9.242  0.1325  0.4718 -0.7566
  642MOL0     C86594   9.708   7.646   9.349 -0.9944 -0.2334  0.6121
  642MOL0     C86595   9.564   7.590   9.368  0.2090  0.1760  1.2164
  642MOL0     C86596   9.523   7.476   9.467  0.5654 -0.3073  0.1497
  642MOL0     C86597   9.586   7.345   9.449 -0.0789  0.2345  0.0238
  642MOL0     C86598   9.532   7.265   9.344  0.3305 -0.1698 -0.1810
  642MOL0     C86599   9.489   7.196   9.252 -0.4553  0.5178 -0.7711
  642MOL0     C86600   9.943   7.741   9.248 -0.4282  0.2819  0.6020
  642MOL0     C86601  10.043   7.819   9.178 -0.3287  0.5944  0.0154
  642MOL0     C86602  10.124   7.907   9.266  0.4996 -0.1513  0.4386
  642MOL0     H86603  10.222   8.278   9.045 -0.6880 -1.6241 -0.5476
  642MOL0     H86604  10.354   8.444   8.922  3.6774 -0.4347  0.5230
  642MOL0     H86605  10.467   8.630   8.705  0.0870  0.2969 -1.3913
  642MOL0     H86606  10.549   8.501   8.800 -0.7630  0.4504  1.2713
  642MOL0     H86607  10.613   8.395   8.589  0.2050  0.0200  0.4647
  642MOL0     H86608  10.688   8.559   8.618  2.2103 -0.6084 -2.5961
  642MOL0     H86609  10.576   8.661   8.429 -0.2657  1.7815  2.3009
  642MOL0     H86610  10.461   8.528   8.414  0.4707  3.6035 -3.9934
  642MOL0     H86611  10.734   8.437   8.394  0.0369  0.2310 -0.0152
  642MOL0     H86612  10.593   8.396   8.306  0.1335 -0.3677 -0.2150
  642MOL0     H86613  10.734   8.664   8.272 -2.0597  1.6485  0.0982
  642MOL0     H86614  10.763   8.511   8.168  1.1002 -1.6343  2.7042
  642MOL0     H86615  10.512   8.542   8.119  0.3101 -1.1087  0.7185
  642MOL0     H86616  10.540   8.707   8.181 -1.5168 -1.6762  3.6566
  642MOL0     H86617  10.550   8.668   7.924  0.3872 -2.8901 -0.8372
  642MOL0     H86618  10.685   8.552   7.955 -1.4009 -0.8108 -2.5607
  642MOL0     H86619  10.822   8.745   8.057 -1.0374 -1.3467  0.4151
  642MOL0     H86620  10.768   8.777   7.895  0.0446  0.2721 -0.3644
  642MOL0     H86621  10.507   8.921   7.897  0.9546  0.1073 -1.7452
  642MOL0     H86622  10.388   9.147   7.954  2.3864 -2.5383 -2.2492
  642MOL0     H86623  10.451   9.239   8.100  0.7824  3.1415 -1.3594
  642MOL0     H86624  10.643   9.264   7.889  0.4581 -0.8779 -2.5557
  642MOL0     H86625  10.475   9.290   7.828  0.6383 -0.4789  0.9833
  642MOL0     H86626  10.581   9.431   8.075 -1.8800 -0.6357  0.9393
  642MOL0     H86627  10.430   9.467   7.987  1.4612  3.1973 -1.2412
  642MOL0     H86628  10.535   9.529   7.792 -1.6551 -0.6504  0.1780
  642MOL0     H86629  10.693   9.503   7.842  0.2373 -0.0946 -0.1742
  642MOL0     H86630  10.604   9.917   7.992 -0.7547 -1.1238 -2.5311
  642MOL0     H86631  10.780  10.041   8.087 -2.1793 -0.7768  1.6737
  642MOL0     H86632  11.231  10.022   8.343 -0.0341  0.3334 -0.6780
  642MOL0     H86633  11.445  10.137   8.388  1.6958  4.6456 -2.3934
  642MOL0     H86634  11.715   9.929   8.224 -1.1745  0.4921  1.1787
  642MOL0     H86635  11.789  10.024   8.098 -2.4569  0.3252 -0.4613
  642MOL0     H86636  11.936  10.130   8.273 -0.7037 -0.1265  1.6346
  642MOL0     H86637  11.839  10.052   8.404  1.7539  0.3908  1.3204
  642MOL0     H86638  11.896   9.818   8.322  3.2223 -0.5528  2.3918
  642MOL0     H86639  11.996   9.888   8.190 -3.1305 -2.5738 -0.8979
  642MOL0     H86640  12.021   9.965   8.500 -1.1755 -1.7079  0.8310
  642MOL0     H86641  12.131   9.983   8.376  0.5489 -1.0371 -1.5421
  642MOL0     H86642  12.172   9.752   8.355  0.1090 -0.5852 -0.0738
  642MOL0     H86643  12.055   9.724   8.491 -0.0716  1.4582  1.1227
  642MOL0     H86644  12.276   9.695   8.555 -1.5866  0.0382 -0.2014
  642MOL0     H86645  12.319   9.851   8.483 -0.5844 -0.1158 -1.3871
  642MOL0     H86646  12.182   9.952   8.670 -0.4099 -0.7866 -1.0690
  642MOL0     H86647  12.319   9.859   8.726  0.9807 -2.6648  1.3344
  642MOL0     H86648  12.100   9.837   8.860  0.4582 -0.7732  0.4481
  642MOL0     H86649  12.022   9.768   8.716 -1.8326 -0.6927  3.3871
  642MOL0     H86650  11.588   9.995   8.000  0.3870  0.0086  1.3145
  642MOL0     H86651  11.369   9.894   7.966  4.5001  0.4393 -2.0121
  642MOL0     H86652  11.017   9.677   8.107 -1.8756 -1.6382  1.4489
  642MOL0     H86653  10.808   9.554   8.030 -1.9243  0.1005 -0.3903
  642MOL0     H86654  10.331   8.187   8.571 -0.6390  4.3046 -0.9833
  642MOL0     H86655  10.234   8.016   8.700  2.1376  1.0021 -2.4818
  642MOL0     H86656   9.996   7.689   8.870 -1.7616  2.6906 -1.3607
  642MOL0     H86657   9.841   7.549   8.997  0.1396  0.1446 -0.9475
  642MOL0     H86658   9.695   7.752   9.325 -1.1862  0.3870  3.1512
  642MOL0     H86659   9.768   7.638   9.441  3.5032 -3.7066 -2.2232
  642MOL0     H86660   9.526   7.561   9.269 -1.3154 -0.0457  1.8364
  642MOL0     H86661   9.502   7.674   9.401  2.6257  1.1654  3.5531
  642MOL0     H86662   9.419   7.443   9.463  1.5432 -3.6158 -1.5458
  642MOL0     H86663   9.542   7.511   9.569  3.5352  0.8540 -0.6972
  642MOL0     H86664   9.691   7.366   9.425  0.1273 -0.9184 -0.1191
  642MOL0     H86665   9.578   7.283   9.539 -0.4846 -1.2015 -0.9690
  642MOL0     H86666   9.443   7.151   9.167 -1.2700 -2.1918  0.9530
  642MOL0     H86667   9.922   7.773   9.350 -1.6942  0.5560  0.2736
  642MOL0     H86668  10.145   7.861   9.363 -1.8071  1.8135  1.9721
  642MOL0     H86669  10.214   7.941   9.213 -0.1057 -0.4110 -0.8091
  642MOL0     H86670  10.060   7.986   9.305 -2.1214 -2.2071  0.5691
  643MOL0     O86671   1.850   9.317  10.243  0.5181 -0.2581  0.3292
  643MOL0     C86672   1.765   9.389  10.190 -0.2192 -0.1807  0.0350
  643MOL0     O86673   1.646   9.350  10.140  0.3121  0.1703 -0.4699
  643MOL0     C86674   1.619   9.223  10.099  0.5597  0.1871  0.2724
  643MOL0     C86675   1.488   9.211  10.030 -0.0891  0.1667  0.0232
  643MOL0     C86676   1.436   9.088  10.000 -0.1092 -0.6446 -0.5372
  643MOL0     C86677   1.520   8.979  10.002 -0.2965 -0.0375  0.1380
  643MOL0     O86678   1.463   8.858   9.964  0.4389 -0.1366  0.2095
  643MOL0     C86679   1.546   8.757   9.903 -0.7293  0.0399  0.3343
  643MOL0     C86680   1.602   8.818   9.764 -0.2416  0.4227 -0.1621
  643MOL0     C86681   1.487   8.845   9.671 -0.1938 -0.0239 -0.7462
  643MOL0     C86682   1.530   8.949   9.569  0.0149  0.0044  0.0249
  643MOL0     C86683   1.419   9.012   9.478  0.9450 -0.0471  1.0495
  643MOL0     C86684   1.482   9.126   9.401 -0.2937  0.4691 -0.7971
  643MOL0     C86685   1.389   9.240   9.361  0.7787  0.7498  1.1268
  643MOL0     C86686   1.271   9.188   9.266 -0.6398  0.0660  0.0223
  643MOL0     N86687   1.195   9.307   9.218  0.1656  0.4972  0.4945
  643MOL0     C86688   1.225   9.381   9.108 -0.3525  0.3537 -0.4001
  643MOL0     C86689   1.120   9.460   9.085 -0.3562  0.3620  0.0867
  643MOL0     C86690   1.126   9.583   8.987  0.4308  0.7133 -0.1970
  643MOL0     C86691   1.050   9.559   8.859  0.2793 -0.7803  0.9095
  643MOL0     C86692   1.121   9.459   8.764  0.1819 -0.1448  0.5304
  643MOL0     C86693   1.057   9.460   8.624  0.1527 -0.5293  0.0090
  643MOL0     O86694   0.912   9.440   8.636  0.5711 -0.3894 -0.1495
  643MOL0     C86695   0.841   9.411   8.513  0.9689 -0.2830 -0.1895
  643MOL0     C86696   0.705   9.395   8.533  0.6349 -1.9028 -0.0708
  643MOL0     C86697   0.610   9.365   8.431 -0.7860 -0.8460  0.0140
  643MOL0     C86698   0.668   9.339   8.308  0.2714 -1.1250  0.0498
  643MOL0     C86699   0.574   9.314   8.198 -0.3680 -0.5146 -1.0369
  643MOL0     O86700   0.620   9.348   8.070  0.6176 -0.3649 -0.3792
  643MOL0     C86701   0.612   9.261   7.961  0.6402 -0.2655  0.5339
  643MOL0     C86702   0.609   9.118   7.965  0.0681 -0.7162  0.5739
  643MOL0     C86703   0.604   9.044   7.851  0.4569  0.5584 -0.0445
  643MOL0     C86704   0.601   9.097   7.724 -0.4293 -0.8016  0.2491
  643MOL0     O86705   0.597   9.015   7.620 -0.1416  0.5434  0.9361
  643MOL0     C86706   0.621   9.054   7.486 -0.8613 -0.7481 -0.5399
  643MOL0     C86707   0.617   8.932   7.397 -0.1115  0.6484  0.3760
  643MOL0     C86708   0.741   8.837   7.432 -0.1423  0.3332  0.2357
  643MOL0     C86709   0.708   8.706   7.383 -0.3646  0.3780  1.4396
  643MOL0     C86710   0.731   8.686   7.229  0.3865 -0.3839 -0.6989
  643MOL0     C86711   0.630   8.579   7.179  0.2285 -0.4629 -0.0923
  643MOL0     C86712   0.663   8.446   7.255 -0.7104 -0.4254  0.0097
  643MOL0     C86713   0.651   8.336   7.159  0.4870  0.0536  0.0651
  643MOL0    Cl86714   0.645   8.166   7.232  0.4991  0.3303 -0.3664
  643MOL0     C86715   0.595   9.234   7.721 -0.5717 -0.1248 -0.6964
  643MOL0     C86716   0.609   9.316   7.833  0.5691 -0.3298 -0.1670
  643MOL0     O86717   0.465   9.271   8.225  0.1871  0.3646  0.1463
  643MOL0     C86718   0.804   9.355   8.288  0.2835  0.3305 -0.4751
  643MOL0     C86719   0.898   9.377   8.387  0.1804  0.0412 -0.0299
  643MOL0     N86720   1.025   9.423   9.177  0.4781  0.4467  0.3611
  643MOL0     N86721   1.066   9.328   9.243  0.3628  0.0779 -0.2043
  643MOL0     C86722   1.656   8.997  10.040  0.3731  0.0086 -0.4767
  643MOL0     C86723   1.701   9.111  10.107  0.4902 -0.1518  1.0072
  643MOL0     C86724   1.792   9.534  10.198  0.2221 -0.3311 -0.3548
  643MOL0     C86725   1.677   9.618  10.177 -0.0955  1.1819  0.1441
  643MOL0     C86726   1.691   9.762  10.163  0.3391  0.2605 -0.1133
  643MOL0     C86727   1.813   9.824  10.166 -0.8649 -0.1622  0.0268
  643MOL0     O86728   1.810   9.959  10.137 -0.6814 -0.4185  0.2369
  643MOL0     C86729   1.932  10.035  10.126  0.4128  0.2783 -0.1326
  643MOL0     C86730   1.901  10.189  10.084  0.7832  0.6890 -0.8414
  643MOL0     C86731   1.866  10.294  10.195  0.6067  0.5388  0.1908
  643MOL0     C86732   1.846  10.431  10.140 -0.2697  0.2411  0.3967
  643MOL0     C86733   1.752  10.444  10.028 -0.8897  0.3564 -0.0812
  643MOL0     C86734   1.682  10.475   9.938  1.4402  0.1596 -0.0591
  643MOL0     C86735   1.927   9.741  10.191 -0.2707 -0.4616  0.6213
  643MOL0     C86736   1.917   9.603  10.207 -0.0968 -0.1915 -0.2372
  643MOL0     C86737   2.054   9.531  10.243 -0.6477  0.1148  1.1173
  643MOL0     H86738   1.413   9.289  10.018 -0.1904 -0.2056 -2.1928
  643MOL0     H86739   1.331   9.078   9.972 -0.2400 -1.4889  0.2057
  643MOL0     H86740   1.629   8.732   9.969 -0.9506 -0.9922  0.2297
  643MOL0     H86741   1.481   8.672   9.881 -2.0115  1.1756 -0.4694
  643MOL0     H86742   1.664   8.742   9.716  1.3059  0.2849  1.9514
  643MOL0     H86743   1.669   8.901   9.786 -1.1525  1.1029  0.1495
  643MOL0     H86744   1.399   8.878   9.728 -1.6813 -4.2921 -0.1572
  643MOL0     H86745   1.452   8.751   9.626 -0.2398 -0.8361  0.8868
  643MOL0     H86746   1.578   9.027   9.629 -0.4479 -0.1279  0.5713
  643MOL0     H86747   1.607   8.910   9.501  0.4825  2.3526 -0.8878
  643MOL0     H86748   1.363   8.951   9.407 -0.0533  1.0298  0.8846
  643MOL0     H86749   1.340   9.055   9.540 -1.4797  0.1380 -1.9236
  643MOL0     H86750   1.562   9.169   9.462  0.3828 -0.7382 -0.8183
  643MOL0     H86751   1.527   9.071   9.318  0.0783  0.5059 -0.6234
  643MOL0     H86752   1.453   9.312   9.309 -2.1293  2.3185 -0.5666
  643MOL0     H86753   1.342   9.288   9.446 -2.2987  0.7240 -0.4021
  643MOL0     H86754   1.315   9.135   9.181 -2.1968 -1.4800  0.1222
  643MOL0     H86755   1.199   9.126   9.320  1.2697  0.7807  3.7698
  643MOL0     H86756   1.313   9.381   9.043  0.7905  0.6896  1.0984
  643MOL0     H86757   1.078   9.671   9.031  1.7006  0.3677  1.9962
  643MOL0     H86758   1.227   9.621   8.971  0.0514  1.9208  0.1312
  643MOL0     H86759   0.944   9.544   8.882 -1.0788  2.7019 -1.9287
  643MOL0     H86760   1.033   9.651   8.801  1.6353 -0.9812  0.1461
  643MOL0     H86761   1.110   9.366   8.820 -1.5796 -1.0189 -1.1609
  643MOL0     H86762   1.228   9.474   8.750  0.3909 -2.5817 -1.0228
  643MOL0     H86763   1.100   9.379   8.565  1.8462  0.3018  0.0357
  643MOL0     H86764   1.074   9.556   8.573 -2.7844 -1.3898 -2.8751
  643MOL0     H86765   0.669   9.404   8.635  2.2097 -0.1173  0.3690
  643MOL0     H86766   0.506   9.361   8.462 -0.7873  0.6497  0.2756
  643MOL0     H86767   0.624   9.066   8.059  0.3384 -1.7088 -0.0110
  643MOL0     H86768   0.610   8.938   7.873  1.1358  0.5395 -0.3058
  643MOL0     H86769   0.540   9.121   7.456  0.1329  1.4701  1.4136
  643MOL0     H86770   0.714   9.111   7.475 -1.0643 -0.1276  0.7990
  643MOL0     H86771   0.523   8.876   7.397  1.5903 -2.4363  1.1764
  643MOL0     H86772   0.633   8.963   7.294  4.2974  2.3948  1.3562
  643MOL0     H86773   0.838   8.876   7.401 -1.3999  2.8902 -0.7280
  643MOL0     H86774   0.742   8.831   7.541  0.2392 -0.2743  0.2054
  643MOL0     H86775   0.602   8.688   7.404 -0.9721 -0.0338 -1.4864
  643MOL0     H86776   0.768   8.632   7.435  0.5590  0.2383  0.2319
  643MOL0     H86777   0.836   8.655   7.217  0.4889  0.1776 -1.3134
  643MOL0     H86778   0.717   8.777   7.171  2.1186  1.0415  0.9521
  643MOL0     H86779   0.529   8.620   7.188  0.5088  0.6051 -1.4395
  643MOL0     H86780   0.637   8.574   7.070  1.6402  3.9818 -0.3730
  643MOL0     H86781   0.599   8.426   7.341 -1.8492  0.3411 -0.6386
  643MOL0     H86782   0.763   8.449   7.299 -0.4648  0.1011 -0.5687
  643MOL0     H86783   0.555   8.355   7.111  0.0905  1.0163  1.1778
  643MOL0     H86784   0.724   8.354   7.080  0.5368  4.8708  0.8903
  643MOL0     H86785   0.585   9.295   7.631  2.1542 -0.2918 -1.2119
  643MOL0     H86786   0.606   9.424   7.829  1.7718 -0.2143  1.1154
  643MOL0     H86787   0.837   9.323   8.190  4.9140 -3.0920  1.7756
  643MOL0     H86788   1.004   9.374   8.367  0.5912  2.2952  1.4665
  643MOL0     H86789   1.727   8.915  10.030  0.5717  0.0674  0.4130
  643MOL0     H86790   1.809   9.116  10.121  0.8699 -0.0309 -1.4959
  643MOL0     H86791   1.578   9.577  10.163  0.7790 -1.1781  0.4853
  643MOL0     H86792   1.601   9.817  10.140  0.0757 -1.0985 -2.8145
  643MOL0     H86793   1.996  10.001  10.043  2.7358  1.9314  0.8718
  643MOL0     H86794   1.980  10.033  10.224 -0.1655 -2.2131  0.1640
  643MOL0     H86795   1.816  10.181  10.016 -0.2432 -2.1729  0.5793
  643MOL0     H86796   1.980  10.217  10.014  2.5206 -2.5885 -0.3886
  643MOL0     H86797   1.949  10.290  10.266  3.2379 -1.1433 -2.7231
  643MOL0     H86798   1.778  10.265  10.254  1.7723 -2.1106  0.7853
  643MOL0     H86799   1.815  10.498  10.221  0.2745  1.2655 -0.2222
  643MOL0     H86800   1.939  10.465  10.094 -1.4001 -0.0996 -2.3580
  643MOL0     H86801   1.623  10.513   9.857  2.5299 -0.5486 -1.2280
  643MOL0     H86802   2.025   9.787  10.186 -0.1637 -0.8119 -1.2000
  643MOL0     H86803   2.038   9.451  10.316  1.5656  0.8933  2.5600
  643MOL0     H86804   2.062   9.465  10.157 -3.4384 -1.0060  1.5979
  643MOL0     H86805   2.147   9.585  10.263 -0.1581 -1.0454  2.1088
  644MOL0     O86806   1.082  10.901   1.156 -0.1290  0.7448  0.7123
  644MOL0     C86807   1.171  10.817   1.121 -0.1119  0.9137  0.2396
  644MOL0     O86808   1.235  10.725   1.199 -0.0856  0.5774 -0.4454
  644MOL0     C86809   1.200  10.726   1.334 -0.2685  0.0363  0.9061
  644MOL0     C86810   1.072  10.715   1.376 -0.8115 -0.3994  0.2595
  644MOL0     C86811   1.047  10.714   1.514 -0.9242  0.0616 -0.2378
  644MOL0     C86812   1.147  10.713   1.604  0.2180  0.4155 -0.7023
  644MOL0     O86813   1.093  10.711   1.730 -0.9388  0.9686  0.6311
  644MOL0     C86814   1.190  10.715   1.844  2.0321  0.6859  0.1164
  644MOL0     C86815   1.094  10.755   1.961  0.4910  0.4368 -0.4010
  644MOL0     C86816   1.179  10.812   2.079  0.3002  0.7036 -0.7950
  644MOL0     C86817   1.096  10.897   2.168 -0.1195  0.2760 -1.0791
  644MOL0     C86818   0.985  10.825   2.247  0.0065 -0.3625  0.3553
  644MOL0     C86819   0.936  10.911   2.360 -0.9504 -1.0459 -0.0098
  644MOL0     C86820   0.876  11.051   2.325 -0.0942 -0.3838  0.3039
  644MOL0     C86821   0.788  11.053   2.204 -0.8172 -0.4868  0.0266
  644MOL0     N86822   0.702  11.177   2.187  1.3992 -0.4545 -0.7983
  644MOL0     C86823   0.717  11.308   2.222 -0.3288 -0.4124 -0.0748
  644MOL0     C86824   0.605  11.367   2.169 -0.3257 -0.5504 -0.0757
  644MOL0     C86825   0.557  11.501   2.201 -0.5729  0.1923 -0.8606
  644MOL0     C86826   0.641  11.594   2.113  0.6029  0.7479  0.5303
  644MOL0     C86827   0.636  11.553   1.960  0.5604 -0.4951  0.5702
  644MOL0     C86828   0.717  11.658   1.871  0.7511  0.1967  0.3114
  644MOL0     O86829   0.831  11.714   1.938  0.3468  0.1666 -0.8962
  644MOL0     C86830   0.922  11.798   1.873  0.3500 -0.7042  0.0143
  644MOL0     C86831   0.995  11.884   1.961  0.2618 -0.8594  0.6959
  644MOL0     C86832   1.093  11.966   1.915 -0.1437 -0.5166 -0.1541
  644MOL0     C86833   1.120  11.977   1.777  0.3275  0.9542 -0.3966
  644MOL0     C86834   1.236  12.055   1.719  0.0730 -0.0202 -0.8178
  644MOL0     O86835   1.321  12.130   1.811  0.3032 -0.2935  0.5338
  644MOL0     C86836   1.416  12.210   1.762 -0.3391  0.5599 -0.1444
  644MOL0     C86837   1.531  12.158   1.691 -1.0621  0.6388  0.2316
  644MOL0     C86838   1.625  12.240   1.624 -0.8351  0.0208 -0.4650
  644MOL0     C86839   1.627  12.374   1.666  0.6140 -0.5553 -0.4679
  644MOL0     O86840   1.736  12.453   1.633 -0.5191 -0.0949 -0.0866
  644MOL0     C86841   1.706  12.570   1.571 -0.1407 -0.6128  0.4539
  644MOL0     C86842   1.673  12.563   1.431 -0.1880  0.6667 -0.1585
  644MOL0     C86843   1.524  12.545   1.416 -0.0951  0.1817  0.8537
  644MOL0     C86844   1.481  12.411   1.349  1.2716 -0.4383  0.5113
  644MOL0     C86845   1.335  12.395   1.303 -0.3935 -0.4650  0.0238
  644MOL0     C86846   1.239  12.387   1.423 -0.0983  0.6307  0.1490
  644MOL0     C86847   1.086  12.400   1.400  0.3355  1.1258 -0.3131
  644MOL0     C86848   1.004  12.359   1.526  1.6436  0.6201  1.0221
  644MOL0    Cl86849   0.818  12.356   1.486  0.1605  0.1898  0.0404
  644MOL0     C86850   1.535  12.415   1.762 -0.4597 -0.8133 -0.4286
  644MOL0     C86851   1.431  12.334   1.808 -0.4336  0.0975  0.6051
  644MOL0     O86852   1.245  12.064   1.602  0.1447 -0.0691 -0.1660
  644MOL0     C86853   1.030  11.903   1.694  0.2990 -0.3042  0.7754
  644MOL0     C86854   0.937  11.810   1.736 -0.8143 -0.8518 -0.7088
  644MOL0     N86855   0.548  11.276   2.085  0.2705  0.0629 -0.1786
  644MOL0     N86856   0.615  11.164   2.087  0.0355  0.5736  0.1560
  644MOL0     C86857   1.288  10.728   1.553  0.0210  0.2444  0.1336
  644MOL0     C86858   1.307  10.724   1.415  0.5331  0.5086  0.4263
  644MOL0     C86859   1.189  10.817   0.977 -0.0561 -0.5076  0.5615
  644MOL0     C86860   1.098  10.898   0.895 -0.9395  0.4648 -0.6121
  644MOL0     C86861   1.110  10.909   0.757  0.1261  0.5273 -0.2423
  644MOL0     C86862   1.216  10.851   0.693 -0.2095 -0.1135 -0.6946
  644MOL0     O86863   1.229  10.888   0.560 -0.3425  0.5825 -0.4557
  644MOL0     C86864   1.346  10.846   0.488  0.2730  0.3126 -0.5612
  644MOL0     C86865   1.337  10.701   0.445 -0.3451  0.7841  0.4835
  644MOL0     C86866   1.239  10.678   0.329 -0.7872 -0.2461  0.0362
  644MOL0     C86867   1.290  10.739   0.197 -0.0787  0.4309 -0.2237
  644MOL0     C86868   1.201  10.723   0.084 -0.7881 -1.0250  0.3499
  644MOL0     C86869   1.119  10.706  -0.001 -0.3313  0.6738 -0.3593
  644MOL0     C86870   1.304  10.762   0.768  0.0688  0.3189  1.1972
  644MOL0     C86871   1.289  10.751   0.905 -0.6822  0.4192 -0.8321
  644MOL0     C86872   1.398  10.666   0.978  0.1500 -0.3708  1.1876
  644MOL0     H86873   0.989  10.696   1.309  0.3101 -3.5777 -0.3921
  644MOL0     H86874   0.946  10.705   1.552 -0.6504 -0.6034  0.3487
  644MOL0     H86875   1.237  10.620   1.869  0.4696  0.4835  2.6681
  644MOL0     H86876   1.270  10.787   1.826  2.4611  0.0783 -0.4519
  644MOL0     H86877   1.035  10.670   1.997 -2.3598  2.4954  0.2425
  644MOL0     H86878   1.025  10.831   1.921  1.3595  0.2557 -2.3545
  644MOL0     H86879   1.263  10.866   2.035  1.5559  0.1464  0.8403
  644MOL0     H86880   1.215  10.721   2.127 -1.3790  0.8761  0.9023
  644MOL0     H86881   1.164  10.939   2.243 -2.1223  3.2914 -0.7516
  644MOL0     H86882   1.063  10.988   2.116  0.1214  1.7494  1.1976
  644MOL0     H86883   0.907  10.785   2.182  3.6959  0.0298 -4.9747
  644MOL0     H86884   1.029  10.741   2.302 -3.5183 -3.4387 -1.1235
  644MOL0     H86885   0.867  10.860   2.427 -0.1387  0.8013  2.3772
  644MOL0     H86886   1.022  10.933   2.423  0.1443 -1.8400 -1.1514
  644MOL0     H86887   0.961  11.119   2.313 -1.1628  0.6778 -1.8028
  644MOL0     H86888   0.814  11.077   2.411  0.5921 -0.7747  0.9265
  644MOL0     H86889   0.853  11.038   2.117 -1.2620 -1.7443 -0.1135
  644MOL0     H86890   0.722  10.968   2.223  0.7070 -1.7875 -0.2908
  644MOL0     H86891   0.776  11.353   2.301 -0.5221  1.5423 -0.9744
  644MOL0     H86892   0.449  11.514   2.189 -1.0460 -1.0519  1.3772
  644MOL0     H86893   0.581  11.514   2.307 -0.8597 -1.8731 -0.4927
  644MOL0     H86894   0.604  11.695   2.132 -0.5044 -0.0318  3.0841
  644MOL0     H86895   0.746  11.579   2.138  0.7587 -1.7595 -1.2744
  644MOL0     H86896   0.532  11.549   1.926  0.9801  0.4031 -0.9060
  644MOL0     H86897   0.688  11.460   1.936 -0.7680 -1.2985  0.6566
  644MOL0     H86898   0.641  11.728   1.836  1.7600  0.0049 -2.4961
  644MOL0     H86899   0.746  11.616   1.774 -0.4988  1.5816 -0.7014
  644MOL0     H86900   0.970  11.871   2.066 -3.1953  0.6631  0.2059
  644MOL0     H86901   1.145  12.032   1.984  0.8996 -1.3904 -0.0837
  644MOL0     H86902   1.532  12.050   1.676 -0.1479  0.7906 -0.9314
  644MOL0     H86903   1.702  12.196   1.560 -0.1415 -0.2613  0.5376
  644MOL0     H86904   1.628  12.615   1.633 -0.9357 -0.1862 -0.8328
  644MOL0     H86905   1.793  12.635   1.561 -1.3465  0.7947 -1.6300
  644MOL0     H86906   1.700  12.656   1.381 -2.0322  1.9977  1.1699
  644MOL0     H86907   1.728  12.478   1.389  0.6699 -1.0933  4.0333
  644MOL0     H86908   1.463  12.561   1.506  0.8061  0.9909  1.3360
  644MOL0     H86909   1.502  12.631   1.351  3.9557 -0.1959 -1.3219
  644MOL0     H86910   1.489  12.330   1.422  2.0936 -0.7475  0.0795
  644MOL0     H86911   1.546  12.394   1.263  1.0654 -4.0733  0.9050
  644MOL0     H86912   1.321  12.297   1.256 -1.8510 -0.1445 -0.2617
  644MOL0     H86913   1.309  12.474   1.232 -0.3337  0.3910  0.9403
  644MOL0     H86914   1.249  12.288   1.469 -3.3498  0.5437  0.9255
  644MOL0     H86915   1.257  12.469   1.493 -2.8765 -0.3998  2.2858
  644MOL0     H86916   1.058  12.336   1.315  0.8885 -3.5674  2.6703
  644MOL0     H86917   1.071  12.508   1.388 -0.4508  1.0112 -0.3924
  644MOL0     H86918   1.041  12.259   1.550  0.7076 -0.0301 -0.1391
  644MOL0     H86919   1.020  12.429   1.609  3.7106  0.8577  0.4796
  644MOL0     H86920   1.529  12.511   1.812  2.2498 -0.5958 -0.3786
  644MOL0     H86921   1.368  12.379   1.884 -1.9059  1.3689 -1.2988
  644MOL0     H86922   1.038  11.911   1.586  1.8548  1.2287  0.9591
  644MOL0     H86923   0.869  11.762   1.666 -1.4455  2.5688 -2.6829
  644MOL0     H86924   1.376  10.740   1.616  1.5468 -1.4043 -1.5506
  644MOL0     H86925   1.409  10.738   1.382  0.4260  3.3649  1.0870
  644MOL0     H86926   1.007  10.929   0.946 -1.7127  0.3127 -1.8696
  644MOL0     H86927   1.048  10.974   0.697  1.9586  0.2775 -2.5287
  644MOL0     H86928   1.435  10.869   0.548  0.1095 -1.1181  0.2567
  644MOL0     H86929   1.342  10.908   0.397  1.4521  0.1313 -0.7553
  644MOL0     H86930   1.313  10.631   0.526 -1.3682 -0.2033 -0.6196
  644MOL0     H86931   1.435  10.673   0.406  0.7588  3.9895  0.6584
  644MOL0     H86932   1.139  10.718   0.347 -0.2867  1.1010 -0.0718
  644MOL0     H86933   1.229  10.572   0.305 -0.3875  0.0680 -1.6588
  644MOL0     H86934   1.314  10.845   0.207  1.4359 -0.0987  2.8404
  644MOL0     H86935   1.383  10.691   0.166  1.1136  1.8112  1.0603
  644MOL0     H86936   1.054  10.683  -0.083  2.6979 -2.1337 -2.2220
  644MOL0     H86937   1.382  10.700   0.725 -0.6252 -1.5127  2.4399
  644MOL0     H86938   1.450  10.707   1.065  1.5861 -2.9433  1.6555
  644MOL0     H86939   1.353  10.569   1.000 -0.1950 -0.2426  1.0527
  644MOL0     H86940   1.485  10.649   0.915  2.3351  2.5488  3.1177
  645MOL0     O86941   0.189   9.822   5.029 -0.3600 -0.3467  0.5985
  645MOL0     C86942   0.118   9.733   4.983 -0.2564 -0.2100  0.3013
  645MOL0     O86943  -0.007   9.702   5.021  0.1855  0.2325 -0.2953
  645MOL0     C86944  -0.083   9.787   5.102  0.3953  0.4004 -0.4826
  645MOL0     C86945  -0.067   9.919   5.139 -0.3842  0.1596 -0.9365
  645MOL0     C86946  -0.157   9.985   5.231  0.6090 -0.1674  1.0186
  645MOL0     C86947  -0.284   9.930   5.265 -1.3159  0.4878  1.2526
  645MOL0     O86948  -0.374   9.974   5.351 -0.0891 -0.3653  0.8531
  645MOL0     C86949  -0.325  10.075   5.447  0.3898 -0.3824 -0.0615
  645MOL0     C86950  -0.431  10.128   5.547  0.0916 -0.2718 -0.3894
  645MOL0     C86951  -0.546  10.195   5.475 -0.4136  0.0614 -0.0598
  645MOL0     C86952  -0.653  10.255   5.573 -0.7626 -0.8539 -0.5904
  645MOL0     C86953  -0.731  10.140   5.646  0.0296  0.1442  0.0248
  645MOL0     C86954  -0.855  10.182   5.708  0.2042 -0.1417  0.0093
  645MOL0     C86955  -0.955  10.070   5.760 -0.0589  0.2424  0.1916
  645MOL0     C86956  -1.033  10.019   5.630  0.2084 -0.4177 -0.7164
  645MOL0     N86957  -1.119  10.125   5.562 -0.0765 -0.0977  0.5087
  645MOL0     C86958  -1.234  10.175   5.623 -0.7198 -1.2960 -1.4756
  645MOL0     C86959  -1.266  10.283   5.541 -0.3495  0.4498  0.2526
  645MOL0     C86960  -1.383  10.370   5.574 -0.1616 -0.4258 -0.3456
  645MOL0     C86961  -1.521  10.304   5.571 -0.0577  0.5025  0.9346
  645MOL0     C86962  -1.565  10.239   5.423  0.0064  0.0993 -0.6180
  645MOL0     C86963  -1.582  10.346   5.303 -0.1497 -0.4081  0.0847
  645MOL0     O86964  -1.679  10.433   5.355  0.1073 -0.5233  0.4710
  645MOL0     C86965  -1.778  10.463   5.269 -0.1672  0.1292  0.2704
  645MOL0     C86966  -1.886  10.376   5.251 -0.6051 -0.4431  1.1106
  645MOL0     C86967  -1.994  10.414   5.171  0.3815 -0.9904  0.2825
  645MOL0     C86968  -1.985  10.538   5.101  0.3585 -0.8520  0.0878
  645MOL0     C86969  -2.087  10.575   5.003 -0.1852 -0.8304  0.3326
  645MOL0     O86970  -2.057  10.694   4.943 -0.5951 -0.0310 -0.0845
  645MOL0     C86971  -2.137  10.761   4.858 -0.5688  1.0526 -0.7102
  645MOL0     C86972  -2.074  10.892   4.824  0.0187  0.3691 -0.1778
  645MOL0     C86973  -2.133  10.968   4.733  0.5774 -0.5730  1.1592
  645MOL0     C86974  -2.254  10.925   4.665 -0.5817  0.1473 -0.4536
  645MOL0     O86975  -2.296  11.008   4.563 -0.6909  0.8817 -0.3190
  645MOL0     C86976  -2.443  11.031   4.543 -0.1203 -0.3211  0.5245
  645MOL0     C86977  -2.475  11.178   4.542 -0.5936 -0.0991 -0.8490
  645MOL0     C86978  -2.628  11.174   4.572 -0.0419 -0.2202  0.5416
  645MOL0     C86979  -2.695  11.308   4.547  0.6195 -0.2791  0.1836
  645MOL0     C86980  -2.855  11.306   4.530 -1.0258  0.0601  0.2284
  645MOL0     C86981  -2.920  11.279   4.673  0.1550  0.6906  0.1854
  645MOL0     C86982  -2.935  11.397   4.776  0.2285 -0.2788  0.1370
  645MOL0     C86983  -3.072  11.388   4.858 -0.1475 -0.5143 -0.2346
  645MOL0    Cl86984  -3.064  11.508   4.993 -0.2492 -0.2746  0.2377
  645MOL0     C86985  -2.312  10.811   4.710  0.0268  0.7556  1.1130
  645MOL0     C86986  -2.264  10.724   4.805  0.0603 -0.0886  0.2279
  645MOL0     O86987  -2.195  10.517   5.013  0.4530 -0.2432  0.3263
  645MOL0     C86988  -1.870  10.625   5.124  0.0009  0.1196 -0.9598
  645MOL0     C86989  -1.767  10.589   5.206 -0.9106  1.2356  0.3040
  645MOL0     N86990  -1.183  10.282   5.438  0.1736  0.6273 -0.0720
  645MOL0     N86991  -1.087  10.199   5.450  0.1759  0.6454 -0.5196
  645MOL0     C86992  -0.305   9.797   5.209 -0.0538  0.2195 -0.4485
  645MOL0     C86993  -0.205   9.732   5.127 -0.2763 -0.9008  0.2611
  645MOL0     C86994   0.173   9.658   4.873  0.0162 -0.2638 -0.0222
  645MOL0     C86995   0.233   9.728   4.771  0.1211 -0.4507  0.2356
  645MOL0     C86996   0.270   9.666   4.648 -0.1678 -0.4798  0.5432
  645MOL0     C86997   0.265   9.529   4.639 -0.0724  0.1620  0.5829
  645MOL0     O86998   0.301   9.463   4.525 -0.1397 -0.5110 -0.5214
  645MOL0     C86999   0.371   9.526   4.419  0.3508 -0.1288 -0.4957
  645MOL0     C87000   0.379   9.429   4.302 -0.3830 -0.4490  0.0615
  645MOL0     C87001   0.240   9.373   4.260 -0.6699  0.4545  0.3921
  645MOL0     C87002   0.258   9.261   4.154  0.5310  0.6632  0.0548
  645MOL0     C87003   0.303   9.302   4.020 -0.7477 -0.3093 -0.3782
  645MOL0     C87004   0.337   9.321   3.907 -0.2457  0.8608  0.3476
  645MOL0     C87005   0.206   9.459   4.738  0.2196  0.1483  0.8978
  645MOL0     C87006   0.157   9.523   4.855 -0.3881  0.3062 -0.3722
  645MOL0     C87007   0.094   9.437   4.961 -0.0774  0.2125  1.0547
  645MOL0     H87008   0.022   9.968   5.099  0.0030  1.1786  1.0453
  645MOL0     H87009  -0.123  10.083   5.265  2.4725 -0.3995 -0.0061
  645MOL0     H87010  -0.233  10.054   5.501 -0.4785  1.4564  2.2854
  645MOL0     H87011  -0.294  10.162   5.389 -0.2273 -0.7360 -0.9622
  645MOL0     H87012  -0.393  10.211   5.608 -0.0801  0.1436 -0.8419
  645MOL0     H87013  -0.459  10.042   5.608 -0.4159 -0.3263 -0.6954
  645MOL0     H87014  -0.594  10.117   5.415 -2.6528 -0.2936  2.0167
  645MOL0     H87015  -0.514  10.273   5.405 -0.0269  0.9652  1.0820
  645MOL0     H87016  -0.602  10.325   5.641  1.8491 -1.4312 -1.8367
  645MOL0     H87017  -0.721  10.309   5.507 -0.1224  2.0938  0.9905
  645MOL0     H87018  -0.758  10.064   5.572 -0.5509 -2.2064  2.4893
  645MOL0     H87019  -0.668  10.097   5.724  1.9801  0.6585 -1.1907
  645MOL0     H87020  -0.824  10.245   5.792 -3.1587 -0.1421  1.3958
  645MOL0     H87021  -0.914  10.246   5.642 -0.4706 -2.8984 -2.2389
  645MOL0     H87022  -1.020  10.112   5.837 -0.9613 -0.6364 -0.0758
  645MOL0     H87023  -0.903   9.987   5.808 -0.8162 -0.7329 -0.6451
  645MOL0     H87024  -0.968   9.967   5.560  0.4182 -2.2530  0.7783
  645MOL0     H87025  -1.093   9.940   5.675  0.1159  0.5863  0.9991
  645MOL0     H87026  -1.289  10.129   5.704  0.7776 -0.7200 -0.0915
  645MOL0     H87027  -1.368  10.426   5.667 -0.3628  1.2817 -1.3064
  645MOL0     H87028  -1.377  10.448   5.498  3.4461  0.1807  0.3878
  645MOL0     H87029  -1.514  10.224   5.645 -2.2356 -0.4324  0.1918
  645MOL0     H87030  -1.586  10.384   5.608  0.4309  0.9881  0.7617
  645MOL0     H87031  -1.665  10.199   5.444 -0.6817  1.6169 -0.8695
  645MOL0     H87032  -1.493  10.163   5.392  0.4511  1.7841 -4.2173
  645MOL0     H87033  -1.603  10.286   5.213  0.6982  2.2049 -1.9808
  645MOL0     H87034  -1.487  10.399   5.302  1.1389 -2.6103 -0.5806
  645MOL0     H87035  -1.898  10.294   5.321  2.5023 -0.4489  1.7927
  645MOL0     H87036  -2.076  10.344   5.154  0.5041 -0.6117 -2.2221
  645MOL0     H87037  -1.975  10.906   4.866 -1.2085 -1.7315  3.9909
  645MOL0     H87038  -2.080  11.050   4.686 -0.9021  0.3042  0.9476
  645MOL0     H87039  -2.469  11.001   4.441  2.8342  0.8107 -0.6817
  645MOL0     H87040  -2.504  10.975   4.614  0.4040  1.5765  2.6055
  645MOL0     H87041  -2.414  11.216   4.625  1.5995 -0.9852 -1.9614
  645MOL0     H87042  -2.444  11.236   4.454 -0.4057  4.1337  1.7159
  645MOL0     H87043  -2.672  11.096   4.511  1.6101 -0.9617  0.2572
  645MOL0     H87044  -2.639  11.147   4.678 -2.6179  1.7795  0.8888
  645MOL0     H87045  -2.650  11.350   4.457 -0.6234 -0.0109 -0.3414
  645MOL0     H87046  -2.669  11.368   4.635  0.2878 -0.7439  0.6005
  645MOL0     H87047  -2.871  11.221   4.462 -3.2211  0.4132  0.2226
  645MOL0     H87048  -2.889  11.397   4.478  1.8543 -0.1498 -2.3372
  645MOL0     H87049  -3.019  11.237   4.653 -0.9319  3.5628 -0.9666
  645MOL0     H87050  -2.867  11.191   4.713 -0.0811 -0.0106 -0.9903
  645MOL0     H87051  -2.925  11.492   4.723 -1.7332 -0.3859 -0.4973
  645MOL0     H87052  -2.855  11.394   4.850  0.3964  1.5549  0.0549
  645MOL0     H87053  -3.151  11.425   4.792 -0.1322  1.0887  0.6068
  645MOL0     H87054  -3.100  11.295   4.908  0.4032  0.4106  1.9388
  645MOL0     H87055  -2.392  10.761   4.656 -0.2121  1.8808  0.3916
  645MOL0     H87056  -2.328  10.638   4.825 -1.4839  0.4454 -1.9804
  645MOL0     H87057  -1.873  10.724   5.080  0.2143 -0.1919 -1.6894
  645MOL0     H87058  -1.687  10.661   5.217 -1.3307  1.5288  1.4931
  645MOL0     H87059  -0.395   9.745   5.242  0.9330 -0.6722  0.9314
  645MOL0     H87060  -0.233   9.634   5.091 -1.6562 -0.9949  1.4827
  645MOL0     H87061   0.220   9.836   4.774 -1.0879 -0.5893  0.5784
  645MOL0     H87062   0.315   9.730   4.572  1.1414 -2.5971 -0.5693
  645MOL0     H87063   0.472   9.559   4.445  1.6176 -4.7579  1.5689
  645MOL0     H87064   0.306   9.609   4.387 -3.2473 -3.0241 -1.3624
  645MOL0     H87065   0.438   9.342   4.333  0.1046 -0.0096  0.3770
  645MOL0     H87066   0.421   9.482   4.216 -2.2568 -0.4040 -0.8795
  645MOL0     H87067   0.174   9.454   4.227 -2.3455 -1.5360 -1.4645
  645MOL0     H87068   0.193   9.326   4.347 -0.3336  0.0331  0.3522
  645MOL0     H87069   0.312   9.176   4.197 -3.6593 -1.2612  2.0823
  645MOL0     H87070   0.159   9.218   4.135  1.1482 -0.4813 -0.7124
  645MOL0     H87071   0.362   9.347   3.806 -4.8816 -0.0511 -1.3127
  645MOL0     H87072   0.202   9.351   4.737  5.5902 -0.3173 -1.2524
  645MOL0     H87073   0.117   9.331   4.954 -1.1957  0.0057  0.3138
  645MOL0     H87074   0.116   9.476   5.061 -0.9835 -0.6150  1.6000
  645MOL0     H87075  -0.014   9.445   4.950 -0.1227  2.9862  2.5468
  646MOL0     O87076   6.745   4.710   2.855 -0.0956 -0.2708 -0.3391
  646MOL0     C87077   6.692   4.818   2.847 -0.4681  0.2880 -0.0395
  646MOL0     O87078   6.560   4.839   2.836  1.0547 -0.2712  0.0046
  646MOL0     C87079   6.478   4.726   2.858 -0.5745  0.3769  0.4881
  646MOL0     C87080   6.419   4.655   2.745 -0.2828  0.0409  0.2675
  646MOL0     C87081   6.335   4.547   2.759  0.5845 -0.0978  0.3598
  646MOL0     C87082   6.308   4.509   2.890  0.0730 -0.0302  0.3460
  646MOL0     O87083   6.237   4.401   2.918 -0.3013 -0.9255 -0.5161
  646MOL0     C87084   6.104   4.388   2.857  0.5323 -0.0771  0.2836
  646MOL0     C87085   6.012   4.307   2.946  1.0232 -0.0068 -0.5035
  646MOL0     C87086   5.867   4.335   2.928  0.0847  0.7143  0.2545
  646MOL0     C87087   5.815   4.287   2.787  0.1129  0.4860 -0.3623
  646MOL0     C87088   5.686   4.354   2.751  0.2821 -0.1963 -0.5281
  646MOL0     C87089   5.592   4.332   2.870  0.5763 -0.1302  0.1066
  646MOL0     C87090   5.545   4.185   2.896 -0.2844  0.2671 -0.0803
  646MOL0     C87091   5.430   4.158   3.004 -0.3078  0.3604  0.0284
  646MOL0     N87092   5.341   4.269   3.023 -0.7271 -0.6230 -0.1362
  646MOL0     C87093   5.258   4.312   2.921  0.4617 -0.4068 -0.1816
  646MOL0     C87094   5.217   4.447   2.955 -1.4765 -0.4815 -0.9023
  646MOL0     C87095   5.129   4.544   2.884 -0.2984 -0.0349 -1.0520
  646MOL0     C87096   5.212   4.634   2.791 -0.4235 -1.3307  0.5521
  646MOL0     C87097   5.316   4.720   2.854  0.2863  0.6474 -1.0195
  646MOL0     C87098   5.335   4.847   2.776 -0.7283  0.0415  0.6529
  646MOL0     O87099   5.213   4.914   2.751 -0.8051 -0.4664 -0.1947
  646MOL0     C87100   5.189   5.021   2.843 -0.7296 -0.3720 -0.2561
  646MOL0     C87101   5.190   5.002   2.986  1.4246 -0.5919 -0.9303
  646MOL0     C87102   5.189   5.118   3.073 -0.4695  1.2258  1.3796
  646MOL0     C87103   5.192   5.252   3.018  0.3194  0.9302  0.1527
  646MOL0     C87104   5.178   5.371   3.110  0.2301 -0.6897  0.5830
  646MOL0     O87105   5.220   5.483   3.044  0.2716 -0.8415  0.0083
  646MOL0     C87106   5.193   5.605   3.106  0.6701  0.5824  0.4148
  646MOL0     C87107   5.293   5.676   3.164  0.5510  0.1142 -1.3505
  646MOL0     C87108   5.255   5.783   3.245  0.8626 -0.5634  0.2017
  646MOL0     C87109   5.120   5.824   3.253  1.0396  0.6804 -0.2476
  646MOL0     O87110   5.083   5.908   3.352 -0.6127 -0.4344 -0.2228
  646MOL0     C87111   5.118   5.876   3.489 -0.6620  0.3515  0.7526
  646MOL0     C87112   4.991   5.862   3.582  0.3933 -0.0041  0.4736
  646MOL0     C87113   4.945   6.007   3.614  1.1779  0.0455  0.0125
  646MOL0     C87114   4.812   5.995   3.684  1.2593 -0.8601  0.1647
  646MOL0     C87115   4.827   5.928   3.821 -0.5815 -0.1031  0.1550
  646MOL0     C87116   4.839   6.037   3.935  0.4871 -0.2736  0.7841
  646MOL0     C87117   4.874   5.984   4.080  0.5698  1.0070 -0.4422
  646MOL0     C87118   4.748   5.941   4.154  0.5362  0.1411  0.4092
  646MOL0    Cl87119   4.756   5.996   4.334 -0.1183  0.3686 -0.2538
  646MOL0     C87120   5.025   5.767   3.171  0.2155 -1.2105 -0.3679
  646MOL0     C87121   5.062   5.652   3.098 -0.1206 -0.1812  0.1271
  646MOL0     O87122   5.131   5.361   3.221  0.5540 -0.0783  0.6987
  646MOL0     C87123   5.191   5.270   2.872  0.6966  0.5662  1.3584
  646MOL0     C87124   5.204   5.157   2.788  0.0492 -0.1954  0.5236
  646MOL0     N87125   5.287   4.480   3.071  0.3003 -0.4369 -0.0151
  646MOL0     N87126   5.351   4.374   3.107 -0.8763  0.6515 -0.3868
  646MOL0     C87127   6.368   4.573   2.998  0.4728  0.4948 -0.2666
  646MOL0     C87128   6.443   4.683   2.988  0.3251 -0.2591  0.1798
  646MOL0     C87129   6.779   4.934   2.850 -0.3293  0.0385 -0.0989
  646MOL0     C87130   6.712   5.057   2.880 -0.7299  0.8066 -0.4510
  646MOL0     C87131   6.786   5.181   2.879  0.5805  0.4371  0.3580
  646MOL0     C87132   6.920   5.180   2.848 -1.3952  0.5112  0.2485
  646MOL0     O87133   6.993   5.300   2.841 -0.3630  0.3019 -0.5525
  646MOL0     C87134   7.133   5.299   2.804 -1.0477  0.0370  0.1910
  646MOL0     C87135   7.149   5.284   2.653 -0.3529  0.0728 -0.4616
  646MOL0     C87136   7.084   5.407   2.578 -0.9801  0.5593 -0.4107
  646MOL0     C87137   7.189   5.473   2.489  0.7613 -0.6681  0.7925
  646MOL0     C87138   7.296   5.540   2.567  1.2557 -0.1754 -0.2668
  646MOL0     C87139   7.381   5.597   2.625  0.0145  0.4436  0.1570
  646MOL0     C87140   6.983   5.057   2.827 -0.1389 -0.1043  0.8546
  646MOL0     C87141   6.920   4.934   2.823 -0.2371  0.4441 -0.8120
  646MOL0     C87142   7.009   4.809   2.800  0.1132  0.6080 -0.0087
  646MOL0     H87143   6.444   4.678   2.642  3.4049 -5.4481 -0.4880
  646MOL0     H87144   6.312   4.489   2.670  0.1810  0.7148 -0.0787
  646MOL0     H87145   6.055   4.486   2.854  2.1490  0.9608  3.2681
  646MOL0     H87146   6.114   4.347   2.757  1.0456  3.7320 -1.4006
  646MOL0     H87147   6.032   4.343   3.047 -1.7242  4.8457 -1.3786
  646MOL0     H87148   6.019   4.198   2.939 -2.3439 -0.2539 -1.7398
  646MOL0     H87149   5.842   4.441   2.939 -3.5896 -0.0802  0.9657
  646MOL0     H87150   5.820   4.276   3.008  1.9768 -1.6402 -0.2732
  646MOL0     H87151   5.892   4.304   2.712  2.0282 -0.1115  1.3667
  646MOL0     H87152   5.799   4.179   2.785  1.7144  0.2467 -2.0017
  646MOL0     H87153   5.703   4.460   2.731 -0.8152  0.2674  0.8292
  646MOL0     H87154   5.653   4.318   2.653 -1.3544 -1.1428  0.3107
  646MOL0     H87155   5.627   4.374   2.965  1.4070  0.5968 -0.5091
  646MOL0     H87156   5.508   4.393   2.835  1.4956  0.6490 -0.8003
  646MOL0     H87157   5.631   4.125   2.926  0.6127  0.7509 -1.5570
  646MOL0     H87158   5.507   4.143   2.802  1.3031  1.4189 -1.2967
  646MOL0     H87159   5.372   4.068   2.981  0.4976  0.0561 -0.8763
  646MOL0     H87160   5.481   4.147   3.101 -1.9521 -0.5639  0.8428
  646MOL0     H87161   5.224   4.263   2.831 -0.6191  3.6553 -2.2279
  646MOL0     H87162   5.059   4.487   2.822 -3.1919  0.3918  1.5918
  646MOL0     H87163   5.067   4.603   2.952  1.1616  2.0303 -1.3958
  646MOL0     H87164   5.263   4.580   2.710  1.9664  0.9587  0.3871
  646MOL0     H87165   5.127   4.690   2.753 -0.3534  0.3312  2.6398
  646MOL0     H87166   5.395   4.644   2.855 -2.5846 -2.5764 -1.4757
  646MOL0     H87167   5.288   4.734   2.958  3.1747  0.2761 -0.1229
  646MOL0     H87168   5.383   4.828   2.679 -2.0755  1.2136 -0.2761
  646MOL0     H87169   5.398   4.913   2.836 -1.9641  1.7071  0.2026
  646MOL0     H87170   5.195   4.901   3.027  0.0674  0.2282  1.4507
  646MOL0     H87171   5.182   5.084   3.177  0.7595 -0.5838  0.9248
  646MOL0     H87172   5.390   5.642   3.199  0.1434 -0.8165 -1.0700
  646MOL0     H87173   5.333   5.825   3.309 -1.4029  2.7618  1.0261
  646MOL0     H87174   5.185   5.790   3.494 -0.4662  0.0562 -3.4419
  646MOL0     H87175   5.171   5.967   3.520 -0.3871  0.8512 -1.0240
  646MOL0     H87176   4.913   5.805   3.531 -1.4266  2.2394  0.5895
  646MOL0     H87177   5.020   5.805   3.671  1.0980 -3.3297 -1.7006
  646MOL0     H87178   5.010   6.051   3.690 -1.3107  1.2871  1.5462
  646MOL0     H87179   4.941   6.063   3.520  1.8214 -0.0082 -0.0521
  646MOL0     H87180   4.736   5.941   3.627  0.6042 -0.2389  0.4256
  646MOL0     H87181   4.767   6.094   3.701 -1.8504 -2.1182 -0.0578
  646MOL0     H87182   4.910   5.857   3.826 -0.8397 -0.4704 -0.6284
  646MOL0     H87183   4.732   5.880   3.845 -2.1386  2.4545 -0.4404
  646MOL0     H87184   4.924   6.102   3.910  0.8444  0.1350  2.9308
  646MOL0     H87185   4.745   6.093   3.933  1.7347  2.2287  3.7109
  646MOL0     H87186   4.925   6.055   4.145 -0.6758  1.2199  0.3508
  646MOL0     H87187   4.939   5.896   4.080 -0.9144 -0.1381 -0.7940
  646MOL0     H87188   4.664   5.999   4.117  0.5569  0.1898  0.4385
  646MOL0     H87189   4.727   5.834   4.146 -0.0836  0.1034  2.0480
  646MOL0     H87190   4.922   5.798   3.157  0.8675  0.5683 -1.7899
  646MOL0     H87191   4.986   5.588   3.054  0.7479 -3.3242  2.7800
  646MOL0     H87192   5.185   5.369   2.830 -0.9571 -1.3714 -3.7792
  646MOL0     H87193   5.220   5.166   2.682  2.2033 -1.0388  0.7217
  646MOL0     H87194   6.349   4.524   3.093  0.8092  1.3013  0.2241
  646MOL0     H87195   6.475   4.742   3.073  0.0544  0.3753 -0.1447
  646MOL0     H87196   6.605   5.066   2.896 -0.5845 -0.5495  1.8404
  646MOL0     H87197   6.726   5.270   2.896  0.1547  0.6935 -2.0601
  646MOL0     H87198   7.189   5.221   2.854 -0.3856  1.2538  1.4129
  646MOL0     H87199   7.180   5.388   2.848 -1.2505  0.5999 -0.6869
  646MOL0     H87200   7.107   5.189   2.620 -0.6066  0.5984 -1.7320
  646MOL0     H87201   7.254   5.263   2.629 -1.1062 -2.1929 -2.0620
  646MOL0     H87202   7.029   5.474   2.645  2.0806  4.8740 -1.7493
  646MOL0     H87203   7.007   5.358   2.518  0.5679  0.3743 -2.3353
  646MOL0     H87204   7.227   5.392   2.425  3.6911 -1.0329  2.7633
  646MOL0     H87205   7.149   5.548   2.421  3.4825 -0.6155 -0.9134
  646MOL0     H87206   7.459   5.637   2.687  1.6400 -3.0973  0.6703
  646MOL0     H87207   7.088   5.049   2.799 -0.4993 -3.0830 -0.0869
  646MOL0     H87208   6.967   4.760   2.712 -1.4302 -0.3131  1.1876
  646MOL0     H87209   7.116   4.829   2.787  0.9879 -2.4219  1.5388
  646MOL0     H87210   7.003   4.737   2.881 -5.7217  0.6309 -0.0068
  647MOL0     O87211   6.680   9.925   1.235  0.0669 -0.8148  0.8548
  647MOL0     C87212   6.618   9.842   1.296 -0.3895 -0.7512 -0.3331
  647MOL0     O87213   6.629   9.708   1.280 -0.0946  0.2775  0.6108
  647MOL0     C87214   6.688   9.645   1.180 -0.9106 -0.1735  0.1159
  647MOL0     C87215   6.768   9.533   1.206 -0.2540  0.5571  0.8759
  647MOL0     C87216   6.849   9.478   1.102 -0.6747 -0.2187  0.5812
  647MOL0     C87217   6.841   9.518   0.966 -0.1606  0.3371 -0.1331
  647MOL0     O87218   6.924   9.454   0.874 -0.2504 -0.4950 -0.5856
  647MOL0     C87219   6.971   9.528   0.759  0.3891  0.4674  0.1018
  647MOL0     C87220   7.100   9.455   0.712  0.2999 -0.9825 -0.3289
  647MOL0     C87221   7.171   9.546   0.612  0.1597  0.0241  0.2095
  647MOL0     C87222   7.278   9.471   0.526 -0.1736 -0.7486 -0.2272
  647MOL0     C87223   7.367   9.569   0.434  0.4354 -0.6180 -0.2403
  647MOL0     C87224   7.280   9.659   0.352  0.2953  0.8278  0.8809
  647MOL0     C87225   7.366   9.757   0.267 -0.0132  0.7161  0.5256
  647MOL0     C87226   7.405   9.698   0.138  0.2686  0.1135 -1.0766
  647MOL0     N87227   7.472   9.798   0.049 -1.1062 -0.7512  0.4210
  647MOL0     C87228   7.441   9.931   0.024 -0.0334 -0.1908  0.1908
  647MOL0     C87229   7.525   9.973  -0.069  1.1342  0.5589  0.3588
  647MOL0     C87230   7.524  10.100  -0.157 -0.1795 -0.3122 -0.1530
  647MOL0     C87231   7.569  10.219  -0.067 -0.9945  0.6885  0.5421
  647MOL0     C87232   7.571  10.329  -0.168  0.1483 -0.0531 -0.6499
  647MOL0     C87233   7.557  10.466  -0.090 -0.6154  0.2561 -0.4682
  647MOL0     O87234   7.683  10.482  -0.011  0.0461 -0.1954  0.3982
  647MOL0     C87235   7.668  10.542   0.107  1.1100  1.2292 -1.1717
  647MOL0     C87236   7.683  10.467   0.228  0.5761 -0.3824  0.3897
  647MOL0     C87237   7.659  10.541   0.349 -0.2299  0.1120 -0.6642
  647MOL0     C87238   7.607  10.674   0.348  0.5353  0.4452  0.5718
  647MOL0     C87239   7.548  10.726   0.477  1.5605 -0.6324 -0.1246
  647MOL0     O87240   7.482  10.845   0.464 -0.4067 -0.7945 -0.2418
  647MOL0     C87241   7.414  10.897   0.572 -0.3118  0.4430  0.2049
  647MOL0     C87242   7.295  10.970   0.532  1.0079 -0.8893  0.0212
  647MOL0     C87243   7.217  11.029   0.627  1.0660  0.7564 -0.5904
  647MOL0     C87244   7.248  11.022   0.765  0.0920  0.4420  0.2240
  647MOL0     O87245   7.157  11.087   0.853  0.1251 -0.7301 -0.5832
  647MOL0     C87246   7.163  11.069   0.995  1.3744  0.5197  0.3867
  647MOL0     C87247   7.249  11.185   1.041 -0.4701 -0.8866 -1.0373
  647MOL0     C87248   7.247  11.202   1.197 -0.0473  0.6832  0.4066
  647MOL0     C87249   7.300  11.334   1.246  0.4287  0.3947 -0.3775
  647MOL0     C87250   7.266  11.360   1.391 -0.3296 -0.0011  0.9422
  647MOL0     C87251   7.340  11.479   1.453  0.3939  0.0824 -0.9765
  647MOL0     C87252   7.356  11.615   1.375 -0.5078  0.9679  0.7609
  647MOL0     C87253   7.217  11.681   1.327  0.2583 -0.1062 -0.2723
  647MOL0    Cl87254   7.138  11.780   1.452  0.2860  0.3335 -0.2342
  647MOL0     C87255   7.360  10.952   0.804 -0.5092  0.9943 -0.9733
  647MOL0     C87256   7.451  10.894   0.706  0.3110 -0.7427 -0.9210
  647MOL0     O87257   7.563  10.663   0.578  0.8836  0.4626  0.2206
  647MOL0     C87258   7.599  10.743   0.231  1.2085  0.4504 -0.6902
  647MOL0     C87259   7.638  10.677   0.110  0.3717  0.2131  0.2676
  647MOL0     N87260   7.620   9.873  -0.084 -0.6640  0.4423 -0.5006
  647MOL0     N87261   7.580   9.767  -0.025 -0.3907  0.4084 -0.4063
  647MOL0     C87262   6.754   9.623   0.944  0.1969 -1.0337  0.3527
  647MOL0     C87263   6.680   9.683   1.046 -0.0929  0.0179 -0.1943
  647MOL0     C87264   6.530   9.903   1.410 -0.2035  0.9370 -0.2592
  647MOL0     C87265   6.530   9.840   1.534 -0.1018 -0.1283 -0.3697
  647MOL0     C87266   6.463   9.901   1.653 -0.3555 -0.5554 -0.5927
  647MOL0     C87267   6.382  10.011   1.631 -0.2716 -0.0311 -0.6658
  647MOL0     O87268   6.319  10.060   1.749  0.0121 -0.2867 -0.6990
  647MOL0     C87269   6.234  10.174   1.735  0.1001  0.9552 -0.7286
  647MOL0     C87270   6.179  10.224   1.867  0.5039 -0.2749 -0.2560
  647MOL0     C87271   6.129  10.108   1.958 -0.0819  0.1559  0.4130
  647MOL0     C87272   5.986  10.052   1.906  0.0746 -0.1418  0.3077
  647MOL0     C87273   5.998   9.935   1.823 -0.2107  0.5778  0.6110
  647MOL0     C87274   6.006   9.829   1.761 -1.2601  0.1341  0.8333
  647MOL0     C87275   6.376  10.069   1.503 -0.2253 -0.1888 -0.5336
  647MOL0     C87276   6.441  10.012   1.392 -0.6219  0.6657 -0.2719
  647MOL0     C87277   6.397  10.066   1.255  0.1180  1.0044 -1.0648
  647MOL0     H87278   6.789   9.500   1.307  4.6584  1.6556  0.5016
  647MOL0     H87279   6.934   9.413   1.121  0.0681  0.0703 -1.5082
  647MOL0     H87280   6.893   9.532   0.682 -0.6213  1.3125  1.1230
  647MOL0     H87281   6.990   9.634   0.780 -0.9592  0.3933  2.0032
  647MOL0     H87282   7.062   9.359   0.674 -0.7615 -1.3412  1.5068
  647MOL0     H87283   7.166   9.429   0.795 -1.6304 -1.0266  1.2630
  647MOL0     H87284   7.214   9.627   0.671 -3.6390  0.3988  2.8271
  647MOL0     H87285   7.093   9.586   0.546 -0.0752  0.8524  0.9722
  647MOL0     H87286   7.341   9.422   0.600  1.1674  0.8853 -0.2157
  647MOL0     H87287   7.242   9.383   0.472  0.5444 -4.6727  4.9342
  647MOL0     H87288   7.424   9.636   0.499  1.4615 -1.4469 -0.2588
  647MOL0     H87289   7.444   9.512   0.382  5.4927  3.3522  1.9402
  647MOL0     H87290   7.208   9.620   0.279 -0.1779 -1.1424  2.3090
  647MOL0     H87291   7.223   9.714   0.427  1.0738  1.7760  0.7967
  647MOL0     H87292   7.464   9.780   0.309  0.6251 -1.1170  0.1285
  647MOL0     H87293   7.302   9.845   0.256 -0.5247  0.4371  1.1821
  647MOL0     H87294   7.477   9.618   0.156  1.2773  0.1949 -4.2513
  647MOL0     H87295   7.323   9.671   0.071  2.0645 -2.0470 -2.5349
  647MOL0     H87296   7.356   9.984   0.067  0.3811 -0.5232  1.4746
  647MOL0     H87297   7.599  10.100  -0.236  2.8828  1.1414  2.5241
  647MOL0     H87298   7.424  10.109  -0.200  0.4813 -1.7031 -2.1001
  647MOL0     H87299   7.490  10.236   0.006 -1.0208 -2.4410  1.4172
  647MOL0     H87300   7.668  10.204  -0.023 -1.3438  1.6169  1.6824
  647MOL0     H87301   7.492  10.324  -0.243 -0.3868  0.2363 -0.1160
  647MOL0     H87302   7.659  10.348  -0.230 -0.6622  0.3649 -1.7160
  647MOL0     H87303   7.470  10.452  -0.024  0.7383 -1.8834  0.9730
  647MOL0     H87304   7.538  10.548  -0.160 -0.4663 -0.7130 -1.6777
  647MOL0     H87305   7.718  10.366   0.243 -0.7495 -0.7016  1.6084
  647MOL0     H87306   7.656  10.490   0.445 -0.1759  1.3695  0.0233
  647MOL0     H87307   7.255  10.970   0.431  1.3184 -0.5823 -0.1054
  647MOL0     H87308   7.125  11.081   0.601  1.5586  3.4563  2.4133
  647MOL0     H87309   7.070  11.090   1.049 -0.4655 -1.8768 -1.5838
  647MOL0     H87310   7.215  10.979   1.030  2.3405  0.8779 -0.1075
  647MOL0     H87311   7.347  11.163   0.999 -0.7832  1.6586 -3.3870
  647MOL0     H87312   7.205  11.275   0.997 -1.8665 -0.5078  0.9638
  647MOL0     H87313   7.143  11.193   1.231  0.3666 -3.3905  1.0737
  647MOL0     H87314   7.297  11.116   1.241  0.4916  0.3608 -0.8173
  647MOL0     H87315   7.259  11.417   1.187 -0.7227 -0.0568 -0.2455
  647MOL0     H87316   7.409  11.337   1.243  0.4096  0.7545 -0.8088
  647MOL0     H87317   7.298  11.269   1.443  0.6792 -0.0974  0.1835
  647MOL0     H87318   7.157  11.372   1.396 -0.2382  1.3620  0.0599
  647MOL0     H87319   7.285  11.498   1.545 -0.4108 -1.3451 -1.1345
  647MOL0     H87320   7.442  11.451   1.481  0.8028 -0.9742 -3.2210
  647MOL0     H87321   7.409  11.575   1.288 -0.2699 -4.7207  3.0543
  647MOL0     H87322   7.414  11.693   1.425 -0.1329  2.2033 -1.4897
  647MOL0     H87323   7.237  11.759   1.253 -1.7095  4.7822  3.7760
  647MOL0     H87324   7.147  11.601   1.300 -0.1176 -0.0577  0.5615
  647MOL0     H87325   7.398  10.949   0.906 -1.5529 -0.7953 -0.6000
  647MOL0     H87326   7.539  10.844   0.745  2.8215  1.9143 -2.7597
  647MOL0     H87327   7.585  10.849   0.213 -4.0108  0.1700  0.0424
  647MOL0     H87328   7.649  10.746   0.027 -0.3907  1.2064  0.9571
  647MOL0     H87329   6.766   9.659   0.843  6.0322  0.1670  1.1262
  647MOL0     H87330   6.610   9.759   1.016  1.3118  2.0941  1.4367
  647MOL0     H87331   6.601   9.757   1.539  2.0189  1.6421  0.3104
  647MOL0     H87332   6.464   9.858   1.753 -0.7877 -1.6181 -1.0292
  647MOL0     H87333   6.158  10.130   1.670 -0.7963  0.4506  0.5936
  647MOL0     H87334   6.290  10.256   1.690  1.0176  0.5054 -0.4292
  647MOL0     H87335   6.102  10.301   1.854 -0.8007 -1.5523 -0.4550
  647MOL0     H87336   6.263  10.271   1.918  1.0617 -1.7607  0.2610
  647MOL0     H87337   6.125  10.137   2.063 -0.1376  1.3366  0.0990
  647MOL0     H87338   6.198  10.023   1.964 -0.8403 -0.4836  0.1658
  647MOL0     H87339   5.939  10.016   1.998  1.4473 -1.8506  0.3804
  647MOL0     H87340   5.931  10.128   1.850  1.3801 -0.1285 -1.0155
  647MOL0     H87341   6.002   9.744   1.696 -0.7720  1.6788 -1.3156
  647MOL0     H87342   6.322  10.155   1.465  2.2343  0.3147 -3.2110
  647MOL0     H87343   6.399   9.992   1.174 -0.5815 -2.1222  1.5513
  647MOL0     H87344   6.300  10.116   1.255  0.2504  1.2628 -1.0056
  647MOL0     H87345   6.467  10.148   1.239 -2.2787  3.0077 -1.7717
  648MOL0     O87346   5.985   3.106   2.066  0.4746 -0.4807  0.4174
  648MOL0     C87347   5.912   3.194   2.024 -0.8238  1.5623  0.4640
  648MOL0     O87348   5.897   3.237   1.892  0.7049 -0.4458  0.4622
  648MOL0     C87349   5.959   3.169   1.797  0.0122  0.0156  0.9143
  648MOL0     C87350   5.954   3.029   1.793  0.3091  0.6363 -0.2824
  648MOL0     C87351   6.028   2.954   1.697 -0.9548  0.5281  0.7479
  648MOL0     C87352   6.130   3.026   1.633 -0.2322  0.4148  1.1311
  648MOL0     O87353   6.226   2.958   1.565  0.3142 -0.6052 -0.5098
  648MOL0     C87354   6.317   2.880   1.647 -0.6089 -0.2293  1.0550
  648MOL0     C87355   6.329   2.748   1.579 -0.5217 -0.0756  0.1184
  648MOL0     C87356   6.453   2.662   1.628 -0.3041 -0.1645 -0.8588
  648MOL0     C87357   6.456   2.520   1.558 -0.2167  0.7956 -0.0694
  648MOL0     C87358   6.581   2.443   1.590 -1.2870 -0.3075 -0.1346
  648MOL0     C87359   6.587   2.309   1.517  0.6638 -0.0168  0.0898
  648MOL0     C87360   6.713   2.240   1.557  0.0103  0.4272 -0.2575
  648MOL0     C87361   6.823   2.242   1.452  0.7900 -0.4956  0.2577
  648MOL0     N87362   6.942   2.180   1.501 -0.4964 -0.7385  0.4112
  648MOL0     C87363   6.954   2.066   1.567 -0.2037  0.5213  0.0779
  648MOL0     C87364   7.089   2.039   1.563  0.3425 -0.2167 -0.0226
  648MOL0     C87365   7.154   1.912   1.613  0.3493  0.0670  1.0582
  648MOL0     C87366   7.293   1.944   1.660 -0.3523  0.5440  0.0996
  648MOL0     C87367   7.361   1.829   1.734  0.3859 -0.2541  0.0849
  648MOL0     C87368   7.505   1.859   1.763  0.2607 -0.7244 -0.8025
  648MOL0     O87369   7.593   1.825   1.658  0.1810 -0.3102  0.8777
  648MOL0     C87370   7.714   1.889   1.657  0.4828  1.0185  0.4877
  648MOL0     C87371   7.773   1.967   1.757 -0.3199 -0.1632  0.3185
  648MOL0     C87372   7.903   2.008   1.756 -0.7507 -0.2880  0.5247
  648MOL0     C87373   7.981   1.993   1.645 -0.6830 -0.2281  0.5854
  648MOL0     C87374   8.102   2.070   1.623 -0.4512  0.3594 -1.1298
  648MOL0     O87375   8.115   2.186   1.696 -0.5763  0.2990  0.3789
  648MOL0     C87376   8.216   2.277   1.669 -0.4654 -0.3039  0.8694
  648MOL0     C87377   8.327   2.281   1.763 -0.7179 -0.1846 -0.2027
  648MOL0     C87378   8.439   2.355   1.730 -0.5622  1.0232  0.3197
  648MOL0     C87379   8.462   2.423   1.611  0.5334  0.2760  0.3210
  648MOL0     O87380   8.574   2.494   1.595  0.0783  1.0065  0.6163
  648MOL0     C87381   8.602   2.564   1.468 -0.7210  0.2689  0.1293
  648MOL0     C87382   8.663   2.462   1.369 -0.0565 -0.3347  0.2566
  648MOL0     C87383   8.778   2.374   1.404  0.3267  0.6454  0.1567
  648MOL0     C87384   8.874   2.435   1.505  0.3507  0.5857  0.2320
  648MOL0     C87385   8.944   2.327   1.587  0.7400 -1.0243  0.5255
  648MOL0     C87386   9.030   2.387   1.689 -0.5798 -0.3720 -0.5044
  648MOL0     C87387   9.136   2.285   1.745 -0.7540 -0.5238 -0.4083
  648MOL0     C87388   9.189   2.358   1.871 -0.6212 -1.0831 -0.8561
  648MOL0    Cl87389   9.287   2.515   1.848  0.1531  0.4814 -0.1761
  648MOL0     C87390   8.353   2.421   1.521 -0.2391 -0.1079  1.1690
  648MOL0     C87391   8.239   2.344   1.546  0.0569 -0.5111 -0.2712
  648MOL0     O87392   8.181   2.031   1.539 -0.0543  0.3477  0.1257
  648MOL0     C87393   7.925   1.910   1.549  0.2190 -1.1776 -0.4181
  648MOL0     C87394   7.796   1.855   1.553 -0.0659 -0.2649  0.8671
  648MOL0     N87395   7.152   2.140   1.493 -0.2063 -0.0835 -0.5955
  648MOL0     N87396   7.060   2.228   1.462  0.7359  0.0588 -0.6612
  648MOL0     C87397   6.143   3.160   1.634  0.2215 -0.5094  0.6826
  648MOL0     C87398   6.052   3.237   1.715 -0.2994  0.3290  0.1749
  648MOL0     C87399   5.822   3.256   2.122  1.2464  0.1374  0.0875
  648MOL0     C87400   5.743   3.365   2.081  0.6036  0.6593 -0.1750
  648MOL0     C87401   5.641   3.419   2.157 -0.6719 -0.1516 -0.7291
  648MOL0     C87402   5.635   3.390   2.291  0.0825  0.2521  0.1871
  648MOL0     O87403   5.551   3.464   2.369 -0.2552 -0.9946 -0.0323
  648MOL0     C87404   5.456   3.388   2.445 -0.4393 -0.6372  0.0708
  648MOL0     C87405   5.404   3.507   2.530 -0.4035 -0.1111 -0.1090
  648MOL0     C87406   5.301   3.599   2.464 -0.0266  0.2760 -0.0204
  648MOL0     C87407   5.258   3.697   2.584 -0.3031 -0.2481  0.2199
  648MOL0     C87408   5.352   3.802   2.616 -0.2064  0.7576 -0.2109
  648MOL0     C87409   5.442   3.874   2.646 -0.1612  0.7861 -0.9884
  648MOL0     C87410   5.725   3.298   2.351  0.2519  0.6369 -0.3726
  648MOL0     C87411   5.820   3.227   2.269  0.9231 -0.4760  0.7247
  648MOL0     C87412   5.913   3.134   2.333 -1.1937  0.2505 -0.1080
  648MOL0     H87413   5.875   2.979   1.848  2.4254 -0.1900  2.2123
  648MOL0     H87414   6.012   2.847   1.696  1.0850  0.1849  0.2158
  648MOL0     H87415   6.419   2.918   1.634  1.7390 -6.0945 -1.0914
  648MOL0     H87416   6.293   2.864   1.752  0.3869 -3.5134  0.9196
  648MOL0     H87417   6.337   2.767   1.472  5.0533  1.2873  0.4419
  648MOL0     H87418   6.239   2.686   1.584 -1.2423  0.8740 -0.5348
  648MOL0     H87419   6.452   2.650   1.737  2.3790  2.1337 -0.4649
  648MOL0     H87420   6.549   2.713   1.613  2.3852 -3.2554  3.4042
  648MOL0     H87421   6.376   2.459   1.601 -0.6414  2.7703  2.1217
  648MOL0     H87422   6.441   2.520   1.449 -1.7483 -1.7344  0.0634
  648MOL0     H87423   6.664   2.510   1.567  0.0762 -2.3493 -1.3849
  648MOL0     H87424   6.576   2.422   1.697  1.3791  0.6139  0.2421
  648MOL0     H87425   6.506   2.253   1.565 -0.7685  2.4399  0.7229
  648MOL0     H87426   6.568   2.317   1.409 -2.7782  1.1257  0.6265
  648MOL0     H87427   6.674   2.138   1.563 -3.2186  1.3237 -3.0449
  648MOL0     H87428   6.754   2.290   1.645  1.4621  4.6524 -3.0089
  648MOL0     H87429   6.798   2.205   1.352  2.2261  0.9867 -0.7065
  648MOL0     H87430   6.833   2.350   1.436  0.3444 -0.3419  0.9610
  648MOL0     H87431   6.871   2.012   1.611  1.3610 -0.0816  2.4436
  648MOL0     H87432   7.102   1.861   1.695  1.1596 -4.2232 -0.8044
  648MOL0     H87433   7.152   1.848   1.524  1.3204  1.5625 -0.0983
  648MOL0     H87434   7.360   1.966   1.576  1.1050  1.8400  1.5309
  648MOL0     H87435   7.295   2.031   1.727  2.6837  1.1175 -0.5784
  648MOL0     H87436   7.359   1.732   1.685 -1.1615 -1.4597  2.3310
  648MOL0     H87437   7.304   1.812   1.826 -1.5887 -3.5263 -1.5458
  648MOL0     H87438   7.549   1.799   1.843  0.8211 -0.8910 -1.2212
  648MOL0     H87439   7.506   1.962   1.801  1.0336 -1.1680  0.4238
  648MOL0     H87440   7.714   1.992   1.845 -0.9356  1.0299 -0.4084
  648MOL0     H87441   7.922   2.056   1.852 -5.0818  0.1703  1.3648
  648MOL0     H87442   8.313   2.226   1.856 -2.5680 -0.0463 -0.3565
  648MOL0     H87443   8.508   2.353   1.814 -6.0179 -2.3011  5.5604
  648MOL0     H87444   8.517   2.624   1.437  0.6280  1.5463 -1.3076
  648MOL0     H87445   8.682   2.637   1.484 -0.3803  0.2722 -1.4050
  648MOL0     H87446   8.580   2.397   1.339 -0.3285  0.5972 -1.1347
  648MOL0     H87447   8.686   2.529   1.285  0.7500 -1.0157 -0.0829
  648MOL0     H87448   8.738   2.280   1.445  2.0883  0.6941  2.1515
  648MOL0     H87449   8.818   2.346   1.306 -0.2275 -1.7000  0.5303
  648MOL0     H87450   8.806   2.487   1.574 -1.0300  1.4837 -1.7054
  648MOL0     H87451   8.930   2.507   1.445 -0.7485 -0.1375 -1.7589
  648MOL0     H87452   9.009   2.268   1.521 -0.4394  1.1744 -2.8752
  648MOL0     H87453   8.865   2.266   1.631  0.7911 -1.3951  0.1097
  648MOL0     H87454   9.081   2.476   1.649 -1.9178 -0.0591 -1.5593
  648MOL0     H87455   8.973   2.434   1.769  0.8146  0.1957  0.1909
  648MOL0     H87456   9.209   2.271   1.664 -1.3775  0.3582 -1.1435
  648MOL0     H87457   9.090   2.188   1.763 -1.5926 -0.1906 -0.6914
  648MOL0     H87458   9.107   2.376   1.942  0.2697 -0.6268  0.0800
  648MOL0     H87459   9.256   2.298   1.933  0.6740  1.0650 -0.0449
  648MOL0     H87460   8.341   2.464   1.422 -0.9574 -1.8491  0.4679
  648MOL0     H87461   8.165   2.333   1.467 -0.2656  0.4360 -0.1115
  648MOL0     H87462   7.973   1.896   1.452  0.5493  0.2449 -0.4771
  648MOL0     H87463   7.750   1.811   1.466  1.6437 -0.5451  0.0532
  648MOL0     H87464   6.218   3.213   1.577  0.8451  0.9248  2.7077
  648MOL0     H87465   6.069   3.344   1.717  0.2104  0.2430  2.4227
  648MOL0     H87466   5.760   3.416   1.987  1.6841  4.2350  1.7690
  648MOL0     H87467   5.574   3.494   2.118 -2.2708 -2.1223 -2.0072
  648MOL0     H87468   5.500   3.318   2.516  1.5485  1.5198  1.0835
  648MOL0     H87469   5.382   3.338   2.382  0.4384 -4.0834  1.5840
  648MOL0     H87470   5.499   3.555   2.555  0.8018 -1.5473 -1.6758
  648MOL0     H87471   5.366   3.467   2.625  1.3199  0.3103  0.8067
  648MOL0     H87472   5.217   3.542   2.423 -2.4203 -0.4419  5.0578
  648MOL0     H87473   5.354   3.656   2.388  2.7450 -1.6765  0.2822
  648MOL0     H87474   5.180   3.757   2.537 -2.6106 -2.0633  1.5808
  648MOL0     H87475   5.225   3.644   2.673 -1.2343  1.5706  1.0148
  648MOL0     H87476   5.535   3.921   2.672  0.4537  0.7117 -2.8840
  648MOL0     H87477   5.720   3.272   2.457 -0.2577 -1.0383 -0.7682
  648MOL0     H87478   5.874   3.033   2.316  1.5694 -0.9045 -0.2069
  648MOL0     H87479   6.016   3.153   2.301 -0.7194  2.0128  2.1740
  648MOL0     H87480   5.906   3.148   2.441  0.6164  4.8184 -0.3514
  649MOL0     O87481   3.481   0.481   7.477 -0.4615 -0.6198 -0.2959
  649MOL0     C87482   3.416   0.419   7.565 -0.2629 -0.3952  1.0488
  649MOL0     O87483   3.431   0.290   7.600 -0.0090 -0.3609  0.4579
  649MOL0     C87484   3.549   0.230   7.560  0.0311  0.1226  0.9460
  649MOL0     C87485   3.669   0.254   7.620 -0.3068 -0.1407 -0.0355
  649MOL0     C87486   3.787   0.193   7.578 -1.2135  0.2292 -0.4711
  649MOL0     C87487   3.783   0.125   7.453 -0.6880 -0.2614  0.2758
  649MOL0     O87488   3.894   0.053   7.404 -0.0121 -0.3824  0.5360
  649MOL0     C87489   3.950   0.107   7.283 -0.2873 -0.2647 -0.3757
  649MOL0     C87490   4.065   0.017   7.247 -0.0736  0.8064  1.2094
  649MOL0     C87491   4.189   0.034   7.343  0.2843 -0.2382  0.4089
  649MOL0     C87492   4.317  -0.045   7.299  0.1594  0.5167 -0.4145
  649MOL0     C87493   4.422  -0.039   7.413  0.0967  0.4726 -1.0218
  649MOL0     C87494   4.550  -0.105   7.366 -0.7270 -0.3733 -0.6174
  649MOL0     C87495   4.672  -0.089   7.474 -0.5467 -0.2966  0.1887
  649MOL0     C87496   4.678  -0.206   7.568  1.3695 -0.4296  0.3177
  649MOL0     N87497   4.782  -0.194   7.665  0.2845 -0.0142 -1.0094
  649MOL0     C87498   4.908  -0.128   7.664  0.5425 -0.6057 -0.2680
  649MOL0     C87499   4.996  -0.193   7.748  0.0586  0.6057  0.7212
  649MOL0     C87500   5.125  -0.152   7.785  0.3817 -0.0279 -0.3954
  649MOL0     C87501   5.230  -0.154   7.670 -0.4428  0.0987  0.3339
  649MOL0     C87502   5.225  -0.029   7.578  0.8613  0.1987  0.0608
  649MOL0     C87503   5.234   0.104   7.655 -0.6743 -0.6315  0.7387
  649MOL0     O87504   5.222   0.220   7.564 -1.0070  0.6474  0.7680
  649MOL0     C87505   5.112   0.300   7.565 -0.2229  0.1719  0.5251
  649MOL0     C87506   5.001   0.248   7.511  0.6261 -0.7138  0.5383
  649MOL0     C87507   4.888   0.329   7.511  0.6426  1.0136 -0.3798
  649MOL0     C87508   4.886   0.452   7.589 -0.0649 -0.0713  0.5766
  649MOL0     C87509   4.755   0.520   7.605 -0.4614  0.3551 -0.1607
  649MOL0     O87510   4.640   0.452   7.590 -0.4642 -0.0545  0.7564
  649MOL0     C87511   4.535   0.524   7.546 -0.3087  0.8074 -0.0124
  649MOL0     C87512   4.538   0.618   7.438 -0.2170  1.3172 -1.3745
  649MOL0     C87513   4.420   0.669   7.390  0.4576 -0.3017  0.5633
  649MOL0     C87514   4.297   0.636   7.448 -0.1476  0.8493  0.4622
  649MOL0     O87515   4.178   0.664   7.391  0.3519  0.6480  0.2736
  649MOL0     C87516   4.153   0.804   7.391  0.9409  0.2520 -0.2629
  649MOL0     C87517   4.010   0.828   7.447 -0.2683  0.0530 -0.3159
  649MOL0     C87518   3.901   0.732   7.392  0.1607  0.5806  0.8727
  649MOL0     C87519   3.874   0.595   7.461 -0.1786 -0.4026 -0.7079
  649MOL0     C87520   3.825   0.617   7.609 -0.7848  0.9475  0.1739
  649MOL0     C87521   3.918   0.533   7.697  0.8250 -1.2229 -0.1603
  649MOL0     C87522   3.914   0.591   7.838  0.2967 -0.4724 -1.3675
  649MOL0     C87523   3.771   0.591   7.893  0.1460  0.6259  0.3770
  649MOL0    Cl87524   3.768   0.582   8.082  0.0180 -0.4402 -0.0148
  649MOL0     C87525   4.298   0.540   7.549  0.0109 -0.5348  0.1392
  649MOL0     C87526   4.411   0.487   7.597 -0.2377  0.0830  0.9186
  649MOL0     O87527   4.764   0.638   7.647  0.4527 -0.1796  0.3787
  649MOL0     C87528   5.005   0.499   7.651  0.0908  1.4787 -0.6510
  649MOL0     C87529   5.122   0.426   7.629 -0.2107 -0.7393 -0.6062
  649MOL0     N87530   4.925  -0.297   7.799  0.5617 -0.4896 -0.0228
  649MOL0     N87531   4.805  -0.294   7.750  0.1601 -0.5910 -0.2091
  649MOL0     C87532   3.663   0.104   7.389  0.1048 -1.1109  0.1431
  649MOL0     C87533   3.550   0.145   7.451  0.9050 -0.3681 -1.1858
  649MOL0     C87534   3.300   0.495   7.612 -0.2765 -0.9223 -0.7010
  649MOL0     C87535   3.187   0.535   7.530 -0.2029 -0.2721 -0.1941
  649MOL0     C87536   3.076   0.602   7.593 -0.4389  0.0866  0.1246
  649MOL0     C87537   3.067   0.623   7.730  0.1385 -0.5034 -0.4219
  649MOL0     O87538   2.955   0.687   7.774  0.3294  0.2606 -0.2172
  649MOL0     C87539   2.962   0.769   7.898 -0.6871  0.0980 -0.6636
  649MOL0     C87540   2.845   0.725   7.993  0.5405 -0.4054  0.0945
  649MOL0     C87541   2.834   0.784   8.139 -0.1080 -0.7962  0.4077
  649MOL0     C87542   2.717   0.727   8.219 -0.8285 -0.6756 -0.2285
  649MOL0     C87543   2.670   0.819   8.324 -1.1881  0.1213 -0.1234
  649MOL0     C87544   2.621   0.903   8.397  0.3733 -0.0434 -0.5776
  649MOL0     C87545   3.176   0.582   7.805  0.7103 -0.0328 -0.2563
  649MOL0     C87546   3.291   0.521   7.753  0.8749  0.5015 -0.4004
  649MOL0     C87547   3.414   0.499   7.839  0.1691 -0.2611 -0.2870
  649MOL0     H87548   3.675   0.300   7.718 -0.2818  0.8889 -0.5067
  649MOL0     H87549   3.887   0.193   7.622 -0.1780 -0.6247 -2.6672
  649MOL0     H87550   3.882   0.106   7.197  0.9523  2.7589 -1.5461
  649MOL0     H87551   3.983   0.211   7.299  0.9527 -0.7254  0.2188
  649MOL0     H87552   4.081   0.033   7.140 -0.3894  0.8150  1.1628
  649MOL0     H87553   4.039  -0.089   7.255 -0.3394  0.5887 -1.7219
  649MOL0     H87554   4.154  -0.002   7.440 -0.0560 -0.4923  0.1925
  649MOL0     H87555   4.214   0.140   7.358 -0.0812 -0.4080  2.5360
  649MOL0     H87556   4.283  -0.147   7.282 -1.7579  0.8265  1.0735
  649MOL0     H87557   4.355   0.004   7.209 -1.3138 -1.7506 -2.3895
  649MOL0     H87558   4.454   0.057   7.456 -0.9098  0.3140  0.1173
  649MOL0     H87559   4.386  -0.099   7.497  0.9008 -1.1509 -1.7878
  649MOL0     H87560   4.540  -0.211   7.344  3.3744 -0.8013 -1.3410
  649MOL0     H87561   4.588  -0.067   7.271  3.9187  3.7280  2.3081
  649MOL0     H87562   4.645  -0.007   7.542 -2.5017 -1.9342  1.5261
  649MOL0     H87563   4.770  -0.065   7.432 -0.3145  0.8475  1.3239
  649MOL0     H87564   4.577  -0.216   7.609 -0.4575 -0.0185 -3.5719
  649MOL0     H87565   4.691  -0.293   7.504 -1.2090  1.5589 -3.2730
  649MOL0     H87566   4.931  -0.029   7.625  2.3865 -2.0400 -3.0987
  649MOL0     H87567   5.119  -0.057   7.839 -0.8451  0.4856 -1.4015
  649MOL0     H87568   5.155  -0.231   7.854 -3.7534  1.3556  3.4884
  649MOL0     H87569   5.323  -0.141   7.726  1.2838  1.6450 -2.6337
  649MOL0     H87570   5.233  -0.252   7.621  0.4227  0.5016 -0.4458
  649MOL0     H87571   5.125  -0.030   7.534 -0.1790 -0.5977  2.3235
  649MOL0     H87572   5.292  -0.044   7.492 -0.3835  0.8596 -1.0694
  649MOL0     H87573   5.332   0.113   7.701  1.0940  1.0697 -2.9666
  649MOL0     H87574   5.153   0.119   7.727 -0.6729  1.7898  0.3107
  649MOL0     H87575   4.999   0.155   7.455  2.2187  0.0280 -0.8620
  649MOL0     H87576   4.798   0.293   7.462  2.3622 -2.4929 -1.2933
  649MOL0     H87577   4.632   0.644   7.391  1.1022  0.3599  0.6109
  649MOL0     H87578   4.410   0.734   7.304 -4.7783 -3.6175 -1.8563
  649MOL0     H87579   4.227   0.864   7.444  2.4196 -1.7586  0.0659
  649MOL0     H87580   4.152   0.833   7.285 -0.7987 -1.0195 -0.6486
  649MOL0     H87581   4.015   0.818   7.556 -1.2282 -1.2835 -0.3789
  649MOL0     H87582   3.974   0.927   7.418  1.8548 -0.0993 -4.0782
  649MOL0     H87583   3.809   0.790   7.403  1.8261  3.0127  3.0995
  649MOL0     H87584   3.913   0.710   7.286 -0.4387  1.8829  0.5099
  649MOL0     H87585   3.963   0.533   7.451 -1.6702 -2.4067 -2.2587
  649MOL0     H87586   3.798   0.537   7.408 -0.2803 -0.5984 -0.3560
  649MOL0     H87587   3.726   0.581   7.636 -0.8667 -3.6083 -4.5126
  649MOL0     H87588   3.828   0.723   7.634 -3.8023  1.4546 -1.2301
  649MOL0     H87589   3.888   0.428   7.693 -1.8845 -0.5344  0.1710
  649MOL0     H87590   4.019   0.548   7.657  0.2059  0.5206 -1.1752
  649MOL0     H87591   3.938   0.697   7.849 -2.2733 -0.0670  2.1708
  649MOL0     H87592   3.982   0.530   7.897  0.9895  1.0418 -0.5411
  649MOL0     H87593   3.696   0.666   7.866 -1.1278 -0.0314  1.9290
  649MOL0     H87594   3.733   0.497   7.853  2.1078 -1.2066  2.5802
  649MOL0     H87595   4.204   0.496   7.580 -0.9929  0.3262 -1.5417
  649MOL0     H87596   4.411   0.397   7.658  0.9258  0.9176  2.2074
  649MOL0     H87597   4.999   0.585   7.717  1.6871  2.0667 -1.2093
  649MOL0     H87598   5.209   0.470   7.677 -2.1024  4.5377 -1.4531
  649MOL0     H87599   3.652   0.031   7.309 -1.1193  0.3047 -1.0543
  649MOL0     H87600   3.455   0.120   7.405 -0.4670  1.6037  0.4102
  649MOL0     H87601   3.191   0.525   7.422 -0.6676  2.5181 -0.5551
  649MOL0     H87602   2.992   0.621   7.527 -0.6896 -1.2991  0.0145
  649MOL0     H87603   2.947   0.873   7.868 -3.2961 -0.5375 -1.8812
  649MOL0     H87604   3.059   0.758   7.945 -1.2453 -0.4471  0.3815
  649MOL0     H87605   2.856   0.617   8.010  0.7017 -0.5188 -0.6803
  649MOL0     H87606   2.751   0.750   7.942  0.7414  0.4693  0.1453
  649MOL0     H87607   2.839   0.893   8.137  3.6963 -0.8356 -1.1314
  649MOL0     H87608   2.920   0.752   8.198 -1.0941 -1.0271  1.7781
  649MOL0     H87609   2.635   0.710   8.148  2.2337 -0.2253 -4.2591
  649MOL0     H87610   2.747   0.632   8.263 -0.9787 -0.7555 -0.2964
  649MOL0     H87611   2.570   0.968   8.465  1.1137  0.0589 -0.1128
  649MOL0     H87612   3.156   0.596   7.911 -1.5329 -0.0011 -0.6377
  649MOL0     H87613   3.510   0.507   7.786 -0.4044  0.1923 -1.2853
  649MOL0     H87614   3.411   0.579   7.913  1.3043 -1.7549  1.4572
  649MOL0     H87615   3.422   0.401   7.887  2.2195 -0.5503 -1.0844
  650MOL0     O87616   1.477   1.211  11.404  0.4346  0.2452 -0.4472
  650MOL0     C87617   1.559   1.125  11.424 -0.6444  0.2461 -0.4773
  650MOL0     O87618   1.592   1.020  11.335 -0.5704 -0.0056  0.2970
  650MOL0     C87619   1.585   1.038  11.198  1.2610 -0.2550 -0.2513
  650MOL0     C87620   1.596   0.926  11.120  1.1467 -0.6481  0.4183
  650MOL0     C87621   1.593   0.921  10.985  0.7977 -0.5975 -0.7298
  650MOL0     C87622   1.577   1.045  10.916  0.0325  0.7164  0.3182
  650MOL0     O87623   1.588   1.043  10.781  0.7859  0.1409 -0.9513
  650MOL0     C87624   1.548   1.154  10.705 -0.0261  0.2907  1.0491
  650MOL0     C87625   1.556   1.120  10.563 -0.1094 -0.8929 -0.5197
  650MOL0     C87626   1.486   0.991  10.505 -0.5952 -0.5477  0.2416
  650MOL0     C87627   1.528   0.857  10.565  0.0139 -0.2877  0.2492
  650MOL0     C87628   1.490   0.729  10.491  1.0135  0.8912  0.0884
  650MOL0     C87629   1.338   0.699  10.492  0.5116 -0.2063  0.3975
  650MOL0     C87630   1.327   0.552  10.447  0.2025  0.8221  0.1675
  650MOL0     C87631   1.214   0.480  10.523 -0.4948  0.9390  0.6133
  650MOL0     N87632   1.088   0.532  10.475  0.4102 -0.4001 -1.3165
  650MOL0     C87633   1.022   0.490  10.370 -0.3504 -0.8280  0.0713
  650MOL0     C87634   0.898   0.556  10.376 -0.8387 -0.0641 -0.4089
  650MOL0     C87635   0.785   0.531  10.291  0.3495  0.0409  0.5672
  650MOL0     C87636   0.737   0.663  10.223  0.5643 -0.9784  0.6283
  650MOL0     C87637   0.636   0.635  10.104 -0.2384  0.0146  0.0803
  650MOL0     C87638   0.548   0.749  10.056  0.4494 -0.3896 -0.3819
  650MOL0     O87639   0.469   0.674   9.964 -0.0475  0.0337  0.5270
  650MOL0     C87640   0.345   0.621  10.008 -0.7738 -0.4111 -0.4418
  650MOL0     C87641   0.267   0.567   9.911  1.0556 -0.8103 -0.3255
  650MOL0     C87642   0.136   0.526   9.931  0.0750 -0.7076  0.5880
  650MOL0     C87643   0.076   0.530  10.049 -0.3962 -0.1487  0.0203
  650MOL0     C87644  -0.066   0.483  10.062 -0.7954  0.2308  0.4337
  650MOL0     O87645  -0.110   0.511  10.192  0.3445  0.6399 -0.3158
  650MOL0     C87646  -0.226   0.469  10.250 -0.0898 -0.1206  0.0549
  650MOL0     C87647  -0.257   0.343  10.286  0.4999  0.3757  0.8907
  650MOL0     C87648  -0.383   0.310  10.338 -0.0891  0.8357 -0.2032
  650MOL0     C87649  -0.476   0.407  10.361 -0.5546 -0.2931 -0.0821
  650MOL0     O87650  -0.586   0.354  10.430 -0.4655 -0.6029 -0.4074
  650MOL0     C87651  -0.670   0.455  10.495 -0.7576 -0.4419  0.9050
  650MOL0     C87652  -0.767   0.380  10.594 -0.7378  0.1405  0.9302
  650MOL0     C87653  -0.774   0.454  10.723  0.2366 -0.0930 -0.0368
  650MOL0     C87654  -0.642   0.448  10.811 -0.2948 -0.9892 -0.2397
  650MOL0     C87655  -0.668   0.481  10.951 -0.5662  0.0531  0.2235
  650MOL0     C87656  -0.705   0.632  10.977  0.2629 -0.2346 -0.6861
  650MOL0     C87657  -0.783   0.655  11.113 -0.2592 -0.6671  0.9426
  650MOL0     C87658  -0.698   0.617  11.238 -1.0920 -0.1264 -0.9078
  650MOL0    Cl87659  -0.553   0.720  11.233 -0.2878  0.2339  0.0154
  650MOL0     C87660  -0.438   0.540  10.349  0.5446 -0.5074 -0.4197
  650MOL0     C87661  -0.319   0.566  10.298 -0.5097 -0.6736 -1.0023
  650MOL0     O87662  -0.129   0.442   9.965  0.5880 -0.5635  0.5969
  650MOL0     C87663   0.154   0.570  10.161 -0.7784  0.0813 -0.5666
  650MOL0     C87664   0.290   0.610  10.139  0.7750 -0.6551 -0.2227
  650MOL0     N87665   0.893   0.636  10.488 -0.1863 -0.7078  0.3602
  650MOL0     N87666   1.006   0.619  10.547  0.1254 -0.5914  0.3295
  650MOL0     C87667   1.573   1.167  10.991 -0.1338 -0.2064  0.2856
  650MOL0     C87668   1.579   1.162  11.129  1.0871  0.9069 -0.9198
  650MOL0     C87669   1.614   1.108  11.562  0.6336 -0.2537  0.0025
  650MOL0     C87670   1.596   1.216  11.650 -0.2047 -0.1375  0.3111
  650MOL0     C87671   1.643   1.195  11.785  0.0337  0.2263  1.1754
  650MOL0     C87672   1.724   1.088  11.817 -0.0399 -0.5896 -0.1876
  650MOL0     O87673   1.770   1.093  11.942 -0.5219  0.0981 -0.1817
  650MOL0     C87674   1.847   0.975  11.990 -0.1925 -1.1181 -0.3728
  650MOL0     C87675   1.851   0.987  12.141 -0.4810 -0.5104  0.0611
  650MOL0     C87676   1.995   1.047  12.181  0.0813  0.3396 -0.8770
  650MOL0     C87677   2.005   1.068  12.337 -0.9588  0.5268  0.5520
  650MOL0     C87678   2.010   0.949  12.419 -0.1139 -0.3252  0.7360
  650MOL0     C87679   2.020   0.855  12.495  1.0508 -0.0551 -0.5344
  650MOL0     C87680   1.739   0.985  11.722  0.1978 -1.0700  0.1810
  650MOL0     C87681   1.675   0.985  11.600  0.4472 -0.1254  1.0201
  650MOL0     C87682   1.675   0.857  11.526 -0.1785  0.1871 -0.8254
  650MOL0     H87683   1.612   0.836  11.179 -1.6341 -0.7683  1.1051
  650MOL0     H87684   1.623   0.829  10.935  2.4149 -2.1098  2.7206
  650MOL0     H87685   1.442   1.165  10.728 -0.0428 -1.0643  1.7124
  650MOL0     H87686   1.609   1.242  10.728  0.4657 -0.3095  2.1570
  650MOL0     H87687   1.663   1.116  10.541 -0.0180  2.8494 -1.3661
  650MOL0     H87688   1.519   1.203  10.503  0.0809  0.9643  1.8152
  650MOL0     H87689   1.495   0.990  10.396 -1.5316  0.9058  0.1161
  650MOL0     H87690   1.380   0.997  10.528 -0.8118 -2.3937 -0.1581
  650MOL0     H87691   1.636   0.857  10.579  0.1997 -0.8713 -1.1019
  650MOL0     H87692   1.485   0.852  10.666  0.0864  3.5006  0.6450
  650MOL0     H87693   1.532   0.736  10.390  0.3184  1.5380 -0.1735
  650MOL0     H87694   1.543   0.649  10.543  2.1078  0.6132 -1.4079
  650MOL0     H87695   1.288   0.726  10.585 -0.2410 -0.7573  0.1661
  650MOL0     H87696   1.282   0.755  10.416 -2.2819 -0.9765  1.7620
  650MOL0     H87697   1.420   0.499  10.467  0.5125  1.4353  0.3972
  650MOL0     H87698   1.314   0.553  10.338  2.1317 -1.3071 -0.1477
  650MOL0     H87699   1.231   0.373  10.508  1.3354  1.2753  0.1516
  650MOL0     H87700   1.211   0.499  10.631 -2.5716 -0.4996  0.8798
  650MOL0     H87701   1.059   0.409  10.308  2.3264 -1.0486  1.7909
  650MOL0     H87702   0.818   0.464  10.211 -3.0239  0.5358 -1.4550
  650MOL0     H87703   0.703   0.486  10.348  0.2083  1.1856  1.2902
  650MOL0     H87704   0.679   0.711  10.302  3.2433 -0.2647  2.3120
  650MOL0     H87705   0.824   0.726  10.200 -1.6021  2.2539  0.5281
  650MOL0     H87706   0.573   0.549  10.128  0.2430  0.1970  2.2344
  650MOL0     H87707   0.705   0.604  10.025  1.6369  1.0743  1.2159
  650MOL0     H87708   0.602   0.826   9.999 -2.4762  1.5197 -0.7614
  650MOL0     H87709   0.492   0.790  10.141  2.4722  0.7595  0.4780
  650MOL0     H87710   0.291   0.548   9.806 -1.4191 -6.1521 -0.2862
  650MOL0     H87711   0.076   0.485   9.851  2.6733  0.3612 -2.1619
  650MOL0     H87712  -0.183   0.265  10.279 -1.6101 -1.5716 -1.3200
  650MOL0     H87713  -0.396   0.210  10.376  2.3425 -0.8924 -3.4431
  650MOL0     H87714  -0.611   0.529  10.549 -1.0176  2.5165 -2.5063
  650MOL0     H87715  -0.720   0.518  10.421 -3.0950 -0.6649  2.1973
  650MOL0     H87716  -0.866   0.367  10.550 -2.8401  1.2221  4.8644
  650MOL0     H87717  -0.726   0.279  10.603 -1.5253 -0.6694 -2.7409
  650MOL0     H87718  -0.814   0.555  10.714 -0.4176 -0.4616 -1.5782
  650MOL0     H87719  -0.860   0.413  10.777  0.6051 -0.6476  0.1403
  650MOL0     H87720  -0.563   0.519  10.784  0.2127 -1.3345  0.3311
  650MOL0     H87721  -0.608   0.346  10.796 -1.3004 -1.0650 -2.5065
  650MOL0     H87722  -0.577   0.455  11.006  1.1675  1.3501 -1.8627
  650MOL0     H87723  -0.748   0.415  10.987  0.6966 -3.4199 -2.6831
  650MOL0     H87724  -0.620   0.700  10.990  0.5958 -1.1071  2.3642
  650MOL0     H87725  -0.763   0.679  10.896  2.3978  3.8081 -0.1634
  650MOL0     H87726  -0.874   0.594  11.103 -2.1811  2.3639 -3.1802
  650MOL0     H87727  -0.808   0.761  11.123 -1.0160 -0.8149  0.7043
  650MOL0     H87728  -0.755   0.632  11.330 -0.3131 -1.8284 -0.0961
  650MOL0     H87729  -0.666   0.514  11.254 -1.7721  0.0518  2.3917
  650MOL0     H87730  -0.503   0.624  10.372  1.7009  0.0515  0.9496
  650MOL0     H87731  -0.306   0.672  10.278 -2.2960  0.0155  1.0175
  650MOL0     H87732   0.105   0.571  10.258 -2.9517 -3.1714 -1.4514
  650MOL0     H87733   0.342   0.649  10.226  0.8423 -2.2431  0.4741
  650MOL0     H87734   1.590   1.259  10.937 -0.2402 -0.0925  0.4483
  650MOL0     H87735   1.582   1.258  11.179 -0.6066  0.5966 -0.1450
  650MOL0     H87736   1.546   1.308  11.621 -0.2872 -0.6013 -1.0666
  650MOL0     H87737   1.612   1.263  11.863 -2.1302 -0.0829  0.6538
  650MOL0     H87738   1.941   0.946  11.942 -0.6823 -2.0261 -0.8067
  650MOL0     H87739   1.787   0.889  11.959  1.1124 -2.4177  0.5797
  650MOL0     H87740   1.830   0.888  12.183  2.2680 -0.3748  2.0385
  650MOL0     H87741   1.779   1.062  12.175  1.0014  1.2664 -0.5471
  650MOL0     H87742   2.015   1.138  12.124  1.0563 -0.1020 -1.2701
  650MOL0     H87743   2.079   0.984  12.149  1.5234  0.7767  1.7870
  650MOL0     H87744   2.097   1.125  12.350  0.1566 -0.3004 -2.7184
  650MOL0     H87745   1.932   1.143  12.370  0.6058  1.5697  1.7959
  650MOL0     H87746   2.046   0.769  12.553  1.5915 -1.0848 -2.2269
  650MOL0     H87747   1.806   0.906  11.753  0.5504 -1.3839 -1.2916
  650MOL0     H87748   1.762   0.834  11.464  0.8270  2.0389 -0.2110
  650MOL0     H87749   1.665   0.785  11.608 -1.1751  1.8510  0.5951
  650MOL0     H87750   1.592   0.839  11.458  0.3655  0.5914 -1.6192
  651MOL0     O87751   6.474   5.077   3.366 -0.6277 -0.2578  0.2458
  651MOL0     C87752   6.358   5.098   3.396  0.2502  0.0208 -0.0379
  651MOL0     O87753   6.307   5.198   3.478 -0.9727 -1.2659 -0.1986
  651MOL0     C87754   6.415   5.263   3.542 -0.3294  0.2832  0.3169
  651MOL0     C87755   6.437   5.242   3.678 -0.7539  0.2795 -0.3362
  651MOL0     C87756   6.554   5.288   3.746  0.0236 -0.6620  0.0324
  651MOL0     C87757   6.628   5.397   3.688  0.1396 -0.4626 -0.3480
  651MOL0     O87758   6.722   5.456   3.760  0.7421 -0.3045 -1.3126
  651MOL0     C87759   6.824   5.531   3.688 -0.0103 -0.5912 -0.4110
  651MOL0     C87760   6.933   5.582   3.785 -0.1954  0.8032  0.0975
  651MOL0     C87761   6.865   5.691   3.874  0.2974  0.6772 -1.0590
  651MOL0     C87762   6.970   5.761   3.957  0.5751 -0.0593 -0.8085
  651MOL0     C87763   6.904   5.858   4.056 -0.0502  0.5702 -0.1951
  651MOL0     C87764   6.811   5.968   3.998 -0.0882 -0.2111  0.0231
  651MOL0     C87765   6.804   6.093   4.083 -0.1730  0.3411  0.7900
  651MOL0     C87766   6.686   6.076   4.180 -0.0400  0.2851 -0.1482
  651MOL0     N87767   6.561   6.123   4.124  0.1810 -1.2263  0.0680
  651MOL0     C87768   6.437   6.057   4.134  0.2479 -0.7207  0.4087
  651MOL0     C87769   6.346   6.133   4.064  0.6611  0.8111  0.3881
  651MOL0     C87770   6.198   6.118   4.059 -0.2070 -0.2849  0.7465
  651MOL0     C87771   6.163   6.006   3.963  0.5419  0.7838  1.0950
  651MOL0     C87772   6.014   5.980   3.933  1.4303  0.4634 -0.4940
  651MOL0     C87773   5.991   5.870   3.829 -0.8812 -0.4620 -0.1848
  651MOL0     O87774   6.012   5.758   3.901 -0.1515  0.3030  0.1107
  651MOL0     C87775   5.986   5.637   3.839 -0.3884  0.1312  0.2419
  651MOL0     C87776   5.982   5.608   3.705 -0.3592  0.5666  0.3444
  651MOL0     C87777   5.976   5.473   3.651  0.7446 -0.4325  0.5238
  651MOL0     C87778   5.954   5.372   3.735 -0.0924 -0.6043 -0.8431
  651MOL0     C87779   5.935   5.237   3.676 -0.1756 -0.3030 -0.0929
  651MOL0     O87780   5.965   5.123   3.763  0.0677 -0.1305 -0.6025
  651MOL0     C87781   5.919   5.003   3.717  0.2339 -0.9456 -0.7556
  651MOL0     C87782   5.977   4.888   3.773 -0.8427 -0.9410  0.0190
  651MOL0     C87783   5.923   4.770   3.735  0.1378  0.4327 -0.4807
  651MOL0     C87784   5.810   4.751   3.660 -0.8213 -0.3479  0.2115
  651MOL0     O87785   5.765   4.632   3.614  0.5726  0.6075  0.2960
  651MOL0     C87786   5.851   4.516   3.607  0.6284  0.5219  0.7551
  651MOL0     C87787   5.825   4.416   3.714 -0.6318 -0.1790  0.3333
  651MOL0     C87788   5.906   4.284   3.707  0.5084 -0.1951 -0.6990
  651MOL0     C87789   5.873   4.200   3.585 -0.0292 -0.1555 -0.3816
  651MOL0     C87790   5.972   4.085   3.554 -0.7919  0.2754 -0.7035
  651MOL0     C87791   5.908   3.969   3.470  0.0098  0.3562  0.1577
  651MOL0     C87792   5.835   4.027   3.342 -1.1446  0.2383 -0.5148
  651MOL0     C87793   5.751   3.924   3.284  0.0281  0.1620 -0.8033
  651MOL0    Cl87794   5.837   3.777   3.255  0.2803 -0.0504  0.0901
  651MOL0     C87795   5.744   4.859   3.622  0.2859 -0.6347  0.4732
  651MOL0     C87796   5.795   4.985   3.652  1.2823 -0.2124 -0.7937
  651MOL0     O87797   5.908   5.229   3.557  0.2678 -0.0550 -0.1996
  651MOL0     C87798   5.952   5.395   3.873  0.0440  0.4908  0.3317
  651MOL0     C87799   5.985   5.525   3.924  0.8130  0.6266  0.2442
  651MOL0     N87800   6.415   6.246   4.027 -0.3086 -0.1311  1.0052
  651MOL0     N87801   6.537   6.251   4.075 -0.6983  0.2957  0.1026
  651MOL0     C87802   6.602   5.425   3.550 -0.4031 -0.1022 -0.0774
  651MOL0     C87803   6.487   5.369   3.491  0.2610 -0.3277 -0.2177
  651MOL0     C87804   6.243   5.029   3.317 -0.0458 -0.7982 -0.7773
  651MOL0     C87805   6.113   5.016   3.372 -0.8321  0.6524 -0.1092
  651MOL0     C87806   6.007   4.957   3.314 -1.3022 -0.9493  0.6298
  651MOL0     C87807   6.028   4.916   3.183  0.9459  0.1048 -0.4566
  651MOL0     O87808   5.933   4.835   3.136 -0.1827  0.1816 -0.5716
  651MOL0     C87809   5.946   4.763   3.019 -0.1405  1.0039 -1.3401
  651MOL0     C87810   5.900   4.839   2.905 -0.8564  0.5152  0.5259
  651MOL0     C87811   5.874   4.736   2.789  0.1995 -0.4426  0.0148
  651MOL0     C87812   5.762   4.791   2.695  0.0462  0.7442 -0.2213
  651MOL0     C87813   5.762   4.706   2.578 -0.4748 -1.0098 -0.3264
  651MOL0     C87814   5.756   4.635   2.478  0.6768 -0.6451 -0.1330
  651MOL0     C87815   6.147   4.932   3.122  0.2941 -0.0115  0.8920
  651MOL0     C87816   6.257   4.998   3.184  0.0763  0.9565 -0.0715
  651MOL0     C87817   6.372   5.038   3.102  0.2769 -0.7316 -0.0710
  651MOL0     H87818   6.380   5.164   3.729  0.6372  0.2394  1.2389
  651MOL0     H87819   6.575   5.255   3.848 -1.4583 -0.3965  0.4569
  651MOL0     H87820   6.864   5.470   3.607  0.9757 -3.0706  1.8039
  651MOL0     H87821   6.779   5.618   3.638 -0.2819 -0.7619 -0.4664
  651MOL0     H87822   7.021   5.624   3.737  0.9116 -0.3687  1.0189
  651MOL0     H87823   6.969   5.499   3.847  0.8322  0.5948 -0.7594
  651MOL0     H87824   6.800   5.635   3.942 -0.5347  0.4191 -2.0408
  651MOL0     H87825   6.822   5.772   3.813  1.4870  0.9495 -1.5594
  651MOL0     H87826   7.021   5.686   4.019  2.2846  1.1814 -0.6399
  651MOL0     H87827   7.031   5.803   3.876 -0.1520 -1.1006 -1.9193
  651MOL0     H87828   6.857   5.807   4.140  0.5011  3.7789  2.2506
  651MOL0     H87829   6.987   5.912   4.104 -2.0248  1.5374  2.4005
  651MOL0     H87830   6.856   5.982   3.900  0.2045 -2.0791 -0.1512
  651MOL0     H87831   6.715   5.931   3.962 -0.7617  2.6247 -1.3597
  651MOL0     H87832   6.790   6.181   4.019  3.0104  0.9899  0.8337
  651MOL0     H87833   6.896   6.107   4.140  1.3017  1.7121 -1.7560
  651MOL0     H87834   6.689   5.970   4.208 -1.1696  0.6369  1.4338
  651MOL0     H87835   6.702   6.142   4.265 -1.3794  1.8935 -1.0866
  651MOL0     H87836   6.426   5.962   4.186  2.3778 -0.1083  2.1289
  651MOL0     H87837   6.147   6.104   4.155  1.4614  0.0953  1.7072
  651MOL0     H87838   6.155   6.208   4.014 -0.3718 -0.9630 -0.5071
  651MOL0     H87839   6.217   6.029   3.871  0.3756  1.3730  1.1417
  651MOL0     H87840   6.206   5.907   3.982  0.1670 -1.2621 -5.8567
  651MOL0     H87841   5.979   6.066   3.875  2.9870 -1.5482 -4.8819
  651MOL0     H87842   5.958   5.953   4.023  0.5662 -3.4000 -1.9616
  651MOL0     H87843   6.056   5.884   3.742  0.5892 -0.4658  0.8627
  651MOL0     H87844   5.886   5.863   3.799 -0.6851 -2.2660 -0.6044
  651MOL0     H87845   6.008   5.679   3.627 -0.8841  0.8316  0.4033
  651MOL0     H87846   5.988   5.463   3.544  0.0225 -0.2255  0.4195
  651MOL0     H87847   6.062   4.902   3.838  0.9816  0.2973 -2.4391
  651MOL0     H87848   5.982   4.689   3.777  0.0234 -0.0134 -1.1654
  651MOL0     H87849   5.818   4.472   3.512 -3.3902 -0.8441  2.5563
  651MOL0     H87850   5.959   4.532   3.603  0.2155  3.9128 -2.6944
  651MOL0     H87851   5.845   4.453   3.815  0.7083  1.8668 -0.6168
  651MOL0     H87852   5.717   4.404   3.702 -0.8730  2.4226 -0.6443
  651MOL0     H87853   6.006   4.326   3.708 -0.3105  1.9631 -2.2334
  651MOL0     H87854   5.890   4.224   3.797  1.8538  0.0136 -0.3059
  651MOL0     H87855   5.872   4.259   3.493  1.2574 -0.6841 -0.7580
  651MOL0     H87856   5.773   4.157   3.589  0.6504 -1.8837 -0.9245
  651MOL0     H87857   6.014   4.048   3.648  1.4594  0.7359 -1.4764
  651MOL0     H87858   6.060   4.110   3.495 -0.5717 -0.7211 -0.8221
  651MOL0     H87859   5.991   3.901   3.451  1.7824  2.3553  0.2758
  651MOL0     H87860   5.835   3.919   3.534  0.9089 -0.0412  0.8995
  651MOL0     H87861   5.900   4.070   3.265 -0.8238  1.7328  0.5448
  651MOL0     H87862   5.784   4.121   3.363 -0.4038  1.5289 -3.8172
  651MOL0     H87863   5.668   3.909   3.354 -0.6405  0.3040 -1.5578
  651MOL0     H87864   5.706   3.963   3.192 -0.1141  1.7913 -0.0687
  651MOL0     H87865   5.649   4.847   3.571  0.6083  1.2033 -0.6532
  651MOL0     H87866   5.730   5.061   3.610  1.0178 -0.6026 -1.0883
  651MOL0     H87867   5.957   5.308   3.937  4.1945  0.0815 -0.2385
  651MOL0     H87868   5.989   5.525   4.033 -1.2188 -2.7096  0.4443
  651MOL0     H87869   6.669   5.495   3.502  1.6418 -0.6809  1.7424
  651MOL0     H87870   6.469   5.400   3.388 -2.8107  2.6698  1.0377
  651MOL0     H87871   6.104   5.065   3.468 -1.8195  1.0235 -0.3796
  651MOL0     H87872   5.914   4.939   3.367 -0.5097 -2.4995  1.5773
  651MOL0     H87873   5.885   4.674   3.037  0.6407  0.8262  0.7077
  651MOL0     H87874   6.049   4.730   3.007  0.2240  1.7835 -0.4363
  651MOL0     H87875   5.983   4.906   2.879 -0.9279  0.6018  0.5210
  651MOL0     H87876   5.809   4.891   2.936 -1.3026 -0.8738  1.6324
  651MOL0     H87877   5.853   4.636   2.829 -0.0410 -0.2081  0.4749
  651MOL0     H87878   5.962   4.730   2.723 -1.2822  0.7000 -2.1863
  651MOL0     H87879   5.665   4.792   2.745  0.6976  2.0059  1.0932
  651MOL0     H87880   5.786   4.896   2.674  0.0111  0.8230  0.1336
  651MOL0     H87881   5.754   4.567   2.396  1.4263 -0.9923  0.1256
  651MOL0     H87882   6.148   4.911   3.016  1.9148  5.2629 -0.4129
  651MOL0     H87883   6.423   5.119   3.153 -0.0682  0.2477 -1.2245
  651MOL0     H87884   6.440   4.953   3.092 -1.2078 -1.9926  0.0325
  651MOL0     H87885   6.357   5.064   2.996  1.3475 -2.7667 -0.7774
  652MOL0     O87886   6.820   2.698   1.439  0.9551  0.6153  0.0689
  652MOL0     C87887   6.923   2.685   1.370 -0.5524 -0.3666 -0.0547
  652MOL0     O87888   6.926   2.655   1.233 -0.2061  0.9204 -0.1927
  652MOL0     C87889   6.819   2.677   1.158 -0.6362 -0.1277  0.6248
  652MOL0     C87890   6.834   2.785   1.062 -0.4331  0.6267 -0.3382
  652MOL0     C87891   6.724   2.819   0.988  0.2315  0.0891  0.1791
  652MOL0     C87892   6.603   2.749   0.995 -0.8088  0.3321 -0.6467
  652MOL0     O87893   6.504   2.769   0.905 -0.0911  0.4549 -0.3167
  652MOL0     C87894   6.449   2.897   0.923 -0.2332 -0.0651 -0.3090
  652MOL0     C87895   6.296   2.899   0.901 -0.2171 -1.4696  0.1630
  652MOL0     C87896   6.226   3.029   0.942 -0.7063 -0.1867  0.2561
  652MOL0     C87897   6.219   3.145   0.839 -0.3570 -0.3289 -0.0673
  652MOL0     C87898   6.136   3.263   0.888 -0.8669 -0.6852  0.2947
  652MOL0     C87899   6.135   3.379   0.788 -0.8732 -0.6344 -0.7370
  652MOL0     C87900   6.119   3.519   0.856  0.5726  1.1716  0.4441
  652MOL0     C87901   5.966   3.538   0.882  0.0327 -0.1200  0.5941
  652MOL0     N87902   5.917   3.670   0.918  0.5661  0.1928 -0.0135
  652MOL0     C87903   5.945   3.792   0.862  0.0783 -0.3643  0.3448
  652MOL0     C87904   5.894   3.887   0.949  0.2402  0.1780 -0.5684
  652MOL0     C87905   5.907   4.036   0.931 -0.4538 -0.7546 -0.5532
  652MOL0     C87906   5.918   4.110   1.073 -0.2282 -1.1519  0.3115
  652MOL0     C87907   5.924   4.262   1.059 -0.1657  0.0783 -1.2501
  652MOL0     C87908   5.935   4.327   1.197 -0.7388 -1.2906 -0.3785
  652MOL0     O87909   5.911   4.461   1.182 -0.3811  0.2383 -1.1594
  652MOL0     C87910   5.867   4.532   1.295 -1.0838 -0.6864  1.2332
  652MOL0     C87911   5.879   4.671   1.277 -0.9869 -0.0926 -0.7171
  652MOL0     C87912   5.852   4.755   1.386  0.4157  0.1152  0.4846
  652MOL0     C87913   5.794   4.710   1.512  0.0708  0.8456  0.6368
  652MOL0     C87914   5.736   4.804   1.607 -0.5125 -0.9772 -0.3829
  652MOL0     O87915   5.661   4.740   1.714 -0.2980  0.5560  0.4257
  652MOL0     C87916   5.610   4.808   1.820  0.9852 -0.8959 -0.4228
  652MOL0     C87917   5.587   4.738   1.940 -0.2357 -0.0290 -1.0030
  652MOL0     C87918   5.539   4.807   2.056  0.5015 -0.3779  0.0640
  652MOL0     C87919   5.494   4.934   2.052  0.2029  0.2605 -1.2692
  652MOL0     O87920   5.444   4.987   2.169 -0.1852 -0.3190  0.3535
  652MOL0     C87921   5.504   4.957   2.299 -0.3745  1.1428  0.2911
  652MOL0     C87922   5.475   5.073   2.394 -0.1657 -0.1441  0.3096
  652MOL0     C87923   5.532   5.213   2.347 -1.2943  0.1941  0.2482
  652MOL0     C87924   5.450   5.338   2.373 -0.4944 -0.6689 -0.6134
  652MOL0     C87925   5.433   5.378   2.520  0.4739 -0.9776  0.4982
  652MOL0     C87926   5.450   5.526   2.550 -0.3151  0.7260  0.4934
  652MOL0     C87927   5.426   5.562   2.691 -0.0236  0.2179  0.0496
  652MOL0     C87928   5.487   5.699   2.720 -0.2756 -0.0226  0.8592
  652MOL0    Cl87929   5.384   5.833   2.663  0.5923  0.4176  0.1797
  652MOL0     C87930   5.507   5.001   1.933  0.0019 -0.1749 -0.1180
  652MOL0     C87931   5.560   4.947   1.814 -0.3970  0.8334  0.1845
  652MOL0     O87932   5.751   4.929   1.592 -0.0756  0.4414 -0.6768
  652MOL0     C87933   5.779   4.570   1.518 -0.3863  0.1560 -0.0315
  652MOL0     C87934   5.817   4.477   1.410  0.5467 -0.6349  0.3609
  652MOL0     N87935   5.828   3.822   1.039 -0.1490  0.2129 -0.1680
  652MOL0     N87936   5.836   3.695   1.025 -0.2904 -0.0918 -0.4889
  652MOL0     C87937   6.596   2.633   1.070 -0.1375  1.1347 -0.1117
  652MOL0     C87938   6.701   2.601   1.163 -0.1008 -0.9508 -0.2961
  652MOL0     C87939   7.053   2.676   1.430  0.4833 -0.1856  0.3539
  652MOL0     C87940   7.132   2.556   1.418  0.5313  0.3349  0.5146
  652MOL0     C87941   7.261   2.547   1.463  0.5148  0.6551 -0.6973
  652MOL0     C87942   7.314   2.654   1.530  0.7221 -0.0141 -0.6600
  652MOL0     O87943   7.434   2.652   1.594  0.1188 -0.3901  0.0760
  652MOL0     C87944   7.501   2.534   1.597 -0.1555 -0.1912 -0.0358
  652MOL0     C87945   7.621   2.541   1.690  0.0918 -0.2589  0.7633
  652MOL0     C87946   7.696   2.406   1.709 -0.1216  0.3299 -0.0131
  652MOL0     C87947   7.835   2.375   1.636  0.8644 -0.3743 -0.0425
  652MOL0     C87948   7.843   2.369   1.490  0.1819 -0.0300 -0.3214
  652MOL0     C87949   7.851   2.366   1.371  0.3296  0.3256 -1.0301
  652MOL0     C87950   7.236   2.774   1.548 -0.5443  2.1323  0.7672
  652MOL0     C87951   7.108   2.787   1.498  0.1047 -0.3171  0.5133
  652MOL0     C87952   7.053   2.926   1.530  0.3367 -0.2389  0.3996
  652MOL0     H87953   6.921   2.849   1.054 -0.8419  1.5861  2.0366
  652MOL0     H87954   6.736   2.897   0.915  1.8096 -0.0279  0.2665
  652MOL0     H87955   6.457   2.942   1.022 -2.0279 -1.6719  0.6042
  652MOL0     H87956   6.498   2.961   0.848 -2.7097  0.3587 -1.6945
  652MOL0     H87957   6.247   2.827   0.968  0.4551  0.1519  2.5135
  652MOL0     H87958   6.274   2.869   0.798 -0.3236 -1.2270  0.1166
  652MOL0     H87959   6.297   3.069   1.015  3.2171  0.4728 -3.4600
  652MOL0     H87960   6.124   3.013   0.978 -0.0274 -2.7310  1.2158
  652MOL0     H87961   6.320   3.180   0.813 -0.3763 -1.0964 -1.2785
  652MOL0     H87962   6.166   3.112   0.749  1.2329 -0.9036 -0.8460
  652MOL0     H87963   6.033   3.238   0.915 -0.5499 -0.3866  1.8540
  652MOL0     H87964   6.174   3.304   0.982 -2.4891  3.5413 -0.6429
  652MOL0     H87965   6.233   3.382   0.739 -0.3099 -0.5913  0.3553
  652MOL0     H87966   6.049   3.366   0.721 -0.5530 -2.5082 -0.8298
  652MOL0     H87967   6.161   3.590   0.783 -0.3810 -0.2307 -1.5748
  652MOL0     H87968   6.165   3.531   0.954  0.5557  2.1620  0.3417
  652MOL0     H87969   5.908   3.508   0.794  2.5054  1.5184 -1.7660
  652MOL0     H87970   5.936   3.469   0.961  1.0281  0.0575  1.1422
  652MOL0     H87971   6.010   3.815   0.778 -1.9459 -2.1870 -1.8133
  652MOL0     H87972   6.000   4.054   0.876 -0.6611  1.3968 -0.2772
  652MOL0     H87973   5.826   4.069   0.865  1.6636  3.7477 -1.3167
  652MOL0     H87974   5.844   4.073   1.145  0.2764  0.8123  1.9353
  652MOL0     H87975   6.016   4.090   1.116  1.5795  2.1905 -1.8568
  652MOL0     H87976   5.834   4.300   1.012 -1.5765  1.0401  1.9661
  652MOL0     H87977   6.012   4.300   1.006 -1.9375 -0.3442 -4.7822
  652MOL0     H87978   6.036   4.304   1.231  0.4828  4.0366  0.5741
  652MOL0     H87979   5.875   4.275   1.272  0.9260 -0.5536  1.5245
  652MOL0     H87980   5.926   4.707   1.186 -1.1385  0.2804 -0.6498
  652MOL0     H87981   5.890   4.856   1.379  0.6239 -0.0633 -1.3427
  652MOL0     H87982   5.612   4.633   1.948 -2.2935 -0.6573 -2.3002
  652MOL0     H87983   5.532   4.751   2.148 -0.2151  1.1068  0.9515
  652MOL0     H87984   5.468   4.861   2.339 -0.2087  0.6738 -0.6531
  652MOL0     H87985   5.610   4.934   2.288 -1.0821 -1.5728 -2.3169
  652MOL0     H87986   5.366   5.073   2.393 -0.1871  1.2948 -0.8327
  652MOL0     H87987   5.529   5.060   2.489  1.1757  0.1944 -0.3762
  652MOL0     H87988   5.635   5.236   2.378 -0.9373 -0.7125 -0.2338
  652MOL0     H87989   5.539   5.202   2.238 -1.3572 -2.0353  0.4286
  652MOL0     H87990   5.351   5.317   2.331 -1.3554 -5.0874  2.8655
  652MOL0     H87991   5.481   5.422   2.310 -0.1004 -1.6592 -1.7843
  652MOL0     H87992   5.497   5.313   2.580  1.5928 -2.7098 -2.3335
  652MOL0     H87993   5.338   5.342   2.560 -0.0051 -1.1635 -0.7523
  652MOL0     H87994   5.549   5.566   2.525  1.6455 -1.6099  3.7076
  652MOL0     H87995   5.377   5.579   2.489  0.7731  0.8129 -0.7862
  652MOL0     H87996   5.470   5.486   2.755  2.2740  1.6000  0.2310
  652MOL0     H87997   5.320   5.560   2.719  0.3455  0.4850  1.5400
  652MOL0     H87998   5.507   5.721   2.825  0.7465  0.7449  0.5179
  652MOL0     H87999   5.579   5.715   2.663 -1.7170  0.4288 -1.4921
  652MOL0     H88000   5.472   5.103   1.932  3.0469  1.0004  0.6879
  652MOL0     H88001   5.573   5.008   1.725  1.5384  1.7801  1.0660
  652MOL0     H88002   5.721   4.530   1.601  1.5437 -1.8507  0.4422
  652MOL0     H88003   5.802   4.369   1.414  0.2997 -0.5954  0.5019
  652MOL0     H88004   6.510   2.568   1.080  0.8613  0.2043  4.4668
  652MOL0     H88005   6.684   2.529   1.243 -3.6660 -0.5307 -0.5113
  652MOL0     H88006   7.104   2.462   1.372  1.9764  1.9484 -4.3737
  652MOL0     H88007   7.300   2.446   1.454 -0.7375 -0.4965  4.0792
  652MOL0     H88008   7.540   2.510   1.498  2.1502 -0.0848  0.7992
  652MOL0     H88009   7.440   2.450   1.631 -3.7324  2.0169 -0.4198
  652MOL0     H88010   7.607   2.599   1.781 -0.4695  0.2141  0.3791
  652MOL0     H88011   7.698   2.585   1.626  2.1635 -3.1141  1.0895
  652MOL0     H88012   7.628   2.322   1.695 -2.1960  2.0466 -0.8582
  652MOL0     H88013   7.716   2.422   1.815  0.2641  2.4702 -0.3588
  652MOL0     H88014   7.917   2.434   1.677 -0.2980  0.1713  1.6603
  652MOL0     H88015   7.843   2.271   1.670 -0.5667  0.3377  2.8062
  652MOL0     H88016   7.870   2.389   1.268 -0.4756  0.2592 -1.1959
  652MOL0     H88017   7.285   2.855   1.602  0.5437  1.3620  0.9842
  652MOL0     H88018   6.943   2.930   1.528  0.1403 -3.0300 -2.1231
  652MOL0     H88019   7.087   2.974   1.622  1.3443  0.9251 -0.5409
  652MOL0     H88020   7.098   2.997   1.460 -2.1682 -0.4833 -1.6545
  653MOL0     O88021   9.343   7.569   0.454 -0.3337  0.3788  0.0255
  653MOL0     C88022   9.321   7.448   0.447  0.6980  0.2242 -0.8053
  653MOL0     O88023   9.319   7.374   0.333 -0.0482  0.9238  0.8487
  653MOL0     C88024   9.337   7.443   0.217 -0.4778 -1.3344  0.3779
  653MOL0     C88025   9.233   7.526   0.166 -0.5917 -0.3428 -0.5299
  653MOL0     C88026   9.263   7.624   0.066  0.1081  0.3756  0.1087
  653MOL0     C88027   9.392   7.618   0.001  0.0375 -0.1703 -0.8586
  653MOL0     O88028   9.430   7.693  -0.119  0.3112  0.2842  0.4310
  653MOL0     C88029   9.357   7.818  -0.133  0.5690  0.3223  0.3002
  653MOL0     C88030   9.442   7.905  -0.224  0.1802  1.0303  0.2137
  653MOL0     C88031   9.577   7.944  -0.165  0.4929 -0.2026 -0.3639
  653MOL0     C88032   9.635   8.048  -0.255 -0.5927  0.2319 -0.4146
  653MOL0     C88033   9.764   8.088  -0.196  0.4265  0.0293  0.6218
  653MOL0     C88034   9.862   8.133  -0.306  1.0008 -0.7542 -0.1006
  653MOL0     C88035  10.002   8.178  -0.257 -0.2667  0.4385 -0.1080
  653MOL0     C88036  10.023   8.324  -0.267 -0.9331  0.0862  0.7564
  653MOL0     N88037   9.939   8.404  -0.185  0.1650 -0.9438  0.9295
  653MOL0     C88038   9.979   8.445  -0.059  0.9076 -0.1972 -0.4662
  653MOL0     C88039   9.860   8.514  -0.016 -0.6647  0.0810 -0.8668
  653MOL0     C88040   9.850   8.553   0.132  0.1347  0.3237  0.1039
  653MOL0     C88041   9.736   8.490   0.213 -0.1894 -0.2241  0.1957
  653MOL0     C88042   9.615   8.580   0.187 -0.1990 -0.3904  0.1442
  653MOL0     C88043   9.481   8.506   0.205  0.5104  0.0676  0.1608
  653MOL0     O88044   9.477   8.376   0.129 -0.4613 -0.4904  0.2892
  653MOL0     C88045   9.424   8.381   0.009  0.0406 -0.2388 -0.7653
  653MOL0     C88046   9.364   8.266  -0.043 -0.0206 -0.7595 -0.0457
  653MOL0     C88047   9.304   8.260  -0.171  0.1522 -0.4513 -1.1840
  653MOL0     C88048   9.307   8.375  -0.253  0.1143  0.5543 -0.7119
  653MOL0     C88049   9.245   8.370  -0.396 -0.4038  0.5217 -0.3399
  653MOL0     O88050   9.238   8.488  -0.458 -0.3894 -1.2813  0.2484
  653MOL0     C88051   9.204   8.511  -0.591 -0.4911  1.2479  0.6090
  653MOL0     C88052   9.183   8.422  -0.700  0.0495  0.3741  0.2022
  653MOL0     C88053   9.127   8.457  -0.827 -0.0457 -0.3202  0.9163
  653MOL0     C88054   9.085   8.591  -0.848 -1.0058 -0.5492 -0.0460
  653MOL0     O88055   9.030   8.637  -0.963  0.9142  0.2590 -0.7847
  653MOL0     C88056   9.073   8.598  -1.091  0.0240  0.2741 -0.5183
  653MOL0     C88057   9.028   8.686  -1.208 -0.5223 -0.0108  0.4924
  653MOL0     C88058   9.090   8.665  -1.346  0.0449 -0.1558 -0.5767
  653MOL0     C88059   9.051   8.766  -1.453  0.4969  0.6449 -0.6989
  653MOL0     C88060   9.138   8.740  -1.574 -0.2668 -0.5911  0.7647
  653MOL0     C88061   9.070   8.780  -1.705  0.7873  0.0741  0.6955
  653MOL0     C88062   9.179   8.760  -1.812 -0.4305  0.2122  0.2976
  653MOL0     C88063   9.115   8.768  -1.950 -0.6063 -0.5161  0.3602
  653MOL0    Cl88064   9.079   8.930  -2.023  0.1854 -0.5301 -0.5529
  653MOL0     C88065   9.109   8.681  -0.748  0.0711 -0.3968  0.1732
  653MOL0     C88066   9.168   8.640  -0.627  0.1886  0.0657 -0.0962
  653MOL0     O88067   9.193   8.262  -0.430 -0.2519  0.3971  0.0053
  653MOL0     C88068   9.369   8.487  -0.204 -0.3374 -0.5591 -0.7528
  653MOL0     C88069   9.432   8.492  -0.079  0.4282  0.7976  0.5956
  653MOL0     N88070   9.767   8.534  -0.113  0.2254  1.1976  0.4263
  653MOL0     N88071   9.818   8.469  -0.221 -0.5637 -0.1637  0.1400
  653MOL0     C88072   9.478   7.527   0.047  0.0669  0.6261  0.3074
  653MOL0     C88073   9.457   7.443   0.153 -0.2484  0.8241 -1.1851
  653MOL0     C88074   9.341   7.363   0.573  0.7421 -0.6523  0.5759
  653MOL0     C88075   9.299   7.222   0.557 -0.3196 -0.2787 -0.0707
  653MOL0     C88076   9.311   7.129   0.664  0.4594 -0.0765 -0.3182
  653MOL0     C88077   9.360   7.165   0.788  0.5969  0.5866 -0.3012
  653MOL0     O88078   9.370   7.059   0.882  0.1502  0.2152  0.1880
  653MOL0     C88079   9.474   7.070   0.977 -0.0446 -0.0890  0.7883
  653MOL0     C88080   9.613   7.044   0.908  0.3756 -0.8005 -0.2833
  653MOL0     C88081   9.733   7.041   0.999 -0.8462  0.1548  0.1554
  653MOL0     C88082   9.723   6.952   1.113 -0.8187  0.3371  0.3209
  653MOL0     C88083   9.842   6.946   1.195 -0.0039 -0.4687 -0.1420
  653MOL0     C88084   9.956   6.952   1.255  0.1590  0.6832 -0.3239
  653MOL0     C88085   9.398   7.301   0.801 -0.1439 -0.0466 -0.2473
  653MOL0     C88086   9.384   7.404   0.707 -1.1682  1.3437  0.5159
  653MOL0     C88087   9.434   7.544   0.748  0.4867 -0.2872  0.4015
  653MOL0     H88088   9.143   7.517   0.225  0.3005  1.9949  1.3487
  653MOL0     H88089   9.188   7.698   0.038 -1.0526 -0.4810  0.8534
  653MOL0     H88090   9.261   7.806  -0.184  1.4972 -0.9231 -1.2691
  653MOL0     H88091   9.354   7.869  -0.036  0.7034  0.8676  0.0203
  653MOL0     H88092   9.383   7.994  -0.247 -1.1947  0.0275 -0.2309
  653MOL0     H88093   9.451   7.856  -0.322  1.4289  0.0311  0.7989
  653MOL0     H88094   9.651   7.864  -0.160  1.7317  0.9880  1.3148
  653MOL0     H88095   9.570   7.993  -0.068  4.8770  1.5890 -0.7613
  653MOL0     H88096   9.647   8.000  -0.352 -0.3735  0.9586 -0.7520
  653MOL0     H88097   9.565   8.130  -0.269 -1.5608 -0.8005 -2.0194
  653MOL0     H88098   9.747   8.151  -0.108  1.2131 -2.2556  2.4961
  653MOL0     H88099   9.802   7.994  -0.154 -0.2424 -0.9523 -0.9096
  653MOL0     H88100   9.875   8.052  -0.378 -1.1016  0.3510 -1.8673
  653MOL0     H88101   9.820   8.214  -0.366  1.9618 -0.7455 -0.7679
  653MOL0     H88102  10.078   8.122  -0.311 -1.2690 -0.8715 -0.2252
  653MOL0     H88103  10.007   8.129  -0.159 -2.6422 -0.0309 -0.1451
  653MOL0     H88104  10.125   8.343  -0.233 -0.2117 -0.0569 -1.2234
  653MOL0     H88105  10.027   8.357  -0.371 -0.0042 -0.6975  0.5365
  653MOL0     H88106  10.073   8.413  -0.015  0.5324 -0.6866  0.0016
  653MOL0     H88107   9.938   8.499   0.168 -0.0943 -0.8744 -1.0673
  653MOL0     H88108   9.871   8.659   0.150  1.3700  0.3049 -1.1071
  653MOL0     H88109   9.718   8.387   0.180 -0.2608 -0.8620  2.0869
  653MOL0     H88110   9.765   8.483   0.319  1.4348  2.9652  0.0735
  653MOL0     H88111   9.611   8.612   0.083 -1.9429 -1.2838 -0.1074
  653MOL0     H88112   9.614   8.669   0.251 -0.2260 -1.1970  1.3071
  653MOL0     H88113   9.391   8.563   0.177  1.2586  0.2047 -2.1449
  653MOL0     H88114   9.470   8.486   0.312  2.9743  0.6316  0.5659
  653MOL0     H88115   9.342   8.179   0.019 -2.3868 -0.9174 -0.9760
  653MOL0     H88116   9.254   8.176  -0.219  0.8670 -0.7030 -1.4993
  653MOL0     H88117   9.196   8.315  -0.695 -0.9712  0.2092 -0.4182
  653MOL0     H88118   9.102   8.385  -0.905  1.6889  1.2337 -1.1825
  653MOL0     H88119   9.178   8.569  -1.103 -0.7385 -2.3069 -1.8236
  653MOL0     H88120   9.033   8.497  -1.107  1.5598 -0.5023  0.3190
  653MOL0     H88121   8.920   8.680  -1.224 -0.8986  3.2734  1.0302
  653MOL0     H88122   9.048   8.786  -1.167 -0.5101 -0.8099  2.5285
  653MOL0     H88123   9.199   8.661  -1.344  0.1267  1.2665 -0.8800
  653MOL0     H88124   9.066   8.566  -1.385  4.0830 -2.3183  1.8298
  653MOL0     H88125   9.072   8.867  -1.417 -1.2689  0.6511  0.3978
  653MOL0     H88126   8.943   8.758  -1.469  0.0126 -0.6620  2.4865
  653MOL0     H88127   9.172   8.638  -1.597 -3.7572 -1.7929  0.4028
  653MOL0     H88128   9.232   8.795  -1.562 -1.7916  3.2871 -2.8438
  653MOL0     H88129   8.985   8.717  -1.735 -0.2868  2.0358 -0.5869
  653MOL0     H88130   9.044   8.885  -1.688 -0.4270 -0.4789  2.5377
  653MOL0     H88131   9.219   8.658  -1.810  1.4074  0.8410 -1.4480
  653MOL0     H88132   9.256   8.836  -1.802  0.0496  0.3632 -3.3293
  653MOL0     H88133   9.177   8.717  -2.024 -1.5996  0.4026 -1.1644
  653MOL0     H88134   9.014   8.726  -1.944 -1.8723  2.2363 -0.1444
  653MOL0     H88135   9.072   8.779  -0.776 -0.7649 -0.8373 -0.3144
  653MOL0     H88136   9.206   8.714  -0.558  1.0906 -0.1936 -0.3000
  653MOL0     H88137   9.393   8.572  -0.268 -0.7742  0.3234  0.2281
  653MOL0     H88138   9.478   8.590  -0.068  2.7389 -0.0944 -0.3382
  653MOL0     H88139   9.578   7.528   0.004 -0.0269  1.5097  0.0868
  653MOL0     H88140   9.534   7.382   0.199 -2.5484 -0.8464  0.7082
  653MOL0     H88141   9.274   7.194   0.455 -1.1210  3.2011 -0.9658
  653MOL0     H88142   9.277   7.026   0.650 -1.8781  0.8606 -2.3233
  653MOL0     H88143   9.449   6.986   1.044 -3.6632 -1.6097 -2.0857
  653MOL0     H88144   9.476   7.162   1.037  0.2904  0.9334 -0.7524
  653MOL0     H88145   9.623   7.113   0.823  3.2755 -0.2132  0.4401
  653MOL0     H88146   9.614   6.952   0.849 -1.0645 -1.0018 -0.0264
  653MOL0     H88147   9.741   7.144   1.036  0.8029  0.8413 -1.9803
  653MOL0     H88148   9.823   7.019   0.941  0.1550  2.5306  0.6686
  653MOL0     H88149   9.635   6.974   1.174  0.4796 -1.6031  3.1304
  653MOL0     H88150   9.702   6.853   1.071 -0.9086  0.1255  0.8560
  653MOL0     H88151  10.045   6.945   1.315 -0.0372 -2.1085 -0.2491
  653MOL0     H88152   9.442   7.340   0.892  0.4094  4.4778 -2.1808
  653MOL0     H88153   9.507   7.541   0.829  1.5829 -2.0727 -0.5973
  653MOL0     H88154   9.497   7.574   0.664  0.9414 -1.3824  0.3345
  653MOL0     H88155   9.350   7.613   0.761  0.8036  0.0680  0.5664
  654MOL0     O88156   8.099   6.362   5.282  0.7917  0.3970 -0.6418
  654MOL0     C88157   8.208   6.402   5.247 -0.3543  0.4769 -0.8647
  654MOL0     O88158   8.229   6.489   5.153 -0.2383  0.0293 -0.2771
  654MOL0     C88159   8.124   6.562   5.110 -0.1771  1.4610 -0.4793
  654MOL0     C88160   8.029   6.628   5.194  0.0554  0.0897 -0.4979
  654MOL0     C88161   7.919   6.690   5.133  1.1838 -0.1454 -0.7891
  654MOL0     C88162   7.904   6.690   4.995 -0.0727 -0.5095 -0.1202
  654MOL0     O88163   7.787   6.746   4.949  0.0226 -0.5277 -0.1340
  654MOL0     C88164   7.766   6.738   4.817  0.0665 -0.2442  0.0404
  654MOL0     C88165   7.616   6.796   4.797  0.4931 -0.6981  0.1340
  654MOL0     C88166   7.509   6.716   4.868 -0.2189 -0.3538  0.1416
  654MOL0     C88167   7.375   6.778   4.833 -0.8605  1.1315  0.9350
  654MOL0     C88168   7.264   6.703   4.904  0.5233 -0.2109  0.1787
  654MOL0     C88169   7.242   6.570   4.835 -0.2482  0.2252 -0.3864
  654MOL0     C88170   7.127   6.491   4.900 -1.0767 -0.4325 -0.2136
  654MOL0     C88171   7.170   6.401   5.017  0.5289 -0.4815 -0.1259
  654MOL0     N88172   7.241   6.293   4.960 -0.1448 -0.3380  0.4704
  654MOL0     C88173   7.380   6.286   4.947  1.2536 -0.1021  0.3802
  654MOL0     C88174   7.392   6.147   4.951 -0.3009 -0.7440  1.3537
  654MOL0     C88175   7.527   6.068   4.962  0.0878 -0.1949  0.5404
  654MOL0     C88176   7.520   5.927   4.892  0.8782 -0.7389  0.5742
  654MOL0     C88177   7.521   5.912   4.737 -1.0350  0.2880 -0.3495
  654MOL0     C88178   7.475   5.762   4.708 -0.9964 -0.5308 -0.1313
  654MOL0     O88179   7.337   5.776   4.704  0.0000 -0.1251 -0.5130
  654MOL0     C88180   7.253   5.726   4.803  1.1714 -0.6486 -0.8515
  654MOL0     C88181   7.141   5.803   4.845 -0.6861 -0.5654  1.3307
  654MOL0     C88182   7.051   5.761   4.937  0.4925  1.0011  0.4174
  654MOL0     C88183   7.077   5.642   5.006 -0.8443 -0.4510  0.0932
  654MOL0     C88184   6.990   5.599   5.113 -0.4743  0.0511 -0.0498
  654MOL0     O88185   7.017   5.482   5.179 -0.7249 -0.0724  0.6233
  654MOL0     C88186   6.929   5.437   5.271  0.6403  0.8292 -0.5056
  654MOL0     C88187   6.919   5.296   5.287  0.9701  1.1591 -0.1166
  654MOL0     C88188   6.844   5.246   5.399  0.2318  0.5205  0.1823
  654MOL0     C88189   6.781   5.330   5.488  0.4790 -0.7069 -0.2891
  654MOL0     O88190   6.696   5.278   5.581 -0.8571  0.9416 -0.0400
  654MOL0     C88191   6.739   5.149   5.656  0.4768  0.5360  0.6918
  654MOL0     C88192   6.650   5.126   5.773 -0.0548 -0.1185  0.0025
  654MOL0     C88193   6.673   4.996   5.824 -0.0638  0.2895  0.2496
  654MOL0     C88194   6.652   5.003   5.977 -0.7036  1.2688 -0.8347
  654MOL0     C88195   6.789   5.014   6.054  0.4912  0.0400 -0.2351
  654MOL0     C88196   6.782   5.091   6.186 -0.6547  0.6565  1.0137
  654MOL0     C88197   6.789   5.238   6.164 -0.2630  1.1386  0.5804
  654MOL0     C88198   6.788   5.303   6.306 -0.4556 -0.0182 -0.1914
  654MOL0    Cl88199   6.746   5.474   6.296 -0.5093  0.4340 -0.4031
  654MOL0     C88200   6.781   5.469   5.469  0.1842  1.0300  0.5020
  654MOL0     C88201   6.859   5.520   5.367 -0.2590 -0.0128 -0.1871
  654MOL0     O88202   6.900   5.675   5.140 -0.1635 -0.1155 -0.4194
  654MOL0     C88203   7.194   5.572   4.967 -0.1520  0.0045 -0.3453
  654MOL0     C88204   7.281   5.612   4.873  0.2685  0.2948  0.8188
  654MOL0     N88205   7.274   6.085   4.936 -0.3546  0.5475 -0.8722
  654MOL0     N88206   7.184   6.169   4.942  0.5514  0.3233 -0.0706
  654MOL0     C88207   8.005   6.634   4.910 -0.6986  0.4934 -0.6213
  654MOL0     C88208   8.114   6.574   4.970  0.0469  0.3503 -0.2488
  654MOL0     C88209   8.320   6.325   5.305  0.1780 -0.3325 -0.5782
  654MOL0     C88210   8.287   6.239   5.411 -0.1327  0.3512 -1.5407
  654MOL0     C88211   8.382   6.143   5.473 -0.0247  0.1428  0.4373
  654MOL0     C88212   8.507   6.134   5.414  0.6338  0.1044 -0.2838
  654MOL0     O88213   8.588   6.028   5.443  0.3469 -0.5337 -0.6714
  654MOL0     C88214   8.697   6.050   5.538 -0.4715  0.7140 -0.2220
  654MOL0     C88215   8.784   5.919   5.538 -0.2711  0.6782  0.7893
  654MOL0     C88216   8.891   5.930   5.642  0.5016 -0.5959  0.1401
  654MOL0     C88217   9.023   5.987   5.584  0.3324 -0.7359  0.8964
  654MOL0     C88218   9.129   6.005   5.688  0.0281 -1.6773 -0.1400
  654MOL0     C88219   9.203   6.033   5.782  0.0829  0.3247 -0.2484
  654MOL0     C88220   8.537   6.224   5.308 -0.0281  0.5244 -0.3270
  654MOL0     C88221   8.445   6.306   5.245 -0.3098 -0.1886 -0.3245
  654MOL0     C88222   8.495   6.385   5.124  0.7945  0.0074  0.0578
  654MOL0     H88223   8.049   6.642   5.299 -0.7559  3.4510 -0.6825
  654MOL0     H88224   7.840   6.728   5.197 -1.3443  0.0615 -3.7835
  654MOL0     H88225   7.839   6.798   4.760 -0.7866  1.1561  0.3815
  654MOL0     H88226   7.775   6.637   4.777  1.4750  0.9375 -2.9920
  654MOL0     H88227   7.588   6.809   4.692  2.0371  2.0494 -0.0190
  654MOL0     H88228   7.609   6.894   4.844  0.1185 -0.9625  0.6539
  654MOL0     H88229   7.519   6.717   4.977  0.5692 -1.3811  0.0894
  654MOL0     H88230   7.511   6.614   4.831 -1.0700  0.2610 -1.7385
  654MOL0     H88231   7.369   6.887   4.844 -1.6517  1.8785 -4.4063
  654MOL0     H88232   7.360   6.771   4.725 -1.3973  0.7997  1.0268
  654MOL0     H88233   7.283   6.690   5.011  1.5464 -0.2564  0.0076
  654MOL0     H88234   7.175   6.762   4.879  1.3433  1.6654  1.5073
  654MOL0     H88235   7.197   6.598   4.739  0.4591  1.2662 -0.4264
  654MOL0     H88236   7.324   6.501   4.815 -0.8511 -0.3038 -1.1013
  654MOL0     H88237   7.073   6.430   4.827  0.8881 -0.7128 -1.5355
  654MOL0     H88238   7.059   6.556   4.955  0.9700  0.7561  1.0548
  654MOL0     H88239   7.224   6.444   5.101  0.0721 -1.0703  0.4791
  654MOL0     H88240   7.078   6.359   5.057 -0.5037 -0.0019 -1.8587
  654MOL0     H88241   7.456   6.361   4.967  0.0161  1.7774 -1.5275
  654MOL0     H88242   7.606   6.118   4.906  0.7985 -1.0457  0.7609
  654MOL0     H88243   7.558   6.068   5.067 -6.6924  0.0223  3.0806
  654MOL0     H88244   7.595   5.868   4.944 -0.5117 -0.4855  3.0449
  654MOL0     H88245   7.426   5.878   4.921 -0.6764 -0.0581 -2.8657
  654MOL0     H88246   7.620   5.933   4.696 -2.3737  4.9221 -1.7868
  654MOL0     H88247   7.447   5.976   4.691  0.0175  3.8591  2.4285
  654MOL0     H88248   7.518   5.700   4.787  1.1759  1.3888  0.2974
  654MOL0     H88249   7.503   5.723   4.609 -2.2229 -1.9957  0.0640
  654MOL0     H88250   7.106   5.890   4.790 -2.8639 -1.5851  0.9807
  654MOL0     H88251   6.971   5.830   4.959  0.6285  2.0101 -1.9556
  654MOL0     H88252   6.963   5.235   5.208 -2.3192  0.0697 -1.2589
  654MOL0     H88253   6.838   5.138   5.406 -4.9386  0.1933 -3.6955
  654MOL0     H88254   6.719   5.067   5.586 -2.3458  1.3161  0.4507
  654MOL0     H88255   6.842   5.163   5.690  1.0749  0.5068 -0.9921
  654MOL0     H88256   6.673   5.212   5.837  0.9952  2.1943 -3.2612
  654MOL0     H88257   6.548   5.126   5.734  1.0268 -1.7534 -3.1039
  654MOL0     H88258   6.607   4.924   5.775  1.6263  0.3481 -2.3588
  654MOL0     H88259   6.775   4.959   5.808 -0.3440 -0.7357  0.7495
  654MOL0     H88260   6.608   4.908   6.009 -0.9155  1.7807  0.4763
  654MOL0     H88261   6.573   5.069   6.015 -2.3490 -1.7002  1.3836
  654MOL0     H88262   6.863   5.059   5.986 -0.8055  0.4279 -1.4473
  654MOL0     H88263   6.836   4.920   6.083  0.8808  1.1628  3.1625
  654MOL0     H88264   6.697   5.060   6.248 -0.1439 -1.6746  0.6452
  654MOL0     H88265   6.870   5.050   6.237  2.1103  2.4150 -2.0173
  654MOL0     H88266   6.706   5.277   6.104 -0.7041 -0.6444 -0.0362
  654MOL0     H88267   6.886   5.268   6.125  0.3470 -1.2309  0.1337
  654MOL0     H88268   6.700   5.262   6.356  0.0636 -0.9102  0.0117
  654MOL0     H88269   6.878   5.287   6.365 -0.2991 -2.2744 -0.9517
  654MOL0     H88270   6.732   5.530   5.544 -3.3236 -1.2680  0.3276
  654MOL0     H88271   6.880   5.626   5.374  1.7269 -0.3630 -0.2948
  654MOL0     H88272   7.216   5.477   5.013 -0.3586 -0.4143 -1.0959
  654MOL0     H88273   7.368   5.551   4.849  0.5730  1.6624 -2.0295
  654MOL0     H88274   8.000   6.622   4.802 -1.2606  1.2048 -0.6795
  654MOL0     H88275   8.192   6.529   4.909  0.3528 -3.0805  2.3493
  654MOL0     H88276   8.185   6.235   5.449  0.5741  1.5683  0.5914
  654MOL0     H88277   8.349   6.074   5.550  0.3670  0.7477  1.1601
  654MOL0     H88278   8.654   6.053   5.639  0.2373 -1.6626  0.1987
  654MOL0     H88279   8.753   6.143   5.521  0.5116 -0.3163 -3.2610
  654MOL0     H88280   8.831   5.902   5.441  2.7012 -3.8094  2.6313
  654MOL0     H88281   8.730   5.827   5.563  3.2598 -1.9463 -0.4056
  654MOL0     H88282   8.903   5.828   5.679 -2.2842 -1.3758 -0.8615
  654MOL0     H88283   8.862   5.996   5.724 -1.1925  0.6915 -1.4003
  654MOL0     H88284   9.064   5.932   5.499  1.7882  0.2332  0.9448
  654MOL0     H88285   9.006   6.087   5.543 -0.4120 -1.2516 -0.1002
  654MOL0     H88286   9.279   6.059   5.853  0.1661 -1.1918  0.2493
  654MOL0     H88287   8.641   6.225   5.277  0.5873  0.3978  1.6083
  654MOL0     H88288   8.597   6.361   5.093  0.6954 -1.3618  0.7050
  654MOL0     H88289   8.439   6.361   5.033  2.8505 -1.8898 -0.7998
  654MOL0     H88290   8.503   6.490   5.154 -0.2475  0.3774 -0.9118
  655MOL0     O88291   4.745   5.196   0.781 -0.5200 -0.1301 -0.6795
  655MOL0     C88292   4.820   5.218   0.687  0.1336  0.8049  0.1498
  655MOL0     O88293   4.836   5.144   0.574 -0.4300  0.6219 -0.6857
  655MOL0     C88294   4.728   5.065   0.545  0.4246  0.6348  1.1474
  655MOL0     C88295   4.610   5.113   0.491  0.2663 -0.3127 -0.2737
  655MOL0     C88296   4.514   5.030   0.440  1.3532 -0.6342  0.3955
  655MOL0     C88297   4.529   4.889   0.452 -0.3076 -0.1184 -0.2752
  655MOL0     O88298   4.438   4.808   0.390 -0.3467  0.6590 -0.3743
  655MOL0     C88299   4.304   4.801   0.436  0.1653  0.1876 -0.1050
  655MOL0     C88300   4.196   4.846   0.344  0.3947  0.5302  0.2129
  655MOL0     C88301   4.197   4.765   0.209  0.7015 -0.5012 -0.6517
  655MOL0     C88302   4.196   4.609   0.240 -0.2097  0.5931 -0.0904
  655MOL0     C88303   4.152   4.519   0.116 -0.2147 -0.3427  0.4279
  655MOL0     C88304   4.128   4.372   0.159  0.1438  0.2854  0.0723
  655MOL0     C88305   4.251   4.309   0.227  0.0571 -0.4699 -0.5737
  655MOL0     C88306   4.232   4.169   0.297  0.4268  0.1032 -0.9503
  655MOL0     N88307   4.332   4.133   0.401  0.9212  0.6973 -0.2696
  655MOL0     C88308   4.451   4.066   0.385  0.0235 -0.8995  0.0434
  655MOL0     C88309   4.502   4.059   0.508  0.1952 -0.1271 -0.5056
  655MOL0     C88310   4.620   3.971   0.541  0.7096  0.2588 -0.0861
  655MOL0     C88311   4.579   3.872   0.650 -0.2657  0.4899  0.9560
  655MOL0     C88312   4.699   3.843   0.754  0.8538  0.3761  0.4079
  655MOL0     C88313   4.660   3.710   0.828  0.5862 -0.6823  0.9142
  655MOL0     O88314   4.762   3.651   0.909  0.5374 -0.8045  0.1824
  655MOL0     C88315   4.746   3.536   0.974  0.0695 -0.1341 -0.1072
  655MOL0     C88316   4.649   3.432   0.952  0.0098 -0.3416  0.0538
  655MOL0     C88317   4.650   3.324   1.039  0.1975 -0.2175 -1.0371
  655MOL0     C88318   4.747   3.303   1.142 -0.0050 -0.0946  0.4461
  655MOL0     C88319   4.742   3.166   1.208  0.8050 -1.1472 -1.0636
  655MOL0     O88320   4.857   3.117   1.271  0.2633  0.3357 -0.5191
  655MOL0     C88321   4.851   2.994   1.322  1.0747 -0.3568  0.2175
  655MOL0     C88322   4.938   2.889   1.278  0.2115  0.4729  0.8084
  655MOL0     C88323   4.922   2.759   1.326 -0.3612  0.7937  0.2741
  655MOL0     C88324   4.825   2.725   1.425 -0.5280 -0.7041 -0.4558
  655MOL0     O88325   4.829   2.600   1.477  1.1970 -0.3945 -0.9277
  655MOL0     C88326   4.759   2.564   1.595 -0.0830  0.1493 -0.1480
  655MOL0     C88327   4.756   2.413   1.622  0.7230 -0.4335 -0.3044
  655MOL0     C88328   4.885   2.345   1.675  0.4851  0.0737  0.7769
  655MOL0     C88329   4.903   2.387   1.825  0.2933  0.0018 -0.0166
  655MOL0     C88330   5.050   2.359   1.865  0.1874  0.3860  0.1770
  655MOL0     C88331   5.084   2.390   2.004  0.2960  0.6466 -0.4972
  655MOL0     C88332   5.069   2.541   2.041  0.2199  0.0069  0.7356
  655MOL0     C88333   5.192   2.628   1.985 -0.5674 -0.3149  0.3895
  655MOL0    Cl88334   5.335   2.570   2.058 -0.4424 -0.4630 -0.0149
  655MOL0     C88335   4.753   2.836   1.481  0.2096  0.2322  0.2529
  655MOL0     C88336   4.758   2.967   1.425 -0.0569 -0.1345 -0.2433
  655MOL0     O88337   4.649   3.099   1.177 -0.3695  0.4308  0.0739
  655MOL0     C88338   4.848   3.403   1.154 -0.9644  0.9309  0.3110
  655MOL0     C88339   4.843   3.518   1.078  0.3821 -0.3627  1.0090
  655MOL0     N88340   4.418   4.120   0.594 -0.4943  0.4848 -0.6395
  655MOL0     N88341   4.311   4.161   0.537  0.5421 -0.7778  0.4845
  655MOL0     C88342   4.646   4.834   0.504 -0.0454 -0.2128  0.6005
  655MOL0     C88343   4.742   4.926   0.547  0.5827  0.0595 -0.9218
  655MOL0     C88344   4.921   5.336   0.694  0.1781 -1.2040  0.6693
  655MOL0     C88345   4.971   5.383   0.572 -0.1647  0.1301 -0.1589
  655MOL0     C88346   5.063   5.479   0.560 -0.1803 -0.0800 -0.0726
  655MOL0     C88347   5.134   5.523   0.673 -0.6529 -0.4214  0.1052
  655MOL0     O88348   5.238   5.608   0.663 -0.2865 -0.6264  0.0748
  655MOL0     C88349   5.347   5.639   0.752 -0.6300  0.2112  0.0579
  655MOL0     C88350   5.458   5.725   0.684 -0.1515  0.1445  0.5696
  655MOL0     C88351   5.506   5.657   0.551 -1.1826  0.0181  0.0795
  655MOL0     C88352   5.641   5.713   0.501  0.3109 -0.2713  1.4850
  655MOL0     C88353   5.747   5.693   0.600  0.0184 -0.1789 -1.1083
  655MOL0     C88354   5.827   5.675   0.697 -0.6970  0.1085  1.6751
  655MOL0     C88355   5.093   5.475   0.796 -0.7627  0.0055  0.2738
  655MOL0     C88356   4.995   5.379   0.808 -0.0200  0.0201 -0.1147
  655MOL0     C88357   4.949   5.333   0.941  0.3817  0.2142  0.0055
  655MOL0     H88358   4.596   5.220   0.478 -1.4381 -0.5069 -0.2144
  655MOL0     H88359   4.416   5.062   0.404 -0.1089 -1.2567  3.4920
  655MOL0     H88360   4.293   4.693   0.455  0.9949  0.2792  1.0554
  655MOL0     H88361   4.291   4.843   0.536 -1.5160 -1.2348  0.3254
  655MOL0     H88362   4.204   4.955   0.340  1.3665  0.4987  1.0419
  655MOL0     H88363   4.094   4.837   0.381  0.0426  1.3302 -0.5277
  655MOL0     H88364   4.271   4.790   0.133  2.1147 -1.5281  0.3306
  655MOL0     H88365   4.095   4.774   0.171 -0.0122 -0.1071  1.2705
  655MOL0     H88366   4.298   4.586   0.275 -1.1833 -2.1320  1.2715
  655MOL0     H88367   4.140   4.574   0.327  1.7715 -1.5303  0.4646
  655MOL0     H88368   4.074   4.565   0.056  0.2155 -0.5122 -0.2740
  655MOL0     H88369   4.233   4.508   0.043  0.4556  1.5941  0.8287
  655MOL0     H88370   4.037   4.364   0.220  0.5045  0.0713  0.5934
  655MOL0     H88371   4.099   4.318   0.069  3.0395 -1.6657  0.2017
  655MOL0     H88372   4.296   4.377   0.301  1.8302  1.3720 -3.1637
  655MOL0     H88373   4.334   4.296   0.157  0.3316 -2.7274  0.1227
  655MOL0     H88374   4.144   4.173   0.361  1.2050 -1.8620  0.3102
  655MOL0     H88375   4.236   4.090   0.222  0.6219 -0.5053 -0.2998
  655MOL0     H88376   4.503   4.020   0.301  0.2657 -0.2328 -0.1848
  655MOL0     H88377   4.667   3.927   0.453 -0.4105  0.4170 -0.7851
  655MOL0     H88378   4.694   4.039   0.585 -3.3376  3.5634  2.4168
  655MOL0     H88379   4.500   3.918   0.709  0.8263  1.4067  1.7301
  655MOL0     H88380   4.537   3.778   0.613  0.2214  0.6131  0.0523
  655MOL0     H88381   4.729   3.928   0.816  3.5569  1.0899 -1.6336
  655MOL0     H88382   4.792   3.819   0.701 -1.0584 -0.5749 -2.8202
  655MOL0     H88383   4.615   3.646   0.752 -1.9058  2.2390 -0.2843
  655MOL0     H88384   4.569   3.721   0.888 -0.2558  0.4247 -0.4929
  655MOL0     H88385   4.575   3.440   0.873  1.1227 -0.0146 -0.9880
  655MOL0     H88386   4.591   3.237   1.012 -0.4800 -1.6450  4.0313
  655MOL0     H88387   5.019   2.915   1.211 -1.2591  1.2598 -0.7389
  655MOL0     H88388   4.991   2.685   1.287 -0.4545 -0.2866  2.0286
  655MOL0     H88389   4.821   2.615   1.669  1.5039  0.0972 -1.3944
  655MOL0     H88390   4.653   2.590   1.593 -0.6588 -2.0042 -0.8198
  655MOL0     H88391   4.673   2.402   1.693  1.6376  2.7508  1.4808
  655MOL0     H88392   4.734   2.350   1.536 -0.1702  0.7895 -1.0055
  655MOL0     H88393   4.869   2.237   1.672  3.4486 -0.4416  0.2534
  655MOL0     H88394   4.974   2.362   1.614  0.0556 -2.2128 -0.6537
  655MOL0     H88395   4.844   2.307   1.871  0.8545 -1.9419 -2.4078
  655MOL0     H88396   4.874   2.491   1.842  1.4542  0.3671 -0.1648
  655MOL0     H88397   5.113   2.421   1.800  1.5301 -1.7008 -0.5997
  655MOL0     H88398   5.092   2.261   1.841 -2.2466 -0.1597 -2.2803
  655MOL0     H88399   5.006   2.328   2.049 -1.5242 -1.2608 -5.5748
  655MOL0     H88400   5.184   2.350   2.019 -0.5864 -0.7824  2.0983
  655MOL0     H88401   5.062   2.544   2.150 -2.4852 -0.0530  0.6327
  655MOL0     H88402   4.972   2.580   2.007 -0.5335 -0.5690  2.1357
  655MOL0     H88403   5.194   2.622   1.876 -1.6298  0.9296  0.2856
  655MOL0     H88404   5.190   2.734   2.012 -0.2148  0.9086 -3.7510
  655MOL0     H88405   4.672   2.811   1.549 -0.4550  0.5800 -0.3911
  655MOL0     H88406   4.692   3.043   1.465 -1.4928 -2.0054  1.1297
  655MOL0     H88407   4.925   3.391   1.229 -4.0509  0.5053  3.7474
  655MOL0     H88408   4.925   3.586   1.094  1.2669 -0.6159 -1.8491
  655MOL0     H88409   4.662   4.726   0.502 -1.1736 -0.3843 -1.7759
  655MOL0     H88410   4.841   4.893   0.578  0.3428  1.0186  1.0359
  655MOL0     H88411   4.943   5.335   0.479 -0.2470  1.6170 -0.9154
  655MOL0     H88412   5.102   5.518   0.467 -0.3267 -2.8548 -1.4029
  655MOL0     H88413   5.393   5.547   0.789 -2.4234 -0.9394 -0.4282
  655MOL0     H88414   5.325   5.701   0.839 -1.1957  6.0863 -3.6586
  655MOL0     H88415   5.540   5.734   0.756 -0.2464  0.1868  0.6711
  655MOL0     H88416   5.422   5.827   0.670  3.1003  1.3280 -0.1972
  655MOL0     H88417   5.431   5.658   0.471 -1.5656 -1.7724  0.3766
  655MOL0     H88418   5.543   5.562   0.590  2.4744  1.3464  0.2899
  655MOL0     H88419   5.662   5.649   0.414 -1.1910 -1.5454  2.0248
  655MOL0     H88420   5.651   5.820   0.482  1.0721 -0.6492 -0.5120
  655MOL0     H88421   5.894   5.679   0.781  0.9138  1.7896  0.3804
  655MOL0     H88422   5.140   5.516   0.884 -1.2365 -1.1510  1.0891
  655MOL0     H88423   4.993   5.371   1.034 -0.8323 -2.1740  1.6712
  655MOL0     H88424   4.843   5.355   0.937  0.5180  0.7394 -0.8235
  655MOL0     H88425   4.949   5.224   0.952 -0.3571  0.3817  2.1439
  656MOL0     O88426  11.305   8.460   8.634 -0.3505 -0.0134 -0.8687
  656MOL0     C88427  11.419   8.436   8.670 -0.2270 -0.2578 -1.0528
  656MOL0     O88428  11.524   8.523   8.651  0.1050  0.5681  0.0292
  656MOL0     C88429  11.521   8.649   8.615 -0.0384 -0.5861  0.0737
  656MOL0     C88430  11.644   8.700   8.589  0.2394 -1.1771  0.0323
  656MOL0     C88431  11.662   8.818   8.528  0.5470 -0.1792 -0.7621
  656MOL0     C88432  11.552   8.895   8.509  1.0147  0.2717 -0.0817
  656MOL0     O88433  11.572   9.012   8.454  0.3638 -0.4166  0.4105
  656MOL0     C88434  11.525   9.129   8.528  0.8992  0.0679 -0.5310
  656MOL0     C88435  11.606   9.255   8.476 -0.3322 -0.2431  0.4436
  656MOL0     C88436  11.535   9.303   8.342  1.0604  0.0607  0.1450
  656MOL0     C88437  11.605   9.426   8.275  0.1243 -0.0834 -0.0518
  656MOL0     C88438  11.508   9.534   8.214 -0.6232  0.3172  0.2967
  656MOL0     C88439  11.423   9.480   8.102 -0.1384 -0.6056  0.1932
  656MOL0     C88440  11.309   9.569   8.056 -0.1041  0.7044  0.8789
  656MOL0     C88441  11.272   9.539   7.908 -0.1460  0.3013  0.2707
  656MOL0     N88442  11.163   9.444   7.887 -0.5267 -0.0438 -0.1643
  656MOL0     C88443  11.178   9.310   7.860  0.0126 -0.3476  0.2880
  656MOL0     C88444  11.049   9.263   7.834  0.1330  0.2102  0.1046
  656MOL0     C88445  11.021   9.120   7.790 -0.2569  0.1399 -0.5166
  656MOL0     C88446  10.871   9.094   7.795 -0.3660 -0.7576  0.4973
  656MOL0     C88447  10.795   9.121   7.660 -0.2579 -0.6049  0.1940
  656MOL0     C88448  10.675   9.029   7.633 -0.5207 -0.2536  1.5683
  656MOL0     O88449  10.721   8.901   7.613  0.9015  0.2251  0.3144
  656MOL0     C88450  10.803   8.875   7.493  0.4069 -1.3989  0.2758
  656MOL0     C88451  10.750   8.893   7.364 -0.3481 -0.5325  0.1781
  656MOL0     C88452  10.826   8.884   7.249  0.1409  0.9002  0.1926
  656MOL0     C88453  10.956   8.829   7.254  1.0065 -0.1954 -0.2628
  656MOL0     C88454  11.033   8.810   7.128  0.8136 -1.0488 -0.4643
  656MOL0     O88455  11.167   8.794   7.139 -0.1940  0.4735  0.5538
  656MOL0     C88456  11.237   8.774   7.022 -0.3608  0.5194 -0.0331
  656MOL0     C88457  11.331   8.863   6.985 -0.0417  0.0233  0.2898
  656MOL0     C88458  11.382   8.855   6.859  0.2623  0.2906  0.0691
  656MOL0     C88459  11.351   8.749   6.774 -0.2940  0.4760  0.6366
  656MOL0     O88460  11.405   8.734   6.647 -0.1603 -0.2354  0.0122
  656MOL0     C88461  11.462   8.841   6.574 -0.8389  0.3002 -0.1406
  656MOL0     C88462  11.472   8.820   6.428 -0.3281  0.2495  0.6473
  656MOL0     C88463  11.550   8.936   6.353  0.4416  1.2169  0.7296
  656MOL0     C88464  11.450   9.056   6.350  0.1823  1.3187  0.7305
  656MOL0     C88465  11.490   9.144   6.228  0.0540 -0.6412 -0.2285
  656MOL0     C88466  11.460   9.293   6.241  0.1684  0.9994  0.0534
  656MOL0     C88467  11.311   9.321   6.242  0.2102 -0.1460  0.2283
  656MOL0     C88468  11.287   9.474   6.248 -0.9710  0.4483 -0.4830
  656MOL0    Cl88469  11.375   9.565   6.377 -0.2117  0.1775  0.1266
  656MOL0     C88470  11.278   8.645   6.818  0.3810 -0.6828 -0.4072
  656MOL0     C88471  11.213   8.664   6.941 -0.1344  0.3667  0.0890
  656MOL0     O88472  10.967   8.791   7.029 -0.3818 -0.3645 -0.4841
  656MOL0     C88473  11.015   8.811   7.380 -0.3369  0.7077  0.0459
  656MOL0     C88474  10.942   8.843   7.501 -0.5821  0.2086  0.6127
  656MOL0     N88475  10.958   9.361   7.861 -0.4746  0.4270 -0.3747
  656MOL0     N88476  11.022   9.466   7.899  0.3635 -0.2259  0.7776
  656MOL0     C88477  11.421   8.844   8.522  0.4671  0.0527 -0.2543
  656MOL0     C88478  11.407   8.718   8.582  0.0065  0.0951 -0.4689
  656MOL0     C88479  11.444   8.312   8.746  1.0839  0.4043 -0.4513
  656MOL0     C88480  11.568   8.293   8.790 -0.4939  0.1832  0.4891
  656MOL0     C88481  11.610   8.172   8.850  0.2592 -0.3627  0.0887
  656MOL0     C88482  11.531   8.069   8.884  0.0280  1.0674 -1.2215
  656MOL0     O88483  11.572   7.956   8.942  0.3632 -0.9592  0.3456
  656MOL0     C88484  11.711   7.947   8.967 -0.5419  0.6993  0.4406
  656MOL0     C88485  11.731   7.808   9.016 -0.7918 -0.5899  0.0959
  656MOL0     C88486  11.693   7.699   8.913  0.2160  0.2284  0.6893
  656MOL0     C88487  11.768   7.696   8.781 -0.0883  0.3614  0.0690
  656MOL0     C88488  11.909   7.711   8.796 -0.1742  0.0542 -0.0621
  656MOL0     C88489  12.032   7.722   8.803  1.0720 -0.5804  0.0760
  656MOL0     C88490  11.404   8.081   8.831  0.3113  1.0502  0.3056
  656MOL0     C88491  11.354   8.198   8.760 -1.2783  0.6115  0.3788
  656MOL0     C88492  11.213   8.185   8.697  0.7094 -0.6578  0.5152
  656MOL0     H88493  11.723   8.630   8.615 -0.3585 -1.1795  2.0357
  656MOL0     H88494  11.765   8.851   8.525  0.1885  0.9524 -2.4556
  656MOL0     H88495  11.417   9.138   8.521  0.6327 -1.6793  0.6920
  656MOL0     H88496  11.563   9.128   8.630  0.5470  2.4085 -0.3318
  656MOL0     H88497  11.708   9.219   8.460  0.0738  0.8265  0.5140
  656MOL0     H88498  11.604   9.332   8.554  0.5224 -2.1428  2.4430
  656MOL0     H88499  11.435   9.334   8.373  1.3412  2.2162 -0.9070
  656MOL0     H88500  11.519   9.225   8.267 -1.8225  1.2360 -0.5749
  656MOL0     H88501  11.661   9.482   8.350 -0.2239  0.2378 -0.0239
  656MOL0     H88502  11.686   9.407   8.204  1.5362  3.2687  0.4733
  656MOL0     H88503  11.444   9.569   8.296  1.4747  3.6395  0.7532
  656MOL0     H88504  11.560   9.620   8.171 -0.4041 -0.4967 -1.1310
  656MOL0     H88505  11.483   9.447   8.017 -0.6787 -1.6789  0.2118
  656MOL0     H88506  11.381   9.389   8.148  0.3995 -0.3454  1.2319
  656MOL0     H88507  11.339   9.671   8.081 -0.6800  1.1682 -0.2616
  656MOL0     H88508  11.213   9.556   8.106 -0.7008 -1.8223 -0.7525
  656MOL0     H88509  11.215   9.628   7.881  0.7625  1.2777  1.4716
  656MOL0     H88510  11.356   9.516   7.842 -2.1895 -2.6841 -1.5452
  656MOL0     H88511  11.273   9.258   7.852  0.5528 -0.3809  4.5737
  656MOL0     H88512  11.063   9.106   7.690 -2.2034  0.4382 -1.4275
  656MOL0     H88513  11.067   9.045   7.855  1.4714  1.0024 -0.6686
  656MOL0     H88514  10.851   8.989   7.814 -0.5144 -0.7209  0.5432
  656MOL0     H88515  10.827   9.159   7.871 -1.7855 -0.8367 -0.2156
  656MOL0     H88516  10.872   9.135   7.583  2.2326 -0.2914  2.5850
  656MOL0     H88517  10.743   9.217   7.669  2.3112  1.4490 -3.6871
  656MOL0     H88518  10.610   9.068   7.555  0.4545  0.5970  1.1517
  656MOL0     H88519  10.605   9.031   7.717 -4.4156 -1.0937 -1.3834
  656MOL0     H88520  10.651   8.938   7.359  1.2271  3.2764 -0.1232
  656MOL0     H88521  10.788   8.930   7.158 -3.2491 -2.3101 -0.2793
  656MOL0     H88522  11.364   8.946   7.047 -1.5683 -0.6408  2.0948
  656MOL0     H88523  11.438   8.938   6.816  1.2975  0.6939  2.0888
  656MOL0     H88524  11.410   8.935   6.592 -0.3510  1.2828 -3.2480
  656MOL0     H88525  11.559   8.857   6.623 -1.1937 -5.1007  3.1590
  656MOL0     H88526  11.526   8.726   6.409  0.3534  0.8737 -0.6752
  656MOL0     H88527  11.378   8.801   6.375 -0.0760 -1.7532  0.8326
  656MOL0     H88528  11.643   8.969   6.400  2.4010 -0.0858 -1.9346
  656MOL0     H88529  11.581   8.902   6.253 -2.1673  0.8358 -0.0171
  656MOL0     H88530  11.458   9.113   6.443 -2.7195  1.4006  1.0269
  656MOL0     H88531  11.350   9.016   6.329  1.0241 -0.4234 -0.1138
  656MOL0     H88532  11.431   9.110   6.142 -2.6761 -2.7866  2.2699
  656MOL0     H88533  11.595   9.127   6.202  0.6809  3.0431 -0.6726
  656MOL0     H88534  11.508   9.336   6.329 -2.7560  1.7771  1.4162
  656MOL0     H88535  11.494   9.349   6.153 -1.4898  0.9118 -0.7005
  656MOL0     H88536  11.268   9.279   6.334 -1.3928  2.5230  0.8043
  656MOL0     H88537  11.270   9.286   6.147  1.4098  1.6531 -0.9936
  656MOL0     H88538  11.308   9.514   6.148 -2.2194 -2.5387 -2.0894
  656MOL0     H88539  11.182   9.501   6.261 -0.9518  0.4391 -0.3119
  656MOL0     H88540  11.244   8.560   6.760 -4.9315  0.1024  1.0188
  656MOL0     H88541  11.137   8.595   6.976  0.3082  1.6825  4.2215
  656MOL0     H88542  11.114   8.768   7.384 -0.5628 -0.4819 -3.9177
  656MOL0     H88543  10.988   8.836   7.599 -4.0227  3.8264  2.7914
  656MOL0     H88544  11.327   8.888   8.491  0.7018  2.1039  1.6292
  656MOL0     H88545  11.304   8.688   8.594 -0.6628  2.7614  1.5747
  656MOL0     H88546  11.649   8.364   8.775  1.5180 -2.1679 -0.5223
  656MOL0     H88547  11.712   8.186   8.882 -0.0675  2.7163  0.1045
  656MOL0     H88548  11.739   8.031   9.030 -0.6784  2.0319 -1.2171
  656MOL0     H88549  11.764   7.956   8.872 -0.5759  2.4339  0.5692
  656MOL0     H88550  11.678   7.777   9.106 -1.2470  0.5084  0.2259
  656MOL0     H88551  11.839   7.802   9.034 -0.6175 -0.0980 -0.7189
  656MOL0     H88552  11.585   7.704   8.896  0.6496  3.8508 -2.5520
  656MOL0     H88553  11.715   7.600   8.954  0.9083  0.8566  1.9109
  656MOL0     H88554  11.742   7.602   8.729  1.5337 -1.1572  1.8562
  656MOL0     H88555  11.711   7.773   8.729 -3.5738 -1.9167  0.1208
  656MOL0     H88556  12.138   7.711   8.791  1.0160  0.2243 -1.4910
  656MOL0     H88557  11.344   7.992   8.851  1.6063 -0.3053 -1.4804
  656MOL0     H88558  11.136   8.217   8.767  1.0978 -1.5392  1.3692
  656MOL0     H88559  11.199   8.244   8.606 -3.1397  1.6519  2.3871
  656MOL0     H88560  11.197   8.078   8.681 -3.1937 -0.4512  2.1737
  657MOL0     O88561   3.093   4.868   8.738 -0.0212  0.0011  0.5171
  657MOL0     C88562   3.183   4.843   8.648  0.4568 -0.2413  0.4482
  657MOL0     O88563   3.253   4.722   8.647  0.1857 -0.2599  0.4683
  657MOL0     C88564   3.263   4.637   8.751 -0.1058  0.1081 -0.4528
  657MOL0     C88565   3.154   4.557   8.801  0.8130 -0.4619  0.0533
  657MOL0     C88566   3.175   4.454   8.893 -0.3463 -0.0140  0.8054
  657MOL0     C88567   3.305   4.424   8.932 -0.5744  1.0157 -0.4260
  657MOL0     O88568   3.331   4.316   9.014 -0.6008  1.3562 -0.6187
  657MOL0     C88569   3.255   4.318   9.140  0.0809 -0.3111  0.0235
  657MOL0     C88570   3.269   4.436   9.238  0.2336 -0.4158  1.0489
  657MOL0     C88571   3.197   4.425   9.363  0.4594  0.2028  0.1203
  657MOL0     C88572   3.282   4.344   9.464  0.8199  0.2436 -0.3022
  657MOL0     C88573   3.223   4.313   9.604 -0.0718 -0.0238  0.1558
  657MOL0     C88574   3.071   4.337   9.616  0.8728  0.3055 -1.1327
  657MOL0     C88575   3.020   4.322   9.758  1.2300  0.3714  0.7649
  657MOL0     C88576   2.877   4.392   9.775 -0.3922  0.0290 -0.3972
  657MOL0     N88577   2.820   4.351   9.896 -0.1986 -0.1064  0.5337
  657MOL0     C88578   2.691   4.305   9.905 -0.3123  0.1540 -0.3476
  657MOL0     C88579   2.689   4.263  10.040  0.1060  0.6123 -0.3267
  657MOL0     C88580   2.561   4.212  10.098 -0.5544 -0.4083  0.6477
  657MOL0     C88581   2.546   4.062  10.130 -0.9404 -0.9922  0.2332
  657MOL0     C88582   2.498   3.984  10.010 -0.1216  0.6199  1.3032
  657MOL0     C88583   2.483   3.834  10.049  0.5646  0.3778 -0.1845
  657MOL0     O88584   2.386   3.807  10.147 -0.1122  0.6911 -0.5446
  657MOL0     C88585   2.338   3.672  10.176 -0.4336 -0.4129  0.1477
  657MOL0     C88586   2.261   3.660  10.289  0.8638  0.1112  0.0513
  657MOL0     C88587   2.206   3.541  10.336  0.0373 -0.2264 -0.2577
  657MOL0     C88588   2.245   3.427  10.275  0.1281 -0.9423 -0.1593
  657MOL0     C88589   2.181   3.309  10.314  1.2496  0.2321  0.9121
  657MOL0     O88590   2.043   3.305  10.361  0.3409 -0.0391  0.7619
  657MOL0     C88591   1.980   3.184  10.366 -0.5695  0.0918 -1.2337
  657MOL0     C88592   2.010   3.079  10.457 -0.4397 -0.1853 -1.0449
  657MOL0     C88593   1.946   2.958  10.453 -0.4537  0.6949  0.1735
  657MOL0     C88594   1.841   2.929  10.363  0.2689  1.4218 -0.6271
  657MOL0     O88595   1.790   2.799  10.354  0.4040 -0.4509  0.6861
  657MOL0     C88596   1.653   2.783  10.301 -1.1857 -0.8298 -0.5369
  657MOL0     C88597   1.670   2.718  10.167 -0.6288  0.2810 -0.8516
  657MOL0     C88598   1.729   2.569  10.178 -0.1792  0.4525  0.3956
  657MOL0     C88599   1.790   2.516  10.046  0.0125 -0.9301 -0.5873
  657MOL0     C88600   1.874   2.396  10.076  0.4644  0.0052  0.2694
  657MOL0     C88601   2.012   2.411  10.135  0.0311 -0.5440 -0.4079
  657MOL0     C88602   2.104   2.285  10.097 -0.1136  0.3861  0.1906
  657MOL0     C88603   2.255   2.303  10.148 -0.1129  0.7576  0.4286
  657MOL0    Cl88604   2.342   2.413  10.043  0.0257  0.2391 -0.0178
  657MOL0     C88605   1.813   3.036  10.275 -0.8146 -0.4624 -0.4627
  657MOL0     C88606   1.885   3.158  10.274  0.1426  0.0747  0.2633
  657MOL0     O88607   2.247   3.212  10.285 -0.3097 -0.0093  0.5820
  657MOL0     C88608   2.323   3.431  10.165 -0.0039 -0.3713 -0.1271
  657MOL0     C88609   2.380   3.549  10.112  0.5492  0.1914  0.1747
  657MOL0     N88610   2.800   4.302  10.101  0.1074 -0.1762 -0.0166
  657MOL0     N88611   2.876   4.362  10.022  0.3016  0.1859 -0.0183
  657MOL0     C88612   3.412   4.500   8.891 -0.2245  0.9066 -0.1717
  657MOL0     C88613   3.391   4.602   8.799  0.4431  0.0478  0.4951
  657MOL0     C88614   3.230   4.941   8.552 -0.5502  0.0577  0.1130
  657MOL0     C88615   3.361   4.985   8.576 -1.1530 -0.9701 -0.3036
  657MOL0     C88616   3.417   5.078   8.484  0.2007  0.7662  0.1779
  657MOL0     C88617   3.343   5.144   8.384  0.2106  0.1881  0.1721
  657MOL0     O88618   3.391   5.249   8.307 -0.0290 -0.3332 -0.0897
  657MOL0     C88619   3.528   5.274   8.314 -0.4417 -0.5957 -0.5022
  657MOL0     C88620   3.564   5.371   8.434 -0.3365  0.5864 -0.0236
  657MOL0     C88621   3.715   5.393   8.457 -0.3504 -0.5618  0.2908
  657MOL0     C88622   3.788   5.498   8.384  0.1192 -0.2555  1.1057
  657MOL0     C88623   3.754   5.635   8.419 -0.0811  0.1052  0.7391
  657MOL0     C88624   3.725   5.750   8.442 -0.0944  0.0552 -0.4286
  657MOL0     C88625   3.214   5.106   8.376  0.4349  0.1911 -0.0295
  657MOL0     C88626   3.161   5.009   8.455  0.8126  0.4773 -0.1374
  657MOL0     C88627   3.011   4.986   8.448  0.9826 -0.0170  0.2498
  657MOL0     H88628   3.055   4.579   8.761  1.0650  3.5260  1.2181
  657MOL0     H88629   3.084   4.410   8.934  1.6053  0.4437  6.5038
  657MOL0     H88630   3.151   4.312   9.106  0.3849  2.7541 -1.8422
  657MOL0     H88631   3.289   4.223   9.182  1.4431 -1.1845 -2.8270
  657MOL0     H88632   3.237   4.526   9.183 -1.0815 -1.8515 -0.6515
  657MOL0     H88633   3.372   4.464   9.260 -0.7373  1.8873  3.2093
  657MOL0     H88634   3.096   4.385   9.351  0.6510 -0.2908  0.1319
  657MOL0     H88635   3.170   4.521   9.407 -1.0456  0.0389 -0.3869
  657MOL0     H88636   3.309   4.248   9.421 -0.5109 -1.5516  2.5401
  657MOL0     H88637   3.371   4.405   9.486  0.6972 -1.0268  4.9044
  657MOL0     H88638   3.247   4.210   9.630  2.1414  0.1448 -0.9449
  657MOL0     H88639   3.273   4.379   9.676 -1.4153 -0.8923  1.9413
  657MOL0     H88640   3.059   4.444   9.596  1.8589  0.2374 -2.1471
  657MOL0     H88641   3.008   4.269   9.558 -0.5036  0.1133  0.4811
  657MOL0     H88642   3.091   4.362   9.832 -2.4506  0.0403  4.8876
  657MOL0     H88643   3.002   4.215   9.774  0.4193  0.3835  0.0118
  657MOL0     H88644   2.891   4.500   9.773  3.3531 -0.3394 -1.9792
  657MOL0     H88645   2.811   4.371   9.689 -2.6554  3.2522  0.3666
  657MOL0     H88646   2.618   4.297   9.825  0.8277 -0.1889 -1.3885
  657MOL0     H88647   2.531   4.266  10.188 -4.2618 -1.6917  0.3472
  657MOL0     H88648   2.480   4.241  10.031 -0.6770 -0.2071  0.8835
  657MOL0     H88649   2.629   4.007  10.177 -0.9628 -0.4905  0.8742
  657MOL0     H88650   2.466   4.048  10.203 -0.5678 -0.7553  0.6958
  657MOL0     H88651   2.576   3.973   9.935  2.0585 -1.5291  3.7037
  657MOL0     H88652   2.409   4.016   9.955  0.5259 -2.8748 -2.2056
  657MOL0     H88653   2.580   3.797  10.085  0.2550 -1.0060 -0.7021
  657MOL0     H88654   2.467   3.765   9.965  0.3381 -0.0049  0.1633
  657MOL0     H88655   2.231   3.748  10.345  1.6711 -0.8157  2.0183
  657MOL0     H88656   2.133   3.530  10.415 -2.0965 -3.1420 -2.4004
  657MOL0     H88657   2.086   3.079  10.534  0.0614  3.4817 -1.3333
  657MOL0     H88658   1.973   2.883  10.527  4.0604  0.5776 -1.2362
  657MOL0     H88659   1.611   2.714  10.374  0.6944  1.0264  2.5263
  657MOL0     H88660   1.596   2.877  10.297 -0.5167 -0.4183 -0.6416
  657MOL0     H88661   1.570   2.703  10.124 -0.6739  1.2192 -1.0942
  657MOL0     H88662   1.729   2.792  10.112  1.7276  3.9259  5.5013
  657MOL0     H88663   1.797   2.576  10.264 -2.8122  0.0630  2.6501
  657MOL0     H88664   1.652   2.496  10.207  0.1298 -1.0359 -2.2422
  657MOL0     H88665   1.855   2.594  10.005 -0.2974 -0.3113  0.1009
  657MOL0     H88666   1.711   2.485   9.976 -0.3282 -1.2670 -0.0615
  657MOL0     H88667   1.887   2.340   9.983  3.6834  0.2463  0.4687
  657MOL0     H88668   1.817   2.328  10.140 -1.8277 -0.7015 -2.3312
  657MOL0     H88669   2.076   2.489  10.094  3.8251  0.2558  5.7327
  657MOL0     H88670   2.009   2.431  10.243  1.2273  1.1260 -0.6539
  657MOL0     H88671   2.108   2.281   9.988 -1.5599  0.8813  0.0976
  657MOL0     H88672   2.059   2.196  10.141  0.4389 -1.1650 -2.2037
  657MOL0     H88673   2.251   2.340  10.250 -0.2082  3.0416 -0.3381
  657MOL0     H88674   2.298   2.203  10.153 -2.9365 -0.9172 -3.6404
  657MOL0     H88675   1.747   3.017  10.191  2.2239 -1.9551 -2.7411
  657MOL0     H88676   1.861   3.235  10.201 -4.0326  1.5348  2.8030
  657MOL0     H88677   2.335   3.342  10.104  0.6434  0.9177 -1.9744
  657MOL0     H88678   2.468   3.540  10.049  2.6853  1.8367  2.7033
  657MOL0     H88679   3.509   4.472   8.931 -1.6739 -3.5299  0.8590
  657MOL0     H88680   3.481   4.650   8.762  0.6410  0.6871  1.7448
  657MOL0     H88681   3.427   4.944   8.653  1.3828  0.7508 -1.4220
  657MOL0     H88682   3.521   5.102   8.503 -0.3864  1.0006  4.1100
  657MOL0     H88683   3.558   5.307   8.214  0.9409  1.7770  0.6161
  657MOL0     H88684   3.570   5.175   8.328  0.3869 -0.1136  0.5183
  657MOL0     H88685   3.525   5.328   8.527  3.6301  0.3318  1.6873
  657MOL0     H88686   3.511   5.464   8.413  1.8197  1.7136 -0.7341
  657MOL0     H88687   3.766   5.302   8.425  2.0457 -0.9768  4.5535
  657MOL0     H88688   3.742   5.416   8.561 -2.6949 -2.8344  1.5147
  657MOL0     H88689   3.896   5.483   8.398  0.2435  0.9830  1.5542
  657MOL0     H88690   3.767   5.497   8.276 -0.2119  1.0708  1.1446
  657MOL0     H88691   3.702   5.854   8.445 -0.1990  0.0294 -0.3390
  657MOL0     H88692   3.151   5.140   8.294  0.0605 -1.9588 -0.6877
  657MOL0     H88693   2.984   4.923   8.363  1.5247 -2.3017  1.6748
  657MOL0     H88694   2.965   4.952   8.541  0.3878 -1.0236 -0.3887
  657MOL0     H88695   2.959   5.078   8.421 -3.7806 -1.9037  1.9360
  658MOL0     O88696   2.039  10.937  11.387 -0.3829 -0.2668 -0.5423
  658MOL0     C88697   2.105  11.029  11.451 -0.2834  0.9827 -0.6535
  658MOL0     O88698   2.237  11.027  11.488  0.2703  0.0586  0.9784
  658MOL0     C88699   2.312  10.914  11.457  0.7510 -0.0153  0.0568
  658MOL0     C88700   2.384  10.902  11.345 -0.0946  0.0165  0.1543
  658MOL0     C88701   2.454  10.789  11.312 -0.1794  0.1163 -0.0785
  658MOL0     C88702   2.455  10.675  11.404 -0.4136 -0.4848 -0.1253
  658MOL0     O88703   2.524  10.556  11.383 -0.0580  1.0594  0.1643
  658MOL0     C88704   2.583  10.518  11.260  0.2022 -0.3461  0.0453
  658MOL0     C88705   2.647  10.380  11.281  0.0586 -0.0702 -0.1726
  658MOL0     C88706   2.641  10.288  11.152 -0.5008  0.3140 -0.5254
  658MOL0     C88707   2.699  10.155  11.194  0.3439  0.1653  0.8228
  658MOL0     C88708   2.751  10.070  11.080  0.2509  0.0612  0.9673
  658MOL0     C88709   2.768   9.923  11.111 -0.2104 -0.5885 -0.1023
  658MOL0     C88710   2.801   9.833  10.990 -0.1679 -0.4991  0.4816
  658MOL0     C88711   2.795   9.685  11.029  0.1294  0.2578 -0.7420
  658MOL0     N88712   2.845   9.609  10.913  0.1120 -0.1029 -0.3803
  658MOL0     C88713   2.963   9.635  10.843 -1.0381  0.1021  0.0582
  658MOL0     C88714   2.975   9.533  10.752  0.9713  0.7773 -0.6826
  658MOL0     C88715   3.091   9.504  10.655  0.4024  0.6270 -0.8840
  658MOL0     C88716   3.092   9.594  10.530  0.2725  0.3281  0.1654
  658MOL0     C88717   3.215   9.552  10.441  0.0800  0.3640 -0.9461
  658MOL0     C88718   3.222   9.646  10.314 -0.3653 -0.3104  0.1434
  658MOL0     O88719   3.224   9.793  10.337  0.8055 -0.4378  0.2157
  658MOL0     C88720   3.329   9.872  10.364 -0.0669  0.1293 -0.1695
  658MOL0     C88721   3.296  10.002  10.396 -0.6010 -0.2895  1.4523
  658MOL0     C88722   3.399  10.092  10.428  0.2651  0.0262 -1.2095
  658MOL0     C88723   3.532  10.048  10.431  1.4013  0.4406 -0.4974
  658MOL0     C88724   3.639  10.135  10.484  1.3484 -0.5653 -0.4988
  658MOL0     O88725   3.754  10.086  10.533 -0.0382  0.3378  0.5886
  658MOL0     C88726   3.869  10.149  10.565 -0.1636 -0.3247  0.0006
  658MOL0     C88727   3.889  10.288  10.561 -0.1710  0.0087  0.4369
  658MOL0     C88728   4.016  10.343  10.595  0.3878 -0.3316  0.4725
  658MOL0     C88729   4.127  10.266  10.621  0.0824 -0.3576  0.1513
  658MOL0     O88730   4.261  10.297  10.646  1.0657 -0.6269 -0.3429
  658MOL0     C88731   4.275  10.410  10.736 -0.7959  0.0548  0.7091
  658MOL0     C88732   4.416  10.403  10.801  0.7469 -0.7595  0.9325
  658MOL0     C88733   4.444  10.532  10.877 -1.1419  0.4697  0.7176
  658MOL0     C88734   4.342  10.570  10.983 -0.0639 -0.5641 -0.7270
  658MOL0     C88735   4.396  10.684  11.072  0.6783  0.4104 -0.1437
  658MOL0     C88736   4.283  10.709  11.181 -0.2583  0.5028  0.6106
  658MOL0     C88737   4.273  10.860  11.210 -0.6462  0.3685  0.7312
  658MOL0     C88738   4.395  10.905  11.292  0.0011  0.2556 -0.4563
  658MOL0    Cl88739   4.409  10.811  11.466  0.6932 -0.0698  0.1523
  658MOL0     C88740   4.101  10.132  10.630 -0.2712  0.1666  0.8098
  658MOL0     C88741   3.978  10.067  10.604  0.3625 -0.0463  0.0880
  658MOL0     O88742   3.606  10.256  10.484  0.5433  0.5288 -0.4268
  658MOL0     C88743   3.564   9.917  10.387 -0.2734  0.3857 -0.0529
  658MOL0     C88744   3.462   9.829  10.363 -0.3753  0.6928  0.6872
  658MOL0     N88745   2.873   9.440  10.783  0.0877 -1.0703 -0.1056
  658MOL0     N88746   2.805   9.485  10.877 -0.1742  0.6629 -0.2129
  658MOL0     C88747   2.381  10.691  11.519 -0.0800 -0.4460  0.7321
  658MOL0     C88748   2.311  10.806  11.543 -0.8190 -0.2523  0.2796
  658MOL0     C88749   2.024  11.149  11.495 -0.3138  0.8639  0.1887
  658MOL0     C88750   2.042  11.188  11.627 -0.6124  0.2381  0.5736
  658MOL0     C88751   1.954  11.284  11.685  0.0932  0.2952  0.6563
  658MOL0     C88752   1.848  11.329  11.602 -0.1208  0.2569  0.9590
  658MOL0     O88753   1.767  11.424  11.663  0.0474 -0.3234 -0.1766
  658MOL0     C88754   1.700  11.511  11.572  0.5461 -0.0685 -0.3185
  658MOL0     C88755   1.686  11.642  11.643 -0.5951 -0.4038  0.6289
  658MOL0     C88756   1.634  11.760  11.548 -0.0051  0.1520 -0.6322
  658MOL0     C88757   1.577  11.880  11.621  1.0624 -0.5754 -0.2080
  658MOL0     C88758   1.566  11.998  11.528 -0.5067  0.5175 -0.9452
  658MOL0     C88759   1.535  12.092  11.457 -0.6144 -0.3258 -0.2929
  658MOL0     C88760   1.826  11.289  11.465  0.0450 -1.2455 -0.8962
  658MOL0     C88761   1.915  11.197  11.414  0.0964 -0.0542 -0.3069
  658MOL0     C88762   1.898  11.169  11.278  0.6096  0.3732 -0.0826
  658MOL0     H88763   2.376  10.980  11.270  0.7123  1.5370  1.5650
  658MOL0     H88764   2.503  10.790  11.215  0.4395  0.7210  0.2337
  658MOL0     H88765   2.512  10.518  11.176  2.6735  1.5830 -2.2392
  658MOL0     H88766   2.659  10.592  11.230 -0.3080  0.1724  0.0203
  658MOL0     H88767   2.608  10.328  11.368  2.1185 -1.7386 -0.1539
  658MOL0     H88768   2.754  10.400  11.295  0.1067  0.8609 -1.5915
  658MOL0     H88769   2.692  10.332  11.066 -0.9539 -1.4554 -1.7700
  658MOL0     H88770   2.535  10.286  11.124 -0.8844 -1.1428  0.8497
  658MOL0     H88771   2.775  10.173  11.271 -1.5549  1.4446  2.4779
  658MOL0     H88772   2.614  10.115  11.249  0.2424  0.8531  1.1774
  658MOL0     H88773   2.683  10.076  10.994 -0.2435 -0.2734  1.3297
  658MOL0     H88774   2.843  10.118  11.045 -1.1799  2.2269 -0.0090
  658MOL0     H88775   2.838   9.901  11.192  0.3531 -3.0263 -1.1529
  658MOL0     H88776   2.674   9.891  11.158  0.8467  1.2169  3.6738
  658MOL0     H88777   2.900   9.868  10.959 -0.3058  2.0763  2.6052
  658MOL0     H88778   2.732   9.837  10.905  1.3514  2.8833 -0.7773
  658MOL0     H88779   2.860   9.658  11.114 -2.0998 -2.4556  0.2459
  658MOL0     H88780   2.693   9.662  11.059  0.3614  3.4404  3.4168
  658MOL0     H88781   3.047   9.705  10.839  0.7499 -1.9741 -3.5104
  658MOL0     H88782   3.184   9.492  10.710 -1.9001 -2.7700  2.8229
  658MOL0     H88783   3.076   9.405  10.610  1.8043 -0.4580  0.8910
  658MOL0     H88784   3.005   9.577  10.466  0.0006  0.0665  0.5944
  658MOL0     H88785   3.092   9.699  10.563 -3.7758  0.3802  0.5311
  658MOL0     H88786   3.198   9.448  10.412  2.2023 -0.7505  1.4087
  658MOL0     H88787   3.306   9.567  10.500  0.7495 -3.2159 -0.8816
  658MOL0     H88788   3.133   9.622  10.255 -1.4210  0.5314  1.3424
  658MOL0     H88789   3.313   9.612  10.264 -0.1398  1.8294 -0.9983
  658MOL0     H88790   3.193  10.037  10.402 -0.9541 -1.2092  1.0582
  658MOL0     H88791   3.372  10.192  10.458 -1.8014 -0.0601 -2.5778
  658MOL0     H88792   3.811  10.355  10.527 -2.0125 -1.5127  1.4519
  658MOL0     H88793   4.030  10.450  10.580  0.0465 -0.5235 -1.3625
  658MOL0     H88794   4.247  10.508  10.699  2.3007  0.6609 -0.2967
  658MOL0     H88795   4.192  10.401  10.808 -3.1224 -1.4630 -1.9548
  658MOL0     H88796   4.419  10.321  10.874  0.9407 -0.7933  0.8886
  658MOL0     H88797   4.482  10.378  10.718 -2.0492  2.1844 -2.5401
  658MOL0     H88798   4.544  10.507  10.913 -1.3816 -2.7171 -0.5725
  658MOL0     H88799   4.446  10.621  10.813 -3.9998  0.9715  1.2032
  658MOL0     H88800   4.316  10.488  11.050  2.6409 -0.1569  0.9917
  658MOL0     H88801   4.250  10.612  10.941  0.8629  1.0617 -1.2216
  658MOL0     H88802   4.428  10.770  11.012 -1.6035  0.2058 -1.7870
  658MOL0     H88803   4.487  10.662  11.129 -0.8296  1.4252  2.8631
  658MOL0     H88804   4.188  10.669  11.146  0.5698  1.2924 -2.8396
  658MOL0     H88805   4.322  10.642  11.259  2.3928 -0.0661 -1.0633
  658MOL0     H88806   4.190  10.887  11.275 -1.7312 -0.0735 -0.4407
  658MOL0     H88807   4.261  10.910  11.113  2.9283  2.0358  0.9730
  658MOL0     H88808   4.489  10.884  11.240 -0.1101 -1.4159 -0.0316
  658MOL0     H88809   4.383  11.011  11.316  3.1441  0.6945 -0.3375
  658MOL0     H88810   4.176  10.063  10.668  0.0076 -0.0941 -0.1743
  658MOL0     H88811   3.983   9.959  10.599  2.0916 -0.0663  1.4845
  658MOL0     H88812   3.670   9.893  10.391 -0.4586 -0.7415 -1.4536
  658MOL0     H88813   3.492   9.725  10.353  4.2702  1.9630 -1.1829
  658MOL0     H88814   2.367  10.605  11.583 -0.7910 -4.0691 -3.7881
  658MOL0     H88815   2.244  10.826  11.626 -0.2929  0.3965  0.5548
  658MOL0     H88816   2.125  11.145  11.683  0.1480 -1.1914 -1.5335
  658MOL0     H88817   1.959  11.319  11.788 -2.4236  3.2838 -0.1070
  658MOL0     H88818   1.598  11.476  11.551 -0.7024  1.0664  3.0998
  658MOL0     H88819   1.753  11.536  11.480  0.2206  5.4845  0.6645
  658MOL0     H88820   1.790  11.662  11.673 -0.2549  0.7609 -1.1689
  658MOL0     H88821   1.631  11.638  11.737  0.6630  1.0039  1.4898
  658MOL0     H88822   1.552  11.735  11.481  0.2038  1.7745 -1.5453
  658MOL0     H88823   1.723  11.783  11.488  0.2124  2.8380  0.5672
  658MOL0     H88824   1.478  11.856  11.659  0.8427  0.7975  0.1329
  658MOL0     H88825   1.651  11.898  11.700  1.3063 -0.4504 -0.4613
  658MOL0     H88826   1.500  12.171  11.393  0.1288  0.9307  0.8170
  658MOL0     H88827   1.755  11.325  11.391 -1.3642 -2.0205  0.0432
  658MOL0     H88828   1.840  11.247  11.228  1.0198  0.6169 -0.1786
  658MOL0     H88829   1.996  11.161  11.230 -0.4881  1.9379 -2.8711
  658MOL0     H88830   1.840  11.077  11.270 -4.8843  3.2605  1.3743
  659MOL0     O88831   2.859   6.640   4.408 -0.1376 -0.7541  0.5071
  659MOL0     C88832   2.929   6.590   4.321 -0.6939 -0.1464 -0.0771
  659MOL0     O88833   2.973   6.653   4.209 -0.6426 -1.2147 -0.0491
  659MOL0     C88834   2.892   6.752   4.169 -0.4074 -0.9004 -0.0021
  659MOL0     C88835   2.771   6.723   4.100  0.6831 -0.6937  0.2020
  659MOL0     C88836   2.702   6.831   4.052 -0.6448  0.1275  1.2507
  659MOL0     C88837   2.735   6.963   4.071 -0.2034 -0.4004  0.1522
  659MOL0     O88838   2.675   7.070   4.008  0.3563 -0.3191 -0.1527
  659MOL0     C88839   2.553   7.046   3.933  0.2009  0.3359  0.0798
  659MOL0     C88840   2.462   7.165   3.933 -0.8808  0.5564 -0.5353
  659MOL0     C88841   2.502   7.309   3.911 -0.9241  0.2121  0.3377
  659MOL0     C88842   2.588   7.338   3.783 -0.1823  0.0327  0.2044
  659MOL0     C88843   2.664   7.472   3.791 -0.7581  0.0039 -0.1174
  659MOL0     C88844   2.762   7.483   3.902 -0.7346 -0.2826 -0.0397
  659MOL0     C88845   2.872   7.585   3.867 -0.0746  1.2056  0.3086
  659MOL0     C88846   2.972   7.589   3.987 -0.7400 -0.7165  0.7795
  659MOL0     N88847   3.064   7.695   3.962  0.5724 -0.1242  0.5288
  659MOL0     C88848   3.023   7.833   3.955 -0.0433 -0.4732 -1.1878
  659MOL0     C88849   3.122   7.896   3.899 -0.9580  0.0647  0.5245
  659MOL0     C88850   3.128   8.039   3.846  0.1083  0.1257 -0.1028
  659MOL0     C88851   3.169   8.137   3.951 -0.8653 -1.7671 -0.0067
  659MOL0     C88852   3.160   8.287   3.910  0.6269  0.4352  0.8091
  659MOL0     C88853   3.224   8.326   3.778 -0.5625  0.2979 -0.6062
  659MOL0     O88854   3.369   8.309   3.781 -0.2626  0.2386  0.7567
  659MOL0     C88855   3.434   8.377   3.877  0.5802 -0.3813 -0.3078
  659MOL0     C88856   3.423   8.519   3.889 -0.5051  0.3128  0.7369
  659MOL0     C88857   3.510   8.596   3.966  0.1986 -0.0989  0.6609
  659MOL0     C88858   3.592   8.527   4.054 -0.4808 -0.2085 -0.5587
  659MOL0     C88859   3.648   8.593   4.171 -0.7640 -0.0935 -0.8520
  659MOL0     O88860   3.615   8.728   4.184  0.5053 -0.7898 -0.1301
  659MOL0     C88861   3.670   8.783   4.296 -1.0204 -0.6663 -1.5288
  659MOL0     C88862   3.584   8.842   4.396  0.0450  0.4544 -0.1671
  659MOL0     C88863   3.624   8.919   4.499 -0.5418 -0.7098  0.7808
  659MOL0     C88864   3.769   8.946   4.511 -0.5654 -0.1836 -0.3314
  659MOL0     O88865   3.826   9.024   4.607  0.1441  0.1396  0.0013
  659MOL0     C88866   3.780   8.982   4.737 -0.4103 -0.3838 -0.1666
  659MOL0     C88867   3.899   8.970   4.840  0.3606  0.7863 -0.2920
  659MOL0     C88868   4.011   8.870   4.799 -0.4655 -0.1110 -0.6599
  659MOL0     C88869   3.995   8.737   4.876 -0.5314 -0.8747  0.2523
  659MOL0     C88870   4.115   8.641   4.849  0.2508 -0.0954 -0.9534
  659MOL0     C88871   4.089   8.507   4.913 -0.0714  0.8274 -0.6303
  659MOL0     C88872   4.192   8.393   4.887 -0.4455 -0.5316  0.0738
  659MOL0     C88873   4.336   8.440   4.916 -0.2602 -0.3423 -0.1134
  659MOL0    Cl88874   4.342   8.537   5.079 -0.1369  0.1289 -0.0293
  659MOL0     C88875   3.857   8.886   4.417 -0.3787 -0.1431 -0.0132
  659MOL0     C88876   3.810   8.802   4.314  1.3226 -0.0967  0.6617
  659MOL0     O88877   3.674   8.516   4.269  0.6869  0.3628  0.2814
  659MOL0     C88878   3.591   8.386   4.046 -0.4450  0.0460  0.6935
  659MOL0     C88879   3.522   8.306   3.962  0.7939  0.2967  0.7475
  659MOL0     N88880   3.225   7.801   3.879 -0.3177 -0.2630  0.1102
  659MOL0     N88881   3.188   7.680   3.913  0.1954  0.0204 -1.3695
  659MOL0     C88882   2.854   6.994   4.138 -0.9112  0.9679 -1.1633
  659MOL0     C88883   2.931   6.887   4.196  0.9090  1.0501 -0.0078
  659MOL0     C88884   3.002   6.460   4.363  0.7426  0.2244  1.1120
  659MOL0     C88885   2.937   6.376   4.463 -0.5790 -0.1701  0.1580
  659MOL0     C88886   2.999   6.257   4.518 -0.7224 -1.0453  0.4154
  659MOL0     C88887   3.130   6.215   4.476  0.2345  0.0688 -0.6601
  659MOL0     O88888   3.186   6.109   4.552  0.1895 -0.8216 -0.6901
  659MOL0     C88889   3.322   6.071   4.534 -0.1294  0.2857 -0.5208
  659MOL0     C88890   3.325   5.945   4.617  0.0907  0.1803 -0.1037
  659MOL0     C88891   3.300   5.981   4.773 -0.2835 -0.5507  0.0509
  659MOL0     C88892   3.283   5.880   4.888 -0.9256 -0.2563  0.0675
  659MOL0     C88893   3.186   5.780   4.847  0.2635 -0.0253 -0.8478
  659MOL0     C88894   3.095   5.714   4.800  0.4038  0.7287  0.0708
  659MOL0     C88895   3.186   6.291   4.381 -0.5796  0.1262  0.2242
  659MOL0     C88896   3.130   6.416   4.327  0.6709  0.9636  0.5841
  659MOL0     C88897   3.228   6.485   4.232  1.2769 -0.6172 -0.2461
  659MOL0     H88898   2.733   6.624   4.078  2.4014 -0.3008 -6.9050
  659MOL0     H88899   2.615   6.799   3.995  2.0771 -1.8930 -2.1062
  659MOL0     H88900   2.574   7.003   3.835 -0.8971 -4.3456  1.6045
  659MOL0     H88901   2.492   6.965   3.975 -0.0314  1.3101  1.7187
  659MOL0     H88902   2.410   7.166   4.030  0.4906  4.9017  0.3679
  659MOL0     H88903   2.391   7.146   3.852  2.4647  2.7103 -4.3420
  659MOL0     H88904   2.554   7.366   3.989  1.2070 -1.7526  0.4592
  659MOL0     H88905   2.407   7.363   3.904 -1.0408  0.1290  1.1455
  659MOL0     H88906   2.658   7.258   3.761 -0.4007 -0.2778  0.6217
  659MOL0     H88907   2.516   7.341   3.700  1.5570 -1.6162 -1.4564
  659MOL0     H88908   2.729   7.477   3.703  1.4444 -0.6878  1.4011
  659MOL0     H88909   2.602   7.561   3.798 -0.3547  0.1894  1.5094
  659MOL0     H88910   2.724   7.513   4.000 -0.8553  2.4498 -0.8623
  659MOL0     H88911   2.795   7.380   3.924 -2.5929 -1.1479 -1.0738
  659MOL0     H88912   2.841   7.688   3.846  1.3169  1.5849 -0.0171
  659MOL0     H88913   2.931   7.553   3.780 -3.3773  1.3534 -2.2023
  659MOL0     H88914   2.919   7.620   4.078 -1.9874  2.3151 -0.8604
  659MOL0     H88915   3.020   7.492   4.006  0.2401 -0.3130  0.3836
  659MOL0     H88916   2.929   7.883   3.975  0.4823  1.2759 -2.8217
  659MOL0     H88917   3.190   8.046   3.756 -0.1961  3.2053 -0.1767
  659MOL0     H88918   3.034   8.069   3.800  0.6925  0.9166 -0.8342
  659MOL0     H88919   3.101   8.124   4.035 -0.0757 -0.0477  0.9511
  659MOL0     H88920   3.271   8.120   3.986 -0.7045  0.5996  0.8443
  659MOL0     H88921   3.204   8.350   3.988  2.0014  3.5008 -2.2119
  659MOL0     H88922   3.052   8.307   3.910  1.2381  4.5789  0.7623
  659MOL0     H88923   3.199   8.431   3.763 -0.0899  0.6186  0.7348
  659MOL0     H88924   3.179   8.269   3.696  0.7315 -0.4160 -0.8336
  659MOL0     H88925   3.357   8.565   3.816  0.6486 -3.6086 -3.2189
  659MOL0     H88926   3.492   8.703   3.962 -4.0924 -0.6606  0.2610
  659MOL0     H88927   3.477   8.843   4.377  0.1003 -2.8017 -1.2186
  659MOL0     H88928   3.546   8.967   4.557 -2.7275  0.9096 -3.1420
  659MOL0     H88929   3.723   9.064   4.781  1.3183  1.7729 -1.7677
  659MOL0     H88930   3.722   8.889   4.734 -2.3091  0.7281  0.1837
  659MOL0     H88931   3.940   9.071   4.851  0.5209  0.5798  1.3207
  659MOL0     H88932   3.853   8.943   4.936  1.0208  0.3397 -0.0929
  659MOL0     H88933   4.012   8.837   4.694 -2.8011 -1.8064 -0.2182
  659MOL0     H88934   4.106   8.921   4.816 -1.3729  1.4342 -0.0097
  659MOL0     H88935   3.904   8.682   4.853 -0.0674 -1.5543  0.0296
  659MOL0     H88936   3.986   8.762   4.982 -1.8563 -0.0602 -0.0286
  659MOL0     H88937   4.196   8.689   4.904 -2.0195  0.2052  2.4535
  659MOL0     H88938   4.142   8.631   4.744  1.0725  1.7971 -0.9672
  659MOL0     H88939   4.087   8.518   5.022 -0.0573 -1.8143 -0.2889
  659MOL0     H88940   3.988   8.478   4.881  0.4561 -0.2643 -1.3742
  659MOL0     H88941   4.176   8.352   4.787 -0.3514  2.4728 -1.2781
  659MOL0     H88942   4.171   8.308   4.953  2.2956 -0.8695  0.6298
  659MOL0     H88943   4.413   8.363   4.905  1.3124  0.7041  2.6166
  659MOL0     H88944   4.356   8.514   4.838  2.8842 -0.5087  0.3983
  659MOL0     H88945   3.962   8.889   4.446 -0.5254 -0.4190  0.5755
  659MOL0     H88946   3.873   8.753   4.241  1.4247 -2.3093  2.1132
  659MOL0     H88947   3.643   8.325   4.120  1.7785  0.1637 -0.6593
  659MOL0     H88948   3.530   8.197   3.961  0.5540  0.1895 -2.6495
  659MOL0     H88949   2.893   7.095   4.149  0.8794  0.1283  0.9631
  659MOL0     H88950   3.012   6.883   4.268 -0.2190 -1.6355  1.2521
  659MOL0     H88951   2.837   6.403   4.496 -0.2500  1.1350  0.1219
  659MOL0     H88952   2.953   6.208   4.603  0.1521 -0.9544  0.9512
  659MOL0     H88953   3.388   6.150   4.571 -0.8799  0.0620  1.3973
  659MOL0     H88954   3.342   6.039   4.431  1.9486 -0.6949  0.1321
  659MOL0     H88955   3.415   5.888   4.595  0.3591  0.0027  1.3635
  659MOL0     H88956   3.250   5.877   4.577  0.4780  0.7937 -1.9864
  659MOL0     H88957   3.218   6.054   4.784 -1.9063 -2.2860 -0.0620
  659MOL0     H88958   3.384   6.049   4.793 -0.6569  0.4256 -1.4939
  659MOL0     H88959   3.376   5.831   4.920  0.9278  1.3747 -2.4304
  659MOL0     H88960   3.264   5.938   4.978  1.0264 -2.1020  1.7920
  659MOL0     H88961   3.020   5.649   4.760  0.9933  0.8433 -1.2689
  659MOL0     H88962   3.289   6.267   4.355 -1.3097 -3.5542  0.0789
  659MOL0     H88963   3.255   6.579   4.282 -4.2911  1.0114  0.4086
  659MOL0     H88964   3.316   6.422   4.217  0.5563 -1.2803 -1.7703
  659MOL0     H88965   3.180   6.510   4.137  0.5567  1.6516  0.6307
  660MOL0     O88966   3.884   1.221   4.376  0.1419  0.0990  0.5241
  660MOL0     C88967   3.871   1.107   4.403  0.0570  0.5077  0.3128
  660MOL0     O88968   3.749   1.037   4.403  0.3153 -0.1983  0.1038
  660MOL0     C88969   3.636   1.087   4.338 -0.3385 -0.1133 -0.5339
  660MOL0     C88970   3.643   1.172   4.224  0.5732  0.9124 -1.0577
  660MOL0     C88971   3.535   1.230   4.176  0.8143  0.3761 -0.7463
  660MOL0     C88972   3.406   1.199   4.225  0.1914 -0.4186  0.6272
  660MOL0     O88973   3.289   1.253   4.175 -0.0513  0.8833 -0.7085
  660MOL0     C88974   3.176   1.168   4.186  0.7068  0.5265 -0.9709
  660MOL0     C88975   3.064   1.191   4.080  0.3943  0.0149 -1.5568
  660MOL0     C88976   2.953   1.289   4.123  0.4466 -0.2576 -0.4258
  660MOL0     C88977   2.993   1.439   4.141 -0.0608 -0.3370  0.5949
  660MOL0     C88978   2.873   1.528   4.185  0.0623 -0.0761 -1.0022
  660MOL0     C88979   2.913   1.676   4.224  0.1035 -0.6040  0.1967
  660MOL0     C88980   2.806   1.763   4.291  0.4854  0.2184 -0.0190
  660MOL0     C88981   2.862   1.896   4.350  0.2960  0.1529  0.4740
  660MOL0     N88982   2.948   1.883   4.473 -0.1511  0.4372 -0.3801
  660MOL0     C88983   3.081   1.838   4.483 -0.5440 -0.3919 -0.5220
  660MOL0     C88984   3.104   1.832   4.617 -0.0077 -0.4351 -0.9062
  660MOL0     C88985   3.224   1.780   4.689  0.6946 -0.2583 -0.4271
  660MOL0     C88986   3.355   1.867   4.696 -0.0093  0.0235 -0.3384
  660MOL0     C88987   3.332   1.999   4.780  1.0628  0.0161  0.9291
  660MOL0     C88988   3.470   2.061   4.808 -0.3228 -0.6248 -1.5328
  660MOL0     O88989   3.524   1.992   4.920 -0.4117  1.0150 -0.7847
  660MOL0     C88990   3.604   2.062   5.014  0.4165  0.2197 -0.0839
  660MOL0     C88991   3.599   2.205   5.045  0.5034  0.2498  0.3029
  660MOL0     C88992   3.678   2.265   5.144  0.6214 -0.3634  0.5833
  660MOL0     C88993   3.769   2.178   5.209 -1.3223  0.6672  0.2848
  660MOL0     C88994   3.854   2.234   5.315  0.5958 -0.0475 -1.3490
  660MOL0     O88995   3.847   2.364   5.342  0.2120  0.0152  0.3085
  660MOL0     C88996   3.919   2.404   5.448 -0.0722 -0.1623  0.4233
  660MOL0     C88997   4.024   2.490   5.418 -0.1101  0.0676 -0.0771
  660MOL0     C88998   4.101   2.555   5.524 -0.1003 -0.2995  0.4871
  660MOL0     C88999   4.054   2.527   5.655  0.2073  0.0153  1.0737
  660MOL0     O89000   4.127   2.602   5.746 -0.0616 -0.4405  0.5256
  660MOL0     C89001   4.070   2.645   5.876 -0.7077 -0.2420  0.6134
  660MOL0     C89002   3.939   2.723   5.860  0.3417  0.8749 -0.6111
  660MOL0     C89003   3.935   2.828   5.749  0.5374 -0.3970 -0.4129
  660MOL0     C89004   3.976   2.969   5.798 -0.0596  0.2403  0.5845
  660MOL0     C89005   3.956   3.079   5.689 -0.3154  0.3159 -0.1178
  660MOL0     C89006   4.004   3.207   5.751  0.5205  0.8213 -1.0354
  660MOL0     C89007   3.969   3.348   5.690  0.2659  1.0465 -0.2040
  660MOL0     C89008   4.001   3.458   5.783  0.3930  0.5983 -0.7583
  660MOL0    Cl89009   3.950   3.615   5.728  0.3925  0.1971 -0.2509
  660MOL0     C89010   3.942   2.445   5.685 -0.0179  1.0845  0.0187
  660MOL0     C89011   3.867   2.387   5.580 -0.9248  0.1239 -0.3897
  660MOL0     O89012   3.933   2.156   5.369  0.3316  0.2643 -1.3770
  660MOL0     C89013   3.782   2.040   5.170  1.0235  0.0275 -0.0723
  660MOL0     C89014   3.698   1.985   5.076  0.0583 -0.4219 -0.0189
  660MOL0     N89015   2.991   1.863   4.688 -0.3462 -0.1888  0.2663
  660MOL0     N89016   2.900   1.884   4.606 -0.0375 -0.4404  1.0948
  660MOL0     C89017   3.398   1.126   4.344 -0.0880  0.6877 -0.0391
  660MOL0     C89018   3.512   1.065   4.401 -0.1988 -0.0910 -0.1826
  660MOL0     C89019   3.994   1.046   4.455  0.0066  1.0086 -0.3432
  660MOL0     C89020   4.116   1.114   4.493  0.5796 -0.3564  0.3155
  660MOL0     C89021   4.218   1.049   4.559 -0.2379 -0.0818  1.1554
  660MOL0     C89022   4.218   0.915   4.584 -0.4748 -0.2806 -0.0303
  660MOL0     O89023   4.332   0.883   4.652  0.0720  0.5172 -0.3441
  660MOL0     C89024   4.352   0.743   4.671 -0.5278 -0.3530  0.1870
  660MOL0     C89025   4.494   0.713   4.712 -0.7114  0.4966 -0.0246
  660MOL0     C89026   4.596   0.761   4.609  0.4545  0.6538 -0.7188
  660MOL0     C89027   4.726   0.706   4.655 -0.3937 -0.0215 -0.4743
  660MOL0     C89028   4.825   0.747   4.560  0.5893  0.5143 -0.1661
  660MOL0     C89029   4.911   0.793   4.485  0.1451 -0.3625 -0.6342
  660MOL0     C89030   4.110   0.841   4.536 -0.0461  0.8595 -1.0416
  660MOL0     C89031   4.006   0.902   4.463 -0.0236  0.1466  0.2407
  660MOL0     C89032   3.903   0.806   4.406  0.5097 -0.1461  0.9580
  660MOL0     H89033   3.738   1.174   4.171  0.6350 -0.5028 -1.0215
  660MOL0     H89034   3.531   1.304   4.096 -0.4603  0.2934 -0.7861
  660MOL0     H89035   3.198   1.062   4.173  2.0821 -0.3970  5.3792
  660MOL0     H89036   3.134   1.180   4.287 -1.2151  1.0399 -1.7711
  660MOL0     H89037   3.010   1.097   4.076  1.4790 -0.6823 -0.6066
  660MOL0     H89038   3.104   1.195   3.978  2.3466 -1.5574 -0.9256
  660MOL0     H89039   2.920   1.260   4.223 -1.6995 -2.5925 -1.7243
  660MOL0     H89040   2.860   1.282   4.066 -0.5525 -4.3915  1.3361
  660MOL0     H89041   3.069   1.448   4.219  2.8221 -0.9579 -1.9172
  660MOL0     H89042   3.041   1.476   4.049 -2.4091 -1.2724 -1.1024
  660MOL0     H89043   2.783   1.526   4.122 -2.0493  1.8363  1.6948
  660MOL0     H89044   2.834   1.489   4.280  0.7440 -1.6959 -1.3644
  660MOL0     H89045   2.996   1.668   4.294 -0.8096 -0.1677  1.3745
  660MOL0     H89046   2.961   1.726   4.139  1.9095 -3.9670 -0.9098
  660MOL0     H89047   2.754   1.703   4.365  3.1864  0.2685  2.0514
  660MOL0     H89048   2.734   1.792   4.214 -0.5326  1.1148  1.2327
  660MOL0     H89049   2.927   1.930   4.269  0.0240 -0.3883  0.0209
  660MOL0     H89050   2.782   1.967   4.370 -1.0693 -1.5156  1.1942
  660MOL0     H89051   3.148   1.808   4.402  2.1441 -1.0273  1.7795
  660MOL0     H89052   3.199   1.752   4.792  3.2284 -0.2610  0.2623
  660MOL0     H89053   3.242   1.681   4.645 -3.0210 -0.3679 -2.1328
  660MOL0     H89054   3.434   1.805   4.741  0.0402 -0.3303 -0.9095
  660MOL0     H89055   3.385   1.896   4.595  1.6867 -1.6606 -0.3676
  660MOL0     H89056   3.284   1.980   4.876  2.2940 -1.1712  1.3530
  660MOL0     H89057   3.267   2.071   4.731 -0.2555 -1.0737  1.0418
  660MOL0     H89058   3.451   2.167   4.829  2.7923 -0.4052  0.7682
  660MOL0     H89059   3.532   2.068   4.718  0.0726  0.5962 -1.1809
  660MOL0     H89060   3.532   2.270   4.989 -1.7272 -0.9875  1.3996
  660MOL0     H89061   3.661   2.370   5.166 -0.1765  0.3986 -2.9683
  660MOL0     H89062   4.036   2.508   5.311 -1.5864  0.5664 -0.1799
  660MOL0     H89063   4.186   2.622   5.512  0.5559 -0.7789  2.1737
  660MOL0     H89064   4.062   2.562   5.946  0.3149 -1.7304 -0.9545
  660MOL0     H89065   4.145   2.701   5.932  1.6588 -2.0214 -0.6209
  660MOL0     H89066   3.855   2.656   5.839  1.3291 -0.6139  0.0174
  660MOL0     H89067   3.919   2.765   5.959  1.2278  1.8538 -0.8292
  660MOL0     H89068   3.990   2.799   5.659  2.0166  1.1492 -0.0639
  660MOL0     H89069   3.833   2.851   5.716  0.7738  1.1238 -0.1684
  660MOL0     H89070   4.084   2.969   5.817  0.4568 -1.4459 -1.8995
  660MOL0     H89071   3.928   2.996   5.892  1.0560  3.3499  0.3987
  660MOL0     H89072   3.852   3.071   5.654 -0.6303  2.2971  0.2597
  660MOL0     H89073   4.018   3.053   5.603 -1.2684  2.8069 -1.6847
  660MOL0     H89074   3.959   3.199   5.851 -0.0605 -0.4280 -1.3760
  660MOL0     H89075   4.114   3.208   5.759  0.7505  3.5694 -3.2223
  660MOL0     H89076   3.861   3.348   5.678  0.1277 -1.5578  0.2603
  660MOL0     H89077   4.020   3.356   5.593 -0.4594 -1.6417 -0.9072
  660MOL0     H89078   3.961   3.437   5.883  1.0782  1.1959 -0.3536
  660MOL0     H89079   4.108   3.466   5.804  0.0547  2.7096  0.4676
  660MOL0     H89080   3.915   2.430   5.789 -0.1064 -0.3150 -0.1843
  660MOL0     H89081   3.775   2.333   5.599 -1.7633  0.4898 -3.0075
  660MOL0     H89082   3.843   1.983   5.240  2.0962  1.3217  0.0965
  660MOL0     H89083   3.697   1.878   5.058 -0.8553 -0.5584  0.7218
  660MOL0     H89084   3.302   1.105   4.389  0.1888  0.7199  0.5766
  660MOL0     H89085   3.521   1.001   4.489  1.1086  1.9440  1.2378
  660MOL0     H89086   4.128   1.221   4.476  0.2336  0.0481  2.4203
  660MOL0     H89087   4.308   1.104   4.586  1.1334 -0.7085 -1.7643
  660MOL0     H89088   4.331   0.693   4.576  0.4348 -3.0912  1.3266
  660MOL0     H89089   4.293   0.700   4.752 -0.2892 -2.5079 -0.7244
  660MOL0     H89090   4.497   0.604   4.704 -2.5339  0.4934 -1.4857
  660MOL0     H89091   4.519   0.752   4.811  0.2212  0.4397 -0.2316
  660MOL0     H89092   4.607   0.869   4.597  0.9015  0.6051 -0.7848
  660MOL0     H89093   4.568   0.714   4.514  0.3310 -0.0004 -0.3689
  660MOL0     H89094   4.747   0.749   4.754 -2.9736 -1.8931  0.9971
  660MOL0     H89095   4.735   0.598   4.666  0.9932 -0.0937 -1.9097
  660MOL0     H89096   4.992   0.823   4.422  2.0617  0.0663  1.8608
  660MOL0     H89097   4.098   0.733   4.531 -1.8697  1.0779 -2.1222
  660MOL0     H89098   3.833   0.774   4.484 -1.6565 -2.4949 -1.7297
  660MOL0     H89099   3.848   0.835   4.316  1.3372 -3.5268 -0.8217
  660MOL0     H89100   3.951   0.712   4.378  1.4755  0.8051 -0.7190
  661MOL0     O89101   4.708  10.782   6.847  0.2944 -0.5295 -0.4682
  661MOL0     C89102   4.592  10.786   6.899 -0.6074 -0.7792 -0.0511
  661MOL0     O89103   4.540  10.690   6.980  0.4877  0.1503 -0.7053
  661MOL0     C89104   4.633  10.600   7.025  0.1146  0.1801 -0.5481
  661MOL0     C89105   4.736  10.633   7.112  0.3994 -0.5975 -0.5984
  661MOL0     C89106   4.838  10.553   7.159  0.4996  0.5279  0.1042
  661MOL0     C89107   4.829  10.413   7.125  0.0761  0.7891 -1.3606
  661MOL0     O89108   4.913  10.319   7.187  0.1732  0.1770  0.6563
  661MOL0     C89109   4.887  10.182   7.161  0.2036 -1.1693 -0.2194
  661MOL0     C89110   5.006  10.117   7.244  0.8218  0.3554 -0.4759
  661MOL0     C89111   5.145  10.189   7.225  0.2011  0.2572 -0.3644
  661MOL0     C89112   5.244  10.139   7.330 -0.4023  0.1646  0.8617
  661MOL0     C89113   5.371  10.210   7.325  0.0114 -0.0984 -0.3796
  661MOL0     C89114   5.444  10.214   7.458 -0.2763 -0.6189  0.3477
  661MOL0     C89115   5.474  10.072   7.509  0.3842 -0.5552  0.4996
  661MOL0     C89116   5.547  10.090   7.635 -0.4891  0.0682 -0.8638
  661MOL0     N89117   5.623   9.971   7.680  0.2313 -0.0848  0.0342
  661MOL0     C89118   5.584   9.891   7.785  0.3696 -0.3265 -0.5684
  661MOL0     C89119   5.695   9.813   7.808 -0.4664 -0.4055  0.0586
  661MOL0     C89120   5.704   9.711   7.919  0.9359 -1.0048 -0.1880
  661MOL0     C89121   5.648   9.570   7.872  0.7859 -0.1071  0.2076
  661MOL0     C89122   5.493   9.561   7.855  0.2076 -0.4134  0.1727
  661MOL0     C89123   5.444   9.426   7.799 -0.3296 -0.4763  0.0576
  661MOL0     O89124   5.397   9.430   7.663 -0.3279  0.1875  0.0372
  661MOL0     C89125   5.490   9.436   7.560  0.4628 -0.2599 -0.4354
  661MOL0     C89126   5.504   9.330   7.472 -0.3390  0.1938  1.1552
  661MOL0     C89127   5.595   9.336   7.361  0.4786 -0.5257  0.7503
  661MOL0     C89128   5.674   9.451   7.349 -0.6036  0.3818 -1.0485
  661MOL0     C89129   5.773   9.461   7.238  0.7678  0.9231 -0.3410
  661MOL0     O89130   5.845   9.570   7.240 -0.7341 -0.3492 -0.1141
  661MOL0     C89131   5.922   9.599   7.133 -0.3834 -0.2469  0.4115
  661MOL0     C89132   5.950   9.529   7.008  0.1153 -0.5309  0.6845
  661MOL0     C89133   6.039   9.586   6.911  0.0290  0.4218  0.4299
  661MOL0     C89134   6.087   9.715   6.913  0.4083 -0.1532  0.0906
  661MOL0     O89135   6.157   9.777   6.811 -0.8352  0.1333 -0.4308
  661MOL0     C89136   6.076   9.870   6.746 -0.4823 -0.0210  0.0377
  661MOL0     C89137   6.135   9.914   6.612 -0.6886 -0.5809 -0.6075
  661MOL0     C89138   6.120   9.791   6.518 -0.5595  0.8689 -0.7081
  661MOL0     C89139   6.176   9.806   6.377 -0.2173  0.0068 -0.1991
  661MOL0     C89140   6.319   9.809   6.371 -0.0440  0.6632 -0.1773
  661MOL0     C89141   6.373   9.844   6.230 -0.4054 -0.0546  0.2214
  661MOL0     C89142   6.527   9.834   6.230  0.1883  0.3501  0.9006
  661MOL0     C89143   6.582   9.810   6.084  0.0870 -0.3420  0.1308
  661MOL0    Cl89144   6.563   9.955   5.975 -0.0977  0.4511 -0.1982
  661MOL0     C89145   6.057   9.788   7.029 -0.7718  0.2458  0.1622
  661MOL0     C89146   5.975   9.731   7.129 -0.0106  0.1355 -0.3079
  661MOL0     O89147   5.783   9.365   7.159  0.2097 -0.2851 -0.3641
  661MOL0     C89148   5.663   9.565   7.442 -0.7478 -0.5766  0.5264
  661MOL0     C89149   5.576   9.549   7.547  0.5058  0.1344  0.3974
  661MOL0     N89150   5.785   9.839   7.707 -0.5474 -0.1522 -0.2342
  661MOL0     N89151   5.743   9.927   7.624 -0.0619 -0.5703  0.2210
  661MOL0     C89152   4.722  10.375   7.030 -0.3986  0.4051 -0.0944
  661MOL0     C89153   4.634  10.468   6.971  0.7214 -0.3343 -0.5970
  661MOL0     C89154   4.511  10.910   6.885  0.1115 -0.0437  0.2096
  661MOL0     C89155   4.456  10.982   6.993 -0.4841 -0.5168 -0.0263
  661MOL0     C89156   4.376  11.093   6.980  0.2053 -1.2394  0.5359
  661MOL0     C89157   4.328  11.134   6.857  0.0387  0.4337 -0.9740
  661MOL0     O89158   4.239  11.231   6.832  0.1175 -0.6769 -0.0100
  661MOL0     C89159   4.137  11.262   6.922 -0.4726 -0.2573 -0.0719
  661MOL0     C89160   4.007  11.190   6.889 -0.9188 -1.0067 -0.2277
  661MOL0     C89161   4.003  11.045   6.932  0.0245  0.7450 -0.4039
  661MOL0     C89162   3.899  11.020   7.039 -0.0044 -1.0289  1.2535
  661MOL0     C89163   3.897  11.112   7.159  0.9461  0.8902 -0.3746
  661MOL0     C89164   3.880  11.195   7.243 -0.6538  0.2411  0.3945
  661MOL0     C89165   4.391  11.072   6.747 -0.4294  0.4298  0.5391
  661MOL0     C89166   4.488  10.966   6.758 -0.3952  1.2259 -0.2176
  661MOL0     C89167   4.540  10.905   6.633 -0.5518 -0.0395 -0.0514
  661MOL0     H89168   4.731  10.733   7.155  0.2825 -1.0957  0.5767
  661MOL0     H89169   4.908  10.590   7.233 -0.9752 -0.6756  2.2137
  661MOL0     H89170   4.785  10.156   7.188  0.2259 -0.3892  0.6351
  661MOL0     H89171   4.889  10.150   7.056 -2.1555 -2.1857 -0.0032
  661MOL0     H89172   5.012  10.012   7.216  1.4164  0.0119  0.8597
  661MOL0     H89173   4.968  10.125   7.347 -0.9888 -0.6612 -1.0111
  661MOL0     H89174   5.151  10.298   7.231  0.7339  0.2695 -0.9904
  661MOL0     H89175   5.189  10.168   7.127  4.4179 -1.1744  1.5605
  661MOL0     H89176   5.202  10.164   7.428 -2.5882  4.7321 -0.9157
  661MOL0     H89177   5.264  10.031   7.328  0.1188  0.2712  0.1712
  661MOL0     H89178   5.438  10.169   7.249  0.1853  0.6716 -0.6570
  661MOL0     H89179   5.364  10.314   7.291 -1.7773 -0.4520 -1.2094
  661MOL0     H89180   5.536  10.273   7.453  0.3166 -1.4409  1.1555
  661MOL0     H89181   5.375  10.270   7.521 -1.0432 -1.6006  0.4013
  661MOL0     H89182   5.543  10.015   7.446  2.4275  1.1143  1.0774
  661MOL0     H89183   5.382  10.015   7.517  0.4838 -0.5260  2.2801
  661MOL0     H89184   5.613  10.177   7.639  1.6085 -1.3173 -2.6984
  661MOL0     H89185   5.466  10.107   7.705  0.1119 -0.2050 -0.0921
  661MOL0     H89186   5.484   9.887   7.826 -0.4861 -4.1009 -2.5997
  661MOL0     H89187   5.806   9.687   7.951  0.6755 -1.2087  0.5004
  661MOL0     H89188   5.644   9.749   8.002 -1.2647 -1.4013 -1.5138
  661MOL0     H89189   5.700   9.541   7.780  3.3422  6.9086 -1.2402
  661MOL0     H89190   5.671   9.487   7.938 -1.7011 -2.5202 -1.7284
  661MOL0     H89191   5.453   9.646   7.799  1.0447  0.6849  1.2054
  661MOL0     H89192   5.444   9.579   7.951 -0.3688  3.0159 -0.6295
  661MOL0     H89193   5.373   9.385   7.872 -0.5444  0.2971  0.2900
  661MOL0     H89194   5.519   9.346   7.798 -0.5131 -0.6770  0.9284
  661MOL0     H89195   5.437   9.246   7.482 -0.7514  0.1113 -1.5523
  661MOL0     H89196   5.586   9.262   7.282 -2.2152 -0.4008  0.8612
  661MOL0     H89197   5.903   9.435   6.982 -0.5617 -0.3600  1.2549
  661MOL0     H89198   6.054   9.542   6.813  2.3531 -0.0383  0.9466
  661MOL0     H89199   5.979   9.821   6.735  1.8217 -5.7593  1.3838
  661MOL0     H89200   6.074   9.967   6.797  2.8924 -0.5059  1.4098
  661MOL0     H89201   6.082  10.004   6.578 -0.5901  0.0053  0.7350
  661MOL0     H89202   6.236   9.948   6.635 -0.3481  0.0659 -2.8612
  661MOL0     H89203   6.157   9.700   6.567 -1.8563  0.9097  0.4337
  661MOL0     H89204   6.013   9.767   6.523 -0.0619 -1.7428 -0.8349
  661MOL0     H89205   6.134   9.896   6.330  0.1317 -0.1918 -0.8958
  661MOL0     H89206   6.150   9.723   6.311 -0.4621 -0.1267  0.0667
  661MOL0     H89207   6.365   9.720   6.414 -2.6823  0.1584  1.8065
  661MOL0     H89208   6.352   9.879   6.449 -2.5604  0.1272  1.4996
  661MOL0     H89209   6.318   9.783   6.157  0.7081 -1.2177  0.3252
  661MOL0     H89210   6.339   9.941   6.194  0.4827  0.4947  0.8419
  661MOL0     H89211   6.547   9.749   6.296 -1.4464 -1.2507 -0.5482
  661MOL0     H89212   6.571   9.922   6.278  3.0892 -1.0278  0.9599
  661MOL0     H89213   6.687   9.783   6.070 -0.2387 -2.0833  0.7706
  661MOL0     H89214   6.525   9.723   6.050  1.2974 -1.2369  0.3167
  661MOL0     H89215   6.092   9.891   7.036 -1.6674  0.6794 -1.3257
  661MOL0     H89216   5.947   9.787   7.218  1.7399 -1.4529  1.3516
  661MOL0     H89217   5.730   9.651   7.445  1.3526 -2.0786 -1.0911
  661MOL0     H89218   5.574   9.637   7.611  2.0172  0.8883 -0.5381
  661MOL0     H89219   4.698  10.270   7.014  0.6084  0.2700 -0.8782
  661MOL0     H89220   4.560  10.437   6.897 -2.1064  1.9060  1.0789
  661MOL0     H89221   4.496  10.948   7.088 -1.6779 -4.2363 -0.6772
  661MOL0     H89222   4.345  11.143   7.072  0.7448 -0.2035  0.1698
  661MOL0     H89223   4.131  11.371   6.930  0.2566 -0.1096 -1.2859
  661MOL0     H89224   4.182  11.226   7.015  1.5307 -1.8005 -1.5628
  661MOL0     H89225   3.979  11.191   6.783 -0.6685  0.8439 -0.3175
  661MOL0     H89226   3.931  11.246   6.944  2.2897  2.6192  1.0045
  661MOL0     H89227   4.104  11.014   6.960  0.7338  0.5047 -2.9765
  661MOL0     H89228   3.982  10.982   6.846 -3.0769  3.0669 -1.5187
  661MOL0     H89229   3.804  11.026   6.986 -1.1246  2.5687  3.3471
  661MOL0     H89230   3.913  10.916   7.069 -0.5272 -1.0827  1.3090
  661MOL0     H89231   3.884  11.270   7.320  2.0196  0.0488  0.5363
  661MOL0     H89232   4.364  11.108   6.648  0.7160 -0.9013 -0.2870
  661MOL0     H89233   4.454  10.915   6.565 -2.2518 -2.9134  1.4912
  661MOL0     H89234   4.627  10.969   6.615  0.5156 -1.1938  0.8759
  661MOL0     H89235   4.574  10.801   6.632  1.9919  0.7038 -1.8092
  662MOL0     O89236   5.621   2.655   4.527  0.3432  0.3051  0.3625
  662MOL0     C89237   5.576   2.570   4.599 -0.0012  0.2888 -0.5426
  662MOL0     O89238   5.545   2.593   4.729 -0.6449  0.4300 -0.7569
  662MOL0     C89239   5.457   2.691   4.763  0.3223  0.4202 -0.6006
  662MOL0     C89240   5.376   2.760   4.670 -0.1555 -0.4250 -0.5012
  662MOL0     C89241   5.270   2.840   4.709 -1.2279  0.3606 -0.0749
  662MOL0     C89242   5.265   2.881   4.843  0.1966  0.1554 -0.1141
  662MOL0     O89243   5.195   2.992   4.881 -0.3166 -0.6084  0.2539
  662MOL0     C89244   5.153   3.085   4.770  0.2742 -0.2722 -0.2227
  662MOL0     C89245   5.109   3.229   4.820 -1.0265  1.1483  0.5938
  662MOL0     C89246   5.217   3.316   4.859  0.1235 -0.8995  0.1136
  662MOL0     C89247   5.297   3.311   4.990 -0.0598  0.4914  0.4470
  662MOL0     C89248   5.209   3.309   5.114  0.1779 -0.7321 -0.2800
  662MOL0     C89249   5.286   3.322   5.249 -0.5992  0.6868  0.1862
  662MOL0     C89250   5.395   3.210   5.251 -0.3451 -1.2482 -0.3597
  662MOL0     C89251   5.448   3.188   5.392  1.0469  0.5087 -0.2747
  662MOL0     N89252   5.451   3.051   5.438 -0.5913  0.4029  0.1384
  662MOL0     C89253   5.561   2.965   5.405  0.9592 -0.1192 -0.5478
  662MOL0     C89254   5.552   2.876   5.503  0.6064 -1.3372  0.0393
  662MOL0     C89255   5.649   2.768   5.545  1.1150 -0.0377 -0.1782
  662MOL0     C89256   5.576   2.630   5.542 -0.0234  0.5732 -0.3699
  662MOL0     C89257   5.661   2.516   5.611 -0.1839  0.1391 -1.4508
  662MOL0     C89258   5.578   2.385   5.583 -0.2851 -0.0888 -0.4053
  662MOL0     O89259   5.438   2.393   5.617  0.2619  0.0209  0.4928
  662MOL0     C89260   5.386   2.278   5.659 -0.0904 -0.0059  0.1030
  662MOL0     C89261   5.379   2.254   5.791  0.0872 -0.0032  0.6456
  662MOL0     C89262   5.335   2.139   5.840  0.2522  1.0092 -0.4262
  662MOL0     C89263   5.301   2.035   5.766  0.4703  0.6208  0.2149
  662MOL0     C89264   5.239   1.918   5.842 -0.4997 -0.1038 -0.0994
  662MOL0     O89265   5.239   1.924   5.972 -0.6059 -0.6172 -0.6067
  662MOL0     C89266   5.185   1.815   6.039  0.4877  0.0951 -0.1207
  662MOL0     C89267   5.061   1.825   6.100 -0.2050 -0.8113 -0.1307
  662MOL0     C89268   5.017   1.717   6.166  0.2202 -0.0597 -0.2980
  662MOL0     C89269   5.088   1.603   6.167  0.3533  0.4701 -0.2431
  662MOL0     O89270   5.038   1.480   6.215  0.7947 -0.4607 -0.0774
  662MOL0     C89271   4.895   1.458   6.211  0.1452  0.4921 -0.0231
  662MOL0     C89272   4.861   1.313   6.244 -0.4100 -0.7070 -0.0876
  662MOL0     C89273   4.928   1.257   6.370  0.6413  0.5541 -0.6081
  662MOL0     C89274   4.924   1.107   6.366  0.6603 -0.2218 -1.3050
  662MOL0     C89275   4.772   1.062   6.401  0.2406  0.9079  0.7517
  662MOL0     C89276   4.763   0.909   6.403 -0.2325 -0.4765  0.0512
  662MOL0     C89277   4.641   0.865   6.311  0.0713  0.0706 -0.4556
  662MOL0     C89278   4.626   0.722   6.291  0.2072 -0.3536  0.1283
  662MOL0    Cl89279   4.628   0.643   6.438  0.1074 -0.0052  0.0184
  662MOL0     C89280   5.216   1.589   6.118  0.5714  0.3670 -0.6935
  662MOL0     C89281   5.262   1.697   6.051 -0.4822  0.2017  0.1238
  662MOL0     O89282   5.189   1.837   5.764  0.0187 -0.1163 -0.3921
  662MOL0     C89283   5.299   2.056   5.627 -0.2854 -0.3323 -0.2213
  662MOL0     C89284   5.333   2.187   5.569 -0.2554  0.1092 -0.0740
  662MOL0     N89285   5.444   2.919   5.584 -0.1881 -0.1668 -0.0100
  662MOL0     N89286   5.391   3.018   5.550 -0.5654 -0.2520 -0.1771
  662MOL0     C89287   5.335   2.810   4.934  0.6246  0.8239  0.1197
  662MOL0     C89288   5.431   2.714   4.898  0.5147 -0.3873  0.2060
  662MOL0     C89289   5.569   2.427   4.554 -1.6364  0.4167  0.0845
  662MOL0     C89290   5.564   2.325   4.646  0.0207 -0.1025 -0.0034
  662MOL0     C89291   5.556   2.190   4.608 -0.0956 -0.5652  0.0866
  662MOL0     C89292   5.570   2.159   4.467  0.1319  0.1808 -0.7061
  662MOL0     O89293   5.571   2.033   4.415 -0.3848 -0.3816 -0.1389
  662MOL0     C89294   5.603   1.913   4.496  0.3072 -1.0203 -0.7388
  662MOL0     C89295   5.516   1.787   4.463 -0.3581 -0.4274  0.0382
  662MOL0     C89296   5.368   1.835   4.467 -0.9009 -0.2661 -0.0294
  662MOL0     C89297   5.264   1.726   4.458  0.2342 -0.1668  0.0267
  662MOL0     C89298   5.246   1.643   4.575  0.0303 -0.4432  0.1242
  662MOL0     C89299   5.217   1.581   4.679 -0.4479 -0.1140 -0.0834
  662MOL0     C89300   5.578   2.261   4.381 -0.9680 -0.0080  0.4453
  662MOL0     C89301   5.572   2.401   4.414 -0.9816 -0.7193  0.9064
  662MOL0     C89302   5.580   2.508   4.301  0.7927  0.5792  0.0448
  662MOL0     H89303   5.391   2.739   4.564 -2.1812  1.2050 -1.1597
  662MOL0     H89304   5.215   2.892   4.631 -0.2585  1.7960  0.1355
  662MOL0     H89305   5.219   3.097   4.683 -1.5369 -2.1546 -1.9754
  662MOL0     H89306   5.063   3.043   4.725  1.2987 -2.6008 -0.2298
  662MOL0     H89307   5.047   3.194   4.903 -0.7527  1.1638  0.8089
  662MOL0     H89308   5.040   3.267   4.744 -2.1776 -2.5595 -0.4494
  662MOL0     H89309   5.174   3.416   4.848  2.5552  0.3470  1.2065
  662MOL0     H89310   5.283   3.316   4.771  0.1288  0.5821  0.0851
  662MOL0     H89311   5.350   3.215   4.991 -2.0029 -0.6449  2.3543
  662MOL0     H89312   5.366   3.396   4.987  0.5729  0.0059  1.0100
  662MOL0     H89313   5.150   3.401   5.103 -0.6976 -1.4139 -1.5407
  662MOL0     H89314   5.131   3.232   5.114  0.9226 -1.5392 -1.8848
  662MOL0     H89315   5.330   3.422   5.255  0.5075  0.2045  0.4561
  662MOL0     H89316   5.216   3.307   5.332  2.3107  1.2465  2.9523
  662MOL0     H89317   5.484   3.228   5.189 -1.2585  0.9107 -1.1282
  662MOL0     H89318   5.351   3.116   5.219 -0.6519 -0.7088 -1.5674
  662MOL0     H89319   5.550   3.228   5.401  1.5018 -0.7688  0.4630
  662MOL0     H89320   5.395   3.248   5.467  3.1212 -0.7325  2.3424
  662MOL0     H89321   5.637   2.982   5.329  2.1670  3.0012  1.1722
  662MOL0     H89322   5.744   2.763   5.491  4.4222  1.0480  4.9057
  662MOL0     H89323   5.688   2.794   5.643 -1.5063 -0.8919  1.2044
  662MOL0     H89324   5.474   2.629   5.582  0.1801 -1.3774  0.2085
  662MOL0     H89325   5.558   2.607   5.437  0.3391  0.1361 -0.3369
  662MOL0     H89326   5.666   2.526   5.719 -2.8490  0.3435 -1.2828
  662MOL0     H89327   5.760   2.506   5.565 -0.0149  1.0884 -1.3107
  662MOL0     H89328   5.622   2.293   5.623 -1.0832  0.4117  1.7931
  662MOL0     H89329   5.574   2.375   5.474 -1.3468 -0.2661 -0.3651
  662MOL0     H89330   5.412   2.338   5.852 -1.5600 -0.0631  1.6652
  662MOL0     H89331   5.320   2.140   5.948 -2.5982  2.1420 -0.7684
  662MOL0     H89332   5.001   1.915   6.098  1.1359  0.2258  2.1608
  662MOL0     H89333   4.912   1.725   6.195  0.6702 -0.1636  1.5013
  662MOL0     H89334   4.845   1.524   6.284  3.5515  3.1025  0.2171
  662MOL0     H89335   4.857   1.484   6.112 -2.4344 -0.5861  0.6021
  662MOL0     H89336   4.752   1.301   6.242 -0.3502 -1.8561  1.5014
  662MOL0     H89337   4.910   1.248   6.171 -2.3258 -2.3874  0.0056
  662MOL0     H89338   5.029   1.299   6.369  1.8617 -2.1257 -1.7908
  662MOL0     H89339   4.862   1.283   6.453 -2.9441 -0.6136 -2.8761
  662MOL0     H89340   4.996   1.064   6.437 -1.0861  0.5030  1.0344
  662MOL0     H89341   4.947   1.053   6.273 -1.4427 -1.5234 -1.1399
  662MOL0     H89342   4.701   1.096   6.325  1.2931 -1.4692 -1.4863
  662MOL0     H89343   4.750   1.099   6.501 -2.3103  1.2313  0.1583
  662MOL0     H89344   4.853   0.862   6.363 -0.7514 -0.9311 -0.6184
  662MOL0     H89345   4.749   0.881   6.508 -1.6594 -2.0273 -0.5146
  662MOL0     H89346   4.628   0.906   6.210 -1.2392 -3.2431 -1.7720
  662MOL0     H89347   4.550   0.907   6.354  0.6728  2.6997 -1.5299
  662MOL0     H89348   4.530   0.700   6.244  0.4406 -2.3918  0.5458
  662MOL0     H89349   4.713   0.698   6.228  1.1730  0.6483  1.0202
  662MOL0     H89350   5.267   1.500   6.155  2.4143  2.4961  2.3604
  662MOL0     H89351   5.357   1.686   5.999 -2.0806 -1.0635 -2.7415
  662MOL0     H89352   5.262   1.975   5.565  1.2523 -1.6254  0.4887
  662MOL0     H89353   5.338   2.215   5.465 -0.2635  0.5221  0.0358
  662MOL0     H89354   5.331   2.831   5.040  1.3439 -3.4570  1.1572
  662MOL0     H89355   5.481   2.651   4.971  0.1458 -1.2381 -0.2633
  662MOL0     H89356   5.566   2.356   4.750  0.8299 -1.2797  0.3452
  662MOL0     H89357   5.530   2.105   4.671  0.2514 -2.1364 -1.7808
  662MOL0     H89358   5.601   1.918   4.605  1.6611  1.2036 -0.7556
  662MOL0     H89359   5.708   1.904   4.466  0.7276 -0.1237  0.3701
  662MOL0     H89360   5.551   1.716   4.538  2.8354 -1.3382 -2.0819
  662MOL0     H89361   5.542   1.755   4.361  4.3541 -1.2115  1.2471
  662MOL0     H89362   5.330   1.906   4.392 -1.0090  0.9200  1.1064
  662MOL0     H89363   5.359   1.893   4.559  3.9637  1.0389 -0.1222
  662MOL0     H89364   5.171   1.774   4.427 -0.4719 -0.4946  1.5491
  662MOL0     H89365   5.290   1.673   4.366  1.6969  1.0674 -0.3002
  662MOL0     H89366   5.188   1.526   4.766  1.8964 -3.7233 -1.3467
  662MOL0     H89367   5.580   2.225   4.278 -4.6010 -0.2049  0.3180
  662MOL0     H89368   5.503   2.585   4.308 -0.3928 -0.4693 -1.0368
  662MOL0     H89369   5.679   2.556   4.296  1.5211 -0.9731 -1.0026
  662MOL0     H89370   5.548   2.461   4.208  0.0004 -2.2154  1.5887
  663MOL0     O89371   9.966   9.821  11.109 -0.6523 -0.6413  0.1337
  663MOL0     C89372   9.981   9.830  10.989 -0.4246  0.0900  0.1067
  663MOL0     O89373  10.039   9.731  10.907 -0.0544  0.2222 -0.5256
  663MOL0     C89374  10.095   9.609  10.957 -0.0148 -0.0913  1.2632
  663MOL0     C89375  10.090   9.552  11.083 -0.1179  0.1665 -0.1182
  663MOL0     C89376  10.114   9.416  11.100 -0.3266  0.2197 -0.5553
  663MOL0     C89377  10.168   9.331  11.002 -0.6482 -0.4609  0.1600
  663MOL0     O89378  10.179   9.200  11.045 -0.1626 -0.0309 -0.0434
  663MOL0     C89379  10.268   9.130  10.955  0.5527 -0.7326 -0.1353
  663MOL0     C89380  10.308   8.993  11.024 -0.8107 -0.4614 -0.8896
  663MOL0     C89381  10.195   8.931  11.107  0.0251 -0.2025  0.3493
  663MOL0     C89382  10.207   8.782  11.144 -0.5475  1.0145  0.7492
  663MOL0     C89383  10.291   8.763  11.270 -0.2577 -0.2991 -0.0890
  663MOL0     C89384  10.270   8.630  11.324 -0.6073 -0.3320  0.3889
  663MOL0     C89385  10.361   8.581  11.439  0.8650 -0.4924  0.1973
  663MOL0     C89386  10.393   8.684  11.548 -0.0206 -0.0817  0.5815
  663MOL0     N89387  10.478   8.625  11.654  0.1879 -0.0694  0.5324
  663MOL0     C89388  10.576   8.526  11.627  0.4063  0.1201 -0.7994
  663MOL0     C89389  10.648   8.518  11.740 -0.2257 -0.0879 -0.0303
  663MOL0     C89390  10.755   8.412  11.775 -0.6651 -0.1641  0.2116
  663MOL0     C89391  10.776   8.403  11.925  0.2603 -0.3720  0.5839
  663MOL0     C89392  10.861   8.278  11.959  0.2874 -0.0999  0.9828
  663MOL0     C89393  10.805   8.144  11.930 -0.2535 -0.5129  1.2861
  663MOL0     O89394  10.670   8.117  11.962  0.5606  0.0114 -0.6887
  663MOL0     C89395  10.608   8.000  11.913  0.1862  0.4544  0.0996
  663MOL0     C89396  10.683   7.900  11.854 -0.1586  0.1579 -0.7568
  663MOL0     C89397  10.620   7.780  11.819  0.7898  0.4160 -0.8030
  663MOL0     C89398  10.480   7.773  11.813  0.8104  0.4073 -0.1967
  663MOL0     C89399  10.405   7.666  11.740 -0.0463  0.3457 -0.6991
  663MOL0     O89400  10.479   7.564  11.695 -0.5371 -1.0436 -0.6919
  663MOL0     C89401  10.425   7.464  11.622  0.6140  0.8553 -0.9294
  663MOL0     C89402  10.332   7.489  11.519  0.1367 -0.4000 -0.4399
  663MOL0     C89403  10.264   7.379  11.463 -0.1803  0.8645  0.1491
  663MOL0     C89404  10.284   7.248  11.507 -0.5140  0.2089  0.4930
  663MOL0     O89405  10.226   7.134  11.455  0.0168 -0.0837 -0.0136
  663MOL0     C89406  10.138   7.141  11.346  0.7831 -0.4861 -0.0867
  663MOL0     C89407  10.203   7.146  11.206 -0.2807  0.9982  0.3304
  663MOL0     C89408  10.226   7.003  11.159 -0.1109  0.9123  0.8336
  663MOL0     C89409  10.309   7.007  11.025  0.2290  0.2728  0.0585
  663MOL0     C89410  10.353   6.867  10.990 -0.7591  0.2589  0.1841
  663MOL0     C89411  10.415   6.842  10.854  0.8460  0.1356 -1.5640
  663MOL0     C89412  10.319   6.882  10.745 -0.0154 -0.1237 -0.0149
  663MOL0     C89413  10.384   6.885  10.607  0.6885 -0.5001 -0.0647
  663MOL0    Cl89414  10.452   6.731  10.574  0.2638  0.1236  0.1260
  663MOL0     C89415  10.390   7.234  11.592  0.4901  0.3213  0.2112
  663MOL0     C89416  10.456   7.334  11.656  0.8762  0.1699 -0.5338
  663MOL0     O89417  10.285   7.677  11.729  0.7812 -0.5906 -0.5454
  663MOL0     C89418  10.405   7.868  11.894  1.2716  0.1037 -0.1885
  663MOL0     C89419  10.472   7.981  11.937 -0.4363 -0.2550 -0.7842
  663MOL0     N89420  10.585   8.601  11.839  1.3117 -0.2355  0.5095
  663MOL0     N89421  10.485   8.663  11.786  0.7019 -0.0075 -0.2330
  663MOL0     C89422  10.201   9.396  10.878  1.0042  0.3981 -0.0757
  663MOL0     C89423  10.163   9.530  10.852 -0.1926 -0.6022 -1.0252
  663MOL0     C89424   9.933   9.943  10.914 -0.0726 -0.6938 -0.5767
  663MOL0     C89425  10.024  10.008  10.829  0.5178 -0.5942 -0.1595
  663MOL0     C89426   9.981  10.118  10.765  0.4989  0.4228  0.3668
  663MOL0     C89427   9.856  10.179  10.787  0.0017 -0.0534  0.0344
  663MOL0     O89428   9.796  10.273  10.713 -0.3318 -0.0175 -0.1041
  663MOL0     C89429   9.859  10.316  10.592  0.2323 -0.3831  0.1646
  663MOL0     C89430   9.757  10.409  10.511 -0.2240 -0.2293  0.3850
  663MOL0     C89431   9.609  10.399  10.554  0.1522 -0.2906  0.5675
  663MOL0     C89432   9.527  10.479  10.447  0.1558  0.6080 -1.1589
  663MOL0     C89433   9.544  10.622  10.466 -0.2501  0.8113 -0.3764
  663MOL0     C89434   9.550  10.740  10.479  0.3801 -0.8060 -1.0833
  663MOL0     C89435   9.766  10.113  10.874 -0.0627 -0.9379  0.1225
  663MOL0     C89436   9.810  10.003  10.948 -0.0100  0.2593 -1.0771
  663MOL0     C89437   9.718   9.949  11.048  0.1297  0.2729  0.0972
  663MOL0     H89438  10.059   9.611  11.169 -0.4441 -0.2790  0.0690
  663MOL0     H89439  10.105   9.374  11.199  4.4942 -2.7284 -1.0210
  663MOL0     H89440  10.212   9.116  10.862  0.3923 -0.4536 -0.0802
  663MOL0     H89441  10.360   9.182  10.929 -0.0722  0.0892 -0.7763
  663MOL0     H89442  10.387   9.022  11.093 -1.4339 -0.7146 -0.0518
  663MOL0     H89443  10.347   8.921  10.951  1.6312 -3.4604  2.9315
  663MOL0     H89444  10.094   8.950  11.069  0.3701  4.7668  1.2241
  663MOL0     H89445  10.185   8.980  11.205 -4.7484  1.0026 -0.4677
  663MOL0     H89446  10.105   8.747  11.166 -2.0373  1.0875 -4.6233
  663MOL0     H89447  10.236   8.727  11.055 -1.0296  2.1275 -0.1343
  663MOL0     H89448  10.396   8.782  11.248  0.3257 -0.1806  2.4371
  663MOL0     H89449  10.268   8.836  11.348  1.5569 -0.9810  1.1433
  663MOL0     H89450  10.171   8.631  11.371 -0.0881  0.4060  1.5212
  663MOL0     H89451  10.287   8.554  11.248 -1.7722 -2.1777  1.8932
  663MOL0     H89452  10.454   8.552  11.389 -0.8509 -1.2802 -2.8017
  663MOL0     H89453  10.311   8.498  11.489 -2.5834  1.7906  0.8776
  663MOL0     H89454  10.443   8.770  11.503  0.9361 -0.8043  0.2194
  663MOL0     H89455  10.296   8.712  11.588 -1.1854 -1.1773 -1.3057
  663MOL0     H89456  10.597   8.476  11.532  0.0732  4.3804 -3.3785
  663MOL0     H89457  10.718   8.314  11.742  1.5643 -0.4755 -1.5587
  663MOL0     H89458  10.847   8.426  11.717  0.9787 -2.4230  2.0986
  663MOL0     H89459  10.821   8.491  11.971  0.3187  0.3120 -0.7409
  663MOL0     H89460  10.676   8.399  11.970  0.3312  2.5343  1.1861
  663MOL0     H89461  10.880   8.276  12.067  3.2662 -0.8310  0.5345
  663MOL0     H89462  10.964   8.284  11.921 -0.1007  0.3307 -0.0401
  663MOL0     H89463  10.869   8.066  11.971  1.1368 -1.3731 -2.1492
  663MOL0     H89464  10.818   8.138  11.821  2.5947 -1.2758  1.5916
  663MOL0     H89465  10.791   7.894  11.845 -0.1331 -3.7464  0.4022
  663MOL0     H89466  10.683   7.700  11.781  2.3338  1.4211 -0.4547
  663MOL0     H89467  10.325   7.595  11.497  0.4472 -0.2077  0.3576
  663MOL0     H89468  10.196   7.404  11.382  0.2318 -1.9787 -1.2171
  663MOL0     H89469  10.079   7.052  11.368  2.6270 -1.6732  0.2825
  663MOL0     H89470  10.050   7.204  11.356 -0.3152 -1.7857 -1.2161
  663MOL0     H89471  10.148   7.200  11.128  0.4722  3.0469  1.1656
  663MOL0     H89472  10.303   7.189  11.212 -0.1729  0.5665  2.3493
  663MOL0     H89473  10.285   6.951  11.235 -2.0998 -1.8267  0.6675
  663MOL0     H89474  10.130   6.950  11.159 -0.2821  1.2152  0.2362
  663MOL0     H89475  10.403   7.061  11.035  0.7016 -0.6646  0.8402
  663MOL0     H89476  10.249   7.062  10.952  4.7699 -0.1567 -4.4918
  663MOL0     H89477  10.261   6.807  10.995  0.8807 -2.7119 -1.9637
  663MOL0     H89478  10.416   6.822  11.068 -1.0124  1.0038  0.8344
  663MOL0     H89479  10.500   6.911  10.845  1.4562 -0.4873 -0.7728
  663MOL0     H89480  10.450   6.739  10.838 -0.7289 -0.1330 -3.6355
  663MOL0     H89481  10.285   6.985  10.752 -0.0687  0.0008 -1.5929
  663MOL0     H89482  10.227   6.822  10.749 -1.3270  1.8178 -0.1106
  663MOL0     H89483  10.306   6.902  10.533  1.5106  0.0800 -0.8305
  663MOL0     H89484  10.459   6.964  10.597  1.3744 -1.3029 -1.6001
  663MOL0     H89485  10.414   7.130  11.612 -0.1505  0.0604 -0.3607
  663MOL0     H89486  10.540   7.321  11.724  0.8629  3.3086  0.2219
  663MOL0     H89487  10.298   7.862  11.909  1.1416  2.4139  0.1603
  663MOL0     H89488  10.421   8.058  11.993 -0.8340  2.5915 -4.6180
  663MOL0     H89489  10.249   9.329  10.807  0.5983 -3.0283  2.6133
  663MOL0     H89490  10.178   9.573  10.753 -2.0576  0.8328 -0.7233
  663MOL0     H89491  10.127   9.977  10.811  0.9931  2.0505 -2.8065
  663MOL0     H89492  10.044  10.169  10.692  1.5162  0.9580  1.5756
  663MOL0     H89493   9.879  10.241  10.515 -0.8114  1.0055 -1.5185
  663MOL0     H89494   9.954  10.369  10.610  1.1513 -1.3652 -1.5522
  663MOL0     H89495   9.770  10.381  10.406  1.6744  1.3966  0.1438
  663MOL0     H89496   9.793  10.511  10.526 -0.4850 -0.3861  2.3937
  663MOL0     H89497   9.592  10.446  10.651 -1.7482  0.2870 -0.0022
  663MOL0     H89498   9.568  10.298  10.560 -1.5168  0.3632  0.8016
  663MOL0     H89499   9.564  10.438  10.352 -1.2885 -3.9072 -0.0219
  663MOL0     H89500   9.425  10.443  10.461 -0.0229  1.7441  0.7214
  663MOL0     H89501   9.546  10.846  10.492  1.1795 -0.8902 -0.0058
  663MOL0     H89502   9.665  10.152  10.885  0.0968 -0.1935 -0.9544
  663MOL0     H89503   9.612   9.968  11.030 -1.1043 -4.5931  0.6560
  663MOL0     H89504   9.726   9.841  11.032  1.4312  0.5249 -1.1739
  663MOL0     H89505   9.759   9.977  11.145  1.8554 -2.9830  0.4518
  664MOL0     O89506  10.747   5.306   3.176 -0.2765 -0.2978  0.9053
  664MOL0     C89507  10.734   5.241   3.276  0.3107 -0.6111  0.6900
  664MOL0     O89508  10.697   5.291   3.400  0.2633  0.6026  0.3582
  664MOL0     C89509  10.617   5.395   3.431 -0.5164 -0.0796  0.1031
  664MOL0     C89510  10.619   5.447   3.556 -0.6085 -0.4928 -0.0322
  664MOL0     C89511  10.533   5.554   3.592  0.2155  0.3619  0.4274
  664MOL0     C89512  10.443   5.600   3.493  0.1347 -0.9681 -0.4151
  664MOL0     O89513  10.357   5.707   3.524  0.0631 -0.3493  0.1638
  664MOL0     C89514  10.250   5.687   3.610 -0.0431 -0.2810 -0.5091
  664MOL0     C89515  10.115   5.746   3.569  0.5320 -0.0430 -0.4995
  664MOL0     C89516  10.016   5.737   3.688  0.3255  0.6910  0.0222
  664MOL0     C89517   9.978   5.590   3.741 -0.2377 -0.5051 -0.5093
  664MOL0     C89518   9.899   5.589   3.878 -0.5558  0.0755  0.6103
  664MOL0     C89519   9.866   5.447   3.922  0.6748  0.2494 -0.0688
  664MOL0     C89520   9.794   5.447   4.058 -0.0016  0.7252 -1.0883
  664MOL0     C89521   9.768   5.305   4.123 -0.5475 -0.3742  0.0197
  664MOL0     N89522   9.898   5.253   4.180  0.2738  0.2943 -0.1310
  664MOL0     C89523   9.981   5.173   4.109  0.4430 -0.0919  0.7884
  664MOL0     C89524  10.074   5.132   4.194  0.2292  0.1391  0.6619
  664MOL0     C89525  10.183   5.044   4.156 -0.6172  0.0123  0.6966
  664MOL0     C89526  10.143   4.900   4.116 -0.3336 -0.2892 -0.6551
  664MOL0     C89527  10.100   4.822   4.242 -0.5855  1.3368 -0.3127
  664MOL0     C89528  10.209   4.806   4.351 -0.3721 -0.2546 -0.1376
  664MOL0     O89529  10.329   4.747   4.295  0.1864  0.1033 -0.3610
  664MOL0     C89530  10.341   4.606   4.305 -0.5983 -0.8667 -0.4204
  664MOL0     C89531  10.453   4.547   4.267  0.0279 -0.1126  0.1422
  664MOL0     C89532  10.466   4.414   4.264  0.4713  0.3649  0.8090
  664MOL0     C89533  10.376   4.325   4.304 -0.6082  0.1088  0.1332
  664MOL0     C89534  10.404   4.182   4.293 -1.0688  1.0411  1.3368
  664MOL0     O89535  10.530   4.135   4.255  0.3120 -0.8129 -0.1169
  664MOL0     C89536  10.542   4.004   4.211  0.2585  0.1940  0.0918
  664MOL0     C89537  10.447   3.948   4.130 -0.5273 -0.0973  0.9836
  664MOL0     C89538  10.467   3.826   4.072  0.0487  0.3036 -0.0255
  664MOL0     C89539  10.591   3.759   4.094 -0.5649  0.7565 -0.1125
  664MOL0     O89540  10.613   3.639   4.040 -0.4155 -0.3477 -0.0146
  664MOL0     C89541  10.632   3.636   3.900 -0.2432 -0.3378 -0.3407
  664MOL0     C89542  10.642   3.487   3.852  1.1592 -1.3311  0.0145
  664MOL0     C89543  10.545   3.390   3.920  1.0329 -0.4274 -0.7955
  664MOL0     C89544  10.574   3.244   3.889 -0.7442 -0.0833  0.0151
  664MOL0     C89545  10.680   3.200   3.986 -0.2233 -0.1403 -0.9860
  664MOL0     C89546  10.696   3.041   4.003  0.4014  0.0825 -1.1604
  664MOL0     C89547  10.771   3.004   4.130  1.4297 -0.6478  0.2085
  664MOL0     C89548  10.734   2.858   4.180 -0.1112  0.2023 -1.6300
  664MOL0    Cl89549  10.553   2.834   4.204  0.1964  0.2074  0.0663
  664MOL0     C89550  10.698   3.813   4.178  0.4236 -0.0813  0.4775
  664MOL0     C89551  10.671   3.940   4.230  0.2781 -0.1206  0.6104
  664MOL0     O89552  10.310   4.106   4.319  0.5188  0.7325 -0.8534
  664MOL0     C89553  10.246   4.383   4.333 -0.6147  0.4818  0.2698
  664MOL0     C89554  10.236   4.525   4.350  0.0179  1.0909 -0.2771
  664MOL0     N89555  10.040   5.180   4.322 -0.4524 -0.3708  0.1203
  664MOL0     N89556   9.941   5.258   4.313  0.2221  0.5940 -0.0819
  664MOL0     C89557  10.439   5.549   3.370 -0.2973 -0.0574 -0.7446
  664MOL0     C89558  10.540   5.464   3.330  0.1268  0.0819 -0.7154
  664MOL0     C89559  10.813   5.109   3.285  0.0675 -0.5886  0.5185
  664MOL0     C89560  10.882   5.080   3.401  0.9870  0.2209  0.2755
  664MOL0     C89561  10.955   4.975   3.423 -0.1202 -0.5701  0.1496
  664MOL0     C89562  10.957   4.868   3.328 -0.9751 -0.3142  0.2343
  664MOL0     O89563  11.022   4.746   3.344 -0.6127 -0.0154  0.7374
  664MOL0     C89564  11.085   4.721   3.470 -0.0961  0.1872 -0.2501
  664MOL0     C89565  11.125   4.573   3.476  0.0835 -0.2963  0.4407
  664MOL0     C89566  11.001   4.487   3.442  0.8349  0.8961  0.5502
  664MOL0     C89567  11.020   4.340   3.477 -0.3298 -0.6914 -0.7705
  664MOL0     C89568  10.935   4.232   3.417  1.1498  0.2681 -0.1869
  664MOL0     C89569  10.870   4.152   3.353 -0.6003 -0.4157 -0.6076
  664MOL0     C89570  10.880   4.891   3.211  0.0155  1.4755 -0.1802
  664MOL0     C89571  10.807   5.008   3.190 -0.1615 -0.8015  0.1371
  664MOL0     C89572  10.756   5.028   3.051 -0.0382 -0.2400 -0.4547
  664MOL0     H89573  10.686   5.400   3.628 -0.2124 -1.5630 -1.0474
  664MOL0     H89574  10.523   5.606   3.687 -1.3554  2.9834 -1.0636
  664MOL0     H89575  10.226   5.580   3.612 -1.5751  0.0209  1.6026
  664MOL0     H89576  10.277   5.731   3.707 -0.0054  2.1221 -1.5593
  664MOL0     H89577  10.088   5.685   3.482  1.2229 -3.0276  1.2415
  664MOL0     H89578  10.123   5.847   3.528  0.2197  0.5434  0.8318
  664MOL0     H89579   9.922   5.776   3.648  1.0147  2.6657  0.1892
  664MOL0     H89580  10.049   5.805   3.768  1.1001 -2.9986  3.1500
  664MOL0     H89581   9.925   5.549   3.655  1.9019 -2.5710 -0.9714
  664MOL0     H89582  10.068   5.527   3.746 -0.0281 -0.1947 -0.3825
  664MOL0     H89583   9.947   5.636   3.965 -0.2126  3.4717 -1.2562
  664MOL0     H89584   9.808   5.647   3.863  1.8923  3.6596 -2.1651
  664MOL0     H89585   9.800   5.393   3.854  2.3667 -3.7173  1.1099
  664MOL0     H89586   9.957   5.387   3.929  1.0288  0.3959 -2.4887
  664MOL0     H89587   9.696   5.495   4.050 -0.9971 -0.5565  1.9486
  664MOL0     H89588   9.859   5.503   4.126  0.8114 -3.0279  1.5340
  664MOL0     H89589   9.694   5.311   4.204 -2.4691  1.3905 -1.7391
  664MOL0     H89590   9.730   5.239   4.045 -1.5730 -0.3262  0.4686
  664MOL0     H89591   9.973   5.140   4.006 -0.4601 -1.7323  1.3306
  664MOL0     H89592  10.241   5.085   4.072 -0.4464  1.7074  1.5988
  664MOL0     H89593  10.253   5.046   4.240 -0.5762 -0.9096  0.6973
  664MOL0     H89594  10.070   4.905   4.034 -0.4067 -0.7427 -0.6221
  664MOL0     H89595  10.228   4.851   4.067 -0.0236  0.1176 -0.5188
  664MOL0     H89596  10.060   4.722   4.225  1.2794  0.7795 -1.6993
  664MOL0     H89597  10.018   4.889   4.272 -0.2018  1.4052  0.6335
  664MOL0     H89598  10.170   4.748   4.435  1.6491 -1.0490  0.3283
  664MOL0     H89599  10.241   4.901   4.393  2.2837 -0.8575 -0.6062
  664MOL0     H89600  10.534   4.610   4.231 -1.3188  0.2573 -2.5237
  664MOL0     H89601  10.566   4.391   4.230  0.9553  2.0231  1.0424
  664MOL0     H89602  10.356   4.004   4.111  1.0600  2.5445  0.7330
  664MOL0     H89603  10.394   3.785   4.002  0.0669  0.4156 -0.1106
  664MOL0     H89604  10.549   3.681   3.845  0.1575 -0.5354 -1.1314
  664MOL0     H89605  10.725   3.689   3.877 -0.0290 -1.1629 -1.4770
  664MOL0     H89606  10.611   3.491   3.747 -2.8296  4.2493  0.9752
  664MOL0     H89607  10.749   3.465   3.854  1.3186 -0.7919 -1.3297
  664MOL0     H89608  10.533   3.397   4.028 -0.2024  3.0039 -1.0606
  664MOL0     H89609  10.446   3.414   3.880 -0.0985 -1.4916  1.1900
  664MOL0     H89610  10.623   3.225   3.793  1.6974  1.5458  0.8618
  664MOL0     H89611  10.489   3.174   3.888  1.0012 -2.2954 -0.6857
  664MOL0     H89612  10.654   3.230   4.088 -0.5995 -3.3538 -0.0413
  664MOL0     H89613  10.781   3.235   3.962 -0.1184  0.1790 -0.1455
  664MOL0     H89614  10.597   2.994   3.998  0.2316  0.4575 -1.3451
  664MOL0     H89615  10.766   3.009   3.926  3.3889  0.7490  1.0495
  664MOL0     H89616  10.737   3.068   4.212  1.7381 -1.3809  0.9294
  664MOL0     H89617  10.876   3.022   4.107  1.0385  0.8981 -0.4467
  664MOL0     H89618  10.779   2.785   4.112 -0.0371 -3.0571  1.6412
  664MOL0     H89619  10.780   2.846   4.278  1.1370 -2.9040 -2.5006
  664MOL0     H89620  10.788   3.761   4.210 -1.2031 -2.9031  0.8250
  664MOL0     H89621  10.741   3.986   4.298 -0.6701  1.2815  0.6700
  664MOL0     H89622  10.160   4.318   4.346 -0.3428 -0.9028 -3.4996
  664MOL0     H89623  10.140   4.571   4.368 -0.9922 -0.2713 -1.8955
  664MOL0     H89624  10.363   5.582   3.300  1.2074  1.2956 -1.8005
  664MOL0     H89625  10.543   5.446   3.223  0.0245 -2.5631 -0.3387
  664MOL0     H89626  10.890   5.169   3.463 -3.4626  0.5943  0.6223
  664MOL0     H89627  11.025   4.963   3.505  0.3973  0.7687 -0.0668
  664MOL0     H89628  11.028   4.763   3.554 -1.3546  0.4031 -1.1884
  664MOL0     H89629  11.181   4.774   3.478 -0.8176  1.5541 -0.2514
  664MOL0     H89630  11.148   4.554   3.581  1.1186  1.4175  0.5635
  664MOL0     H89631  11.202   4.551   3.401 -1.7684 -2.2834 -1.0202
  664MOL0     H89632  10.969   4.491   3.337 -0.3559  1.9562  0.9363
  664MOL0     H89633  10.909   4.511   3.495 -1.8009 -1.0481 -2.7029
  664MOL0     H89634  11.116   4.320   3.428  2.4180  3.2021  2.2789
  664MOL0     H89635  11.038   4.323   3.584  3.7727 -2.1545 -1.5059
  664MOL0     H89636  10.795   4.088   3.311 -2.3691  2.8085 -2.8909
  664MOL0     H89637  10.867   4.820   3.130 -0.7402 -0.2524  1.3902
  664MOL0     H89638  10.847   5.062   3.000  1.2233  0.5075  2.1624
  664MOL0     H89639  10.721   4.931   3.013 -0.3146  0.0782 -1.0225
  664MOL0     H89640  10.678   5.103   3.032  1.0071  1.6847  2.2374
  665MOL0     O89641   6.198   0.338   3.268 -0.0878 -0.3300 -0.4365
  665MOL0     C89642   6.138   0.401   3.357 -0.6117 -0.5638  0.1542
  665MOL0     O89643   6.030   0.483   3.336  0.2924 -1.2738  0.8591
  665MOL0     C89644   5.994   0.505   3.202  0.5780 -0.9407 -0.8119
  665MOL0     C89645   5.880   0.444   3.142 -0.2859  0.4747  0.0603
  665MOL0     C89646   5.840   0.478   3.017  0.5458  0.3188  0.7868
  665MOL0     C89647   5.921   0.564   2.932 -0.4628 -0.5201 -0.8495
  665MOL0     O89648   5.895   0.588   2.798 -0.6891 -0.2058  0.0050
  665MOL0     C89649   5.887   0.476   2.702  0.2573  0.4038 -0.1185
  665MOL0     C89650   5.974   0.506   2.581 -0.5496  0.5688  0.3259
  665MOL0     C89651   5.987   0.396   2.467 -0.1119  0.2310  0.2880
  665MOL0     C89652   6.091   0.290   2.513 -0.1669 -0.6865  0.2147
  665MOL0     C89653   6.092   0.146   2.445  0.7936  0.6146 -0.8335
  665MOL0     C89654   5.962   0.084   2.495 -0.3777  0.1558 -0.1333
  665MOL0     C89655   6.000  -0.041   2.563  0.2010 -0.0191  0.2508
  665MOL0     C89656   6.051  -0.145   2.456 -0.0322 -0.3125  0.1095
  665MOL0     N89657   6.139  -0.256   2.496 -0.1517  0.4809 -0.3115
  665MOL0     C89658   6.117  -0.311   2.621  0.6836  0.2545 -0.2058
  665MOL0     C89659   6.213  -0.403   2.639  0.2105  0.3132  0.7992
  665MOL0     C89660   6.231  -0.484   2.762 -0.0229 -0.9259 -0.3382
  665MOL0     C89661   6.121  -0.585   2.793  0.0325  0.2482 -0.0122
  665MOL0     C89662   6.116  -0.643   2.940  0.0875 -1.1903  0.9628
  665MOL0     C89663   6.020  -0.561   3.031  0.0183  1.2014 -0.4553
  665MOL0     O89664   5.989  -0.642   3.147 -0.7226 -0.4155  0.6581
  665MOL0     C89665   5.873  -0.629   3.221  0.0969 -0.8423  0.1262
  665MOL0     C89666   5.773  -0.533   3.192 -0.0331  0.8317 -0.0196
  665MOL0     C89667   5.665  -0.516   3.281  0.1425 -0.0873  0.9980
  665MOL0     C89668   5.650  -0.593   3.395  0.2143  0.2078 -0.5133
  665MOL0     C89669   5.523  -0.569   3.478  0.6002 -0.2196  0.3417
  665MOL0     O89670   5.485  -0.662   3.563 -0.2973  0.0719 -0.2693
  665MOL0     C89671   5.408  -0.635   3.676  0.6007  0.3246  0.7923
  665MOL0     C89672   5.421  -0.522   3.754  0.2348 -1.2806 -0.2920
  665MOL0     C89673   5.328  -0.506   3.860 -0.1730 -0.4300  0.5107
  665MOL0     C89674   5.221  -0.593   3.884  0.2311  0.1275 -0.3222
  665MOL0     O89675   5.126  -0.575   3.990  0.5388 -0.5071  0.0832
  665MOL0     C89676   5.157  -0.485   4.106  0.3144  0.4959  0.6291
  665MOL0     C89677   5.273  -0.540   4.187  0.3700  0.5120 -0.8451
  665MOL0     C89678   5.218  -0.661   4.275 -0.9398 -0.9162  0.9580
  665MOL0     C89679   5.306  -0.707   4.395  0.1821 -0.0237 -0.3306
  665MOL0     C89680   5.452  -0.719   4.360 -0.1808  0.6100  0.4069
  665MOL0     C89681   5.537  -0.802   4.462  0.7884  0.4376  0.4215
  665MOL0     C89682   5.511  -0.775   4.611 -1.4693 -0.4672 -0.6042
  665MOL0     C89683   5.550  -0.895   4.700  0.3346 -0.2954  0.4491
  665MOL0    Cl89684   5.511  -0.862   4.869 -0.4597 -0.3474  0.1101
  665MOL0     C89685   5.221  -0.709   3.810  0.1599  0.0211 -0.2884
  665MOL0     C89686   5.307  -0.724   3.702  0.5637 -0.7505 -0.3342
  665MOL0     O89687   5.458  -0.465   3.459 -0.9606  0.1442  0.3548
  665MOL0     C89688   5.748  -0.696   3.423  0.1370 -0.3933  0.4875
  665MOL0     C89689   5.851  -0.716   3.324  0.0821 -0.5917 -0.0615
  665MOL0     N89690   6.294  -0.396   2.532 -0.7419  0.1116  0.0528
  665MOL0     N89691   6.249  -0.312   2.449  0.4060 -1.1955  1.4725
  665MOL0     C89692   6.030   0.619   2.999  0.1340  0.1822 -0.3565
  665MOL0     C89693   6.069   0.594   3.133  0.0874 -0.0693  1.1221
  665MOL0     C89694   6.209   0.421   3.487  0.7452  1.0455 -0.3835
  665MOL0     C89695   6.292   0.315   3.536 -0.5988  0.2242 -0.6930
  665MOL0     C89696   6.364   0.323   3.657  0.2988 -0.3825 -0.1189
  665MOL0     C89697   6.350   0.433   3.741  0.3613  0.6320 -0.1066
  665MOL0     O89698   6.426   0.449   3.852 -0.1682  0.0856 -0.5398
  665MOL0     C89699   6.567   0.459   3.834 -0.3116  0.4576 -0.2415
  665MOL0     C89700   6.629   0.371   3.940 -0.3421 -0.4799 -0.2178
  665MOL0     C89701   6.785   0.373   3.936  1.0484 -0.6552 -1.0692
  665MOL0     C89702   6.886   0.304   4.031 -0.8072  0.7865  0.0594
  665MOL0     C89703   6.865   0.160   4.045 -0.7126 -1.2794 -0.4604
  665MOL0     C89704   6.859   0.037   4.074 -0.7143  0.2851 -0.0656
  665MOL0     C89705   6.259   0.534   3.701  0.6297 -0.0518 -0.0767
  665MOL0     C89706   6.197   0.535   3.571  0.0365  0.3589 -0.9556
  665MOL0     C89707   6.108   0.654   3.537 -0.1585 -0.1735  0.0165
  665MOL0     H89708   5.823   0.361   3.185  0.3146 -0.6320 -1.2110
  665MOL0     H89709   5.763   0.428   2.958  4.0913 -1.7146 -2.5745
  665MOL0     H89710   5.919   0.379   2.742  2.8134  0.7319 -1.1958
  665MOL0     H89711   5.786   0.470   2.660  0.5261 -0.0021 -0.7225
  665MOL0     H89712   6.077   0.529   2.611 -0.5666  1.6267 -0.3932
  665MOL0     H89713   5.933   0.590   2.525  0.2686  0.5422 -0.3318
  665MOL0     H89714   6.029   0.440   2.376 -0.5701 -2.6071 -1.4257
  665MOL0     H89715   5.896   0.346   2.433  1.6323 -1.5682 -2.0691
  665MOL0     H89716   6.185   0.328   2.471 -0.9238 -2.5704 -3.5878
  665MOL0     H89717   6.101   0.294   2.622 -1.6125  1.1556  0.3200
  665MOL0     H89718   6.075   0.170   2.340 -1.6957  5.5818  0.3834
  665MOL0     H89719   6.184   0.094   2.474  0.8732  2.9642  4.0711
  665MOL0     H89720   5.921   0.144   2.577  0.9164 -1.3700  1.7441
  665MOL0     H89721   5.883   0.075   2.420 -0.8365  2.7681 -0.0421
  665MOL0     H89722   5.908  -0.083   2.604 -0.4930  0.9436 -0.2829
  665MOL0     H89723   6.080  -0.013   2.632 -0.8513 -0.6182  1.7526
  665MOL0     H89724   5.962  -0.199   2.423 -2.0680  2.7218  0.2066
  665MOL0     H89725   6.097  -0.092   2.372 -2.2927  3.1326  0.8237
  665MOL0     H89726   6.046  -0.280   2.698  0.6770  1.3757 -0.6455
  665MOL0     H89727   6.321  -0.546   2.760 -0.6555 -1.9235  0.8703
  665MOL0     H89728   6.240  -0.425   2.854 -2.6150 -1.2129  0.1656
  665MOL0     H89729   6.028  -0.539   2.757 -0.3426 -0.5835 -0.1290
  665MOL0     H89730   6.140  -0.670   2.728  0.0377 -1.5283  2.1737
  665MOL0     H89731   6.219  -0.656   2.975  0.0322 -0.1579  1.5755
  665MOL0     H89732   6.077  -0.744   2.928  2.8070 -2.0211 -2.2130
  665MOL0     H89733   5.929  -0.533   2.977  0.5022  1.5082 -1.1298
  665MOL0     H89734   6.069  -0.468   3.061  0.3734  0.1976  2.4304
  665MOL0     H89735   5.775  -0.459   3.112 -1.0300  0.1211 -0.7191
  665MOL0     H89736   5.591  -0.443   3.253 -0.5523  0.6642  4.3653
  665MOL0     H89737   5.494  -0.444   3.731 -0.2726 -1.3491 -2.2736
  665MOL0     H89738   5.325  -0.416   3.921 -1.2062  0.4089 -0.7229
  665MOL0     H89739   5.178  -0.386   4.064 -1.6023 -0.3368 -2.6430
  665MOL0     H89740   5.072  -0.450   4.165 -0.4730  1.4158 -0.9836
  665MOL0     H89741   5.358  -0.563   4.123  2.4655 -0.7656  2.1825
  665MOL0     H89742   5.308  -0.469   4.263  0.2226 -1.4463  1.1720
  665MOL0     H89743   5.119  -0.624   4.302 -1.6927  0.2780 -2.8480
  665MOL0     H89744   5.208  -0.747   4.209  3.1199 -1.5999  0.9640
  665MOL0     H89745   5.271  -0.795   4.450  2.2539 -0.9224 -0.3959
  665MOL0     H89746   5.299  -0.624   4.467 -0.2418  1.2870 -1.8220
  665MOL0     H89747   5.494  -0.618   4.359 -0.0491  0.5658 -1.3200
  665MOL0     H89748   5.461  -0.756   4.258  2.4820 -0.2480  0.8647
  665MOL0     H89749   5.506  -0.905   4.445 -1.1883  0.4026  3.5847
  665MOL0     H89750   5.644  -0.798   4.439  1.0219  1.8320  1.5847
  665MOL0     H89751   5.404  -0.754   4.622 -0.9067  3.4350 -0.9989
  665MOL0     H89752   5.567  -0.695   4.662 -2.1957  0.1336 -0.7271
  665MOL0     H89753   5.502  -0.988   4.670 -0.1082  0.2232 -0.4909
  665MOL0     H89754   5.655  -0.917   4.676  0.6403 -0.9747  2.2360
  665MOL0     H89755   5.145  -0.786   3.821 -2.5451  2.4818 -0.1845
  665MOL0     H89756   5.290  -0.804   3.631  0.1159 -0.0981 -0.9705
  665MOL0     H89757   5.733  -0.760   3.509  0.3476 -0.1095  0.7395
  665MOL0     H89758   5.928  -0.787   3.352 -0.6090 -1.3095  0.0396
  665MOL0     H89759   6.089   0.685   2.935 -0.6540  0.5312 -0.7322
  665MOL0     H89760   6.150   0.650   3.178  1.8375 -1.0762 -0.6436
  665MOL0     H89761   6.331   0.243   3.466  0.6095  1.2535 -1.1233
  665MOL0     H89762   6.443   0.253   3.678  0.0608 -0.0590  2.1366
  665MOL0     H89763   6.599   0.562   3.854 -1.9328  1.1120 -0.9164
  665MOL0     H89764   6.599   0.446   3.731 -1.3741 -1.2261 -0.3868
  665MOL0     H89765   6.586   0.271   3.929 -1.0015 -0.2445  0.1447
  665MOL0     H89766   6.589   0.400   4.038 -0.8280  2.4052 -1.1701
  665MOL0     H89767   6.810   0.480   3.942 -2.2868  0.1812  0.7069
  665MOL0     H89768   6.802   0.344   3.832  2.4585  1.0226 -1.3536
  665MOL0     H89769   6.986   0.298   3.988 -1.6379 -0.1439 -1.9047
  665MOL0     H89770   6.889   0.366   4.121  0.4157  2.4303 -1.0546
  665MOL0     H89771   6.846  -0.059   4.119  1.7284 -0.0689  0.0288
  665MOL0     H89772   6.236   0.617   3.767  0.9929  2.3682 -2.7622
  665MOL0     H89773   6.002   0.624   3.540 -0.6203  1.4615  1.0334
  665MOL0     H89774   6.121   0.741   3.601 -1.9028  4.1492 -4.7507
  665MOL0     H89775   6.121   0.686   3.433  1.9769  0.3830  0.4039
  666MOL0     O89776  10.817   0.725   3.009  0.1984 -0.9732 -0.0354
  666MOL0     C89777  10.896   0.673   2.931  0.0354  0.3855  0.7205
  666MOL0     O89778  10.912   0.717   2.804  0.2116 -0.2192  0.4437
  666MOL0     C89779  10.825   0.820   2.771 -0.4086  0.5898  0.0453
  666MOL0     C89780  10.860   0.957   2.785 -0.4140  0.1444 -0.4206
  666MOL0     C89781  10.767   1.049   2.744  0.6941  0.8099 -0.4751
  666MOL0     C89782  10.640   1.009   2.701 -1.2075  0.8980  0.3901
  666MOL0     O89783  10.549   1.096   2.658  1.1763  0.3715 -0.7334
  666MOL0     C89784  10.487   1.179   2.762 -0.0787 -0.9054 -0.2657
  666MOL0     C89785  10.344   1.138   2.796 -0.0022  0.3457 -1.1755
  666MOL0     C89786  10.289   1.236   2.897  1.4625  0.5183  1.0109
  666MOL0     C89787  10.140   1.203   2.918  0.2544  0.3049  0.7128
  666MOL0     C89788  10.128   1.098   3.025 -0.4577 -0.8459  0.0750
  666MOL0     C89789   9.991   1.040   3.048 -0.7413  0.7168  0.3242
  666MOL0     C89790   9.905   1.138   3.114 -0.2035 -0.0003  0.2831
  666MOL0     C89791   9.760   1.084   3.118  1.1343  0.1104 -0.7933
  666MOL0     N89792   9.671   1.180   3.179  0.5254 -0.6130  0.9710
  666MOL0     C89793   9.612   1.165   3.296  1.0029 -0.0955 -0.5271
  666MOL0     C89794   9.540   1.281   3.309  0.4499  0.3508 -0.1614
  666MOL0     C89795   9.459   1.317   3.433  0.4532  1.2901  0.7391
  666MOL0     C89796   9.317   1.285   3.398  0.0908 -0.5606 -0.4992
  666MOL0     C89797   9.288   1.150   3.337  0.8435 -1.2625 -0.4703
  666MOL0     C89798   9.135   1.108   3.347  0.4053  0.3502 -0.3561
  666MOL0     O89799   9.040   1.165   3.256  0.0040 -0.1248  0.1620
  666MOL0     C89800   8.982   1.288   3.277 -0.6892  0.1106  0.4602
  666MOL0     C89801   8.953   1.340   3.397  0.5756 -0.4699 -0.8385
  666MOL0     C89802   8.894   1.457   3.412  1.0142  0.0459  0.3085
  666MOL0     C89803   8.844   1.529   3.300 -0.5998  0.4199 -0.6305
  666MOL0     C89804   8.783   1.663   3.314  0.4882  0.4818 -1.0107
  666MOL0     O89805   8.686   1.693   3.214 -0.0014  0.1415  0.8631
  666MOL0     C89806   8.637   1.818   3.209  0.0049 -1.5618  0.9290
  666MOL0     C89807   8.713   1.922   3.146  0.0383  0.6439 -0.1972
  666MOL0     C89808   8.647   2.052   3.133 -0.1969 -0.7242  0.1816
  666MOL0     C89809   8.510   2.066   3.171  0.4942  0.2736 -0.3044
  666MOL0     O89810   8.453   2.181   3.155  0.6959  0.7829  0.0399
  666MOL0     C89811   8.310   2.201   3.184  1.3423 -0.5379  0.2580
  666MOL0     C89812   8.269   2.336   3.139 -1.4754 -0.8733 -0.1531
  666MOL0     C89813   8.279   2.329   2.984  1.3101  0.3169  0.5393
  666MOL0     C89814   8.195   2.435   2.921 -0.0977 -0.7402 -0.9275
  666MOL0     C89815   8.255   2.581   2.928 -0.3727  0.0120 -0.1513
  666MOL0     C89816   8.175   2.682   2.834 -0.7735 -0.3604 -0.3665
  666MOL0     C89817   8.187   2.830   2.862  0.5256 -0.5366 -0.4223
  666MOL0     C89818   8.116   2.877   2.994 -0.3394 -0.2652  0.7848
  666MOL0    Cl89819   7.953   2.924   2.962  0.2958 -0.2703  0.2238
  666MOL0     C89820   8.446   1.956   3.226 -0.4018 -0.0836 -0.6136
  666MOL0     C89821   8.508   1.836   3.242  1.3493  0.6983 -1.4861
  666MOL0     O89822   8.809   1.732   3.414  0.4761 -1.3438 -0.3394
  666MOL0     C89823   8.868   1.478   3.174  0.1981 -0.3535  0.7976
  666MOL0     C89824   8.940   1.360   3.165  0.7174  0.4650  0.2302
  666MOL0     N89825   9.537   1.353   3.185  0.0701  0.6768  0.7813
  666MOL0     N89826   9.619   1.290   3.115 -0.0797 -0.6081 -0.5910
  666MOL0     C89827  10.617   0.875   2.681  0.1212  0.0527 -0.0539
  666MOL0     C89828  10.712   0.783   2.717 -0.0995  0.2309  0.4443
  666MOL0     C89829  11.003   0.584   2.971  0.0863  0.0307  0.0374
  666MOL0     C89830  11.041   0.596   3.105  0.2886  0.2484  0.6689
  666MOL0     C89831  11.132   0.504   3.152 -0.0482  0.5425 -0.3845
  666MOL0     C89832  11.190   0.400   3.071  0.2502 -0.3774  0.3458
  666MOL0     O89833  11.266   0.312   3.126 -0.1085  0.2525  0.4941
  666MOL0     C89834  11.395   0.357   3.145 -0.6060  0.0083  0.2647
  666MOL0     C89835  11.494   0.297   3.044  0.0874 -0.6397 -0.6011
  666MOL0     C89836  11.494   0.146   3.058 -0.7705  0.1662  1.0800
  666MOL0     C89837  11.557   0.092   2.919 -1.0408  0.1688 -0.6318
  666MOL0     C89838  11.572  -0.056   2.916 -0.7388 -0.2864 -1.3492
  666MOL0     C89839  11.594  -0.173   2.943 -0.3118  0.7395 -0.0366
  666MOL0     C89840  11.158   0.394   2.941 -0.3761  0.0116  0.5410
  666MOL0     C89841  11.058   0.476   2.891  0.7287 -1.0276  0.3472
  666MOL0     C89842  11.034   0.449   2.739 -0.6418  0.2030 -0.3040
  666MOL0     H89843  10.958   0.982   2.824  0.9108 -1.4029 -2.5236
  666MOL0     H89844  10.800   1.152   2.751  3.3942 -0.0791  2.1729
  666MOL0     H89845  10.546   1.164   2.852  0.4883 -0.3138 -0.5328
  666MOL0     H89846  10.476   1.282   2.727  0.9446  0.3927  2.9327
  666MOL0     H89847  10.352   1.043   2.851 -0.9004  0.5502 -0.6752
  666MOL0     H89848  10.279   1.126   2.709 -2.1257  0.3693  0.3496
  666MOL0     H89849  10.282   1.332   2.846 -0.6648 -2.1635 -4.6561
  666MOL0     H89850  10.352   1.233   2.986  2.2973  1.5057  0.4694
  666MOL0     H89851  10.099   1.293   2.966  0.0961  0.1142  0.9363
  666MOL0     H89852  10.090   1.164   2.829  0.7580 -4.5168  2.2633
  666MOL0     H89853  10.194   1.013   3.005  1.4504 -0.0821  2.5922
  666MOL0     H89854  10.168   1.134   3.120 -2.9906  0.0323  0.8943
  666MOL0     H89855   9.947   1.005   2.954 -0.8883 -0.4675  0.8144
  666MOL0     H89856   9.990   0.947   3.106 -1.1888 -0.5372 -1.6175
  666MOL0     H89857   9.892   1.226   3.050 -0.3400  0.2626  0.6638
  666MOL0     H89858   9.946   1.170   3.210  2.1083 -2.6838  0.3060
  666MOL0     H89859   9.726   1.053   3.019  3.6380 -0.1714 -1.6503
  666MOL0     H89860   9.759   1.001   3.190  3.1033  0.2748 -0.5136
  666MOL0     H89861   9.636   1.089   3.370 -3.1413 -0.2096  0.9522
  666MOL0     H89862   9.503   1.257   3.514  1.3608  2.9606  1.5199
  666MOL0     H89863   9.465   1.419   3.472  0.3209  0.4979  3.0311
  666MOL0     H89864   9.259   1.298   3.489  4.8918  2.1493  2.5788
  666MOL0     H89865   9.268   1.357   3.332  0.1577  1.8692  1.9250
  666MOL0     H89866   9.349   1.079   3.394 -1.2306 -2.0021  0.9697
  666MOL0     H89867   9.313   1.144   3.231 -0.6559 -1.1308 -0.8464
  666MOL0     H89868   9.090   1.123   3.446 -2.2086  2.4047 -1.6971
  666MOL0     H89869   9.131   1.002   3.320 -0.9993  0.8694 -2.5042
  666MOL0     H89870   8.971   1.284   3.489 -2.3653 -0.3802 -0.1190
  666MOL0     H89871   8.857   1.500   3.504 -5.3998 -1.6120 -1.0138
  666MOL0     H89872   8.813   1.884   3.127  0.3141  0.8655  0.7674
  666MOL0     H89873   8.703   2.133   3.087  0.0059 -1.3651 -0.7427
  666MOL0     H89874   8.248   2.122   3.139  1.6391 -1.4831  1.4524
  666MOL0     H89875   8.303   2.202   3.293  1.8964  1.8858  0.3247
  666MOL0     H89876   8.163   2.347   3.163 -1.3766 -2.9697  1.4586
  666MOL0     H89877   8.338   2.408   3.185  0.2758 -2.7130  0.2695
  666MOL0     H89878   8.384   2.326   2.952  0.8993 -3.4194 -1.0047
  666MOL0     H89879   8.238   2.236   2.945  2.5265  0.2271 -0.5992
  666MOL0     H89880   8.094   2.436   2.962 -0.2151 -0.2075 -1.2219
  666MOL0     H89881   8.201   2.401   2.818  0.0324  3.0695 -2.3468
  666MOL0     H89882   8.360   2.580   2.901 -1.5232  0.1971 -5.6660
  666MOL0     H89883   8.254   2.607   3.034  0.6010 -3.3947  0.8439
  666MOL0     H89884   8.208   2.670   2.731  0.7557 -0.0668  0.0580
  666MOL0     H89885   8.066   2.671   2.839 -0.7591 -0.8621 -1.1191
  666MOL0     H89886   8.131   2.880   2.783  1.3961  4.6417  1.8577
  666MOL0     H89887   8.292   2.861   2.861 -0.5907  4.0218  0.6512
  666MOL0     H89888   8.122   2.811   3.081  2.3918 -1.3236 -0.0898
  666MOL0     H89889   8.169   2.968   3.022  1.6408 -1.0254 -0.2724
  666MOL0     H89890   8.344   1.958   3.262  0.6493 -1.1729  2.7417
  666MOL0     H89891   8.457   1.745   3.273  1.5208  0.8151 -0.8281
  666MOL0     H89892   8.837   1.530   3.084 -0.0259 -0.8864  0.5662
  666MOL0     H89893   8.948   1.313   3.067 -0.1495  0.3865  0.1958
  666MOL0     H89894  10.530   0.842   2.626 -0.5888 -3.2197  2.7019
  666MOL0     H89895  10.696   0.683   2.680 -1.2667  1.2409 -2.0205
  666MOL0     H89896  11.011   0.677   3.170  1.5944  1.0518  0.3120
  666MOL0     H89897  11.162   0.496   3.256  2.6809 -1.4567 -1.2095
  666MOL0     H89898  11.424   0.321   3.244 -0.0045  0.7826  0.3742
  666MOL0     H89899  11.411   0.464   3.153  1.8354 -0.4698  3.2150
  666MOL0     H89900  11.597   0.333   3.051  0.8244 -2.0748 -2.9998
  666MOL0     H89901  11.468   0.330   2.943  0.4826  1.9808  0.1017
  666MOL0     H89902  11.392   0.106   3.062 -0.9037  0.3124 -0.2040
  666MOL0     H89903  11.554   0.114   3.143  2.5615 -0.4218 -1.2856
  666MOL0     H89904  11.493   0.113   2.832 -0.0844 -1.4720 -1.7854
  666MOL0     H89905  11.655   0.139   2.908  0.0358 -1.9137 -0.4014
  666MOL0     H89906  11.617  -0.275   2.969 -2.6343  0.0397 -0.4718
  666MOL0     H89907  11.227   0.332   2.884 -0.0976  0.5364  0.3028
  666MOL0     H89908  11.078   0.524   2.674 -0.0728  1.0092  0.9741
  666MOL0     H89909  11.075   0.350   2.716 -1.5369 -0.2557  0.0013
  666MOL0     H89910  10.925   0.444   2.729 -0.4559  0.9361 -3.8889
  667MOL0     O89911   3.000   2.762   2.854 -0.2404 -0.0101  0.4452
  667MOL0     C89912   3.069   2.676   2.788 -0.1006 -0.7546 -0.4981
  667MOL0     O89913   3.199   2.641   2.827  0.1202 -0.3147  0.7606
  667MOL0     C89914   3.269   2.716   2.918 -0.8149  0.2043  0.1553
  667MOL0     C89915   3.319   2.638   3.019  0.7284 -0.8948  0.2496
  667MOL0     C89916   3.396   2.692   3.126 -0.6786  0.1523  0.2308
  667MOL0     C89917   3.424   2.832   3.130  0.2416 -0.1185 -0.4002
  667MOL0     O89918   3.504   2.876   3.240 -0.4632 -0.3338  0.4112
  667MOL0     C89919   3.507   3.020   3.258  0.3678  0.3746  0.5384
  667MOL0     C89920   3.584   3.086   3.384  0.2715  0.4833 -0.1692
  667MOL0     C89921   3.733   3.086   3.371 -0.7455  0.1172  0.3752
  667MOL0     C89922   3.781   3.195   3.273  0.2088  0.1052 -0.2094
  667MOL0     C89923   3.933   3.196   3.251  0.0818  1.0726 -0.7385
  667MOL0     C89924   3.979   3.296   3.153 -0.2508 -0.9452 -0.1638
  667MOL0     C89925   4.130   3.270   3.116 -0.3627 -0.1781  0.5661
  667MOL0     C89926   4.158   3.251   2.959  1.4170 -0.2883  0.6472
  667MOL0     N89927   4.092   3.128   2.911 -0.0813 -0.6848  0.1005
  667MOL0     C89928   4.107   3.001   2.962  0.0272  0.2089 -0.3572
  667MOL0     C89929   4.015   2.932   2.886  0.2051  0.2554 -0.8341
  667MOL0     C89930   3.983   2.793   2.890 -0.0229  1.4652  0.4495
  667MOL0     C89931   3.882   2.766   2.998 -0.6531 -0.7160  0.0834
  667MOL0     C89932   3.741   2.824   2.987 -0.7160  0.1653  0.1716
  667MOL0     C89933   3.672   2.775   2.863 -0.2246  0.1713 -0.2166
  667MOL0     O89934   3.703   2.634   2.846 -0.1600  0.4062  0.9928
  667MOL0     C89935   3.620   2.551   2.771 -0.5021 -0.2753  0.3309
  667MOL0     C89936   3.525   2.469   2.835 -0.7219  0.2565  0.0096
  667MOL0     C89937   3.444   2.376   2.767 -1.2461  1.2236  0.1947
  667MOL0     C89938   3.476   2.357   2.627  0.4177 -0.8764  0.6908
  667MOL0     C89939   3.402   2.260   2.554 -0.8126 -0.0994 -0.1113
  667MOL0     O89940   3.380   2.142   2.631  0.4224  0.1665  0.5979
  667MOL0     C89941   3.293   2.055   2.572  0.0403 -0.6275  0.9059
  667MOL0     C89942   3.157   2.072   2.555  0.9347 -0.4735 -0.3939
  667MOL0     C89943   3.069   1.977   2.504  0.0190 -0.7322  0.4993
  667MOL0     C89944   3.113   1.852   2.476  0.0793 -0.1471 -0.3692
  667MOL0     O89945   3.026   1.765   2.417  1.0729  0.3230 -0.1303
  667MOL0     C89946   3.080   1.667   2.338 -0.6084 -0.5627 -0.7552
  667MOL0     C89947   2.977   1.628   2.228  0.0316 -0.0212 -0.2107
  667MOL0     C89948   2.885   1.520   2.283 -0.9312 -0.0355 -0.0581
  667MOL0     C89949   2.767   1.502   2.182 -0.0813  0.5218  0.6648
  667MOL0     C89950   2.644   1.452   2.248  0.7577 -0.4710  1.1023
  667MOL0     C89951   2.649   1.307   2.298 -1.0511  0.2146  0.4454
  667MOL0     C89952   2.671   1.213   2.184  0.2622 -0.8375  1.0691
  667MOL0     C89953   2.572   1.219   2.076 -0.0544 -0.7784 -0.1730
  667MOL0    Cl89954   2.584   1.063   1.998 -0.3350  0.2854 -0.2036
  667MOL0     C89955   3.247   1.827   2.510 -0.2260 -0.2892  0.6879
  667MOL0     C89956   3.335   1.925   2.549 -0.1280  0.1830  0.0528
  667MOL0     O89957   3.344   2.292   2.453  0.0949 -0.0771  0.5656
  667MOL0     C89958   3.568   2.435   2.560 -0.0498  0.0317  0.5961
  667MOL0     C89959   3.641   2.533   2.634  0.2032  0.1396  0.9381
  667MOL0     N89960   3.951   3.021   2.793 -0.8216 -0.1544 -0.4105
  667MOL0     N89961   4.009   3.136   2.811  1.0767  0.2526  0.8525
  667MOL0     C89962   3.363   2.914   3.034  0.2940  0.6375 -0.1811
  667MOL0     C89963   3.279   2.860   2.926 -0.8442  0.4166 -0.2122
  667MOL0     C89964   3.019   2.598   2.673  0.2546 -0.1402  0.2242
  667MOL0     C89965   3.118   2.540   2.587 -0.2044 -0.6331 -0.3035
  667MOL0     C89966   3.079   2.474   2.471 -0.2450  0.2277 -0.1465
  667MOL0     C89967   2.945   2.477   2.425  0.3359  0.3620 -0.3479
  667MOL0     O89968   2.920   2.442   2.292  0.1191 -0.0429  0.2035
  667MOL0     C89969   2.781   2.420   2.256 -0.5062 -0.8074  0.0941
  667MOL0     C89970   2.716   2.309   2.337 -0.5434 -0.7339  0.4374
  667MOL0     C89971   2.782   2.168   2.318 -0.0347  0.4889 -0.1070
  667MOL0     C89972   2.757   2.115   2.182 -0.5948  0.3934  0.7263
  667MOL0     C89973   2.654   2.020   2.189  0.3902 -0.0042 -0.1523
  667MOL0     C89974   2.566   1.939   2.188  0.9360 -0.0398 -0.8505
  667MOL0     C89975   2.850   2.522   2.522 -0.5994  0.0993 -0.8417
  667MOL0     C89976   2.887   2.577   2.645  0.3132  0.0131  0.1708
  667MOL0     C89977   2.777   2.632   2.724 -0.6955  0.2542 -0.6295
  667MOL0     H89978   3.278   2.538   3.023  0.0898 -0.6026  2.3623
  667MOL0     H89979   3.431   2.633   3.210 -3.1319  0.2569  1.4037
  667MOL0     H89980   3.546   3.064   3.166  1.7841 -0.1269  0.8759
  667MOL0     H89981   3.402   3.040   3.282 -1.2006 -2.7647 -2.8372
  667MOL0     H89982   3.570   3.028   3.476 -0.5605 -1.8622 -1.6974
  667MOL0     H89983   3.545   3.187   3.400  1.6364  1.0471 -0.2699
  667MOL0     H89984   3.770   2.994   3.324 -1.7771 -0.3588  0.4603
  667MOL0     H89985   3.783   3.098   3.468 -0.5692  0.1213  0.2836
  667MOL0     H89986   3.732   3.173   3.177 -0.8099 -3.6854  1.0309
  667MOL0     H89987   3.752   3.294   3.310  0.3550  0.0723 -0.0060
  667MOL0     H89988   3.981   3.227   3.344  0.1271  0.4567 -0.5516
  667MOL0     H89989   3.956   3.093   3.221 -0.3331 -0.1329  2.5865
  667MOL0     H89990   3.922   3.286   3.060 -1.1072  1.9158 -0.0471
  667MOL0     H89991   3.978   3.397   3.195 -4.2305 -0.9797  0.1594
  667MOL0     H89992   4.168   3.195   3.186 -0.8433  1.1251  2.2701
  667MOL0     H89993   4.176   3.362   3.153 -1.8956  1.6106 -1.6557
  667MOL0     H89994   4.111   3.328   2.898  0.0969 -1.7063 -0.1975
  667MOL0     H89995   4.263   3.257   2.928  1.0225 -1.2036 -0.9970
  667MOL0     H89996   4.175   2.970   3.041 -0.2515  1.2119  0.2869
  667MOL0     H89997   3.954   2.753   2.792  0.1893 -2.6393  1.8657
  667MOL0     H89998   4.077   2.739   2.906 -0.0378  1.6144  1.0619
  667MOL0     H89999   3.878   2.659   3.020  2.0620 -0.3741  3.0890
  667MOL0     H90000   3.930   2.804   3.089 -0.8387  0.7344 -0.4104
  667MOL0     H90001   3.750   2.933   2.991 -0.1252  0.1543 -0.6600
  667MOL0     H90002   3.688   2.797   3.079 -1.0253 -3.1846 -0.8455
  667MOL0     H90003   3.704   2.829   2.774 -1.0279 -0.8239 -1.1330
  667MOL0     H90004   3.562   2.782   2.858 -0.1245  1.0155 -3.3106
  667MOL0     H90005   3.508   2.473   2.942  0.4570  1.2674  0.1848
  667MOL0     H90006   3.360   2.329   2.817 -1.2014  3.0296  2.0678
  667MOL0     H90007   3.115   2.170   2.576 -2.1545 -2.2985  2.9178
  667MOL0     H90008   2.966   2.001   2.482  0.7475  0.1013 -2.4726
  667MOL0     H90009   3.168   1.704   2.284  0.2661 -3.0054 -1.0982
  667MOL0     H90010   3.097   1.581   2.403 -2.5192  1.6668  3.1091
  667MOL0     H90011   2.917   1.717   2.206 -2.9094 -2.0080 -0.7233
  667MOL0     H90012   3.026   1.585   2.140  0.1246 -2.1528  0.8223
  667MOL0     H90013   2.932   1.423   2.299  1.7540  0.6159 -2.8567
  667MOL0     H90014   2.860   1.554   2.384 -0.0382  1.1829 -0.2205
  667MOL0     H90015   2.790   1.445   2.091  1.0372 -0.1638  1.3440
  667MOL0     H90016   2.748   1.604   2.147  2.5356 -0.3031 -4.0062
  667MOL0     H90017   2.555   1.465   2.185  0.9114  1.1624  1.1873
  667MOL0     H90018   2.624   1.503   2.342  0.2045 -1.2664  1.4175
  667MOL0     H90019   2.733   1.296   2.367  1.4704  3.6075 -1.7488
  667MOL0     H90020   2.560   1.279   2.356  0.5667 -0.5623  2.6773
  667MOL0     H90021   2.672   1.113   2.227  6.4215 -1.1541  1.1435
  667MOL0     H90022   2.770   1.228   2.138 -0.4488  1.9701  0.2165
  667MOL0     H90023   2.475   1.236   2.123  0.6118 -1.1328  1.3924
  667MOL0     H90024   2.584   1.305   2.010 -2.0742  0.7571  1.3633
  667MOL0     H90025   3.287   1.731   2.478  1.3498 -0.5536  3.1931
  667MOL0     H90026   3.437   1.894   2.567 -0.5103  0.1991  2.8250
  667MOL0     H90027   3.588   2.440   2.454  2.2387  2.9442  1.0208
  667MOL0     H90028   3.709   2.597   2.580 -2.5084  1.4695 -1.1786
  667MOL0     H90029   3.378   3.022   3.030 -2.2236  1.2162  2.6464
  667MOL0     H90030   3.214   2.925   2.869 -2.2737 -1.3121 -0.6103
  667MOL0     H90031   3.223   2.544   2.612 -0.4558  0.1930  0.6737
  667MOL0     H90032   3.152   2.424   2.407 -1.7284 -1.4414 -0.6085
  667MOL0     H90033   2.783   2.397   2.149 -3.7737  2.3187 -0.8736
  667MOL0     H90034   2.729   2.516   2.261  2.8482  1.2350 -1.1398
  667MOL0     H90035   2.611   2.303   2.306 -0.4697  2.9466 -1.0090
  667MOL0     H90036   2.713   2.340   2.442 -0.8010  1.7793 -0.2418
  667MOL0     H90037   2.749   2.101   2.398  4.6199 -1.7282  0.3283
  667MOL0     H90038   2.889   2.173   2.344  0.2733  4.5840 -1.3278
  667MOL0     H90039   2.718   2.194   2.117 -0.4304  1.9096  2.3947
  667MOL0     H90040   2.848   2.061   2.154 -0.4451  0.3015  1.3834
  667MOL0     H90041   2.475   1.882   2.184  0.9801 -0.1336 -0.5138
  667MOL0     H90042   2.754   2.536   2.473 -1.8349  3.1824  2.0592
  667MOL0     H90043   2.780   2.741   2.734  3.3881  0.3631 -1.3619
  667MOL0     H90044   2.684   2.611   2.671  0.5546 -0.1778 -2.7724
  667MOL0     H90045   2.774   2.582   2.822 -0.9846  2.7027  0.6971
  668MOL0     O90046   7.383   2.354  10.157  0.1029  0.5922  0.5877
  668MOL0     C90047   7.364   2.481  10.155  0.2223  0.0587 -0.4201
  668MOL0     O90048   7.244   2.544  10.172  0.2119 -0.2166 -0.6926
  668MOL0     C90049   7.127   2.467  10.166  0.5454 -0.2273 -0.2450
  668MOL0     C90050   7.096   2.374  10.068 -0.3720 -1.2655  0.3809
  668MOL0     C90051   6.985   2.296  10.079 -0.0669  0.4454  0.2599
  668MOL0     C90052   6.892   2.309  10.181  0.8641  0.3909 -0.3653
  668MOL0     O90053   6.802   2.214  10.199 -0.0180  1.0619  0.9532
  668MOL0     C90054   6.738   2.134  10.092 -0.7381 -0.7346  0.0296
  668MOL0     C90055   6.621   2.052  10.151 -0.0926  0.4954 -0.0423
  668MOL0     C90056   6.544   1.990  10.041  0.4074 -0.0607 -0.7263
  668MOL0     C90057   6.422   1.903  10.071 -0.1471 -0.2785  0.1497
  668MOL0     C90058   6.315   1.967  10.163 -1.3936  0.2223 -0.4448
  668MOL0     C90059   6.259   2.096  10.127  0.8999 -0.1763  0.0522
  668MOL0     C90060   6.190   2.103   9.988  0.5971 -0.1338 -0.5126
  668MOL0     C90061   6.097   2.232   9.977 -0.7085 -0.1279 -0.0657
  668MOL0     N90062   6.067   2.227   9.831  0.3981  0.6998  0.3856
  668MOL0     C90063   6.141   2.296   9.736  0.2679  0.1422  0.7954
  668MOL0     C90064   6.086   2.258   9.619  0.7002  0.5588 -0.0878
  668MOL0     C90065   6.123   2.293   9.478  1.3122  0.1507 -0.1577
  668MOL0     C90066   6.043   2.414   9.436  0.4111 -0.1440  0.3041
  668MOL0     C90067   6.082   2.535   9.533  0.1077 -0.2726  0.4331
  668MOL0     C90068   6.060   2.669   9.466  0.1549 -0.1229 -0.8205
  668MOL0     O90069   6.070   2.782   9.548 -0.6632 -0.1559  0.3686
  668MOL0     C90070   6.186   2.803   9.616  0.2449 -0.3497 -0.1607
  668MOL0     C90071   6.303   2.834   9.553  0.6075  0.8904 -0.0689
  668MOL0     C90072   6.425   2.838   9.628 -0.0827  0.1679  0.5088
  668MOL0     C90073   6.417   2.848   9.768 -0.2442  0.3689 -0.1674
  668MOL0     C90074   6.549   2.877   9.836  0.4007 -0.1505 -0.6923
  668MOL0     O90075   6.655   2.859   9.755  0.3808 -0.0754 -0.5046
  668MOL0     C90076   6.779   2.878   9.812  0.1863  0.2866  0.4564
  668MOL0     C90077   6.861   2.971   9.741 -0.1548  0.3707 -0.0211
  668MOL0     C90078   6.987   2.990   9.798  0.0489 -0.1690 -0.0351
  668MOL0     C90079   7.036   2.909   9.903  0.2033 -0.8312  0.2362
  668MOL0     O90080   7.160   2.925   9.950 -0.0475 -0.0699 -0.4359
  668MOL0     C90081   7.274   2.923   9.859 -0.6245 -0.0386 -0.3370
  668MOL0     C90082   7.332   3.067   9.848  0.2460 -0.3625 -0.0532
  668MOL0     C90083   7.475   3.070   9.794  0.2601 -0.2536 -0.9489
  668MOL0     C90084   7.530   3.219   9.781  0.7039  0.4359 -0.2178
  668MOL0     C90085   7.684   3.215   9.757 -0.2602 -0.5407  0.8918
  668MOL0     C90086   7.723   3.176   9.616  0.0967  0.3377 -0.3820
  668MOL0     C90087   7.680   3.277   9.499 -0.1257 -0.0490 -1.3006
  668MOL0     C90088   7.716   3.211   9.364  0.3969  0.3143  0.2777
  668MOL0    Cl90089   7.702   3.342   9.250 -0.0827  0.4835 -0.1985
  668MOL0     C90090   6.962   2.810   9.953  0.5774  0.8970  0.3512
  668MOL0     C90091   6.831   2.798   9.909 -0.7811  0.1530 -0.0087
  668MOL0     O90092   6.549   2.933   9.947  0.1141 -0.0129 -0.1736
  668MOL0     C90093   6.298   2.833   9.834  0.5581  0.0293 -0.5331
  668MOL0     C90094   6.183   2.802   9.751  1.0322 -0.5102 -0.6052
  668MOL0     N90095   5.983   2.169   9.646  0.1600 -0.2921 -0.2610
  668MOL0     N90096   5.967   2.156   9.768 -1.2152 -0.0501  0.3138
  668MOL0     C90097   6.912   2.410  10.280  0.2101 -0.7878 -0.4255
  668MOL0     C90098   7.021   2.494  10.264  0.3920  0.2422 -0.6568
  668MOL0     C90099   7.482   2.558  10.112 -0.8179  0.4137 -0.2457
  668MOL0     C90100   7.598   2.495  10.063  0.4024  0.0649 -0.1706
  668MOL0     C90101   7.705   2.575  10.023 -0.0050 -0.4440  0.1896
  668MOL0     C90102   7.707   2.717  10.031 -0.0797  0.2738 -0.5089
  668MOL0     O90103   7.807   2.801   9.993 -0.7933  0.2262  0.1705
  668MOL0     C90104   7.890   2.751   9.888 -0.0336  0.1822 -0.6257
  668MOL0     C90105   7.992   2.845   9.843 -0.5469 -0.0932 -1.2017
  668MOL0     C90106   8.099   2.776   9.753  0.6437 -0.2416  0.7289
  668MOL0     C90107   8.172   2.873   9.653  0.4345  0.5682  0.5977
  668MOL0     C90108   8.266   2.964   9.721 -0.2034  1.5006 -0.6415
  668MOL0     C90109   8.350   3.034   9.773  0.1534  0.0346  0.0220
  668MOL0     C90110   7.596   2.783  10.086 -0.8345  0.8999 -0.4278
  668MOL0     C90111   7.483   2.704  10.123  0.4644  0.6638 -0.1062
  668MOL0     C90112   7.377   2.794  10.174  0.3440  0.1327 -0.1092
  668MOL0     H90113   7.147   2.365   9.972  3.2608 -0.1130  2.0556
  668MOL0     H90114   6.967   2.229   9.995  3.0112  1.1229 -1.0719
  668MOL0     H90115   6.699   2.201  10.015 -0.0088  1.2236  1.2522
  668MOL0     H90116   6.814   2.067  10.052  3.8185  2.8073  1.7154
  668MOL0     H90117   6.554   2.113  10.212  1.8861  1.4233  1.3119
  668MOL0     H90118   6.672   1.976  10.211 -1.5479 -2.3798 -2.1787
  668MOL0     H90119   6.597   1.933   9.964 -1.0865 -0.0807 -1.7932
  668MOL0     H90120   6.517   2.078   9.981 -0.6304  0.5299  0.5596
  668MOL0     H90121   6.380   1.886   9.971  0.0315  1.4019 -0.2394
  668MOL0     H90122   6.457   1.812  10.119  0.7746  1.6057  3.3445
  668MOL0     H90123   6.227   1.907  10.185 -0.4502 -0.2973  2.3679
  668MOL0     H90124   6.354   1.969  10.266 -1.8631  0.7235 -0.2716
  668MOL0     H90125   6.180   2.122  10.198  1.4829  1.0518  0.2670
  668MOL0     H90126   6.337   2.173  10.133 -0.4393  1.2464 -0.3858
  668MOL0     H90127   6.124   2.016   9.986 -0.1719  0.3127  2.0747
  668MOL0     H90128   6.254   2.093   9.899 -0.2615 -1.2574 -1.0215
  668MOL0     H90129   6.007   2.216  10.036 -1.7395 -0.3340 -1.6397
  668MOL0     H90130   6.147   2.319  10.020 -2.0963 -0.3853  2.2236
  668MOL0     H90131   6.226   2.364   9.743 -1.7262  3.3897 -2.9760
  668MOL0     H90132   6.232   2.301   9.486  1.2264 -0.1908  1.9734
  668MOL0     H90133   6.087   2.210   9.417 -0.3579  1.0764 -0.4816
  668MOL0     H90134   6.073   2.438   9.334 -0.0066 -0.6888  0.0458
  668MOL0     H90135   5.936   2.389   9.440  0.3574 -0.2904 -1.4880
  668MOL0     H90136   6.188   2.520   9.555 -0.2698 -1.4385  1.5885
  668MOL0     H90137   6.015   2.527   9.620  0.9300 -1.2109  0.9956
  668MOL0     H90138   5.969   2.662   9.405 -0.6595 -1.5794  0.4608
  668MOL0     H90139   6.132   2.672   9.384 -1.6443  2.2462 -2.4617
  668MOL0     H90140   6.311   2.855   9.447  0.9184  0.1605 -0.1964
  668MOL0     H90141   6.517   2.867   9.578  0.8745 -4.9032 -1.1949
  668MOL0     H90142   6.821   3.028   9.658 -0.0387  0.2121 -0.1867
  668MOL0     H90143   7.039   3.069   9.744 -1.1377  0.7747  0.1778
  668MOL0     H90144   7.343   2.848   9.899 -0.1679  0.2155 -0.6383
  668MOL0     H90145   7.257   2.886   9.757  3.7221 -4.3903  0.1029
  668MOL0     H90146   7.275   3.124   9.774  3.0817  1.9770 -0.6380
  668MOL0     H90147   7.330   3.120   9.944 -0.9733  0.2410 -0.3796
  668MOL0     H90148   7.542   3.022   9.866  1.1582  0.0241 -1.5793
  668MOL0     H90149   7.483   3.019   9.698  0.7938 -4.7545  1.2191
  668MOL0     H90150   7.501   3.263   9.877 -1.2566  0.0777 -0.6119
  668MOL0     H90151   7.489   3.279   9.699  1.6854 -1.6991 -2.3785
  668MOL0     H90152   7.726   3.145   9.829  0.5821 -1.8128 -0.7669
  668MOL0     H90153   7.731   3.313   9.773 -0.2799 -0.3167 -0.3090
  668MOL0     H90154   7.832   3.172   9.607  0.2434  1.2989  0.6811
  668MOL0     H90155   7.677   3.081   9.588  0.1247  0.0690  0.4750
  668MOL0     H90156   7.748   3.360   9.522  3.4784 -2.1766 -3.3730
  668MOL0     H90157   7.577   3.312   9.506  0.0359  0.4110 -1.1578
  668MOL0     H90158   7.819   3.175   9.348 -0.3881 -2.3290  0.7745
  668MOL0     H90159   7.641   3.134   9.345  1.5582 -1.4208  2.2627
  668MOL0     H90160   7.009   2.745  10.025  2.0158 -1.1531 -2.2642
  668MOL0     H90161   6.765   2.731   9.963  0.7784  0.1137  1.9625
  668MOL0     H90162   6.293   2.845   9.941  1.1734 -1.1709 -0.3535
  668MOL0     H90163   6.090   2.798   9.807  1.5537  0.8711  0.4307
  668MOL0     H90164   6.858   2.427  10.373  1.3216  1.7033 -0.1845
  668MOL0     H90165   7.037   2.574  10.335 -0.5719  1.7723 -2.1066
  668MOL0     H90166   7.599   2.389  10.042  0.9837 -1.1167  4.6519
  668MOL0     H90167   7.789   2.519   9.983  1.1123  1.3027 -0.0182
  668MOL0     H90168   7.827   2.724   9.803  0.2903 -0.9237 -0.5186
  668MOL0     H90169   7.945   2.665   9.928 -1.4095 -1.9356 -3.0214
  668MOL0     H90170   8.047   2.888   9.928 -1.1199 -0.6856 -0.5178
  668MOL0     H90171   7.932   2.917   9.786 -1.9257 -2.6923 -3.2585
  668MOL0     H90172   8.050   2.695   9.698 -1.3870  1.2639  0.1959
  668MOL0     H90173   8.175   2.723   9.810 -0.0560 -2.0210  0.0997
  668MOL0     H90174   8.226   2.810   9.582  1.8010 -1.5078  3.2893
  668MOL0     H90175   8.097   2.925   9.593  0.5854 -2.0852 -2.1270
  668MOL0     H90176   8.433   3.088   9.814  0.9503 -0.1095 -1.3440
  668MOL0     H90177   7.615   2.889  10.101 -2.1678  1.1447 -0.3763
  668MOL0     H90178   7.406   2.900  10.175 -0.5797  0.4619 -2.0573
  668MOL0     H90179   7.280   2.785  10.123  0.2053 -0.4042  0.2445
  668MOL0     H90180   7.349   2.765  10.276  1.8848  1.3010  0.6947
  669MOL0     O90181  10.206   6.253   4.617  0.3984 -0.4294 -0.3513
  669MOL0     C90182  10.092   6.286   4.575  0.0961  0.2539  0.1537
  669MOL0     O90183   9.981   6.292   4.652 -0.1525 -0.5401 -0.2919
  669MOL0     C90184   9.985   6.236   4.771 -0.1818 -0.6733 -0.4093
  669MOL0     C90185   9.994   6.100   4.794  0.0596 -0.3305  0.2399
  669MOL0     C90186   9.955   6.053   4.923  0.0596 -0.2950 -0.0959
  669MOL0     C90187   9.918   6.143   5.027  0.6915  1.0166 -0.1103
  669MOL0     O90188   9.845   6.111   5.143 -0.4208 -0.2078 -0.1330
  669MOL0     C90189   9.841   5.972   5.177 -0.5892  0.5729 -0.9122
  669MOL0     C90190   9.971   5.902   5.234  0.3401 -0.2859  0.1992
  669MOL0     C90191   9.989   5.947   5.380  0.3643  1.0135 -0.5321
  669MOL0     C90192  10.107   5.888   5.470 -0.4965  0.6265 -0.6505
  669MOL0     C90193  10.136   5.967   5.598  0.7358 -0.5792  0.2476
  669MOL0     C90194   9.997   5.992   5.660  0.0685  0.8919  0.0707
  669MOL0     C90195  10.015   6.050   5.808  0.2195  0.5097  0.4152
  669MOL0     C90196  10.105   6.170   5.828 -0.3692 -0.0683  0.0867
  669MOL0     N90197  10.071   6.275   5.733 -0.0455 -0.5778  0.1025
  669MOL0     C90198  10.167   6.342   5.656 -0.3010 -0.2117  0.5954
  669MOL0     C90199  10.089   6.424   5.576 -0.2147 -0.0913 -0.1061
  669MOL0     C90200  10.147   6.513   5.472 -0.1411 -0.4413 -0.5597
  669MOL0     C90201  10.128   6.443   5.342 -0.1783 -0.5621  0.7506
  669MOL0     C90202  10.222   6.310   5.311 -0.0670  0.2263 -0.1748
  669MOL0     C90203  10.243   6.270   5.164 -0.8700  0.4006 -0.4616
  669MOL0     O90204  10.300   6.134   5.170  0.4936  0.1839 -0.1809
  669MOL0     C90205  10.361   6.066   5.059  0.2426  0.8355  0.7656
  669MOL0     C90206  10.408   5.939   5.085 -0.8438  0.2656 -0.6059
  669MOL0     C90207  10.472   5.869   4.983  0.0842 -0.3690  0.0035
  669MOL0     C90208  10.497   5.925   4.856 -0.0971 -0.2569  0.5780
  669MOL0     C90209  10.559   5.842   4.746  0.1906 -0.0675 -0.6506
  669MOL0     O90210  10.574   5.898   4.627  0.5155  0.0811  0.7977
  669MOL0     C90211  10.615   5.820   4.515 -0.1123 -0.3436 -0.9067
  669MOL0     C90212  10.560   5.855   4.395  0.5177 -0.7920 -0.4359
  669MOL0     C90213  10.582   5.788   4.276  0.4708 -0.1875  0.1397
  669MOL0     C90214  10.669   5.680   4.274  0.1111 -0.6999  0.0897
  669MOL0     O90215  10.675   5.614   4.150 -0.3996 -0.5402  0.1845
  669MOL0     C90216  10.730   5.485   4.160  0.1474  0.1780  1.0699
  669MOL0     C90217  10.674   5.403   4.043 -0.2575 -0.1063 -0.1670
  669MOL0     C90218  10.746   5.272   4.005  0.3669  0.0394 -0.3441
  669MOL0     C90219  10.690   5.179   3.893  0.6039  0.0125  1.0309
  669MOL0     C90220  10.787   5.069   3.855  0.2248 -0.5508  0.7530
  669MOL0     C90221  10.749   4.941   3.927 -0.7266 -0.6616  0.0967
  669MOL0     C90222  10.852   4.837   3.930  0.1310  0.2779  0.9753
  669MOL0     C90223  10.872   4.749   3.814 -0.2133  0.2947 -0.9404
  669MOL0    Cl90224  11.032   4.653   3.812 -0.5136  0.6522  0.7282
  669MOL0     C90225  10.744   5.638   4.393  0.1373  0.9006 -0.2650
  669MOL0     C90226  10.712   5.720   4.512 -0.7267  0.6129 -0.8186
  669MOL0     O90227  10.596   5.728   4.776  0.4833  0.4924 -0.2667
  669MOL0     C90228  10.444   6.059   4.830 -0.1256 -0.6933 -0.7803
  669MOL0     C90229  10.377   6.122   4.928  0.0002 -0.7001 -0.0020
  669MOL0     N90230   9.955   6.390   5.597  0.2844 -0.3034 -0.1622
  669MOL0     N90231   9.948   6.304   5.697  0.2924  0.0226 -0.1481
  669MOL0     C90232   9.930   6.281   4.996  0.4186  0.6282  0.4630
  669MOL0     C90233   9.964   6.329   4.875  0.4243  0.9615 -0.6308
  669MOL0     C90234  10.091   6.354   4.439  0.4424 -0.2185  0.8001
  669MOL0     C90235  10.204   6.353   4.360  0.5014  0.0454 -0.3363
  669MOL0     C90236  10.210   6.399   4.231 -0.7437 -0.5105  0.8557
  669MOL0     C90237  10.100   6.451   4.166 -1.1825  0.1996 -0.1615
  669MOL0     O90238  10.101   6.472   4.026  0.1161 -0.2893 -0.8347
  669MOL0     C90239  10.208   6.411   3.943  0.3016  0.0794 -0.0922
  669MOL0     C90240  10.146   6.417   3.797  0.1959 -0.5689 -0.2881
  669MOL0     C90241  10.117   6.562   3.752  0.1404 -0.3063 -0.5617
  669MOL0     C90242  10.077   6.568   3.602  0.2282  0.1237  1.0738
  669MOL0     C90243  10.042   6.704   3.562  0.4009 -0.3382  0.4440
  669MOL0     C90244  10.014   6.817   3.528 -0.0093 -0.0995  0.5063
  669MOL0     C90245   9.986   6.466   4.248 -0.1691 -0.1078  0.3153
  669MOL0     C90246   9.983   6.418   4.382  0.1716  0.2700 -0.2019
  669MOL0     C90247   9.871   6.469   4.470 -0.1417  0.5335 -0.3641
  669MOL0     H90248  10.026   6.027   4.720  2.2584  2.3406 -1.6619
  669MOL0     H90249   9.945   5.945   4.931  2.2537 -0.6165 -1.0369
  669MOL0     H90250   9.760   5.957   5.249  1.8760 -0.7035  1.8341
  669MOL0     H90251   9.807   5.905   5.097 -1.0654  0.8480 -0.9468
  669MOL0     H90252  10.058   5.916   5.169  0.7540 -0.4920  0.7039
  669MOL0     H90253   9.953   5.794   5.231 -2.0238  0.0558  0.1868
  669MOL0     H90254   9.891   5.927   5.426  0.4429  2.1808  0.1989
  669MOL0     H90255   9.994   6.056   5.368  1.2844  1.6545  3.9859
  669MOL0     H90256  10.094   5.784   5.501  3.7447  0.3789  0.9273
  669MOL0     H90257  10.198   5.897   5.410 -0.9475  0.6261 -1.3579
  669MOL0     H90258  10.192   5.907   5.671  0.2914 -0.2272  0.8872
  669MOL0     H90259  10.185   6.064   5.586 -2.7369  1.0057 -3.0150
  669MOL0     H90260   9.927   6.052   5.602 -1.7446  0.2264  1.4578
  669MOL0     H90261   9.940   5.898   5.662 -1.5660  1.8691  1.0076
  669MOL0     H90262  10.050   5.966   5.869 -0.4402  0.4312  0.6819
  669MOL0     H90263   9.916   6.070   5.850 -0.7707 -1.5770 -0.7747
  669MOL0     H90264  10.087   6.205   5.930 -3.5101 -0.1911 -0.3520
  669MOL0     H90265  10.205   6.130   5.810  0.5172  1.6033  0.9717
  669MOL0     H90266  10.275   6.335   5.664 -0.4649 -2.9962  1.3309
  669MOL0     H90267  10.086   6.603   5.465 -0.8203 -0.6606  1.7931
  669MOL0     H90268  10.250   6.536   5.502  0.4162 -2.7518 -0.5148
  669MOL0     H90269  10.026   6.405   5.329 -0.6521  0.5440  1.0663
  669MOL0     H90270  10.157   6.521   5.272 -1.5830 -0.5238  0.1722
  669MOL0     H90271  10.192   6.226   5.374  0.8846 -0.1790 -0.2456
  669MOL0     H90272  10.320   6.338   5.351  0.4086 -0.1069 -1.0828
  669MOL0     H90273  10.311   6.346   5.124  0.9357  0.5605  2.5758
  669MOL0     H90274  10.148   6.267   5.111  0.2464 -0.0740 -2.5679
  669MOL0     H90275  10.389   5.896   5.183  0.5323  1.3846  0.1832
  669MOL0     H90276  10.507   5.769   5.005  0.6645 -0.5275 -1.5373
  669MOL0     H90277  10.492   5.939   4.391  2.1196  0.8043  2.5844
  669MOL0     H90278  10.544   5.827   4.181 -0.6261  0.1833  0.7156
  669MOL0     H90279  10.839   5.484   4.156  0.1357 -2.0194 -0.2720
  669MOL0     H90280  10.693   5.441   4.253  3.4049 -0.9640  1.9540
  669MOL0     H90281  10.567   5.392   4.060 -0.5899  1.6887 -0.8812
  669MOL0     H90282  10.687   5.459   3.950  1.1167  2.0031  1.2084
  669MOL0     H90283  10.842   5.307   3.964  1.2950 -3.1751 -1.2632
  669MOL0     H90284  10.753   5.217   4.099  2.9445  1.7861  0.5853
  669MOL0     H90285  10.675   5.241   3.804  2.3648  0.1351  0.7835
  669MOL0     H90286  10.590   5.143   3.916  0.2575  0.1834 -0.1353
  669MOL0     H90287  10.884   5.104   3.890  0.5361 -1.0354  0.3889
  669MOL0     H90288  10.791   5.066   3.745 -0.2023 -2.2817  0.7495
  669MOL0     H90289  10.731   4.967   4.031 -0.1459  0.7395 -0.1329
  669MOL0     H90290  10.658   4.909   3.876 -1.4524  2.1637 -0.5723
  669MOL0     H90291  10.837   4.768   4.013 -1.0287 -0.1395  0.4335
  669MOL0     H90292  10.949   4.885   3.947 -0.4332  1.2120  1.6684
  669MOL0     H90293  10.784   4.684   3.810 -0.0840  0.0800 -0.3670
  669MOL0     H90294  10.879   4.809   3.722 -2.7250  0.2986 -1.1954
  669MOL0     H90295  10.816   5.556   4.389  1.2439  1.7547  1.1604
  669MOL0     H90296  10.773   5.707   4.600  0.3644  0.3386 -1.5918
  669MOL0     H90297  10.446   6.093   4.727  0.8678  1.6373 -0.0554
  669MOL0     H90298  10.330   6.216   4.899 -0.0789 -1.2888 -1.9574
  669MOL0     H90299   9.891   6.348   5.072  0.8561  2.3534 -0.7697
  669MOL0     H90300   9.989   6.435   4.867 -1.9259  1.4480 -3.3399
  669MOL0     H90301  10.285   6.292   4.400 -0.2038 -0.3368  0.5433
  669MOL0     H90302  10.310   6.402   4.189 -0.9150  1.1874  0.4916
  669MOL0     H90303  10.232   6.306   3.964  1.0066  0.3640  0.5658
  669MOL0     H90304  10.300   6.469   3.935 -0.9511  1.9701 -1.4880
  669MOL0     H90305  10.046   6.372   3.802 -0.2193  0.4368  2.1018
  669MOL0     H90306  10.205   6.352   3.733 -0.0285 -1.6709  0.5902
  669MOL0     H90307  10.212   6.615   3.765  0.2307 -0.5574 -0.1875
  669MOL0     H90308  10.046   6.623   3.808  0.5432  0.8563 -1.2829
  669MOL0     H90309  10.160   6.522   3.547 -1.8605 -3.1809  0.4403
  669MOL0     H90310   9.991   6.506   3.577  0.0738  1.2059 -1.3558
  669MOL0     H90311  10.000   6.921   3.507  0.3864 -0.1160  0.1677
  669MOL0     H90312   9.896   6.518   4.217  0.0647 -1.1548 -2.3300
  669MOL0     H90313   9.816   6.544   4.412 -2.4046 -2.4893 -2.4360
  669MOL0     H90314   9.810   6.384   4.503  0.2321  0.6091  0.5350
  669MOL0     H90315   9.919   6.519   4.555 -0.4334 -0.9986  0.7392
  670MOL0     O90316   9.715   7.831   5.617  0.0054 -0.6619  0.0277
  670MOL0     C90317   9.809   7.909   5.599  0.2257 -0.3260 -0.8594
  670MOL0     O90318   9.944   7.871   5.591  0.5716 -0.3546  0.6426
  670MOL0     C90319   9.989   7.740   5.572  0.3157 -0.3167 -0.0190
  670MOL0     C90320  10.106   7.711   5.628 -0.3264  1.1525 -0.3555
  670MOL0     C90321  10.159   7.579   5.601  0.2446  1.1841  1.1698
  670MOL0     C90322  10.096   7.488   5.511  0.5177 -0.0092 -0.3660
  670MOL0     O90323  10.159   7.363   5.488 -0.6042 -0.6626 -0.3148
  670MOL0     C90324  10.094   7.286   5.374 -0.4569 -0.4212 -0.8299
  670MOL0     C90325   9.986   7.196   5.429 -0.3404 -0.2390 -1.0571
  670MOL0     C90326  10.043   7.096   5.525 -1.0474  0.0224 -0.1137
  670MOL0     C90327   9.927   7.017   5.585  0.0594 -0.0357  0.1958
  670MOL0     C90328   9.986   6.898   5.672  0.7335  0.6791  0.3237
  670MOL0     C90329   9.881   6.801   5.730 -0.5408  0.5466  0.1804
  670MOL0     C90330   9.952   6.676   5.777 -0.2845  0.4223  0.7169
  670MOL0     C90331   9.876   6.597   5.879 -0.4480 -0.7243 -0.0467
  670MOL0     N90332   9.847   6.661   6.013  0.3799  0.3086  0.1901
  670MOL0     C90333   9.729   6.637   6.084 -0.5444 -0.0695 -0.7118
  670MOL0     C90334   9.752   6.710   6.200 -0.6578 -0.6126 -0.0055
  670MOL0     C90335   9.652   6.715   6.311  0.6355 -0.2605  0.0755
  670MOL0     C90336   9.702   6.644   6.434 -0.1518  0.7965 -1.1267
  670MOL0     C90337   9.831   6.706   6.498  1.1602  0.8069  0.4873
  670MOL0     C90338   9.830   6.856   6.516 -0.3061  0.4031 -0.1036
  670MOL0     O90339   9.722   6.905   6.596  0.6243  0.0630 -0.6529
  670MOL0     C90340   9.731   6.895   6.736 -0.4544 -0.4168  0.2099
  670MOL0     C90341   9.854   6.839   6.791 -0.2050 -0.6252 -0.0442
  670MOL0     C90342   9.863   6.825   6.928  0.1856 -0.6017  0.0085
  670MOL0     C90343   9.761   6.877   7.015 -0.3939 -0.1869 -0.1938
  670MOL0     C90344   9.782   6.889   7.158 -0.9327  0.2068  0.1208
  670MOL0     O90345   9.697   6.956   7.236 -0.4774  0.3507  0.7130
  670MOL0     C90346   9.727   6.948   7.365  0.4324 -0.3910  0.5298
  670MOL0     C90347   9.688   6.852   7.456 -0.0394 -0.8186 -0.2473
  670MOL0     C90348   9.716   6.863   7.592  0.2264 -0.1158 -0.0549
  670MOL0     C90349   9.793   6.962   7.645 -0.0149 -1.7642  0.0295
  670MOL0     O90350   9.826   6.962   7.783 -0.2986  0.1301 -0.3742
  670MOL0     C90351   9.795   7.083   7.845 -0.7747  0.1682 -0.1473
  670MOL0     C90352   9.804   7.091   7.992 -0.4574  0.6100 -0.2822
  670MOL0     C90353   9.819   7.242   8.035  0.4917  0.6372  0.6323
  670MOL0     C90354   9.797   7.262   8.191 -0.2749  0.2659  0.5865
  670MOL0     C90355   9.908   7.228   8.284 -0.2632 -0.8088  0.2258
  670MOL0     C90356   9.853   7.194   8.424  0.0657 -0.4047  0.4329
  670MOL0     C90357   9.973   7.142   8.517  0.2118  0.3513  0.1114
  670MOL0     C90358   9.936   7.118   8.666 -0.4454  0.5770  0.1991
  670MOL0    Cl90359   9.814   7.220   8.719 -0.0438  0.0940 -0.3135
  670MOL0     C90360   9.841   7.057   7.549 -0.0207  0.4737  1.1004
  670MOL0     C90361   9.809   7.049   7.414 -0.7826  0.5195  0.2598
  670MOL0     O90362   9.873   6.820   7.196 -0.8235  0.4067 -0.1752
  670MOL0     C90363   9.646   6.932   6.961  0.1834 -0.1451  0.1259
  670MOL0     C90364   9.633   6.940   6.821 -0.3444  0.2012 -0.1520
  670MOL0     N90365   9.875   6.762   6.196  0.0799  0.0334 -0.5785
  670MOL0     N90366   9.929   6.741   6.083  0.6163 -0.1505  0.6720
  670MOL0     C90367   9.974   7.531   5.451 -0.2823  0.1949  0.8928
  670MOL0     C90368   9.922   7.654   5.476  0.0468 -0.0379 -0.2762
  670MOL0     C90369   9.771   8.050   5.601 -0.0548  0.4421 -0.3759
  670MOL0     C90370   9.638   8.080   5.653 -0.0266 -0.2439  0.1429
  670MOL0     C90371   9.586   8.212   5.665 -0.5150 -0.2530 -0.3329
  670MOL0     C90372   9.676   8.312   5.629 -0.9300  0.2274  0.2617
  670MOL0     O90373   9.649   8.443   5.642  0.6136 -0.1606  0.3883
  670MOL0     C90374   9.509   8.481   5.668 -0.5736  0.9240  0.9909
  670MOL0     C90375   9.510   8.628   5.708  0.1139  0.3788 -0.3102
  670MOL0     C90376   9.596   8.707   5.609  0.3168  0.2707 -0.0610
  670MOL0     C90377   9.580   8.859   5.626 -0.9385 -1.0916  0.0526
  670MOL0     C90378   9.464   8.927   5.567 -0.2353  0.9802 -0.1958
  670MOL0     C90379   9.377   9.001   5.523  1.1837  0.3531  0.6534
  670MOL0     C90380   9.795   8.292   5.564  0.0785  0.0915 -0.4921
  670MOL0     C90381   9.851   8.161   5.557 -0.2712 -1.0583 -0.4580
  670MOL0     C90382   9.994   8.139   5.492 -0.6720  0.6193  1.0519
  670MOL0     H90383  10.142   7.780   5.704  2.3749 -0.1798 -0.3122
  670MOL0     H90384  10.243   7.542   5.659 -0.9870 -1.4476  1.4478
  670MOL0     H90385  10.053   7.346   5.292 -1.4394  3.3076  2.1093
  670MOL0     H90386  10.176   7.229   5.328 -0.1503  0.2450 -1.1295
  670MOL0     H90387   9.944   7.145   5.342  0.0970 -1.5563 -0.5233
  670MOL0     H90388   9.912   7.255   5.483 -0.3705 -1.7807  0.6923
  670MOL0     H90389  10.104   7.138   5.605  1.4477 -3.8383  0.3067
  670MOL0     H90390  10.108   7.034   5.462  0.6256  1.6813 -0.0999
  670MOL0     H90391   9.857   7.070   5.650  0.1529 -0.2656  0.4880
  670MOL0     H90392   9.877   6.963   5.505  0.3371 -0.3780  0.2462
  670MOL0     H90393  10.056   6.835   5.616  2.8839  1.2974  2.1610
  670MOL0     H90394  10.055   6.940   5.747  0.4654  3.6620 -0.9601
  670MOL0     H90395   9.825   6.848   5.811  3.9538 -0.3133  4.2525
  670MOL0     H90396   9.824   6.780   5.639 -1.3608  0.2383  0.7523
  670MOL0     H90397  10.052   6.696   5.817 -1.0822  5.5249  0.8971
  670MOL0     H90398   9.955   6.604   5.695  0.1634  3.2263 -1.9568
  670MOL0     H90399   9.780   6.584   5.828 -0.5762 -1.2420  0.3183
  670MOL0     H90400   9.929   6.501   5.884 -0.0302 -0.4573  1.1958
  670MOL0     H90401   9.642   6.581   6.052 -0.6077 -1.3411  1.5240
  670MOL0     H90402   9.621   6.818   6.334 -1.6285 -0.3464 -2.0774
  670MOL0     H90403   9.561   6.663   6.280 -1.6690  2.2690  2.1703
  670MOL0     H90404   9.623   6.642   6.511 -0.0123 -0.5148 -0.9851
  670MOL0     H90405   9.712   6.539   6.405 -0.9382  0.6001 -0.7409
  670MOL0     H90406   9.919   6.688   6.436  0.0946  1.2551 -1.2007
  670MOL0     H90407   9.841   6.657   6.596  0.3062 -1.6694 -0.5839
  670MOL0     H90408   9.819   6.906   6.419 -0.1524  0.7820  0.0716
  670MOL0     H90409   9.929   6.879   6.557 -0.4122 -1.0096  1.0339
  670MOL0     H90410   9.943   6.805   6.738  0.6221 -0.5334  1.2338
  670MOL0     H90411   9.958   6.792   6.969  0.8278  3.2845  2.0855
  670MOL0     H90412   9.623   6.768   7.432 -2.1355  0.9554 -1.0903
  670MOL0     H90413   9.694   6.787   7.666  4.7649 -1.1800  0.5358
  670MOL0     H90414   9.843   7.172   7.803 -0.2752 -0.1732 -0.3146
  670MOL0     H90415   9.688   7.087   7.823 -0.4968  0.7081 -1.4751
  670MOL0     H90416   9.718   7.038   8.033  1.1328  0.7484  3.5927
  670MOL0     H90417   9.888   7.030   8.025  0.6446  1.3348 -1.6323
  670MOL0     H90418   9.919   7.279   8.011  0.6237  0.1704  0.4423
  670MOL0     H90419   9.754   7.310   7.979  0.4098  1.9682  2.2896
  670MOL0     H90420   9.713   7.199   8.219  0.1859 -0.9049 -0.5853
  670MOL0     H90421   9.767   7.366   8.205 -0.0065  0.2822  1.0773
  670MOL0     H90422   9.990   7.301   8.279 -1.1925  0.2411 -0.2458
  670MOL0     H90423   9.970   7.141   8.262  0.3871 -0.5032  0.7852
  670MOL0     H90424   9.806   7.282   8.468 -0.7182 -0.3444 -0.4711
  670MOL0     H90425   9.775   7.117   8.413 -1.0991  0.6105  1.2595
  670MOL0     H90426  10.055   7.215   8.520  0.2968  0.2322  0.9465
  670MOL0     H90427  10.006   7.052   8.466  1.5112  1.1161 -0.4585
  670MOL0     H90428   9.886   7.024   8.691 -0.9353  0.2652 -1.7669
  670MOL0     H90429  10.023   7.129   8.731  0.8311 -3.5857 -0.5037
  670MOL0     H90430   9.901   7.140   7.585  0.0885  1.8481 -1.9820
  670MOL0     H90431   9.848   7.132   7.355 -0.0438  1.3682  1.8668
  670MOL0     H90432   9.574   6.988   7.020  0.9377 -1.0629  2.0103
  670MOL0     H90433   9.544   6.991   6.784 -0.9047 -1.1864 -0.7973
  670MOL0     H90434   9.924   7.467   5.380  1.0588 -0.9723  0.9530
  670MOL0     H90435   9.840   7.696   5.419 -0.7208  2.5539  2.4624
  670MOL0     H90436   9.578   7.994   5.684  1.2946 -0.9523  0.8326
  670MOL0     H90437   9.491   8.235   5.712  0.0621 -2.0025  1.8726
  670MOL0     H90438   9.449   8.427   5.742 -0.8678  1.5042  1.1770
  670MOL0     H90439   9.456   8.473   5.573  0.5017  1.4636  0.3339
  670MOL0     H90440   9.547   8.638   5.811  0.9479 -1.8517 -0.3201
  670MOL0     H90441   9.409   8.669   5.719  0.4794  0.9123  1.2629
  670MOL0     H90442   9.577   8.686   5.503 -3.2692  1.1717  0.2832
  670MOL0     H90443   9.697   8.671   5.628 -0.4732 -0.4524  3.5083
  670MOL0     H90444   9.589   8.885   5.731  0.0320 -0.2871 -0.2080
  670MOL0     H90445   9.672   8.901   5.583  1.1578 -2.9652  2.3798
  670MOL0     H90446   9.304   9.067   5.480  1.2200  0.0178  0.0631
  670MOL0     H90447   9.864   8.374   5.551  2.8981 -1.3772  3.3133
  670MOL0     H90448  10.071   8.111   5.565 -0.4262  2.0778  1.3819
  670MOL0     H90449   9.977   8.067   5.412 -3.2644  1.1008  1.0724
  670MOL0     H90450  10.025   8.235   5.451 -1.1605  0.4015  0.1447
  671MOL0     O90451   7.683   9.614   3.916  0.1815 -0.3330  0.8065
  671MOL0     C90452   7.566   9.641   3.916 -0.5492  0.3466  0.2429
  671MOL0     O90453   7.487   9.664   3.813  0.6910 -0.1329  0.9593
  671MOL0     C90454   7.546   9.691   3.692 -0.3016  0.3615 -0.6459
  671MOL0     C90455   7.626   9.807   3.681 -0.2551  0.7360  0.3567
  671MOL0     C90456   7.692   9.843   3.560 -0.3471  0.4970  0.5313
  671MOL0     C90457   7.665   9.766   3.442 -0.0631  0.1493  0.3647
  671MOL0     O90458   7.741   9.784   3.331  0.1716 -0.3696 -0.9707
  671MOL0     C90459   7.760   9.660   3.257 -0.0508 -0.1366  0.8800
  671MOL0     C90460   7.885   9.690   3.167  0.3897 -0.2276 -0.9396
  671MOL0     C90461   8.020   9.700   3.252 -0.7766 -0.1503  1.2563
  671MOL0     C90462   8.089   9.832   3.234 -0.0579 -0.2519  0.4057
  671MOL0     C90463   8.148   9.864   3.097 -0.5892  0.1435  0.0768
  671MOL0     C90464   8.191  10.012   3.111 -0.0777 -0.3245  0.3677
  671MOL0     C90465   8.266  10.048   2.982  0.9292  0.0193 -0.7283
  671MOL0     C90466   8.181  10.080   2.865 -0.0368 -0.2020  0.5362
  671MOL0     N90467   8.250  10.158   2.758  0.4825 -0.3495 -0.3949
  671MOL0     C90468   8.327  10.109   2.652 -0.6075 -0.7647  0.2350
  671MOL0     C90469   8.348  10.218   2.577  0.3496 -0.1355 -0.3700
  671MOL0     C90470   8.405  10.219   2.440 -0.3039  0.2223  0.2824
  671MOL0     C90471   8.520  10.327   2.438 -0.0591 -0.3632 -0.1059
  671MOL0     C90472   8.618  10.313   2.312  0.0559 -0.9174  0.0195
  671MOL0     C90473   8.713  10.184   2.315 -0.1095 -1.3774 -0.0141
  671MOL0     O90474   8.794  10.181   2.433 -0.1729 -0.1531 -0.6979
  671MOL0     C90475   8.922  10.157   2.404  0.6362  0.3725 -0.4107
  671MOL0     C90476   8.994  10.046   2.442  0.2170  0.0132 -0.2393
  671MOL0     C90477   9.123  10.011   2.415  0.5429 -0.6548  0.2744
  671MOL0     C90478   9.196  10.109   2.343  0.7409 -0.0480  1.2979
  671MOL0     C90479   9.339  10.081   2.314 -0.4006 -0.6588  0.9079
  671MOL0     O90480   9.365   9.946   2.332 -0.1652  0.2619  0.0518
  671MOL0     C90481   9.497   9.903   2.295  0.3447  0.9787 -1.1070
  671MOL0     C90482   9.625   9.969   2.289  0.1529  0.4064  0.6547
  671MOL0     C90483   9.747   9.896   2.284 -0.4942 -0.0524  0.4609
  671MOL0     C90484   9.742   9.756   2.259 -0.3001 -0.4925  0.1810
  671MOL0     O90485   9.848   9.673   2.252 -0.7539 -0.5942 -1.5764
  671MOL0     C90486   9.977   9.726   2.220  0.0970  0.0096 -0.9600
  671MOL0     C90487  10.081   9.615   2.206  1.1919 -0.1212  0.1505
  671MOL0     C90488  10.105   9.537   2.333 -0.8442 -0.4737  0.0670
  671MOL0     C90489  10.199   9.419   2.316  1.1427  0.0702 -0.0729
  671MOL0     C90490  10.216   9.352   2.447  1.4533 -0.4522 -0.5074
  671MOL0     C90491  10.290   9.223   2.427 -0.2074  0.4913  0.6499
  671MOL0     C90492  10.295   9.133   2.557  0.1253  0.4508  1.3223
  671MOL0     C90493  10.350   9.192   2.687 -0.0797 -0.5124  0.4756
  671MOL0    Cl90494  10.394   9.049   2.788 -0.1707 -0.0292 -0.6185
  671MOL0     C90495   9.616   9.700   2.267 -0.8151 -0.1703  0.2255
  671MOL0     C90496   9.503   9.765   2.278  0.3513 -0.2818 -0.2448
  671MOL0     O90497   9.417  10.173   2.286 -0.8571 -0.8521 -0.4785
  671MOL0     C90498   9.136  10.235   2.314 -0.0466  0.5194 -0.3192
  671MOL0     C90499   9.000  10.260   2.358 -0.3168 -0.9763 -0.2674
  671MOL0     N90500   8.295  10.329   2.644  0.3025 -0.1771  0.5501
  671MOL0     N90501   8.234  10.288   2.742  0.0575 -0.2990  0.5300
  671MOL0     C90502   7.575   9.662   3.456  0.7915  0.8689 -0.3905
  671MOL0     C90503   7.516   9.616   3.578 -0.1973  0.7425  0.4189
  671MOL0     C90504   7.484   9.634   4.036 -0.8270  0.3547 -0.0260
  671MOL0     C90505   7.351   9.585   4.023 -0.1848  0.8212 -0.3718
  671MOL0     C90506   7.273   9.571   4.139  0.7316  0.4797 -0.0145
  671MOL0     C90507   7.320   9.610   4.270  1.0067  1.5306 -0.2368
  671MOL0     O90508   7.262   9.601   4.403  0.2316  0.7796  0.4311
  671MOL0     C90509   7.118   9.594   4.421  0.0088  0.2984 -0.8411
  671MOL0     C90510   7.094   9.579   4.572 -0.1558  0.0431  0.1252
  671MOL0     C90511   6.954   9.527   4.611  0.5159 -1.0702 -0.9714
  671MOL0     C90512   6.941   9.478   4.755 -0.0274  0.6900  0.1512
  671MOL0     C90513   6.931   9.569   4.870  0.1189 -0.2624  0.6123
  671MOL0     C90514   6.928   9.640   4.970 -0.2538  0.2258  0.0243
  671MOL0     C90515   7.442   9.678   4.270  0.2434  0.4703 -0.2841
  671MOL0     C90516   7.531   9.682   4.159 -0.2005  0.3592 -0.3963
  671MOL0     C90517   7.663   9.752   4.174  0.2613 -0.0488 -0.0099
  671MOL0     H90518   7.649   9.862   3.771  0.4577  0.9052  0.0726
  671MOL0     H90519   7.763   9.925   3.557  0.0858  0.1127 -0.8230
  671MOL0     H90520   7.785   9.568   3.310  2.7373  0.0480  0.0188
  671MOL0     H90521   7.682   9.645   3.182  1.6270 -2.8769 -0.4769
  671MOL0     H90522   7.855   9.777   3.108 -3.4535  0.6108  1.8462
  671MOL0     H90523   7.893   9.613   3.090 -0.5981 -1.4132  0.1043
  671MOL0     H90524   8.084   9.614   3.228  3.2486  2.3870  1.9755
  671MOL0     H90525   7.994   9.707   3.358  1.0161  4.4327  1.6141
  671MOL0     H90526   8.006   9.901   3.252 -0.0741 -0.4510  1.1381
  671MOL0     H90527   8.169   9.848   3.307  0.7764  0.2490 -0.6066
  671MOL0     H90528   8.235   9.799   3.088 -1.6636 -1.4261  0.6741
  671MOL0     H90529   8.083   9.842   3.012 -1.3280  0.8984  0.4285
  671MOL0     H90530   8.104  10.077   3.128 -0.3578 -1.1868  2.5678
  671MOL0     H90531   8.253  10.035   3.198 -0.5991 -1.2782  1.0091
  671MOL0     H90532   8.336   9.965   2.974  0.9800 -0.1537  1.0209
  671MOL0     H90533   8.325  10.140   2.990 -0.4720  0.9312 -0.4593
  671MOL0     H90534   8.143   9.985   2.828  0.7059 -0.1073 -0.5249
  671MOL0     H90535   8.103  10.146   2.904  0.3433  1.0051 -0.6683
  671MOL0     H90536   8.349  10.006   2.626  1.3707 -0.3283  0.0242
  671MOL0     H90537   8.437  10.119   2.409 -2.7728  0.2387 -2.7892
  671MOL0     H90538   8.322  10.249   2.375 -3.0556 -1.6838  2.6206
  671MOL0     H90539   8.460  10.416   2.414  2.1628  0.7686 -1.8148
  671MOL0     H90540   8.565  10.325   2.537 -3.3819  2.7058  1.7203
  671MOL0     H90541   8.691  10.393   2.302  0.1443 -0.6293  2.3316
  671MOL0     H90542   8.556  10.309   2.222 -1.1209  2.2738  0.5362
  671MOL0     H90543   8.760  10.179   2.217 -1.1676  1.8787 -0.7972
  671MOL0     H90544   8.651  10.094   2.321 -2.3671 -0.0829 -1.9705
  671MOL0     H90545   8.942   9.971   2.501 -1.0037  1.0247  0.0114
  671MOL0     H90546   9.167   9.916   2.445  0.8493 -0.8803 -0.8474
  671MOL0     H90547   9.624  10.076   2.311 -0.2357  0.8788 -1.4188
  671MOL0     H90548   9.847   9.939   2.287 -0.8716  1.0264 -1.0426
  671MOL0     H90549   9.967   9.786   2.129  1.9860  2.3496  0.2957
  671MOL0     H90550  10.013   9.786   2.304 -1.0224 -1.5672  0.7176
  671MOL0     H90551  10.040   9.542   2.136 -0.8532  0.7187  0.4096
  671MOL0     H90552  10.169   9.667   2.166  1.0040 -0.2391 -0.4289
  671MOL0     H90553  10.162   9.603   2.400 -2.4940  4.8139 -3.1675
  671MOL0     H90554  10.022   9.504   2.397  0.7496 -0.2474  2.3744
  671MOL0     H90555  10.292   9.453   2.270  0.5426  1.1249 -0.5441
  671MOL0     H90556  10.148   9.343   2.257  1.7466 -1.1419  0.9015
  671MOL0     H90557  10.115   9.336   2.484  1.1707 -0.4072 -1.2500
  671MOL0     H90558  10.262   9.417   2.522 -3.2955  1.1894  1.3667
  671MOL0     H90559  10.243   9.162   2.350  1.8777  1.7338 -1.7517
  671MOL0     H90560  10.390   9.246   2.389 -0.0067  0.5734  1.2224
  671MOL0     H90561  10.358   9.050   2.523 -1.8841 -0.7367  0.3655
  671MOL0     H90562  10.195   9.095   2.579 -0.3850  1.0982  0.2338
  671MOL0     H90563  10.438   9.245   2.649 -1.3657  0.4636 -1.2846
  671MOL0     H90564  10.278   9.262   2.730 -1.4093 -0.2284 -2.0015
  671MOL0     H90565   9.600   9.592   2.259 -2.3621  0.0690 -0.3078
  671MOL0     H90566   9.403   9.724   2.271 -0.3655  1.4759 -0.8791
  671MOL0     H90567   9.191  10.311   2.260  0.2493  1.6906  1.5297
  671MOL0     H90568   8.960  10.360   2.348  0.8139  0.2376  4.5252
  671MOL0     H90569   7.550   9.610   3.364  1.5693  1.2768 -0.8372
  671MOL0     H90570   7.450   9.530   3.576  2.0098 -1.2120 -4.6000
  671MOL0     H90571   7.319   9.527   3.937  1.9195 -1.4886  0.2918
  671MOL0     H90572   7.173   9.530   4.127  1.1552 -0.6029  0.0415
  671MOL0     H90573   7.081   9.519   4.350 -0.9021 -0.4469  0.3709
  671MOL0     H90574   7.064   9.681   4.382 -2.1777 -0.1928  0.8974
  671MOL0     H90575   7.125   9.673   4.619  2.0419  1.4719 -3.7836
  671MOL0     H90576   7.167   9.508   4.611 -0.5850 -1.8087 -2.2380
  671MOL0     H90577   6.927   9.438   4.553  1.6020 -1.4135 -0.9861
  671MOL0     H90578   6.870   9.595   4.598 -2.6545 -4.1838  1.3475
  671MOL0     H90579   6.856   9.410   4.766  2.0950 -1.7300  3.7799
  671MOL0     H90580   7.030   9.420   4.780  0.1318  0.8233 -0.1017
  671MOL0     H90581   6.919   9.681   5.069 -2.4659 -3.6910  1.6820
  671MOL0     H90582   7.480   9.729   4.358  1.0085 -0.2993 -0.1604
  671MOL0     H90583   7.703   9.763   4.276  0.5481  3.3124 -0.3666
  671MOL0     H90584   7.737   9.694   4.119  1.2225 -0.9214  2.0835
  671MOL0     H90585   7.662   9.854   4.134  2.1676  0.6289  1.4894
  672MOL0     O90586   8.443  10.674   4.503  0.0730 -0.2139 -0.5653
  672MOL0     C90587   8.456  10.629   4.388  0.7094 -0.5762  0.2741
  672MOL0     O90588   8.441  10.497   4.350  0.0393  0.7750  0.8792
  672MOL0     C90589   8.398  10.392   4.429  0.6169 -0.5774 -0.0882
  672MOL0     C90590   8.338  10.420   4.555  0.0251 -1.1157  0.0258
  672MOL0     C90591   8.300  10.325   4.644 -0.1264  0.3600 -0.4522
  672MOL0     C90592   8.335  10.193   4.617 -0.0540 -0.9432  0.4775
  672MOL0     O90593   8.315  10.092   4.706  0.4307 -0.3533  0.5178
  672MOL0     C90594   8.185  10.101   4.764  0.0615 -0.9837 -0.3344
  672MOL0     C90595   8.144   9.967   4.821  0.0577  0.1824 -0.1028
  672MOL0     C90596   8.178   9.855   4.722  0.3037 -0.7429 -0.4660
  672MOL0     C90597   8.149   9.714   4.757 -0.3164  0.2300 -0.2857
  672MOL0     C90598   8.185   9.626   4.629  0.1273  0.8171 -0.1432
  672MOL0     C90599   8.160   9.473   4.645  0.7255  0.1151  0.6856
  672MOL0     C90600   8.224   9.405   4.525 -0.0119  0.2140 -0.1593
  672MOL0     C90601   8.196   9.256   4.542  0.6669  0.0970 -0.4752
  672MOL0     N90602   8.215   9.177   4.417  0.2035  0.7006  0.4135
  672MOL0     C90603   8.149   9.184   4.293 -0.4591 -0.5973  0.3237
  672MOL0     C90604   8.235   9.114   4.212  0.5521 -0.0934  0.3210
  672MOL0     C90605   8.202   9.093   4.061  1.3533 -0.1159  0.5499
  672MOL0     C90606   8.070   9.005   4.022 -0.8867 -0.5214 -0.4110
  672MOL0     C90607   7.945   9.043   4.110 -0.3758 -0.7927  0.6678
  672MOL0     C90608   7.812   8.992   4.036 -0.0550 -0.6981  0.1509
  672MOL0     O90609   7.803   8.848   4.075  0.1348  0.1114 -0.2794
  672MOL0     C90610   7.702   8.779   4.022 -0.3806  0.5513  0.4823
  672MOL0     C90611   7.588   8.841   3.960  0.4649  0.1450 -0.6161
  672MOL0     C90612   7.482   8.764   3.904 -0.6191 -0.0239 -0.1662
  672MOL0     C90613   7.494   8.625   3.908  0.1124 -0.1559  0.3035
  672MOL0     C90614   7.384   8.543   3.845  0.0708 -0.0107 -0.1467
  672MOL0     O90615   7.403   8.410   3.847 -0.9845  0.1472 -0.5728
  672MOL0     C90616   7.291   8.327   3.839 -0.0767  0.7645  0.2391
  672MOL0     C90617   7.223   8.309   3.957  0.2611 -0.2723 -0.3806
  672MOL0     C90618   7.091   8.262   3.959  0.7550 -0.7122 -0.3229
  672MOL0     C90619   7.036   8.194   3.852 -0.1027 -0.2799  0.1854
  672MOL0     O90620   6.919   8.140   3.878  0.4302 -0.3894 -0.9455
  672MOL0     C90621   6.874   8.036   3.792  0.0690 -0.1951  0.1456
  672MOL0     C90622   6.764   7.941   3.837 -0.0476 -0.6774  0.0637
  672MOL0     C90623   6.720   7.959   3.980  0.2450 -0.3030 -0.4543
  672MOL0     C90624   6.627   8.079   4.002  0.5814  0.5016 -0.0741
  672MOL0     C90625   6.540   8.055   4.130  0.0049  0.3961  0.4981
  672MOL0     C90626   6.428   8.157   4.138  0.1875  0.0857 -0.5802
  672MOL0     C90627   6.494   8.292   4.191  0.8560 -0.2581 -0.5898
  672MOL0     C90628   6.396   8.411   4.189  0.1727 -0.5555  0.5644
  672MOL0    Cl90629   6.350   8.452   4.012  0.1330  0.2219  0.1438
  672MOL0     C90630   7.108   8.203   3.729 -0.2366  0.2720 -1.1153
  672MOL0     C90631   7.234   8.264   3.728 -0.5745 -0.2835 -0.1786
  672MOL0     O90632   7.278   8.599   3.819  0.4573 -0.2478  0.5080
  672MOL0     C90633   7.601   8.563   3.985 -0.1123 -0.7126 -0.0012
  672MOL0     C90634   7.710   8.638   4.030 -0.5419 -0.5697 -0.4629
  672MOL0     N90635   8.341   9.074   4.285  0.1600  0.5548  0.4295
  672MOL0     N90636   8.334   9.105   4.406  0.3675  0.2120  0.5302
  672MOL0     C90637   8.400  10.160   4.492  0.1522 -0.5892 -0.7282
  672MOL0     C90638   8.438  10.257   4.395 -0.4123  0.2317  0.6763
  672MOL0     C90639   8.506  10.717   4.287 -0.2908  0.2969  0.6313
  672MOL0     C90640   8.584  10.826   4.325  0.4286  0.9978 -0.7656
  672MOL0     C90641   8.638  10.920   4.228 -0.0213 -0.2475  0.8102
  672MOL0     C90642   8.608  10.900   4.089  0.3281 -0.2513 -0.3702
  672MOL0     O90643   8.662  10.997   4.002 -0.3343  0.1710  0.3936
  672MOL0     C90644   8.598  11.039   3.886  0.8916  0.3269 -0.0679
  672MOL0     C90645   8.690  11.124   3.793  0.2921 -0.0505 -1.1522
  672MOL0     C90646   8.804  11.063   3.716 -0.7933  0.0364 -0.0797
  672MOL0     C90647   8.916  11.021   3.789 -0.5133 -0.1057  0.4939
  672MOL0     C90648   8.910  10.889   3.857 -0.7185 -0.1844  0.4606
  672MOL0     C90649   8.906  10.779   3.903  0.1945 -0.8948  0.1234
  672MOL0     C90650   8.523  10.794   4.047  0.8572 -0.7786 -0.0118
  672MOL0     C90651   8.474  10.704   4.142  0.3359  0.7131  0.9572
  672MOL0     C90652   8.384  10.590   4.091  0.7198 -0.1020  0.4033
  672MOL0     H90653   8.319  10.514   4.605  3.6505 -2.2994  4.3327
  672MOL0     H90654   8.248  10.354   4.735  1.3856  1.1214  0.2084
  672MOL0     H90655   8.169  10.174   4.843 -0.8309  0.4993 -1.8178
  672MOL0     H90656   8.119  10.115   4.678 -1.3014 -4.0867  0.0522
  672MOL0     H90657   8.041   9.971   4.855  0.8055  2.2672  2.2105
  672MOL0     H90658   8.194   9.947   4.917 -4.9571 -3.6650  2.1843
  672MOL0     H90659   8.286   9.854   4.704  0.7209 -2.8061  1.6316
  672MOL0     H90660   8.128   9.885   4.629  0.7788  2.5241  0.2451
  672MOL0     H90661   8.212   9.697   4.845  1.0117  2.0565 -0.8368
  672MOL0     H90662   8.046   9.699   4.790 -0.1006  1.0875  0.8399
  672MOL0     H90663   8.118   9.653   4.546 -1.1162  0.7731  0.8154
  672MOL0     H90664   8.288   9.647   4.601  0.0730 -1.9265 -3.0488
  672MOL0     H90665   8.184   9.430   4.743 -1.0337  0.9760  1.5486
  672MOL0     H90666   8.053   9.452   4.634  0.8074 -0.3127  0.6652
  672MOL0     H90667   8.331   9.426   4.522  0.1201 -0.0889  1.5809
  672MOL0     H90668   8.191   9.442   4.427  3.1744  0.2932 -1.3144
  672MOL0     H90669   8.277   9.224   4.608 -2.0568 -1.1327  2.5477
  672MOL0     H90670   8.100   9.232   4.589  2.2018 -1.6612  2.0182
  672MOL0     H90671   8.058   9.237   4.269 -0.2222 -1.0481 -1.8227
  672MOL0     H90672   8.172   9.188   4.015  2.9745 -0.8741 -2.2794
  672MOL0     H90673   8.298   9.057   4.022  1.0617 -1.4675  1.0413
  672MOL0     H90674   8.052   9.022   3.915 -2.0514 -1.3112 -0.3607
  672MOL0     H90675   8.080   8.899   4.050 -3.3974 -0.2082  2.0709
  672MOL0     H90676   7.935   9.152   4.118 -0.9929 -0.6535 -1.4874
  672MOL0     H90677   7.960   9.010   4.214  2.1723  0.1218  0.6658
  672MOL0     H90678   7.816   9.014   3.929  1.1309  0.3239  0.3768
  672MOL0     H90679   7.732   9.053   4.078  1.5455  2.8118 -1.4656
  672MOL0     H90680   7.580   8.949   3.961 -3.1973 -0.0087 -0.0502
  672MOL0     H90681   7.394   8.808   3.859 -0.4016 -1.2000 -1.8128
  672MOL0     H90682   7.255   8.366   4.044 -2.9429 -1.0170  1.4471
  672MOL0     H90683   7.041   8.239   4.052  1.3779 -3.2119 -0.5331
  672MOL0     H90684   6.843   8.085   3.700  2.7712  0.1680 -0.6373
  672MOL0     H90685   6.960   7.976   3.761 -1.4941 -1.6629 -1.5786
  672MOL0     H90686   6.682   7.938   3.764  1.0477  1.1312 -1.3411
  672MOL0     H90687   6.796   7.837   3.829 -0.0836 -0.5543 -2.7645
  672MOL0     H90688   6.657   7.872   4.001 -2.7547  1.4750 -1.4862
  672MOL0     H90689   6.796   7.968   4.058  0.4240  0.0058 -0.6626
  672MOL0     H90690   6.565   8.084   3.912  0.0801 -3.8741 -0.2141
  672MOL0     H90691   6.675   8.177   4.008  1.0191  0.3837 -1.2780
  672MOL0     H90692   6.601   8.053   4.221 -0.7516  3.6460  1.2039
  672MOL0     H90693   6.484   7.961   4.136 -0.5271  0.6470 -0.4091
  672MOL0     H90694   6.377   8.172   4.042 -1.7766  0.6675  0.4982
  672MOL0     H90695   6.355   8.115   4.208  1.5881 -0.4119  0.6193
  672MOL0     H90696   6.588   8.322   4.144  2.1813  0.7700  2.4413
  672MOL0     H90697   6.514   8.276   4.297 -1.4471  1.3222  0.1616
  672MOL0     H90698   6.316   8.374   4.253 -1.8185  0.4366 -1.2341
  672MOL0     H90699   6.439   8.502   4.231 -2.0283 -0.1103  2.0280
  672MOL0     H90700   7.053   8.171   3.642 -3.0022  2.3807 -0.3074
  672MOL0     H90701   7.304   8.273   3.646  1.3407 -0.6544  1.3368
  672MOL0     H90702   7.609   8.457   4.009 -1.1882 -1.1494 -1.4429
  672MOL0     H90703   7.782   8.592   4.096 -0.0525  1.6305  0.6266
  672MOL0     H90704   8.445  10.062   4.482  1.7134 -0.0157  0.2837
  672MOL0     H90705   8.496  10.225   4.309  0.5860  0.1075  1.3815
  672MOL0     H90706   8.599  10.856   4.429  0.9301  2.2750 -1.1797
  672MOL0     H90707   8.705  10.998   4.262  0.9820 -1.6103  2.1384
  672MOL0     H90708   8.504  11.091   3.906  1.3981  1.1511  0.2342
  672MOL0     H90709   8.564  10.949   3.834 -1.4996  0.1891  1.5831
  672MOL0     H90710   8.715  11.201   3.867 -0.2408 -2.4752  1.7727
  672MOL0     H90711   8.641  11.180   3.714 -0.2277 -0.6301 -1.2506
  672MOL0     H90712   8.833  11.147   3.652 -0.1590  2.1090  2.7261
  672MOL0     H90713   8.773  10.976   3.658 -1.7768  0.4540 -0.2127
  672MOL0     H90714   8.995  11.013   3.713 -0.9586 -1.1773  0.1374
  672MOL0     H90715   8.939  11.093   3.868  1.2897  0.0972 -0.1621
  672MOL0     H90716   8.909  10.678   3.938 -1.8686 -0.4537  1.7530
  672MOL0     H90717   8.494  10.766   3.946 -0.7969  2.1019 -0.4447
  672MOL0     H90718   8.367  10.602   3.984  1.8132 -3.2078 -0.2192
  672MOL0     H90719   8.429  10.492   4.111  1.5087 -0.0437 -1.0253
  672MOL0     H90720   8.285  10.602   4.137 -0.6628 -0.4222 -2.2761
  673MOL0     O90721   9.291   8.834   6.813 -0.0036  0.9477  0.5469
  673MOL0     C90722   9.278   8.759   6.913 -0.2776  1.5150 -0.6559
  673MOL0     O90723   9.266   8.808   7.043  0.5163  1.2369 -0.5854
  673MOL0     C90724   9.303   8.943   7.063 -0.3803  1.2792  0.8860
  673MOL0     C90725   9.417   8.981   6.995  0.1759 -1.3335 -0.2278
  673MOL0     C90726   9.456   9.124   6.978 -0.4629  0.4320 -0.0737
  673MOL0     C90727   9.387   9.217   7.051  0.1873  0.2517  1.0672
  673MOL0     O90728   9.420   9.346   7.054 -0.0953 -1.2077  0.3765
  673MOL0     C90729   9.538   9.384   7.131  0.6958  0.2209 -0.4775
  673MOL0     C90730   9.586   9.532   7.129 -0.0950  1.2971  1.0677
  673MOL0     C90731   9.465   9.627   7.158 -0.0135 -0.8292 -0.2176
  673MOL0     C90732   9.500   9.772   7.161  0.2671 -0.8873  0.1773
  673MOL0     C90733   9.377   9.857   7.222 -0.6472 -0.5972  0.6311
  673MOL0     C90734   9.424  10.007   7.221  0.1130  0.1590  0.1394
  673MOL0     C90735   9.414  10.066   7.085  0.4288 -0.3021 -0.1202
  673MOL0     C90736   9.464  10.210   7.083  0.4722  0.3755 -1.2474
  673MOL0     N90737   9.457  10.271   6.949 -0.0408 -0.7799 -0.3381
  673MOL0     C90738   9.541  10.241   6.850 -0.3201 -0.2536  0.4352
  673MOL0     C90739   9.524  10.337   6.757  0.0903  0.2347  0.7677
  673MOL0     C90740   9.593  10.342   6.619 -0.4157 -0.5262 -0.1452
  673MOL0     C90741   9.524  10.450   6.532  0.1975  0.6970 -0.8489
  673MOL0     C90742   9.379  10.419   6.505  0.9201 -0.9570  0.9441
  673MOL0     C90743   9.301  10.534   6.433 -0.5504  0.0896  0.4299
  673MOL0     O90744   9.386  10.596   6.333  0.4067 -0.3191  0.1027
  673MOL0     C90745   9.329  10.713   6.300  0.4671  0.5819 -1.3049
  673MOL0     C90746   9.377  10.831   6.354 -1.1600 -0.2793 -0.1554
  673MOL0     C90747   9.316  10.956   6.306 -0.7856  0.6637 -0.2084
  673MOL0     C90748   9.193  10.958   6.230 -0.4647  0.6908  0.2204
  673MOL0     C90749   9.133  11.080   6.212  0.0975  0.2361 -0.0606
  673MOL0     O90750   9.038  11.090   6.102 -0.4230 -0.0186  0.1248
  673MOL0     C90751   8.976  11.214   6.100 -0.5576  0.8401 -0.8543
  673MOL0     C90752   8.836  11.226   6.120 -0.6972  0.5222 -0.2170
  673MOL0     C90753   8.775  11.345   6.091  0.1946  0.5226 -0.4408
  673MOL0     C90754   8.845  11.469   6.091 -0.4236 -0.4832  0.4836
  673MOL0     O90755   8.766  11.580   6.080  0.6654  0.5519 -0.3835
  673MOL0     C90756   8.824  11.714   6.088 -0.4664  0.0060 -0.0842
  673MOL0     C90757   8.753  11.817   5.994 -0.8274 -1.4210 -0.7575
  673MOL0     C90758   8.614  11.848   6.047  0.0549 -0.1485 -0.6327
  673MOL0     C90759   8.551  11.980   5.997 -0.3682 -0.1379  0.3723
  673MOL0     C90760   8.558  12.088   6.102 -0.1189  0.4647 -0.8309
  673MOL0     C90761   8.491  12.226   6.052  1.0107  0.1719 -0.6931
  673MOL0     C90762   8.486  12.330   6.168 -0.5583 -0.1223 -0.0800
  673MOL0     C90763   8.360  12.371   6.233 -0.3209 -0.1760  0.2065
  673MOL0    Cl90764   8.383  12.353   6.407 -0.5711  0.3272 -0.3026
  673MOL0     C90765   8.985  11.454   6.078  0.0780 -0.8755  0.3439
  673MOL0     C90766   9.050  11.334   6.063  0.9965  0.8975 -0.1015
  673MOL0     O90767   9.178  11.179   6.271  0.0927  0.8058 -1.0326
  673MOL0     C90768   9.141  10.837   6.191 -0.1630  0.5753 -1.2273
  673MOL0     C90769   9.218  10.723   6.219 -0.2293  0.5422  0.0884
  673MOL0     N90770   9.436  10.430   6.811  0.3103 -0.4680  0.4644
  673MOL0     N90771   9.410  10.392   6.923 -0.1642 -1.1232 -0.4354
  673MOL0     C90772   9.276   9.172   7.128 -0.5811  0.2019  0.0841
  673MOL0     C90773   9.239   9.036   7.135 -0.4278  0.4134  0.3267
  673MOL0     C90774   9.276   8.608   6.889 -0.4813 -0.2956 -0.0326
  673MOL0     C90775   9.321   8.552   6.764  0.0496 -0.3323  0.3136
  673MOL0     C90776   9.343   8.416   6.755  0.3741 -0.1001 -0.3970
  673MOL0     C90777   9.310   8.327   6.855  0.0005 -0.5260 -0.1067
  673MOL0     O90778   9.313   8.191   6.840  0.3941 -0.2750 -0.3864
  673MOL0     C90779   9.401   8.134   6.736  1.4381  1.1618 -0.6652
  673MOL0     C90780   9.318   8.111   6.611  0.3852 -1.0733  0.3557
  673MOL0     C90781   9.229   7.998   6.620  0.4102 -0.3866  0.5788
  673MOL0     C90782   9.220   7.904   6.500 -0.3888 -0.1088 -0.4831
  673MOL0     C90783   9.136   7.973   6.399 -0.4614 -0.1855  0.6753
  673MOL0     C90784   9.072   8.026   6.306 -0.1082  0.5614 -0.0005
  673MOL0     C90785   9.249   8.380   6.961 -0.7630  0.2734 -0.0967
  673MOL0     C90786   9.223   8.523   6.981 -0.4940 -0.6279  0.4076
  673MOL0     C90787   9.157   8.550   7.105 -0.8133  0.0208  0.2644
  673MOL0     H90788   9.474   8.906   6.940 -0.7811 -1.5706 -0.9235
  673MOL0     H90789   9.550   9.141   6.926  1.2099  2.7216  3.3669
  673MOL0     H90790   9.507   9.372   7.235 -0.8501  0.7850 -0.8527
  673MOL0     H90791   9.628   9.327   7.107  0.8712 -0.4551  1.6337
  673MOL0     H90792   9.631   9.544   7.030  3.7695 -3.6882  1.7503
  673MOL0     H90793   9.666   9.541   7.203  3.0927 -0.6882 -1.8279
  673MOL0     H90794   9.422   9.597   7.254  1.6129  1.7926  1.4533
  673MOL0     H90795   9.399   9.611   7.072 -1.0637  3.3124 -0.4380
  673MOL0     H90796   9.590   9.789   7.221  1.8090 -1.0044 -1.9717
  673MOL0     H90797   9.526   9.798   7.058  0.7135  0.0829  0.5245
  673MOL0     H90798   9.289   9.827   7.164  1.0101 -1.4696 -1.5766
  673MOL0     H90799   9.364   9.831   7.328  1.4713 -1.7082  0.6787
  673MOL0     H90800   9.355  10.064   7.283 -0.6283 -0.2467 -0.3062
  673MOL0     H90801   9.528  10.017   7.254  0.6518 -0.0582 -1.3910
  673MOL0     H90802   9.309  10.052   7.054  0.2404  1.5337 -0.3952
  673MOL0     H90803   9.477  10.003   7.022 -0.7519 -0.9107 -0.7466
  673MOL0     H90804   9.413  10.276   7.154  0.9124  0.0787 -0.6494
  673MOL0     H90805   9.569  10.220   7.112  0.0690  6.5982 -0.5157
  673MOL0     H90806   9.597  10.148   6.841  1.5287  0.2387  4.5880
  673MOL0     H90807   9.698  10.366   6.640 -1.3936  2.8608  1.4593
  673MOL0     H90808   9.595  10.244   6.570 -3.8537 -1.1703  0.7345
  673MOL0     H90809   9.543  10.550   6.572  2.5253  1.3285 -3.2321
  673MOL0     H90810   9.558  10.457   6.428 -2.1691 -1.8932 -1.9379
  673MOL0     H90811   9.324  10.387   6.594 -0.1548  1.8421  1.3946
  673MOL0     H90812   9.366  10.338   6.432 -0.9662  0.5507 -0.5256
  673MOL0     H90813   9.282  10.595   6.522 -0.2848 -2.1476  2.0939
  673MOL0     H90814   9.208  10.504   6.383  0.1221 -0.6540 -0.4033
  673MOL0     H90815   9.467  10.826   6.414 -0.1699 -0.3555 -1.5844
  673MOL0     H90816   9.358  11.053   6.332  0.5452 -0.2093  1.0388
  673MOL0     H90817   8.778  11.135   6.116  2.9816 -2.0152 -1.2904
  673MOL0     H90818   8.667  11.352   6.082 -0.3463 -3.6219  0.4996
  673MOL0     H90819   8.828  11.743   6.193 -0.3316  1.6812 -0.5286
  673MOL0     H90820   8.929  11.708   6.059  0.2171 -1.3004  2.3424
  673MOL0     H90821   8.814  11.907   6.006 -2.3420 -0.3503 -0.8034
  673MOL0     H90822   8.751  11.775   5.893 -0.6009 -3.0284 -0.1206
  673MOL0     H90823   8.540  11.769   6.031 -0.7216 -0.3480  3.0815
  673MOL0     H90824   8.630  11.861   6.155 -2.4459  0.2842 -0.2669
  673MOL0     H90825   8.449  11.955   5.964  1.3594 -2.7563 -3.9836
  673MOL0     H90826   8.617  12.009   5.914 -1.1876  2.9802  0.6776
  673MOL0     H90827   8.662  12.101   6.134 -0.2509 -2.1025  0.9427
  673MOL0     H90828   8.498  12.053   6.187 -0.2395  1.1393 -0.6268
  673MOL0     H90829   8.547  12.275   5.973 -0.6856 -0.5366 -2.4105
  673MOL0     H90830   8.393  12.203   6.009  0.6418  0.5380 -0.0625
  673MOL0     H90831   8.523  12.422   6.122 -2.6982 -0.4538 -2.6884
  673MOL0     H90832   8.556  12.307   6.249  1.1452  5.5711  0.4830
  673MOL0     H90833   8.328  12.471   6.202 -5.8269 -1.1606  1.6515
  673MOL0     H90834   8.274  12.309   6.205 -0.0746 -0.1139 -0.7343
  673MOL0     H90835   9.050  11.538   6.054  0.6793 -1.8273 -1.5529
  673MOL0     H90836   9.157  11.329   6.047  1.1520  2.3817  0.3807
  673MOL0     H90837   9.058  10.818   6.124  0.0663 -0.5423 -1.2098
  673MOL0     H90838   9.183  10.627   6.183 -1.3682  0.6407  0.8791
  673MOL0     H90839   9.215   9.242   7.184 -2.7027 -0.4785 -1.2407
  673MOL0     H90840   9.154   9.011   7.197  0.1720 -0.2664  0.9021
  673MOL0     H90841   9.356   8.612   6.680  2.5991 -1.1285  0.7209
  673MOL0     H90842   9.384   8.393   6.657  1.3224 -0.9268  0.1729
  673MOL0     H90843   9.442   8.041   6.775 -0.1507 -0.3506 -2.3846
  673MOL0     H90844   9.491   8.194   6.715  1.3582  2.4395  2.1824
  673MOL0     H90845   9.385   8.106   6.524 -1.8372  0.3979 -1.5780
  673MOL0     H90846   9.250   8.193   6.589  2.0402  0.0164 -0.9853
  673MOL0     H90847   9.129   8.036   6.643  0.8470  2.1039 -1.2784
  673MOL0     H90848   9.246   7.942   6.713  2.1043 -0.1604  0.4299
  673MOL0     H90849   9.321   7.881   6.466  0.2294  0.3766  0.9580
  673MOL0     H90850   9.172   7.810   6.528 -0.3328 -0.3129 -1.0653
  673MOL0     H90851   9.009   8.069   6.231 -1.8013  2.3515  2.3225
  673MOL0     H90852   9.213   8.303   7.027  2.5077 -1.7974 -0.4866
  673MOL0     H90853   9.076   8.623   7.095 -0.0373  0.8862  0.1344
  673MOL0     H90854   9.112   8.458   7.143 -0.2189  0.6569  2.6888
  673MOL0     H90855   9.221   8.594   7.182 -0.0762  0.6637 -0.6961
  674MOL0     O90856   4.269   8.346  10.186 -0.4241  0.3102 -0.1508
  674MOL0     C90857   4.161   8.398  10.215 -0.6137 -0.0403 -0.0716
  674MOL0     O90858   4.041   8.348  10.187  0.2300  0.2035  0.3794
  674MOL0     C90859   4.026   8.215  10.173 -0.2474  0.0743  1.0717
  674MOL0     C90860   4.112   8.110  10.203 -0.5190 -0.2438 -0.4730
  674MOL0     C90861   4.086   7.973  10.162  0.4333 -0.6023 -0.6282
  674MOL0     C90862   3.977   7.940  10.075 -0.4050 -0.9798 -0.4202
  674MOL0     O90863   3.943   7.807  10.055  0.5287 -0.1409 -0.0873
  674MOL0     C90864   4.052   7.716  10.060  0.3789  1.5718  0.9722
  674MOL0     C90865   4.021   7.574  10.002  0.9454 -0.3413  0.8491
  674MOL0     C90866   3.896   7.503  10.063 -0.3361 -0.1151  0.1496
  674MOL0     C90867   3.901   7.365   9.993  0.2257  0.0914  0.1659
  674MOL0     C90868   3.811   7.371   9.872 -0.2638  1.0780  0.4973
  674MOL0     C90869   3.768   7.228   9.837 -0.1080 -0.1392 -0.9712
  674MOL0     C90870   3.884   7.132   9.801 -0.3718  0.7618 -0.4867
  674MOL0     C90871   3.822   7.005   9.743 -1.0350  0.2168 -0.0182
  674MOL0     N90872   3.937   6.912   9.723  1.2433 -0.5384 -0.4995
  674MOL0     C90873   4.002   6.843   9.817 -0.6881  0.1768  0.3629
  674MOL0     C90874   4.115   6.790   9.757 -0.0353  1.4912  0.4268
  674MOL0     C90875   4.216   6.721   9.843 -0.2036 -0.1166  0.0656
  674MOL0     C90876   4.302   6.819   9.924 -0.1895  0.2582  0.9145
  674MOL0     C90877   4.400   6.895   9.827 -0.1051 -0.7275  0.2967
  674MOL0     C90878   4.498   6.827   9.745  0.6483  0.6862 -0.6467
  674MOL0     O90879   4.586   6.745   9.826 -0.5327 -0.3606 -0.6062
  674MOL0     C90880   4.674   6.664   9.761 -1.6822  0.1284 -0.1715
  674MOL0     C90881   4.698   6.539   9.825  1.1782  0.3764  0.3408
  674MOL0     C90882   4.767   6.442   9.763 -0.1566 -0.0182 -0.0379
  674MOL0     C90883   4.823   6.464   9.634  0.3931 -0.2794 -0.4938
  674MOL0     C90884   4.890   6.354   9.563  0.0480  0.9063 -0.4644
  674MOL0     O90885   4.910   6.251   9.643 -0.2907 -0.1567 -0.1750
  674MOL0     C90886   5.016   6.166   9.605 -0.1871 -0.4453  1.0391
  674MOL0     C90887   4.990   6.059   9.521 -0.7428  0.8909 -0.1690
  674MOL0     C90888   5.088   5.967   9.485 -1.1555 -0.2021  0.0034
  674MOL0     C90889   5.217   5.975   9.529 -0.1093 -0.0671 -0.8460
  674MOL0     O90890   5.303   5.875   9.489  0.2312  0.8243  0.0216
  674MOL0     C90891   5.414   5.918   9.413  0.5453 -0.7993 -0.2217
  674MOL0     C90892   5.367   5.908   9.259 -0.9491  0.6679 -0.7231
  674MOL0     C90893   5.482   5.900   9.158  1.1620  0.0119 -0.4374
  674MOL0     C90894   5.561   6.034   9.143  0.5988 -0.6924  0.4672
  674MOL0     C90895   5.694   6.016   9.064 -0.5727 -0.3233  0.5251
  674MOL0     C90896   5.823   5.943   9.131 -0.5744  0.8683  0.8456
  674MOL0     C90897   5.886   6.036   9.240  0.0517  0.7248 -0.0772
  674MOL0     C90898   6.016   5.964   9.294 -0.6350 -0.8696 -0.8276
  674MOL0    Cl90899   5.963   5.814   9.392 -0.1517 -0.3381 -0.0237
  674MOL0     C90900   5.252   6.081   9.617 -0.0938 -1.1300  0.2670
  674MOL0     C90901   5.155   6.181   9.644  0.6182  0.0649  0.5507
  674MOL0     O90902   4.941   6.373   9.456  0.0014  0.3275 -0.0852
  674MOL0     C90903   4.804   6.592   9.577 -0.1043  0.3599  1.3244
  674MOL0     C90904   4.730   6.688   9.633 -0.2943  0.6161 -0.2086
  674MOL0     N90905   4.108   6.824   9.629 -0.1072 -0.2090 -0.1492
  674MOL0     N90906   3.994   6.885   9.610  0.3338 -0.1898 -0.0933
  674MOL0     C90907   3.892   8.045  10.047 -0.1940 -1.1370  0.2048
  674MOL0     C90908   3.914   8.176  10.101  0.2113 -0.7924  1.2246
  674MOL0     C90909   4.174   8.537  10.274  0.8606 -0.0305  0.2954
  674MOL0     C90910   4.299   8.595  10.295 -0.0310 -0.9741  1.2545
  674MOL0     C90911   4.312   8.712  10.378 -0.3577 -0.5431  0.2398
  674MOL0     C90912   4.209   8.792  10.420  1.3384 -0.4439  0.9286
  674MOL0     O90913   4.222   8.917  10.479  0.5073  0.2447 -0.1070
  674MOL0     C90914   4.347   8.955  10.533 -0.2100 -0.7944  0.2682
  674MOL0     C90915   4.339   9.087  10.614 -0.0743  0.2055  0.0689
  674MOL0     C90916   4.234   9.082  10.720 -0.2076 -0.0337  0.6424
  674MOL0     C90917   4.255   8.993  10.833 -1.0682 -0.0304 -0.5470
  674MOL0     C90918   4.145   9.019  10.932 -0.3079  0.5613  0.9981
  674MOL0     C90919   4.045   9.039  11.008  0.1328  1.2928  0.7280
  674MOL0     C90920   4.084   8.730  10.392  0.0319 -0.1353  0.3997
  674MOL0     C90921   4.069   8.603  10.333 -0.8329 -0.2679  0.3169
  674MOL0     C90922   3.926   8.551  10.354  0.4515  0.4285  1.1676
  674MOL0     H90923   4.203   8.137  10.255 -0.5631  1.1891 -1.0735
  674MOL0     H90924   4.165   7.903  10.186  4.9750  3.4867 -2.2317
  674MOL0     H90925   4.136   7.763  10.009 -0.0918 -0.1007 -1.5108
  674MOL0     H90926   4.073   7.710  10.167 -0.6358 -1.5702  1.0988
  674MOL0     H90927   4.112   7.515  10.020  2.2300  1.6765  1.3855
  674MOL0     H90928   4.019   7.570   9.893  4.2750  1.3737  0.5968
  674MOL0     H90929   3.806   7.563  10.047 -0.5738 -0.6342 -0.5466
  674MOL0     H90930   3.925   7.487  10.167 -1.3198 -0.6941  0.3513
  674MOL0     H90931   3.995   7.321   9.958 -1.7461 -3.0375 -1.5774
  674MOL0     H90932   3.851   7.290  10.055  0.4688 -3.2696 -3.3244
  674MOL0     H90933   3.724   7.436   9.890 -0.0458  0.8666  2.6042
  674MOL0     H90934   3.876   7.393   9.788  3.0235 -2.4492  1.8490
  674MOL0     H90935   3.718   7.171   9.916 -1.0839 -0.4890 -1.8193
  674MOL0     H90936   3.708   7.233   9.746  0.8589  0.9938 -1.5723
  674MOL0     H90937   3.934   7.093   9.890  2.3050 -5.0333 -3.9117
  674MOL0     H90938   3.966   7.173   9.741  1.4308  1.2776  2.1425
  674MOL0     H90939   3.751   6.953   9.808  1.2371 -1.3863  1.3553
  674MOL0     H90940   3.774   7.013   9.645 -1.4728 -0.4955  0.1235
  674MOL0     H90941   3.977   6.838   9.923 -2.4599  0.5197 -0.0040
  674MOL0     H90942   4.160   6.648   9.902 -0.3405  0.6298  0.8789
  674MOL0     H90943   4.281   6.659   9.780 -0.0257  0.4271 -0.2928
  674MOL0     H90944   4.230   6.892   9.963 -0.3592  0.0483  0.9953
  674MOL0     H90945   4.357   6.774  10.008  3.1654  2.7513  0.2687
  674MOL0     H90946   4.460   6.962   9.889  0.7854 -2.9695  1.9742
  674MOL0     H90947   4.348   6.963   9.758 -2.6395 -2.9843 -0.2212
  674MOL0     H90948   4.563   6.906   9.706  1.0791  1.6453  1.8010
  674MOL0     H90949   4.454   6.764   9.668  1.8757 -1.0022 -0.0206
  674MOL0     H90950   4.643   6.533   9.918  0.1347 -0.1724 -0.2942
  674MOL0     H90951   4.781   6.348   9.815  4.2471  0.5986  0.2789
  674MOL0     H90952   4.891   6.040   9.479 -0.1468 -0.5003 -1.0260
  674MOL0     H90953   5.050   5.879   9.434 -0.6479 -0.9753  0.9099
  674MOL0     H90954   5.432   6.023   9.436  0.3890 -1.3427  2.8428
  674MOL0     H90955   5.505   5.863   9.440  0.6843 -0.2454  0.4754
  674MOL0     H90956   5.318   5.810   9.263 -2.3318  1.1173 -3.8050
  674MOL0     H90957   5.290   5.983   9.236  0.3306  2.1203 -0.4011
  674MOL0     H90958   5.554   5.825   9.191 -1.3511 -2.9678 -1.1851
  674MOL0     H90959   5.440   5.862   9.064  1.6425  1.3874 -1.2432
  674MOL0     H90960   5.589   6.077   9.239  3.0134 -0.9830 -0.0590
  674MOL0     H90961   5.502   6.108   9.088  2.0634 -0.2527 -0.5745
  674MOL0     H90962   5.729   6.114   9.029 -0.9228 -0.0307  0.9756
  674MOL0     H90963   5.664   5.963   8.973  1.0474 -0.8496  0.2661
  674MOL0     H90964   5.791   5.842   9.159 -1.7300  1.2840  1.0455
  674MOL0     H90965   5.907   5.932   9.061 -0.3739  0.1864  1.1858
  674MOL0     H90966   5.824   6.048   9.330  0.5217 -1.0776  0.5266
  674MOL0     H90967   5.917   6.132   9.198  6.8235 -1.1363 -0.4645
  674MOL0     H90968   6.078   5.936   9.208  0.1077 -0.9945 -0.2568
  674MOL0     H90969   6.079   6.035   9.349 -1.9561 -0.7597  0.6081
  674MOL0     H90970   5.346   6.087   9.672 -0.0555  2.2216  0.0348
  674MOL0     H90971   5.173   6.268   9.707 -0.8708  2.0171 -1.5282
  674MOL0     H90972   4.850   6.604   9.480  0.7997 -0.7326  1.5931
  674MOL0     H90973   4.724   6.790   9.595  2.4058  2.0759  2.7699
  674MOL0     H90974   3.794   8.015  10.012  0.2978 -2.6242  0.0379
  674MOL0     H90975   3.835   8.243  10.070  0.7448  0.1970  1.9304
  674MOL0     H90976   4.389   8.558  10.248 -0.9045  0.5661 -1.8917
  674MOL0     H90977   4.415   8.735  10.401 -0.8123  2.0715 -0.0429
  674MOL0     H90978   4.425   8.953  10.456 -0.3018 -0.8526  0.1770
  674MOL0     H90979   4.380   8.878  10.604 -0.3913  0.1425  1.4024
  674MOL0     H90980   4.319   9.175  10.552 -1.9293 -1.1852 -1.4254
  674MOL0     H90981   4.431   9.088  10.673  0.3983 -2.6458 -0.4508
  674MOL0     H90982   4.132   9.074  10.681 -0.3148  0.7979  0.7460
  674MOL0     H90983   4.237   9.185  10.757  2.6816  1.1161 -2.2470
  674MOL0     H90984   4.244   8.887  10.809 -0.4313 -0.5173  1.2121
  674MOL0     H90985   4.346   9.024  10.886 -0.2949  0.4082 -2.0523
  674MOL0     H90986   3.961   9.035  11.075  1.5508  1.2499  2.5931
  674MOL0     H90987   3.996   8.779  10.433  2.1487  5.0903 -0.5192
  674MOL0     H90988   3.884   8.572  10.453  0.1788  3.4257  0.5001
  674MOL0     H90989   3.872   8.610  10.279  2.4286 -0.6412 -1.2469
  674MOL0     H90990   3.905   8.448  10.325 -1.2884  1.1385 -0.2575
  675MOL0     O90991   7.132   4.738   0.944 -0.7025  0.0096  0.2405
  675MOL0     C90992   7.238   4.725   0.877 -0.0939 -0.6692  0.0172
  675MOL0     O90993   7.310   4.832   0.823 -0.0686 -0.0792  0.3412
  675MOL0     C90994   7.315   4.966   0.880 -1.1800 -0.2390  1.0628
  675MOL0     C90995   7.330   5.080   0.792 -0.3616 -0.3496  0.0935
  675MOL0     C90996   7.314   5.206   0.847  0.7585 -0.4398  0.0713
  675MOL0     C90997   7.297   5.220   0.986  0.4462 -0.0429  1.0354
  675MOL0     O90998   7.290   5.354   1.025 -0.1251  0.0427 -0.1809
  675MOL0     C90999   7.158   5.375   1.073 -0.4484  0.3921 -0.2222
  675MOL0     C91000   7.086   5.485   0.984  0.5538  0.6016  0.7895
  675MOL0     C91001   6.941   5.469   0.970  0.6982 -0.8726 -0.5451
  675MOL0     C91002   6.885   5.557   0.857  0.0249 -0.5899 -0.2746
  675MOL0     C91003   6.733   5.540   0.832 -0.7592  0.8652  0.3261
  675MOL0     C91004   6.683   5.666   0.771  1.0705 -0.6853 -0.9053
  675MOL0     C91005   6.606   5.758   0.880  0.1761 -0.1193  0.5554
  675MOL0     C91006   6.557   5.889   0.833  0.4895  1.1327 -0.5270
  675MOL0     N91007   6.433   5.881   0.747  0.0443  0.0689 -0.0786
  675MOL0     C91008   6.406   5.933   0.624 -0.5013 -0.3039  0.0164
  675MOL0     C91009   6.282   5.881   0.597 -0.2811  0.1484  0.7425
  675MOL0     C91010   6.209   5.903   0.464  0.0263  0.7803  0.2286
  675MOL0     C91011   6.072   5.972   0.482 -0.6364 -0.5373  0.4986
  675MOL0     C91012   5.965   5.935   0.368 -0.1645  0.2846  0.2420
  675MOL0     C91013   5.842   6.021   0.371 -0.2862 -0.0104  0.2505
  675MOL0     O91014   5.741   5.982   0.268 -0.1056 -0.7886 -0.5274
  675MOL0     C91015   5.753   6.019   0.135  1.4425 -0.8940 -0.7045
  675MOL0     C91016   5.781   6.145   0.080 -0.0828  0.6157 -0.5207
  675MOL0     C91017   5.805   6.157  -0.062  0.4827  0.6344  0.3147
  675MOL0     C91018   5.788   6.045  -0.152 -0.1181  1.0874 -0.7662
  675MOL0     C91019   5.804   6.036  -0.304  0.7616  0.3607 -0.1036
  675MOL0     O91020   5.859   6.149  -0.364 -1.5548  0.0920 -0.5384
  675MOL0     C91021   5.891   6.136  -0.504 -0.2434 -1.1978  0.0852
  675MOL0     C91022   5.789   6.133  -0.598  0.2164  0.1440 -0.3381
  675MOL0     C91023   5.816   6.152  -0.730 -0.1412  0.6171 -0.7244
  675MOL0     C91024   5.949   6.180  -0.772  0.7029  0.7716  0.8790
  675MOL0     O91025   5.960   6.207  -0.905 -0.4521 -0.6422  0.8154
  675MOL0     C91026   6.091   6.244  -0.957  0.3689  0.9822  0.5055
  675MOL0     C91027   6.084   6.269  -1.108  0.3931 -0.7046 -0.2270
  675MOL0     C91028   6.218   6.289  -1.172 -0.2680  0.6772  1.8275
  675MOL0     C91029   6.207   6.316  -1.321 -0.4408  0.4988  0.2841
  675MOL0     C91030   6.343   6.351  -1.378  0.4883 -0.7039 -0.6183
  675MOL0     C91031   6.446   6.240  -1.368  0.6591 -0.4887 -1.4977
  675MOL0     C91032   6.593   6.287  -1.382  1.0341 -0.4306 -1.1286
  675MOL0     C91033   6.687   6.164  -1.385 -0.7778 -0.5579 -0.0247
  675MOL0    Cl91034   6.721   6.105  -1.549 -0.2653 -0.6510 -0.0818
  675MOL0     C91035   6.052   6.180  -0.678  0.7027 -0.8939 -0.9288
  675MOL0     C91036   6.017   6.163  -0.544  0.4391  0.5325 -0.4817
  675MOL0     O91037   5.769   5.928  -0.357  0.3463 -0.0694  0.8467
  675MOL0     C91038   5.749   5.926  -0.082 -0.4057  0.1419 -0.4160
  675MOL0     C91039   5.737   5.917   0.052  0.8338 -0.0272 -0.6056
  675MOL0     N91040   6.222   5.823   0.704  0.3024 -0.0114 -1.1019
  675MOL0     N91041   6.321   5.809   0.787 -0.0200  0.3215  0.3549
  675MOL0     C91042   7.279   5.107   1.070  0.0018 -0.1360  0.1199
  675MOL0     C91043   7.294   4.982   1.016 -0.1968 -0.0374  0.1266
  675MOL0     C91044   7.300   4.589   0.868 -0.2984  0.7238 -0.2345
  675MOL0     C91045   7.312   4.505   0.979 -0.4981 -0.0557 -0.7466
  675MOL0     C91046   7.370   4.377   0.955 -0.3489 -0.1280 -0.7944
  675MOL0     C91047   7.414   4.333   0.827  0.0883 -0.8529 -0.3956
  675MOL0     O91048   7.467   4.205   0.792  0.0996 -0.3639 -0.1374
  675MOL0     C91049   7.432   4.095   0.867 -0.7761  0.1949  0.6061
  675MOL0     C91050   7.524   3.983   0.810 -0.3370  0.0222  0.3538
  675MOL0     C91051   7.525   3.854   0.899 -0.3960 -0.0973  0.1644
  675MOL0     C91052   7.588   3.732   0.831 -0.7560  0.7506  0.2045
  675MOL0     C91053   7.482   3.654   0.758 -0.3302  1.5443  0.1400
  675MOL0     C91054   7.422   3.562   0.708  0.1366  0.1837 -0.0212
  675MOL0     C91055   7.407   4.414   0.724  0.6992 -0.3432  0.5530
  675MOL0     C91056   7.333   4.537   0.740 -0.0824  0.5053 -0.4912
  675MOL0     C91057   7.320   4.622   0.616  0.1115  0.4546  0.2540
  675MOL0     H91058   7.371   5.052   0.696  0.6297  0.0629  0.3752
  675MOL0     H91059   7.337   5.294   0.789 -1.4341 -0.5680 -1.0793
  675MOL0     H91060   7.106   5.280   1.088  0.6880  0.1643  3.3003
  675MOL0     H91061   7.164   5.408   1.177  1.2952 -3.9154  1.2516
  675MOL0     H91062   7.134   5.472   0.886 -0.9288 -1.0173  0.2324
  675MOL0     H91063   7.123   5.580   1.026  2.8500  0.0958  0.0857
  675MOL0     H91064   6.888   5.496   1.061  2.0619  1.3874 -0.3382
  675MOL0     H91065   6.922   5.368   0.933  2.4914 -0.1035 -3.9950
  675MOL0     H91066   6.913   5.662   0.874 -1.1730 -0.2568 -0.2769
  675MOL0     H91067   6.929   5.534   0.760 -1.5379 -0.3405 -1.0833
  675MOL0     H91068   6.733   5.445   0.778  2.7402  1.1641 -0.4371
  675MOL0     H91069   6.673   5.525   0.922 -4.9847 -0.5036 -2.4297
  675MOL0     H91070   6.765   5.725   0.729  1.4799 -0.4303  0.2051
  675MOL0     H91071   6.616   5.635   0.690  0.4579  0.0581 -0.7002
  675MOL0     H91072   6.690   5.767   0.950  1.7243 -0.8244 -1.0979
  675MOL0     H91073   6.520   5.702   0.916  0.4531 -1.7172 -1.1159
  675MOL0     H91074   6.531   5.941   0.926 -2.2983 -1.5669  0.3698
  675MOL0     H91075   6.638   5.952   0.795  4.0942 -2.8889 -0.3100
  675MOL0     H91076   6.474   5.990   0.561  1.3004  0.3560  2.4263
  675MOL0     H91077   6.279   5.952   0.396  0.2329 -1.3994 -1.2517
  675MOL0     H91078   6.190   5.814   0.404  1.6427  0.6899 -0.1731
  675MOL0     H91079   6.023   5.961   0.579 -4.9953  1.3617 -1.2488
  675MOL0     H91080   6.089   6.080   0.476 -2.0391 -0.3341 -0.1605
  675MOL0     H91081   5.926   5.833   0.381 -1.7244  0.9671  1.1774
  675MOL0     H91082   6.013   5.942   0.270  2.2976  2.4381  1.4609
  675MOL0     H91083   5.879   6.124   0.364  0.3477 -0.2179  0.4215
  675MOL0     H91084   5.788   6.014   0.465 -0.4127 -3.0572  0.0531
  675MOL0     H91085   5.799   6.232   0.143 -0.2466 -0.8100  1.5960
  675MOL0     H91086   5.838   6.255  -0.093  2.7918  0.9350  3.2689
  675MOL0     H91087   5.686   6.117  -0.569  0.3894  1.1717  0.9595
  675MOL0     H91088   5.742   6.135  -0.808 -2.1276 -1.2825  1.4106
  675MOL0     H91089   6.129   6.329  -0.901  1.2239  2.1264 -1.6728
  675MOL0     H91090   6.162   6.160  -0.947  1.7636  2.2868  2.1399
  675MOL0     H91091   6.040   6.175  -1.143  1.2864 -2.2253  2.4033
  675MOL0     H91092   6.031   6.363  -1.127 -1.8076 -2.0010 -0.8243
  675MOL0     H91093   6.280   6.362  -1.118  0.4624 -1.2607  3.7684
  675MOL0     H91094   6.273   6.195  -1.158 -1.9774 -0.1016  3.8633
  675MOL0     H91095   6.142   6.400  -1.348  0.3182  0.2114 -2.9054
  675MOL0     H91096   6.160   6.229  -1.368 -1.6658 -0.9415  3.8446
  675MOL0     H91097   6.382   6.440  -1.328 -1.1913  0.5263 -1.4183
  675MOL0     H91098   6.330   6.383  -1.482 -0.0826  1.5950  0.1142
  675MOL0     H91099   6.456   6.196  -1.268 -0.5195  2.2197 -0.0758
  675MOL0     H91100   6.430   6.159  -1.440  2.2074 -0.0359 -2.3998
  675MOL0     H91101   6.614   6.347  -1.292 -1.8368 -1.1647  0.1338
  675MOL0     H91102   6.609   6.338  -1.477  0.0518 -1.7803 -2.0388
  675MOL0     H91103   6.777   6.203  -1.338 -1.3191 -0.7399  1.2044
  675MOL0     H91104   6.644   6.083  -1.324 -1.9862 -0.3716 -0.6037
  675MOL0     H91105   6.154   6.197  -0.710  0.0448  1.3555 -2.0385
  675MOL0     H91106   6.092   6.186  -0.469  2.9211  1.7632 -3.1101
  675MOL0     H91107   5.733   5.833  -0.135 -2.3241  0.5555 -0.6572
  675MOL0     H91108   5.711   5.821   0.097  3.7640 -2.2920 -3.2558
  675MOL0     H91109   7.266   5.125   1.177 -2.8021  1.9643 -0.4483
  675MOL0     H91110   7.301   4.894   1.079 -1.5861  0.2337  0.6938
  675MOL0     H91111   7.288   4.528   1.082  1.2462 -0.5927 -0.1765
  675MOL0     H91112   7.359   4.306   1.035 -2.6977 -0.6457 -1.5046
  675MOL0     H91113   7.326   4.068   0.856 -0.4326 -1.4383  1.0818
  675MOL0     H91114   7.454   4.124   0.970 -0.1364  1.6297  0.0915
  675MOL0     H91115   7.621   4.026   0.785  1.4513 -2.4158  2.5619
  675MOL0     H91116   7.481   3.954   0.713 -2.0546  0.5345  0.9291
  675MOL0     H91117   7.423   3.821   0.923 -0.0747 -1.1887  0.0723
  675MOL0     H91118   7.586   3.884   0.985 -2.4882  2.5109  0.9204
  675MOL0     H91119   7.668   3.770   0.767  0.4496 -1.2788  0.4001
  675MOL0     H91120   7.635   3.663   0.902  0.4671  0.7116 -0.6092
  675MOL0     H91121   7.359   3.485   0.669 -1.1014  1.1026  0.0866
  675MOL0     H91122   7.453   4.380   0.632  1.6406  1.0517  0.4704
  675MOL0     H91123   7.412   4.676   0.592  0.1778 -0.9219 -3.0587
  675MOL0     H91124   7.307   4.553   0.532 -0.0810  1.1879 -0.3217
  675MOL0     H91125   7.232   4.686   0.612  0.9467  1.5781 -2.2813
  676MOL0     O91126   4.125   0.188   3.524 -0.0148  0.1911 -0.9053
  676MOL0     C91127   4.144   0.308   3.552 -0.2605  0.3227 -0.0549
  676MOL0     O91128   4.084   0.370   3.653  0.2998 -0.1577 -0.8925
  676MOL0     C91129   3.994   0.297   3.730  0.7707 -0.0557 -0.0152
  676MOL0     C91130   3.858   0.303   3.712 -0.0565 -0.9042  0.2949
  676MOL0     C91131   3.766   0.220   3.780 -0.3969  0.0932  1.1991
  676MOL0     C91132   3.815   0.151   3.893 -0.5521 -0.6861  0.0331
  676MOL0     O91133   3.723   0.101   3.984 -0.1051  0.5281 -0.0800
  676MOL0     C91134   3.766  -0.007   4.067  0.1985  0.5917 -0.4225
  676MOL0     C91135   3.645  -0.098   4.082 -0.0503  0.4872 -0.1011
  676MOL0     C91136   3.657  -0.200   4.199  0.0069 -0.2767  0.6412
  676MOL0     C91137   3.523  -0.266   4.238 -0.9421  0.7137 -0.3818
  676MOL0     C91138   3.549  -0.387   4.331 -0.0063 -0.3685 -0.1126
  676MOL0     C91139   3.415  -0.464   4.354  0.2367 -0.1230  0.1671
  676MOL0     C91140   3.453  -0.603   4.418  0.1573 -1.5269  0.0208
  676MOL0     C91141   3.500  -0.693   4.305  0.7344  0.2988  0.2967
  676MOL0     N91142   3.511  -0.833   4.337  0.4253 -0.1143 -0.2727
  676MOL0     C91143   3.586  -0.902   4.429 -0.0454 -0.8905  0.0974
  676MOL0     C91144   3.534  -1.030   4.422  0.7789  0.1691  0.3758
  676MOL0     C91145   3.570  -1.142   4.510  0.6463 -0.4795  0.6301
  676MOL0     C91146   3.457  -1.194   4.590  0.8280 -0.8114  0.1445
  676MOL0     C91147   3.497  -1.309   4.692  0.6466  0.4863  0.1926
  676MOL0     C91148   3.513  -1.446   4.625 -0.3429 -1.0356 -0.2828
  676MOL0     O91149   3.517  -1.548   4.723 -0.0147  0.2764 -0.0915
  676MOL0     C91150   3.445  -1.659   4.689  0.1688 -0.1029 -0.3057
  676MOL0     C91151   3.307  -1.650   4.652  0.3672 -0.7276 -0.5073
  676MOL0     C91152   3.240  -1.766   4.614  0.7818 -0.5262  0.6295
  676MOL0     C91153   3.314  -1.889   4.611  0.8336  0.6686  0.4400
  676MOL0     C91154   3.248  -2.015   4.555 -0.2241 -0.5469 -0.2476
  676MOL0     O91155   3.317  -2.130   4.558 -0.2992 -0.5331 -0.5645
  676MOL0     C91156   3.304  -2.228   4.464  0.7961  0.4950  0.6352
  676MOL0     C91157   3.395  -2.248   4.357  0.3020 -0.3205 -0.1036
  676MOL0     C91158   3.377  -2.359   4.272  0.7067 -0.9147 -0.0131
  676MOL0     C91159   3.270  -2.450   4.289 -1.0592  0.4243  0.0520
  676MOL0     O91160   3.237  -2.550   4.197  0.2270  0.3580 -0.0943
  676MOL0     C91161   3.216  -2.681   4.263  0.0154 -0.5824 -0.1770
  676MOL0     C91162   3.281  -2.797   4.183 -0.0366 -0.0360 -1.6103
  676MOL0     C91163   3.178  -2.856   4.087 -0.0249  0.4713  1.1249
  676MOL0     C91164   3.159  -2.766   3.966  1.3314  0.3752  0.3861
  676MOL0     C91165   3.059  -2.813   3.852  0.8696  0.3486  0.4554
  676MOL0     C91166   3.100  -2.744   3.719 -0.1960 -0.0985 -0.0615
  676MOL0     C91167   2.984  -2.768   3.615 -0.4267 -0.8826  0.7145
  676MOL0     C91168   2.995  -2.705   3.471 -0.1499  0.5126 -1.0379
  676MOL0    Cl91169   3.044  -2.538   3.493 -0.5170  0.3964 -0.7790
  676MOL0     C91170   3.191  -2.432   4.407  0.0194  0.3532  0.5935
  676MOL0     C91171   3.209  -2.322   4.496 -0.9110 -0.3445 -0.8729
  676MOL0     O91172   3.143  -1.994   4.485 -0.3500 -0.4441  0.7147
  676MOL0     C91173   3.448  -1.897   4.654 -0.2228  0.9614 -1.2222
  676MOL0     C91174   3.504  -1.779   4.709  0.1090  0.9502 -0.0209
  676MOL0     N91175   3.440  -1.035   4.318 -0.0658 -0.5075  0.2892
  676MOL0     N91176   3.430  -0.920   4.262 -0.4890 -0.8720  0.3231
  676MOL0     C91177   3.951   0.150   3.927 -0.3034  0.0879  0.8025
  676MOL0     C91178   4.040   0.221   3.844  0.1214  0.4429 -0.3848
  676MOL0     C91179   4.232   0.378   3.454 -0.3738  0.1531 -0.0921
  676MOL0     C91180   4.310   0.292   3.368  0.1199 -1.5033  0.7649
  676MOL0     C91181   4.407   0.343   3.286 -0.2258 -0.3234 -0.0190
  676MOL0     C91182   4.428   0.480   3.285 -0.2528 -0.2898  0.0985
  676MOL0     O91183   4.523   0.506   3.196  0.6796 -0.0729 -0.0266
  676MOL0     C91184   4.535   0.641   3.172 -0.1207 -0.4655 -0.2680
  676MOL0     C91185   4.635   0.665   3.059 -0.6545 -0.7344  0.0888
  676MOL0     C91186   4.649   0.821   3.052  0.0672 -0.2289 -0.3572
  676MOL0     C91187   4.744   0.847   2.935 -0.6464 -0.5258 -0.1905
  676MOL0     C91188   4.802   0.983   2.945  0.3721  0.8341  0.7891
  676MOL0     C91189   4.849   1.095   2.957  1.3001  0.8447  0.0528
  676MOL0     C91190   4.344   0.571   3.353 -0.4591 -0.6410  0.4215
  676MOL0     C91191   4.250   0.518   3.440  0.2825  0.4507 -0.7573
  676MOL0     C91192   4.189   0.624   3.529  0.3687 -0.3637  0.0328
  676MOL0     H91193   3.832   0.354   3.620  0.0443 -1.5637 -0.1027
  676MOL0     H91194   3.663   0.199   3.754  0.2181  0.0047 -1.3721
  676MOL0     H91195   3.847  -0.074   4.036 -2.1954 -2.8839  0.2140
  676MOL0     H91196   3.805   0.027   4.164  2.4056 -2.6248 -0.0089
  676MOL0     H91197   3.615  -0.144   3.987  1.1873 -1.3625  0.3426
  676MOL0     H91198   3.561  -0.034   4.112  0.8229 -0.4817  5.4285
  676MOL0     H91199   3.702  -0.153   4.287 -1.4733  1.2161  0.6486
  676MOL0     H91200   3.728  -0.275   4.162  1.1032  0.5510  1.0020
  676MOL0     H91201   3.449  -0.204   4.289 -3.1183 -1.2091 -1.0072
  676MOL0     H91202   3.470  -0.292   4.146 -3.4771  1.9809  0.6162
  676MOL0     H91203   3.619  -0.452   4.279 -1.2711 -1.1111 -0.9289
  676MOL0     H91204   3.597  -0.355   4.424 -0.3469  2.6964 -0.8751
  676MOL0     H91205   3.347  -0.412   4.423 -2.3708 -1.2946 -1.3906
  676MOL0     H91206   3.367  -0.475   4.257  2.0875 -2.9398 -0.5610
  676MOL0     H91207   3.370  -0.655   4.469 -2.3540  0.5212 -1.7124
  676MOL0     H91208   3.534  -0.594   4.490  0.8972  1.7422 -1.0796
  676MOL0     H91209   3.430  -0.679   4.222 -1.6800  0.2120  2.2140
  676MOL0     H91210   3.599  -0.663   4.267  0.4596 -0.4597 -1.1002
  676MOL0     H91211   3.651  -0.856   4.503  1.0001  2.2427 -2.5171
  676MOL0     H91212   3.613  -1.213   4.439 -0.4348  2.6658 -3.6609
  676MOL0     H91213   3.647  -1.101   4.576  2.6708 -0.2961 -1.6939
  676MOL0     H91214   3.408  -1.116   4.649 -3.3558 -1.5453 -1.9746
  676MOL0     H91215   3.380  -1.219   4.517  0.3769 -1.3007  0.7813
  676MOL0     H91216   3.422  -1.318   4.771  0.0914  0.8649 -0.2852
  676MOL0     H91217   3.590  -1.284   4.744  2.0319 -1.1708 -1.3362
  676MOL0     H91218   3.614  -1.437   4.584  0.0285  2.9281  1.0687
  676MOL0     H91219   3.441  -1.460   4.543  1.5280 -1.0739 -1.9952
  676MOL0     H91220   3.257  -1.554   4.653  3.2420  0.9614  2.5916
  676MOL0     H91221   3.141  -1.763   4.570  1.8920  0.6605 -1.9923
  676MOL0     H91222   3.474  -2.177   4.331  0.3079 -0.8031 -1.5156
  676MOL0     H91223   3.435  -2.377   4.183 -1.1411 -2.0121 -1.0675
  676MOL0     H91224   3.258  -2.680   4.364  1.5491 -0.2996 -0.7908
  676MOL0     H91225   3.107  -2.693   4.265 -0.0844  0.3807  1.5396
  676MOL0     H91226   3.370  -2.761   4.132  0.5157  1.5833  0.3535
  676MOL0     H91227   3.304  -2.881   4.250  0.3514 -1.7694 -3.7740
  676MOL0     H91228   3.209  -2.953   4.047 -3.1762 -1.3594  2.7005
  676MOL0     H91229   3.075  -2.876   4.119  1.3533 -2.5577  4.4196
  676MOL0     H91230   3.254  -2.761   3.911  0.6773 -1.7631 -1.0724
  676MOL0     H91231   3.136  -2.660   3.979  5.4230  1.9591 -2.9035
  676MOL0     H91232   2.954  -2.791   3.873  0.7856 -0.7651  1.3077
  676MOL0     H91233   3.071  -2.921   3.836  0.0025  0.5537 -1.8068
  676MOL0     H91234   3.107  -2.636   3.732  0.7428 -0.0967 -0.4961
  676MOL0     H91235   3.194  -2.791   3.686 -0.8668 -0.1439 -2.0269
  676MOL0     H91236   2.891  -2.731   3.657 -1.3449 -2.0872 -0.2005
  676MOL0     H91237   2.978  -2.876   3.602  1.5090 -0.8203 -1.4080
  676MOL0     H91238   3.073  -2.763   3.420 -0.1603 -0.4877  0.0512
  676MOL0     H91239   2.897  -2.718   3.423 -1.4689  0.8654  1.4342
  676MOL0     H91240   3.099  -2.488   4.415 -1.3611  2.4901  0.4693
  676MOL0     H91241   3.139  -2.312   4.578  0.0245  1.3638 -0.2358
  676MOL0     H91242   3.510  -1.985   4.653 -1.0619  0.2177  1.5968
  676MOL0     H91243   3.606  -1.802   4.738 -0.7939 -1.3602  1.6235
  676MOL0     H91244   3.998   0.087   4.002  0.3729 -2.0192 -1.2612
  676MOL0     H91245   4.146   0.200   3.850  0.3479  1.6864  0.6156
  676MOL0     H91246   4.303   0.184   3.368  1.4920 -1.6641 -1.7937
  676MOL0     H91247   4.460   0.265   3.233 -1.2427 -1.1354  0.1251
  676MOL0     H91248   4.583   0.696   3.254  2.7154 -1.8021 -0.9091
  676MOL0     H91249   4.443   0.685   3.133 -1.4407  0.9665  3.8804
  676MOL0     H91250   4.612   0.634   2.957  3.0430 -1.3501 -0.7250
  676MOL0     H91251   4.734   0.624   3.084 -0.5384  0.1329  1.1392
  676MOL0     H91252   4.703   0.857   3.140  1.4182 -1.6054 -0.5811
  676MOL0     H91253   4.553   0.873   3.055 -1.3146 -2.6789  0.9445
  676MOL0     H91254   4.825   0.774   2.930 -1.4159 -1.5117  1.1024
  676MOL0     H91255   4.686   0.855   2.842 -1.8081  0.3840  0.5873
  676MOL0     H91256   4.871   1.200   2.954 -1.2952  1.4358 -2.2077
  676MOL0     H91257   4.371   0.676   3.355  2.2926 -1.2922  1.0354
  676MOL0     H91258   4.080   0.615   3.530  0.2884 -0.2050 -2.1738
  676MOL0     H91259   4.222   0.607   3.632  0.9833 -0.9359 -0.2551
  676MOL0     H91260   4.225   0.723   3.501 -0.1148 -0.9185 -2.8663
  677MOL0     O91261   0.577   2.785   7.102  0.8453  0.4005 -0.4832
  677MOL0     C91262   0.575   2.895   7.159  0.1049 -0.3486  0.2654
  677MOL0     O91263   0.568   2.915   7.287 -0.0767  1.0217 -0.3086
  677MOL0     C91264   0.535   2.807   7.363 -0.3137  0.9439  0.2670
  677MOL0     C91265   0.628   2.695   7.372 -0.5342 -0.0988 -0.7551
  677MOL0     C91266   0.604   2.600   7.474  0.0997  0.5898  0.2683
  677MOL0     C91267   0.503   2.606   7.569  0.3696  0.2609 -0.0857
  677MOL0     O91268   0.500   2.516   7.673  0.8190 -0.6104 -0.3675
  677MOL0     C91269   0.451   2.383   7.653 -0.3070 -0.4307 -0.8955
  677MOL0     C91270   0.540   2.284   7.730 -0.1404 -0.3389 -0.5189
  677MOL0     C91271   0.515   2.294   7.885  0.3241 -0.8754 -1.1700
  677MOL0     C91272   0.381   2.219   7.906 -0.8136 -0.2197 -0.9098
  677MOL0     C91273   0.382   2.148   8.045  0.5696  0.5814  0.3827
  677MOL0     C91274   0.438   2.009   8.038 -0.5971  0.6097 -0.1855
  677MOL0     C91275   0.479   1.948   8.174 -0.6863 -0.8574 -0.4376
  677MOL0     C91276   0.620   1.999   8.217 -0.4934  0.4079  0.9658
  677MOL0     N91277   0.644   1.948   8.348 -0.4644  0.7169 -0.1407
  677MOL0     C91278   0.720   1.838   8.367 -0.0037 -0.3763 -0.4001
  677MOL0     C91279   0.691   1.804   8.494  1.2998 -0.0480 -0.2632
  677MOL0     C91280   0.749   1.688   8.568 -0.5089 -0.3996 -0.3921
  677MOL0     C91281   0.803   1.735   8.705 -0.1329  0.7106  0.2026
  677MOL0     C91282   0.864   1.618   8.764 -0.3123 -0.1898 -0.4189
  677MOL0     C91283   0.961   1.642   8.878 -0.3754 -0.3284 -0.5964
  677MOL0     O91284   0.972   1.530   8.965  0.5311  1.0462  0.1738
  677MOL0     C91285   0.875   1.516   9.059 -0.1781 -0.0856 -0.9075
  677MOL0     C91286   0.885   1.413   9.149 -0.3366  0.0722  0.4332
  677MOL0     C91287   0.806   1.396   9.268  0.5202 -0.9418 -0.4457
  677MOL0     C91288   0.693   1.476   9.294 -0.6684 -0.3224 -0.9185
  677MOL0     C91289   0.600   1.448   9.409 -0.6579 -1.0453  1.3930
  677MOL0     O91290   0.483   1.510   9.401  0.2550  0.7255 -0.0348
  677MOL0     C91291   0.378   1.487   9.486 -0.2130 -0.9678  0.6530
  677MOL0     C91292   0.393   1.453   9.622 -0.3950 -1.6553 -0.0933
  677MOL0     C91293   0.287   1.406   9.696 -0.1057  0.3679 -0.5368
  677MOL0     C91294   0.166   1.401   9.647 -0.0941  0.8673  1.0889
  677MOL0     O91295   0.052   1.364   9.712  0.4578 -0.6288  0.2661
  677MOL0     C91296   0.058   1.218   9.736  0.7270  0.8581 -0.8894
  677MOL0     C91297  -0.018   1.130   9.631 -0.4045  0.6032  0.4215
  677MOL0     C91298  -0.147   1.205   9.574 -0.6728  0.9238  0.0400
  677MOL0     C91299  -0.264   1.224   9.682  0.5461 -0.6624  0.4057
  677MOL0     C91300  -0.393   1.281   9.624  0.3386 -0.9574 -0.0184
  677MOL0     C91301  -0.487   1.353   9.719 -0.0698  0.3864  0.5477
  677MOL0     C91302  -0.541   1.251   9.826 -0.3136 -0.9274  0.6637
  677MOL0     C91303  -0.658   1.175   9.787  0.5283 -0.2763 -1.0897
  677MOL0    Cl91304  -0.614   1.037   9.680 -0.0223  0.0159  0.3245
  677MOL0     C91305   0.150   1.438   9.512 -0.3484 -0.5567  0.0316
  677MOL0     C91306   0.253   1.484   9.435 -0.5333 -0.1214  0.3806
  677MOL0     O91307   0.633   1.354   9.488  0.1820  0.3934 -0.3408
  677MOL0     C91308   0.667   1.568   9.190 -0.0324  0.4422 -0.2937
  677MOL0     C91309   0.760   1.585   9.075 -0.1770 -0.5920  0.2176
  677MOL0     N91310   0.601   1.900   8.550 -0.8827 -0.6380  0.7816
  677MOL0     N91311   0.585   1.992   8.463  0.4130  0.2732  0.3570
  677MOL0     C91312   0.418   2.719   7.564 -1.1708 -0.5361 -0.0033
  677MOL0     C91313   0.430   2.814   7.462 -0.1118 -0.5422  0.1951
  677MOL0     C91314   0.588   3.018   7.070 -0.3431  0.3004  0.2344
  677MOL0     C91315   0.516   3.132   7.097  0.2125  0.0793  0.4116
  677MOL0     C91316   0.531   3.247   7.023 -0.2970 -0.1204  0.2219
  677MOL0     C91317   0.620   3.258   6.915 -0.3078  0.1304 -0.3765
  677MOL0     O91318   0.620   3.378   6.849 -0.5964 -0.2323  0.4967
  677MOL0     C91319   0.518   3.391   6.752 -0.6816  0.1957 -0.9115
  677MOL0     C91320   0.450   3.529   6.750  0.0728 -0.1944  0.5337
  677MOL0     C91321   0.549   3.644   6.768 -0.2581 -0.7138  0.2921
  677MOL0     C91322   0.521   3.787   6.706  0.2085 -0.6496  0.0336
  677MOL0     C91323   0.641   3.875   6.728 -0.3129 -0.6594 -0.1907
  677MOL0     C91324   0.730   3.955   6.754 -0.7915 -0.7993 -0.7399
  677MOL0     C91325   0.688   3.137   6.877  0.4163 -0.4908 -0.3114
  677MOL0     C91326   0.680   3.019   6.958  0.6327 -0.6001  0.8585
  677MOL0     C91327   0.764   2.896   6.906 -0.0665  0.6681 -0.4130
  677MOL0     H91328   0.710   2.669   7.306 -0.7712 -0.1365 -1.0359
  677MOL0     H91329   0.652   2.502   7.483 -1.6844 -0.1554  2.9987
  677MOL0     H91330   0.348   2.379   7.689 -0.2609 -0.7050 -0.7848
  677MOL0     H91331   0.442   2.357   7.547  1.1580 -4.3097 -0.2485
  677MOL0     H91332   0.643   2.312   7.705 -0.6145  0.7890 -1.3126
  677MOL0     H91333   0.543   2.180   7.696  0.5606 -0.1441 -1.0797
  677MOL0     H91334   0.500   2.397   7.918 -1.2327 -0.4601 -2.9673
  677MOL0     H91335   0.592   2.231   7.929 -0.4049 -0.4262  0.8641
  677MOL0     H91336   0.295   2.287   7.903 -1.6037 -1.1514 -0.1934
  677MOL0     H91337   0.365   2.139   7.833  2.6675 -1.2585 -0.7232
  677MOL0     H91338   0.432   2.205   8.124  1.7525  1.0425 -0.6824
  677MOL0     H91339   0.276   2.135   8.072  0.5564  1.0086  0.5459
  677MOL0     H91340   0.351   1.955   7.998  0.3589 -1.6834  0.6398
  677MOL0     H91341   0.526   2.003   7.974  0.5391 -0.6057  1.3978
  677MOL0     H91342   0.484   1.839   8.161 -2.6503 -0.9949 -0.3550
  677MOL0     H91343   0.399   1.967   8.246 -2.6836 -3.7385 -1.6670
  677MOL0     H91344   0.700   1.973   8.147 -0.4557  0.3733  1.0204
  677MOL0     H91345   0.625   2.108   8.222  1.1662  1.0220 -5.4850
  677MOL0     H91346   0.788   1.801   8.291  2.2671  3.6938 -0.6727
  677MOL0     H91347   0.672   1.610   8.581 -0.5689  0.0641  2.4515
  677MOL0     H91348   0.835   1.645   8.515  0.7112  0.2322  1.0040
  677MOL0     H91349   0.869   1.821   8.690 -0.2841  1.0752  1.4735
  677MOL0     H91350   0.727   1.772   8.774 -0.9280  2.5666 -1.5712
  677MOL0     H91351   0.918   1.549   8.699 -3.3108 -0.6676 -2.5841
  677MOL0     H91352   0.785   1.562   8.815  0.1478 -0.6558 -0.2049
  677MOL0     H91353   0.934   1.726   8.943 -4.7328  0.7740 -3.3827
  677MOL0     H91354   1.054   1.659   8.823  0.7732 -0.2147  1.3170
  677MOL0     H91355   0.961   1.336   9.146 -0.7679 -0.3404 -0.4015
  677MOL0     H91356   0.839   1.313   9.330  3.5394  0.7499  0.4006
  677MOL0     H91357   0.494   1.463   9.662  0.3430 -1.1396 -1.9597
  677MOL0     H91358   0.296   1.380   9.801  1.7164 -0.2873 -0.8008
  677MOL0     H91359   0.162   1.183   9.733 -0.6274 -4.0120 -0.3201
  677MOL0     H91360   0.027   1.184   9.835  1.5214  0.8445 -0.6423
  677MOL0     H91361   0.039   1.118   9.538  0.1565  1.6794  0.6102
  677MOL0     H91362  -0.037   1.034   9.679 -5.6554  0.0478 -2.0789
  677MOL0     H91363  -0.122   1.300   9.526 -1.5041  0.7633 -0.7289
  677MOL0     H91364  -0.195   1.142   9.499  0.5749  0.1098 -0.0958
  677MOL0     H91365  -0.233   1.295   9.760  1.8400 -1.3918  0.5835
  677MOL0     H91366  -0.280   1.127   9.729 -5.2213 -1.2366 -1.9267
  677MOL0     H91367  -0.448   1.209   9.564 -1.5244 -0.0464  0.4914
  677MOL0     H91368  -0.346   1.360   9.564 -1.8275  1.5369  1.3117
  677MOL0     H91369  -0.421   1.431   9.757  1.8885 -1.2586  0.6659
  677MOL0     H91370  -0.558   1.406   9.655  2.8847  2.3517 -1.2833
  677MOL0     H91371  -0.569   1.307   9.916  3.9611 -0.3159  1.8093
  677MOL0     H91372  -0.456   1.189   9.855  0.6570  1.1944  2.6890
  677MOL0     H91373  -0.682   1.125   9.881  0.7133 -2.4091 -2.0941
  677MOL0     H91374  -0.741   1.234   9.748 -0.0240  0.2219  0.7836
  677MOL0     H91375   0.053   1.453   9.466  0.3455  0.0183 -1.2814
  677MOL0     H91376   0.234   1.527   9.338 -4.1698  0.7495  1.2851
  677MOL0     H91377   0.568   1.613   9.194 -1.4509 -2.5045  0.5659
  677MOL0     H91378   0.723   1.655   9.001 -1.0369 -1.0323  0.2157
  677MOL0     H91379   0.340   2.735   7.638 -1.1483  1.7142 -0.4055
  677MOL0     H91380   0.365   2.900   7.474 -1.8566 -1.7181 -0.3971
  677MOL0     H91381   0.435   3.139   7.168 -1.8892 -2.4156 -1.5346
  677MOL0     H91382   0.458   3.326   7.041  0.3228  0.3005  0.9690
  677MOL0     H91383   0.429   3.327   6.759 -2.2204  1.9883 -2.5361
  677MOL0     H91384   0.569   3.362   6.660 -0.1615  1.2636 -0.9766
  677MOL0     H91385   0.385   3.550   6.835  1.5641  1.9830  1.2252
  677MOL0     H91386   0.395   3.542   6.656  2.0668  4.0324 -0.2865
  677MOL0     H91387   0.638   3.613   6.711 -1.2009 -1.7524 -0.6820
  677MOL0     H91388   0.571   3.664   6.873 -0.9688 -2.3489  0.7821
  677MOL0     H91389   0.502   3.773   6.599 -0.8361 -1.4037  0.3010
  677MOL0     H91390   0.434   3.833   6.754 -0.7322 -0.6799 -1.5927
  677MOL0     H91391   0.812   4.011   6.795  1.0965 -0.8438 -4.0558
  677MOL0     H91392   0.768   3.132   6.804 -0.0566 -2.1653 -0.7852
  677MOL0     H91393   0.847   2.949   6.857 -3.0486  4.2295 -2.1952
  677MOL0     H91394   0.799   2.842   6.994 -1.9246  1.2075  0.7136
  677MOL0     H91395   0.712   2.833   6.833  1.1654 -1.8281  0.7573
  678MOL0     O91396   3.791   8.252   5.449  0.4429 -0.5059 -0.1780
  678MOL0     C91397   3.715   8.243   5.356 -0.2706  0.3017  0.4248
  678MOL0     O91398   3.669   8.123   5.316  0.0037  0.7350  0.9209
  678MOL0     C91399   3.712   8.003   5.373  0.4977 -0.7472 -0.3481
  678MOL0     C91400   3.628   7.897   5.369  0.9144  0.6179 -0.0301
  678MOL0     C91401   3.654   7.779   5.424 -0.2447  0.1076 -0.0525
  678MOL0     C91402   3.778   7.753   5.484  1.0443 -0.4153  0.1260
  678MOL0     O91403   3.791   7.632   5.547 -0.7903 -0.2040 -0.4980
  678MOL0     C91404   3.900   7.613   5.634  0.8601 -0.4956  0.5902
  678MOL0     C91405   4.022   7.555   5.560 -0.2922  0.3530 -0.2120
  678MOL0     C91406   4.141   7.538   5.644 -0.5152  0.7418 -0.8596
  678MOL0     C91407   4.257   7.472   5.567  0.2029 -0.9595 -0.3020
  678MOL0     C91408   4.399   7.526   5.613 -0.4463  0.3757 -0.3024
  678MOL0     C91409   4.527   7.471   5.533  0.5407  0.4087 -0.9688
  678MOL0     C91410   4.645   7.570   5.552  0.9735  0.3256  0.2985
  678MOL0     C91411   4.706   7.571   5.689 -1.0969 -0.3355  0.3994
  678MOL0     N91412   4.817   7.664   5.697 -0.4640  0.6564 -0.7582
  678MOL0     C91413   4.932   7.639   5.776  0.6575 -0.0195 -0.3941
  678MOL0     C91414   5.004   7.744   5.791 -0.1810 -0.0573 -0.4991
  678MOL0     C91415   5.133   7.748   5.867  0.9853 -0.0633  0.5556
  678MOL0     C91416   5.248   7.669   5.802 -0.4905 -0.3383  0.8520
  678MOL0     C91417   5.329   7.750   5.700  0.3194 -0.0997  0.5906
  678MOL0     C91418   5.254   7.756   5.568 -0.2374  0.6301 -0.7460
  678MOL0     O91419   5.243   7.623   5.499  0.4668 -0.1147  0.6882
  678MOL0     C91420   5.187   7.633   5.373 -0.2141  0.3702  0.2562
  678MOL0     C91421   5.077   7.713   5.333 -0.3631 -0.5469  0.5331
  678MOL0     C91422   5.044   7.733   5.195  0.0726 -0.0847  0.6976
  678MOL0     C91423   5.125   7.671   5.096 -0.9115  0.3447 -0.1188
  678MOL0     C91424   5.113   7.702   4.948  0.7279  0.0528 -0.1597
  678MOL0     O91425   5.007   7.781   4.919 -0.4527  0.8658 -1.4637
  678MOL0     C91426   4.979   7.800   4.781 -0.8276  0.4039 -0.4210
  678MOL0     C91427   4.952   7.682   4.698 -0.6696  0.0066  0.5841
  678MOL0     C91428   4.908   7.694   4.566  0.8142  0.2809  0.1385
  678MOL0     C91429   4.900   7.818   4.503  0.3814 -0.4673  0.0479
  678MOL0     O91430   4.879   7.821   4.367  0.0805 -0.1053  0.6070
  678MOL0     C91431   4.901   7.946   4.294 -1.0425 -0.2101 -1.0145
  678MOL0     C91432   4.792   8.047   4.285  0.1938 -0.3136  0.9158
  678MOL0     C91433   4.708   8.037   4.162  0.7592  0.4206  0.3097
  678MOL0     C91434   4.592   8.151   4.142  0.0199  0.0303 -0.0020
  678MOL0     C91435   4.515   8.143   4.012  0.0994 -0.0122  0.6943
  678MOL0     C91436   4.376   8.206   4.023  0.1095 -0.0813 -0.0017
  678MOL0     C91437   4.383   8.342   4.086 -0.4831 -0.2637 -0.0647
  678MOL0     C91438   4.274   8.443   4.041  0.3094  0.1239 -0.6440
  678MOL0    Cl91439   4.304   8.616   4.088  0.2779  0.0752 -0.1569
  678MOL0     C91440   4.929   7.934   4.582 -1.2591 -0.2005 -0.5274
  678MOL0     C91441   4.966   7.931   4.722 -0.3506 -0.5024 -1.0200
  678MOL0     O91442   5.204   7.663   4.876 -0.0461 -0.5745 -0.3652
  678MOL0     C91443   5.229   7.580   5.146  0.9058 -0.1103  0.1839
  678MOL0     C91444   5.259   7.563   5.272 -0.6967 -0.6372 -0.3114
  678MOL0     N91445   4.947   7.839   5.707 -0.0123 -0.3669  0.2253
  678MOL0     N91446   4.841   7.788   5.647  0.1873  0.2647  0.8287
  678MOL0     C91447   3.877   7.851   5.482 -0.7870  0.8387 -0.6559
  678MOL0     C91448   3.839   7.981   5.435  0.4931 -0.1076  0.6405
  678MOL0     C91449   3.667   8.366   5.287 -0.3538  0.4518  0.0749
  678MOL0     C91450   3.751   8.488   5.292 -0.1330  1.1091  0.3222
  678MOL0     C91451   3.717   8.608   5.227  0.5694  0.7468  0.5320
  678MOL0     C91452   3.605   8.612   5.155  0.0878  0.7645 -0.6408
  678MOL0     O91453   3.578   8.729   5.090 -0.9502 -0.1817 -0.1544
  678MOL0     C91454   3.445   8.760   5.049  0.0086  0.4020  0.5129
  678MOL0     C91455   3.457   8.886   4.968 -0.0965 -0.4320 -1.3828
  678MOL0     C91456   3.491   9.013   5.049 -0.1670  0.2181  0.2055
  678MOL0     C91457   3.375   9.118   5.033  0.3689 -0.0677  0.4968
  678MOL0     C91458   3.422   9.248   5.067 -0.0630 -0.6564 -0.8149
  678MOL0     C91459   3.473   9.359   5.084  0.6135  0.5367 -0.1930
  678MOL0     C91460   3.522   8.502   5.140 -0.2822 -0.4337 -0.2313
  678MOL0     C91461   3.548   8.379   5.202 -0.0268  0.0463 -0.5651
  678MOL0     C91462   3.446   8.267   5.188  0.1121  1.6458 -0.1373
  678MOL0     H91463   3.533   7.905   5.317  0.5430  1.4229  0.7399
  678MOL0     H91464   3.577   7.703   5.428 -2.0752  1.6699 -2.4509
  678MOL0     H91465   3.936   7.704   5.683 -2.4416  2.1929 -1.4747
  678MOL0     H91466   3.861   7.558   5.720  0.8128 -0.7415  0.4118
  678MOL0     H91467   4.047   7.626   5.481 -1.7090  0.2076 -0.8129
  678MOL0     H91468   3.991   7.459   5.520 -1.9848  0.2320  1.2303
  678MOL0     H91469   4.111   7.478   5.730  0.6295  2.1330  0.5789
  678MOL0     H91470   4.167   7.634   5.690 -2.0151  0.8766 -0.2305
  678MOL0     H91471   4.253   7.362   5.563 -1.9052 -0.8691 -2.3210
  678MOL0     H91472   4.253   7.510   5.465 -5.3942  4.2998  1.2866
  678MOL0     H91473   4.406   7.635   5.606  1.0285  0.2500 -1.2520
  678MOL0     H91474   4.407   7.498   5.718 -1.7216  0.1896 -0.2442
  678MOL0     H91475   4.552   7.372   5.572  1.3672  1.3441  0.9632
  678MOL0     H91476   4.507   7.450   5.427 -0.9790 -2.1308 -0.2741
  678MOL0     H91477   4.611   7.670   5.523  0.6539  0.5044  1.2639
  678MOL0     H91478   4.729   7.549   5.484  1.5657  1.8876  0.4948
  678MOL0     H91479   4.635   7.600   5.768 -1.1465 -0.4217  0.3868
  678MOL0     H91480   4.745   7.470   5.699 -4.2989 -1.5985  1.6708
  678MOL0     H91481   4.968   7.541   5.806 -2.2280 -0.9489  0.3411
  678MOL0     H91482   5.157   7.853   5.887  0.5225 -0.2431  2.2134
  678MOL0     H91483   5.117   7.715   5.970 -1.5663  0.7302  0.4923
  678MOL0     H91484   5.315   7.636   5.881 -0.4778  0.0957  1.0287
  678MOL0     H91485   5.221   7.579   5.746  2.0136 -0.3840 -0.4432
  678MOL0     H91486   5.430   7.715   5.676 -0.5667 -0.9590 -2.2986
  678MOL0     H91487   5.354   7.845   5.749  0.7716 -0.7009  1.5483
  678MOL0     H91488   5.328   7.803   5.502  1.3191 -0.9781 -0.2450
  678MOL0     H91489   5.165   7.818   5.576  0.1778  1.0193  2.0339
  678MOL0     H91490   5.020   7.758   5.414  0.8031  2.5771 -0.2443
  678MOL0     H91491   4.958   7.794   5.168  0.6230  0.3812  0.0042
  678MOL0     H91492   4.956   7.577   4.729 -1.4997 -1.4775 -3.6704
  678MOL0     H91493   4.887   7.606   4.505  3.1542 -0.4743  0.3004
  678MOL0     H91494   4.990   7.990   4.340 -1.0118 -0.6007 -0.6911
  678MOL0     H91495   4.921   7.911   4.193 -1.6894  0.2635 -1.3142
  678MOL0     H91496   4.721   8.034   4.367 -0.4527  2.3932  0.8753
  678MOL0     H91497   4.827   8.151   4.289 -1.4004  0.2890 -0.0174
  678MOL0     H91498   4.759   8.037   4.065 -3.1767 -2.1555 -2.0671
  678MOL0     H91499   4.667   7.936   4.154  0.0287  0.7333 -0.0018
  678MOL0     H91500   4.646   8.246   4.142  1.1552 -0.5782  1.2628
  678MOL0     H91501   4.520   8.134   4.223 -1.6075 -1.4251 -1.6710
  678MOL0     H91502   4.504   8.043   3.971 -1.8353  0.3515  0.2205
  678MOL0     H91503   4.563   8.202   3.934 -2.7972  0.3329 -0.9710
  678MOL0     H91504   4.335   8.207   3.921 -1.3144  1.2400  0.5498
  678MOL0     H91505   4.317   8.135   4.082 -2.7436  1.0692 -1.2981
  678MOL0     H91506   4.481   8.385   4.064  0.6558 -0.3486  3.9892
  678MOL0     H91507   4.374   8.339   4.195 -1.9758  2.0603 -0.0365
  678MOL0     H91508   4.258   8.436   3.933  0.1745  1.0737 -0.6945
  678MOL0     H91509   4.177   8.414   4.084  0.1424  1.2105 -0.2667
  678MOL0     H91510   4.923   8.029   4.529 -3.3264 -1.3378 -2.5186
  678MOL0     H91511   4.979   8.030   4.764  2.6641 -1.4391  0.5209
  678MOL0     H91512   5.293   7.526   5.076  1.5588  0.3575  0.4095
  678MOL0     H91513   5.356   7.515   5.277 -2.0606 -3.6409 -0.5265
  678MOL0     H91514   3.978   7.819   5.503 -1.5569  0.2501  2.7150
  678MOL0     H91515   3.920   8.053   5.430  1.7037 -1.4810 -0.7135
  678MOL0     H91516   3.840   8.475   5.353  1.3986 -0.1966 -2.0017
  678MOL0     H91517   3.777   8.696   5.249  2.7855 -1.0527  2.1018
  678MOL0     H91518   3.379   8.763   5.136 -2.0509 -1.1622 -0.9075
  678MOL0     H91519   3.412   8.680   4.982  0.4215 -1.2559  2.2023
  678MOL0     H91520   3.359   8.902   4.922 -0.7805 -2.2219 -0.6735
  678MOL0     H91521   3.514   8.883   4.875 -0.9838  2.3274 -2.1115
  678MOL0     H91522   3.588   9.045   5.012 -0.2197 -1.9191 -2.1194
  678MOL0     H91523   3.494   8.977   5.152 -0.5331 -1.3181 -0.2915
  678MOL0     H91524   3.348   9.121   4.927 -1.3690 -2.8784  0.7661
  678MOL0     H91525   3.285   9.093   5.089 -1.9968  2.0291 -2.0928
  678MOL0     H91526   3.524   9.453   5.086  0.2175  0.7467  0.2149
  678MOL0     H91527   3.435   8.506   5.075 -1.6720  0.8267  1.6225
  678MOL0     H91528   3.376   8.284   5.105 -2.1358 -0.6183  1.1378
  678MOL0     H91529   3.501   8.182   5.148  5.1189  2.3906  4.1721
  678MOL0     H91530   3.389   8.231   5.275  1.6330  1.5000  0.8306
  679MOL0     O91531   1.287   4.138   7.610  0.3232 -0.3661  1.3450
  679MOL0     C91532   1.314   4.210   7.708  0.3505 -0.2444 -0.5269
  679MOL0     O91533   1.382   4.332   7.709  0.0300  0.6400  0.1717
  679MOL0     C91534   1.397   4.391   7.584  0.8906  0.4597 -0.0161
  679MOL0     C91535   1.428   4.330   7.462  0.2721  0.4699  0.0999
  679MOL0     C91536   1.457   4.412   7.352 -0.2702 -0.5196  0.0502
  679MOL0     C91537   1.466   4.556   7.368 -0.1528 -0.2991  0.4686
  679MOL0     O91538   1.466   4.645   7.267  0.1078 -0.4975 -1.2884
  679MOL0     C91539   1.491   4.614   7.126  0.4402 -0.3389 -0.1359
  679MOL0     C91540   1.372   4.554   7.060 -0.4445 -0.5384  0.2227
  679MOL0     C91541   1.394   4.518   6.913  0.7042 -0.2681  0.0077
  679MOL0     C91542   1.322   4.394   6.854 -0.1958  0.0271 -0.9823
  679MOL0     C91543   1.404   4.270   6.846 -0.1568 -0.1502  0.1819
  679MOL0     C91544   1.478   4.218   6.976  0.1182  0.0571  0.7940
  679MOL0     C91545   1.556   4.089   6.935 -0.9511 -0.1646  0.1657
  679MOL0     C91546   1.697   4.083   7.004 -0.6244  0.2831 -0.9147
  679MOL0     N91547   1.697   4.154   7.135 -0.1475 -0.2173 -0.0067
  679MOL0     C91548   1.675   4.097   7.261  0.0386 -0.6602 -0.1845
  679MOL0     C91549   1.727   4.181   7.357 -0.2196 -0.7331  0.8811
  679MOL0     C91550   1.739   4.179   7.499 -0.5462  0.6812  0.7206
  679MOL0     C91551   1.848   4.068   7.540 -0.3486  0.5935 -0.5464
  679MOL0     C91552   1.797   3.932   7.568 -0.1680  0.1613  0.1146
  679MOL0     C91553   1.738   3.907   7.703  0.1436 -0.3514 -0.2600
  679MOL0     O91554   1.703   3.765   7.710  0.6735  0.0403  1.5171
  679MOL0     C91555   1.579   3.732   7.764  0.4541 -0.3793 -0.2185
  679MOL0     C91556   1.502   3.621   7.719  0.1439  0.0408  0.4856
  679MOL0     C91557   1.391   3.569   7.786  0.8058 -0.1903 -0.5698
  679MOL0     C91558   1.335   3.645   7.898  0.3569  0.1396  0.3885
  679MOL0     C91559   1.218   3.608   7.978 -0.1843  1.2183  1.1729
  679MOL0     O91560   1.134   3.533   7.900  0.7829  0.2510 -0.0292
  679MOL0     C91561   1.020   3.492   7.955  0.4613 -0.1727  0.0359
  679MOL0     C91562   0.975   3.375   7.912  0.3468  0.2310 -0.3397
  679MOL0     C91563   0.846   3.324   7.953 -0.4196 -0.0047  0.8521
  679MOL0     C91564   0.756   3.409   8.028  0.1147 -0.4090  1.3338
  679MOL0     O91565   0.634   3.374   8.054  0.4119 -0.0011  0.1920
  679MOL0     C91566   0.622   3.283   8.163 -0.0602 -0.8647 -0.0655
  679MOL0     C91567   0.510   3.317   8.262 -0.6503 -0.6534 -0.2180
  679MOL0     C91568   0.523   3.238   8.391  0.4700  0.1927 -0.0656
  679MOL0     C91569   0.468   3.095   8.400 -0.0692 -0.5758 -1.1931
  679MOL0     C91570   0.444   3.066   8.552  0.0805  0.9410  0.4161
  679MOL0     C91571   0.375   2.931   8.561  0.2161  0.2003 -0.3746
  679MOL0     C91572   0.362   2.888   8.704  1.2777  0.3317 -0.0348
  679MOL0     C91573   0.303   2.752   8.699  0.6707 -0.6208 -0.7337
  679MOL0    Cl91574   0.277   2.689   8.875  0.1569  0.3122  0.6268
  679MOL0     C91575   0.804   3.537   8.064  0.2345  1.2396  0.6869
  679MOL0     C91576   0.928   3.581   8.022 -0.3051  0.5400  0.4211
  679MOL0     O91577   1.205   3.649   8.091 -0.3673 -0.3372 -0.4176
  679MOL0     C91578   1.413   3.758   7.937 -0.5043 -0.3456  0.5954
  679MOL0     C91579   1.529   3.798   7.876  1.1908  0.3107 -0.2274
  679MOL0     N91580   1.774   4.292   7.280  0.9510  0.6001 -0.0540
  679MOL0     N91581   1.779   4.264   7.155 -0.4070 -0.2786  0.1032
  679MOL0     C91582   1.444   4.611   7.492 -0.3863 -0.2309  0.1529
  679MOL0     C91583   1.398   4.526   7.591 -0.7288 -0.3946 -0.4776
  679MOL0     C91584   1.259   4.166   7.840  0.9918 -0.2600  1.1831
  679MOL0     C91585   1.284   4.255   7.948 -0.3405 -0.5905 -0.9763
  679MOL0     C91586   1.238   4.227   8.080  0.5182  0.0058  1.5215
  679MOL0     C91587   1.176   4.105   8.102  0.5530  0.1666 -1.0321
  679MOL0     O91588   1.158   4.062   8.234 -0.0164 -0.5417  0.3896
  679MOL0     C91589   1.072   3.955   8.275 -0.5295  0.2178 -0.2572
  679MOL0     C91590   1.000   3.989   8.414  0.2172 -0.0501  0.3975
  679MOL0     C91591   1.093   3.956   8.529  0.1362  0.3922 -0.0628
  679MOL0     C91592   1.037   3.996   8.673  0.8512 -0.8613  0.6713
  679MOL0     C91593   1.013   4.134   8.687  1.5164 -0.0095 -0.3848
  679MOL0     C91594   0.992   4.256   8.696 -0.3265 -0.5680 -0.1513
  679MOL0     C91595   1.143   4.025   7.996  0.2928  0.1157 -0.4933
  679MOL0     C91596   1.190   4.053   7.874 -0.0581 -0.3168  0.7748
  679MOL0     C91597   1.145   3.956   7.767  0.1977 -0.0591  0.3138
  679MOL0     H91598   1.436   4.223   7.450 -2.8187  0.2739 -1.1578
  679MOL0     H91599   1.476   4.364   7.257 -1.6856 -0.1411 -0.4423
  679MOL0     H91600   1.517   4.701   7.064 -0.9740  0.0292 -0.2359
  679MOL0     H91601   1.577   4.547   7.122 -0.1396 -1.1067  0.0305
  679MOL0     H91602   1.292   4.627   7.072  0.5028  0.4284  0.8393
  679MOL0     H91603   1.359   4.463   7.119  0.8472 -1.4282 -0.8100
  679MOL0     H91604   1.503   4.504   6.911  0.8820  0.8180  1.0558
  679MOL0     H91605   1.351   4.598   6.852 -5.6379 -2.2195  1.2559
  679MOL0     H91606   1.232   4.379   6.914  0.2420 -0.5457 -0.4583
  679MOL0     H91607   1.297   4.426   6.753 -1.0251  2.6638 -0.0232
  679MOL0     H91608   1.338   4.193   6.804  0.3127 -0.9935  0.9684
  679MOL0     H91609   1.488   4.295   6.781 -2.0009  1.2994 -1.7922
  679MOL0     H91610   1.532   4.310   7.004 -1.7233  0.9733  1.5064
  679MOL0     H91611   1.410   4.191   7.057 -1.8846 -2.7512 -1.6209
  679MOL0     H91612   1.580   4.090   6.828  1.0746  2.1882  0.5766
  679MOL0     H91613   1.498   3.998   6.957 -2.3272  0.8220  0.7917
  679MOL0     H91614   1.709   3.975   7.020 -1.1349  0.5171  1.4215
  679MOL0     H91615   1.773   4.120   6.935 -0.1384  1.1048  0.0277
  679MOL0     H91616   1.618   4.007   7.282  0.6603 -0.4419  2.8350
  679MOL0     H91617   1.753   4.273   7.553  2.1641  0.5657  0.3584
  679MOL0     H91618   1.640   4.145   7.531 -1.3600 -0.6668 -2.7777
  679MOL0     H91619   1.928   4.054   7.467  3.2651  2.0124  2.7682
  679MOL0     H91620   1.896   4.101   7.633 -2.0130  0.9031  0.2427
  679MOL0     H91621   1.880   3.862   7.555 -2.4397 -2.2840 -3.0964
  679MOL0     H91622   1.735   3.895   7.486 -1.4959 -2.0589  1.9914
  679MOL0     H91623   1.649   3.970   7.716  0.7711  0.1061  2.3515
  679MOL0     H91624   1.810   3.925   7.783  1.5500 -0.3059 -1.5005
  679MOL0     H91625   1.544   3.554   7.645 -0.4325  0.4528 -0.2331
  679MOL0     H91626   1.347   3.474   7.757  2.2798 -0.3495 -2.4928
  679MOL0     H91627   1.018   3.298   7.850 -1.7678 -2.2768  1.0773
  679MOL0     H91628   0.815   3.230   7.910  2.4569 -0.5164 -0.3246
  679MOL0     H91629   0.608   3.184   8.118 -4.4154 -0.9543  1.0059
  679MOL0     H91630   0.720   3.271   8.210  0.2754  0.6645 -0.3143
  679MOL0     H91631   0.509   3.425   8.282 -3.2524 -0.5018 -0.8255
  679MOL0     H91632   0.418   3.286   8.211 -2.7050 -1.3035  3.4887
  679MOL0     H91633   0.628   3.236   8.422  0.0179  1.5038  1.7160
  679MOL0     H91634   0.477   3.298   8.470  0.5762 -2.6866  2.3645
  679MOL0     H91635   0.545   3.029   8.359  0.8002  0.1335 -0.7424
  679MOL0     H91636   0.370   3.080   8.353  0.2701 -0.2353 -2.0484
  679MOL0     H91637   0.404   3.150   8.611 -0.3659 -0.7387  2.6241
  679MOL0     H91638   0.543   3.045   8.592  0.3263  0.0895 -0.5934
  679MOL0     H91639   0.276   2.923   8.515 -0.4750 -2.4745  1.3380
  679MOL0     H91640   0.442   2.861   8.509 -1.4681 -1.9701  0.2257
  679MOL0     H91641   0.297   2.963   8.750  0.9844  1.2242 -1.8204
  679MOL0     H91642   0.454   2.895   8.763  2.6433 -0.2240 -2.0013
  679MOL0     H91643   0.212   2.761   8.639  0.9051  1.1388 -0.8709
  679MOL0     H91644   0.374   2.688   8.645 -0.2209 -2.9030  0.6358
  679MOL0     H91645   0.729   3.600   8.112  0.3372  1.0493  1.0965
  679MOL0     H91646   0.951   3.678   8.066 -0.5253 -0.4287  2.8649
  679MOL0     H91647   1.376   3.816   8.021 -0.3992 -0.7714  0.9402
  679MOL0     H91648   1.576   3.883   7.924 -1.5604  0.5179  2.4313
  679MOL0     H91649   1.458   4.712   7.527 -0.0506 -0.1857 -0.1147
  679MOL0     H91650   1.369   4.568   7.686 -0.0903 -1.7357  0.3405
  679MOL0     H91651   1.335   4.348   7.924  0.2352 -1.3984 -3.0621
  679MOL0     H91652   1.273   4.284   8.165 -0.5095  1.9535  0.6850
  679MOL0     H91653   1.142   3.871   8.281  2.7887  2.8154  0.5818
  679MOL0     H91654   1.004   3.941   8.191  0.8207  2.0383 -1.7187
  679MOL0     H91655   0.908   3.931   8.419  1.4546 -1.9911  1.7529
  679MOL0     H91656   0.986   4.097   8.403  0.9515  0.0072  0.0058
  679MOL0     H91657   1.188   4.006   8.508 -0.2395 -0.3800 -4.7343
  679MOL0     H91658   1.120   3.850   8.530  1.6424  0.7561  0.6721
  679MOL0     H91659   0.938   3.955   8.698 -0.8062  1.5493 -1.3511
  679MOL0     H91660   1.111   3.970   8.748  1.0621 -1.7678  0.1596
  679MOL0     H91661   0.977   4.361   8.709 -1.3990 -0.3586 -2.6482
  679MOL0     H91662   1.098   3.930   8.027  0.1515  1.1072  2.6471
  679MOL0     H91663   1.064   3.899   7.814 -1.2251  0.9169 -0.8418
  679MOL0     H91664   1.102   4.005   7.679 -0.4954 -2.5850 -0.8621
  679MOL0     H91665   1.228   3.895   7.730 -0.6775 -1.1944  0.1580
  680MOL0     O91666   2.347   1.862   2.601 -0.3108 -0.3113  1.1975
  680MOL0     C91667   2.374   1.820   2.711 -0.3809  0.4451 -0.5320
  680MOL0     O91668   2.289   1.823   2.821  0.3404 -0.1409  0.3604
  680MOL0     C91669   2.177   1.889   2.806  0.9365 -0.0304 -0.2295
  680MOL0     C91670   2.170   2.021   2.866 -1.8323  0.8096 -0.1580
  680MOL0     C91671   2.060   2.100   2.882 -0.2931 -0.8251  0.6199
  680MOL0     C91672   1.941   2.048   2.834  0.5076 -0.2188 -0.1599
  680MOL0     O91673   1.820   2.125   2.829 -0.1857  0.6068  0.5327
  680MOL0     C91674   1.814   2.272   2.863  0.4836 -0.2469  0.2087
  680MOL0     C91675   1.696   2.335   2.801  0.0111  1.1844  0.8057
  680MOL0     C91676   1.711   2.312   2.643  0.6845  0.2321 -0.5267
  680MOL0     C91677   1.607   2.401   2.572 -0.0349  0.6914  0.9857
  680MOL0     C91678   1.602   2.387   2.415  0.2631 -0.1435  0.1429
  680MOL0     C91679   1.579   2.238   2.380  0.8126  0.3543  0.0417
  680MOL0     C91680   1.531   2.227   2.234 -0.0207  0.1118  0.2167
  680MOL0     C91681   1.648   2.270   2.140  0.5289  0.4513  0.9117
  680MOL0     N91682   1.657   2.182   2.021  0.4573 -0.7830 -0.5385
  680MOL0     C91683   1.555   2.186   1.929  0.1227 -0.9246 -0.0977
  680MOL0     C91684   1.614   2.147   1.806  0.6997 -0.0673 -0.8375
  680MOL0     C91685   1.541   2.147   1.674 -0.1171  0.6287  0.0164
  680MOL0     C91686   1.630   2.184   1.561  0.4165  0.0040  0.2083
  680MOL0     C91687   1.638   2.340   1.552 -0.4571 -0.7318  0.1621
  680MOL0     C91688   1.757   2.402   1.627  0.9021  0.7174 -1.4391
  680MOL0     O91689   1.775   2.540   1.602  0.2101 -0.2281 -0.8939
  680MOL0     C91690   1.850   2.571   1.487 -0.6021 -0.1972  0.3198
  680MOL0     C91691   1.896   2.702   1.489  0.0444 -0.6011  0.5157
  680MOL0     C91692   1.981   2.744   1.387 -0.0188 -0.2089 -0.3996
  680MOL0     C91693   2.036   2.659   1.288 -0.3961 -0.5156 -0.4535
  680MOL0     C91694   2.124   2.708   1.177  0.0864  0.1612 -0.2861
  680MOL0     O91695   2.168   2.617   1.089 -0.0470 -0.3898  0.6832
  680MOL0     C91696   2.264   2.654   0.995 -0.7964  0.0618  0.6973
  680MOL0     C91697   2.361   2.760   1.005 -0.4969 -0.1921 -0.1251
  680MOL0     C91698   2.466   2.780   0.916  0.5494  0.6955 -0.0140
  680MOL0     C91699   2.471   2.700   0.803  0.0453 -0.8961 -0.2635
  680MOL0     O91700   2.562   2.743   0.709 -0.3316  0.5479  0.5074
  680MOL0     C91701   2.578   2.681   0.575  0.0693  0.4457 -0.0533
  680MOL0     C91702   2.714   2.706   0.513 -0.4282 -0.0761 -0.7106
  680MOL0     C91703   2.730   2.619   0.384 -0.8557 -0.2470  0.2430
  680MOL0     C91704   2.867   2.637   0.323  0.0711  0.3374  0.4410
  680MOL0     C91705   2.915   2.521   0.226  0.2065  0.6112 -0.5029
  680MOL0     C91706   3.044   2.534   0.162 -0.8953 -0.3485  0.2423
  680MOL0     C91707   3.056   2.425   0.054 -0.9500  0.8403 -1.4047
  680MOL0     C91708   3.054   2.279   0.096 -0.1654 -0.0067 -0.2216
  680MOL0    Cl91709   3.052   2.167  -0.044 -0.3613 -0.3379 -0.0421
  680MOL0     C91710   2.370   2.608   0.782 -0.2706  0.6192  0.2686
  680MOL0     C91711   2.266   2.578   0.872  0.6228  0.6793 -1.0764
  680MOL0     O91712   2.144   2.828   1.183 -0.0803  0.3095 -0.1338
  680MOL0     C91713   1.988   2.524   1.287  0.1350 -0.4936 -0.1275
  680MOL0     C91714   1.891   2.482   1.378 -0.0202  0.6413  0.1719
  680MOL0     N91715   1.742   2.114   1.833 -0.1760 -0.7460  0.8323
  680MOL0     N91716   1.761   2.135   1.951 -0.3403  0.4147  0.1075
  680MOL0     C91717   1.943   1.916   2.790 -0.0647  0.4001 -0.2374
  680MOL0     C91718   2.054   1.835   2.775 -0.8377  0.6088  0.3676
  680MOL0     C91719   2.505   1.750   2.738  0.4932  0.1505  0.4065
  680MOL0     C91720   2.547   1.707   2.868  0.0693 -0.0230 -0.7029
  680MOL0     C91721   2.666   1.640   2.901 -0.2788  0.3119  0.0996
  680MOL0     C91722   2.759   1.635   2.802 -0.3521 -0.9024  0.4555
  680MOL0     O91723   2.881   1.585   2.816  0.1608 -0.8108 -0.6127
  680MOL0     C91724   2.928   1.571   2.953  0.5551  0.4202 -0.3663
  680MOL0     C91725   2.899   1.418   3.005  0.9580 -0.5414 -1.0046
  680MOL0     C91726   2.967   1.307   2.923 -0.2062 -0.3935 -0.2858
  680MOL0     C91727   2.878   1.241   2.816  1.2621  0.4065  0.1251
  680MOL0     C91728   2.948   1.124   2.764 -0.4574  0.5951  0.2970
  680MOL0     C91729   3.011   1.021   2.747 -0.3410 -0.3976  0.3638
  680MOL0     C91730   2.726   1.667   2.670  0.8479 -0.1108 -0.0180
  680MOL0     C91731   2.607   1.733   2.639 -0.5210 -1.0386 -1.6096
  680MOL0     C91732   2.594   1.776   2.501  0.8613  0.3366 -0.0328
  680MOL0     H91733   2.270   2.059   2.884 -0.5569 -1.9871 -0.7726
  680MOL0     H91734   2.080   2.199   2.922  3.1228  0.6384 -3.8844
  680MOL0     H91735   1.807   2.291   2.971  1.3733  3.0891 -0.2006
  680MOL0     H91736   1.901   2.322   2.819 -0.4293 -2.2703 -4.5342
  680MOL0     H91737   1.696   2.443   2.819 -3.6372  1.3569  0.5650
  680MOL0     H91738   1.607   2.286   2.841  0.9257 -0.2032  1.2178
  680MOL0     H91739   1.685   2.212   2.607 -2.4309  0.9249 -0.5015
  680MOL0     H91740   1.810   2.343   2.608  1.1654  0.8896  1.3124
  680MOL0     H91741   1.507   2.369   2.602 -0.0665  0.5111  0.6868
  680MOL0     H91742   1.627   2.505   2.599  0.0074  0.5578  1.4632
  680MOL0     H91743   1.517   2.444   2.377 -0.2753 -0.9953  0.0421
  680MOL0     H91744   1.695   2.421   2.369 -1.2111  1.6426 -1.6828
  680MOL0     H91745   1.673   2.182   2.385  0.1415 -1.0816 -2.0056
  680MOL0     H91746   1.503   2.196   2.448  0.2451 -1.2502 -1.5120
  680MOL0     H91747   1.450   2.299   2.220  2.0906  3.1396  2.4109
  680MOL0     H91748   1.505   2.124   2.207  1.7830 -0.7282  1.4684
  680MOL0     H91749   1.648   2.375   2.111  1.4479 -0.4528 -3.0633
  680MOL0     H91750   1.739   2.265   2.201  1.8594 -0.0748 -0.9939
  680MOL0     H91751   1.450   2.212   1.937 -1.0074 -3.8482 -2.8985
  680MOL0     H91752   1.503   2.049   1.644  3.4576 -1.0009  0.2924
  680MOL0     H91753   1.459   2.220   1.674  1.0312  1.9771 -0.2568
  680MOL0     H91754   1.725   2.131   1.562 -0.5881 -1.9379 -1.0484
  680MOL0     H91755   1.583   2.157   1.466  3.9598  2.4919 -2.5297
  680MOL0     H91756   1.547   2.388   1.588 -0.0762 -0.8203  1.2753
  680MOL0     H91757   1.639   2.378   1.450 -0.1138 -0.2205  0.3499
  680MOL0     H91758   1.844   2.337   1.612  2.3401  2.2418 -0.0882
  680MOL0     H91759   1.758   2.385   1.735  1.0390  0.2917 -1.5051
  680MOL0     H91760   1.870   2.774   1.567  0.2581  2.0061 -1.6529
  680MOL0     H91761   2.011   2.847   1.400 -1.6667  0.4871 -1.7846
  680MOL0     H91762   2.360   2.841   1.077 -1.4886  0.4125 -0.7954
  680MOL0     H91763   2.530   2.865   0.932 -1.5973  2.0620  1.8334
  680MOL0     H91764   2.557   2.573   0.576  4.0078 -0.4888  2.6922
  680MOL0     H91765   2.511   2.738   0.509 -0.1834 -1.1176 -1.2175
  680MOL0     H91766   2.723   2.810   0.482 -1.7875  0.0777 -0.6331
  680MOL0     H91767   2.797   2.697   0.584  0.2034  1.7601 -1.1507
  680MOL0     H91768   2.732   2.514   0.411  3.2392 -0.5409 -0.6033
  680MOL0     H91769   2.647   2.639   0.315 -1.1054 -3.3081 -0.4934
  680MOL0     H91770   2.937   2.640   0.408  1.1129  2.5102 -0.4002
  680MOL0     H91771   2.888   2.729   0.268  1.5817 -0.3169 -0.1287
  680MOL0     H91772   2.850   2.499   0.141  2.3707 -3.3134 -1.3907
  680MOL0     H91773   2.921   2.430   0.286 -1.5773 -0.1350 -1.3786
  680MOL0     H91774   3.055   2.633   0.117  2.2019 -0.5185  0.3763
  680MOL0     H91775   3.120   2.527   0.241 -3.7442 -2.4438  3.0465
  680MOL0     H91776   3.155   2.454   0.019 -0.5167  1.0192 -0.1022
  680MOL0     H91777   2.990   2.439  -0.032 -2.9523  0.3767 -0.0166
  680MOL0     H91778   3.138   2.254   0.162 -0.2471 -3.0986 -1.1109
  680MOL0     H91779   2.968   2.266   0.162  0.4943 -0.0859  0.6421
  680MOL0     H91780   2.368   2.538   0.699 -0.5563  0.5304  0.3493
  680MOL0     H91781   2.191   2.501   0.856 -0.6162  1.9115 -1.4945
  680MOL0     H91782   2.018   2.462   1.204  1.3877 -1.1656  0.8033
  680MOL0     H91783   1.855   2.380   1.375  0.6686  0.3589 -3.9404
  680MOL0     H91784   1.844   1.889   2.756 -1.4667 -0.9049  4.1581
  680MOL0     H91785   2.032   1.733   2.747 -0.7796  1.1188 -1.7108
  680MOL0     H91786   2.484   1.734   2.952  0.9992 -1.0947  0.3742
  680MOL0     H91787   2.668   1.580   2.992 -1.5558 -0.7042 -0.5026
  680MOL0     H91788   2.904   1.646   3.028  1.8171  0.2422  0.2422
  680MOL0     H91789   3.038   1.578   2.955  0.5583  0.2740  0.5818
  680MOL0     H91790   2.793   1.390   3.005  0.0983  2.2381  1.0805
  680MOL0     H91791   2.933   1.407   3.108  1.6897  2.0824 -0.8964
  680MOL0     H91792   2.999   1.224   2.987 -0.8546 -0.4112  0.0303
  680MOL0     H91793   3.044   1.351   2.860  1.7436  1.3426  3.0546
  680MOL0     H91794   2.781   1.215   2.859 -0.0109  3.2645 -0.7588
  680MOL0     H91795   2.844   1.307   2.735  0.6250  1.6224  1.3393
  680MOL0     H91796   3.071   0.938   2.717 -2.0010 -1.3456 -0.4986
  680MOL0     H91797   2.805   1.654   2.597 -0.8816 -0.9002 -1.8588
  680MOL0     H91798   2.590   1.884   2.486 -0.1918 -0.1192 -4.2484
  680MOL0     H91799   2.679   1.746   2.440  0.0764 -0.7913 -0.6319
  680MOL0     H91800   2.505   1.732   2.454  2.5938 -0.9972 -2.2479
  681MOL0     O91801   8.428   8.028   4.419  0.1421  0.1714  0.9390
  681MOL0     C91802   8.496   7.938   4.368  0.3026 -0.0364 -0.4987
  681MOL0     O91803   8.565   7.842   4.445  0.1756  0.0767 -0.5354
  681MOL0     C91804   8.607   7.871   4.575  1.1374  0.2246 -0.3085
  681MOL0     C91805   8.649   7.758   4.638  0.6215  0.6625 -1.1094
  681MOL0     C91806   8.691   7.754   4.776 -0.8008  0.5596  0.6736
  681MOL0     C91807   8.689   7.877   4.854 -0.5524  0.5535 -0.3749
  681MOL0     O91808   8.701   7.883   4.987  0.2187 -0.2439 -0.4078
  681MOL0     C91809   8.669   7.767   5.060 -0.4936  0.1952 -0.5891
  681MOL0     C91810   8.668   7.777   5.216 -0.8477 -0.4017 -0.2780
  681MOL0     C91811   8.610   7.651   5.290 -0.4525  0.0296 -0.3308
  681MOL0     C91812   8.686   7.532   5.255  0.1730 -0.1651 -0.2043
  681MOL0     C91813   8.634   7.422   5.345  0.4752  0.0629 -0.8516
  681MOL0     C91814   8.699   7.289   5.308 -0.5331  0.6659  0.1446
  681MOL0     C91815   8.648   7.175   5.399  1.1087 -0.2075  0.5452
  681MOL0     C91816   8.678   7.192   5.551  0.1592  0.1658  0.6452
  681MOL0     N91817   8.732   7.073   5.622  0.3522  0.5324 -0.5419
  681MOL0     C91818   8.660   6.962   5.657  0.4481 -1.1311  0.8410
  681MOL0     C91819   8.734   6.894   5.747  0.1345  0.4116  0.0010
  681MOL0     C91820   8.682   6.777   5.824 -0.7749  0.7439 -0.2614
  681MOL0     C91821   8.654   6.648   5.741  0.9838 -0.8058 -0.2515
  681MOL0     C91822   8.560   6.552   5.819  0.5162 -0.1442 -0.1127
  681MOL0     C91823   8.505   6.430   5.743 -1.1913 -0.5255 -0.3103
  681MOL0     O91824   8.440   6.463   5.623 -0.1715 -0.3829  0.7493
  681MOL0     C91825   8.327   6.538   5.623 -0.4372  0.4101 -0.1667
  681MOL0     C91826   8.339   6.647   5.538  0.8925  0.2299 -0.4020
  681MOL0     C91827   8.229   6.732   5.519  0.1230  0.6768 -0.5773
  681MOL0     C91828   8.107   6.710   5.590 -0.6743  0.1065 -0.1757
  681MOL0     C91829   7.995   6.797   5.575 -1.0435  0.5257 -0.4481
  681MOL0     O91830   7.874   6.775   5.639  0.2426 -0.5457  0.3579
  681MOL0     C91831   7.773   6.863   5.611 -0.1931  0.3537  0.0680
  681MOL0     C91832   7.743   6.960   5.715  0.4201  0.5887 -0.3047
  681MOL0     C91833   7.638   7.056   5.690 -0.2589  0.4358 -0.3220
  681MOL0     C91834   7.567   7.064   5.562  0.5848 -0.5490  0.4066
  681MOL0     O91835   7.487   7.170   5.548  0.7881 -0.1624 -0.3230
  681MOL0     C91836   7.493   7.250   5.429  0.0476 -0.4110  1.0009
  681MOL0     C91837   7.394   7.364   5.435 -0.2306 -0.2457  0.2741
  681MOL0     C91838   7.424   7.460   5.548  0.3813  0.6999 -0.6432
  681MOL0     C91839   7.537   7.558   5.517  1.0113 -0.1822  0.9842
  681MOL0     C91840   7.601   7.628   5.636 -1.8818 -0.3062  0.1906
  681MOL0     C91841   7.722   7.710   5.598  0.6931  0.0070 -0.2885
  681MOL0     C91842   7.698   7.828   5.515 -0.1793 -0.4381  0.1455
  681MOL0     C91843   7.596   7.920   5.585 -0.0808  0.6629  0.6873
  681MOL0    Cl91844   7.675   7.993   5.728 -0.1099  0.1038 -0.1912
  681MOL0     C91845   7.625   6.984   5.455  0.4675 -1.2301  0.0984
  681MOL0     C91846   7.718   6.885   5.485  0.6153  0.0656 -0.3389
  681MOL0     O91847   8.015   6.886   5.498 -0.0844 -0.0692  0.4317
  681MOL0     C91848   8.105   6.605   5.685  0.1070 -0.0290  0.4025
  681MOL0     C91849   8.213   6.512   5.704  0.9033  0.1381  0.9872
  681MOL0     N91850   8.853   6.962   5.762 -0.2436  0.2256 -0.1931
  681MOL0     N91851   8.848   7.063   5.684  0.2757 -0.7596 -0.7235
  681MOL0     C91852   8.649   7.993   4.782 -0.4493 -0.2820 -0.7330
  681MOL0     C91853   8.611   7.993   4.645 -0.0714  0.4725 -0.3907
  681MOL0     C91854   8.498   7.924   4.220 -1.1809  1.0065 -0.5031
  681MOL0     C91855   8.531   7.795   4.188  0.3350 -0.6279  0.4393
  681MOL0     C91856   8.561   7.756   4.058  0.1474 -0.2945 -0.7265
  681MOL0     C91857   8.528   7.856   3.956 -0.3320 -0.8849 -0.3994
  681MOL0     O91858   8.541   7.832   3.822 -0.5538  0.1996  0.0715
  681MOL0     C91859   8.425   7.829   3.737  0.2780  0.1022 -0.6363
  681MOL0     C91860   8.327   7.723   3.781 -0.0252  0.1918 -0.4626
  681MOL0     C91861   8.220   7.762   3.879  1.0628  0.1466  0.1604
  681MOL0     C91862   8.125   7.879   3.824 -0.0446 -0.1333  0.3752
  681MOL0     C91863   8.028   7.844   3.722 -0.0586 -0.5296  0.7312
  681MOL0     C91864   7.945   7.807   3.641 -0.6980  0.2662 -0.6632
  681MOL0     C91865   8.490   7.984   3.988  0.0433 -0.1438  0.3441
  681MOL0     C91866   8.481   8.019   4.119  0.3079 -0.0218 -0.5232
  681MOL0     C91867   8.433   8.168   4.136 -0.0088 -0.5024 -1.2729
  681MOL0     H91868   8.644   7.662   4.587 -0.8411 -0.7958  1.5479
  681MOL0     H91869   8.723   7.657   4.812  0.9294  0.7962 -0.1401
  681MOL0     H91870   8.571   7.725   5.035 -0.5923 -0.4539  0.7995
  681MOL0     H91871   8.750   7.698   5.035  1.4669  2.1548  0.0571
  681MOL0     H91872   8.614   7.863   5.258 -0.2765 -0.5384  0.7870
  681MOL0     H91873   8.769   7.799   5.252 -1.1200  0.5612 -0.0712
  681MOL0     H91874   8.507   7.646   5.255  0.1238 -2.1323 -1.9185
  681MOL0     H91875   8.602   7.660   5.399 -0.4848  2.2577 -0.4759
  681MOL0     H91876   8.680   7.526   5.146 -1.4411 -0.4807 -0.1235
  681MOL0     H91877   8.787   7.562   5.282 -0.3923 -0.7005  2.8433
  681MOL0     H91878   8.654   7.447   5.449 -0.0723 -0.1551 -0.6918
  681MOL0     H91879   8.526   7.433   5.331  0.5150  3.2582  0.5046
  681MOL0     H91880   8.679   7.264   5.204  1.2245  0.7654 -0.2404
  681MOL0     H91881   8.808   7.301   5.314  0.0410 -2.0206 -2.7158
  681MOL0     H91882   8.661   7.070   5.375  2.8812 -0.4419  2.2377
  681MOL0     H91883   8.542   7.192   5.382  1.0929 -2.8871 -3.2091
  681MOL0     H91884   8.749   7.275   5.558 -0.4458  0.5486  4.2135
  681MOL0     H91885   8.587   7.229   5.599  1.1268  3.2702  0.3424
  681MOL0     H91886   8.560   6.936   5.624  0.7581 -1.9657  0.5498
  681MOL0     H91887   8.757   6.744   5.897  3.3400  2.1314 -3.4581
  681MOL0     H91888   8.591   6.810   5.874 -2.3763 -2.6019 -0.6668
  681MOL0     H91889   8.599   6.680   5.653  0.4642 -1.9365 -0.3510
  681MOL0     H91890   8.746   6.594   5.715  0.3506 -1.9107 -0.2340
  681MOL0     H91891   8.477   6.613   5.856 -0.0620  1.0041 -2.9552
  681MOL0     H91892   8.610   6.503   5.903  5.1426 -1.0122 -2.9683
  681MOL0     H91893   8.437   6.371   5.806 -0.2785  0.4986  1.7447
  681MOL0     H91894   8.576   6.354   5.712 -1.7071 -0.2796 -2.2139
  681MOL0     H91895   8.436   6.667   5.492  0.1082 -1.1494 -2.8022
  681MOL0     H91896   8.256   6.816   5.455  2.1600 -2.2073 -3.9045
  681MOL0     H91897   7.800   6.946   5.807  1.0200 -1.0023 -0.8880
  681MOL0     H91898   7.625   7.125   5.773 -1.8307  2.0371 -1.8303
  681MOL0     H91899   7.591   7.297   5.417  0.8652 -2.4232 -0.9439
  681MOL0     H91900   7.459   7.180   5.352 -2.4107  1.3244  0.4062
  681MOL0     H91901   7.390   7.418   5.339  2.2149  0.4502  0.4959
  681MOL0     H91902   7.288   7.344   5.454 -1.1281  2.3259 -1.3622
  681MOL0     H91903   7.324   7.491   5.579 -0.5799 -3.8776  1.6456
  681MOL0     H91904   7.451   7.390   5.628 -1.5547 -2.5128 -2.5627
  681MOL0     H91905   7.495   7.638   5.456  1.2803 -1.9961 -1.7541
  681MOL0     H91906   7.616   7.515   5.454  0.2729  1.0717 -0.8890
  681MOL0     H91907   7.645   7.556   5.705 -1.0364  1.6036  1.7572
  681MOL0     H91908   7.523   7.684   5.688 -0.8663  0.2066  1.2199
  681MOL0     H91909   7.769   7.736   5.693 -0.7932  1.5942  0.0747
  681MOL0     H91910   7.792   7.652   5.538  1.6768 -0.9240  1.6751
  681MOL0     H91911   7.657   7.780   5.426  2.1137 -1.2740 -0.5450
  681MOL0     H91912   7.792   7.880   5.492  0.3702 -0.5891  1.8718
  681MOL0     H91913   7.580   7.996   5.508  0.5151  2.1465  1.9782
  681MOL0     H91914   7.508   7.874   5.631  0.2991 -1.5645 -0.6295
  681MOL0     H91915   7.579   7.006   5.359  2.2516  2.6295 -0.0415
  681MOL0     H91916   7.759   6.821   5.408 -0.2354 -1.2854  0.2905
  681MOL0     H91917   8.021   6.589   5.752  0.2407 -2.1599  0.1422
  681MOL0     H91918   8.214   6.421   5.762  0.4951 -1.5881 -1.5444
  681MOL0     H91919   8.661   8.094   4.820  3.6439  0.4965 -3.4648
  681MOL0     H91920   8.576   8.088   4.605 -0.3774  1.0562  1.1960
  681MOL0     H91921   8.547   7.717   4.261 -0.2386  2.8374  4.6780
  681MOL0     H91922   8.603   7.658   4.036  0.8771  0.2915 -2.1364
  681MOL0     H91923   8.459   7.799   3.637  1.8023  0.9192 -0.3964
  681MOL0     H91924   8.377   7.926   3.721 -2.5184 -0.9880  0.4318
  681MOL0     H91925   8.392   7.639   3.808  3.0615  2.0367 -1.5878
  681MOL0     H91926   8.271   7.701   3.689 -0.8770 -1.2885  0.3743
  681MOL0     H91927   8.260   7.793   3.976 -0.5643  2.7450  0.0857
  681MOL0     H91928   8.160   7.672   3.894 -3.2073  2.9776  1.6998
  681MOL0     H91929   8.076   7.922   3.911 -0.3306  0.9338 -0.2884
  681MOL0     H91930   8.188   7.959   3.786  2.3621 -0.6142  3.0270
  681MOL0     H91931   7.864   7.783   3.575 -0.0825 -0.6245 -1.1170
  681MOL0     H91932   8.462   8.051   3.908  0.4541 -1.6650 -1.1300
  681MOL0     H91933   8.337   8.187   4.087 -1.2675 -1.5883  0.6747
  681MOL0     H91934   8.422   8.181   4.244  0.4333  1.4880 -1.4259
  681MOL0     H91935   8.511   8.236   4.101  0.4461 -1.5298 -2.3101
  682MOL0     O91936   8.826   8.353   6.901 -0.3976  0.1270 -0.1196
  682MOL0     C91937   8.819   8.316   6.777 -1.2073  0.2184 -0.0184
  682MOL0     O91938   8.750   8.195   6.730  0.3171 -0.5220  0.0636
  682MOL0     C91939   8.674   8.146   6.831  1.2241  0.4675  0.2304
  682MOL0     C91940   8.568   8.218   6.893  0.3041 -0.3866 -0.3390
  682MOL0     C91941   8.502   8.162   7.002  0.6055  0.6979  0.9898
  682MOL0     C91942   8.528   8.028   7.039 -0.2007  0.4140  0.7374
  682MOL0     O91943   8.469   7.976   7.157  0.3020  0.3373 -0.1277
  682MOL0     C91944   8.428   7.835   7.161  0.7056 -0.4083 -0.0865
  682MOL0     C91945   8.496   7.791   7.291  0.5308 -1.1326 -0.4654
  682MOL0     C91946   8.491   7.646   7.323 -0.0628 -0.1867  0.6403
  682MOL0     C91947   8.420   7.562   7.221 -0.5984 -0.1866  0.3721
  682MOL0     C91948   8.444   7.425   7.279  0.6941 -0.1141  0.5260
  682MOL0     C91949   8.390   7.308   7.183  0.6154 -0.4036 -0.2436
  682MOL0     C91950   8.387   7.172   7.257  0.0097  0.8369  0.3311
  682MOL0     C91951   8.446   7.057   7.182 -0.3208 -0.1048  1.0948
  682MOL0     N91952   8.355   6.989   7.085  0.0547  0.0190  0.2302
  682MOL0     C91953   8.246   6.916   7.108  0.1878 -0.1808  0.7198
  682MOL0     C91954   8.206   6.844   7.001 -0.4270 -0.3648  0.1710
  682MOL0     C91955   8.109   6.729   6.973 -0.2025 -0.8740 -1.3690
  682MOL0     C91956   8.026   6.708   7.101 -0.6256  0.8141  0.4425
  682MOL0     C91957   7.905   6.812   7.101 -0.0803 -0.4113  0.0006
  682MOL0     C91958   7.765   6.741   7.061 -0.5705  0.4240 -0.0686
  682MOL0     O91959   7.755   6.709   6.922  0.2170 -0.0914 -0.4693
  682MOL0     C91960   7.710   6.589   6.878  0.5743 -0.5388  0.3313
  682MOL0     C91961   7.635   6.597   6.763 -0.0686  0.3406 -0.7060
  682MOL0     C91962   7.575   6.483   6.708 -0.1408  0.4192  0.3161
  682MOL0     C91963   7.595   6.362   6.759 -0.2011  0.3511  0.4333
  682MOL0     C91964   7.516   6.242   6.710  0.0779 -0.4044 -0.2299
  682MOL0     O91965   7.442   6.241   6.600 -0.5459 -0.6851  0.1867
  682MOL0     C91966   7.374   6.135   6.568 -0.4082  0.4912 -0.2993
  682MOL0     C91967   7.426   6.006   6.579 -0.3481  0.3929 -0.6353
  682MOL0     C91968   7.360   5.900   6.527  0.3373  0.4493  0.0716
  682MOL0     C91969   7.241   5.909   6.458  0.4220 -0.5331 -0.7769
  682MOL0     O91970   7.182   5.799   6.413  0.0861  0.7181 -0.1328
  682MOL0     C91971   7.149   5.789   6.272 -0.0994  0.1855  0.4443
  682MOL0     C91972   7.272   5.770   6.181  0.3144 -0.0814 -1.3022
  682MOL0     C91973   7.313   5.902   6.118 -1.1214 -0.4044  0.7180
  682MOL0     C91974   7.442   5.877   6.034 -0.1842  0.6973 -0.1879
  682MOL0     C91975   7.437   5.782   5.911  0.3278 -0.4547 -0.2760
  682MOL0     C91976   7.569   5.776   5.838  0.3482  0.7198  0.5330
  682MOL0     C91977   7.537   5.704   5.707 -0.6449  0.2430 -0.1422
  682MOL0     C91978   7.586   5.551   5.712 -0.1038 -0.5775  0.1242
  682MOL0    Cl91979   7.761   5.536   5.720  0.1855  0.4011 -0.2577
  682MOL0     C91980   7.191   6.040   6.439 -0.9361 -0.5081 -0.3704
  682MOL0     C91981   7.257   6.150   6.494 -0.8186  0.1474  0.3754
  682MOL0     O91982   7.520   6.152   6.785 -0.6557  0.0468 -0.9274
  682MOL0     C91983   7.685   6.349   6.872  0.3514 -0.6228  0.5097
  682MOL0     C91984   7.741   6.468   6.924 -0.2425 -0.2253  0.8790
  682MOL0     N91985   8.288   6.892   6.905 -0.1089  0.8462  0.5045
  682MOL0     N91986   8.374   6.979   6.950  1.1059 -0.2419  0.1866
  682MOL0     C91987   8.627   7.950   6.978  0.3056 -0.4337  0.4695
  682MOL0     C91988   8.691   8.011   6.863  0.4218 -0.0836 -0.3448
  682MOL0     C91989   8.896   8.398   6.675 -0.7035 -0.5028 -0.4861
  682MOL0     C91990   8.950   8.340   6.551 -1.1371  1.2416 -0.7565
  682MOL0     C91991   9.018   8.421   6.449  0.2943 -0.5435 -0.1784
  682MOL0     C91992   9.035   8.562   6.471  0.3529  0.4758 -1.0880
  682MOL0     O91993   9.051   8.634   6.362  0.3133  0.4704 -0.5323
  682MOL0     C91994   9.133   8.747   6.380  0.8068 -0.7875 -1.1334
  682MOL0     C91995   9.059   8.882   6.381 -0.7171 -0.1619 -0.6846
  682MOL0     C91996   9.144   9.006   6.433 -0.3808  0.7093 -0.1657
  682MOL0     C91997   9.267   9.046   6.346  0.5306 -0.2471 -0.5210
  682MOL0     C91998   9.342   9.161   6.406 -0.3162  0.9859  0.1756
  682MOL0     C91999   9.390   9.274   6.440  0.2424 -0.1744 -0.5657
  682MOL0     C92000   8.975   8.617   6.588  0.3628  0.3412  0.2344
  682MOL0     C92001   8.924   8.543   6.692 -0.1404  0.6430  0.4951
  682MOL0     C92002   8.884   8.610   6.815  0.9449 -0.7724  1.7106
  682MOL0     H92003   8.551   8.320   6.859 -1.8382 -0.6016 -0.0493
  682MOL0     H92004   8.433   8.222   7.060 -0.5790  0.5506 -0.2358
  682MOL0     H92005   8.319   7.827   7.168  0.5141  0.9670 -1.1126
  682MOL0     H92006   8.447   7.775   7.072 -0.3201 -2.5070  1.0334
  682MOL0     H92007   8.461   7.844   7.380  1.4588  0.8587 -1.2089
  682MOL0     H92008   8.600   7.826   7.289 -0.5939  2.6737  0.1859
  682MOL0     H92009   8.462   7.629   7.427  2.3695  0.4827  1.4754
  682MOL0     H92010   8.595   7.613   7.315  0.7188  1.6717  2.4298
  682MOL0     H92011   8.313   7.577   7.203 -0.3315  1.2891 -0.2102
  682MOL0     H92012   8.484   7.571   7.132  0.9398 -2.3493  1.1767
  682MOL0     H92013   8.551   7.412   7.297  1.1563  3.8391  1.6222
  682MOL0     H92014   8.408   7.417   7.382  2.5688  0.3435  1.2460
  682MOL0     H92015   8.286   7.332   7.159  1.0217  1.0028 -0.6724
  682MOL0     H92016   8.454   7.301   7.095  2.8164 -0.9716  1.3083
  682MOL0     H92017   8.289   7.154   7.302 -0.1538  2.3477  0.6310
  682MOL0     H92018   8.458   7.187   7.340  1.6947 -0.0268 -0.8883
  682MOL0     H92019   8.542   7.085   7.137 -1.4118  1.2789 -0.5139
  682MOL0     H92020   8.466   6.983   7.260 -1.1991 -1.1485  0.3677
  682MOL0     H92021   8.202   6.903   7.206  0.4592 -0.5271  0.7958
  682MOL0     H92022   8.048   6.766   6.890  0.3643  0.6887 -1.1219
  682MOL0     H92023   8.164   6.638   6.945 -0.1803 -1.0737 -0.6796
  682MOL0     H92024   7.991   6.605   7.100  4.2715 -1.1914  2.3813
  682MOL0     H92025   8.090   6.707   7.190  0.1551 -1.9784 -0.0538
  682MOL0     H92026   7.922   6.891   7.027  0.5367  0.8867  1.4782
  682MOL0     H92027   7.886   6.854   7.200 -1.7270 -1.2423  0.0806
  682MOL0     H92028   7.691   6.821   7.073 -0.2689  0.3600  3.0362
  682MOL0     H92029   7.736   6.657   7.125  2.3013 -0.0502  0.7189
  682MOL0     H92030   7.608   6.695   6.723 -0.2964 -0.5213 -2.7681
  682MOL0     H92031   7.491   6.502   6.642 -1.3112  1.1861  1.9661
  682MOL0     H92032   7.525   5.985   6.617 -0.0838 -0.6311 -1.8079
  682MOL0     H92033   7.398   5.798   6.531 -0.1879  0.2686  0.6472
  682MOL0     H92034   7.092   5.696   6.264 -0.1588  0.3273 -1.1046
  682MOL0     H92035   7.086   5.866   6.227  0.4257 -1.1156 -2.8541
  682MOL0     H92036   7.357   5.726   6.234 -0.0104 -1.6916 -2.0467
  682MOL0     H92037   7.248   5.694   6.106  0.1032  1.2983 -2.6807
  682MOL0     H92038   7.222   5.940   6.070 -0.0683 -0.1145 -1.1227
  682MOL0     H92039   7.327   5.986   6.187 -0.4173  0.9180 -0.9697
  682MOL0     H92040   7.527   5.860   6.102 -1.4469 -4.3151  0.5476
  682MOL0     H92041   7.452   5.971   5.980 -1.6277  0.8800 -0.1599
  682MOL0     H92042   7.354   5.810   5.845 -0.2737  0.6188  0.8856
  682MOL0     H92043   7.423   5.676   5.932  0.6772 -0.4255  0.1282
  682MOL0     H92044   7.616   5.872   5.815  2.4838 -0.1855  0.8229
  682MOL0     H92045   7.655   5.728   5.887 -0.1562 -0.3181  0.4304
  682MOL0     H92046   7.602   5.736   5.625 -2.0080 -1.2087 -1.8982
  682MOL0     H92047   7.431   5.708   5.679 -0.2157 -2.1010 -2.6163
  682MOL0     H92048   7.531   5.509   5.797  1.7675 -0.6841  1.3225
  682MOL0     H92049   7.555   5.504   5.618  0.7297  1.0464 -0.9938
  682MOL0     H92050   7.095   6.042   6.387 -2.1411  2.6006  1.7071
  682MOL0     H92051   7.231   6.253   6.471  2.2993  0.6473 -1.5152
  682MOL0     H92052   7.706   6.254   6.920  3.0299  0.1934  1.1280
  682MOL0     H92053   7.801   6.469   7.014 -0.2589  0.7649  0.8858
  682MOL0     H92054   8.641   7.843   6.993 -1.6417 -1.1548 -2.1541
  682MOL0     H92055   8.755   7.948   6.802  0.6165 -2.7753  2.4116
  682MOL0     H92056   8.937   8.233   6.537 -2.0798  1.4418 -1.5548
  682MOL0     H92057   9.033   8.387   6.347  0.9500  4.0298 -1.8204
  682MOL0     H92058   9.193   8.753   6.289 -2.1147 -1.1547 -3.2160
  682MOL0     H92059   9.193   8.744   6.472  0.4134  0.6290 -0.8029
  682MOL0     H92060   8.964   8.881   6.435 -0.5607 -1.0894 -0.4014
  682MOL0     H92061   9.043   8.918   6.279 -1.3498  1.3799 -0.0809
  682MOL0     H92062   9.179   8.970   6.530 -1.8656  0.9691  0.4945
  682MOL0     H92063   9.086   9.096   6.455  0.7868  2.1601 -2.5505
  682MOL0     H92064   9.327   8.961   6.313  0.8128 -0.3623  0.2722
  682MOL0     H92065   9.230   9.085   6.251  0.0092 -1.0460 -0.6568
  682MOL0     H92066   9.422   9.375   6.454 -1.2251  0.6308 -2.5069
  682MOL0     H92067   8.974   8.724   6.607  1.3455  0.1000  1.7879
  682MOL0     H92068   8.921   8.567   6.909  2.6303  1.2363  2.0633
  682MOL0     H92069   8.936   8.707   6.816  2.3960 -1.4972  0.6382
  682MOL0     H92070   8.777   8.616   6.834  1.0864 -1.3916  2.8238
  683MOL0     O92071   5.738   9.720   1.422  0.2702 -0.6236  0.1225
  683MOL0     C92072   5.691   9.612   1.432  0.3235  0.8284  0.2968
  683MOL0     O92073   5.696   9.508   1.344 -1.2843 -0.2268 -0.4411
  683MOL0     C92074   5.776   9.513   1.227 -0.3695  0.5130  0.4919
  683MOL0     C92075   5.776   9.614   1.140 -0.0130 -1.0889  0.5283
  683MOL0     C92076   5.861   9.624   1.026 -0.0624 -0.7244 -0.3170
  683MOL0     C92077   5.932   9.505   0.997 -0.2064  0.3308  0.6551
  683MOL0     O92078   6.007   9.493   0.881  0.0021 -0.1627  0.1422
  683MOL0     C92079   6.115   9.590   0.875  0.1040 -0.1759  0.3722
  683MOL0     C92080   6.084   9.696   0.762 -0.9873 -0.1904 -0.3671
  683MOL0     C92081   6.103   9.649   0.622 -0.0528  0.9820  1.1090
  683MOL0     C92082   5.989   9.544   0.584 -0.4945 -0.1382 -0.4037
  683MOL0     C92083   5.960   9.530   0.435  0.1973 -0.0537  0.4590
  683MOL0     C92084   6.053   9.437   0.357  0.7371 -0.4060  0.2394
  683MOL0     C92085   5.986   9.406   0.218 -0.5533 -0.4790  0.1036
  683MOL0     C92086   6.082   9.325   0.123 -0.7617  0.2592  0.0165
  683MOL0     N92087   6.215   9.394   0.083 -0.5928  1.3227  0.3955
  683MOL0     C92088   6.241   9.525   0.085  0.2848  0.0697 -0.0495
  683MOL0     C92089   6.374   9.530   0.040  0.6328  0.9495  0.2114
  683MOL0     C92090   6.457   9.649   0.004 -0.4743 -1.0768  0.4225
  683MOL0     C92091   6.509   9.694   0.137 -0.1696  0.6109 -0.6370
  683MOL0     C92092   6.528   9.847   0.137 -0.4900 -0.4883  0.1238
  683MOL0     C92093   6.397   9.924   0.143  0.7141 -0.5383 -0.1822
  683MOL0     O92094   6.340   9.933   0.011  0.1921  0.9139 -0.1412
  683MOL0     C92095   6.207   9.950   0.005  0.4780 -0.3131 -0.0555
  683MOL0     C92096   6.141  10.060   0.069  0.6443 -0.5201 -0.8144
  683MOL0     C92097   6.002  10.071   0.056 -0.0636 -0.5143  0.1909
  683MOL0     C92098   5.924   9.976  -0.004 -1.0962  0.0139  0.0510
  683MOL0     C92099   5.775   9.985  -0.006  0.3306 -0.3570 -0.0485
  683MOL0     O92100   5.707   9.885  -0.062 -0.1829  0.1021  0.1942
  683MOL0     C92101   5.571   9.887  -0.077 -0.7525 -0.0604 -0.1568
  683MOL0     C92102   5.482  10.001  -0.087 -0.1812 -0.3396  0.0410
  683MOL0     C92103   5.344   9.986  -0.096  0.0765  1.4247 -0.5074
  683MOL0     C92104   5.289   9.855  -0.098 -0.9200  0.9455 -1.2341
  683MOL0     O92105   5.161   9.832  -0.118  0.1058  0.0738  0.6615
  683MOL0     C92106   5.096   9.791   0.007  0.0565  0.5384  0.4387
  683MOL0     C92107   4.982   9.887   0.031 -0.4454 -0.0683  0.4848
  683MOL0     C92108   4.868   9.859  -0.063  0.7934 -0.3445  0.9822
  683MOL0     C92109   4.750   9.959  -0.059 -0.2053  0.4234  0.8017
  683MOL0     C92110   4.801  10.112  -0.062  0.7729  0.6112 -0.1755
  683MOL0     C92111   4.691  10.218  -0.088  0.1951 -0.2823  0.4101
  683MOL0     C92112   4.741  10.367  -0.098 -0.7147 -0.8189 -1.1226
  683MOL0     C92113   4.647  10.476  -0.145  0.0416 -0.5252  0.3034
  683MOL0    Cl92114   4.487  10.463  -0.067  0.1884  0.7790 -0.3505
  683MOL0     C92115   5.367   9.748  -0.100  0.2008 -0.1317 -0.3769
  683MOL0     C92116   5.511   9.762  -0.094 -0.0763 -0.6503 -0.4804
  683MOL0     O92117   5.738  10.094   0.035 -0.2726  0.0118 -0.4636
  683MOL0     C92118   5.996   9.868  -0.066  1.4708  0.1395 -0.2970
  683MOL0     C92119   6.132   9.849  -0.056  0.4863  0.2580 -0.3061
  683MOL0     N92120   6.432   9.410   0.043  0.0771  0.0343 -0.3183
  683MOL0     N92121   6.334   9.332   0.082  0.1366 -0.6964 -0.6507
  683MOL0     C92122   5.926   9.400   1.080 -1.0699  0.1658  0.3411
  683MOL0     C92123   5.852   9.402   1.192  0.4808 -0.4519  0.5867
  683MOL0     C92124   5.605   9.584   1.540 -0.4412 -0.9513  0.6091
  683MOL0     C92125   5.497   9.666   1.556  0.6833 -0.1591 -0.4745
  683MOL0     C92126   5.410   9.629   1.656 -0.3188  0.5698 -0.2598
  683MOL0     C92127   5.437   9.515   1.744  0.0353 -0.3130  0.6162
  683MOL0     O92128   5.359   9.476   1.856 -0.0141 -0.0811  1.0635
  683MOL0     C92129   5.220   9.520   1.861  0.2538  1.0443 -0.7580
  683MOL0     C92130   5.206   9.661   1.931 -0.0914  1.0405  0.7449
  683MOL0     C92131   5.239   9.630   2.083  0.6299 -0.1196  0.5340
  683MOL0     C92132   5.162   9.727   2.176 -0.0689  0.1495  0.0156
  683MOL0     C92133   5.199   9.870   2.158  0.6326  0.2159  0.1704
  683MOL0     C92134   5.221   9.985   2.138 -0.6228  0.1030 -0.0762
  683MOL0     C92135   5.552   9.447   1.726 -0.3683  0.1870 -0.6234
  683MOL0     C92136   5.641   9.473   1.623  0.3065  0.8190 -0.7188
  683MOL0     C92137   5.768   9.399   1.611  0.5008 -0.4026 -0.4391
  683MOL0     H92138   5.702   9.689   1.167  0.0507 -1.3741  1.5292
  683MOL0     H92139   5.860   9.705   0.954 -1.0733  1.7204  2.2238
  683MOL0     H92140   6.147   9.631   0.972  3.5114  0.5759 -0.9116
  683MOL0     H92141   6.205   9.539   0.841  0.8362  0.5863  1.0797
  683MOL0     H92142   6.143   9.787   0.778 -0.1226 -0.8207  0.0840
  683MOL0     H92143   5.982   9.735   0.771 -1.7647 -2.3661  1.1503
  683MOL0     H92144   6.202   9.604   0.615 -0.5203  0.1391 -3.9697
  683MOL0     H92145   6.102   9.733   0.551 -2.2621  1.3062  1.4559
  683MOL0     H92146   6.020   9.443   0.614  1.5641  0.1692 -1.3376
  683MOL0     H92147   5.903   9.575   0.643  1.3813  0.3949  2.2547
  683MOL0     H92148   5.857   9.496   0.421  0.0187  1.3576 -2.5384
  683MOL0     H92149   5.964   9.628   0.386  3.0818 -1.1513 -1.8425
  683MOL0     H92150   6.154   9.471   0.335  1.6515 -4.4784 -3.2451
  683MOL0     H92151   6.070   9.341   0.408  0.7887 -0.2334  0.5504
  683MOL0     H92152   5.953   9.491   0.157  1.5336  0.1251 -0.2379
  683MOL0     H92153   5.895   9.346   0.232 -1.9066  1.4488 -0.0895
  683MOL0     H92154   6.100   9.225   0.163 -0.0831  0.5745  0.5190
  683MOL0     H92155   6.019   9.298   0.037 -1.6449  0.6389  0.5233
  683MOL0     H92156   6.190   9.612   0.124  0.0138 -1.2222  2.7250
  683MOL0     H92157   6.546   9.632  -0.057 -2.8185 -0.9479 -3.3818
  683MOL0     H92158   6.407   9.729  -0.051 -1.1756 -2.0426 -0.3806
  683MOL0     H92159   6.441   9.669   0.219 -1.4490  0.0740 -1.8135
  683MOL0     H92160   6.606   9.650   0.161  0.0680  1.9121  0.9517
  683MOL0     H92161   6.597   9.869   0.055  0.3759 -0.4205  0.8542
  683MOL0     H92162   6.578   9.869   0.232 -0.9331 -1.1426  0.5162
  683MOL0     H92163   6.424  10.020   0.187  1.9805 -1.4594  1.1366
  683MOL0     H92164   6.325   9.875   0.209  1.7754 -0.1098  1.3339
  683MOL0     H92165   6.196  10.141   0.114 -0.3286 -0.7276  0.8323
  683MOL0     H92166   5.964  10.167   0.089  3.1380  1.1920 -0.6701
  683MOL0     H92167   5.525  10.101  -0.081  2.3193 -1.3112 -0.4982
  683MOL0     H92168   5.271  10.066  -0.105 -0.2560  1.3243  1.1174
  683MOL0     H92169   5.061   9.688  -0.003  3.8144 -0.9675  0.9809
  683MOL0     H92170   5.161   9.795   0.094  2.1738  0.9669 -1.0699
  683MOL0     H92171   4.957   9.894   0.138 -0.2755  2.8928  0.4003
  683MOL0     H92172   5.009   9.991   0.012 -1.8166  0.6617  2.1809
  683MOL0     H92173   4.898   9.853  -0.168 -3.1201  4.5973 -0.8465
  683MOL0     H92174   4.813   9.766  -0.044 -1.6133  0.8020  0.0703
  683MOL0     H92175   4.680   9.942   0.023  0.3370 -4.5369  0.5361
  683MOL0     H92176   4.696   9.952  -0.154  0.5686 -0.1177  0.3971
  683MOL0     H92177   4.862  10.116  -0.153 -1.0971 -0.1700 -1.5295
  683MOL0     H92178   4.858  10.141   0.027  0.7155  0.6878 -0.1640
  683MOL0     H92179   4.649  10.193  -0.186  1.0404  1.4257 -0.4240
  683MOL0     H92180   4.619  10.209  -0.006  3.2856 -0.3887  3.2949
  683MOL0     H92181   4.831  10.388  -0.157  1.4843 -1.0448  1.9278
  683MOL0     H92182   4.773  10.395   0.002  0.3584 -1.1090 -1.3715
  683MOL0     H92183   4.693  10.573  -0.121  1.3979 -1.2551  0.7386
  683MOL0     H92184   4.647  10.459  -0.253 -0.7349 -2.5251  0.5768
  683MOL0     H92185   5.322   9.650  -0.110 -1.0947  0.1750  1.7017
  683MOL0     H92186   5.584   9.681  -0.090  1.6716  0.8936  0.4479
  683MOL0     H92187   5.936   9.787  -0.106 -0.8089  0.0593  2.8645
  683MOL0     H92188   6.180   9.756  -0.086  0.4413  0.8663 -2.4303
  683MOL0     H92189   5.991   9.320   1.048  3.9792  3.6619  0.6450
  683MOL0     H92190   5.857   9.310   1.249 -0.2314 -0.2652  0.9623
  683MOL0     H92191   5.471   9.741   1.482 -0.9204  3.3725  3.2593
  683MOL0     H92192   5.328   9.696   1.679  0.8120  2.1181 -0.5190
  683MOL0     H92193   5.161   9.444   1.913 -0.6671 -0.8423 -4.2482
  683MOL0     H92194   5.183   9.530   1.758 -1.1600  0.9412 -0.2698
  683MOL0     H92195   5.103   9.696   1.919 -0.3122  0.2252  0.1482
  683MOL0     H92196   5.273   9.733   1.881 -0.6564  0.6541 -0.6009
  683MOL0     H92197   5.346   9.638   2.101  0.8880 -1.6731 -0.1421
  683MOL0     H92198   5.206   9.528   2.108  1.8130 -0.6131  0.1385
  683MOL0     H92199   5.055   9.716   2.157  0.0771  0.8572 -1.2744
  683MOL0     H92200   5.182   9.692   2.278  1.7438 -0.5842 -0.5366
  683MOL0     H92201   5.229  10.087   2.109 -0.8932 -0.1847 -1.2307
  683MOL0     H92202   5.568   9.368   1.799  0.5461 -1.5360 -2.5910
  683MOL0     H92203   5.846   9.436   1.544  2.0446 -0.2468  1.3707
  683MOL0     H92204   5.813   9.408   1.710 -2.6834  2.1038  0.9279
  683MOL0     H92205   5.748   9.292   1.594 -0.6730 -0.1613 -0.6804
  684MOL0     O92206  10.345  10.108   4.633 -0.2657  0.0271 -0.5303
  684MOL0     C92207  10.466  10.133   4.647 -0.7997  0.0303 -0.0992
  684MOL0     O92208  10.524  10.192   4.757 -0.3634  0.0960 -0.0978
  684MOL0     C92209  10.442  10.266   4.837 -0.7053  0.9898  0.6234
  684MOL0     C92210  10.414  10.400   4.814 -1.0410 -0.2169  0.7892
  684MOL0     C92211  10.340  10.471   4.909 -0.0898 -0.0520 -0.4614
  684MOL0     C92212  10.286  10.411   5.030  0.3347 -0.1188  0.8184
  684MOL0     O92213  10.208  10.479   5.126  0.1631 -0.4061  0.0336
  684MOL0     C92214  10.214  10.622   5.144 -0.1695  1.6103  0.1956
  684MOL0     C92215  10.265  10.658   5.278  0.1325  0.8948  0.4014
  684MOL0     C92216  10.281  10.809   5.286  0.8690 -0.1284 -0.0016
  684MOL0     C92217  10.333  10.843   5.433  0.1645 -0.6430 -0.0774
  684MOL0     C92218  10.355  10.998   5.458  0.9931  0.3124 -0.0774
  684MOL0     C92219  10.242  11.094   5.457  0.1375  0.3822 -0.2415
  684MOL0     C92220  10.304  11.239   5.469 -0.7966  0.9168  0.0374
  684MOL0     C92221  10.210  11.357   5.455  0.5801  0.2985 -0.7055
  684MOL0     N92222  10.207  11.393   5.319  0.2851 -0.1664  0.8022
  684MOL0     C92223  10.291  11.475   5.246  0.4377 -0.2709  0.4863
  684MOL0     C92224  10.233  11.483   5.123  0.2288  0.3482  0.8800
  684MOL0     C92225  10.264  11.569   5.004  0.4047  0.1362 -0.0097
  684MOL0     C92226  10.401  11.573   4.950  0.0954 -1.3910  0.9045
  684MOL0     C92227  10.413  11.600   4.798  1.1525  0.5383  1.0895
  684MOL0     C92228  10.396  11.744   4.773  0.6938  0.4563 -0.0211
  684MOL0     O92229  10.512  11.816   4.818 -0.2069 -0.1122 -0.4952
  684MOL0     C92230  10.517  11.952   4.779 -0.6123  0.1751  0.1792
  684MOL0     C92231  10.417  12.020   4.700 -0.0408  0.2985  0.0763
  684MOL0     C92232  10.434  12.145   4.666 -0.4562 -0.3605  0.3312
  684MOL0     C92233  10.547  12.227   4.708  0.1035  0.8308 -0.4969
  684MOL0     C92234  10.550  12.369   4.674 -0.8050  0.4111 -0.0299
  684MOL0     O92235  10.612  12.436   4.763 -0.6692 -0.0806 -0.9331
  684MOL0     C92236  10.667  12.562   4.725 -0.6605  0.2486  0.2154
  684MOL0     C92237  10.766  12.582   4.622 -0.9428 -0.6531 -0.7326
  684MOL0     C92238  10.817  12.709   4.593  0.3302  0.1133 -0.6062
  684MOL0     C92239  10.770  12.819   4.668  0.1645  0.6024 -0.6726
  684MOL0     O92240  10.804  12.950   4.649  0.7984  0.0161 -0.2374
  684MOL0     C92241  10.916  12.989   4.574  0.2678  0.1602 -0.3033
  684MOL0     C92242  10.972  13.125   4.613 -0.2123  0.7384 -0.4147
  684MOL0     C92243  11.106  13.148   4.549  0.0555  0.6414 -0.3491
  684MOL0     C92244  11.141  13.304   4.549 -0.8940 -0.1541 -0.0394
  684MOL0     C92245  11.283  13.325   4.487 -0.0410  0.5523 -0.5870
  684MOL0     C92246  11.397  13.317   4.584 -0.0715 -0.3657 -0.0398
  684MOL0     C92247  11.534  13.288   4.510  0.5442  0.4786  0.1149
  684MOL0     C92248  11.622  13.201   4.610 -0.3557 -0.0784  0.1266
  684MOL0    Cl92249  11.664  13.313   4.747  0.1308  0.3060 -0.0000
  684MOL0     C92250  10.687  12.799   4.781 -0.5538  0.3411 -0.5399
  684MOL0     C92251  10.631  12.672   4.806 -0.0448  0.2796  0.0705
  684MOL0     O92252  10.500  12.411   4.572  0.0172  0.2523  0.5032
  684MOL0     C92253  10.645  12.161   4.788 -0.2700 -0.3319 -1.1421
  684MOL0     C92254  10.626  12.026   4.824  0.5718  0.2333 -0.0371
  684MOL0     N92255  10.138  11.379   5.116  0.3376 -0.2497  0.8847
  684MOL0     N92256  10.117  11.337   5.235  1.2120  0.5653  0.3604
  684MOL0     C92257  10.316  10.279   5.047 -0.6466 -1.6573 -0.5373
  684MOL0     C92258  10.398  10.207   4.957 -0.5672 -0.1205  0.5239
  684MOL0     C92259  10.563  10.076   4.547 -0.2038  0.5416 -0.3722
  684MOL0     C92260  10.699  10.091   4.575  0.0127 -0.2485  0.5560
  684MOL0     C92261  10.789  10.030   4.481 -0.5273 -0.4133 -0.3308
  684MOL0     C92262  10.754   9.964   4.366  0.7255 -0.0270 -0.0482
  684MOL0     O92263  10.844   9.908   4.290 -0.1376  0.1205  0.0973
  684MOL0     C92264  10.892   9.784   4.333 -0.1351  0.8078 -1.4973
  684MOL0     C92265  11.048   9.795   4.338  0.5959 -0.0674 -0.1380
  684MOL0     C92266  11.114   9.794   4.206  0.5473 -0.8143  1.0380
  684MOL0     C92267  11.087   9.905   4.109 -0.8441  0.1743  0.3392
  684MOL0     C92268  11.170   9.896   3.991  0.4635  0.2453  0.3341
  684MOL0     C92269  11.230   9.895   3.885  0.5304  0.4566 -0.1417
  684MOL0     C92270  10.615   9.957   4.343 -0.1734 -0.3552  0.5831
  684MOL0     C92271  10.524  10.018   4.424  1.3021  0.3519  0.1034
  684MOL0     C92272  10.383  10.018   4.369  0.7480  0.4178 -0.4471
  684MOL0     H92273  10.460  10.449   4.728 -3.0856 -0.4108 -0.5047
  684MOL0     H92274  10.332  10.578   4.894  2.7176  0.1796 -1.0069
  684MOL0     H92275  10.291  10.668   5.080 -1.4339 -0.2614 -2.9247
  684MOL0     H92276  10.117  10.671   5.136  0.0382  1.9553 -0.3154
  684MOL0     H92277  10.360  10.605   5.285  0.0369 -0.0951 -3.4871
  684MOL0     H92278  10.200  10.618   5.357  2.1155 -0.5335  1.3979
  684MOL0     H92279  10.179  10.847   5.275  0.8322  0.3086  1.5472
  684MOL0     H92280  10.355  10.853   5.219  1.5418 -0.6401  0.3974
  684MOL0     H92281  10.262  10.794   5.501  0.5239 -0.6225  0.3192
  684MOL0     H92282  10.432  10.803   5.457  0.5287  1.3329  2.0719
  684MOL0     H92283  10.406  11.010   5.554 -1.9575  2.3375  1.4129
  684MOL0     H92284  10.409  11.043   5.374 -2.2961  4.4544 -0.3155
  684MOL0     H92285  10.199  11.081   5.357  5.6345 -0.3724 -2.8464
  684MOL0     H92286  10.169  11.065   5.533 -0.8983 -2.5142 -2.1467
  684MOL0     H92287  10.377  11.258   5.390 -1.4115 -2.4122 -1.4908
  684MOL0     H92288  10.373  11.251   5.554  2.1534  0.1914 -2.1219
  684MOL0     H92289  10.114  11.335   5.503  1.5421 -1.6751  0.4561
  684MOL0     H92290  10.272  11.431   5.507  2.5246 -4.8812  5.7813
  684MOL0     H92291  10.368  11.543   5.281 -0.6091  0.6071  1.1277
  684MOL0     H92292  10.206  11.522   4.925  1.0199 -0.7841  0.0687
  684MOL0     H92293  10.231  11.672   5.019  1.2477  0.5192 -0.6891
  684MOL0     H92294  10.455  11.654   5.001  0.9563 -1.0633 -0.4790
  684MOL0     H92295  10.459  11.483   4.970 -0.9536 -2.1080  0.8027
  684MOL0     H92296  10.337  11.549   4.738  2.1215 -0.1464  0.4227
  684MOL0     H92297  10.513  11.573   4.763  0.4480 -1.9250  0.8111
  684MOL0     H92298  10.306  11.793   4.813  0.0455  1.2537 -2.2951
  684MOL0     H92299  10.389  11.742   4.664 -0.1861 -5.4749 -0.1733
  684MOL0     H92300  10.327  11.965   4.675 -1.3796  0.9459  3.0622
  684MOL0     H92301  10.346  12.191   4.621  0.0710 -0.0334 -0.3912
  684MOL0     H92302  10.800  12.494   4.569 -0.4388  0.3099 -2.0571
  684MOL0     H92303  10.881  12.720   4.506  0.9530  0.1804 -0.1467
  684MOL0     H92304  11.000  12.920   4.589 -0.5841 -1.3781 -2.1989
  684MOL0     H92305  10.892  12.996   4.468  2.1996  1.1838 -0.7130
  684MOL0     H92306  10.905  13.205   4.580  1.3192  2.6542  0.8506
  684MOL0     H92307  10.987  13.141   4.720 -0.2457  4.4491 -0.8123
  684MOL0     H92308  11.187  13.107   4.609 -1.1550 -2.0658 -0.4122
  684MOL0     H92309  11.096  13.101   4.450 -1.8474 -0.8929  0.5122
  684MOL0     H92310  11.142  13.342   4.651  3.3315  1.3194 -0.4397
  684MOL0     H92311  11.074  13.364   4.487 -2.0558  2.5531  3.5429
  684MOL0     H92312  11.284  13.424   4.441  0.2255  0.0246 -1.7538
  684MOL0     H92313  11.300  13.248   4.411  0.4789  2.2535 -2.2937
  684MOL0     H92314  11.413  13.412   4.635 -3.9293 -0.1131  1.0028
  684MOL0     H92315  11.372  13.251   4.668 -1.2496  2.1131  1.6687
  684MOL0     H92316  11.582  13.378   4.472 -0.9799  0.7126 -1.3774
  684MOL0     H92317  11.525  13.230   4.417  2.1618  1.5801 -0.7780
  684MOL0     H92318  11.563  13.115   4.641  1.8116 -0.3235  4.2834
  684MOL0     H92319  11.712  13.167   4.557 -0.5753  0.2662 -0.4822
  684MOL0     H92320  10.652  12.883   4.840 -0.7201 -0.3186  0.3108
  684MOL0     H92321  10.571  12.648   4.892  2.5872 -0.5074  1.7996
  684MOL0     H92322  10.735  12.221   4.794 -1.1579  1.2435 -2.7332
  684MOL0     H92323  10.703  11.973   4.879  1.4688  3.5875  2.2274
  684MOL0     H92324  10.292  10.240   5.145 -0.4733 -1.2760 -0.3398
  684MOL0     H92325  10.418  10.103   4.981 -0.4226  0.4553  3.1575
  684MOL0     H92326  10.732  10.138   4.667 -2.1837 -2.4424  2.5974
  684MOL0     H92327  10.895  10.039   4.500 -0.6555 -0.8335  0.6294
  684MOL0     H92328  10.859   9.705   4.264 -1.7598 -2.9128  3.0573
  684MOL0     H92329  10.855   9.742   4.426  1.2928 -1.3121 -1.8186
  684MOL0     H92330  11.086   9.704   4.383 -0.6961 -0.7992 -0.4752
  684MOL0     H92331  11.072   9.888   4.390  1.2827  0.7112 -1.7560
  684MOL0     H92332  11.100   9.696   4.160  0.5173  1.4434 -4.5930
  684MOL0     H92333  11.217   9.816   4.238  1.2441 -3.4574  0.8419
  684MOL0     H92334  10.980   9.907   4.085 -0.1700  0.5512 -3.2460
  684MOL0     H92335  11.106  10.000   4.159  0.9166 -0.4020  0.8640
  684MOL0     H92336  11.258   9.888   3.782 -2.1921  2.7976 -1.1970
  684MOL0     H92337  10.563   9.893   4.272  1.1598 -0.8952  0.0563
  684MOL0     H92338  10.323   9.941   4.419 -0.3599  0.4392 -1.6815
  684MOL0     H92339  10.343  10.119   4.380 -1.7064 -0.4760 -0.3878
  684MOL0     H92340  10.379   9.992   4.263  0.1112 -0.3147 -0.2571
  685MOL0     O92341   8.002   8.962   9.488 -1.0035 -0.4168 -0.1760
  685MOL0     C92342   8.065   8.998   9.392 -0.6018 -0.4079 -0.3553
  685MOL0     O92343   8.054   9.119   9.338 -0.7946  0.3753 -0.8233
  685MOL0     C92344   8.009   9.220   9.427  0.1915 -0.2393  0.5254
  685MOL0     C92345   8.080   9.338   9.453 -0.5451 -0.2199 -0.0419
  685MOL0     C92346   8.015   9.443   9.531 -0.2751  0.0777  0.3888
  685MOL0     C92347   7.882   9.427   9.568  0.4209 -0.3833 -0.2296
  685MOL0     O92348   7.814   9.514   9.653  0.3264  0.4701 -0.2742
  685MOL0     C92349   7.888   9.555   9.767 -0.1866 -0.0308 -0.3443
  685MOL0     C92350   7.913   9.454   9.879 -0.7305  0.3412  0.0487
  685MOL0     C92351   7.799   9.428   9.985  1.3524 -0.9848 -0.0969
  685MOL0     C92352   7.695   9.350   9.910 -0.8214  0.5486 -0.2128
  685MOL0     C92353   7.684   9.197   9.945 -0.1370 -0.3559  0.3516
  685MOL0     C92354   7.738   9.117   9.832 -0.0017 -0.3888  0.4837
  685MOL0     C92355   7.763   8.975   9.881 -0.5533 -0.0911 -0.4836
  685MOL0     C92356   7.629   8.897   9.858 -0.1221 -1.3686 -0.4181
  685MOL0     N92357   7.579   8.886   9.720  0.5254  0.3538 -0.5349
  685MOL0     C92358   7.653   8.901   9.608  0.1811 -0.6211 -0.5197
  685MOL0     C92359   7.571   8.890   9.503  1.0223 -0.9460  0.6502
  685MOL0     C92360   7.614   8.895   9.365 -0.1768 -0.5129  0.2644
  685MOL0     C92361   7.506   8.886   9.264  0.9732  0.2140  0.3378
  685MOL0     C92362   7.546   8.902   9.110 -0.6941 -0.1785 -0.4697
  685MOL0     C92363   7.436   8.862   9.007  0.5487  0.1523  0.0011
  685MOL0     O92364   7.391   8.727   9.023 -0.0922 -0.4998 -0.1720
  685MOL0     C92365   7.300   8.665   8.936  0.3004 -0.7170  0.2327
  685MOL0     C92366   7.195   8.720   8.871 -0.4547  0.4312  0.5104
  685MOL0     C92367   7.110   8.638   8.785 -0.4943 -0.2911 -1.0569
  685MOL0     C92368   7.143   8.508   8.759 -0.5994 -0.0244  0.3214
  685MOL0     C92369   7.053   8.435   8.670 -0.2770  0.1536  1.0648
  685MOL0     O92370   6.953   8.504   8.619 -0.3392 -0.4070  0.5035
  685MOL0     C92371   6.890   8.465   8.502 -0.4755  0.7708  0.4085
  685MOL0     C92372   6.911   8.512   8.371 -0.3675  0.6148 -0.1569
  685MOL0     C92373   6.866   8.446   8.251  0.4650 -0.4042  0.4274
  685MOL0     C92374   6.783   8.332   8.267 -0.4274  0.4912 -0.4390
  685MOL0     O92375   6.734   8.272   8.154  0.0240  0.7466 -0.5546
  685MOL0     C92376   6.762   8.134   8.117 -0.5860 -0.8609  0.6682
  685MOL0     C92377   6.671   8.087   7.999  0.4862 -0.9101 -0.2326
  685MOL0     C92378   6.695   7.934   7.979 -0.2149  0.7631 -0.0508
  685MOL0     C92379   6.806   7.902   7.885  0.2041  0.0948  0.6597
  685MOL0     C92380   6.809   7.745   7.848  0.3952 -0.3435  0.0001
  685MOL0     C92381   6.920   7.705   7.749 -0.0198 -0.7130 -0.6550
  685MOL0     C92382   6.896   7.779   7.618  0.6720 -0.1369  0.1908
  685MOL0     C92383   6.950   7.687   7.516  0.3586 -0.1873 -0.8503
  685MOL0    Cl92384   7.121   7.641   7.545 -0.6298  0.2576  0.1120
  685MOL0     C92385   6.747   8.287   8.399 -0.0188 -0.2120  0.0229
  685MOL0     C92386   6.809   8.347   8.505 -0.7515 -0.6274  0.1040
  685MOL0     O92387   7.078   8.322   8.630 -0.3999 -0.9228  0.1556
  685MOL0     C92388   7.257   8.444   8.822  0.0088  0.1550 -0.8663
  685MOL0     C92389   7.327   8.521   8.914  0.4117 -0.6820 -0.7042
  685MOL0     N92390   7.448   8.867   9.552  0.9034  0.0208  0.4093
  685MOL0     N92391   7.449   8.869   9.683 -0.6375 -0.3733 -0.1069
  685MOL0     C92392   7.820   9.312   9.543 -0.5221  0.3295  0.4380
  685MOL0     C92393   7.877   9.214   9.467 -0.4066  0.0448  0.4354
  685MOL0     C92394   8.191   8.922   9.347  0.0425  0.1600 -0.3439
  685MOL0     C92395   8.305   8.985   9.290  0.3748 -0.8994 -0.5588
  685MOL0     C92396   8.432   8.926   9.245  1.3631 -0.2738 -0.0562
  685MOL0     C92397   8.442   8.790   9.250 -0.3617 -0.0324 -0.2802
  685MOL0     O92398   8.550   8.732   9.202  0.5848  0.2879 -0.1782
  685MOL0     C92399   8.598   8.609   9.266  0.0054 -0.6010  1.3333
  685MOL0     C92400   8.657   8.632   9.407 -0.9859 -0.2604 -0.5644
  685MOL0     C92401   8.737   8.756   9.412 -1.2324 -0.4307  0.1358
  685MOL0     C92402   8.835   8.772   9.294  0.2897  0.3972  0.4311
  685MOL0     C92403   8.934   8.664   9.273  0.5333  0.5730 -0.6089
  685MOL0     C92404   9.030   8.585   9.263 -0.3078 -0.4906 -0.4665
  685MOL0     C92405   8.330   8.724   9.302 -0.1909 -0.1695  0.5254
  685MOL0     C92406   8.206   8.778   9.351  0.7478  0.8203  0.1205
  685MOL0     C92407   8.101   8.675   9.410 -0.0240 -1.0893  0.0958
  685MOL0     H92408   8.175   9.367   9.410 -0.1299 -1.7564 -0.1944
  685MOL0     H92409   8.064   9.539   9.539 -0.6424  0.3850 -0.8319
  685MOL0     H92410   7.985   9.593   9.733 -1.2938  2.6641 -0.6647
  685MOL0     H92411   7.836   9.635   9.820 -0.2026 -0.0661 -0.3055
  685MOL0     H92412   8.000   9.501   9.927 -0.5631  1.6360 -1.4463
  685MOL0     H92413   7.954   9.360   9.839  2.5177  1.6601 -0.0218
  685MOL0     H92414   7.752   9.518  10.027  0.3789 -0.4620 -2.1578
  685MOL0     H92415   7.829   9.373  10.074 -3.3154 -1.1984  1.6091
  685MOL0     H92416   7.602   9.393   9.948  0.5121  1.9560  1.6545
  685MOL0     H92417   7.706   9.374   9.804  1.8292  0.3730 -0.0546
  685MOL0     H92418   7.742   9.158  10.030  0.7462 -2.7333 -1.2392
  685MOL0     H92419   7.578   9.174   9.953  0.0361 -1.6998 -0.8155
  685MOL0     H92420   7.678   9.128   9.741  0.5902  1.6658  0.2865
  685MOL0     H92421   7.837   9.162   9.816  0.8686 -2.3439  0.0242
  685MOL0     H92422   7.801   8.972   9.983 -2.4801 -1.0534  0.2377
  685MOL0     H92423   7.837   8.923   9.819  1.2457 -0.9496  2.2003
  685MOL0     H92424   7.644   8.794   9.892 -0.2437 -0.3917  3.0212
  685MOL0     H92425   7.541   8.932   9.913 -1.5755 -1.9607 -2.2799
  685MOL0     H92426   7.758   8.928   9.609 -0.2689  1.2301 -1.0035
  685MOL0     H92427   7.665   8.988   9.337  0.0951 -0.8421 -0.3466
  685MOL0     H92428   7.696   8.827   9.342  0.0011 -0.3868  0.5209
  685MOL0     H92429   7.458   8.788   9.270 -0.4019  0.7502 -1.0857
  685MOL0     H92430   7.441   8.968   9.297  0.4095  0.8188 -2.0985
  685MOL0     H92431   7.636   8.845   9.088 -0.6956  0.3291 -1.8903
  685MOL0     H92432   7.572   9.006   9.086  2.2841 -1.0956 -1.6449
  685MOL0     H92433   7.483   8.871   8.908 -0.6002 -2.0251 -0.8127
  685MOL0     H92434   7.353   8.933   9.008  0.1524 -0.1863  3.5643
  685MOL0     H92435   7.179   8.824   8.900  0.9493  0.5127  1.0799
  685MOL0     H92436   7.018   8.677   8.742 -0.3075  0.8862 -0.4289
  685MOL0     H92437   6.977   8.597   8.360  2.2400 -0.7030  3.3099
  685MOL0     H92438   6.885   8.491   8.154  0.1874 -2.4920 -0.6466
  685MOL0     H92439   6.867   8.114   8.093 -0.7919  0.0744 -1.1238
  685MOL0     H92440   6.727   8.069   8.198  2.1294 -0.4337  2.3214
  685MOL0     H92441   6.566   8.109   8.019  0.2004 -2.0294 -0.3913
  685MOL0     H92442   6.686   8.142   7.905 -0.0111 -2.4536 -1.2628
  685MOL0     H92443   6.710   7.883   8.074  1.3154 -0.2747 -0.7988
  685MOL0     H92444   6.602   7.892   7.940  0.8298 -3.2133  1.2801
  685MOL0     H92445   6.898   7.933   7.937 -0.4990  2.5840  0.5128
  685MOL0     H92446   6.785   7.969   7.801 -4.0158 -1.1835  0.4691
  685MOL0     H92447   6.723   7.720   7.785 -0.3883  2.2407 -0.0733
  685MOL0     H92448   6.827   7.695   7.944 -0.8298  0.5733  0.7404
  685MOL0     H92449   7.011   7.747   7.792 -0.0851 -2.6996  1.6649
  685MOL0     H92450   6.935   7.597   7.743  0.3063 -0.5844 -2.4798
  685MOL0     H92451   6.952   7.873   7.617  1.8675 -0.7949  1.5267
  685MOL0     H92452   6.791   7.805   7.602  0.5991 -0.6924 -0.3165
  685MOL0     H92453   6.885   7.600   7.507 -2.5318  1.6437  0.8073
  685MOL0     H92454   6.947   7.738   7.420 -0.0292 -1.0546 -1.3030
  685MOL0     H92455   6.683   8.200   8.405  2.5898 -2.3865 -1.5311
  685MOL0     H92456   6.771   8.318   8.602 -0.2650  0.9844  0.8057
  685MOL0     H92457   7.282   8.343   8.794  0.0143 -0.0036 -0.2903
  685MOL0     H92458   7.420   8.475   8.945  1.1838  0.3462 -1.4094
  685MOL0     H92459   7.722   9.303   9.587 -1.0773 -2.7731 -1.2190
  685MOL0     H92460   7.820   9.126   9.439 -2.2955  1.9817 -2.3418
  685MOL0     H92461   8.282   9.091   9.280 -2.0019 -1.3354 -0.1655
  685MOL0     H92462   8.508   8.998   9.217  2.4258 -0.1652  2.8073
  685MOL0     H92463   8.662   8.560   9.193  1.9994  3.5672  0.0319
  685MOL0     H92464   8.511   8.542   9.271 -1.4504  1.1986  0.8526
  685MOL0     H92465   8.717   8.547   9.442 -1.0375 -0.8925 -1.9722
  685MOL0     H92466   8.572   8.629   9.476  0.6062  0.6019  1.5711
  685MOL0     H92467   8.792   8.762   9.506 -1.8982  1.2094  0.4516
  685MOL0     H92468   8.668   8.841   9.413 -2.0560 -0.9627 -2.7025
  685MOL0     H92469   8.779   8.781   9.200  0.4372  2.2143  0.4898
  685MOL0     H92470   8.880   8.870   9.311 -1.6654  1.8081 -1.9654
  685MOL0     H92471   9.107   8.511   9.254 -1.8410 -2.0228 -1.6504
  685MOL0     H92472   8.318   8.617   9.295 -3.4635  0.0870  0.6222
  685MOL0     H92473   8.159   8.595   9.457  0.1671 -0.5794  0.7285
  685MOL0     H92474   8.025   8.716   9.477  0.1775  1.2473 -0.9848
  685MOL0     H92475   8.041   8.629   9.330 -0.5641  0.2708 -0.3053
  686MOL0     O92476   7.180   3.680   1.643 -0.0706 -0.0944 -0.4328
  686MOL0     C92477   7.100   3.721   1.725  1.6456 -0.6518  0.0668
  686MOL0     O92478   7.032   3.651   1.820  0.2270  0.1231 -0.9631
  686MOL0     C92479   7.059   3.521   1.837 -0.1064  0.0859 -1.0757
  686MOL0     C92480   7.180   3.451   1.833 -0.4427 -0.4973 -0.3452
  686MOL0     C92481   7.190   3.313   1.861  0.0347  0.3709 -0.1489
  686MOL0     C92482   7.069   3.244   1.888  0.0581 -0.8084  0.6514
  686MOL0     O92483   7.071   3.113   1.909 -0.0205  0.3226 -0.3257
  686MOL0     C92484   7.185   3.032   1.871  0.0564 -0.2745  0.2806
  686MOL0     C92485   7.151   2.883   1.895 -0.3142 -0.5308 -0.8323
  686MOL0     C92486   7.170   2.854   2.042 -0.4801  0.1778 -0.0027
  686MOL0     C92487   7.136   2.708   2.080 -0.6378  0.7495 -0.3929
  686MOL0     C92488   7.184   2.684   2.222 -0.2901  0.8653 -1.3007
  686MOL0     C92489   7.170   2.533   2.245  0.1038  0.3425  0.0322
  686MOL0     C92490   7.188   2.493   2.393 -0.2522  0.3903 -0.2279
  686MOL0     C92491   7.072   2.532   2.486 -0.2749  0.3575  1.3248
  686MOL0     N92492   6.939   2.502   2.432  0.1429  0.2693 -0.1842
  686MOL0     C92493   6.895   2.375   2.391  0.6108  0.1344 -0.4807
  686MOL0     C92494   6.761   2.393   2.352 -0.3670  0.2863  0.5872
  686MOL0     C92495   6.662   2.293   2.299  0.1262  0.4444  0.1608
  686MOL0     C92496   6.610   2.327   2.165  0.0253  0.0611  0.7550
  686MOL0     C92497   6.714   2.319   2.055 -0.5827  0.3937  0.4079
  686MOL0     C92498   6.712   2.178   1.994 -0.0311  0.5752 -0.6215
  686MOL0     O92499   6.738   2.063   2.083 -0.4639  0.8646  0.1075
  686MOL0     C92500   6.867   2.016   2.100  0.5090 -0.8762  0.2194
  686MOL0     C92501   6.975   2.113   2.087  0.8152  0.6854 -0.1202
  686MOL0     C92502   7.101   2.060   2.122  0.4441  0.7691 -0.8377
  686MOL0     C92503   7.128   1.927   2.135  0.6207  0.7962  0.0848
  686MOL0     C92504   7.266   1.880   2.163  0.1014 -0.1342 -0.1604
  686MOL0     O92505   7.340   1.977   2.231  0.0791  0.2873 -0.4180
  686MOL0     C92506   7.465   1.938   2.258 -0.0513  0.4549  0.2859
  686MOL0     C92507   7.555   1.951   2.154 -0.1855 -0.3494  0.3782
  686MOL0     C92508   7.689   1.918   2.178 -0.2804 -0.1525 -0.7007
  686MOL0     C92509   7.731   1.857   2.296  0.1596 -0.0551  0.5349
  686MOL0     O92510   7.858   1.839   2.310  0.3242 -0.4606 -0.0244
  686MOL0     C92511   7.899   1.704   2.269  0.2770  0.7818 -0.5510
  686MOL0     C92512   7.970   1.700   2.139 -0.8095 -0.3439  1.5301
  686MOL0     C92513   8.001   1.559   2.091 -0.1465  0.2186 -0.3223
  686MOL0     C92514   8.072   1.566   1.947 -0.9523 -0.6674 -0.5253
  686MOL0     C92515   8.222   1.602   1.957  0.3218 -0.4848 -0.1098
  686MOL0     C92516   8.300   1.532   1.837  0.1484  0.2634  1.0543
  686MOL0     C92517   8.270   1.595   1.708  0.3534 -0.2334  0.7649
  686MOL0     C92518   8.352   1.544   1.579  0.1593 -0.4846 -0.0715
  686MOL0    Cl92519   8.307   1.368   1.571 -0.2050  0.2398  0.4779
  686MOL0     C92520   7.636   1.836   2.399 -0.5653 -0.7297 -0.3249
  686MOL0     C92521   7.501   1.885   2.392  0.6898 -0.1053  0.8153
  686MOL0     O92522   7.311   1.766   2.130  0.1610 -0.1012 -0.1225
  686MOL0     C92523   7.021   1.833   2.139 -0.3920  0.7589  0.3736
  686MOL0     C92524   6.888   1.879   2.123 -1.1829 -0.6368 -0.5063
  686MOL0     N92525   6.746   2.533   2.350  0.5442 -0.9425  0.2105
  686MOL0     N92526   6.851   2.599   2.400 -0.1107  0.7418 -0.6670
  686MOL0     C92527   6.944   3.313   1.886  0.0499  0.2882 -0.1055
  686MOL0     C92528   6.943   3.450   1.866  0.1548 -0.2107  0.2020
  686MOL0     C92529   7.036   3.856   1.701 -0.2111  0.2415  0.2041
  686MOL0     C92530   7.038   3.909   1.567 -0.8400 -0.7534 -0.5181
  686MOL0     C92531   6.988   4.044   1.545  0.1247  0.5625  0.9961
  686MOL0     C92532   6.914   4.109   1.638 -0.3033 -0.3269 -0.3197
  686MOL0     O92533   6.872   4.229   1.612  0.8005  0.5706  0.5354
  686MOL0     C92534   6.771   4.296   1.690  0.1595 -0.4702 -0.3375
  686MOL0     C92535   6.746   4.437   1.622 -0.4720 -0.2440 -0.7070
  686MOL0     C92536   6.758   4.448   1.469  0.1823  0.6236  0.4360
  686MOL0     C92537   6.708   4.585   1.417 -1.0448 -0.6687 -0.2986
  686MOL0     C92538   6.806   4.696   1.432 -0.0162 -1.1126  0.4591
  686MOL0     C92539   6.876   4.795   1.451  0.8280 -0.1416 -0.4868
  686MOL0     C92540   6.911   4.056   1.765 -1.1725 -0.0408 -0.7049
  686MOL0     C92541   6.960   3.930   1.792 -0.3932  0.1298 -0.2945
  686MOL0     C92542   6.949   3.881   1.940  0.8116 -0.2360 -0.3423
  686MOL0     H92543   7.268   3.511   1.809  0.8452 -2.0485  0.3291
  686MOL0     H92544   7.290   3.272   1.853  0.6227  1.0299  2.7554
  686MOL0     H92545   7.206   3.045   1.764 -3.0966  0.8743 -0.2914
  686MOL0     H92546   7.270   3.063   1.934 -2.7842  0.1938  4.2431
  686MOL0     H92547   7.205   2.806   1.840  0.3007  0.1413 -1.2045
  686MOL0     H92548   7.048   2.865   1.865 -1.5896  1.7370  1.7355
  686MOL0     H92549   7.091   2.918   2.081 -2.3948 -0.2594 -2.8672
  686MOL0     H92550   7.274   2.871   2.071  0.4813 -1.1007 -2.4143
  686MOL0     H92551   7.028   2.709   2.069 -0.9696  5.2466  1.0334
  686MOL0     H92552   7.188   2.635   2.017 -0.4632 -2.1246  2.7789
  686MOL0     H92553   7.288   2.716   2.236 -1.2800  3.2667  1.5749
  686MOL0     H92554   7.130   2.741   2.298  1.2569  1.7991 -0.8632
  686MOL0     H92555   7.072   2.501   2.209 -0.2195  1.6135 -0.2721
  686MOL0     H92556   7.234   2.473   2.180 -2.1869 -1.1994 -0.9319
  686MOL0     H92557   7.280   2.525   2.442  1.3546 -1.2735 -1.9860
  686MOL0     H92558   7.196   2.384   2.389 -1.2485  0.3472 -2.0239
  686MOL0     H92559   7.086   2.483   2.583 -1.8515  0.2782  1.5315
  686MOL0     H92560   7.087   2.639   2.501 -0.4503  0.1033  3.6514
  686MOL0     H92561   6.951   2.283   2.397  0.7702  0.2546 -0.0906
  686MOL0     H92562   6.705   2.193   2.298 -0.7275  0.0297  1.6211
  686MOL0     H92563   6.584   2.294   2.376  0.3049  3.6985  0.4144
  686MOL0     H92564   6.529   2.257   2.144 -1.8245  2.4202 -0.6076
  686MOL0     H92565   6.567   2.428   2.167 -1.3042 -0.4888  1.1521
  686MOL0     H92566   6.816   2.346   2.085  0.7467 -1.3613 -2.1710
  686MOL0     H92567   6.689   2.375   1.964 -1.6726 -0.4081  0.1841
  686MOL0     H92568   6.766   2.178   1.899 -1.4804  0.2423 -1.4695
  686MOL0     H92569   6.605   2.162   1.981 -1.0626  2.7279  3.5383
  686MOL0     H92570   6.973   2.218   2.057 -3.8019  0.8176 -0.1556
  686MOL0     H92571   7.191   2.121   2.118  1.8178 -0.9232  1.6936
  686MOL0     H92572   7.538   2.014   2.068  3.1921 -0.4698 -0.5342
  686MOL0     H92573   7.765   1.962   2.114  1.5079 -1.1861  0.6031
  686MOL0     H92574   7.971   1.661   2.339  0.2655 -1.8658 -2.0160
  686MOL0     H92575   7.812   1.639   2.271  1.6766 -1.1422  0.5206
  686MOL0     H92576   7.911   1.740   2.057 -0.2822 -3.8299 -0.7983
  686MOL0     H92577   8.062   1.759   2.147  0.2556 -1.9609  1.7139
  686MOL0     H92578   8.062   1.513   2.169 -1.4281 -0.5717  0.2501
  686MOL0     H92579   7.909   1.504   2.071 -1.5658  0.5047  4.2492
  686MOL0     H92580   8.017   1.624   1.873 -3.0223 -0.8430  0.7937
  686MOL0     H92581   8.076   1.462   1.912  1.5414 -0.1879 -1.9011
  686MOL0     H92582   8.252   1.560   2.053 -0.2521 -2.1559 -0.6344
  686MOL0     H92583   8.247   1.709   1.964 -0.4480 -0.3097  0.0207
  686MOL0     H92584   8.409   1.537   1.838  0.4766 -2.9600 -1.4574
  686MOL0     H92585   8.288   1.423   1.829  3.9247 -0.2564  0.5434
  686MOL0     H92586   8.282   1.704   1.714  2.4270 -0.4268  0.6957
  686MOL0     H92587   8.165   1.570   1.687  0.4619 -0.2242  0.2020
  686MOL0     H92588   8.327   1.600   1.488  1.8448  0.5040  0.0433
  686MOL0     H92589   8.458   1.564   1.591  0.6000 -0.6615 -2.9763
  686MOL0     H92590   7.672   1.772   2.479 -1.7004  2.0744  2.6940
  686MOL0     H92591   7.433   1.877   2.476 -1.9723 -0.3584 -1.2195
  686MOL0     H92592   7.052   1.729   2.147  0.3109  1.0764  2.3304
  686MOL0     H92593   6.804   1.810   2.130 -0.4941 -1.3334  3.4315
  686MOL0     H92594   6.853   3.260   1.913  1.7396 -0.7397  4.4884
  686MOL0     H92595   6.845   3.495   1.878 -1.0561 -1.6736 -3.0551
  686MOL0     H92596   7.076   3.853   1.482  0.3155  2.6126 -2.3645
  686MOL0     H92597   6.997   4.072   1.440  2.8742 -1.3995  0.5780
  686MOL0     H92598   6.790   4.296   1.798  2.3153 -0.3944 -0.6798
  686MOL0     H92599   6.678   4.240   1.675  0.0542 -0.0567 -1.2758
  686MOL0     H92600   6.830   4.499   1.656 -0.3673 -0.6531 -0.2148
  686MOL0     H92601   6.652   4.483   1.652 -0.5023 -0.2632 -0.7728
  686MOL0     H92602   6.691   4.370   1.431  0.0176  0.9094  0.1376
  686MOL0     H92603   6.861   4.437   1.435 -0.4367 -0.9347 -1.0905
  686MOL0     H92604   6.692   4.567   1.310  2.6588 -0.2162 -1.0609
  686MOL0     H92605   6.613   4.607   1.467  0.6151  2.7295  1.7186
  686MOL0     H92606   6.942   4.872   1.486  1.2854 -1.3980  1.5883
  686MOL0     H92607   6.859   4.098   1.849 -0.6967  1.6969 -1.2380
  686MOL0     H92608   6.874   3.802   1.932 -2.4730  2.7596 -2.0229
  686MOL0     H92609   7.045   3.849   1.981 -0.7145 -4.3933  0.3970
  686MOL0     H92610   6.899   3.946   2.013 -0.7895  1.1218 -2.5304
  687MOL0     O92611   1.397   8.861   5.044 -0.5247  0.7204  0.7735
  687MOL0     C92612   1.382   8.735   5.045  0.3956 -0.1480  0.2177
  687MOL0     O92613   1.479   8.642   5.049  0.8930 -0.9606  0.3498
  687MOL0     C92614   1.612   8.669   5.082 -0.0197 -0.0914 -0.0604
  687MOL0     C92615   1.698   8.577   5.045 -0.0532  1.2912 -0.0957
  687MOL0     C92616   1.834   8.603   5.060  0.5205 -1.4833  0.4298
  687MOL0     C92617   1.880   8.717   5.131  0.1861  0.4344 -0.3868
  687MOL0     O92618   2.014   8.736   5.140 -0.2199  0.1247  0.6885
  687MOL0     C92619   2.064   8.877   5.171  0.2653 -0.3040  0.4238
  687MOL0     C92620   2.162   8.910   5.071  0.3404 -0.0057 -0.5620
  687MOL0     C92621   2.276   8.806   5.061  0.6209 -0.6589 -0.2677
  687MOL0     C92622   2.345   8.766   5.195  0.1420  0.2629  0.3074
  687MOL0     C92623   2.407   8.888   5.267  0.1413  0.0063  0.0039
  687MOL0     C92624   2.512   8.862   5.378  0.3954  1.3756 -0.2529
  687MOL0     C92625   2.466   8.762   5.490 -0.1940 -0.2781 -0.1996
  687MOL0     C92626   2.573   8.667   5.545 -0.3167  0.9196 -0.6584
  687MOL0     N92627   2.523   8.544   5.604  0.5436  0.9268  0.1280
  687MOL0     C92628   2.465   8.524   5.729 -0.2955 -0.1860  0.3399
  687MOL0     C92629   2.427   8.395   5.729 -0.7366 -0.0258  0.0409
  687MOL0     C92630   2.376   8.296   5.837 -0.5396 -0.3765 -0.8623
  687MOL0     C92631   2.376   8.373   5.973  0.9672 -0.2761  0.2994
  687MOL0     C92632   2.337   8.284   6.095  0.0261 -0.2941  0.0137
  687MOL0     C92633   2.313   8.362   6.232 -0.9715 -0.6875  0.2195
  687MOL0     O92634   2.197   8.320   6.300 -0.3774 -0.0631 -0.1541
  687MOL0     C92635   2.199   8.197   6.359  0.0761  0.8178 -0.8267
  687MOL0     C92636   2.310   8.116   6.371 -0.7573  0.6754 -0.3797
  687MOL0     C92637   2.299   7.985   6.428 -0.2736 -0.9984  0.6400
  687MOL0     C92638   2.175   7.934   6.469 -0.3322  0.4780  0.9009
  687MOL0     C92639   2.177   7.797   6.537  0.1741  0.0184  0.8390
  687MOL0     O92640   2.060   7.760   6.575 -0.0502  0.4680 -0.3904
  687MOL0     C92641   2.055   7.630   6.624  0.7479 -0.3034  0.4664
  687MOL0     C92642   2.132   7.601   6.732  0.3581 -0.1425 -0.2323
  687MOL0     C92643   2.145   7.467   6.764 -0.4888  0.4354 -0.4100
  687MOL0     C92644   2.069   7.362   6.704  0.2137 -0.7782 -0.8212
  687MOL0     O92645   2.071   7.237   6.766 -0.3007 -0.6849  0.0369
  687MOL0     C92646   1.968   7.142   6.755 -0.1043  0.4507  0.2265
  687MOL0     C92647   1.999   7.014   6.818 -0.0219  1.0935 -0.3692
  687MOL0     C92648   1.888   6.906   6.782  0.6220 -0.3185  0.3278
  687MOL0     C92649   1.847   6.826   6.902 -0.2233 -1.3069  0.1228
  687MOL0     C92650   1.952   6.719   6.922 -0.2156 -0.3357 -1.4191
  687MOL0     C92651   1.927   6.631   7.044 -0.2656 -0.2546  0.5603
  687MOL0     C92652   1.800   6.539   7.045 -0.3135 -0.5518  0.7662
  687MOL0     C92653   1.822   6.393   7.041  0.9919  0.6689  0.1175
  687MOL0    Cl92654   1.661   6.311   7.002  0.2665  0.2521 -0.5045
  687MOL0     C92655   1.981   7.392   6.604 -0.4533  0.3826 -0.9981
  687MOL0     C92656   1.973   7.524   6.561  0.0918 -0.3610  0.1260
  687MOL0     O92657   2.284   7.732   6.526  0.4226  0.0968  0.3522
  687MOL0     C92658   2.069   8.019   6.470 -0.8692  0.0194 -0.5607
  687MOL0     C92659   2.081   8.156   6.430  0.2861 -0.2731 -0.3590
  687MOL0     N92660   2.453   8.345   5.605 -0.3783 -0.2559  0.1624
  687MOL0     N92661   2.505   8.433   5.527  0.2065  0.4392 -1.0345
  687MOL0     C92662   1.790   8.809   5.173 -0.3897 -0.6647  0.5898
  687MOL0     C92663   1.654   8.788   5.148 -1.0243 -1.1202  0.0940
  687MOL0     C92664   1.251   8.689   4.988  1.2806  0.3886 -0.5885
  687MOL0     C92665   1.245   8.565   4.922 -0.0543  0.5663  0.2946
  687MOL0     C92666   1.130   8.518   4.858 -0.1468  0.2555  0.2647
  687MOL0     C92667   1.006   8.581   4.866 -0.4085 -0.2008 -0.3781
  687MOL0     O92668   0.889   8.570   4.794 -0.4576 -0.3299  1.0080
  687MOL0     C92669   0.853   8.451   4.720  0.3701 -0.5005  0.8793
  687MOL0     C92670   0.712   8.479   4.666  0.3442 -0.2839  0.5521
  687MOL0     C92671   0.668   8.337   4.609 -0.3925 -0.1449  0.3489
  687MOL0     C92672   0.541   8.348   4.546  0.2889  0.5666  0.2852
  687MOL0     C92673   0.506   8.221   4.486  0.9531  0.7925 -0.3851
  687MOL0     C92674   0.472   8.107   4.439  0.8590  0.2172  0.9979
  687MOL0     C92675   1.016   8.703   4.930 -1.0127 -0.1445  0.2608
  687MOL0     C92676   1.132   8.755   5.007 -0.1490 -0.2543  1.6525
  687MOL0     C92677   1.119   8.895   5.067 -0.0335 -0.0495 -0.1312
  687MOL0     H92678   1.676   8.490   4.983 -0.1025  2.2907 -1.5120
  687MOL0     H92679   1.898   8.524   5.022  1.1496  0.0679 -1.9642
  687MOL0     H92680   1.984   8.951   5.161 -2.1073 -2.8053 -0.1969
  687MOL0     H92681   2.112   8.887   5.269  1.7379  3.6010 -0.5093
  687MOL0     H92682   2.200   9.011   5.087  0.6603 -0.3271  0.8833
  687MOL0     H92683   2.115   8.906   4.972  0.1678 -0.5453 -0.4634
  687MOL0     H92684   2.350   8.842   4.989  0.0799  0.5634 -0.2442
  687MOL0     H92685   2.236   8.713   5.019  0.9211 -2.2941  2.7468
  687MOL0     H92686   2.278   8.710   5.261  1.4256 -1.2516  0.3934
  687MOL0     H92687   2.434   8.708   5.166 -0.7889 -0.1038 -1.9947
  687MOL0     H92688   2.465   8.951   5.198  1.5130 -0.8504  0.3246
  687MOL0     H92689   2.337   8.963   5.305 -0.9673  1.1901 -3.8962
  687MOL0     H92690   2.608   8.838   5.332  1.0247 -0.4424  1.8384
  687MOL0     H92691   2.530   8.959   5.425 -0.7112  3.2052 -3.2684
  687MOL0     H92692   2.392   8.694   5.445  1.0591  0.6773 -4.0713
  687MOL0     H92693   2.421   8.820   5.571 -0.4509 -0.1205 -0.4530
  687MOL0     H92694   2.659   8.650   5.479  0.0145  3.9961 -1.1633
  687MOL0     H92695   2.622   8.724   5.624 -2.8968  3.1224 -0.4894
  687MOL0     H92696   2.454   8.593   5.813 -0.6222  0.1137  0.0525
  687MOL0     H92697   2.275   8.267   5.807 -1.3774 -2.7786  3.4025
  687MOL0     H92698   2.432   8.203   5.825  1.7647  1.0045 -1.3125
  687MOL0     H92699   2.478   8.411   5.986  0.7808 -0.2918  2.0197
  687MOL0     H92700   2.306   8.456   5.965  1.4317  0.6364  3.8534
  687MOL0     H92701   2.423   8.221   6.118 -0.8852 -2.1175 -1.3299
  687MOL0     H92702   2.250   8.221   6.073  0.1988 -0.8072  0.7472
  687MOL0     H92703   2.296   8.465   6.201 -2.1063 -1.0382 -0.3703
  687MOL0     H92704   2.403   8.360   6.295 -1.9169 -0.4929  1.6111
  687MOL0     H92705   2.409   8.141   6.334 -0.1522 -2.8999 -1.6300
  687MOL0     H92706   2.387   7.922   6.441 -0.7545 -1.8800 -0.2410
  687MOL0     H92707   2.196   7.683   6.763  1.9837 -1.3467 -0.2174
  687MOL0     H92708   2.215   7.433   6.839 -0.3344 -0.9807 -1.1649
  687MOL0     H92709   1.875   7.181   6.798 -2.4693 -1.6466 -2.5731
  687MOL0     H92710   1.950   7.128   6.648 -0.1897  0.4317  0.2436
  687MOL0     H92711   2.095   6.982   6.777  1.3194 -0.1044  3.2633
  687MOL0     H92712   2.013   7.017   6.927 -1.3362 -0.7099 -0.0971
  687MOL0     H92713   1.796   6.961   6.760  0.7283  0.6774  2.1490
  687MOL0     H92714   1.909   6.855   6.688 -0.0942  1.7923 -1.0620
  687MOL0     H92715   1.754   6.775   6.876 -0.4632 -0.0600 -1.6386
  687MOL0     H92716   1.838   6.893   6.988 -0.2217 -0.5355 -0.4719
  687MOL0     H92717   2.051   6.758   6.944 -1.5903  1.5457  2.3124
  687MOL0     H92718   1.953   6.655   6.833 -0.4813  0.4619 -2.0108
  687MOL0     H92719   2.016   6.567   7.049 -0.2043 -0.3221 -1.0540
  687MOL0     H92720   1.914   6.695   7.132 -0.8879 -1.0445  1.0563
  687MOL0     H92721   1.750   6.564   6.951  2.7304  0.2026 -0.7597
  687MOL0     H92722   1.743   6.571   7.134 -2.4088  4.0990 -1.8540
  687MOL0     H92723   1.885   6.363   6.956 -1.9477 -1.3181 -1.5638
  687MOL0     H92724   1.865   6.351   7.133  2.6331 -2.9647 -2.0592
  687MOL0     H92725   1.900   7.330   6.565  0.7278 -1.1003 -1.1908
  687MOL0     H92726   1.912   7.558   6.478  0.1778  1.8205  0.8955
  687MOL0     H92727   1.971   7.994   6.510 -1.0603  0.5884 -0.6596
  687MOL0     H92728   1.996   8.222   6.445 -0.1874 -1.1525  0.9953
  687MOL0     H92729   1.815   8.897   5.232 -0.7385 -1.1231  1.4527
  687MOL0     H92730   1.584   8.855   5.194  0.3237 -1.2625  2.5183
  687MOL0     H92731   1.334   8.506   4.902 -0.1255  0.1305  1.2466
  687MOL0     H92732   1.122   8.427   4.800 -5.0479 -0.4206  1.4930
  687MOL0     H92733   0.842   8.365   4.787  0.8519 -0.7060  0.6997
  687MOL0     H92734   0.929   8.425   4.646 -0.4281  3.7768 -1.7799
  687MOL0     H92735   0.727   8.562   4.596  2.3117 -2.1469 -1.4013
  687MOL0     H92736   0.647   8.514   4.746 -1.0758  2.5706 -1.6549
  687MOL0     H92737   0.675   8.264   4.690 -2.3561  1.7472  2.3836
  687MOL0     H92738   0.745   8.303   4.539  0.8266 -3.9905  3.2521
  687MOL0     H92739   0.471   8.374   4.625  2.2268  1.3702  1.8106
  687MOL0     H92740   0.539   8.432   4.476  1.2088 -0.2354 -0.7700
  687MOL0     H92741   0.435   8.009   4.415 -3.0756  1.9242 -0.7382
  687MOL0     H92742   0.926   8.764   4.922 -1.0699 -0.2442  0.1302
  687MOL0     H92743   1.016   8.919   5.093  0.0600  2.1710 -1.5207
  687MOL0     H92744   1.187   8.919   5.150  3.4915  1.6369 -3.2151
  687MOL0     H92745   1.146   8.973   4.995  0.2758  1.7206  1.7856
  688MOL0     O92746   3.700   6.352   1.047  0.6656  0.1097 -0.7065
  688MOL0     C92747   3.649   6.255   0.994 -0.5380 -0.0246 -0.9399
  688MOL0     O92748   3.528   6.266   0.926 -0.4234  0.0921 -0.0937
  688MOL0     C92749   3.482   6.394   0.911 -0.0039 -0.3487  0.3774
  688MOL0     C92750   3.407   6.460   1.016 -0.4680  0.6887  0.0097
  688MOL0     C92751   3.379   6.590   1.001 -0.5701  0.5133 -0.0220
  688MOL0     C92752   3.427   6.666   0.887 -0.4134 -0.1261  0.2624
  688MOL0     O92753   3.407   6.800   0.873  0.5497  0.5147  0.4272
  688MOL0     C92754   3.380   6.887   0.989  0.6892  0.6206 -0.2946
  688MOL0     C92755   3.429   7.030   0.957 -0.4027  0.4632  0.1821
  688MOL0     C92756   3.348   7.115   0.853  0.3294 -0.0908  0.2285
  688MOL0     C92757   3.446   7.224   0.787 -0.6017  1.3391  0.0516
  688MOL0     C92758   3.381   7.306   0.677  0.1634  1.3802  0.9559
  688MOL0     C92759   3.285   7.410   0.743 -0.4548  0.8261 -0.0476
  688MOL0     C92760   3.209   7.485   0.626 -0.5083 -0.1709 -0.3413
  688MOL0     C92761   3.075   7.537   0.666  1.0642  0.5010 -0.4306
  688MOL0     N92762   2.982   7.439   0.716 -0.5942  0.2073 -0.4861
  688MOL0     C92763   2.945   7.322   0.650  0.1806  0.8170 -0.7319
  688MOL0     C92764   2.898   7.238   0.744 -0.0304  0.2358  0.8681
  688MOL0     C92765   2.850   7.101   0.704  0.8285  0.0112  0.7583
  688MOL0     C92766   2.882   6.989   0.806  0.5949 -0.4436  0.5810
  688MOL0     C92767   2.807   6.859   0.774  0.0795 -1.2502  0.7686
  688MOL0     C92768   2.826   6.753   0.899  0.3069 -0.4812  0.5364
  688MOL0     O92769   2.971   6.715   0.902  0.0753  0.4974 -0.4457
  688MOL0     C92770   3.001   6.606   0.976  0.1165  1.5578 -0.0564
  688MOL0     C92771   3.082   6.609   1.094 -0.7504 -0.4954 -0.0504
  688MOL0     C92772   3.112   6.494   1.163  1.0546  1.6133  0.1343
  688MOL0     C92773   3.064   6.368   1.123  0.1294 -0.9290 -0.0685
  688MOL0     C92774   3.091   6.248   1.209 -0.0456 -0.8950 -0.4303
  688MOL0     O92775   3.185   6.272   1.306 -0.5654  0.6967  0.5217
  688MOL0     C92776   3.227   6.158   1.371  0.0210 -0.1830 -0.3021
  688MOL0     C92777   3.349   6.103   1.340 -0.5906  0.0222  0.6822
  688MOL0     C92778   3.396   5.990   1.413  0.2770  0.0331  0.6201
  688MOL0     C92779   3.330   5.941   1.520  1.0279 -0.0192 -0.7889
  688MOL0     O92780   3.379   5.826   1.573  0.0518 -0.3430  0.2614
  688MOL0     C92781   3.290   5.732   1.635 -0.8981  0.5005  0.0724
  688MOL0     C92782   3.373   5.607   1.663  0.3103  0.0524  0.2669
  688MOL0     C92783   3.456   5.537   1.547 -0.7916 -0.0210  0.0460
  688MOL0     C92784   3.535   5.422   1.607  0.1632 -0.1507 -0.0426
  688MOL0     C92785   3.619   5.348   1.507 -0.6245  0.1360  0.4308
  688MOL0     C92786   3.667   5.211   1.548 -0.2829  0.8389 -0.5211
  688MOL0     C92787   3.730   5.151   1.422  0.4794  0.6378  1.3411
  688MOL0     C92788   3.796   5.022   1.438  0.1622  0.6072 -0.5871
  688MOL0    Cl92789   3.934   5.030   1.570  0.0865 -0.3326 -0.1723
  688MOL0     C92790   3.202   5.995   1.546  0.2582  0.2813 -0.1196
  688MOL0     C92791   3.146   6.102   1.473  0.2421  0.3847 -0.5901
  688MOL0     O92792   3.037   6.147   1.178  0.7473 -0.1839 -0.9753
  688MOL0     C92793   2.989   6.365   1.001  0.2298  0.1446 -1.1923
  688MOL0     C92794   2.944   6.483   0.940  0.4230  0.7104  0.9418
  688MOL0     N92795   2.890   7.303   0.862 -0.2453 -0.4911 -0.0029
  688MOL0     N92796   2.934   7.426   0.849 -0.3518 -0.0738  0.6284
  688MOL0     C92797   3.483   6.597   0.779 -0.3255 -0.3054 -0.0137
  688MOL0     C92798   3.506   6.463   0.790 -0.3310  1.1047  0.4527
  688MOL0     C92799   3.708   6.119   1.015 -0.6559 -1.0319  0.0666
  688MOL0     C92800   3.793   6.099   1.133  2.0346 -0.6791  0.2565
  688MOL0     C92801   3.836   5.967   1.170  0.3170  0.1977 -0.3518
  688MOL0     C92802   3.805   5.864   1.084  0.6123  0.0104  0.1304
  688MOL0     O92803   3.850   5.730   1.108 -0.4154 -0.7982  0.5457
  688MOL0     C92804   3.754   5.652   1.189 -0.3263 -1.0654 -0.5047
  688MOL0     C92805   3.707   5.538   1.109  1.0306 -0.2146 -0.2148
  688MOL0     C92806   3.835   5.440   1.076  0.8948 -1.1409 -0.6941
  688MOL0     C92807   3.800   5.288   1.033  0.8236 -0.5320  0.2909
  688MOL0     C92808   3.915   5.198   1.046 -0.4076  0.1863  0.4230
  688MOL0     C92809   4.017   5.126   1.065 -0.2245 -0.3834  0.1731
  688MOL0     C92810   3.731   5.880   0.962  0.1005  0.3767 -0.4003
  688MOL0     C92811   3.685   6.007   0.930 -0.0601 -0.0262  0.1184
  688MOL0     C92812   3.613   6.016   0.803 -0.2696 -0.6307  1.0556
  688MOL0     H92813   3.377   6.406   1.105  0.6934 -4.2696 -2.2444
  688MOL0     H92814   3.344   6.637   1.092 -2.0191 -1.7026  0.6452
  688MOL0     H92815   3.273   6.894   1.011  0.2171 -1.1812 -1.7639
  688MOL0     H92816   3.424   6.851   1.082 -0.4345  1.7419  0.6998
  688MOL0     H92817   3.535   7.016   0.934 -0.1735 -0.0299  1.4696
  688MOL0     H92818   3.419   7.091   1.047  1.2631  0.8159  0.1569
  688MOL0     H92819   3.270   7.169   0.907 -0.6508 -1.6398  0.4298
  688MOL0     H92820   3.301   7.048   0.780 -1.7394 -1.1097  2.3656
  688MOL0     H92821   3.473   7.287   0.873 -1.0420  1.3857  0.1545
  688MOL0     H92822   3.535   7.167   0.760  0.8185 -0.6430  6.9008
  688MOL0     H92823   3.462   7.359   0.627  3.0397  0.4125  4.1939
  688MOL0     H92824   3.330   7.233   0.613 -0.1682  1.3703  1.2262
  688MOL0     H92825   3.215   7.362   0.812 -0.7768  1.3712  0.0079
  688MOL0     H92826   3.350   7.473   0.804 -3.6037  3.4879  0.8773
  688MOL0     H92827   3.193   7.425   0.536 -1.1483 -1.8899  0.8791
  688MOL0     H92828   3.272   7.568   0.591  0.1016 -0.5377 -0.1316
  688MOL0     H92829   3.083   7.606   0.751 -1.2790  0.8464 -0.4266
  688MOL0     H92830   3.035   7.586   0.577  0.3597  1.7856  0.5621
  688MOL0     H92831   2.958   7.308   0.543  0.0184 -0.5135 -0.5962
  688MOL0     H92832   2.742   7.102   0.685  1.0194  1.3569 -0.4843
  688MOL0     H92833   2.890   7.085   0.603  0.6485 -0.6610  0.7931
  688MOL0     H92834   2.988   6.966   0.818 -0.4878 -5.7350  2.4400
  688MOL0     H92835   2.846   7.027   0.902  4.1439 -2.1152  2.7677
  688MOL0     H92836   2.852   6.823   0.682 -0.7999  0.1888 -0.2674
  688MOL0     H92837   2.699   6.871   0.759 -0.0346 -1.6897  1.1995
  688MOL0     H92838   2.758   6.669   0.884 -1.1587  0.6659  0.4914
  688MOL0     H92839   2.809   6.803   0.995  4.7832  3.7678 -0.4403
  688MOL0     H92840   3.122   6.705   1.124  1.7082 -1.3383 -0.3528
  688MOL0     H92841   3.167   6.500   1.257  0.2354 -0.3213  0.7903
  688MOL0     H92842   3.400   6.144   1.252  0.7856  1.1551  1.9546
  688MOL0     H92843   3.485   5.939   1.379  0.6156  0.5450  0.7302
  688MOL0     H92844   3.246   5.771   1.728 -0.2860  0.1876  0.4997
  688MOL0     H92845   3.213   5.706   1.563 -0.9222 -2.0384  0.9223
  688MOL0     H92846   3.442   5.625   1.746  0.7317  0.0129 -0.0710
  688MOL0     H92847   3.298   5.535   1.695  1.3212 -1.0042  0.3273
  688MOL0     H92848   3.386   5.498   1.472 -1.3181 -0.9576  1.0048
  688MOL0     H92849   3.521   5.611   1.499 -4.6097  3.9917  0.4304
  688MOL0     H92850   3.461   5.357   1.655  0.4861 -0.9122 -0.5547
  688MOL0     H92851   3.607   5.452   1.684  1.8820 -3.2899 -0.2523
  688MOL0     H92852   3.706   5.411   1.487  1.1446 -2.2239  0.2499
  688MOL0     H92853   3.559   5.343   1.416 -0.6594  0.3383  0.4405
  688MOL0     H92854   3.738   5.229   1.630  2.0138  2.1651 -2.6527
  688MOL0     H92855   3.579   5.158   1.586 -0.2895  1.6923  0.7073
  688MOL0     H92856   3.814   5.210   1.385  1.3240  0.9516  3.5676
  688MOL0     H92857   3.658   5.157   1.340  1.2222  0.3904  0.6521
  688MOL0     H92858   3.727   4.942   1.467  1.0250 -0.0834 -0.3660
  688MOL0     H92859   3.818   4.980   1.339  0.0960 -1.0617  0.0677
  688MOL0     H92860   3.141   5.969   1.632 -0.3717  0.7221 -0.4278
  688MOL0     H92861   3.051   6.151   1.494  0.8156  0.2965  2.7659
  688MOL0     H92862   2.962   6.266   0.964 -1.9661 -0.9753  2.8687
  688MOL0     H92863   2.888   6.465   0.848 -1.1862  2.5825  1.4742
  688MOL0     H92864   3.512   6.645   0.686 -2.1075  1.4478  0.2727
  688MOL0     H92865   3.539   6.400   0.708 -1.7406  0.1300  0.5986
  688MOL0     H92866   3.802   6.182   1.203 -2.2781  0.4030 -0.1684
  688MOL0     H92867   3.899   5.944   1.255  0.6196  0.5450 -0.4790
  688MOL0     H92868   3.672   5.719   1.216 -0.2288 -0.4838 -1.6069
  688MOL0     H92869   3.793   5.616   1.285 -1.6798  0.2821  0.6223
  688MOL0     H92870   3.646   5.570   1.024  0.4759 -1.8449 -0.4841
  688MOL0     H92871   3.637   5.481   1.171 -1.1461  2.9099  0.4229
  688MOL0     H92872   3.891   5.420   1.168 -1.0665  0.5043  0.9681
  688MOL0     H92873   3.909   5.490   1.012  1.3582  0.7068  1.1770
  688MOL0     H92874   3.719   5.238   1.088 -4.2328  1.5820 -4.3508
  688MOL0     H92875   3.755   5.276   0.934 -1.9253 -0.4936  1.4449
  688MOL0     H92876   4.104   5.066   1.083 -0.2047  0.4317  3.4962
  688MOL0     H92877   3.699   5.796   0.902  3.2254 -0.3063 -1.2739
  688MOL0     H92878   3.658   5.948   0.731  1.7560 -0.1259  1.7836
  688MOL0     H92879   3.505   5.999   0.807 -0.2464 -0.7454  1.1860
  688MOL0     H92880   3.638   6.117   0.769 -1.8694  0.5968  3.2817
  689MOL0     O92881   7.702   3.713   6.757  0.3492  0.0227 -0.4075
  689MOL0     C92882   7.683   3.815   6.822  0.3140  0.0174 -1.3831
  689MOL0     O92883   7.733   3.936   6.806 -0.1837 -0.1287  0.0330
  689MOL0     C92884   7.807   3.957   6.697 -0.8950 -0.7129  0.6015
  689MOL0     C92885   7.914   3.874   6.661  0.1375 -0.6121  0.2830
  689MOL0     C92886   8.000   3.895   6.554  0.0619 -0.0046  0.4714
  689MOL0     C92887   7.968   4.001   6.467 -0.9401 -0.1209  0.4020
  689MOL0     O92888   8.049   4.039   6.362  0.8268  0.4965 -0.3177
  689MOL0     C92889   8.094   3.938   6.267 -0.1536 -0.2149 -0.6072
  689MOL0     C92890   8.141   4.001   6.144 -0.8493  0.6016 -0.3848
  689MOL0     C92891   8.021   4.024   6.047  1.3135 -0.6820 -0.5206
  689MOL0     C92892   8.003   3.897   5.959  0.0109 -0.1975  0.3422
  689MOL0     C92893   7.877   3.893   5.873  0.3283 -0.7906  0.6118
  689MOL0     C92894   7.900   3.792   5.751 -0.6582 -0.3747 -0.6655
  689MOL0     C92895   7.808   3.833   5.638  0.2872  0.1983  0.2972
  689MOL0     C92896   7.853   3.813   5.503  0.1657 -0.0017 -0.0067
  689MOL0     N92897   7.881   3.672   5.472  0.2429 -0.7811  0.3587
  689MOL0     C92898   7.795   3.576   5.425  0.0598 -0.0118  0.4190
  689MOL0     C92899   7.875   3.473   5.404 -1.3347 -0.9017 -0.0536
  689MOL0     C92900   7.832   3.336   5.367 -0.6552  0.3672  0.1642
  689MOL0     C92901   7.870   3.312   5.226 -0.5030 -0.2460  0.3489
  689MOL0     C92902   7.869   3.159   5.200 -0.4783  0.2510  0.0851
  689MOL0     C92903   7.979   3.123   5.098  1.5752  0.2601  0.3709
  689MOL0     O92904   7.948   3.180   4.969 -0.0529  0.5628  0.0750
  689MOL0     C92905   7.994   3.111   4.854  0.4462 -0.9616 -0.0443
  689MOL0     C92906   8.099   3.029   4.862 -0.5654  0.2678  0.0687
  689MOL0     C92907   8.138   2.949   4.752 -0.1790  1.1283  0.3104
  689MOL0     C92908   8.065   2.956   4.634 -1.0135  0.7102 -1.0202
  689MOL0     C92909   8.118   2.866   4.532  0.3594  0.3402 -0.1131
  689MOL0     O92910   8.246   2.825   4.542  1.0502  0.8684  0.0786
  689MOL0     C92911   8.285   2.722   4.459  0.2817  0.8138 -0.5375
  689MOL0     C92912   8.417   2.717   4.416  0.4501  0.0985  0.0729
  689MOL0     C92913   8.469   2.605   4.350  1.0237  0.3111  1.2327
  689MOL0     C92914   8.391   2.499   4.310  0.8052  1.1208 -1.3554
  689MOL0     O92915   8.420   2.405   4.214  0.3144 -0.7575  0.8251
  689MOL0     C92916   8.556   2.365   4.197 -0.3487 -0.4706 -0.3539
  689MOL0     C92917   8.549   2.213   4.180  0.0747  0.3116 -0.1453
  689MOL0     C92918   8.411   2.158   4.134 -0.9081  0.1035 -0.1949
  689MOL0     C92919   8.375   2.200   3.991  0.1127  0.5217 -0.5159
  689MOL0     C92920   8.234   2.157   3.947 -0.0773 -0.0750  0.5502
  689MOL0     C92921   8.122   2.238   4.024  0.6393 -0.2981 -0.8412
  689MOL0     C92922   7.985   2.256   3.952  0.6928 -0.1890 -0.1895
  689MOL0     C92923   7.997   2.272   3.804 -0.4293 -0.0213 -0.6809
  689MOL0    Cl92924   8.109   2.411   3.762  0.3399 -0.2912 -0.6138
  689MOL0     C92925   8.252   2.506   4.343  0.0929  0.8079  0.4303
  689MOL0     C92926   8.202   2.608   4.428 -0.5531 -0.3064 -0.7907
  689MOL0     O92927   8.038   2.834   4.445  0.4380 -0.3423  0.3528
  689MOL0     C92928   7.951   3.037   4.628 -0.1709 -0.2302 -0.0252
  689MOL0     C92929   7.922   3.121   4.737 -0.4927 -0.1837  0.4381
  689MOL0     N92930   8.007   3.506   5.441  0.0848 -0.6864 -0.0931
  689MOL0     N92931   8.014   3.629   5.481  0.1768 -0.7977  0.5203
  689MOL0     C92932   7.868   4.090   6.504 -0.0789  0.0076  0.0262
  689MOL0     C92933   7.783   4.071   6.609  0.1396 -1.2524  0.0030
  689MOL0     C92934   7.587   3.818   6.933 -0.3429 -0.2220 -0.4186
  689MOL0     C92935   7.627   3.876   7.058 -0.0487  0.1870 -0.6026
  689MOL0     C92936   7.533   3.867   7.166 -0.2636  0.8508  0.2472
  689MOL0     C92937   7.409   3.821   7.141  0.8656  0.4351 -0.0566
  689MOL0     O92938   7.308   3.815   7.236  0.2038 -1.4180  0.6042
  689MOL0     C92939   7.245   3.690   7.258 -0.1775 -0.9926 -0.5445
  689MOL0     C92940   7.222   3.684   7.410  0.4542 -0.7292 -0.3007
  689MOL0     C92941   7.112   3.578   7.448  0.2355 -0.0562  0.0364
  689MOL0     C92942   7.054   3.598   7.579 -0.1065  0.3610 -0.4721
  689MOL0     C92943   6.914   3.558   7.571  0.0885 -0.2054 -0.9199
  689MOL0     C92944   6.799   3.547   7.556  0.1840  0.1916  0.1156
  689MOL0     C92945   7.368   3.782   7.014 -1.0375  0.7976  0.2196
  689MOL0     C92946   7.453   3.772   6.910  0.2038 -0.0653  0.3984
  689MOL0     C92947   7.392   3.746   6.770  0.2654 -0.2295  0.6175
  689MOL0     H92948   7.941   3.798   6.734 -1.8795  0.5212  2.3347
  689MOL0     H92949   8.086   3.829   6.553  1.5451  1.8248  0.9083
  689MOL0     H92950   8.188   3.911   6.315 -0.5331  0.4229  0.5183
  689MOL0     H92951   8.024   3.855   6.254  0.5877 -0.4748 -3.6104
  689MOL0     H92952   8.216   3.931   6.106 -1.4683 -1.6669  2.2366
  689MOL0     H92953   8.192   4.095   6.166  0.5037  0.4764 -2.6924
  689MOL0     H92954   8.038   4.108   5.978  0.3249 -0.9083 -1.0665
  689MOL0     H92955   7.931   4.046   6.105  1.7889 -2.2557  0.8587
  689MOL0     H92956   8.091   3.897   5.895 -1.0175  1.0873 -1.1714
  689MOL0     H92957   8.011   3.823   6.039 -0.1309  0.6903  1.2056
  689MOL0     H92958   7.793   3.863   5.936  1.7217  0.4599  3.2700
  689MOL0     H92959   7.853   3.993   5.836  1.9866  0.0577  1.6915
  689MOL0     H92960   8.002   3.799   5.713 -0.9868 -1.9944 -1.9716
  689MOL0     H92961   7.891   3.686   5.774  0.9401 -0.8826 -2.1757
  689MOL0     H92962   7.786   3.940   5.647 -1.0987 -0.2377  3.1031
  689MOL0     H92963   7.708   3.790   5.650  2.1799 -4.7964  0.4918
  689MOL0     H92964   7.790   3.860   5.427  0.4364  2.3091  1.1397
  689MOL0     H92965   7.947   3.865   5.487 -1.4593  3.5016  0.9219
  689MOL0     H92966   7.689   3.584   5.405 -0.7718  0.8007  4.3078
  689MOL0     H92967   7.882   3.266   5.434  1.3460  2.1324  0.5923
  689MOL0     H92968   7.723   3.327   5.379 -0.8297  0.5252 -1.1148
  689MOL0     H92969   7.800   3.354   5.153  1.6378  0.3794 -1.4694
  689MOL0     H92970   7.966   3.360   5.204 -0.5326 -1.0371 -1.7752
  689MOL0     H92971   7.769   3.124   5.175  0.5436 -1.5572 -1.8078
  689MOL0     H92972   7.899   3.103   5.290 -1.3075  0.7478  0.6831
  689MOL0     H92973   8.001   3.016   5.091  0.7511  0.2300 -4.0156
  689MOL0     H92974   8.074   3.160   5.140  0.4738  3.0295  0.5934
  689MOL0     H92975   8.168   3.027   4.946 -0.1517  0.1799 -0.2680
  689MOL0     H92976   8.233   2.897   4.761 -1.3320 -0.8101  2.7741
  689MOL0     H92977   8.477   2.804   4.442 -0.0898  1.2716 -2.2948
  689MOL0     H92978   8.571   2.598   4.311 -0.6211  0.2183 -3.7312
  689MOL0     H92979   8.596   2.406   4.104 -0.5840 -2.4288 -1.3874
  689MOL0     H92980   8.619   2.388   4.283 -1.0917  1.8972 -0.3827
  689MOL0     H92981   8.634   2.172   4.125 -3.2365 -3.1338 -3.2342
  689MOL0     H92982   8.570   2.166   4.277 -2.0504 -0.2211  0.1098
  689MOL0     H92983   8.420   2.049   4.132  0.8857  0.2146  0.2437
  689MOL0     H92984   8.334   2.177   4.209 -0.5327 -5.5408  2.1660
  689MOL0     H92985   8.447   2.161   3.918 -1.0943  1.1879 -2.0915
  689MOL0     H92986   8.380   2.309   3.984  1.2343  0.4605 -0.9040
  689MOL0     H92987   8.223   2.050   3.961  3.4172 -0.5509  0.5433
  689MOL0     H92988   8.227   2.176   3.839  1.1872 -1.5723  0.1731
  689MOL0     H92989   8.098   2.193   4.120  0.5448  2.3031  0.4571
  689MOL0     H92990   8.156   2.340   4.045  0.6523 -0.2526 -1.0746
  689MOL0     H92991   7.923   2.338   3.989 -2.4438 -3.0106  1.3875
  689MOL0     H92992   7.934   2.160   3.966 -0.7117  0.0981 -2.6510
  689MOL0     H92993   8.050   2.194   3.749 -0.5262 -0.1205 -0.6319
  689MOL0     H92994   7.897   2.283   3.760 -0.1312 -2.2951 -2.0965
  689MOL0     H92995   8.197   2.421   4.301 -4.4236  2.8755  1.5009
  689MOL0     H92996   8.101   2.605   4.469 -0.8470  4.5381 -0.6662
  689MOL0     H92997   7.898   3.049   4.533  0.2073  1.8303 -0.0294
  689MOL0     H92998   7.844   3.197   4.734  0.3026  0.6195 -0.7192
  689MOL0     H92999   7.859   4.172   6.434 -1.8105 -0.4451 -0.3096
  689MOL0     H93000   7.717   4.151   6.643 -0.6320 -0.4522 -3.0790
  689MOL0     H93001   7.730   3.905   7.073  1.6493 -3.7476 -2.9766
  689MOL0     H93002   7.577   3.898   7.261  3.4573 -1.1330 -0.6142
  689MOL0     H93003   7.305   3.607   7.220 -0.4010 -0.0835 -3.0732
  689MOL0     H93004   7.148   3.688   7.207 -2.1630 -1.8187  2.9428
  689MOL0     H93005   7.178   3.772   7.457  0.3784 -2.3370  2.9918
  689MOL0     H93006   7.314   3.663   7.466 -1.3915 -3.1229  2.1197
  689MOL0     H93007   7.169   3.485   7.448 -0.4317 -0.5097  1.8042
  689MOL0     H93008   7.037   3.573   7.369 -2.1363  2.3290  1.9267
  689MOL0     H93009   7.115   3.539   7.648  2.5587  1.0919 -2.0335
  689MOL0     H93010   7.063   3.704   7.606 -3.0575  0.5878 -0.0277
  689MOL0     H93011   6.696   3.531   7.530 -0.0114 -0.8202  1.3839
  689MOL0     H93012   7.262   3.758   7.009 -0.9256  0.4844 -1.2451
  689MOL0     H93013   7.354   3.837   6.723 -2.3494 -1.8343 -0.5544
  689MOL0     H93014   7.453   3.696   6.695 -1.5191 -0.4996 -0.7118
  689MOL0     H93015   7.303   3.685   6.784 -0.9119  0.2327 -3.5808
  690MOL0     O93016   7.087   4.565   4.424 -0.4951 -0.1135 -0.5480
  690MOL0     C93017   7.212   4.549   4.422 -0.5354 -0.4307  0.2546
  690MOL0     O93018   7.286   4.499   4.320 -0.5652 -0.9772 -0.6804
  690MOL0     C93019   7.211   4.455   4.220  1.3833  0.0017 -0.2899
  690MOL0     C93020   7.134   4.332   4.225 -0.5204  0.5668 -0.5073
  690MOL0     C93021   7.074   4.275   4.110  0.8346 -0.3387 -0.4936
  690MOL0     C93022   7.075   4.342   3.984 -0.0009  0.0418  0.1221
  690MOL0     O93023   7.036   4.275   3.867  0.3429  0.0675 -0.1643
  690MOL0     C93024   6.890   4.303   3.839 -0.1099 -0.9929 -0.6825
  690MOL0     C93025   6.825   4.201   3.746 -0.3509  0.2151 -0.0841
  690MOL0     C93026   6.888   4.184   3.610  0.8534 -0.1147 -0.0090
  690MOL0     C93027   6.802   4.094   3.512  0.7311 -0.9766  0.3725
  690MOL0     C93028   6.671   4.159   3.470  0.6198 -0.7951  0.0891
  690MOL0     C93029   6.583   4.084   3.363  0.3117 -0.3914  0.8853
  690MOL0     C93030   6.668   3.971   3.282  0.4049 -0.3928  0.1827
  690MOL0     C93031   6.741   4.045   3.164  0.4039 -0.2132 -0.3909
  690MOL0     N93032   6.805   3.942   3.078 -0.4733  0.5423  0.1590
  690MOL0     C93033   6.905   3.860   3.118 -0.2274  0.0005  0.0032
  690MOL0     C93034   6.930   3.768   3.022  0.0622  1.3336  0.4836
  690MOL0     C93035   7.023   3.647   3.034  0.6473  0.4948  0.3636
  690MOL0     C93036   7.107   3.631   3.163  0.7295 -0.5576 -0.3703
  690MOL0     C93037   7.179   3.498   3.155  1.1216 -0.3443 -0.1453
  690MOL0     C93038   7.285   3.505   3.270 -1.0850 -0.1064  0.5283
  690MOL0     O93039   7.252   3.572   3.394  0.4381 -0.1378  0.3575
  690MOL0     C93040   7.353   3.575   3.485 -0.2912  0.8163 -0.3167
  690MOL0     C93041   7.343   3.663   3.595  0.1564  0.5053  0.0315
  690MOL0     C93042   7.458   3.685   3.681  0.0364  0.5738 -0.2426
  690MOL0     C93043   7.570   3.611   3.661 -0.6990  0.3857  0.1465
  690MOL0     C93044   7.687   3.638   3.753  0.4472 -0.1122  0.9206
  690MOL0     O93045   7.675   3.735   3.842 -0.1008 -0.0283  0.7018
  690MOL0     C93046   7.696   3.722   3.982 -0.3720 -0.1256  1.1274
  690MOL0     C93047   7.687   3.837   4.057 -0.2275 -0.6410 -0.6112
  690MOL0     C93048   7.696   3.844   4.194  0.3294  0.0526 -0.3993
  690MOL0     C93049   7.737   3.740   4.266 -0.9950 -0.5719 -0.5466
  690MOL0     O93050   7.745   3.753   4.400 -0.4022  0.5141  0.0350
  690MOL0     C93051   7.821   3.663   4.482 -1.1969  0.4862 -0.1606
  690MOL0     C93052   7.822   3.705   4.626  0.0797 -0.2371  0.5521
  690MOL0     C93053   7.920   3.628   4.714 -1.2257  0.0952 -0.2399
  690MOL0     C93054   7.932   3.709   4.841  0.5401  0.3842  0.2706
  690MOL0     C93055   8.039   3.667   4.949  0.6872  0.0418 -0.0570
  690MOL0     C93056   8.054   3.760   5.065 -0.0950  0.2996 -0.0919
  690MOL0     C93057   8.148   3.725   5.181  0.8352  0.2543 -0.4199
  690MOL0     C93058   8.301   3.701   5.143 -0.1567 -0.5253 -0.1667
  690MOL0    Cl93059   8.368   3.842   5.048  0.3068 -0.2641 -0.0525
  690MOL0     C93060   7.766   3.617   4.194 -0.3379  0.5801 -0.2087
  690MOL0     C93061   7.733   3.612   4.053 -0.2960 -0.3068  0.1248
  690MOL0     O93062   7.786   3.565   3.738  0.0717 -0.2897  0.1275
  690MOL0     C93063   7.572   3.509   3.566 -0.1815 -0.0201 -0.2361
  690MOL0     C93064   7.471   3.493   3.471  1.0592 -0.2377 -0.5984
  690MOL0     N93065   6.834   3.808   2.925  1.2819 -0.0088 -0.3216
  690MOL0     N93066   6.773   3.904   2.954  0.2452 -0.6179  0.4714
  690MOL0     C93067   7.151   4.458   3.976 -0.3395  0.5217  0.3160
  690MOL0     C93068   7.214   4.513   4.090 -0.5382 -0.6953 -0.3621
  690MOL0     C93069   7.295   4.593   4.548 -0.1256 -1.1818 -0.7685
  690MOL0     C93070   7.424   4.550   4.564 -0.3069  0.2331 -0.1955
  690MOL0     C93071   7.487   4.572   4.684 -0.5041  0.5631  0.9120
  690MOL0     C93072   7.428   4.646   4.786  0.2985 -0.0973 -0.3891
  690MOL0     O93073   7.507   4.653   4.897 -0.0299 -0.0843 -0.1754
  690MOL0     C93074   7.446   4.701   5.017 -0.0187  0.4586 -0.4156
  690MOL0     C93075   7.546   4.658   5.133  0.0816 -0.1022  0.4164
  690MOL0     C93076   7.520   4.733   5.267  0.0268 -0.7680 -0.2186
  690MOL0     C93077   7.617   4.692   5.376 -0.1072  0.1896 -1.4643
  690MOL0     C93078   7.618   4.788   5.487  0.5165 -0.6425  0.4970
  690MOL0     C93079   7.621   4.852   5.589  0.1203 -0.2513  0.7902
  690MOL0     C93080   7.304   4.713   4.761 -0.7282  0.5969  0.0708
  690MOL0     C93081   7.235   4.675   4.647  0.2501 -0.5353 -0.4679
  690MOL0     C93082   7.103   4.748   4.618 -0.4211 -1.1839 -0.5161
  690MOL0     H93083   7.132   4.271   4.315  0.9457  3.5822  1.7984
  690MOL0     H93084   7.031   4.175   4.110  2.8387 -1.3102 -2.6367
  690MOL0     H93085   6.821   4.306   3.924 -1.7826 -0.6605 -2.0064
  690MOL0     H93086   6.872   4.398   3.788 -3.1600 -1.6720 -1.1010
  690MOL0     H93087   6.724   4.238   3.726  0.2331  3.3847  2.1044
  690MOL0     H93088   6.828   4.106   3.800  2.9048  1.7835  2.8457
  690MOL0     H93089   6.975   4.120   3.626  2.0771  1.3703 -0.4542
  690MOL0     H93090   6.909   4.277   3.555 -0.5057 -0.0801 -0.4947
  690MOL0     H93091   6.856   4.084   3.418 -0.2190 -0.1713 -0.2825
  690MOL0     H93092   6.783   3.998   3.561  0.4574 -1.4317 -0.6126
  690MOL0     H93093   6.601   4.187   3.548  2.6761  2.3922  0.9810
  690MOL0     H93094   6.700   4.260   3.438 -2.7377 -0.2053 -1.5493
  690MOL0     H93095   6.490   4.043   3.404  0.7619 -0.0279  2.3256
  690MOL0     H93096   6.555   4.160   3.289  1.0587  1.0532  2.0441
  690MOL0     H93097   6.591   3.915   3.228  3.3363 -1.2013 -3.5646
  690MOL0     H93098   6.733   3.896   3.326 -0.1981 -0.9599  0.1228
  690MOL0     H93099   6.676   4.106   3.101 -1.9328  1.8348  3.6094
  690MOL0     H93100   6.814   4.116   3.205 -2.5707  2.7327  0.2433
  690MOL0     H93101   6.956   3.864   3.214 -4.2220  2.6387  2.3209
  690MOL0     H93102   6.967   3.555   3.016  0.6768  1.0600 -3.3206
  690MOL0     H93103   7.090   3.650   2.948 -0.0728 -0.5549 -0.2488
  690MOL0     H93104   7.183   3.709   3.166  0.6600 -0.4611  3.1706
  690MOL0     H93105   7.052   3.628   3.257  1.0703 -0.0067 -0.1481
  690MOL0     H93106   7.227   3.477   3.059 -1.3916 -0.5827 -1.4425
  690MOL0     H93107   7.103   3.421   3.172 -1.6147  1.2975 -3.5665
  690MOL0     H93108   7.380   3.540   3.229  0.0720 -2.5357  0.9995
  690MOL0     H93109   7.298   3.402   3.302 -0.1062  0.6334  2.6662
  690MOL0     H93110   7.254   3.725   3.601 -0.3424 -0.3370  2.1427
  690MOL0     H93111   7.439   3.760   3.757 -3.2540 -1.7546  1.4696
  690MOL0     H93112   7.658   3.928   4.007  3.3977  1.0140  0.0040
  690MOL0     H93113   7.687   3.936   4.251 -0.1343  0.2465 -0.7757
  690MOL0     H93114   7.798   3.557   4.473  1.3066 -0.1182 -0.3308
  690MOL0     H93115   7.923   3.665   4.441 -1.7104  0.0219 -1.5223
  690MOL0     H93116   7.833   3.813   4.642  1.0759  0.1563 -2.2910
  690MOL0     H93117   7.724   3.673   4.663  0.2995 -1.8613 -0.2115
  690MOL0     H93118   7.872   3.533   4.742  0.4095 -0.4615  0.8021
  690MOL0     H93119   8.017   3.605   4.670 -0.4900 -0.1513  1.4427
  690MOL0     H93120   7.832   3.706   4.885 -0.1389  0.7305 -1.1681
  690MOL0     H93121   7.953   3.814   4.819  2.3943 -0.1173 -0.5308
  690MOL0     H93122   8.136   3.668   4.899  2.7195 -0.3370  3.5012
  690MOL0     H93123   8.033   3.567   4.994 -1.3792 -1.1488 -2.6788
  690MOL0     H93124   8.066   3.862   5.029  3.2240 -0.3093 -1.0373
  690MOL0     H93125   7.954   3.767   5.110  0.6566 -0.7785  1.8762
  690MOL0     H93126   8.106   3.645   5.242 -2.3029  3.6888  2.4634
  690MOL0     H93127   8.150   3.815   5.243 -0.7011  0.3082 -0.4078
  690MOL0     H93128   8.365   3.682   5.229  0.7734  1.8984 -0.2625
  690MOL0     H93129   8.301   3.609   5.084 -1.5393 -1.5883  1.3914
  690MOL0     H93130   7.803   3.535   4.253  0.1672  1.0591  0.1494
  690MOL0     H93131   7.761   3.524   3.995  2.0458  0.6920 -0.3670
  690MOL0     H93132   7.661   3.449   3.550 -0.7787 -0.3050 -2.9963
  690MOL0     H93133   7.481   3.418   3.393  0.0716 -1.0168  0.0015
  690MOL0     H93134   7.165   4.507   3.880  6.2120  2.4683  1.7874
  690MOL0     H93135   7.266   4.607   4.071  0.3995 -1.7030 -3.4214
  690MOL0     H93136   7.473   4.485   4.494 -4.4710  0.2479 -3.5737
  690MOL0     H93137   7.580   4.519   4.699  2.3883  2.3442 -6.2110
  690MOL0     H93138   7.346   4.656   5.027  0.2919  0.0897  1.2644
  690MOL0     H93139   7.443   4.810   5.006  3.6544  0.6215 -0.9291
  690MOL0     H93140   7.652   4.675   5.113  0.6264 -2.7289  0.7313
  690MOL0     H93141   7.527   4.551   5.143 -1.7123  0.0820 -0.6227
  690MOL0     H93142   7.420   4.700   5.296 -1.3057  3.6362  1.0328
  690MOL0     H93143   7.538   4.840   5.250  0.8693 -0.6134  1.5164
  690MOL0     H93144   7.595   4.595   5.422 -0.0656  1.6713  1.9329
  690MOL0     H93145   7.715   4.681   5.328  0.3773  4.2112 -1.7805
  690MOL0     H93146   7.637   4.924   5.667 -1.9586  2.9708 -1.5428
  690MOL0     H93147   7.253   4.774   4.835 -3.2049 -2.2266  0.8873
  690MOL0     H93148   7.083   4.835   4.680 -1.1064 -1.5704 -0.1803
  690MOL0     H93149   7.096   4.785   4.515 -0.0731 -1.5270 -0.6665
  690MOL0     H93150   7.018   4.681   4.638 -2.5435  1.5461  0.2111
  691MOL0     O93151   4.689   0.796   3.443 -0.7859 -0.8981 -0.1091
  691MOL0     C93152   4.580   0.822   3.491  0.0673 -0.1519  0.9025
  691MOL0     O93153   4.500   0.932   3.452 -0.1795  0.4127  0.4953
  691MOL0     C93154   4.518   1.015   3.336 -0.4118 -0.1835  1.4360
  691MOL0     C93155   4.399   1.047   3.264  0.8367  0.2104  0.5992
  691MOL0     C93156   4.385   1.138   3.154  0.0187 -0.3811  0.1372
  691MOL0     C93157   4.500   1.206   3.119 -1.1115 -0.3157  0.7339
  691MOL0     O93158   4.501   1.296   3.008 -0.3889  0.8479  0.8350
  691MOL0     C93159   4.426   1.262   2.887  0.3259 -0.3190 -0.5656
  691MOL0     C93160   4.494   1.292   2.760 -0.1753 -0.6423  0.2666
  691MOL0     C93161   4.644   1.252   2.755  0.2628  0.2708 -0.7450
  691MOL0     C93162   4.712   1.287   2.620 -0.2713 -0.4659 -0.3169
  691MOL0     C93163   4.869   1.284   2.631 -0.5268  0.0851 -0.7527
  691MOL0     C93164   4.934   1.360   2.521 -0.1119 -0.2269 -0.8185
  691MOL0     C93165   4.926   1.517   2.538 -0.4795  0.4003  0.1760
  691MOL0     C93166   5.008   1.558   2.662  0.5155 -0.3657 -0.0251
  691MOL0     N93167   5.149   1.505   2.671 -0.2832  0.4589  1.1057
  691MOL0     C93168   5.196   1.434   2.777  0.0160 -0.0220 -0.0452
  691MOL0     C93169   5.324   1.467   2.800 -0.3154 -0.0382 -0.1344
  691MOL0     C93170   5.416   1.423   2.913  0.1499 -0.3854  0.3941
  691MOL0     C93171   5.534   1.333   2.869  0.3274 -0.0649  0.1369
  691MOL0     C93172   5.644   1.320   2.973 -0.2456  0.5163 -0.5099
  691MOL0     C93173   5.764   1.237   2.930  0.6356  0.4511 -0.6011
  691MOL0     O93174   5.760   1.098   2.962 -0.8763  0.1804  0.0382
  691MOL0     C93175   5.699   1.012   2.871  0.0709  1.7244 -0.2736
  691MOL0     C93176   5.686   1.032   2.730  0.4548 -0.6297 -1.0162
  691MOL0     C93177   5.620   0.933   2.657  0.5849 -0.0882 -0.8781
  691MOL0     C93178   5.578   0.807   2.706 -0.0010 -0.1997 -0.7193
  691MOL0     C93179   5.501   0.713   2.619 -0.3137 -0.0763 -0.2722
  691MOL0     O93180   5.458   0.755   2.501 -0.1593 -1.3627 -0.1705
  691MOL0     C93181   5.462   0.669   2.404 -0.2195  0.0756  0.0063
  691MOL0     C93182   5.345   0.652   2.338 -1.2994  0.1987  0.4543
  691MOL0     C93183   5.339   0.588   2.225  0.1097  0.1238  0.1572
  691MOL0     C93184   5.444   0.516   2.172  0.3716 -0.0797 -0.3114
  691MOL0     O93185   5.424   0.444   2.059  0.2070  0.2857  0.1145
  691MOL0     C93186   5.526   0.359   1.998  0.4861 -0.2890  0.4202
  691MOL0     C93187   5.452   0.249   1.922  0.2723  1.6057  0.8208
  691MOL0     C93188   5.342   0.303   1.837 -0.3041  0.8342 -0.4727
  691MOL0     C93189   5.288   0.213   1.718  0.2453  0.1503 -0.6120
  691MOL0     C93190   5.187   0.279   1.617 -0.4768 -0.2156  0.0349
  691MOL0     C93191   5.263   0.314   1.483 -0.5228 -0.2230 -0.1070
  691MOL0     C93192   5.364   0.427   1.492  0.1298 -0.9275 -0.0825
  691MOL0     C93193   5.431   0.437   1.357  0.6396  0.2827  0.1719
  691MOL0    Cl93194   5.549   0.295   1.328  0.3778  0.2022  0.3143
  691MOL0     C93195   5.574   0.525   2.244 -0.4955  0.5261 -0.7743
  691MOL0     C93196   5.579   0.600   2.360 -0.2837 -0.5715 -0.5317
  691MOL0     O93197   5.503   0.594   2.658  0.5060 -0.3309  0.1344
  691MOL0     C93198   5.611   0.782   2.840  0.7660 -0.4703 -0.5342
  691MOL0     C93199   5.668   0.880   2.922  1.1249 -0.2147 -0.0382
  691MOL0     N93200   5.368   1.551   2.697 -1.0627  0.3016  0.3324
  691MOL0     N93201   5.261   1.570   2.627  0.3745 -0.7884 -0.6441
  691MOL0     C93202   4.624   1.179   3.187  0.8600  0.9844  0.0510
  691MOL0     C93203   4.635   1.077   3.289 -0.7755  0.0385  0.4839
  691MOL0     C93204   4.538   0.745   3.607 -0.1188  0.2023  1.0433
  691MOL0     C93205   4.525   0.611   3.605  0.4550 -0.0490  0.7226
  691MOL0     C93206   4.509   0.534   3.711  0.5309 -0.2038 -0.7016
  691MOL0     C93207   4.456   0.597   3.824  1.1167  1.1293  0.0644
  691MOL0     O93208   4.415   0.528   3.936  0.8686  0.8583  0.0252
  691MOL0     C93209   4.301   0.449   3.914  0.1061  0.0792 -0.5314
  691MOL0     C93210   4.305   0.364   4.033  0.1808  1.0927  0.4035
  691MOL0     C93211   4.287   0.441   4.164  1.0815  0.2278  0.8814
  691MOL0     C93212   4.271   0.344   4.281 -0.7655  0.5310 -1.8108
  691MOL0     C93213   4.237   0.406   4.417 -0.7555 -0.2253  0.2456
  691MOL0     C93214   4.214   0.451   4.523  0.2505 -0.9003  0.4192
  691MOL0     C93215   4.449   0.731   3.825  0.6769  0.3528  0.9748
  691MOL0     C93216   4.487   0.808   3.719 -0.2893 -1.3840 -0.7598
  691MOL0     C93217   4.493   0.968   3.738  0.9021  0.5879 -0.6196
  691MOL0     H93218   4.312   0.994   3.301  1.4128 -0.5100  0.9446
  691MOL0     H93219   4.291   1.169   3.110  1.3854 -0.4086 -3.0701
  691MOL0     H93220   4.401   1.155   2.894 -5.1627  0.7247  0.7261
  691MOL0     H93221   4.329   1.312   2.900 -0.0878 -0.9110 -1.2315
  691MOL0     H93222   4.485   1.401   2.759  1.3622 -0.4826 -1.5584
  691MOL0     H93223   4.446   1.243   2.675 -0.2696 -1.2896  0.6856
  691MOL0     H93224   4.632   1.144   2.762 -3.3688  0.5601 -0.3269
  691MOL0     H93225   4.692   1.308   2.837  1.0353  0.6449 -1.4325
  691MOL0     H93226   4.670   1.221   2.543  2.0153 -0.1702 -1.9074
  691MOL0     H93227   4.688   1.390   2.592  0.8142 -0.6807 -2.1592
  691MOL0     H93228   4.917   1.324   2.721  2.8598  0.3527 -2.5351
  691MOL0     H93229   4.908   1.182   2.622  2.2174  0.8701  0.8801
  691MOL0     H93230   5.040   1.332   2.525  0.1367  0.5770 -1.4345
  691MOL0     H93231   4.913   1.325   2.420 -3.2358 -1.6216  0.2034
  691MOL0     H93232   4.828   1.565   2.549  0.6375  3.4144 -1.7193
  691MOL0     H93233   4.973   1.571   2.455  1.1651 -0.0275  0.7954
  691MOL0     H93234   5.016   1.665   2.683  1.9533 -0.7270  1.4679
  691MOL0     H93235   4.947   1.522   2.745  1.6208 -2.2235  0.0431
  691MOL0     H93236   5.131   1.387   2.849 -0.1122 -0.2472 -0.3057
  691MOL0     H93237   5.464   1.512   2.955 -4.3249  1.7660  1.5749
  691MOL0     H93238   5.361   1.377   2.996  0.9510 -1.2655  0.4644
  691MOL0     H93239   5.487   1.243   2.829 -0.9730  0.5086  0.3379
  691MOL0     H93240   5.571   1.385   2.780  0.3768 -1.5986 -0.7645
  691MOL0     H93241   5.601   1.266   3.058  1.3618 -1.2405 -0.7287
  691MOL0     H93242   5.682   1.419   3.000 -3.6524  1.2912  2.2052
  691MOL0     H93243   5.855   1.271   2.981  0.5479  0.8299 -0.6896
  691MOL0     H93244   5.786   1.255   2.824  1.3533  0.9092 -0.3866
  691MOL0     H93245   5.724   1.120   2.679  0.9331  1.3713  2.4478
  691MOL0     H93246   5.598   0.953   2.552 -4.1245 -2.2170 -0.5662
  691MOL0     H93247   5.261   0.700   2.388 -1.0130  2.5974 -1.1927
  691MOL0     H93248   5.249   0.587   2.165 -1.4046 -0.5193  2.3272
  691MOL0     H93249   5.578   0.424   1.928 -1.5728 -2.1770 -3.1418
  691MOL0     H93250   5.588   0.314   2.076 -0.3911  0.7461  1.7588
  691MOL0     H93251   5.529   0.192   1.869 -0.7786  0.1124  0.8409
  691MOL0     H93252   5.408   0.179   1.994  3.8591 -0.5386  1.1566
  691MOL0     H93253   5.255   0.328   1.899 -0.7501 -2.7666  0.5390
  691MOL0     H93254   5.383   0.387   1.779 -1.8262  2.8354  1.2040
  691MOL0     H93255   5.236   0.128   1.763  1.5637 -0.0860  0.5142
  691MOL0     H93256   5.375   0.166   1.672 -0.3769 -1.4289 -0.2543
  691MOL0     H93257   5.134   0.357   1.673 -0.1227 -0.0777  0.1852
  691MOL0     H93258   5.104   0.217   1.582 -0.8550 -0.0226  0.5788
  691MOL0     H93259   5.323   0.228   1.452  0.4079 -0.0559  1.1694
  691MOL0     H93260   5.192   0.339   1.404 -0.9007 -0.3517  0.1869
  691MOL0     H93261   5.443   0.410   1.566 -0.4090 -0.3235  0.6567
  691MOL0     H93262   5.324   0.525   1.518  2.5425 -0.7392  3.7480
  691MOL0     H93263   5.352   0.444   1.282 -0.8934 -0.8088  1.6126
  691MOL0     H93264   5.485   0.532   1.355 -1.7258  1.7033  0.6272
  691MOL0     H93265   5.661   0.471   2.207 -1.8448 -2.5318  0.2364
  691MOL0     H93266   5.666   0.613   2.424 -0.3900  1.1653 -0.6961
  691MOL0     H93267   5.586   0.695   2.900  0.4499 -1.0193 -1.4371
  691MOL0     H93268   5.692   0.876   3.027  1.7759  2.8616  0.0274
  691MOL0     H93269   4.707   1.246   3.168  1.1116  0.1688 -1.9458
  691MOL0     H93270   4.731   1.066   3.337  0.6091 -0.3174 -2.1767
  691MOL0     H93271   4.564   0.575   3.510 -0.7894 -3.0499  1.2602
  691MOL0     H93272   4.507   0.426   3.704 -0.0855 -0.1595 -1.2034
  691MOL0     H93273   4.317   0.387   3.825  1.0887 -1.0260  0.3794
  691MOL0     H93274   4.207   0.504   3.900 -0.6179 -1.0570 -0.2835
  691MOL0     H93275   4.393   0.300   4.026  1.4253  2.7663  0.3371
  691MOL0     H93276   4.218   0.297   4.029  0.7759  0.3696 -0.6354
  691MOL0     H93277   4.199   0.505   4.151 -0.2560 -1.8608 -1.1413
  691MOL0     H93278   4.367   0.515   4.178  2.3911 -0.2487 -2.9465
  691MOL0     H93279   4.199   0.263   4.267  0.0333  0.1723 -4.4639
  691MOL0     H93280   4.365   0.289   4.291 -0.6716  1.0864  1.5872
  691MOL0     H93281   4.203   0.500   4.618  0.1625  1.6285 -0.8053
  691MOL0     H93282   4.406   0.775   3.914 -2.9972 -0.8162 -0.0572
  691MOL0     H93283   4.430   1.017   3.664  2.8901  0.6601 -2.3640
  691MOL0     H93284   4.455   0.986   3.839 -0.9192 -0.3130 -1.1146
  691MOL0     H93285   4.594   1.010   3.727  1.4893  0.4145  2.9282
  692MOL0     O93286   2.986   7.765   1.339 -0.5414  0.4016 -0.1996
  692MOL0     C93287   3.038   7.868   1.289  0.2497  0.7249  0.2151
  692MOL0     O93288   3.014   7.997   1.340  0.2785 -0.3533  0.2370
  692MOL0     C93289   2.961   8.008   1.462  0.7882 -0.4117  0.6538
  692MOL0     C93290   3.031   8.018   1.590  0.4745  0.0183 -0.6010
  692MOL0     C93291   2.958   8.022   1.710 -0.3536 -0.3419 -0.2650
  692MOL0     C93292   2.815   8.009   1.709  0.4921 -0.5253  0.5132
  692MOL0     O93293   2.736   8.024   1.822 -0.2886 -0.1503  0.6004
  692MOL0     C93294   2.801   8.053   1.944 -0.0764  0.6517  0.1115
  692MOL0     C93295   2.706   8.051   2.067  0.5752  0.1234  0.6175
  692MOL0     C93296   2.767   8.031   2.213  0.0921  0.5683  0.0475
  692MOL0     C93297   2.877   8.152   2.226  1.1516 -1.5404  0.1170
  692MOL0     C93298   2.931   8.152   2.374 -0.0428  0.0609  0.8933
  692MOL0     C93299   2.821   8.225   2.458  0.0198  0.5984 -0.3296
  692MOL0     C93300   2.870   8.229   2.606 -0.0726  0.5703  0.7205
  692MOL0     C93301   2.782   8.325   2.685  0.0153  0.0951  0.2390
  692MOL0     N93302   2.831   8.332   2.837 -0.1577  1.2485  0.6919
  692MOL0     C93303   2.905   8.438   2.876 -0.9382  0.4625 -1.3422
  692MOL0     C93304   2.953   8.404   3.001 -0.2336 -0.2888  0.4153
  692MOL0     C93305   3.058   8.480   3.065 -0.1639  0.3495 -0.6442
  692MOL0     C93306   3.063   8.452   3.218  0.9902  0.7073 -0.3804
  692MOL0     C93307   3.170   8.520   3.292 -0.0239  0.7697  0.2944
  692MOL0     C93308   3.172   8.484   3.433  0.3043 -0.0169 -1.0172
  692MOL0     O93309   3.240   8.576   3.524 -0.8083 -0.4741  0.8120
  692MOL0     C93310   3.378   8.567   3.533  0.4649 -0.1296 -0.3526
  692MOL0     C93311   3.462   8.466   3.508 -1.2863  0.6133 -0.6383
  692MOL0     C93312   3.600   8.479   3.492 -0.2708 -0.5924  0.8726
  692MOL0     C93313   3.659   8.616   3.486  0.1939 -0.7107 -0.5895
  692MOL0     C93314   3.791   8.641   3.453 -0.5552 -0.2860  0.2154
  692MOL0     O93315   3.835   8.771   3.453 -0.2664 -0.6514 -0.3094
  692MOL0     C93316   3.968   8.786   3.441 -0.3399  0.5867 -0.1856
  692MOL0     C93317   4.058   8.813   3.547 -0.0027 -0.6317 -0.5229
  692MOL0     C93318   4.196   8.855   3.515 -0.5142  0.6153 -0.4465
  692MOL0     C93319   4.246   8.839   3.386  0.4650  0.3472 -0.0835
  692MOL0     O93320   4.370   8.865   3.345 -0.2950 -0.0995  0.0703
  692MOL0     C93321   4.459   8.927   3.436  0.7965 -0.3515  0.4002
  692MOL0     C93322   4.608   8.911   3.397 -0.5979  0.1076 -0.1728
  692MOL0     C93323   4.683   9.023   3.471  0.2441 -0.4974  0.5063
  692MOL0     C93324   4.819   9.054   3.402  0.4497 -0.4540 -0.0029
  692MOL0     C93325   4.904   9.185   3.448 -0.1532 -0.1428 -0.0214
  692MOL0     C93326   4.979   9.163   3.582 -1.0974  0.3433 -0.2047
  692MOL0     C93327   5.091   9.275   3.597 -0.1055  0.5012  0.3167
  692MOL0     C93328   5.228   9.231   3.545 -0.4669  1.1302  1.3643
  692MOL0    Cl93329   5.296   9.121   3.668 -0.0303  0.1309  0.0307
  692MOL0     C93330   4.161   8.799   3.291 -0.1404 -0.4614  0.4444
  692MOL0     C93331   4.032   8.778   3.318 -0.1019 -0.1673 -0.0448
  692MOL0     O93332   3.860   8.545   3.423 -0.5792  0.2422 -0.9466
  692MOL0     C93333   3.575   8.715   3.528 -0.1810  0.1902  1.3217
  692MOL0     C93334   3.431   8.696   3.538  0.5658 -0.1465 -0.2459
  692MOL0     N93335   2.895   8.277   3.039 -0.3839  0.6029  0.0982
  692MOL0     N93336   2.829   8.233   2.930  0.9801 -0.0740 -0.4209
  692MOL0     C93337   2.743   7.997   1.587 -0.0913  0.7156 -0.3737
  692MOL0     C93338   2.814   7.996   1.464  0.0136  0.6791 -0.6794
  692MOL0     C93339   3.147   7.853   1.185 -0.8140 -1.0117  0.1637
  692MOL0     C93340   3.270   7.927   1.209  0.3086 -0.2169 -0.2746
  692MOL0     C93341   3.377   7.929   1.120 -0.8243 -0.3581 -1.0659
  692MOL0     C93342   3.374   7.844   1.005  0.1082 -0.0885 -0.3185
  692MOL0     O93343   3.494   7.820   0.935 -0.4299  1.1962 -1.1098
  692MOL0     C93344   3.585   7.924   0.916  0.5340 -0.0627  0.3634
  692MOL0     C93345   3.665   7.897   0.792 -0.0263 -0.9543 -0.5689
  692MOL0     C93346   3.723   8.023   0.754 -0.8923 -0.0066 -0.3523
  692MOL0     C93347   3.807   8.022   0.618  0.0151 -0.0056  1.3426
  692MOL0     C93348   3.829   8.152   0.557  1.2394  0.1290 -0.3238
  692MOL0     C93349   3.847   8.248   0.491  0.3541  0.0128  0.1140
  692MOL0     C93350   3.261   7.763   0.995  0.1468  0.2972  0.3539
  692MOL0     C93351   3.151   7.760   1.080  0.0292 -0.4380 -0.7749
  692MOL0     C93352   3.034   7.671   1.066 -1.3992 -0.1246  0.2072
  692MOL0     H93353   3.140   8.016   1.593  0.4635 -0.9565  2.3835
  692MOL0     H93354   3.012   8.034   1.803 -3.5029  1.4398  1.5305
  692MOL0     H93355   2.873   7.979   1.980 -1.9402 -0.1725  2.4300
  692MOL0     H93356   2.855   8.148   1.954  0.9456  0.1272 -0.2327
  692MOL0     H93357   2.644   7.961   2.067 -0.0016  0.4516 -1.7382
  692MOL0     H93358   2.635   8.134   2.065  0.3256 -0.0792 -1.5742
  692MOL0     H93359   2.803   7.933   2.244 -2.2594 -0.1217  0.8219
  692MOL0     H93360   2.682   8.046   2.280 -2.7089 -2.1497 -2.5542
  692MOL0     H93361   2.964   8.126   2.165  0.9263 -1.5481 -0.1995
  692MOL0     H93362   2.842   8.251   2.196 -3.7352 -0.9178  5.8731
  692MOL0     H93363   2.959   8.053   2.412  1.6143  0.6308  1.2247
  692MOL0     H93364   3.026   8.204   2.384  1.6015 -2.8023  1.2196
  692MOL0     H93365   2.808   8.329   2.425 -1.0124  0.0915 -1.6119
  692MOL0     H93366   2.730   8.164   2.458  0.0170  0.4184  3.0243
  692MOL0     H93367   2.970   8.271   2.618 -1.7112  4.3158  3.0444
  692MOL0     H93368   2.866   8.128   2.648 -2.2875 -1.2066 -3.2425
  692MOL0     H93369   2.792   8.427   2.647  2.2981 -1.1970 -3.0844
  692MOL0     H93370   2.676   8.296   2.680  0.0928 -0.1692  0.1508
  692MOL0     H93371   2.935   8.520   2.811  0.5877  1.9872  1.1126
  692MOL0     H93372   3.152   8.440   3.026  0.8522  0.7838  1.2136
  692MOL0     H93373   3.057   8.588   3.050  4.5345  0.7531  0.3878
  692MOL0     H93374   2.967   8.462   3.270 -0.0124 -0.1482 -1.9630
  692MOL0     H93375   3.082   8.344   3.219 -0.4892  0.3371 -2.7597
  692MOL0     H93376   3.171   8.628   3.270 -0.1936  0.5449 -0.9314
  692MOL0     H93377   3.271   8.492   3.260 -0.7403 -1.7863  0.0423
  692MOL0     H93378   3.200   8.378   3.437 -1.1602 -0.4085 -0.4950
  692MOL0     H93379   3.069   8.490   3.470  0.5490  1.6036 -0.5328
  692MOL0     H93380   3.416   8.368   3.517 -0.5663 -0.1083 -3.7112
  692MOL0     H93381   3.669   8.398   3.467  1.9781  1.7466 -1.1177
  692MOL0     H93382   4.030   8.831   3.651  2.0644  2.2916 -0.3385
  692MOL0     H93383   4.252   8.890   3.601  1.4199 -2.6668 -0.2289
  692MOL0     H93384   4.430   9.033   3.441 -1.0725 -0.6796 -1.8107
  692MOL0     H93385   4.458   8.891   3.539  4.5116  1.0452  1.1022
  692MOL0     H93386   4.642   8.807   3.407 -2.6208 -0.6748 -0.9950
  692MOL0     H93387   4.610   8.933   3.290  0.5122 -1.4190 -0.5000
  692MOL0     H93388   4.631   9.119   3.473 -0.6282 -0.9608  0.9362
  692MOL0     H93389   4.707   8.989   3.573  1.2615 -2.0022 -0.2022
  692MOL0     H93390   4.812   9.072   3.295  3.1766 -0.9962 -0.3562
  692MOL0     H93391   4.887   8.969   3.416  0.2790 -0.6047 -0.0854
  692MOL0     H93392   4.861   9.285   3.440  0.8533  0.1702 -4.3075
  692MOL0     H93393   4.987   9.189   3.377 -1.4397 -1.3851 -1.6955
  692MOL0     H93394   4.910   9.183   3.664 -0.3665 -0.2601  0.5752
  692MOL0     H93395   5.011   9.060   3.602  0.1232 -0.0234 -3.3756
  692MOL0     H93396   5.105   9.302   3.702 -0.1385 -0.9773  0.7134
  692MOL0     H93397   5.051   9.364   3.547  0.7564 -0.4655 -2.2352
  692MOL0     H93398   5.217   9.181   3.448  1.7815  0.2759  1.4994
  692MOL0     H93399   5.292   9.320   3.542 -0.6397  1.3336  2.8547
  692MOL0     H93400   4.180   8.769   3.188  2.2871 -1.0434  0.9956
  692MOL0     H93401   3.977   8.728   3.239  0.3751 -1.8558  0.6397
  692MOL0     H93402   3.611   8.817   3.531 -1.1087  0.5893  0.0538
  692MOL0     H93403   3.367   8.784   3.539 -0.7889 -1.1023  1.2569
  692MOL0     H93404   2.635   8.003   1.580 -0.4766 -3.4248 -0.3635
  692MOL0     H93405   2.765   7.981   1.369  1.0551  3.2175 -1.7073
  692MOL0     H93406   3.263   7.999   1.290  0.0615 -1.1568  0.5471
  692MOL0     H93407   3.456   7.996   1.152 -1.9870 -0.5574  2.7832
  692MOL0     H93408   3.643   7.929   1.009 -2.7915  1.7067  2.5310
  692MOL0     H93409   3.536   8.022   0.913  2.2754  0.8220 -1.8373
  692MOL0     H93410   3.592   7.876   0.713  0.4638 -1.7187 -0.8275
  692MOL0     H93411   3.728   7.809   0.807 -0.9780 -1.4441  0.8278
  692MOL0     H93412   3.788   8.058   0.835  0.6850 -0.1683 -1.5140
  692MOL0     H93413   3.636   8.089   0.747 -0.6669  0.6521  2.1479
  692MOL0     H93414   3.908   7.981   0.628 -0.6239 -1.9477  0.4123
  692MOL0     H93415   3.755   7.963   0.542  1.8867  0.1107 -0.1134
  692MOL0     H93416   3.848   8.335   0.429 -5.2912 -0.1075 -0.6872
  692MOL0     H93417   3.262   7.695   0.911  0.8568 -0.5752  1.0421
  692MOL0     H93418   3.066   7.606   0.984  1.6230  1.5749 -0.0884
  692MOL0     H93419   3.016   7.611   1.155 -0.0099 -2.0079 -0.7257
  692MOL0     H93420   2.946   7.728   1.032 -1.4074  1.5703  2.7826
  693MOL0     O93421   9.485  10.053   5.095 -0.1618  0.4904  0.1024
  693MOL0     C93422   9.408   9.964   5.129 -0.1651 -0.1147  0.3048
  693MOL0     O93423   9.316   9.972   5.225  0.6057 -0.2869 -0.2839
  693MOL0     C93424   9.317  10.086   5.291  0.2865 -0.7583 -0.4836
  693MOL0     C93425   9.236  10.203   5.269  0.6522  1.3663  0.7094
  693MOL0     C93426   9.249  10.319   5.346 -0.4265  0.0383 -1.0527
  693MOL0     C93427   9.342  10.338   5.451  0.0514  0.9427 -0.3041
  693MOL0     O93428   9.358  10.446   5.526 -0.2885  0.0366  0.4628
  693MOL0     C93429   9.282  10.565   5.506 -0.3575 -0.5389 -0.1833
  693MOL0     C93430   9.329  10.651   5.387 -0.6028  0.3611 -0.4963
  693MOL0     C93431   9.254  10.779   5.361  0.3642  0.8646 -0.1666
  693MOL0     C93432   9.177  10.768   5.237 -0.7670  0.2979  0.6626
  693MOL0     C93433   9.106  10.898   5.199  0.7400 -0.2456 -0.3991
  693MOL0     C93434   9.097  10.936   5.055 -0.4945  0.7289 -0.5719
  693MOL0     C93435   9.010  11.063   5.025  0.4901  0.6166 -0.1657
  693MOL0     C93436   9.102  11.180   4.968  0.6516  0.0867  0.4842
  693MOL0     N93437   9.206  11.196   5.072  0.5617  0.2775  1.1202
  693MOL0     C93438   9.333  11.152   5.049 -0.3278  0.2199 -0.9784
  693MOL0     C93439   9.403  11.187   5.163  0.3730 -0.7394 -0.4431
  693MOL0     C93440   9.551  11.186   5.182  0.8755  0.4306 -0.6178
  693MOL0     C93441   9.613  11.051   5.208 -0.7511  0.7021  0.4157
  693MOL0     C93442   9.760  11.061   5.262  0.2559  0.2984  0.0499
  693MOL0     C93443   9.837  10.942   5.219 -0.1637  1.2637 -0.5160
  693MOL0     O93444   9.853  10.947   5.076 -0.6059  0.8551  0.4339
  693MOL0     C93445   9.979  10.944   5.026 -0.5204  0.2621 -1.0111
  693MOL0     C93446  10.070  11.041   5.063  0.0593  0.7287  1.2793
  693MOL0     C93447  10.206  11.032   5.021  1.3746  0.7545  0.3824
  693MOL0     C93448  10.238  10.930   4.939  0.7011 -0.1763  0.0864
  693MOL0     C93449  10.369  10.917   4.889  0.2675  0.3031 -0.0378
  693MOL0     O93450  10.446  11.029   4.869 -0.2300  0.5765  0.5757
  693MOL0     C93451  10.580  11.018   4.833  0.7019 -0.1582  0.0104
  693MOL0     C93452  10.623  11.142   4.770 -0.0125 -0.1101  0.7778
  693MOL0     C93453  10.751  11.145   4.705 -0.0553 -0.3093 -0.5888
  693MOL0     C93454  10.833  11.031   4.708  0.8656  1.1314  0.5430
  693MOL0     O93455  10.963  11.033   4.661  0.4178  0.6391 -0.0535
  693MOL0     C93456  11.059  10.938   4.705 -0.1804 -0.5102  0.0448
  693MOL0     C93457  11.193  10.993   4.677 -0.4140 -0.7581 -0.7580
  693MOL0     C93458  11.220  11.031   4.532 -0.2367 -0.1698 -0.4716
  693MOL0     C93459  11.352  11.098   4.502 -0.3806  0.4753 -0.0576
  693MOL0     C93460  11.368  11.146   4.358 -0.0354  0.1586 -0.6234
  693MOL0     C93461  11.505  11.215   4.330  0.2171  0.5038 -0.4875
  693MOL0     C93462  11.628  11.128   4.351  0.1228  0.7016 -0.0145
  693MOL0     C93463  11.684  11.064   4.221 -0.2903 -0.1534 -0.9598
  693MOL0    Cl93464  11.821  10.960   4.272 -0.2988 -0.2408 -0.1641
  693MOL0     C93465  10.785  10.915   4.785 -0.2878 -0.1280  0.2045
  693MOL0     C93466  10.669  10.911   4.841  0.7435  0.7944  0.5546
  693MOL0     O93467  10.404  10.799   4.861 -0.6651  0.8335  0.5323
  693MOL0     C93468  10.138  10.842   4.887  0.1489  0.1197 -0.2568
  693MOL0     C93469  10.012  10.840   4.935  0.2837  0.0264  0.6086
  693MOL0     N93470   9.322  11.258   5.250 -0.0154  1.0290  0.1612
  693MOL0     N93471   9.202  11.263   5.185  0.1573  0.2727 -1.2225
  693MOL0     C93472   9.416  10.217   5.476 -0.8777 -0.7120 -0.7154
  693MOL0     C93473   9.408  10.101   5.402 -0.0328 -0.4836  0.3015
  693MOL0     C93474   9.428   9.834   5.055  0.2175 -0.3827 -0.6065
  693MOL0     C93475   9.498   9.836   4.938  0.0131 -0.2638  0.1715
  693MOL0     C93476   9.523   9.718   4.868 -0.3296  0.5813 -0.6312
  693MOL0     C93477   9.467   9.601   4.913 -1.1559  1.7666 -0.7056
  693MOL0     O93478   9.498   9.474   4.869 -0.0008 -0.4904  0.2301
  693MOL0     C93479   9.512   9.459   4.725  0.1379  0.1829  0.8664
  693MOL0     C93480   9.472   9.335   4.664 -0.2211  1.3827 -0.9525
  693MOL0     C93481   9.587   9.246   4.616  0.2842 -0.3055 -0.2831
  693MOL0     C93482   9.553   9.162   4.495 -0.8097 -0.6461  0.9288
  693MOL0     C93483   9.456   9.051   4.523 -0.6650  0.4996  1.0750
  693MOL0     C93484   9.385   8.959   4.550 -0.2380  0.5944 -0.2637
  693MOL0     C93485   9.400   9.605   5.030 -0.1581 -0.5996  0.1217
  693MOL0     C93486   9.377   9.720   5.105 -1.2325 -0.2308  0.3588
  693MOL0     C93487   9.294   9.697   5.224  0.1432  0.5042  0.2759
  693MOL0     H93488   9.163  10.202   5.188 -1.7767  2.2875  2.7456
  693MOL0     H93489   9.194  10.412   5.332  1.6982  1.1547 -2.5974
  693MOL0     H93490   9.174  10.550   5.513 -0.3313 -0.0889  2.2453
  693MOL0     H93491   9.287  10.638   5.588  0.7243  1.0511 -1.6016
  693MOL0     H93492   9.335  10.595   5.293  4.0610  1.6214 -1.2098
  693MOL0     H93493   9.432  10.675   5.414 -0.5278  0.2657 -0.6886
  693MOL0     H93494   9.328  10.859   5.366  0.9035  0.3178  0.8310
  693MOL0     H93495   9.183  10.787   5.444 -1.0883 -2.9545 -0.8205
  693MOL0     H93496   9.233  10.729   5.151 -1.9817  1.2545 -0.5934
  693MOL0     H93497   9.103  10.688   5.249 -0.7117  0.2698  0.8220
  693MOL0     H93498   9.006  10.888   5.240  0.5345  2.5251 -0.1028
  693MOL0     H93499   9.145  10.983   5.255  0.8494 -1.5426  1.5930
  693MOL0     H93500   9.203  10.931   5.026 -0.1289 -2.1371  0.9094
  693MOL0     H93501   9.040  10.852   5.014 -0.9551 -0.8054  2.8427
  693MOL0     H93502   8.967  11.101   5.118  1.5900  0.7675  0.2965
  693MOL0     H93503   8.927  11.036   4.959 -0.7090  0.1273  1.4692
  693MOL0     H93504   9.133  11.159   4.865 -1.7588  2.3998 -0.8483
  693MOL0     H93505   9.039  11.268   4.951 -0.6240 -1.0442 -0.8786
  693MOL0     H93506   9.381  11.101   4.966  2.0879 -0.4408  0.7274
  693MOL0     H93507   9.593  11.236   5.094  1.2912  3.0349  0.9452
  693MOL0     H93508   9.571  11.256   5.264 -0.3838  0.0434  0.0416
  693MOL0     H93509   9.555  10.998   5.284 -0.8857 -0.2556 -0.3540
  693MOL0     H93510   9.621  10.996   5.114  2.9445  0.5145  0.6934
  693MOL0     H93511   9.751  11.066   5.371  0.9211 -0.9766  0.1865
  693MOL0     H93512   9.802  11.150   5.216 -1.7771  0.8861 -0.8050
  693MOL0     H93513   9.781  10.852   5.247  1.4186  0.3807 -0.0216
  693MOL0     H93514   9.931  10.940   5.275 -0.5460  0.1319  0.1195
  693MOL0     H93515  10.035  11.122   5.126 -2.0235  2.9139 -2.3607
  693MOL0     H93516  10.288  11.093   5.058  1.2923  0.6296  0.7735
  693MOL0     H93517  10.554  11.225   4.766  1.1682  0.8390 -2.0925
  693MOL0     H93518  10.786  11.235   4.656  0.1174 -0.3778 -0.5890
  693MOL0     H93519  11.049  10.920   4.813 -0.4932  2.6796  0.6465
  693MOL0     H93520  11.055  10.837   4.662  0.3675 -0.6459  0.3037
  693MOL0     H93521  11.211  11.084   4.735 -3.0826 -0.5121 -0.1976
  693MOL0     H93522  11.265  10.922   4.718 -0.7755 -0.6114  0.1452
  693MOL0     H93523  11.213  10.947   4.462  0.1603  1.8005 -3.0108
  693MOL0     H93524  11.149  11.111   4.511  0.0804  0.2563  0.0579
  693MOL0     H93525  11.429  11.027   4.530  2.2918  2.8311 -0.8909
  693MOL0     H93526  11.373  11.166   4.585  1.4358 -3.3311  2.8706
  693MOL0     H93527  11.287  11.218   4.344 -1.7309 -0.9798  2.4584
  693MOL0     H93528  11.352  11.058   4.294  1.0216  2.3644 -4.2638
  693MOL0     H93529  11.513  11.249   4.227 -2.3427  4.3403  0.3626
  693MOL0     H93530  11.507  11.304   4.394 -1.0517  0.2023  0.0012
  693MOL0     H93531  11.616  11.041   4.416 -0.0366  1.7642  1.4002
  693MOL0     H93532  11.711  11.194   4.376  1.6457  0.2537 -3.2395
  693MOL0     H93533  11.600  11.003   4.187  0.8180 -1.6226 -1.1766
  693MOL0     H93534  11.717  11.133   4.143  0.9912 -2.2509 -2.3692
  693MOL0     H93535  10.851  10.829   4.797 -0.5973 -0.4507 -0.3399
  693MOL0     H93536  10.642  10.839   4.917  0.2541  2.0769  1.6415
  693MOL0     H93537  10.175  10.769   4.815 -0.7380  1.3501 -2.0466
  693MOL0     H93538   9.938  10.768   4.903 -0.6571  1.1878  0.0927
  693MOL0     H93539   9.484  10.229   5.561 -1.9736 -0.4869  0.1552
  693MOL0     H93540   9.462  10.014   5.439 -2.6049 -2.2548  0.1718
  693MOL0     H93541   9.527   9.928   4.888  0.2335 -2.2778 -3.8663
  693MOL0     H93542   9.583   9.706   4.779 -0.8899 -2.1361 -0.7105
  693MOL0     H93543   9.616   9.480   4.697  0.2550  0.4579  1.4913
  693MOL0     H93544   9.453   9.534   4.671  2.7854 -0.2050 -3.0005
  693MOL0     H93545   9.413   9.365   4.577  0.2855 -0.8450 -2.1434
  693MOL0     H93546   9.412   9.283   4.739  1.2734  0.9989  0.0412
  693MOL0     H93547   9.625   9.180   4.694 -1.4898  0.0205  0.9053
  693MOL0     H93548   9.664   9.315   4.580  2.1235 -0.5565  2.8137
  693MOL0     H93549   9.522   9.227   4.412  1.2788 -0.8827 -0.1074
  693MOL0     H93550   9.647   9.127   4.451 -0.0147  1.4517  0.8509
  693MOL0     H93551   9.320   8.881   4.584 -0.5155  1.3114  0.9368
  693MOL0     H93552   9.380   9.506   5.071 -2.9277 -0.3487 -0.4291
  693MOL0     H93553   9.199   9.751   5.212  0.4185  0.6045 -1.7692
  693MOL0     H93554   9.259   9.593   5.233 -1.0341  0.5472 -2.5625
  693MOL0     H93555   9.329   9.736   5.320 -0.3872  0.6908  0.4003
  694MOL0     O93556   4.436   6.378   6.920 -0.0925  0.6379 -0.0778
  694MOL0     C93557   4.531   6.406   6.843 -0.0010 -0.1028  0.0862
  694MOL0     O93558   4.530   6.386   6.708  0.2025 -0.3541 -0.0517
  694MOL0     C93559   4.411   6.356   6.651  0.5078  0.1033 -0.3366
  694MOL0     C93560   4.355   6.223   6.669 -0.3997 -0.2211 -0.4478
  694MOL0     C93561   4.228   6.183   6.617  0.0728 -0.7027  0.0397
  694MOL0     C93562   4.152   6.277   6.543 -1.8270  0.5640  0.6420
  694MOL0     O93563   4.028   6.233   6.502  1.1281 -0.0715  0.4335
  694MOL0     C93564   3.924   6.338   6.487  0.7836  0.8251 -0.0775
  694MOL0     C93565   3.783   6.279   6.501  0.0233  0.7057  0.3728
  694MOL0     C93566   3.747   6.198   6.379 -0.2935  0.5897  0.6846
  694MOL0     C93567   3.688   6.061   6.410 -0.5434  0.7748  0.2150
  694MOL0     C93568   3.538   6.070   6.419  0.3184 -0.5868 -0.4540
  694MOL0     C93569   3.483   5.949   6.499  1.7021  0.0725  0.5973
  694MOL0     C93570   3.350   5.895   6.459 -0.2867  0.8587 -1.1043
  694MOL0     C93571   3.286   5.801   6.565 -0.4957 -0.2715  0.4775
  694MOL0     N93572   3.161   5.730   6.521 -0.8522 -0.0789  0.5056
  694MOL0     C93573   3.154   5.622   6.428 -1.4506 -0.1189  0.6251
  694MOL0     C93574   3.027   5.572   6.437  0.0624  0.1041  0.3566
  694MOL0     C93575   2.971   5.453   6.370  0.2411  0.1471  0.4061
  694MOL0     C93576   3.029   5.321   6.418 -0.7347  0.4969 -0.2483
  694MOL0     C93577   2.973   5.292   6.558  0.4686 -0.3978  0.3206
  694MOL0     C93578   2.926   5.148   6.573  0.2831  0.6758  0.4924
  694MOL0     O93579   2.838   5.096   6.464 -0.6403 -0.1700 -0.1586
  694MOL0     C93580   2.722   5.162   6.436 -0.2589 -0.5482  0.1646
  694MOL0     C93581   2.718   5.216   6.309  0.4861 -0.1985  0.0630
  694MOL0     C93582   2.610   5.298   6.274 -0.0038 -0.1156 -0.1210
  694MOL0     C93583   2.501   5.326   6.362  0.1565  0.3623 -0.5419
  694MOL0     C93584   2.394   5.416   6.332  1.0057 -0.4238 -0.0057
  694MOL0     O93585   2.379   5.443   6.201  0.4267  0.9546  1.2087
  694MOL0     C93586   2.304   5.549   6.157 -0.4924 -0.0863 -0.0208
  694MOL0     C93587   2.329   5.679   6.205  0.0837  0.6028  0.1147
  694MOL0     C93588   2.276   5.787   6.139  0.5161  0.3351  0.2215
  694MOL0     C93589   2.172   5.768   6.041  0.1895 -0.3686  0.0532
  694MOL0     O93590   2.119   5.882   5.981 -0.0606  0.7335 -0.3822
  694MOL0     C93591   1.989   5.894   5.924 -0.7149  0.7008  0.1017
  694MOL0     C93592   1.966   6.039   5.876  0.5299 -0.4323  0.2915
  694MOL0     C93593   1.964   6.144   5.996  0.2141  0.0264 -0.7036
  694MOL0     C93594   1.837   6.225   6.019 -0.6579  0.7103 -1.1791
  694MOL0     C93595   1.712   6.141   6.031  0.6605 -0.4356 -0.0156
  694MOL0     C93596   1.607   6.249   6.045  0.0213 -0.3917  1.2614
  694MOL0     C93597   1.464   6.187   6.030  0.2408 -0.4220  0.0485
  694MOL0     C93598   1.409   6.169   6.175 -0.9820  0.0944 -0.5496
  694MOL0    Cl93599   1.244   6.103   6.176  0.5483  0.1576 -0.3144
  694MOL0     C93600   2.137   5.642   5.997  0.5553 -0.1160  0.6711
  694MOL0     C93601   2.202   5.530   6.058 -0.1618  0.7270 -0.9259
  694MOL0     O93602   2.342   5.474   6.423 -0.4093 -0.4031  0.0306
  694MOL0     C93603   2.506   5.257   6.482  0.7385  0.3077  0.2627
  694MOL0     C93604   2.619   5.180   6.527 -0.0289 -1.0287  0.0463
  694MOL0     N93605   2.953   5.648   6.521  0.8813 -0.0184  0.0328
  694MOL0     N93606   3.033   5.737   6.582  0.3876 -0.0461  0.1776
  694MOL0     C93607   4.212   6.405   6.517  0.9690  0.6056 -1.3816
  694MOL0     C93608   4.336   6.437   6.565  0.4213  0.1217 -0.2466
  694MOL0     C93609   4.663   6.444   6.901 -0.0131  0.5653 -0.0957
  694MOL0     C93610   4.698   6.359   7.008  0.7276  0.1222 -0.2123
  694MOL0     C93611   4.825   6.383   7.076  0.7683  0.7794 -0.0608
  694MOL0     C93612   4.904   6.489   7.035 -1.3366  0.1840 -0.5993
  694MOL0     O93613   5.035   6.512   7.088  0.3317  0.4472  0.6180
  694MOL0     C93614   5.074   6.445   7.207 -0.5598  0.5446  0.0191
  694MOL0     C93615   5.209   6.479   7.253 -0.5620  0.6498 -0.8941
  694MOL0     C93616   5.317   6.473   7.145  0.3357  0.0331  0.1021
  694MOL0     C93617   5.465   6.484   7.179  0.3148  0.1013 -0.4625
  694MOL0     C93618   5.488   6.362   7.261 -0.1588  0.1555  0.3356
  694MOL0     C93619   5.492   6.259   7.317  0.0772  0.5842  0.2676
  694MOL0     C93620   4.867   6.578   6.931  0.5171  0.2574 -0.0836
  694MOL0     C93621   4.751   6.550   6.863 -0.3022 -0.0547  0.1646
  694MOL0     C93622   4.707   6.662   6.767  0.3751 -0.4931 -0.8137
  694MOL0     H93623   4.425   6.151   6.709 -0.8284  0.7262  2.1923
  694MOL0     H93624   4.184   6.091   6.653  0.1448 -0.3161  1.1477
  694MOL0     H93625   3.924   6.420   6.560  0.2852  2.9955 -2.3840
  694MOL0     H93626   3.925   6.394   6.393  1.1292 -0.4135 -0.8365
  694MOL0     H93627   3.707   6.352   6.530  0.6714  0.5386  2.6770
  694MOL0     H93628   3.786   6.225   6.596  2.9050 -0.6996 -0.3916
  694MOL0     H93629   3.835   6.191   6.313  0.9925 -0.2848  2.4205
  694MOL0     H93630   3.681   6.252   6.311  1.0827 -1.0453 -2.1719
  694MOL0     H93631   3.716   5.984   6.338 -0.4770 -1.2303  2.2802
  694MOL0     H93632   3.734   6.018   6.499 -2.5802 -2.4785 -0.1314
  694MOL0     H93633   3.503   6.161   6.469 -2.7587 -2.0473  0.3256
  694MOL0     H93634   3.490   6.087   6.322 -1.7764  0.7905  0.7622
  694MOL0     H93635   3.544   5.860   6.481  0.0515 -1.9265  3.8824
  694MOL0     H93636   3.472   5.979   6.603 -0.1236  0.9719  0.1893
  694MOL0     H93637   3.354   5.844   6.362 -2.1135 -0.2312 -0.6575
  694MOL0     H93638   3.276   5.973   6.436 -1.2543 -0.9261 -5.0033
  694MOL0     H93639   3.362   5.723   6.573 -0.3604 -0.3915 -1.5854
  694MOL0     H93640   3.261   5.858   6.655 -0.5969  0.3457  0.0638
  694MOL0     H93641   3.226   5.588   6.355 -2.6689  1.7985 -1.6155
  694MOL0     H93642   2.863   5.449   6.390  0.7991 -0.3371  3.9305
  694MOL0     H93643   2.984   5.457   6.261  2.2818 -3.6730  0.3185
  694MOL0     H93644   3.015   5.240   6.346 -3.8092 -0.3090  1.0917
  694MOL0     H93645   3.137   5.340   6.413 -0.5852  0.1122  1.0239
  694MOL0     H93646   2.883   5.349   6.585 -0.7485 -2.7711  1.6847
  694MOL0     H93647   3.043   5.298   6.642 -1.6570 -4.1170  2.6334
  694MOL0     H93648   2.880   5.142   6.672 -0.2528  0.9426  0.2646
  694MOL0     H93649   3.009   5.079   6.589  0.4762  1.6469  5.1544
  694MOL0     H93650   2.803   5.205   6.242  0.5446  0.1171  0.0874
  694MOL0     H93651   2.598   5.337   6.173  3.1036  0.0459 -0.5281
  694MOL0     H93652   2.405   5.706   6.277  1.7964  0.2028 -1.4602
  694MOL0     H93653   2.299   5.889   6.166  1.2647  0.1353  0.3594
  694MOL0     H93654   1.981   5.822   5.842  2.2538 -0.7118  0.9066
  694MOL0     H93655   1.920   5.851   5.997 -1.5872  2.0276  0.0936
  694MOL0     H93656   2.038   6.060   5.797 -2.1266  0.9681 -1.9255
  694MOL0     H93657   1.869   6.044   5.825  1.9582 -3.5685 -3.1549
  694MOL0     H93658   1.987   6.095   6.091 -1.9275  1.0290  0.4212
  694MOL0     H93659   2.047   6.211   5.974  1.5189 -1.6297 -1.0353
  694MOL0     H93660   1.817   6.278   5.926 -1.5168  0.7125 -0.9991
  694MOL0     H93661   1.855   6.291   6.104  0.4119  2.3578 -2.6171
  694MOL0     H93662   1.721   6.079   6.121 -2.6802  0.5278  1.1775
  694MOL0     H93663   1.704   6.085   5.938  1.4339 -0.7423  0.0978
  694MOL0     H93664   1.615   6.306   6.138 -1.9873  2.3165 -0.0949
  694MOL0     H93665   1.612   6.322   5.964  0.8604 -2.5699 -0.7723
  694MOL0     H93666   1.449   6.093   5.976 -4.6602 -0.3242  0.7077
  694MOL0     H93667   1.390   6.252   5.981  1.1951 -2.0181 -3.8582
  694MOL0     H93668   1.474   6.095   6.222 -0.9149  1.1219  1.0408
  694MOL0     H93669   1.422   6.261   6.232 -0.6978 -1.0504  1.3267
  694MOL0     H93670   2.076   5.645   5.908  1.1244  2.9067  0.2846
  694MOL0     H93671   2.178   5.432   6.019 -2.7722  0.6597  0.5657
  694MOL0     H93672   2.417   5.280   6.540 -0.1224 -3.0110  0.4340
  694MOL0     H93673   2.626   5.133   6.624 -1.0294 -1.1459  0.0676
  694MOL0     H93674   4.152   6.478   6.464  0.9244  2.1148  0.6289
  694MOL0     H93675   4.373   6.535   6.539 -1.7240  1.0881  0.1161
  694MOL0     H93676   4.638   6.286   7.062  1.8382 -0.5453  0.1460
  694MOL0     H93677   4.856   6.314   7.154 -1.1669 -3.1487 -2.4417
  694MOL0     H93678   5.067   6.337   7.195 -1.1463  0.6719 -0.9208
  694MOL0     H93679   4.994   6.462   7.280 -1.0800  0.2116 -0.4655
  694MOL0     H93680   5.233   6.402   7.326 -3.4342  0.8669  0.4231
  694MOL0     H93681   5.230   6.579   7.294  3.9833 -1.2005  2.1746
  694MOL0     H93682   5.295   6.547   7.067 -0.1691 -1.7653 -1.5251
  694MOL0     H93683   5.300   6.375   7.101 -0.3279  0.8115 -1.4767
  694MOL0     H93684   5.533   6.490   7.093 -0.8671 -3.3930 -1.7864
  694MOL0     H93685   5.483   6.582   7.225  0.9837  1.4964 -3.4375
  694MOL0     H93686   5.499   6.159   7.355 -0.6246  0.3999 -0.0732
  694MOL0     H93687   4.935   6.651   6.889 -0.3071 -0.5031 -2.9689
  694MOL0     H93688   4.692   6.627   6.664  3.3039  1.3588 -2.0035
  694MOL0     H93689   4.608   6.704   6.789  0.2366 -1.1396 -0.1714
  694MOL0     H93690   4.780   6.743   6.763 -0.8683  0.6755 -0.5325
  695MOL0     O93691   4.963   0.237   0.096  0.6816 -0.2786  0.3571
  695MOL0     C93692   4.938   0.219   0.216 -0.2263  0.0373  0.1267
  695MOL0     O93693   4.889   0.106   0.281 -0.6237  0.1662  0.7904
  695MOL0     C93694   4.859   0.014   0.181  0.4219 -0.3681 -1.0831
  695MOL0     C93695   4.950  -0.077   0.143  0.1981  0.3040  0.4396
  695MOL0     C93696   4.910  -0.171   0.044  0.2217 -0.7256 -0.0918
  695MOL0     C93697   4.777  -0.192   0.000 -0.2238 -0.3710  0.1480
  695MOL0     O93698   4.732  -0.274  -0.096 -0.5245 -0.1633  0.4936
  695MOL0     C93699   4.812  -0.386  -0.137 -0.1008  0.6899 -0.1143
  695MOL0     C93700   4.745  -0.465  -0.244 -0.1464 -0.8380 -0.4036
  695MOL0     C93701   4.835  -0.571  -0.302  0.1058  0.1345  0.0754
  695MOL0     C93702   4.766  -0.665  -0.399 -0.3349 -0.1651  0.2261
  695MOL0     C93703   4.887  -0.741  -0.464  0.5098  0.5595  0.2069
  695MOL0     C93704   4.820  -0.833  -0.562 -0.6286 -0.6977 -0.2086
  695MOL0     C93705   4.943  -0.890  -0.645 -0.3224 -0.1944 -0.1450
  695MOL0     C93706   4.898  -1.023  -0.711 -0.5201  0.6181 -0.1519
  695MOL0     N93707   4.898  -1.135  -0.620 -0.0787 -0.0379 -0.8741
  695MOL0     C93708   5.007  -1.218  -0.602  0.8218  0.3353 -0.2501
  695MOL0     C93709   4.955  -1.329  -0.533 -0.5445  0.2112  0.2276
  695MOL0     C93710   5.014  -1.459  -0.504  0.4695  0.3109 -0.2529
  695MOL0     C93711   4.953  -1.568  -0.611  0.4954 -0.3995  0.4872
  695MOL0     C93712   4.952  -1.714  -0.563  0.0417  0.5258  0.0324
  695MOL0     C93713   4.985  -1.800  -0.680 -0.4334  0.3897  0.7392
  695MOL0     O93714   4.987  -1.943  -0.659  0.1345 -0.6675  0.4388
  695MOL0     C93715   5.108  -1.997  -0.608  0.5279 -0.3959 -0.4880
  695MOL0     C93716   5.196  -2.061  -0.690  0.3619  0.1847  0.4616
  695MOL0     C93717   5.310  -2.124  -0.639  0.2694 -0.6048 -0.6103
  695MOL0     C93718   5.329  -2.124  -0.494 -0.0227  0.1393  0.6889
  695MOL0     C93719   5.445  -2.187  -0.433 -0.3503  0.8915  0.0459
  695MOL0     O93720   5.443  -2.206  -0.292  0.3066  0.0354 -0.1647
  695MOL0     C93721   5.535  -2.296  -0.233 -0.4256  0.8927 -0.3197
  695MOL0     C93722   5.671  -2.266  -0.221 -0.2351 -0.9255 -0.0149
  695MOL0     C93723   5.757  -2.356  -0.166  1.1285 -0.1335 -0.9646
  695MOL0     C93724   5.711  -2.485  -0.125  0.6269 -0.3997  0.5539
  695MOL0     O93725   5.794  -2.585  -0.075 -0.0130 -0.7167 -0.8177
  695MOL0     C93726   5.899  -2.548   0.026  0.2109  0.1321 -0.0040
  695MOL0     C93727   6.040  -2.569  -0.027  0.2568 -0.3804  0.3221
  695MOL0     C93728   6.058  -2.718  -0.071  0.7303 -0.4321  0.8236
  695MOL0     C93729   6.209  -2.750  -0.095 -0.0446 -0.4239  0.3167
  695MOL0     C93730   6.257  -2.670  -0.224 -0.2285 -0.1028 -0.4094
  695MOL0     C93731   6.334  -2.751  -0.323 -0.2667  0.3054  0.2717
  695MOL0     C93732   6.465  -2.794  -0.254 -0.9732  0.2246 -0.1252
  695MOL0     C93733   6.597  -2.738  -0.308  0.8254  0.3450  0.0537
  695MOL0    Cl93734   6.594  -2.568  -0.266  0.2843 -0.1269  0.1641
  695MOL0     C93735   5.581  -2.513  -0.136 -0.0345 -0.5989 -0.5443
  695MOL0     C93736   5.489  -2.420  -0.181 -0.5482  0.3693  0.0719
  695MOL0     O93737   5.532  -2.228  -0.506 -0.0842 -0.2971  0.1000
  695MOL0     C93738   5.237  -2.050  -0.413  0.8238 -0.0333  0.2514
  695MOL0     C93739   5.133  -1.994  -0.468 -0.2571  0.8473 -0.5392
  695MOL0     N93740   4.820  -1.301  -0.503  0.0788  0.0861  0.9418
  695MOL0     N93741   4.788  -1.185  -0.549  0.4427 -0.7436 -0.5673
  695MOL0     C93742   4.682  -0.093   0.048 -0.5418  0.3571 -0.8210
  695MOL0     C93743   4.727   0.005   0.148  0.2542 -1.6733  0.9380
  695MOL0     C93744   4.980   0.330   0.304 -0.5104  0.0608  0.0063
  695MOL0     C93745   5.112   0.348   0.335 -0.0387 -0.1926  0.5679
  695MOL0     C93746   5.152   0.444   0.422  0.0083  0.7078  0.0870
  695MOL0     C93747   5.062   0.525   0.489 -0.3537  0.7332  0.2156
  695MOL0     O93748   5.091   0.632   0.572 -0.3037  1.5172  0.2303
  695MOL0     C93749   5.221   0.691   0.556  0.2223 -0.2234  1.0600
  695MOL0     C93750   5.218   0.812   0.654  0.1016 -0.2931  0.0980
  695MOL0     C93751   5.353   0.871   0.658 -0.1540  0.1025 -0.6499
  695MOL0     C93752   5.461   0.783   0.737 -0.4675 -0.0960  0.8684
  695MOL0     C93753   5.439   0.778   0.881  1.3878 -0.2384  0.1341
  695MOL0     C93754   5.449   0.740   0.992 -0.2463  0.0624 -0.0021
  695MOL0     C93755   4.921   0.500   0.475 -0.6698 -0.6938 -0.0943
  695MOL0     C93756   4.885   0.406   0.372 -0.1744 -0.3008 -0.6454
  695MOL0     C93757   4.734   0.397   0.341  0.7861  0.3878 -0.3460
  695MOL0     H93758   5.054  -0.054   0.167  0.8334  1.8079 -3.1149
  695MOL0     H93759   4.992  -0.228   0.002  0.0243  0.2629 -1.9062
  695MOL0     H93760   4.895  -0.346  -0.195  2.9051 -1.6337  2.2310
  695MOL0     H93761   4.838  -0.456  -0.058  1.9086  0.0739 -1.2608
  695MOL0     H93762   4.714  -0.399  -0.326 -2.8969  2.5722  3.0430
  695MOL0     H93763   4.663  -0.518  -0.195  0.0694 -0.5818  0.2466
  695MOL0     H93764   4.883  -0.621  -0.218  5.5768  1.4594 -1.8673
  695MOL0     H93765   4.916  -0.516  -0.351  0.3141 -1.0177 -0.9290
  695MOL0     H93766   4.689  -0.733  -0.361 -0.7757  0.5251  0.5912
  695MOL0     H93767   4.715  -0.607  -0.476  1.3769 -0.8332 -1.4917
  695MOL0     H93768   4.944  -0.668  -0.523  0.4210 -0.2204 -0.8692
  695MOL0     H93769   4.952  -0.793  -0.393  1.0083  1.9273  0.7904
  695MOL0     H93770   4.767  -0.912  -0.507  1.3045 -1.0486  1.2678
  695MOL0     H93771   4.744  -0.787  -0.625 -0.8459 -0.9841 -0.1558
  695MOL0     H93772   5.027  -0.913  -0.580 -0.6914 -4.7704 -0.9615
  695MOL0     H93773   4.967  -0.820  -0.726  0.6790  0.0581  0.3607
  695MOL0     H93774   4.796  -1.015  -0.750 -0.3899 -2.0655 -1.2508
  695MOL0     H93775   4.968  -1.045  -0.792  0.9986 -1.6182  1.6331
  695MOL0     H93776   5.110  -1.213  -0.637  0.8943  0.1860 -0.0613
  695MOL0     H93777   5.124  -1.454  -0.505  0.5901 -0.8985  1.8597
  695MOL0     H93778   4.972  -1.498  -0.411 -0.3304  1.7880  0.0462
  695MOL0     H93779   4.851  -1.536  -0.634  0.6375  0.2007  0.6683
  695MOL0     H93780   5.018  -1.561  -0.699 -0.6167  3.0669 -0.2020
  695MOL0     H93781   4.855  -1.743  -0.523  1.0510  0.6233  2.8085
  695MOL0     H93782   5.030  -1.722  -0.487  0.8986  1.0327 -0.7635
  695MOL0     H93783   5.077  -1.764  -0.727 -0.8841  2.9324  1.6227
  695MOL0     H93784   4.906  -1.774  -0.752 -1.1824  2.8397  2.3072
  695MOL0     H93785   5.178  -2.077  -0.796  0.4592  1.0709  0.3031
  695MOL0     H93786   5.394  -2.169  -0.691 -0.5629 -2.6643 -0.2880
  695MOL0     H93787   5.704  -2.164  -0.236  0.2703 -1.1407 -0.4112
  695MOL0     H93788   5.857  -2.319  -0.144  0.8696 -0.5937  1.1300
  695MOL0     H93789   5.892  -2.440   0.034 -1.2590  0.2130 -1.7738
  695MOL0     H93790   5.887  -2.608   0.117  4.5735  0.7681  1.2265
  695MOL0     H93791   6.068  -2.503  -0.110  1.3472 -2.1765 -0.8009
  695MOL0     H93792   6.104  -2.553   0.061 -0.2140  4.0474  0.1004
  695MOL0     H93793   6.014  -2.770   0.014 -0.7117  2.9100  2.3018
  695MOL0     H93794   6.002  -2.754  -0.157 -1.7923  0.1541  2.1313
  695MOL0     H93795   6.213  -2.859  -0.104 -0.0584 -0.5378  1.5479
  695MOL0     H93796   6.270  -2.718  -0.010  1.6978  4.2090 -2.2787
  695MOL0     H93797   6.298  -2.574  -0.191 -1.3400  1.2611 -2.7880
  695MOL0     H93798   6.180  -2.638  -0.295 -0.1939  0.1972 -0.3107
  695MOL0     H93799   6.286  -2.841  -0.363  1.1781  0.5741 -2.3395
  695MOL0     H93800   6.353  -2.693  -0.414 -0.1962 -1.0903 -0.6417
  695MOL0     H93801   6.490  -2.900  -0.262  1.5031  0.7108  0.2859
  695MOL0     H93802   6.455  -2.783  -0.146 -3.6000  1.9171 -0.4563
  695MOL0     H93803   6.687  -2.791  -0.277 -0.0546  0.0006  2.2408
  695MOL0     H93804   6.591  -2.734  -0.417  0.0703 -0.0663  0.0765
  695MOL0     H93805   5.541  -2.604  -0.094 -2.4515  0.7654  0.2649
  695MOL0     H93806   5.386  -2.453  -0.187 -0.3651  0.0779 -2.8115
  695MOL0     H93807   5.246  -2.047  -0.305  0.4556 -1.1053  0.3291
  695MOL0     H93808   5.060  -1.944  -0.406  0.2200 -0.4921  1.2113
  695MOL0     H93809   4.578  -0.106   0.021 -1.5043 -0.6630  2.8062
  695MOL0     H93810   4.658   0.086   0.172  1.6420 -0.3172  0.4882
  695MOL0     H93811   5.194   0.285   0.301  0.7829  0.9930  0.3024
  695MOL0     H93812   5.257   0.451   0.448 -0.4344  0.7415  2.0098
  695MOL0     H93813   5.241   0.734   0.457  1.2727  4.0000  2.8940
  695MOL0     H93814   5.302   0.621   0.581 -0.0325 -1.9095 -2.2271
  695MOL0     H93815   5.182   0.763   0.745  0.3910 -2.3185 -0.8234
  695MOL0     H93816   5.150   0.892   0.623  1.8955  1.4517  0.4617
  695MOL0     H93817   5.340   0.971   0.702 -1.3320  0.7139 -2.3085
  695MOL0     H93818   5.386   0.887   0.555 -1.5929 -0.6899 -1.2533
  695MOL0     H93819   5.475   0.682   0.698  0.6619 -0.2543  1.6523
  695MOL0     H93820   5.554   0.834   0.713  0.4324 -0.5944  3.0569
  695MOL0     H93821   5.445   0.681   1.082 -5.2053  2.7580  1.9756
  695MOL0     H93822   4.854   0.563   0.533 -0.5184 -1.4592  0.9297
  695MOL0     H93823   4.674   0.419   0.429 -0.2992  0.7928 -1.1628
  695MOL0     H93824   4.700   0.471   0.267  0.7205 -1.2428 -2.0432
  695MOL0     H93825   4.703   0.297   0.308  2.5672 -0.3916  0.2511
  696MOL0     O93826  10.844   8.194   6.483 -0.0919  0.1058  0.1002
  696MOL0     C93827  10.825   8.256   6.381  0.6158 -1.0519 -0.3766
  696MOL0     O93828  10.909   8.253   6.276 -0.4628  0.2704 -0.0487
  696MOL0     C93829  11.020   8.191   6.300 -0.8642  0.4812 -0.3780
  696MOL0     C93830  11.028   8.062   6.264 -0.4623  0.5049 -0.4687
  696MOL0     C93831  11.150   7.993   6.263 -0.6426  0.2541 -0.0119
  696MOL0     C93832  11.266   8.050   6.320  0.1626  0.5615  0.0516
  696MOL0     O93833  11.388   7.983   6.330  0.0314 -0.1008 -0.5123
  696MOL0     C93834  11.391   7.839   6.327  0.9954  0.2602 -1.0232
  696MOL0     C93835  11.534   7.767   6.359  0.9100 -0.3275  0.2724
  696MOL0     C93836  11.576   7.759   6.508  0.1946 -1.5536  0.0151
  696MOL0     C93837  11.731   7.772   6.516  0.2167  0.5423  0.5490
  696MOL0     C93838  11.773   7.773   6.669 -0.8899 -0.3825 -0.4664
  696MOL0     C93839  11.928   7.737   6.673 -1.1664 -0.1439  0.0681
  696MOL0     C93840  11.971   7.735   6.822 -0.1662 -0.0661  0.2813
  696MOL0     C93841  11.908   7.639   6.924  0.4704  0.2517  0.7204
  696MOL0     N93842  11.888   7.498   6.864 -0.5495  0.2944 -0.1011
  696MOL0     C93843  11.976   7.398   6.843 -1.1862 -0.1453 -0.4881
  696MOL0     C93844  11.914   7.297   6.775  0.0337 -0.1604  0.0656
  696MOL0     C93845  11.982   7.168   6.734 -0.3673 -0.4486  0.1004
  696MOL0     C93846  11.945   7.066   6.835  0.6268 -0.6119  0.8332
  696MOL0     C93847  12.060   6.959   6.835 -0.9947 -0.9313 -0.2415
  696MOL0     C93848  12.046   6.839   6.926  0.3812  0.5074  0.1278
  696MOL0     O93849  11.935   6.770   6.874  0.1524 -0.1185  0.4392
  696MOL0     C93850  11.941   6.633   6.859  0.7407  0.7937 -0.6440
  696MOL0     C93851  12.016   6.548   6.941 -0.7742  0.0970  0.2883
  696MOL0     C93852  12.045   6.414   6.913  0.4760 -0.0906  0.1532
  696MOL0     C93853  11.975   6.348   6.813  0.8417 -0.3248 -0.3010
  696MOL0     C93854  11.994   6.201   6.790  0.5369 -0.7247  0.2832
  696MOL0     O93855  11.936   6.132   6.679  0.0729 -0.5747 -1.2033
  696MOL0     C93856  11.958   5.999   6.662 -0.4511 -0.1879 -0.4815
  696MOL0     C93857  11.850   5.915   6.706 -0.5551  0.3373 -0.8767
  696MOL0     C93858  11.857   5.779   6.677  0.0603 -0.6288  0.2423
  696MOL0     C93859  11.957   5.739   6.591  0.3900 -0.2303 -0.5695
  696MOL0     O93860  11.931   5.614   6.558  0.0555 -0.0070  0.6689
  696MOL0     C93861  11.978   5.578   6.432  0.1893  0.0686 -0.3230
  696MOL0     C93862  11.954   5.431   6.416 -0.0203  0.8046 -0.4911
  696MOL0     C93863  12.036   5.357   6.304  0.0914 -0.4377 -0.0802
  696MOL0     C93864  11.970   5.393   6.162 -0.0257  0.6872  0.7985
  696MOL0     C93865  12.077   5.378   6.049 -0.0970  0.2392 -0.1641
  696MOL0     C93866  12.137   5.249   6.019 -0.9515  0.6955 -0.4374
  696MOL0     C93867  12.032   5.142   5.988  0.1849 -0.1906  0.8687
  696MOL0     C93868  12.048   5.078   5.849  0.5845  0.0809 -0.5580
  696MOL0    Cl93869  11.901   4.970   5.838 -0.4454  0.3401 -0.6757
  696MOL0     C93870  12.059   5.823   6.538  0.1767  0.2427  0.5354
  696MOL0     C93871  12.060   5.953   6.583  0.8321  0.1844  0.6186
  696MOL0     O93872  12.036   6.142   6.891 -0.2063  0.0633  0.3908
  696MOL0     C93873  11.882   6.424   6.743 -0.1043  0.6099 -0.1988
  696MOL0     C93874  11.868   6.562   6.762  0.1981 -0.0943 -0.6800
  696MOL0     N93875  11.783   7.344   6.763  0.5184 -0.5833 -0.0679
  696MOL0     N93876  11.771   7.454   6.817  0.6120 -0.2893  0.1827
  696MOL0     C93877  11.257   8.186   6.347  1.0237 -0.1537  0.7959
  696MOL0     C93878  11.139   8.261   6.332 -0.7751  0.0202  0.4463
  696MOL0     C93879  10.739   8.377   6.384  0.0435  1.1570 -0.4018
  696MOL0     C93880  10.760   8.480   6.289 -0.2310 -0.1922 -0.4018
  696MOL0     C93881  10.697   8.607   6.287  0.9891  0.3189 -0.1202
  696MOL0     C93882  10.601   8.625   6.377  0.0196  0.0171 -0.4390
  696MOL0     O93883  10.534   8.743   6.355  0.2915  1.0028 -0.6101
  696MOL0     C93884  10.389   8.749   6.368  0.5888 -1.3572  0.5824
  696MOL0     C93885  10.322   8.881   6.310 -0.0447  0.0085 -0.6140
  696MOL0     C93886  10.223   8.953   6.399 -0.5947  0.9387 -0.5896
  696MOL0     C93887  10.080   8.928   6.354  0.1071  0.3862 -0.7032
  696MOL0     C93888  10.039   8.784   6.376 -0.4872  0.3602  0.3160
  696MOL0     C93889   9.990   8.671   6.391  0.2238 -0.2284 -0.8250
  696MOL0     C93890  10.565   8.528   6.473 -0.2040  1.1604  0.1593
  696MOL0     C93891  10.631   8.402   6.480  0.2104  0.9573 -0.3324
  696MOL0     C93892  10.585   8.305   6.587  0.2521 -0.8685 -0.5938
  696MOL0     H93893  10.943   8.005   6.225  1.8422 -1.5827 -2.8327
  696MOL0     H93894  11.159   7.888   6.235  1.1955  0.3213  0.1631
  696MOL0     H93895  11.322   7.799   6.402  0.9831 -1.5105 -1.9138
  696MOL0     H93896  11.353   7.812   6.228 -0.5332 -0.6088 -0.2365
  696MOL0     H93897  11.617   7.817   6.308 -0.5614  1.9478 -0.0127
  696MOL0     H93898  11.519   7.667   6.317 -2.7365 -0.0365  0.5953
  696MOL0     H93899  11.542   7.662   6.544  0.4214 -1.8470 -0.5535
  696MOL0     H93900  11.515   7.832   6.563 -1.3754 -1.4662 -1.7385
  696MOL0     H93901  11.772   7.689   6.457  0.2622  0.8675  0.1125
  696MOL0     H93902  11.765   7.862   6.464  1.1905 -0.5669 -0.8086
  696MOL0     H93903  11.756   7.861   6.732 -1.0872 -2.2924  2.3678
  696MOL0     H93904  11.707   7.696   6.710  1.5523 -1.8638  0.9477
  696MOL0     H93905  11.950   7.644   6.620 -4.7209  0.6438 -3.2834
  696MOL0     H93906  11.988   7.816   6.627 -0.7069  0.0397  0.9743
  696MOL0     H93907  11.965   7.832   6.871  2.5629  0.9468 -1.1721
  696MOL0     H93908  12.076   7.703   6.832 -1.0601 -2.8173  1.9192
  696MOL0     H93909  11.964   7.631   7.019 -2.2782  0.2122  2.4367
  696MOL0     H93910  11.812   7.679   6.958  2.0922  3.2510  2.1740
  696MOL0     H93911  12.080   7.405   6.871 -1.6012 -0.6815  1.3172
  696MOL0     H93912  11.950   7.133   6.636 -1.5474  1.7504 -0.3700
  696MOL0     H93913  12.091   7.180   6.724 -0.3755 -1.4373 -1.5109
  696MOL0     H93914  11.938   7.103   6.938  3.7043 -1.4641  1.4465
  696MOL0     H93915  11.854   7.018   6.799  1.4157 -1.2120 -0.4467
  696MOL0     H93916  12.150   7.003   6.879 -0.2081 -1.8638 -0.8798
  696MOL0     H93917  12.082   6.932   6.731  1.9439 -0.1040  0.0781
  696MOL0     H93918  12.034   6.857   7.033  2.2277 -3.2196  1.1326
  696MOL0     H93919  12.135   6.777   6.912  1.4253  1.7472  0.9735
  696MOL0     H93920  12.052   6.592   7.033 -0.6640  0.6647 -0.0233
  696MOL0     H93921  12.100   6.357   6.986 -0.6950 -0.0275  1.1128
  696MOL0     H93922  11.764   5.951   6.761 -0.8281  1.0936 -1.7701
  696MOL0     H93923  11.776   5.712   6.704  0.0928  0.0247  2.1472
  696MOL0     H93924  11.925   5.631   6.352 -0.6721 -2.0138 -1.2218
  696MOL0     H93925  12.087   5.590   6.429 -0.0605  3.0166 -0.2346
  696MOL0     H93926  11.987   5.374   6.503  3.0255  0.3180 -1.8199
  696MOL0     H93927  11.847   5.421   6.398 -0.3023 -2.1369  2.0726
  696MOL0     H93928  12.133   5.406   6.300 -0.3163  0.3190 -1.3808
  696MOL0     H93929  12.051   5.249   6.296  0.2765 -0.3626 -0.7634
  696MOL0     H93930  11.926   5.493   6.156 -0.5538  0.4347 -4.4226
  696MOL0     H93931  11.882   5.328   6.160  0.0848  0.5412 -0.8982
  696MOL0     H93932  12.156   5.452   6.063  1.0285 -1.0430  0.4050
  696MOL0     H93933  12.036   5.413   5.953  0.1736  2.6795  0.5480
  696MOL0     H93934  12.209   5.264   5.937 -0.5204  1.4329  0.0565
  696MOL0     H93935  12.197   5.231   6.109  1.4633  1.0534 -1.8948
  696MOL0     H93936  11.935   5.192   5.993  0.9781  1.9946 -2.3102
  696MOL0     H93937  12.053   5.064   6.062  2.6873 -3.3806 -2.8116
  696MOL0     H93938  12.052   5.150   5.767  0.8913 -1.5300 -2.0276
  696MOL0     H93939  12.144   5.025   5.855  0.9212  0.8749  2.1663
  696MOL0     H93940  12.138   5.793   6.470  0.5810 -0.5415  1.3151
  696MOL0     H93941  12.141   6.016   6.550  3.2032 -1.8052  2.2315
  696MOL0     H93942  11.835   6.386   6.652 -0.3520  0.3750  0.0235
  696MOL0     H93943  11.814   6.621   6.690 -4.1744 -1.1623  1.3847
  696MOL0     H93944  11.355   8.225   6.375  1.1966 -0.0785  0.0857
  696MOL0     H93945  11.144   8.369   6.341  2.5783 -0.0882  1.1504
  696MOL0     H93946  10.817   8.467   6.197  1.6530  0.7038  0.5624
  696MOL0     H93947  10.731   8.681   6.216  0.2221 -1.0601 -2.0026
  696MOL0     H93948  10.373   8.743   6.476 -1.2148 -0.1962  0.4318
  696MOL0     H93949  10.349   8.660   6.319  1.0202 -3.7445  4.1454
  696MOL0     H93950  10.268   8.846   6.222 -2.8149  1.4113  0.3666
  696MOL0     H93951  10.410   8.940   6.284  1.3243 -0.5673  2.2880
  696MOL0     H93952  10.249   9.059   6.399  4.1948 -0.0235 -0.9989
  696MOL0     H93953  10.235   8.908   6.498  0.6721  1.2440 -0.5940
  696MOL0     H93954  10.017   8.990   6.418 -3.0270 -0.9417 -2.2670
  696MOL0     H93955  10.063   8.969   6.255 -1.2298  0.1398 -0.5951
  696MOL0     H93956   9.951   8.571   6.387 -4.1390  1.2577 -0.8986
  696MOL0     H93957  10.482   8.557   6.536  1.3204  1.5771  2.0770
  696MOL0     H93958  10.662   8.265   6.654  0.2359 -1.9318 -1.1834
  696MOL0     H93959  10.510   8.346   6.655  2.0367  2.0135 -0.1518
  696MOL0     H93960  10.549   8.212   6.542  0.0431 -0.1708 -1.8983
  697MOL0     O93961   3.187  10.866  11.035 -0.2768  0.0928  0.0168
  697MOL0     C93962   3.283  10.935  11.032  0.5208  0.0206 -0.1959
  697MOL0     O93963   3.397  10.912  11.093 -0.3299  0.5966 -0.3199
  697MOL0     C93964   3.414  10.803  11.172 -1.0803 -0.1662  0.4731
  697MOL0     C93965   3.390  10.795  11.300  0.4691  0.7117 -0.6541
  697MOL0     C93966   3.416  10.675  11.369  0.5515 -0.1143 -0.2020
  697MOL0     C93967   3.497  10.572  11.309 -0.3748  0.7310  0.8953
  697MOL0     O93968   3.505  10.463  11.391 -0.2152 -0.1534  0.1146
  697MOL0     C93969   3.526  10.330  11.331  0.3198 -1.2320 -0.5567
  697MOL0     C93970   3.667  10.282  11.332  0.0534  0.9400 -0.0700
  697MOL0     C93971   3.689  10.130  11.313 -0.3863  1.0723  0.3266
  697MOL0     C93972   3.653  10.079  11.170  0.8962 -0.3130  0.3222
  697MOL0     C93973   3.702   9.932  11.158 -0.4110  0.6080 -0.5758
  697MOL0     C93974   3.648   9.841  11.057  0.5736 -0.1421  0.8505
  697MOL0     C93975   3.687   9.892  10.912  0.1065  0.1754 -0.9877
  697MOL0     C93976   3.629   9.816  10.786 -0.2009 -0.3676  0.1753
  697MOL0     N93977   3.484   9.849  10.792 -0.0642  0.3202  0.0349
  697MOL0     C93978   3.433   9.969  10.792 -0.0098 -0.2067 -0.2523
  697MOL0     C93979   3.301   9.959  10.805 -0.0296 -0.2309  0.6706
  697MOL0     C93980   3.215  10.080  10.804  0.0541 -0.4612 -0.5004
  697MOL0     C93981   3.083  10.031  10.741  0.1538 -0.2889  0.1857
  697MOL0     C93982   2.983  10.150  10.765  0.4404  0.5790  0.0583
  697MOL0     C93983   2.835  10.125  10.721 -0.5816 -0.2238  0.1278
  697MOL0     O93984   2.835  10.124  10.577  0.1442 -0.4873 -0.4949
  697MOL0     C93985   2.854  10.248  10.504 -0.5211  0.2669  0.2441
  697MOL0     C93986   2.951  10.258  10.400  0.4231  0.1612  0.4199
  697MOL0     C93987   2.964  10.377  10.325 -0.2743 -1.2268 -0.4279
  697MOL0     C93988   2.882  10.490  10.348  0.7783 -0.2185 -0.3181
  697MOL0     C93989   2.898  10.619  10.271 -2.0432 -0.1505  0.7328
  697MOL0     O93990   2.991  10.616  10.167 -1.1471  0.4294  0.1127
  697MOL0     C93991   3.043  10.735  10.118 -0.1344 -0.4109 -0.6127
  697MOL0     C93992   3.179  10.763  10.101 -0.3129  0.3890 -0.5019
  697MOL0     C93993   3.222  10.866  10.024 -0.5559 -0.7171 -0.3259
  697MOL0     C93994   3.127  10.954   9.953 -0.5200 -1.2938 -0.2965
  697MOL0     O93995   3.171  11.064   9.885  0.0566  0.2604  0.1850
  697MOL0     C93996   3.073  11.170   9.847  0.4670 -0.8278 -0.8800
  697MOL0     C93997   3.155  11.277   9.777 -1.1767 -0.2527 -0.1065
  697MOL0     C93998   3.237  11.219   9.658  0.3641  0.0812  0.4031
  697MOL0     C93999   3.298  11.331   9.570 -0.6591  0.5152  0.1518
  697MOL0     C94000   3.194  11.399   9.461  0.5656 -0.2426 -0.2187
  697MOL0     C94001   3.260  11.517   9.384 -0.0127 -0.5216  0.2051
  697MOL0     C94002   3.347  11.476   9.270  0.4160  0.3437  0.1612
  697MOL0     C94003   3.367  11.582   9.159 -0.4726 -0.5332 -0.8883
  697MOL0    Cl94004   3.523  11.570   9.065  0.2122  0.0709 -0.0023
  697MOL0     C94005   2.990  10.930   9.973 -0.0605  0.1616  0.6405
  697MOL0     C94006   2.954  10.826  10.059  0.3497  1.0363  1.2112
  697MOL0     O94007   2.836  10.719  10.302 -0.1665  0.2517 -0.4110
  697MOL0     C94008   2.797  10.475  10.459  0.2999 -0.5358 -0.2603
  697MOL0     C94009   2.778  10.361  10.536 -1.1622  0.8317  0.9082
  697MOL0     N94010   3.266   9.824  10.794  0.2810  0.2200  0.5717
  697MOL0     N94011   3.388   9.756  10.776 -0.1945 -0.1854  0.7359
  697MOL0     C94012   3.540  10.579  11.178  0.7460 -0.2337 -0.9165
  697MOL0     C94013   3.486  10.692  11.114  0.1177  1.4972  0.5683
  697MOL0     C94014   3.281  11.061  10.954  0.3848 -0.2395 -1.0130
  697MOL0     C94015   3.395  11.137  10.927 -0.9607  0.0121 -0.7286
  697MOL0     C94016   3.388  11.249  10.846 -0.4619  1.1830  0.5246
  697MOL0     C94017   3.268  11.303  10.802  0.0076  0.2195  0.5588
  697MOL0     O94018   3.276  11.410  10.715 -0.2114 -0.1846  0.4140
  697MOL0     C94019   3.152  11.442  10.647 -0.3527  0.2404 -0.4895
  697MOL0     C94020   3.185  11.580  10.602 -0.5706 -0.6857 -0.3888
  697MOL0     C94021   3.300  11.581  10.500  0.0447 -0.8018 -0.0927
  697MOL0     C94022   3.271  11.675  10.381  0.5476 -0.4341  0.9201
  697MOL0     C94023   3.247  11.811  10.433  0.1233  0.8144  0.1660
  697MOL0     C94024   3.221  11.917  10.484  0.1810 -0.3267 -0.0259
  697MOL0     C94025   3.162  11.229  10.833 -0.3574 -0.4192 -0.9934
  697MOL0     C94026   3.157  11.113  10.912 -0.0881  0.9354  0.5553
  697MOL0     C94027   3.014  11.054  10.930 -0.2388 -0.0922  0.7882
  697MOL0     H94028   3.347  10.884  11.345 -0.8664 -0.4840  0.4814
  697MOL0     H94029   3.374  10.679  11.469 -1.0702  4.1340 -0.8093
  697MOL0     H94030   3.459  10.256  11.376  1.1414 -0.9912  1.1878
  697MOL0     H94031   3.483  10.338  11.231 -2.6044  0.8046  0.7262
  697MOL0     H94032   3.733  10.312  11.414 -2.1404  0.4522  1.9751
  697MOL0     H94033   3.701  10.347  11.251 -1.3548  2.3271  0.4098
  697MOL0     H94034   3.636  10.074  11.391 -1.8322  1.1599 -0.5548
  697MOL0     H94035   3.796  10.114  11.331  0.1916  2.7556 -1.3244
  697MOL0     H94036   3.544  10.078  11.168  0.8587 -3.1090 -1.6848
  697MOL0     H94037   3.698  10.137  11.089 -2.8728  2.6686  0.0798
  697MOL0     H94038   3.811   9.928  11.146 -0.3892  0.0001 -0.2051
  697MOL0     H94039   3.677   9.891  11.256 -2.5087 -1.4542 -1.8610
  697MOL0     H94040   3.703   9.747  11.064  1.7587  0.2788 -1.4872
  697MOL0     H94041   3.539   9.837  11.065  0.1151  4.6709  0.3979
  697MOL0     H94042   3.795   9.875  10.909  0.2668  1.2640 -2.8752
  697MOL0     H94043   3.666   9.998  10.895  1.3471  0.6191  0.0808
  697MOL0     H94044   3.684   9.849  10.697  2.3059  0.4419  1.8945
  697MOL0     H94045   3.651   9.710  10.798 -3.5009 -0.8544  4.2333
  697MOL0     H94046   3.473  10.070  10.791 -3.3067  1.2837  1.8552
  697MOL0     H94047   3.191  10.130  10.899 -0.7265 -0.6986 -0.5685
  697MOL0     H94048   3.266  10.151  10.738 -0.5446 -0.2281 -0.7205
  697MOL0     H94049   3.089  10.014  10.633  0.4748  0.9585 -0.0127
  697MOL0     H94050   3.042   9.943  10.791 -1.9177  0.1050 -0.6889
  697MOL0     H94051   3.016  10.246  10.722 -3.9022  0.3278 -4.8410
  697MOL0     H94052   2.975  10.153  10.874  0.1069 -2.3451  0.1865
  697MOL0     H94053   2.759  10.192  10.761 -0.8886  0.4403 -1.4858
  697MOL0     H94054   2.796  10.027  10.752  0.5136 -0.6158  0.3054
  697MOL0     H94055   3.028  10.182  10.400 -0.7242 -1.0735  1.4713
  697MOL0     H94056   3.044  10.387  10.251 -0.4014 -0.7506 -0.5018
  697MOL0     H94057   3.250  10.693  10.146 -1.9352 -3.9975 -3.9866
  697MOL0     H94058   3.330  10.875  10.032 -0.8340  3.4495  0.7422
  697MOL0     H94059   2.997  11.145   9.772 -1.5944  1.0618  0.4709
  697MOL0     H94060   3.016  11.215   9.929  0.4259 -0.0140 -1.3484
  697MOL0     H94061   3.088  11.356   9.743  0.0650  0.6444 -0.5548
  697MOL0     H94062   3.225  11.321   9.848 -0.4045 -2.5947  0.6722
  697MOL0     H94063   3.314  11.146   9.689 -2.2830 -3.0059  0.2364
  697MOL0     H94064   3.161  11.176   9.594  0.4443  3.2450 -2.0498
  697MOL0     H94065   3.383  11.297   9.511 -1.4289 -3.5447  1.1253
  697MOL0     H94066   3.322  11.417   9.633 -0.2619 -2.8605  5.1232
  697MOL0     H94067   3.110  11.449   9.510 -0.3709 -1.6410 -0.3429
  697MOL0     H94068   3.150  11.320   9.399 -2.3548  0.7212  0.4811
  697MOL0     H94069   3.182  11.580   9.340  1.1878  2.7476  2.3485
  697MOL0     H94070   3.301  11.583   9.460  2.2369 -0.0942 -1.2755
  697MOL0     H94071   3.303  11.391   9.217  0.6383  1.1259 -1.3106
  697MOL0     H94072   3.443  11.441   9.311  0.0667 -0.0081  0.6967
  697MOL0     H94073   3.285  11.557   9.092 -0.1469 -0.4795 -1.3164
  697MOL0     H94074   3.363  11.683   9.200 -1.6943 -0.8576 -0.1770
  697MOL0     H94075   2.917  10.982   9.911 -1.3545 -1.3806  0.8130
  697MOL0     H94076   2.848  10.807  10.071  0.3076  0.9618  0.7380
  697MOL0     H94077   2.722  10.553  10.474  0.4489 -0.4277 -0.0791
  697MOL0     H94078   2.708  10.345  10.617  0.2256  0.5598  2.0881
  697MOL0     H94079   3.585  10.491  11.133 -0.0029 -1.2894  0.3303
  697MOL0     H94080   3.506  10.700  11.008  3.7371  0.4105  1.0612
  697MOL0     H94081   3.496  11.117  10.961  0.7085  1.5968 -4.1887
  697MOL0     H94082   3.484  11.295  10.826  1.8664 -2.5088  2.0625
  697MOL0     H94083   3.060  11.440  10.707 -0.7777 -1.8279 -1.1122
  697MOL0     H94084   3.132  11.370  10.567 -1.9590 -0.0120  0.1023
  697MOL0     H94085   3.206  11.642  10.689 -0.9223  0.8453 -1.3651
  697MOL0     H94086   3.091  11.611  10.556 -0.4876  2.2462  1.1989
  697MOL0     H94087   3.321  11.479  10.465 -2.7106 -1.4863  0.0250
  697MOL0     H94088   3.394  11.622  10.537  0.3820 -1.1375 -0.5559
  697MOL0     H94089   3.351  11.672  10.307 -2.6884 -1.6355 -2.9155
  697MOL0     H94090   3.180  11.640  10.330  0.9395 -1.9301  1.2308
  697MOL0     H94091   3.195  12.018  10.508  0.5563  0.1138 -1.4061
  697MOL0     H94092   3.060  11.260  10.813 -0.5954  1.1210  1.9917
  697MOL0     H94093   2.938  11.132  10.923  0.4353  0.7605  2.5756
  697MOL0     H94094   2.987  10.978  10.856 -2.3413  1.1845  0.1406
  697MOL0     H94095   2.998  11.012  11.029 -0.6166 -0.4008  0.6003
  698MOL0     O94096   8.398   5.856   3.253  0.0327  1.0928 -0.1362
  698MOL0     C94097   8.509   5.808   3.252 -0.8112  0.1646  0.6891
  698MOL0     O94098   8.574   5.741   3.349  0.0643  0.3716  0.1882
  698MOL0     C94099   8.522   5.754   3.477  0.5132  0.8320 -0.9999
  698MOL0     C94100   8.515   5.871   3.553 -0.4719 -0.1244  0.8789
  698MOL0     C94101   8.459   5.872   3.686  0.2605 -0.0497 -0.0631
  698MOL0     C94102   8.410   5.755   3.738 -0.1662 -0.9221 -0.3651
  698MOL0     O94103   8.381   5.752   3.874 -0.2453 -0.0307  0.6087
  698MOL0     C94104   8.341   5.872   3.934  0.1771 -0.0570  0.4532
  698MOL0     C94105   8.294   5.853   4.073  0.2940 -0.8312 -0.3758
  698MOL0     C94106   8.193   5.742   4.078  1.0482  0.9370  0.2954
  698MOL0     C94107   8.160   5.709   4.225 -0.0057 -0.3048 -0.8339
  698MOL0     C94108   8.258   5.615   4.303 -0.0909  0.0554 -0.4710
  698MOL0     C94109   8.245   5.580   4.452 -0.3426 -0.3060 -0.3196
  698MOL0     C94110   8.213   5.699   4.545 -0.3638  0.3328  0.5679
  698MOL0     C94111   8.185   5.653   4.685 -0.9817  0.0678 -0.3212
  698MOL0     N94112   8.045   5.612   4.700  0.3848  0.5265  0.3948
  698MOL0     C94113   8.008   5.479   4.701  0.0487 -1.4287 -0.2236
  698MOL0     C94114   7.867   5.485   4.718  0.2646 -0.2493 -0.4046
  698MOL0     C94115   7.769   5.370   4.728  0.1943 -0.0052 -0.2517
  698MOL0     C94116   7.797   5.259   4.619 -0.0657 -0.1350  0.1157
  698MOL0     C94117   7.663   5.186   4.592 -0.0129 -0.0223 -0.7405
  698MOL0     C94118   7.593   5.117   4.717  0.3475  0.8066  0.3425
  698MOL0     O94119   7.444   5.136   4.719  0.1182 -1.0168 -0.7357
  698MOL0     C94120   7.375   5.084   4.614  0.3044 -0.5026  1.8388
  698MOL0     C94121   7.269   5.165   4.569  0.2380  0.5378 -0.0019
  698MOL0     C94122   7.193   5.125   4.463 -0.2036  0.3073 -0.5232
  698MOL0     C94123   7.220   5.004   4.395 -0.8304 -0.0070  0.6014
  698MOL0     C94124   7.146   4.968   4.269 -0.7066 -0.2007 -0.4079
  698MOL0     O94125   7.180   4.849   4.204 -0.2794 -0.3990 -0.7271
  698MOL0     C94126   7.101   4.817   4.095  0.3962  0.0860 -0.1480
  698MOL0     C94127   6.997   4.731   4.115 -0.6231 -1.4169 -0.1312
  698MOL0     C94128   6.916   4.684   4.010  0.6730 -1.1383 -0.3572
  698MOL0     C94129   6.928   4.734   3.878 -0.4746 -0.2894 -0.4532
  698MOL0     O94130   6.838   4.693   3.786 -0.7235 -0.0699 -0.8702
  698MOL0     C94131   6.849   4.759   3.656  0.9604  0.3720 -0.3024
  698MOL0     C94132   6.738   4.712   3.555 -0.4244  0.3649  0.1096
  698MOL0     C94133   6.607   4.795   3.565  0.7071 -0.6689 -0.4315
  698MOL0     C94134   6.526   4.729   3.685 -0.4660  0.9709  0.0384
  698MOL0     C94135   6.392   4.795   3.709  0.5752 -0.0839  0.1135
  698MOL0     C94136   6.291   4.756   3.596  0.0673 -0.3616  0.5335
  698MOL0     C94137   6.273   4.608   3.553  0.5027  0.2350 -0.3910
  698MOL0     C94138   6.197   4.607   3.423  1.0533  0.6570  0.0487
  698MOL0    Cl94139   6.125   4.435   3.389 -0.3807 -0.3696  0.2605
  698MOL0     C94140   7.034   4.831   3.864  0.0516  0.5155  0.4479
  698MOL0     C94141   7.122   4.868   3.968  0.7409  0.6294 -0.2027
  698MOL0     O94142   7.050   5.044   4.242 -0.2692  0.3855  0.4610
  698MOL0     C94143   7.331   4.925   4.444  0.2848  0.2323 -0.5372
  698MOL0     C94144   7.403   4.964   4.561 -0.8989 -0.4833 -0.0434
  698MOL0     N94145   7.830   5.623   4.728 -0.0395  0.0977  0.3354
  698MOL0     N94146   7.936   5.697   4.715  0.4318  0.2749  0.4256
  698MOL0     C94147   8.434   5.640   3.673 -0.1184 -0.2785 -0.3061
  698MOL0     C94148   8.483   5.632   3.542  0.9531 -0.4368 -0.0354
  698MOL0     C94149   8.580   5.855   3.136 -0.1968 -0.9212  0.1965
  698MOL0     C94150   8.716   5.877   3.160  0.3760 -0.1833  0.3077
  698MOL0     C94151   8.803   5.925   3.065  0.4821 -0.3016  0.5085
  698MOL0     C94152   8.760   5.945   2.933 -0.7634 -0.0655 -0.8869
  698MOL0     O94153   8.874   5.983   2.857  0.0928  0.3408  0.5644
  698MOL0     C94154   8.866   5.966   2.720 -0.4342 -0.2419  0.2555
  698MOL0     C94155   8.998   5.917   2.667 -0.2588 -0.3301  0.0791
  698MOL0     C94156   9.095   6.028   2.704  0.7226 -0.9194 -0.5728
  698MOL0     C94157   9.220   6.035   2.618  1.0774 -0.6454 -0.9120
  698MOL0     C94158   9.324   6.109   2.683 -0.9156  0.3030 -0.2460
  698MOL0     C94159   9.410   6.182   2.721 -0.1792 -0.2838 -0.0570
  698MOL0     C94160   8.630   5.927   2.906 -0.0836  0.3927 -1.1530
  698MOL0     C94161   8.535   5.881   2.995  0.0035  0.6746 -0.5783
  698MOL0     C94162   8.392   5.862   2.943  0.4626 -0.7108  0.0097
  698MOL0     H94163   8.550   5.961   3.502 -1.3395  0.8059  1.8745
  698MOL0     H94164   8.452   5.967   3.738  0.9223 -0.8114  1.4672
  698MOL0     H94165   8.413   5.955   3.939  0.1864  0.0786 -1.3042
  698MOL0     H94166   8.262   5.913   3.870  0.1015  0.1247  0.6642
  698MOL0     H94167   8.239   5.943   4.104  1.7847  0.6705 -1.9197
  698MOL0     H94168   8.365   5.849   4.156  1.0061  1.7483 -0.7658
  698MOL0     H94169   8.236   5.652   4.034 -0.0676  0.2365  0.5844
  698MOL0     H94170   8.107   5.760   4.011  3.5261  2.5700 -2.7231
  698MOL0     H94171   8.150   5.801   4.284 -1.0260 -1.5431  1.0295
  698MOL0     H94172   8.057   5.674   4.222  1.0318 -3.6193 -1.0978
  698MOL0     H94173   8.261   5.520   4.249  0.5135 -0.6667  0.7904
  698MOL0     H94174   8.353   5.668   4.304 -1.2050  2.2000  1.6545
  698MOL0     H94175   8.160   5.512   4.466  0.2975 -2.0250 -3.7687
  698MOL0     H94176   8.328   5.525   4.496 -0.5304  0.2693  0.8134
  698MOL0     H94177   8.117   5.736   4.507 -0.7852  1.0283  2.2274
  698MOL0     H94178   8.284   5.781   4.549  2.7261 -1.8955 -2.3987
  698MOL0     H94179   8.253   5.578   4.726 -2.6729 -2.0872 -1.2947
  698MOL0     H94180   8.192   5.741   4.751  1.3297 -2.0649  2.5326
  698MOL0     H94181   8.079   5.398   4.689 -0.9574 -2.4747  0.5909
  698MOL0     H94182   7.770   5.332   4.830 -0.3156 -4.7287 -1.7858
  698MOL0     H94183   7.674   5.417   4.700  0.2457 -0.2912 -0.9211
  698MOL0     H94184   7.839   5.308   4.531 -2.0978 -0.1705 -0.9403
  698MOL0     H94185   7.869   5.186   4.658 -1.4516 -1.3035  0.5967
  698MOL0     H94186   7.675   5.102   4.523 -4.4407 -0.1761 -1.6391
  698MOL0     H94187   7.597   5.267   4.559 -1.0648  0.9204  3.1531
  698MOL0     H94188   7.632   5.170   4.804 -0.6409  1.7314  0.2449
  698MOL0     H94189   7.622   5.011   4.718 -0.9168  0.4290 -0.9433
  698MOL0     H94190   7.253   5.261   4.617 -0.1209  0.7855 -0.6038
  698MOL0     H94191   7.120   5.188   4.414  0.4734 -0.8267 -3.1865
  698MOL0     H94192   6.975   4.700   4.217 -1.0118  0.8863  0.5508
  698MOL0     H94193   6.846   4.603   4.032 -1.2448  0.8255  1.1623
  698MOL0     H94194   6.845   4.868   3.663 -1.4966  0.2818  0.6731
  698MOL0     H94195   6.948   4.744   3.613  1.2593  2.3979 -0.4288
  698MOL0     H94196   6.773   4.712   3.451 -1.9486  0.0085 -0.4317
  698MOL0     H94197   6.703   4.609   3.570 -2.1853  0.6044 -1.9218
  698MOL0     H94198   6.624   4.903   3.574  0.8467 -0.8320  2.0740
  698MOL0     H94199   6.546   4.794   3.474  0.3125  0.0446 -0.1888
  698MOL0     H94200   6.584   4.737   3.777 -0.1950  3.6033 -0.2933
  698MOL0     H94201   6.519   4.623   3.659  2.6238  0.4791  0.7965
  698MOL0     H94202   6.405   4.902   3.722 -2.5948  0.0668  3.5616
  698MOL0     H94203   6.369   4.760   3.810  1.6272 -3.0181 -0.5596
  698MOL0     H94204   6.194   4.799   3.622 -0.7388 -0.6021 -1.7901
  698MOL0     H94205   6.318   4.806   3.503 -3.2157 -0.2977 -0.5102
  698MOL0     H94206   6.207   4.565   3.629  0.6941  1.7394  0.6659
  698MOL0     H94207   6.373   4.566   3.544  2.0101  2.4746  3.5169
  698MOL0     H94208   6.113   4.676   3.408  1.9754  1.4730 -1.6972
  698MOL0     H94209   6.268   4.629   3.343 -1.0376 -2.4167 -2.9977
  698MOL0     H94210   7.047   4.879   3.768  3.7310 -0.6199  0.2420
  698MOL0     H94211   7.201   4.941   3.953  0.8028  0.3681 -1.2971
  698MOL0     H94212   7.368   4.839   4.390  1.7260  0.3602  0.2161
  698MOL0     H94213   7.474   4.894   4.604 -1.3976 -0.4326  0.8891
  698MOL0     H94214   8.428   5.553   3.738 -1.2168  0.1630  0.2119
  698MOL0     H94215   8.495   5.538   3.490 -1.4746 -0.4942 -0.5924
  698MOL0     H94216   8.757   5.872   3.260 -1.0607 -0.5449  0.9159
  698MOL0     H94217   8.906   5.954   3.081  0.5167 -0.5926  0.8331
  698MOL0     H94218   8.843   6.061   2.672 -2.0262 -0.0474  1.3281
  698MOL0     H94219   8.780   5.904   2.692  0.9414 -1.8800 -0.5718
  698MOL0     H94220   8.991   5.912   2.558  3.4126  1.1328 -0.3815
  698MOL0     H94221   9.040   5.828   2.715 -3.9515 -0.4458  3.6361
  698MOL0     H94222   9.120   6.020   2.810 -1.4288  2.9821  0.3781
  698MOL0     H94223   9.049   6.126   2.696 -2.2512 -1.7902  2.9840
  698MOL0     H94224   9.247   5.931   2.599  0.2491 -0.3474 -4.4917
  698MOL0     H94225   9.210   6.086   2.521 -1.5417 -2.5552 -1.7695
  698MOL0     H94226   9.486   6.251   2.750  1.3662 -1.5060 -1.0170
  698MOL0     H94227   8.594   5.948   2.806  1.4679  3.8574 -1.1409
  698MOL0     H94228   8.357   5.768   2.986 -3.5656  1.2880  1.6056
  698MOL0     H94229   8.327   5.937   2.990  1.2772  1.2167 -1.7786
  698MOL0     H94230   8.385   5.851   2.834  0.3985 -4.0553  0.2320
  699MOL0     O94231  11.484   6.924   3.015  0.6863  0.1743  0.7403
  699MOL0     C94232  11.590   6.934   2.949  0.0888  0.3280 -0.0557
  699MOL0     O94233  11.606   6.879   2.829  0.0207 -0.4702 -0.0396
  699MOL0     C94234  11.505   6.805   2.773  0.9791  0.4437  0.6580
  699MOL0     C94235  11.403   6.868   2.721 -0.1639  0.8961  0.2782
  699MOL0     C94236  11.298   6.793   2.660 -0.2427 -1.3690  0.2261
  699MOL0     C94237  11.301   6.658   2.664 -1.4815  0.3507 -0.3977
  699MOL0     O94238  11.207   6.593   2.594  0.2042 -0.1495 -0.8346
  699MOL0     C94239  11.156   6.467   2.624 -0.3177  0.2040 -0.3419
  699MOL0     C94240  11.121   6.443   2.477  0.3142 -0.2560 -0.1957
  699MOL0     C94241  11.108   6.292   2.452 -0.0689  1.1895  0.6318
  699MOL0     C94242  11.016   6.217   2.545 -0.4296  0.2406  0.4954
  699MOL0     C94243  10.999   6.060   2.512 -0.1186  0.2414 -0.5202
  699MOL0     C94244  10.881   5.996   2.598  0.4287 -0.7587 -0.2584
  699MOL0     C94245  10.843   5.850   2.549  0.4616 -0.2443  0.0450
  699MOL0     C94246  10.712   5.844   2.476 -0.2383 -0.1686  0.4280
  699MOL0     N94247  10.685   5.737   2.384 -0.1276  0.6882 -0.0294
  699MOL0     C94248  10.586   5.643   2.409  0.1979  0.9783  0.3356
  699MOL0     C94249  10.559   5.589   2.286  0.4973  0.3770 -0.0151
  699MOL0     C94250  10.445   5.494   2.248 -0.9764 -0.0804  1.1590
  699MOL0     C94251  10.384   5.409   2.361  0.6079 -0.2190 -0.0204
  699MOL0     C94252  10.479   5.318   2.419 -0.2120 -0.8260 -0.5197
  699MOL0     C94253  10.406   5.216   2.508  0.1605 -1.1509 -0.1829
  699MOL0     O94254  10.303   5.150   2.445 -0.2628  1.0168 -0.7696
  699MOL0     C94255  10.328   5.025   2.397 -0.2978 -0.6327  0.0285
  699MOL0     C94256  10.219   4.946   2.363 -0.3703 -1.5961 -0.6528
  699MOL0     C94257  10.244   4.807   2.337 -0.2791 -0.3093 -0.3405
  699MOL0     C94258  10.372   4.752   2.336 -0.5514  0.3070 -0.4682
  699MOL0     C94259  10.389   4.602   2.333  0.3059 -1.2047  0.1723
  699MOL0     O94260  10.517   4.545   2.355  0.3455  0.0612  0.2458
  699MOL0     C94261  10.550   4.415   2.362  0.5392  0.7975  1.4218
  699MOL0     C94262  10.466   4.313   2.315  0.6179  0.4371  0.0481
  699MOL0     C94263  10.491   4.181   2.350 -0.0173  0.2153 -0.3418
  699MOL0     C94264  10.606   4.154   2.417  0.2649  0.6035 -0.3217
  699MOL0     O94265  10.615   4.029   2.460 -0.3108 -0.8222  0.5435
  699MOL0     C94266  10.736   3.959   2.437 -0.7782 -0.5301 -0.0408
  699MOL0     C94267  10.698   3.818   2.407 -0.0394  0.4320  0.3370
  699MOL0     C94268  10.661   3.731   2.529  0.4709  0.0267  0.5720
  699MOL0     C94269  10.537   3.649   2.483  0.3908 -0.2615  0.5995
  699MOL0     C94270  10.515   3.561   2.364 -0.4811  1.0986  0.0765
  699MOL0     C94271  10.628   3.464   2.323  0.7644 -0.0449  0.2784
  699MOL0     C94272  10.686   3.367   2.426 -0.0808  0.3406  0.2970
  699MOL0     C94273  10.568   3.269   2.466 -0.3465  0.1367 -0.5955
  699MOL0    Cl94274  10.645   3.104   2.479  0.3582 -0.1862  0.2295
  699MOL0     C94275  10.699   4.254   2.462 -0.3839  1.0133 -0.3272
  699MOL0     C94276  10.668   4.382   2.432 -0.0847  0.3643  0.0661
  699MOL0     O94277  10.286   4.540   2.320  0.4369 -0.4612  0.4372
  699MOL0     C94278  10.478   4.834   2.354  0.2908 -0.2466  0.5185
  699MOL0     C94279  10.452   4.968   2.385  0.0608 -0.0310  0.2784
  699MOL0     N94280  10.630   5.653   2.193 -0.3230  0.6074 -0.2642
  699MOL0     N94281  10.713   5.732   2.252 -0.4407  0.0757  0.1677
  699MOL0     C94282  11.411   6.592   2.722 -0.3052  0.6439 -0.4856
  699MOL0     C94283  11.511   6.670   2.773 -0.2775 -0.5426 -0.2033
  699MOL0     C94284  11.709   7.010   3.010  0.1584  0.4547 -0.5304
  699MOL0     C94285  11.828   7.024   2.944  0.3206 -0.8584  0.6353
  699MOL0     C94286  11.939   7.104   2.989 -0.1813  0.1055  0.0338
  699MOL0     C94287  11.926   7.174   3.106  0.2060  0.1749 -0.4334
  699MOL0     O94288  12.016   7.270   3.131 -0.6547 -0.9828  0.4227
  699MOL0     C94289  11.977   7.382   3.209  0.0940 -0.5838 -1.1581
  699MOL0     C94290  12.067   7.496   3.180  0.0929  0.3962  0.0899
  699MOL0     C94291  12.046   7.557   3.042  0.0882  0.4109  0.2004
  699MOL0     C94292  12.124   7.687   3.036  0.6998 -0.0632 -0.3749
  699MOL0     C94293  12.107   7.743   2.907 -0.5318  0.4582 -0.7396
  699MOL0     C94294  12.095   7.801   2.805 -0.2495 -0.8702  0.4123
  699MOL0     C94295  11.806   7.157   3.185  0.3124 -0.2067 -0.0385
  699MOL0     C94296  11.701   7.076   3.137 -1.3946 -0.7357 -0.2858
  699MOL0     C94297  11.587   7.062   3.238  0.6820  0.5639  0.5567
  699MOL0     H94298  11.406   6.977   2.720  2.9766  0.9236 -1.6056
  699MOL0     H94299  11.228   6.841   2.592  0.4546 -1.5325 -0.6267
  699MOL0     H94300  11.228   6.397   2.665 -1.6520 -0.0351  1.7866
  699MOL0     H94301  11.066   6.473   2.687 -0.9674  2.1080 -1.3669
  699MOL0     H94302  11.207   6.461   2.412 -0.6437 -0.0048 -1.4226
  699MOL0     H94303  11.035   6.499   2.440  1.0864 -1.7369 -4.8122
  699MOL0     H94304  11.210   6.253   2.457 -1.0304 -2.5006 -2.6993
  699MOL0     H94305  11.080   6.279   2.347 -1.7228 -1.1762  1.2662
  699MOL0     H94306  11.063   6.218   2.644  2.0568 -1.2872 -0.5708
  699MOL0     H94307  10.918   6.265   2.555 -0.1767  1.0444 -0.6767
  699MOL0     H94308  10.987   6.055   2.403  0.7863 -2.7166 -0.5861
  699MOL0     H94309  11.093   6.004   2.517  0.5408  0.7876 -4.0706
  699MOL0     H94310  10.905   6.001   2.704 -0.5514  1.2139 -0.0857
  699MOL0     H94311  10.793   6.059   2.585  0.1948  0.0178  3.8383
  699MOL0     H94312  10.842   5.786   2.637 -2.6248 -0.8799 -0.3358
  699MOL0     H94313  10.928   5.819   2.488  0.8026 -1.4545  1.0987
  699MOL0     H94314  10.643   5.829   2.560 -1.8740 -0.8464 -0.9837
  699MOL0     H94315  10.682   5.938   2.429 -0.9008 -1.0172 -0.8874
  699MOL0     H94316  10.541   5.620   2.505 -0.2431 -1.4981 -0.3975
  699MOL0     H94317  10.377   5.558   2.191  0.9099  1.2576  0.2973
  699MOL0     H94318  10.496   5.426   2.179  1.1080  1.9107  0.6328
  699MOL0     H94319  10.342   5.468   2.444  1.1108  1.9576 -1.2464
  699MOL0     H94320  10.304   5.355   2.310  0.5868  1.0332 -1.3654
  699MOL0     H94321  10.555   5.363   2.484 -2.8230  2.0655  0.8016
  699MOL0     H94322  10.548   5.268   2.349 -0.1836 -0.0333 -1.0772
  699MOL0     H94323  10.359   5.285   2.579  1.5574 -1.3185  0.9602
  699MOL0     H94324  10.472   5.154   2.570 -0.9192 -0.0379  2.2376
  699MOL0     H94325  10.122   4.995   2.356 -1.5626 -3.0014  3.1878
  699MOL0     H94326  10.154   4.753   2.308 -0.5429  1.4552 -3.1129
  699MOL0     H94327  10.374   4.343   2.265  0.2789  2.2803  1.6568
  699MOL0     H94328  10.436   4.097   2.308 -2.4785 -0.1490  3.1348
  699MOL0     H94329  10.794   4.010   2.360  1.1087 -1.3165  0.8103
  699MOL0     H94330  10.793   3.955   2.530  1.3022 -2.0755 -1.3042
  699MOL0     H94331  10.616   3.821   2.335  0.6424  0.1291 -0.4648
  699MOL0     H94332  10.778   3.771   2.350  0.2389 -2.3515  2.7650
  699MOL0     H94333  10.742   3.665   2.560 -1.7505 -2.2087  1.9892
  699MOL0     H94334  10.628   3.792   2.614  3.7414 -1.2139  2.9295
  699MOL0     H94335  10.456   3.722   2.469  0.0727 -0.7414 -0.0750
  699MOL0     H94336  10.512   3.590   2.572 -0.1968  0.1278  0.7031
  699MOL0     H94337  10.478   3.626   2.285  0.4602  0.9845 -0.4700
  699MOL0     H94338  10.430   3.497   2.391 -0.3530  0.5093 -0.8651
  699MOL0     H94339  10.589   3.408   2.237  1.5664  1.2817 -1.0194
  699MOL0     H94340  10.715   3.522   2.289 -0.0021  1.1239  0.2503
  699MOL0     H94341  10.727   3.417   2.515  2.5702 -0.6477 -0.2932
  699MOL0     H94342  10.770   3.311   2.384  1.0173  1.8591  0.3509
  699MOL0     H94343  10.501   3.291   2.549  0.0605  2.0068 -0.7286
  699MOL0     H94344  10.505   3.263   2.376  0.2129 -0.2026 -0.9733
  699MOL0     H94345  10.789   4.220   2.513 -1.0153 -0.0116  0.1386
  699MOL0     H94346  10.743   4.451   2.467  2.8351 -2.7325  0.3806
  699MOL0     H94347  10.582   4.803   2.341  0.9999  1.9110  0.6433
  699MOL0     H94348  10.541   5.017   2.422  1.2698 -3.3136  2.0727
  699MOL0     H94349  11.414   6.484   2.731 -2.1796  0.3191 -2.9185
  699MOL0     H94350  11.600   6.633   2.823  1.6262  1.9004 -1.5984
  699MOL0     H94351  11.830   6.979   2.845  0.4495  2.4826 -1.0245
  699MOL0     H94352  12.029   7.100   2.929  0.0973 -1.9727  0.5153
  699MOL0     H94353  11.974   7.350   3.314  0.7679 -1.1593 -1.3017
  699MOL0     H94354  11.872   7.410   3.208  0.1163 -0.2816  0.7413
  699MOL0     H94355  12.172   7.472   3.198  0.2192  1.5659  1.0276
  699MOL0     H94356  12.054   7.568   3.261  0.8757  2.2730 -1.3813
  699MOL0     H94357  11.945   7.587   3.012  0.3035 -0.0456 -1.0692
  699MOL0     H94358  12.057   7.482   2.963 -3.2283  2.6366 -2.6958
  699MOL0     H94359  12.104   7.752   3.122  1.2410 -1.0934  0.5450
  699MOL0     H94360  12.231   7.668   3.043  0.4996 -0.8310  0.7577
  699MOL0     H94361  12.086   7.858   2.714  2.0932  0.8367  1.1471
  699MOL0     H94362  11.805   7.199   3.285  0.9210 -2.4747  0.9955
  699MOL0     H94363  11.621   7.111   3.330  5.7630  0.1323 -0.8197
  699MOL0     H94364  11.493   7.115   3.216  1.1493  1.6867  1.1951
  699MOL0     H94365  11.576   6.953   3.248 -0.6921  0.5163 -0.9315
  700MOL0     O94366   4.864   7.418   8.744  0.7055  0.0669  1.4133
  700MOL0     C94367   4.786   7.418   8.652 -0.3687 -0.1897  0.2000
  700MOL0     O94368   4.683   7.515   8.639 -0.0591 -0.4553  0.5556
  700MOL0     C94369   4.659   7.616   8.732  0.1993  0.0943  0.4041
  700MOL0     C94370   4.643   7.587   8.865 -0.2467 -0.4967  0.2708
  700MOL0     C94371   4.607   7.677   8.965  0.5509 -0.2170 -0.2027
  700MOL0     C94372   4.590   7.813   8.928  0.1075  0.8308 -0.8408
  700MOL0     O94373   4.558   7.912   9.020 -0.6685  0.5081 -0.7269
  700MOL0     C94374   4.462   7.863   9.118  0.3715 -0.1836  0.7211
  700MOL0     C94375   4.384   7.979   9.181 -0.6004  0.3516 -0.6581
  700MOL0     C94376   4.294   8.056   9.092 -0.1755  0.5622  0.4147
  700MOL0     C94377   4.243   8.182   9.158  0.4739 -0.8641  0.6126
  700MOL0     C94378   4.161   8.278   9.065 -0.9600  0.5455 -0.3547
  700MOL0     C94379   4.140   8.410   9.136  0.2497 -0.1921  0.1363
  700MOL0     C94380   4.062   8.519   9.052 -0.4350 -0.5726  1.5162
  700MOL0     C94381   4.146   8.594   8.949 -0.8093  0.0743 -0.4325
  700MOL0     N94382   4.228   8.694   9.016  0.5040  0.3826  0.0935
  700MOL0     C94383   4.193   8.825   9.036 -0.5331 -0.9718  0.3567
  700MOL0     C94384   4.315   8.879   9.067  0.6627  0.1385 -0.6010
  700MOL0     C94385   4.361   9.021   9.056 -0.0982  0.3783 -0.0302
  700MOL0     C94386   4.355   9.089   9.189 -0.7534 -0.3919 -0.3632
  700MOL0     C94387   4.452   9.212   9.170  0.5119 -0.6213  0.7453
  700MOL0     C94388   4.463   9.288   9.305  0.2719 -0.5124 -0.4435
  700MOL0     O94389   4.594   9.349   9.335  0.4163 -0.1264  0.1904
  700MOL0     C94390   4.690   9.268   9.396  0.3555  0.9587  0.0428
  700MOL0     C94391   4.684   9.129   9.386 -0.2293 -0.7158 -0.2400
  700MOL0     C94392   4.796   9.059   9.422 -0.2484  1.4622  0.8381
  700MOL0     C94393   4.900   9.118   9.490  1.1356  0.0048 -0.9976
  700MOL0     C94394   5.031   9.047   9.528 -0.4317  0.1688  0.4608
  700MOL0     O94395   5.046   8.924   9.477 -0.0252 -0.5747 -0.2082
  700MOL0     C94396   5.167   8.874   9.459  0.1819  0.1020 -0.6998
  700MOL0     C94397   5.175   8.735   9.476 -0.4597 -0.6712 -0.1057
  700MOL0     C94398   5.294   8.671   9.452  0.3763  0.3474 -0.1006
  700MOL0     C94399   5.400   8.733   9.393  0.9693  0.0352 -0.3719
  700MOL0     O94400   5.510   8.678   9.347 -0.0389  0.0968 -0.3448
  700MOL0     C94401   5.546   8.544   9.372 -0.0249  1.3905 -0.8586
  700MOL0     C94402   5.691   8.517   9.349  0.8491  0.0120  0.1130
  700MOL0     C94403   5.786   8.602   9.442 -0.5015 -0.3135 -0.5846
  700MOL0     C94404   5.836   8.726   9.366  0.1610 -0.1022  0.3112
  700MOL0     C94405   5.972   8.767   9.427 -0.8964  0.0653 -0.0218
  700MOL0     C94406   6.027   8.904   9.359 -0.3611  0.4001  1.2038
  700MOL0     C94407   5.939   9.021   9.380  0.0922 -0.9387 -0.0874
  700MOL0     C94408   6.000   9.165   9.348 -1.1820 -0.4326  0.1979
  700MOL0    Cl94409   5.851   9.262   9.325  0.0139 -0.1192 -0.1231
  700MOL0     C94410   5.392   8.871   9.375  0.0587  0.5697  0.1166
  700MOL0     C94411   5.276   8.942   9.406 -0.6059 -0.4749 -0.1903
  700MOL0     O94412   5.125   9.109   9.583 -0.8185 -0.0995 -0.6535
  700MOL0     C94413   4.895   9.255   9.507 -0.0303 -1.1242  0.1241
  700MOL0     C94414   4.791   9.335   9.469 -0.0921 -0.0018 -0.1360
  700MOL0     N94415   4.400   8.780   9.098  0.3501  0.7230  0.3618
  700MOL0     N94416   4.351   8.666   9.062  0.3705  0.5058  1.0999
  700MOL0     C94417   4.604   7.842   8.788 -0.5463 -0.3796 -0.3647
  700MOL0     C94418   4.641   7.745   8.694 -1.3529  0.9233 -1.4148
  700MOL0     C94419   4.810   7.310   8.552 -0.6324 -0.5442  0.1849
  700MOL0     C94420   4.720   7.309   8.446  0.6039 -1.1659  0.7603
  700MOL0     C94421   4.720   7.217   8.345 -0.3402  0.1790  1.5023
  700MOL0     C94422   4.811   7.110   8.350 -0.5186 -0.2548 -0.5149
  700MOL0     O94423   4.829   7.011   8.260 -0.5145 -0.3782  0.4360
  700MOL0     C94424   4.719   6.991   8.176  0.0508  0.1932 -0.4484
  700MOL0     C94425   4.597   6.948   8.247 -0.4408 -0.9760  0.3507
  700MOL0     C94426   4.477   6.906   8.147 -0.2173 -0.2933 -1.3966
  700MOL0     C94427   4.491   6.956   8.002 -0.8016 -1.1170  0.0793
  700MOL0     C94428   4.364   6.932   7.934 -0.5868 -0.0814 -0.3648
  700MOL0     C94429   4.257   6.926   7.881  0.2817  0.2831 -0.2103
  700MOL0     C94430   4.904   7.111   8.462 -0.0788 -0.7534  1.2981
  700MOL0     C94431   4.898   7.207   8.564 -0.1466  0.3765 -0.3195
  700MOL0     C94432   5.012   7.196   8.667  0.2519  0.1796 -0.7040
  700MOL0     H94433   4.672   7.487   8.898  0.7852 -1.2296 -2.5967
  700MOL0     H94434   4.583   7.639   9.064 -4.5933 -2.5710 -1.9913
  700MOL0     H94435   4.395   7.785   9.080  1.8576 -1.2145  0.0997
  700MOL0     H94436   4.515   7.806   9.195  0.2661 -2.2039 -0.6014
  700MOL0     H94437   4.457   8.042   9.231 -3.2578  4.1136 -1.0789
  700MOL0     H94438   4.326   7.927   9.258  0.7636  2.4395  1.9446
  700MOL0     H94439   4.209   7.993   9.063  0.5635 -1.5414  2.5005
  700MOL0     H94440   4.345   8.089   9.001  1.1309  1.1049  1.3174
  700MOL0     H94441   4.179   8.161   9.244  2.4008  0.5875  2.5235
  700MOL0     H94442   4.333   8.239   9.182  1.9170 -2.8465  0.2123
  700MOL0     H94443   4.221   8.303   8.977  0.9677  0.7934  0.9708
  700MOL0     H94444   4.064   8.231   9.043 -0.7457 -0.8549  1.4383
  700MOL0     H94445   4.102   8.413   9.239  4.1582 -1.3436  1.7976
  700MOL0     H94446   4.236   8.457   9.162  1.2632 -2.3891  0.5406
  700MOL0     H94447   4.029   8.600   9.118  0.4719  1.7714 -0.7523
  700MOL0     H94448   3.983   8.464   9.000  1.0255 -1.1452 -0.1916
  700MOL0     H94449   4.211   8.534   8.885 -1.1253  0.0907 -0.7707
  700MOL0     H94450   4.070   8.642   8.887 -1.0880 -0.6409 -0.6565
  700MOL0     H94451   4.109   8.885   9.002 -2.0702 -3.5937 -0.8111
  700MOL0     H94452   4.469   9.017   9.039  0.3671  0.7893  2.4840
  700MOL0     H94453   4.304   9.062   8.972 -0.7431  1.5822  0.9596
  700MOL0     H94454   4.249   9.114   9.198 -0.9575 -1.0177 -0.8983
  700MOL0     H94455   4.381   9.030   9.277  1.2380 -0.6892 -1.0863
  700MOL0     H94456   4.421   9.281   9.091 -2.1203 -0.3208  1.9487
  700MOL0     H94457   4.551   9.174   9.142 -0.1460 -1.2746 -0.8078
  700MOL0     H94458   4.440   9.223   9.390 -0.0883 -0.3378 -0.4075
  700MOL0     H94459   4.386   9.361   9.332 -0.5179 -1.8240  1.0317
  700MOL0     H94460   4.604   9.080   9.331 -1.2045  1.2207 -0.6233
  700MOL0     H94461   4.808   8.952   9.411 -1.3945  1.0541  3.0402
  700MOL0     H94462   5.082   8.687   9.504  0.2730 -1.3676  1.2343
  700MOL0     H94463   5.289   8.564   9.466 -0.4082  0.5331  1.2390
  700MOL0     H94464   5.528   8.505   9.473 -1.2221 -0.5221 -1.7549
  700MOL0     H94465   5.475   8.492   9.308 -2.1157  2.5662  0.3661
  700MOL0     H94466   5.720   8.412   9.357 -2.0671 -1.2990 -3.4491
  700MOL0     H94467   5.727   8.540   9.248  1.8889 -2.2302 -0.0728
  700MOL0     H94468   5.735   8.647   9.528  2.2206  2.0161 -0.0482
  700MOL0     H94469   5.871   8.542   9.475 -1.7120 -1.4355  0.6114
  700MOL0     H94470   5.761   8.806   9.371 -0.5562 -0.7519  0.0883
  700MOL0     H94471   5.856   8.700   9.262 -1.3548  1.3271 -0.3771
  700MOL0     H94472   6.044   8.688   9.408 -0.6799 -0.2899  2.0227
  700MOL0     H94473   5.982   8.792   9.533  0.9877  0.4113 -0.2424
  700MOL0     H94474   6.134   8.923   9.376 -0.9110  4.2665  1.1989
  700MOL0     H94475   6.023   8.883   9.252 -1.6103 -0.8722  1.4635
  700MOL0     H94476   5.905   9.025   9.484 -0.1796  2.1119 -0.2038
  700MOL0     H94477   5.851   8.999   9.319  1.1158 -0.3388 -1.8658
  700MOL0     H94478   6.070   9.200   9.424  1.8791 -4.5215 -0.3977
  700MOL0     H94479   6.054   9.159   9.253  0.8294  1.8089  1.1022
  700MOL0     H94480   5.462   8.933   9.320 -1.2068 -0.6599 -3.1156
  700MOL0     H94481   5.272   9.049   9.389  5.4327 -0.0612 -1.5188
  700MOL0     H94482   4.984   9.293   9.556 -1.3920 -0.9680  2.6829
  700MOL0     H94483   4.781   9.443   9.474 -0.8914 -0.1127  2.7512
  700MOL0     H94484   4.582   7.945   8.759 -1.1583  0.3411  2.3364
  700MOL0     H94485   4.663   7.766   8.590  1.4749 -2.3100 -1.6259
  700MOL0     H94486   4.636   7.378   8.441  1.8934  0.3645 -2.2179
  700MOL0     H94487   4.659   7.235   8.257  0.3752  2.7047  1.4549
  700MOL0     H94488   4.740   6.901   8.116 -4.7984 -2.5335  1.4175
  700MOL0     H94489   4.704   7.077   8.109  0.4880 -0.8747 -1.9806
  700MOL0     H94490   4.557   7.038   8.294  1.9399  1.4439 -1.8894
  700MOL0     H94491   4.621   6.873   8.323 -1.5686  1.8537  3.8211
  700MOL0     H94492   4.378   6.939   8.179 -0.6711  3.2386 -5.5168
  700MOL0     H94493   4.465   6.798   8.136 -1.2440 -0.5243  1.2955
  700MOL0     H94494   4.511   7.064   8.000 -0.1211 -1.2473 -0.1530
  700MOL0     H94495   4.572   6.903   7.953 -0.1041  0.3599 -0.4153
  700MOL0     H94496   4.159   6.904   7.844 -0.2221 -1.9734  2.1715
  700MOL0     H94497   4.965   7.021   8.464  0.1132 -0.6189  1.6011
  700MOL0     H94498   5.070   7.104   8.653  1.7757  1.0774 -0.6096
  700MOL0     H94499   5.082   7.279   8.649  1.1183 -0.5586 -0.8039
  700MOL0     H94500   4.960   7.197   8.763 -0.3967  2.1533 -1.0330
  701MOL0     O94501   2.886  10.673   8.583  0.3874  0.0463  0.3949
  701MOL0     C94502   2.887  10.607   8.688  0.1206  0.4908  0.5638
  701MOL0     O94503   2.782  10.539   8.750  0.6244 -0.2706 -0.0415
  701MOL0     C94504   2.665  10.555   8.675  0.2403  0.2888  0.0944
  701MOL0     C94505   2.625  10.472   8.568  0.1168 -0.0471  0.5300
  701MOL0     C94506   2.500  10.500   8.508 -0.8731  0.7270 -0.0892
  701MOL0     C94507   2.422  10.599   8.544  0.8108  0.1577  0.3540
  701MOL0     O94508   2.308  10.602   8.465 -0.5296  0.5039 -0.3547
  701MOL0     C94509   2.206  10.706   8.487 -0.4261  0.0682  0.2443
  701MOL0     C94510   2.074  10.679   8.411 -0.3631 -0.1310  0.1340
  701MOL0     C94511   1.952  10.776   8.423 -0.6345  0.0013  0.5105
  701MOL0     C94512   1.832  10.692   8.440  0.6894  0.2223 -0.0904
  701MOL0     C94513   1.714  10.773   8.494  0.6274 -0.5252 -1.4964
  701MOL0     C94514   1.583  10.682   8.509  0.4743  0.0151 -0.3393
  701MOL0     C94515   1.591  10.576   8.622  0.6542  0.1001 -0.2305
  701MOL0     C94516   1.519  10.448   8.585  0.3429  0.2053  0.0451
  701MOL0     N94517   1.586  10.374   8.481  0.1116  0.1550  0.5244
  701MOL0     C94518   1.550  10.383   8.343 -0.1023 -0.3150  0.1247
  701MOL0     C94519   1.643  10.310   8.280  0.6874  0.4542 -0.2974
  701MOL0     C94520   1.644  10.283   8.134  0.5909 -0.3240  0.6828
  701MOL0     C94521   1.540  10.170   8.086  0.2679 -0.9013  0.2556
  701MOL0     C94522   1.542  10.137   7.941 -0.5130  0.1600  0.1901
  701MOL0     C94523   1.418  10.047   7.903  0.9749  0.4411  0.6237
  701MOL0     O94524   1.402  10.038   7.755  0.5076 -0.3499 -0.2125
  701MOL0     C94525   1.477   9.946   7.687  0.2842 -0.4970  0.0572
  701MOL0     C94526   1.554   9.842   7.741  0.0758 -0.6332 -0.3226
  701MOL0     C94527   1.639   9.768   7.657  0.5180  0.2181  0.1802
  701MOL0     C94528   1.641   9.793   7.520 -0.5314  0.1666  0.0601
  701MOL0     C94529   1.733   9.721   7.427 -0.6305 -0.3847  0.2498
  701MOL0     O94530   1.724   9.748   7.289  0.7873 -0.4863 -0.3254
  701MOL0     C94531   1.803   9.679   7.206 -0.4848  0.3026  0.0831
  701MOL0     C94532   1.948   9.673   7.225 -0.1141  0.7829  0.5862
  701MOL0     C94533   2.030   9.595   7.136  0.3230 -1.1318 -0.3840
  701MOL0     C94534   1.972   9.540   7.022 -0.5643  0.3759  0.4048
  701MOL0     O94535   2.046   9.470   6.932 -0.6834  0.2273 -0.3205
  701MOL0     C94536   2.055   9.336   6.964  0.6857 -0.3451 -0.6035
  701MOL0     C94537   2.207   9.303   6.985  0.1512  0.7438  0.0765
  701MOL0     C94538   2.234   9.150   6.992  0.8721 -0.3518 -0.8575
  701MOL0     C94539   2.373   9.119   7.055 -0.6898  0.3267 -0.0144
  701MOL0     C94540   2.412   8.962   7.049  0.9428 -0.8706  0.2721
  701MOL0     C94541   2.477   8.913   6.924 -0.2744  0.2219  1.2117
  701MOL0     C94542   2.491   8.758   6.932 -0.5482 -0.5142 -0.8089
  701MOL0     C94543   2.582   8.718   7.052  0.2695  0.2594 -1.0495
  701MOL0    Cl94544   2.742   8.801   7.050  0.0271  0.0732  0.1349
  701MOL0     C94545   1.837   9.563   6.997  0.1988 -0.3544  0.0847
  701MOL0     C94546   1.751   9.628   7.081  0.0841  0.6168 -0.4052
  701MOL0     O94547   1.822   9.650   7.473  0.2310 -0.5163  0.5479
  701MOL0     C94548   1.545   9.877   7.466  0.6541  0.4812  0.0838
  701MOL0     C94549   1.466   9.959   7.551 -0.0660  0.3496  0.7065
  701MOL0     N94550   1.728  10.264   8.373  0.7185 -0.5236 -0.8811
  701MOL0     N94551   1.689  10.288   8.492  0.2099  0.7231 -0.2807
  701MOL0     C94552   2.460  10.687   8.649 -0.3762  0.4013 -0.3940
  701MOL0     C94553   2.581  10.662   8.713  0.4664 -0.9193 -0.2359
  701MOL0     C94554   3.021  10.591   8.759 -0.4730 -0.4819  0.3692
  701MOL0     C94555   3.029  10.509   8.871 -0.0176  0.3004 -0.1959
  701MOL0     C94556   3.153  10.483   8.939 -0.1072  0.0357  0.0290
  701MOL0     C94557   3.269  10.560   8.909 -0.5436 -0.6511 -0.0159
  701MOL0     O94558   3.383  10.550   8.982  0.5176 -0.8618  1.1436
  701MOL0     C94559   3.376  10.566   9.127  1.1589  0.0200 -0.0615
  701MOL0     C94560   3.338  10.713   9.161  0.4364  0.0652 -0.5254
  701MOL0     C94561   3.436  10.834   9.125  0.6362 -0.1487  0.8534
  701MOL0     C94562   3.490  10.876   9.262 -0.1187  0.3117  0.1641
  701MOL0     C94563   3.553  10.767   9.340 -0.1098  0.6110  0.2265
  701MOL0     C94564   3.602  10.675   9.413 -0.3743 -0.5465  0.2295
  701MOL0     C94565   3.263  10.633   8.786  0.1940  0.1703 -0.3960
  701MOL0     C94566   3.147  10.654   8.711 -0.3962  0.1823 -1.0930
  701MOL0     C94567   3.162  10.744   8.587  0.2273  0.3448 -0.5446
  701MOL0     H94568   2.685  10.390   8.530  0.2969 -0.0018  0.7179
  701MOL0     H94569   2.457  10.422   8.445  0.0428 -0.6034  0.8794
  701MOL0     H94570   2.180  10.710   8.593 -2.4870  0.0183 -0.2102
  701MOL0     H94571   2.244  10.803   8.453  3.2691 -1.3549 -0.1470
  701MOL0     H94572   2.047  10.575   8.431  0.2497 -0.0222  1.6355
  701MOL0     H94573   2.098  10.685   8.304 -1.7456  2.0198 -0.1372
  701MOL0     H94574   1.941  10.835   8.332  0.5345  1.7103  1.4293
  701MOL0     H94575   1.969  10.843   8.508  3.6360  0.1467 -0.2185
  701MOL0     H94576   1.811  10.647   8.343  1.4948 -1.6772  0.5653
  701MOL0     H94577   1.836  10.615   8.518  1.6244  1.6752  1.3670
  701MOL0     H94578   1.746  10.808   8.592  1.8714 -0.9964 -1.7205
  701MOL0     H94579   1.702  10.860   8.430  1.1391  0.1038 -0.7471
  701MOL0     H94580   1.499  10.746   8.539  1.0721  0.8788 -0.4632
  701MOL0     H94581   1.580  10.643   8.408 -1.5410  2.2709 -1.2507
  701MOL0     H94582   1.558  10.619   8.718 -2.1168 -0.0506 -1.0417
  701MOL0     H94583   1.695  10.545   8.640  1.5058  1.1805 -2.8143
  701MOL0     H94584   1.515  10.390   8.678 -0.3653 -0.9638 -0.6877
  701MOL0     H94585   1.413  10.457   8.560  0.1754 -0.5168  0.4649
  701MOL0     H94586   1.469  10.437   8.296 -0.2623 -0.6342  0.0263
  701MOL0     H94587   1.630  10.378   8.082  0.6206  1.0602  3.0340
  701MOL0     H94588   1.738  10.240   8.099 -0.9969 -1.4403 -2.6452
  701MOL0     H94589   1.567  10.073   8.128 -0.5577 -3.5339 -4.5642
  701MOL0     H94590   1.439  10.183   8.127 -1.0676 -2.1787 -2.4185
  701MOL0     H94591   1.637  10.097   7.903  0.7647  5.3581 -3.2810
  701MOL0     H94592   1.523  10.233   7.891  0.3954  0.2919  0.0690
  701MOL0     H94593   1.321  10.086   7.936 -0.5224 -0.7154 -2.0647
  701MOL0     H94594   1.425   9.948   7.951  0.4696  1.5612  3.1865
  701MOL0     H94595   1.541   9.802   7.841  1.7253 -0.9348 -0.2013
  701MOL0     H94596   1.704   9.696   7.707 -1.5183 -2.6631 -1.0790
  701MOL0     H94597   2.008   9.713   7.306  0.8008  0.9924 -0.1702
  701MOL0     H94598   2.138   9.598   7.145  0.4392  1.7329 -1.5706
  701MOL0     H94599   1.996   9.308   7.053  1.3272  1.9089  0.6071
  701MOL0     H94600   2.006   9.280   6.885 -3.2789  1.5691  0.2198
  701MOL0     H94601   2.256   9.350   6.899  1.6106  1.5021  1.2716
  701MOL0     H94602   2.252   9.356   7.069  1.1894  3.9055 -2.2560
  701MOL0     H94603   2.148   9.098   7.033  0.6329 -0.5683 -1.6370
  701MOL0     H94604   2.246   9.112   6.890  1.1772  0.1160 -1.0035
  701MOL0     H94605   2.376   9.150   7.159 -1.7708  0.4150 -0.0029
  701MOL0     H94606   2.443   9.173   6.991 -0.5927 -0.9717 -1.0672
  701MOL0     H94607   2.323   8.899   7.059  0.2274 -0.4360 -2.4316
  701MOL0     H94608   2.474   8.953   7.138 -0.6657  1.6635  1.8013
  701MOL0     H94609   2.412   8.948   6.844  1.2078  2.7606  0.9852
  701MOL0     H94610   2.572   8.964   6.903 -0.2793 -0.8073 -1.7240
  701MOL0     H94611   2.544   8.730   6.841 -1.8751  0.0639 -1.7979
  701MOL0     H94612   2.391   8.713   6.931 -0.9068  0.2205  0.1783
  701MOL0     H94613   2.541   8.758   7.145  4.3863  0.1320  1.0450
  701MOL0     H94614   2.588   8.610   7.063  1.6224  0.4764  0.6669
  701MOL0     H94615   1.780   9.518   6.915 -1.0815 -1.9784  1.7792
  701MOL0     H94616   1.649   9.662   7.069 -0.1254  0.2594  0.3212
  701MOL0     H94617   1.544   9.905   7.361 -0.8131  0.5358  0.0932
  701MOL0     H94618   1.403  10.032   7.501 -0.2004  1.8701  2.9315
  701MOL0     H94619   2.386  10.754   8.691  2.1283  1.3373  2.9635
  701MOL0     H94620   2.598  10.718   8.804 -0.6886  3.1583 -2.3077
  701MOL0     H94621   2.939  10.456   8.900 -0.6795  1.9262  0.8377
  701MOL0     H94622   3.157  10.421   9.028 -0.6947 -0.9951 -0.6418
  701MOL0     H94623   3.471  10.542   9.174  1.4853  0.4527 -0.4915
  701MOL0     H94624   3.305  10.487   9.153  4.2217 -2.9435 -0.0872
  701MOL0     H94625   3.292  10.721   9.260  1.6970 -0.7466  0.1405
  701MOL0     H94626   3.245  10.732   9.106  0.2025  0.2703 -0.0661
  701MOL0     H94627   3.384  10.918   9.079 -0.8593 -1.2418  0.4504
  701MOL0     H94628   3.512  10.794   9.057  1.5638  2.2426  0.3997
  701MOL0     H94629   3.562  10.953   9.233 -0.5379  0.7959  0.3883
  701MOL0     H94630   3.416  10.927   9.324 -0.4151  0.8497 -0.6109
  701MOL0     H94631   3.631  10.597   9.480 -0.0975  2.0869  3.4901
  701MOL0     H94632   3.341  10.705   8.760 -0.2460  0.9654  0.4180
  701MOL0     H94633   3.068  10.786   8.550  1.1769 -0.1216 -3.8803
  701MOL0     H94634   3.232  10.824   8.611 -0.3348  0.2550  1.5498
  701MOL0     H94635   3.193  10.695   8.493 -0.7494 -0.9955 -0.2073
  702MOL0     O94636   0.329   3.276   7.401  0.1632 -1.0470 -0.5038
  702MOL0     C94637   0.404   3.227   7.484 -0.7005 -0.6415  0.8402
  702MOL0     O94638   0.549   3.254   7.491  0.1188 -0.0428 -0.0821
  702MOL0     C94639   0.590   3.345   7.397  0.4345 -0.9752 -0.7763
  702MOL0     C94640   0.527   3.478   7.392 -1.3345  0.2875 -0.6254
  702MOL0     C94641   0.590   3.568   7.310 -0.7226  0.0649  0.4576
  702MOL0     C94642   0.697   3.544   7.227  0.0646 -0.0096  0.2467
  702MOL0     O94643   0.751   3.635   7.146 -0.0475  0.9330  0.0560
  702MOL0     C94644   0.787   3.763   7.202  0.3913  0.1353  0.5812
  702MOL0     C94645   0.736   3.873   7.104 -0.3702 -0.8346 -0.1673
  702MOL0     C94646   0.720   4.013   7.163  1.0717  0.5410 -0.3800
  702MOL0     C94647   0.683   4.118   7.063  0.1296 -1.8163  0.8890
  702MOL0     C94648   0.644   4.256   7.120  0.1464  0.1010 -0.0780
  702MOL0     C94649   0.513   4.250   7.203  0.5134  1.6688 -0.7472
  702MOL0     C94650   0.431   4.380   7.186  0.1627 -0.3392 -0.4552
  702MOL0     C94651   0.500   4.501   7.254  0.0715 -0.5363 -1.1631
  702MOL0     N94652   0.413   4.615   7.266  0.2364  0.3132  1.0764
  702MOL0     C94653   0.419   4.714   7.173  0.6675  0.4710 -0.4705
  702MOL0     C94654   0.297   4.778   7.191  0.3022 -0.9330  0.0009
  702MOL0     C94655   0.239   4.905   7.140 -0.6582  0.1006  0.0289
  702MOL0     C94656   0.275   5.021   7.226 -0.7806  0.0743 -0.4164
  702MOL0     C94657   0.263   5.152   7.145  0.0720 -0.8081  0.6158
  702MOL0     C94658   0.120   5.208   7.133 -0.7944 -0.7835 -0.4889
  702MOL0     O94659   0.056   5.254   7.253 -0.7297 -0.0917 -0.2861
  702MOL0     C94660   0.074   5.386   7.286  0.2531 -0.6702 -0.3055
  702MOL0     C94661  -0.006   5.435   7.392  0.4694 -0.1190 -0.4680
  702MOL0     C94662  -0.023   5.576   7.416 -0.6265 -1.4855  0.6752
  702MOL0     C94663   0.047   5.671   7.331  0.1620 -0.1236 -0.6482
  702MOL0     C94664   0.025   5.817   7.351  0.7904  0.6662 -0.4249
  702MOL0     O94665   0.125   5.903   7.300  0.0314 -0.0224 -0.2508
  702MOL0     C94666   0.111   6.034   7.286 -0.7028  0.3327  0.0058
  702MOL0     C94667   0.203   6.101   7.207 -0.8959 -0.6101  0.1463
  702MOL0     C94668   0.209   6.243   7.195  1.0823  0.2765 -0.1692
  702MOL0     C94669   0.110   6.322   7.257 -0.4554  0.8579 -0.5639
  702MOL0     O94670   0.114   6.453   7.248 -0.1240  0.1948  0.0676
  702MOL0     C94671   0.020   6.491   7.159 -0.0970  0.1592  0.1171
  702MOL0     C94672   0.015   6.636   7.138  0.4609  0.3799 -0.3872
  702MOL0     C94673   0.126   6.693   7.050  0.7969 -0.3922  0.3037
  702MOL0     C94674   0.113   6.850   7.035 -0.7815  0.2596  1.1839
  702MOL0     C94675   0.010   6.885   6.919 -0.4242  0.3073 -0.7669
  702MOL0     C94676   0.010   7.040   6.907 -0.2856  0.3017 -0.8073
  702MOL0     C94677  -0.062   7.055   6.769 -0.1450  0.9081  0.2315
  702MOL0     C94678  -0.098   7.200   6.738 -0.5629  0.8908 -0.8832
  702MOL0    Cl94679  -0.248   7.245   6.828  0.2472  0.1009 -0.0245
  702MOL0     C94680   0.024   6.258   7.354 -0.7862  0.0374  1.0690
  702MOL0     C94681   0.021   6.114   7.362 -0.7060 -1.2658  1.0178
  702MOL0     O94682  -0.074   5.847   7.399  0.1312  0.6622 -0.4426
  702MOL0     C94683   0.148   5.622   7.245 -0.1223 -0.2305  0.7505
  702MOL0     C94684   0.163   5.484   7.226  0.3097 -0.9810  0.1494
  702MOL0     N94685   0.233   4.710   7.296  0.5233 -1.2020  0.6506
  702MOL0     N94686   0.307   4.625   7.346 -0.6788  0.1058  0.3079
  702MOL0     C94687   0.753   3.420   7.229  0.0424  0.5560 -0.0502
  702MOL0     C94688   0.707   3.319   7.320 -0.4004 -0.4678  0.0956
  702MOL0     C94689   0.346   3.150   7.595 -0.5085  0.2113 -0.1142
  702MOL0     C94690   0.424   3.147   7.714  0.4628  0.7685  0.0709
  702MOL0     C94691   0.376   3.078   7.827  0.9818  0.5857  0.3141
  702MOL0     C94692   0.246   3.020   7.829 -0.3601  0.6416 -0.3079
  702MOL0     O94693   0.191   2.947   7.935  0.0393 -0.2569  0.0204
  702MOL0     C94694   0.268   2.924   8.056  0.6030 -0.2048 -0.4460
  702MOL0     C94695   0.181   2.906   8.185  0.1210 -0.2474  0.6225
  702MOL0     C94696   0.089   2.796   8.157  0.0540 -0.2275 -0.4580
  702MOL0     C94697   0.028   2.726   8.274  1.2039  0.6013 -0.6615
  702MOL0     C94698  -0.032   2.823   8.363  1.3884  0.1954  0.0320
  702MOL0     C94699  -0.085   2.900   8.439 -0.0256  0.4989 -0.1243
  702MOL0     C94700   0.182   3.014   7.711  0.5712 -0.7852 -0.3754
  702MOL0     C94701   0.219   3.084   7.591 -0.0724  0.8325 -0.4579
  702MOL0     C94702   0.153   3.050   7.463 -0.7531 -0.6464 -0.1782
  702MOL0     H94703   0.443   3.513   7.451 -0.7731 -3.1471  2.6313
  702MOL0     H94704   0.552   3.670   7.310  0.4551  0.5319 -0.1908
  702MOL0     H94705   0.743   3.766   7.302 -3.5494 -2.2398 -0.8782
  702MOL0     H94706   0.896   3.772   7.206  0.8353  0.9609 -5.2140
  702MOL0     H94707   0.634   3.838   7.086 -1.4149  1.1745  1.3243
  702MOL0     H94708   0.794   3.877   7.012  0.9688  0.4288  0.6826
  702MOL0     H94709   0.809   4.040   7.220 -0.1481 -0.0977  1.9306
  702MOL0     H94710   0.641   4.004   7.239  0.9766  2.1271 -0.2490
  702MOL0     H94711   0.766   4.136   6.995 -0.0787  1.8679  1.4250
  702MOL0     H94712   0.616   4.061   6.999 -1.2113  1.3336 -0.7194
  702MOL0     H94713   0.725   4.295   7.183 -0.3240  3.3604 -1.3243
  702MOL0     H94714   0.630   4.333   7.044  2.2328  0.8384  0.2231
  702MOL0     H94715   0.447   4.167   7.177  0.5618  1.5135 -0.3713
  702MOL0     H94716   0.547   4.218   7.302 -0.3915 -1.5534 -1.3603
  702MOL0     H94717   0.337   4.362   7.240  1.3379 -3.6683  0.7159
  702MOL0     H94718   0.409   4.407   7.083  0.4412 -2.4872 -1.1352
  702MOL0     H94719   0.520   4.470   7.357  3.8231  0.3778 -1.4730
  702MOL0     H94720   0.598   4.523   7.210  0.6769  0.4264  0.5852
  702MOL0     H94721   0.490   4.722   7.092 -0.0964 -2.6312 -1.5749
  702MOL0     H94722   0.282   4.920   7.040 -3.3121 -2.4756 -1.6582
  702MOL0     H94723   0.130   4.900   7.132 -1.0705  3.0910  2.2083
  702MOL0     H94724   0.227   5.021   7.324  1.8725 -1.4900  1.0167
  702MOL0     H94725   0.382   5.018   7.250 -0.6893  2.3726 -0.3067
  702MOL0     H94726   0.308   5.139   7.046  2.1459  0.8786  1.2717
  702MOL0     H94727   0.318   5.232   7.197  0.8579 -0.5124 -0.6294
  702MOL0     H94728   0.060   5.125   7.094 -0.9229 -0.2526 -1.4817
  702MOL0     H94729   0.118   5.289   7.058 -1.9166 -0.9796 -0.6918
  702MOL0     H94730  -0.063   5.364   7.451  1.1479  2.3459  3.5185
  702MOL0     H94731  -0.091   5.623   7.486  0.9539  2.1455  0.0147
  702MOL0     H94732   0.288   6.046   7.169  2.2817  3.4831  0.5977
  702MOL0     H94733   0.291   6.290   7.143  1.2079  1.3707  0.9791
  702MOL0     H94734   0.048   6.451   7.060  2.5576  0.1985  0.7707
  702MOL0     H94735  -0.076   6.452   7.192 -0.7208  1.7804  0.2830
  702MOL0     H94736  -0.082   6.652   7.090  0.3377  0.4471 -0.1138
  702MOL0     H94737   0.018   6.695   7.230 -1.2624  1.7757 -1.1848
  702MOL0     H94738   0.221   6.661   7.096 -0.2630 -2.4088  1.2476
  702MOL0     H94739   0.127   6.646   6.951 -1.7747 -1.6049  0.7662
  702MOL0     H94740   0.212   6.876   6.996 -0.9063 -0.2848  0.4752
  702MOL0     H94741   0.096   6.916   7.121  0.3505  2.8221 -0.4277
  702MOL0     H94742  -0.091   6.854   6.944 -0.5766  0.5291 -1.1036
  702MOL0     H94743   0.042   6.828   6.832 -0.9028  0.7508 -1.2402
  702MOL0     H94744  -0.048   7.089   6.986  0.1529 -1.6354  0.8177
  702MOL0     H94745   0.109   7.084   6.892  0.7865 -1.7598 -0.1212
  702MOL0     H94746  -0.149   6.989   6.757 -0.3112  1.0407  0.6893
  702MOL0     H94747   0.008   7.020   6.693  0.7288 -3.5597  2.7043
  702MOL0     H94748  -0.016   7.269   6.763  0.5544 -0.8740  0.6040
  702MOL0     H94749  -0.124   7.218   6.634 -0.8510 -0.5822 -1.0823
  702MOL0     H94750  -0.043   6.334   7.392 -0.7609  1.1656 -1.0183
  702MOL0     H94751  -0.052   6.080   7.435 -2.3750  4.3927  2.5386
  702MOL0     H94752   0.213   5.688   7.187  0.6763  1.1948  3.1174
  702MOL0     H94753   0.233   5.446   7.152 -0.1776 -1.0345 -0.2942
  702MOL0     H94754   0.830   3.401   7.154  0.5288  1.6205  0.1678
  702MOL0     H94755   0.756   3.222   7.326 -1.3582 -1.0772 -1.3660
  702MOL0     H94756   0.521   3.196   7.714  1.5353 -1.2154 -0.6869
  702MOL0     H94757   0.436   3.091   7.916 -0.3892  2.8845  0.9795
  702MOL0     H94758   0.329   3.013   8.072 -2.8488  2.4969 -1.2919
  702MOL0     H94759   0.326   2.831   8.052 -1.7617 -1.9501  2.1459
  702MOL0     H94760   0.125   3.000   8.186  1.4390  0.5739 -0.3518
  702MOL0     H94761   0.231   2.895   8.282 -0.3943 -3.7887  0.6289
  702MOL0     H94762   0.146   2.723   8.098  1.1965  0.2357  0.0379
  702MOL0     H94763   0.013   2.835   8.089 -0.9041 -0.6571  0.3388
  702MOL0     H94764  -0.043   2.645   8.255  2.2174 -0.3021 -0.6508
  702MOL0     H94765   0.109   2.678   8.329 -0.2034 -2.7058 -1.1874
  702MOL0     H94766  -0.135   2.962   8.511 -1.7886 -0.3973 -0.5085
  702MOL0     H94767   0.094   2.951   7.711  0.4095 -0.6460  1.6729
  702MOL0     H94768   0.067   3.116   7.453  0.0853  0.6476  0.9202
  702MOL0     H94769   0.217   3.047   7.374 -1.8552 -0.3093 -1.0027
  702MOL0     H94770   0.115   2.948   7.473  0.4332 -1.0704  0.2384
  703MOL0     O94771   0.056   4.232   9.666 -0.6158  0.5036  0.2891
  703MOL0     C94772  -0.005   4.325   9.605  0.3814 -0.2875 -0.2849
  703MOL0     O94773   0.013   4.364   9.474  0.5172  0.7877  0.7122
  703MOL0     C94774   0.033   4.266   9.385 -0.3660  0.2153  0.8408
  703MOL0     C94775  -0.002   4.136   9.394 -0.8264  0.0901 -0.5550
  703MOL0     C94776   0.010   4.047   9.287 -0.1776  0.0336  0.5388
  703MOL0     C94777   0.040   4.098   9.158 -0.7073 -0.5806  0.1497
  703MOL0     O94778   0.031   4.026   9.037 -0.6057 -0.3333  0.4682
  703MOL0     C94779  -0.098   3.962   9.005  0.1339 -0.2661 -0.0653
  703MOL0     C94780  -0.107   3.893   8.875 -0.1631 -0.3144 -0.8464
  703MOL0     C94781  -0.258   3.867   8.827 -1.0412 -0.4876  0.6101
  703MOL0     C94782  -0.263   3.875   8.669 -0.9042  0.7793  0.1461
  703MOL0     C94783  -0.348   3.761   8.599  0.3924  0.0488 -0.6760
  703MOL0     C94784  -0.287   3.630   8.631  0.0900  0.7079  0.3661
  703MOL0     C94785  -0.348   3.514   8.544 -0.7026  0.4238 -0.1689
  703MOL0     C94786  -0.253   3.388   8.548 -0.9217  0.2928 -0.0974
  703MOL0     N94787  -0.316   3.264   8.524  0.5469 -0.0113 -0.2147
  703MOL0     C94788  -0.358   3.224   8.401  0.4554  0.1572  0.6912
  703MOL0     C94789  -0.448   3.127   8.433 -0.3750  0.1197  0.3391
  703MOL0     C94790  -0.522   3.042   8.337  0.2180 -1.0138  0.0901
  703MOL0     C94791  -0.444   2.912   8.300 -0.2432 -0.1707  0.2170
  703MOL0     C94792  -0.523   2.802   8.227 -0.0594  0.0534 -0.5553
  703MOL0     C94793  -0.450   2.679   8.177  0.1335  0.8022  0.4515
  703MOL0     O94794  -0.547   2.574   8.177  0.8573  0.3038 -0.4273
  703MOL0     C94795  -0.616   2.545   8.067  0.2842  0.5232  0.6610
  703MOL0     C94796  -0.610   2.604   7.941 -0.0771  0.0057  0.5197
  703MOL0     C94797  -0.676   2.565   7.831 -0.1360  0.6302  1.3068
  703MOL0     C94798  -0.764   2.456   7.839  0.4070  0.4635  0.2796
  703MOL0     C94799  -0.828   2.388   7.729  0.1621 -0.1479  0.2165
  703MOL0     O94800  -0.919   2.294   7.761 -0.1610  0.2465  0.4410
  703MOL0     C94801  -0.985   2.227   7.660  0.5526 -0.2440 -0.7953
  703MOL0     C94802  -1.039   2.296   7.556  0.2830 -0.3284  0.2159
  703MOL0     C94803  -1.128   2.230   7.466 -0.4238 -0.0640 -0.3150
  703MOL0     C94804  -1.137   2.088   7.466  0.3061  0.1712  0.4985
  703MOL0     O94805  -1.223   2.026   7.373 -0.4502  0.3193 -0.8186
  703MOL0     C94806  -1.169   2.008   7.235  0.3692  0.0686 -0.2299
  703MOL0     C94807  -1.255   2.071   7.126 -0.7680 -0.9410 -0.0188
  703MOL0     C94808  -1.371   1.987   7.111 -0.6684  0.4758 -1.0157
  703MOL0     C94809  -1.476   2.066   7.032  0.0932 -0.0122 -0.1115
  703MOL0     C94810  -1.476   2.045   6.882 -0.3128 -0.2811 -0.4107
  703MOL0     C94811  -1.536   2.178   6.810 -0.4950  0.6958  0.6802
  703MOL0     C94812  -1.507   2.181   6.657 -0.7189  0.8459  0.0290
  703MOL0     C94813  -1.590   2.270   6.579 -0.2477 -0.3964 -0.1568
  703MOL0    Cl94814  -1.508   2.246   6.422  0.0812  0.3672 -0.0038
  703MOL0     C94815  -1.064   2.016   7.571 -0.2623  0.2257  0.1289
  703MOL0     C94816  -0.996   2.084   7.673  0.0880  0.3337  0.1188
  703MOL0     O94817  -0.791   2.421   7.615  0.3065  1.1427 -0.2515
  703MOL0     C94818  -0.769   2.399   7.977  0.8854  0.4045  0.6916
  703MOL0     C94819  -0.697   2.433   8.086 -0.0216 -0.2259  0.7445
  703MOL0     N94820  -0.443   3.106   8.571  0.2183 -0.3522 -0.3841
  703MOL0     N94821  -0.371   3.201   8.627  0.0004  0.2439 -1.0955
  703MOL0     C94822   0.087   4.224   9.153  0.3045  0.1022 -0.1113
  703MOL0     C94823   0.083   4.317   9.261  0.2619  0.5164 -0.1006
  703MOL0     C94824  -0.080   4.405   9.692  1.7671 -0.7315  0.5954
  703MOL0     C94825  -0.023   4.520   9.750  1.2350 -0.0090 -0.4086
  703MOL0     C94826  -0.098   4.603   9.829 -1.3129  0.4425 -0.3864
  703MOL0     C94827  -0.223   4.572   9.860 -0.5318 -0.0424  0.4848
  703MOL0     O94828  -0.282   4.660   9.948  0.8895 -0.3616 -0.3450
  703MOL0     C94829  -0.397   4.732   9.899 -0.4350  0.5663  0.3957
  703MOL0     C94830  -0.417   4.860   9.975 -0.1377 -0.6319  0.0251
  703MOL0     C94831  -0.328   4.979   9.938 -0.3786  0.1004 -0.1605
  703MOL0     C94832  -0.384   5.066   9.818 -0.9914  0.3843  1.1611
  703MOL0     C94833  -0.325   5.018   9.690 -0.3997 -0.5589  0.1679
  703MOL0     C94834  -0.292   4.975   9.584 -0.2247 -0.4851  0.7769
  703MOL0     C94835  -0.294   4.464   9.800 -0.0429 -0.0970  0.2242
  703MOL0     C94836  -0.216   4.369   9.725 -0.1742  0.2342 -0.1770
  703MOL0     C94837  -0.283   4.241   9.675  0.4709  0.0403 -0.5018
  703MOL0     H94838  -0.038   4.083   9.482 -3.7899 -4.5114 -4.0156
  703MOL0     H94839  -0.031   3.946   9.290  3.1267 -1.4688 -0.6151
  703MOL0     H94840  -0.118   3.889   9.085 -1.5296  0.9992  0.7424
  703MOL0     H94841  -0.170   4.044   9.007  1.5169  1.1618 -3.0748
  703MOL0     H94842  -0.052   3.798   8.878 -2.5739 -1.7785 -0.7142
  703MOL0     H94843  -0.058   3.962   8.805  2.3289  3.3644  3.8819
  703MOL0     H94844  -0.324   3.948   8.859 -0.5893 -0.3114  1.1092
  703MOL0     H94845  -0.305   3.780   8.873 -0.2190 -2.4155 -1.9231
  703MOL0     H94846  -0.292   3.976   8.638 -0.0675  0.3000 -2.4977
  703MOL0     H94847  -0.163   3.850   8.632 -0.1099 -1.5303  3.4250
  703MOL0     H94848  -0.446   3.759   8.648  1.1504  1.4882  1.0008
  703MOL0     H94849  -0.374   3.783   8.496 -2.8713 -0.8855 -0.1525
  703MOL0     H94850  -0.182   3.636   8.602  0.2308  0.4364  0.8163
  703MOL0     H94851  -0.298   3.615   8.739  1.7323 -3.5730  0.1145
  703MOL0     H94852  -0.368   3.539   8.439  1.3948 -1.7184 -1.1557
  703MOL0     H94853  -0.452   3.492   8.570 -1.2389  0.7529 -1.8564
  703MOL0     H94854  -0.172   3.407   8.476 -0.8452 -1.3896 -0.4876
  703MOL0     H94855  -0.192   3.379   8.639  2.2621  1.2511 -1.9658
  703MOL0     H94856  -0.324   3.266   8.307 -1.3768  1.5347  0.5857
  703MOL0     H94857  -0.615   3.028   8.395  0.6092  0.5276  1.1724
  703MOL0     H94858  -0.533   3.096   8.243  0.3863 -2.8756 -1.0368
  703MOL0     H94859  -0.359   2.940   8.236  0.7170 -2.5033  0.3679
  703MOL0     H94860  -0.386   2.874   8.385  0.3164  1.1242  0.4386
  703MOL0     H94861  -0.564   2.847   8.136 -2.7829 -0.2007  0.4331
  703MOL0     H94862  -0.604   2.782   8.298 -0.2106  0.1524 -0.6968
  703MOL0     H94863  -0.366   2.655   8.243 -1.5918 -2.7464  1.6268
  703MOL0     H94864  -0.406   2.692   8.078  3.5340  2.6556  2.0071
  703MOL0     H94865  -0.565   2.701   7.924 -0.6174  0.1154 -0.3705
  703MOL0     H94866  -0.669   2.609   7.732 -1.9830 -2.0574 -0.1295
  703MOL0     H94867  -1.036   2.405   7.549  1.1567 -0.4139 -4.8303
  703MOL0     H94868  -1.163   2.285   7.380 -4.7845  0.7466  1.6961
  703MOL0     H94869  -1.075   2.064   7.234  1.5426 -1.7989  0.3800
  703MOL0     H94870  -1.141   1.902   7.226 -0.7738 -0.3724  1.0550
  703MOL0     H94871  -1.284   2.174   7.148  4.4432  1.4422 -2.5238
  703MOL0     H94872  -1.204   2.067   7.029 -3.7007 -1.9971 -1.6445
  703MOL0     H94873  -1.357   1.881   7.086 -2.8438  0.5257 -2.7825
  703MOL0     H94874  -1.407   1.974   7.213 -1.1385 -1.6948 -1.4076
  703MOL0     H94875  -1.477   2.172   7.058 -2.7074 -0.2977  1.3427
  703MOL0     H94876  -1.572   2.036   7.075 -1.0396  2.9290 -0.3820
  703MOL0     H94877  -1.547   1.965   6.857 -0.5120  0.5446 -2.6936
  703MOL0     H94878  -1.376   2.023   6.844 -0.0742  3.3570 -2.4055
  703MOL0     H94879  -1.643   2.187   6.832 -1.3820 -3.1098 -1.1257
  703MOL0     H94880  -1.481   2.264   6.850 -0.0232 -0.6595  3.0871
  703MOL0     H94881  -1.516   2.078   6.621 -2.0846 -0.7355  4.3060
  703MOL0     H94882  -1.402   2.210   6.653  0.0417 -1.0369  3.2777
  703MOL0     H94883  -1.693   2.234   6.587  0.5780 -3.2262 -1.0748
  703MOL0     H94884  -1.567   2.372   6.612 -0.5286  0.0922 -1.4183
  703MOL0     H94885  -1.065   1.907   7.574 -0.0723  0.2098 -0.2860
  703MOL0     H94886  -0.956   2.034   7.761  0.0860  0.1433  0.0109
  703MOL0     H94887  -0.833   2.314   8.002  0.8207 -0.0937 -0.9960
  703MOL0     H94888  -0.697   2.360   8.167  3.3433 -1.3354 -0.0630
  703MOL0     H94889   0.123   4.278   9.066  2.4496  0.5908  1.0101
  703MOL0     H94890   0.090   4.425   9.258  2.6922  0.4919  1.8188
  703MOL0     H94891   0.083   4.537   9.728  1.5305 -2.3882 -1.0963
  703MOL0     H94892  -0.039   4.689   9.860 -0.8033  0.8458 -2.3181
  703MOL0     H94893  -0.488   4.676   9.919  0.0941  0.8836  4.7531
  703MOL0     H94894  -0.382   4.749   9.792  0.1658  3.1148  0.8001
  703MOL0     H94895  -0.411   4.837  10.082  0.9244  0.3529  0.1967
  703MOL0     H94896  -0.520   4.898   9.976  0.5052  1.4598  2.7187
  703MOL0     H94897  -0.234   4.934   9.905 -0.8068 -1.1605  0.2808
  703MOL0     H94898  -0.315   5.038  10.029 -1.4939 -1.1789  0.8709
  703MOL0     H94899  -0.491   5.059   9.799 -1.0623 -0.3288  1.7797
  703MOL0     H94900  -0.350   5.168   9.839  0.2962  0.4646 -1.0071
  703MOL0     H94901  -0.283   4.943   9.482 -3.1430  2.9005 -0.7666
  703MOL0     H94902  -0.395   4.440   9.831 -0.2937  1.3495  0.6024
  703MOL0     H94903  -0.391   4.255   9.669  0.1510 -1.6569  0.7466
  703MOL0     H94904  -0.244   4.221   9.574  0.2758 -2.2072 -0.1916
  703MOL0     H94905  -0.263   4.150   9.732 -1.8220 -1.4604 -1.8968
  704MOL0     O94906   3.012  11.160   7.565  0.0260  0.0115  0.0787
  704MOL0     C94907   3.119  11.214   7.538  0.2012  1.0352 -0.6449
  704MOL0     O94908   3.238  11.164   7.563 -1.0645  0.1435 -0.3943
  704MOL0     C94909   3.265  11.042   7.624  0.2468 -0.7263  0.2132
  704MOL0     C94910   3.376  10.973   7.568  0.2934  0.4163 -0.2141
  704MOL0     C94911   3.425  10.854   7.638  1.2306 -0.2673  0.9157
  704MOL0     C94912   3.341  10.798   7.731 -0.3449  0.3729 -0.1053
  704MOL0     O94913   3.396  10.682   7.784 -0.6727  0.0231  0.0097
  704MOL0     C94914   3.301  10.580   7.812 -0.3413 -0.3910 -0.4598
  704MOL0     C94915   3.359  10.444   7.844  0.4566 -0.6341 -0.7099
  704MOL0     C94916   3.413  10.349   7.732  0.1474  0.4297 -1.0548
  704MOL0     C94917   3.535  10.280   7.792 -0.3314 -0.9212  0.1741
  704MOL0     C94918   3.582  10.163   7.699  0.3850 -0.0997  0.2863
  704MOL0     C94919   3.716  10.123   7.742 -0.2767  0.6355 -0.2741
  704MOL0     C94920   3.755   9.987   7.688 -0.6319  0.4133 -0.7120
  704MOL0     C94921   3.695   9.872   7.775  0.6679  0.6832  0.2262
  704MOL0     N94922   3.728   9.739   7.718  0.0062 -0.6461  0.1128
  704MOL0     C94923   3.679   9.686   7.600  0.2408 -0.8164 -0.2671
  704MOL0     C94924   3.701   9.552   7.606 -0.6648  0.3412  0.7847
  704MOL0     C94925   3.673   9.458   7.484 -0.4796  0.1081 -0.7126
  704MOL0     C94926   3.699   9.311   7.514 -0.4991  0.3373  0.1353
  704MOL0     C94927   3.666   9.217   7.390 -0.0564  0.3084  0.0377
  704MOL0     C94928   3.703   9.083   7.423  0.3112  0.2196 -1.1010
  704MOL0     O94929   3.588   9.026   7.484  0.0497  0.1184  0.5110
  704MOL0     C94930   3.541   8.904   7.451 -0.0371  0.6362 -0.4773
  704MOL0     C94931   3.622   8.813   7.391  0.5089  0.6352 -0.1362
  704MOL0     C94932   3.583   8.684   7.369 -0.4323  1.1581  0.2521
  704MOL0     C94933   3.455   8.645   7.405 -0.5388 -0.4002  0.4087
  704MOL0     C94934   3.412   8.507   7.375  1.4125 -0.5525 -0.1536
  704MOL0     O94935   3.279   8.493   7.388 -0.0036 -0.2599 -0.4817
  704MOL0     C94936   3.212   8.371   7.364 -1.0869 -0.4342 -0.0974
  704MOL0     C94937   3.137   8.373   7.251 -0.2177 -0.1548  0.7882
  704MOL0     C94938   3.085   8.253   7.195 -0.5686 -1.4475  0.1512
  704MOL0     C94939   3.089   8.138   7.267 -0.7335 -0.0815  0.2322
  704MOL0     O94940   3.036   8.022   7.211  0.1448  0.4727  0.0697
  704MOL0     C94941   3.074   7.898   7.276 -0.2637  0.5212 -0.1355
  704MOL0     C94942   3.039   7.775   7.184  1.0622  0.5768 -0.0024
  704MOL0     C94943   3.083   7.655   7.256  1.0154 -0.0516  0.7411
  704MOL0     C94944   3.032   7.536   7.177 -0.0172 -0.2442 -0.2868
  704MOL0     C94945   3.096   7.403   7.227  0.0685  0.0148 -0.0456
  704MOL0     C94946   3.025   7.361   7.349 -0.5897  0.3073 -0.5644
  704MOL0     C94947   3.101   7.257   7.435 -0.9786  0.0285  0.6466
  704MOL0     C94948   3.026   7.167   7.531  0.1353  0.3677  0.0212
  704MOL0    Cl94949   2.903   7.068   7.444 -0.1399  0.4071  0.0498
  704MOL0     C94950   3.151   8.131   7.395  0.7326  0.0234  0.7479
  704MOL0     C94951   3.218   8.249   7.437 -0.3713  0.9169 -0.4648
  704MOL0     O94952   3.488   8.423   7.338 -0.0967  0.5530 -0.3106
  704MOL0     C94953   3.370   8.733   7.467 -0.1485  0.6942 -0.8802
  704MOL0     C94954   3.415   8.864   7.495  0.1499 -0.4909 -0.0715
  704MOL0     N94955   3.768   9.534   7.726  0.7922  0.4124 -0.1663
  704MOL0     N94956   3.772   9.637   7.796 -0.4406 -0.5154 -0.3464
  704MOL0     C94957   3.246  10.871   7.788 -0.4453 -0.2155  0.2872
  704MOL0     C94958   3.205  11.000   7.737 -0.0896 -0.6737 -0.8773
  704MOL0     C94959   3.110  11.355   7.499  0.0209  0.2209  0.0341
  704MOL0     C94960   3.213  11.442   7.544 -0.8669  0.6873  0.6942
  704MOL0     C94961   3.217  11.569   7.489 -0.4749  0.2288 -0.0163
  704MOL0     C94962   3.124  11.616   7.403 -0.5013  0.0443  0.4939
  704MOL0     O94963   3.148  11.739   7.347 -0.4457 -0.1357  0.0513
  704MOL0     C94964   3.065  11.804   7.256 -0.3283  0.2894  0.4373
  704MOL0     C94965   2.959  11.876   7.335  0.4195 -0.2176 -0.3762
  704MOL0     C94966   2.866  11.967   7.256 -0.5926  0.0558 -0.2807
  704MOL0     C94967   2.950  12.078   7.178  0.3994  0.3538 -0.1483
  704MOL0     C94968   2.857  12.171   7.126 -0.6310 -0.2407  1.4212
  704MOL0     C94969   2.771  12.240   7.082  0.7243  0.0329  0.1100
  704MOL0     C94970   3.029  11.528   7.361  0.1406 -0.0605 -0.2501
  704MOL0     C94971   3.012  11.403   7.415 -0.6607  0.5792  0.8438
  704MOL0     C94972   2.897  11.321   7.369  0.5660 -0.2537  0.2298
  704MOL0     H94973   3.414  11.012   7.475  1.5660  0.6336  0.3792
  704MOL0     H94974   3.515  10.804   7.604 -0.3904 -1.2747 -2.2926
  704MOL0     H94975   3.243  10.620   7.895  1.4369 -0.3845  0.8224
  704MOL0     H94976   3.230  10.573   7.728  0.9061  2.0765 -1.8474
  704MOL0     H94977   3.279  10.382   7.888  0.2030 -1.5012 -2.3308
  704MOL0     H94978   3.432  10.457   7.924  0.3609 -1.9117 -0.3923
  704MOL0     H94979   3.453  10.406   7.648  0.7591 -0.3675 -1.3167
  704MOL0     H94980   3.331  10.283   7.700 -2.6125  1.8677  2.2913
  704MOL0     H94981   3.611  10.358   7.798 -0.9697 -0.1249 -1.5068
  704MOL0     H94982   3.500  10.244   7.889  2.0672  1.1493  1.9293
  704MOL0     H94983   3.516  10.078   7.722  2.4767 -2.2155 -1.1256
  704MOL0     H94984   3.565  10.172   7.592 -5.7589 -3.6038  0.4598
  704MOL0     H94985   3.781  10.194   7.691 -0.2121  1.1478  0.5055
  704MOL0     H94986   3.715  10.136   7.851 -5.4329 -3.0043  0.4818
  704MOL0     H94987   3.864   9.987   7.691 -0.5896 -1.6491 -0.7618
  704MOL0     H94988   3.724   9.984   7.583 -2.9594 -0.3557 -0.0747
  704MOL0     H94989   3.742   9.874   7.874  1.0825 -1.8487  0.1622
  704MOL0     H94990   3.585   9.876   7.780  0.6900  2.1812  0.0092
  704MOL0     H94991   3.636   9.737   7.515  0.0050 -1.0376 -0.2812
  704MOL0     H94992   3.570   9.486   7.459  0.4480  5.7475  0.3621
  704MOL0     H94993   3.741   9.497   7.408  1.0410  1.6993  1.3179
  704MOL0     H94994   3.805   9.305   7.540 -0.3546 -0.6207 -0.5921
  704MOL0     H94995   3.639   9.290   7.603  1.2818  1.9956  1.8291
  704MOL0     H94996   3.714   9.262   7.302 -0.1669 -0.2177 -0.2949
  704MOL0     H94997   3.558   9.215   7.371  0.2674 -1.7897 -2.0444
  704MOL0     H94998   3.792   9.067   7.484 -1.5571 -1.7029  1.3353
  704MOL0     H94999   3.711   9.052   7.318  0.7132  3.0388 -2.0045
  704MOL0     H95000   3.723   8.822   7.353  0.8343  1.1716  0.8024
  704MOL0     H95001   3.644   8.612   7.315 -3.7043  0.0546 -2.3312
  704MOL0     H95002   3.127   8.467   7.199 -3.7916  1.1213  3.3416
  704MOL0     H95003   3.030   8.259   7.102 -0.3305 -0.0061  0.0785
  704MOL0     H95004   3.183   7.905   7.290 -0.6467  1.3396  3.8579
  704MOL0     H95005   3.029   7.890   7.376  3.2247  3.2480  1.8926
  704MOL0     H95006   2.934   7.775   7.156  2.0459  0.0880 -4.4140
  704MOL0     H95007   3.104   7.769   7.096  1.5067  0.8185  0.3061
  704MOL0     H95008   3.192   7.650   7.259  0.9725 -0.6671  3.3111
  704MOL0     H95009   3.035   7.647   7.353 -1.5481 -1.4451 -0.5512
  704MOL0     H95010   3.068   7.547   7.075 -1.4136  2.6750 -0.5775
  704MOL0     H95011   2.922   7.538   7.183  0.0110  0.3466  0.2628
  704MOL0     H95012   3.202   7.426   7.241  0.0835 -1.2746  2.3411
  704MOL0     H95013   3.082   7.323   7.154 -5.0684 -0.6802  1.3144
  704MOL0     H95014   3.010   7.446   7.417 -1.5372 -1.1887  1.2149
  704MOL0     H95015   2.921   7.328   7.336 -0.5892 -1.6798  3.1097
  704MOL0     H95016   3.177   7.298   7.503  1.0691 -0.8551 -1.0052
  704MOL0     H95017   3.149   7.188   7.366 -3.4296 -1.9422  0.7568
  704MOL0     H95018   3.099   7.102   7.581  0.3772  0.0606 -0.7159
  704MOL0     H95019   2.979   7.218   7.615 -0.1643 -2.0932  1.4501
  704MOL0     H95020   3.128   8.060   7.473 -3.4202  2.8599  2.4971
  704MOL0     H95021   3.260   8.265   7.536  0.0739 -0.3390 -0.4289
  704MOL0     H95022   3.270   8.711   7.502 -0.8583  1.7638 -2.1404
  704MOL0     H95023   3.346   8.933   7.542  1.3832  1.9009 -1.5554
  704MOL0     H95024   3.183  10.836   7.869  2.4410  0.4092  2.9858
  704MOL0     H95025   3.121  11.037   7.795  0.2921  1.1057 -1.4122
  704MOL0     H95026   3.283  11.409   7.620 -1.6067  0.5521  1.3223
  704MOL0     H95027   3.294  11.635   7.530 -0.5314 -0.4749  1.2636
  704MOL0     H95028   3.018  11.750   7.174 -1.4998  0.4560  0.9857
  704MOL0     H95029   3.119  11.889   7.212 -0.6920  1.5801  2.3477
  704MOL0     H95030   3.011  11.942   7.405 -0.9331 -1.1030  1.5456
  704MOL0     H95031   2.901  11.803   7.392  1.2418  0.3816  1.2803
  704MOL0     H95032   2.800  12.018   7.327  1.9430 -0.8692  2.9945
  704MOL0     H95033   2.812  11.897   7.191  0.4059 -0.1584 -0.8928
  704MOL0     H95034   3.015  12.121   7.255  1.2576  2.2318 -1.8395
  704MOL0     H95035   3.001  12.043   7.088  1.3353  2.9748 -0.7227
  704MOL0     H95036   2.687  12.286   7.034 -0.6179 -1.3605  1.0093
  704MOL0     H95037   2.961  11.575   7.291  3.9016  0.1256 -4.1390
  704MOL0     H95038   2.848  11.377   7.290 -2.0040  0.7027  2.3452
  704MOL0     H95039   2.943  11.232   7.325  1.2984 -1.4740  3.1837
  704MOL0     H95040   2.827  11.292   7.449 -0.9048  2.5550  0.0968
  705MOL0     O95041   1.324   3.001   4.812  0.1681  0.8776  0.9076
  705MOL0     C95042   1.229   2.932   4.767 -0.9660 -0.5765 -0.0271
  705MOL0     O95043   1.100   2.955   4.798  0.6279 -0.0973  0.4464
  705MOL0     C95044   1.071   3.023   4.911 -0.6639  0.7607 -0.2961
  705MOL0     C95045   1.090   3.163   4.915  0.7764  0.4502 -0.5489
  705MOL0     C95046   1.050   3.233   5.032  0.9136  0.2832 -0.9273
  705MOL0     C95047   0.998   3.170   5.141  0.9862 -0.5120 -0.4758
  705MOL0     O95048   0.965   3.242   5.253 -0.1188  0.1910 -0.2679
  705MOL0     C95049   1.049   3.346   5.299 -0.3669  0.1149 -0.2857
  705MOL0     C95050   1.008   3.401   5.430  0.3795  0.4252  0.9699
  705MOL0     C95051   0.886   3.487   5.413  0.9744 -0.5449 -0.8539
  705MOL0     C95052   0.890   3.639   5.371 -0.2702 -0.2327 -0.1947
  705MOL0     C95053   0.754   3.713   5.375 -0.1203 -0.7573  0.2220
  705MOL0     C95054   0.762   3.870   5.353  0.6107 -0.7693  0.0404
  705MOL0     C95055   0.859   3.932   5.446  0.0630  0.1729 -0.2433
  705MOL0     C95056   0.830   4.083   5.454 -0.1829  0.1756 -0.1657
  705MOL0     N95057   0.913   4.136   5.566 -0.1994  0.1172  0.4384
  705MOL0     C95058   1.044   4.187   5.564 -0.0512 -0.3455 -0.1917
  705MOL0     C95059   1.061   4.243   5.686  0.0522  1.3256 -0.0280
  705MOL0     C95060   1.191   4.288   5.749 -0.0877 -0.4462  0.5386
  705MOL0     C95061   1.290   4.169   5.782 -0.1738  0.0821  0.8686
  705MOL0     C95062   1.422   4.209   5.828 -0.2931  0.4406 -0.6462
  705MOL0     C95063   1.407   4.284   5.962 -0.5842 -0.3197 -0.3648
  705MOL0     O95064   1.533   4.329   6.020  0.0383 -0.2685 -0.3103
  705MOL0     C95065   1.550   4.378   6.150  0.8441 -0.3723 -0.5037
  705MOL0     C95066   1.674   4.448   6.177  0.0902  0.1895 -0.1373
  705MOL0     C95067   1.696   4.502   6.308 -0.7409 -1.3621  0.1718
  705MOL0     C95068   1.598   4.497   6.412  0.0183 -0.1067 -0.0738
  705MOL0     C95069   1.615   4.572   6.540 -0.6486 -0.1354 -0.1126
  705MOL0     O95070   1.749   4.586   6.583 -0.1825 -0.7457 -0.5447
  705MOL0     C95071   1.767   4.619   6.710 -0.8137 -0.1419 -0.0807
  705MOL0     C95072   1.771   4.535   6.829 -0.3476  0.0897  0.0893
  705MOL0     C95073   1.800   4.583   6.957  0.3509 -0.6064 -0.2764
  705MOL0     C95074   1.818   4.719   6.977  0.3287 -0.1352 -0.2722
  705MOL0     O95075   1.846   4.782   7.094  0.4449 -0.1613 -0.4390
  705MOL0     C95076   1.874   4.696   7.206  0.4694  0.4863 -0.8074
  705MOL0     C95077   1.938   4.787   7.312 -0.0082 -0.2967  0.1731
  705MOL0     C95078   2.043   4.710   7.392 -0.0617  0.2693  0.7132
  705MOL0     C95079   1.982   4.602   7.476  0.4243  0.0214  0.2777
  705MOL0     C95080   1.890   4.651   7.583 -0.0599  0.5645 -0.0841
  705MOL0     C95081   1.888   4.547   7.697 -0.4650 -0.5107  0.7748
  705MOL0     C95082   1.774   4.560   7.791  1.1604 -0.5518  0.4384
  705MOL0     C95083   1.796   4.478   7.915  0.3457 -0.0929  0.0779
  705MOL0    Cl95084   1.711   4.328   7.875 -0.1185  0.0399 -0.1308
  705MOL0     C95085   1.813   4.800   6.868  0.7305 -0.3008 -0.1478
  705MOL0     C95086   1.799   4.749   6.737  0.8578  0.0226 -0.8522
  705MOL0     O95087   1.517   4.600   6.611 -0.1292 -0.5736  1.0776
  705MOL0     C95088   1.489   4.421   6.387 -0.2575 -0.8348  0.0163
  705MOL0     C95089   1.459   4.356   6.264 -0.3500  0.1733  1.2960
  705MOL0     N95090   0.942   4.234   5.756 -0.1489 -0.9055 -0.0059
  705MOL0     N95091   0.853   4.166   5.688  0.2781 -0.0660  0.2653
  705MOL0     C95092   1.003   3.033   5.137  0.7698  0.8778 -0.0248
  705MOL0     C95093   1.037   2.951   5.033  0.0219 -0.0346  1.1958
  705MOL0     C95094   1.250   2.809   4.682  0.4219  0.5767 -0.3227
  705MOL0     C95095   1.141   2.737   4.627 -0.3631 -0.7893  0.3510
  705MOL0     C95096   1.159   2.618   4.571 -0.2237  1.3579 -0.0610
  705MOL0     C95097   1.292   2.566   4.562  1.0011  0.6272  0.3047
  705MOL0     O95098   1.326   2.440   4.517  0.1906  0.0548 -0.3705
  705MOL0     C95099   1.231   2.332   4.490 -0.8897 -0.7484  0.3773
  705MOL0     C95100   1.159   2.354   4.355 -0.0661  0.4695 -0.6053
  705MOL0     C95101   1.095   2.223   4.297  0.4558 -0.7871 -0.3087
  705MOL0     C95102   1.197   2.127   4.241 -0.1668 -0.4642  0.2766
  705MOL0     C95103   1.224   2.017   4.334  0.2168  0.9567 -0.0460
  705MOL0     C95104   1.227   1.948   4.434  0.2093 -0.3834 -0.6109
  705MOL0     C95105   1.395   2.635   4.606  0.2943 -0.3485  0.5645
  705MOL0     C95106   1.380   2.759   4.659 -0.2892  0.0005 -0.1755
  705MOL0     C95107   1.512   2.815   4.712  0.4749 -0.8193  0.7808
  705MOL0     H95108   1.120   3.206   4.820  0.3762 -1.1572 -1.4293
  705MOL0     H95109   1.041   3.340   5.018  0.2805  0.1690 -1.4446
  705MOL0     H95110   1.150   3.302   5.303 -1.2097 -2.0250  4.7126
  705MOL0     H95111   1.045   3.434   5.234  0.4840  0.6260  0.3126
  705MOL0     H95112   1.096   3.456   5.465  2.3000 -0.0858 -2.5670
  705MOL0     H95113   0.987   3.332   5.513  0.5171  1.8659  2.2498
  705MOL0     H95114   0.835   3.478   5.509  0.6842 -0.5409 -1.0069
  705MOL0     H95115   0.829   3.433   5.337  2.4130  0.9843 -3.1676
  705MOL0     H95116   0.967   3.694   5.426 -1.4901  0.5594  0.7789
  705MOL0     H95117   0.911   3.654   5.265 -1.4086 -1.1780 -0.5849
  705MOL0     H95118   0.696   3.669   5.292 -0.9236  0.2143  0.2484
  705MOL0     H95119   0.700   3.676   5.462 -0.6522 -0.5410 -0.0124
  705MOL0     H95120   0.787   3.890   5.248 -0.4200  1.8152  0.2181
  705MOL0     H95121   0.666   3.923   5.360  0.8741 -0.2706 -0.0557
  705MOL0     H95122   0.959   3.916   5.407  0.8719  2.4672  0.7057
  705MOL0     H95123   0.849   3.889   5.546 -3.9953 -1.4416 -1.1560
  705MOL0     H95124   0.851   4.131   5.358 -0.1329  2.6624  1.0124
  705MOL0     H95125   0.723   4.099   5.469 -0.1227  0.5981 -0.1694
  705MOL0     H95126   1.121   4.183   5.487  0.0097 -0.0889 -0.1452
  705MOL0     H95127   1.246   4.352   5.679 -1.9821 -0.4965 -1.1260
  705MOL0     H95128   1.170   4.341   5.842 -2.4267  0.5018 -0.4303
  705MOL0     H95129   1.240   4.100   5.850 -1.1163 -1.4379 -1.2304
  705MOL0     H95130   1.302   4.109   5.691  1.7191 -1.1400  1.8473
  705MOL0     H95131   1.485   4.275   5.767  0.1292  0.3076 -0.3633
  705MOL0     H95132   1.496   4.129   5.832  1.9602  2.4377  2.3541
  705MOL0     H95133   1.354   4.219   6.033 -1.8205 -1.8396 -2.5523
  705MOL0     H95134   1.346   4.373   5.946  1.4595  1.2175 -0.0029
  705MOL0     H95135   1.742   4.459   6.093 -0.1200  4.5278  0.0077
  705MOL0     H95136   1.783   4.564   6.328 -0.6886 -1.8458  1.4771
  705MOL0     H95137   1.759   4.428   6.820  0.4359 -0.6215  4.9430
  705MOL0     H95138   1.810   4.510   7.037 -1.7047  0.8351  1.3942
  705MOL0     H95139   1.779   4.659   7.246  0.0835 -0.7343 -2.7449
  705MOL0     H95140   1.943   4.614   7.184  0.3873 -0.1306  1.0182
  705MOL0     H95141   1.994   4.860   7.253  0.5898 -2.4083 -2.0256
  705MOL0     H95142   1.860   4.843   7.366  0.8320  1.6648 -0.5601
  705MOL0     H95143   2.104   4.656   7.318 -0.4217 -0.8754  1.2301
  705MOL0     H95144   2.105   4.766   7.463 -2.8676  0.6405  3.0369
  705MOL0     H95145   2.070   4.558   7.524 -0.5672 -1.6121  0.6965
  705MOL0     H95146   1.934   4.521   7.421 -1.9514  1.3257  0.2851
  705MOL0     H95147   1.791   4.673   7.542 -0.3770  0.5580  0.6540
  705MOL0     H95148   1.933   4.741   7.629  0.2486  1.1627 -1.4895
  705MOL0     H95149   1.882   4.444   7.659 -1.9439  0.3158 -1.4175
  705MOL0     H95150   1.971   4.575   7.763 -1.0043  1.7909  0.5349
  705MOL0     H95151   1.683   4.542   7.733  0.7895 -0.9662  1.1307
  705MOL0     H95152   1.766   4.662   7.831 -1.9844 -0.8472  0.8014
  705MOL0     H95153   1.903   4.481   7.935  0.0086 -1.0796  2.2210
  705MOL0     H95154   1.732   4.519   7.994 -0.2863  0.7193 -0.8210
  705MOL0     H95155   1.825   4.905   6.891 -0.6264 -0.5271  1.9420
  705MOL0     H95156   1.798   4.836   6.671 -0.6134  2.1616  1.7912
  705MOL0     H95157   1.420   4.413   6.471  1.5253  1.1059  1.7755
  705MOL0     H95158   1.375   4.291   6.244 -0.2712  0.0627  1.3208
  705MOL0     H95159   0.972   2.975   5.224 -0.1790  1.4590  0.0438
  705MOL0     H95160   1.031   2.842   5.035  0.1848 -0.0806  0.0582
  705MOL0     H95161   1.037   2.768   4.626  0.2767  2.4369 -4.4902
  705MOL0     H95162   1.073   2.554   4.550  0.2159  0.4841  0.7809
  705MOL0     H95163   1.157   2.318   4.569  0.1336  0.9530  1.6896
  705MOL0     H95164   1.296   2.245   4.478  2.3127  1.4439  0.7950
  705MOL0     H95165   1.226   2.397   4.280 -2.3536  3.9593 -0.9039
  705MOL0     H95166   1.085   2.434   4.361 -0.2478  0.1700  3.6291
  705MOL0     H95167   1.020   2.238   4.219 -0.9854 -1.6977  0.8367
  705MOL0     H95168   1.033   2.181   4.377  0.0697 -0.4534 -0.4310
  705MOL0     H95169   1.149   2.078   4.155  0.5952 -1.7453  0.5440
  705MOL0     H95170   1.278   2.186   4.197 -0.3272 -0.5930 -0.1964
  705MOL0     H95171   1.204   1.893   4.524 -2.2146 -1.0042 -1.5334
  705MOL0     H95172   1.496   2.597   4.592  0.8782  1.1525  0.5548
  705MOL0     H95173   1.509   2.842   4.818  1.7227 -0.4396  0.7291
  705MOL0     H95174   1.594   2.743   4.714  3.3235  1.9574 -2.7477
  705MOL0     H95175   1.549   2.903   4.659  1.0364 -1.8771 -0.6428
  706MOL0     O95176   0.435   4.189   5.711  0.4274  0.2088 -0.4845
  706MOL0     C95177   0.535   4.149   5.776  0.1933 -0.3468 -0.2698
  706MOL0     O95178   0.576   4.021   5.793  0.7064 -0.7847  0.3256
  706MOL0     C95179   0.502   3.926   5.725 -0.3847  0.0064  0.1053
  706MOL0     C95180   0.439   3.845   5.818 -0.3768  0.5456 -0.7223
  706MOL0     C95181   0.357   3.735   5.777  0.1462 -0.4440 -0.5472
  706MOL0     C95182   0.336   3.712   5.643 -0.5074 -0.4987 -0.2735
  706MOL0     O95183   0.246   3.619   5.602  0.6205  0.1344  0.1691
  706MOL0     C95184   0.112   3.651   5.621  0.1616  0.0372 -0.5190
  706MOL0     C95185   0.016   3.533   5.588 -0.1189  0.1866  0.3090
  706MOL0     C95186  -0.138   3.580   5.591  0.9349 -1.0197 -1.4230
  706MOL0     C95187  -0.160   3.719   5.667  1.1296  0.6923  0.8265
  706MOL0     C95188  -0.309   3.736   5.659 -1.1337 -0.2305  0.4218
  706MOL0     C95189  -0.348   3.866   5.716  0.3353  0.4273 -0.3455
  706MOL0     C95190  -0.488   3.852   5.772 -0.1183 -0.2993 -0.4852
  706MOL0     C95191  -0.532   3.978   5.865  0.3466 -0.5257 -0.4722
  706MOL0     N95192  -0.671   3.980   5.839 -0.3959  0.0663  0.1182
  706MOL0     C95193  -0.724   4.060   5.734  1.0064  1.1422 -0.9958
  706MOL0     C95194  -0.856   4.070   5.759  0.5051  0.0835 -0.5360
  706MOL0     C95195  -0.948   4.149   5.676  0.0807  0.3871  0.0770
  706MOL0     C95196  -1.044   4.248   5.748  0.4363  0.0858  0.5931
  706MOL0     C95197  -0.974   4.336   5.849 -0.7092 -1.2958  0.0727
  706MOL0     C95198  -0.873   4.438   5.791 -0.3934 -0.4732 -0.6883
  706MOL0     O95199  -0.885   4.570   5.846 -0.4995 -0.0419  0.8077
  706MOL0     C95200  -0.789   4.666   5.828  0.9549  0.1262  0.0408
  706MOL0     C95201  -0.674   4.645   5.760  0.3390 -0.2768 -0.0328
  706MOL0     C95202  -0.585   4.757   5.722 -0.2011  0.2734  0.4621
  706MOL0     C95203  -0.636   4.888   5.739  0.9000 -0.0366 -0.2247
  706MOL0     C95204  -0.565   5.002   5.685  0.1221  0.4017 -1.3806
  706MOL0     O95205  -0.441   4.974   5.642 -0.7256  0.5861  0.3186
  706MOL0     C95206  -0.367   5.070   5.585  0.3352  0.0028 -0.3835
  706MOL0     C95207  -0.235   5.091   5.638 -0.1328  0.8282  0.2193
  706MOL0     C95208  -0.162   5.197   5.591  1.2341  0.3016 -0.7265
  706MOL0     C95209  -0.193   5.278   5.480 -0.0993  0.2401 -0.3065
  706MOL0     O95210  -0.109   5.372   5.432 -0.3380  0.1564 -0.8070
  706MOL0     C95211  -0.148   5.488   5.348 -0.5380  0.1215  0.9364
  706MOL0     C95212  -0.220   5.600   5.440  0.3344  0.7951 -0.4265
  706MOL0     C95213  -0.131   5.614   5.561  0.4708 -0.0368 -0.4219
  706MOL0     C95214  -0.156   5.753   5.628  0.3238 -0.1441 -0.1700
  706MOL0     C95215  -0.288   5.774   5.699  1.2143  0.8689 -0.8512
  706MOL0     C95216  -0.282   5.912   5.753 -0.2098 -0.6788  0.4789
  706MOL0     C95217  -0.377   5.942   5.868  0.1728 -0.7307 -0.6116
  706MOL0     C95218  -0.393   6.090   5.878  1.0459 -0.2110 -0.4200
  706MOL0    Cl95219  -0.458   6.127   6.043  0.1399 -0.1338  0.2188
  706MOL0     C95220  -0.319   5.254   5.422 -0.2426  0.5590 -0.0400
  706MOL0     C95221  -0.400   5.148   5.470  0.0550  0.0751 -0.4429
  706MOL0     O95222  -0.632   5.099   5.660  0.1306 -1.2884  0.3088
  706MOL0     C95223  -0.756   4.911   5.816  0.2979 -0.1664  0.3590
  706MOL0     C95224  -0.832   4.797   5.846 -0.0713  0.6668  0.1774
  706MOL0     N95225  -0.876   3.992   5.875 -0.4128  0.1353 -0.1850
  706MOL0     N95226  -0.770   3.938   5.914  0.0810  1.5530  0.3557
  706MOL0     C95227   0.416   3.794   5.551  1.4693  0.7246  0.1514
  706MOL0     C95228   0.495   3.887   5.587 -0.6831 -0.6273  0.2025
  706MOL0     C95229   0.577   4.243   5.878 -0.6100  0.0664  0.4143
  706MOL0     C95230   0.616   4.201   6.009 -0.2426 -0.4361 -0.9429
  706MOL0     C95231   0.643   4.296   6.110  0.3413 -0.2785  0.3124
  706MOL0     C95232   0.650   4.430   6.086  1.1658  0.7446  0.0324
  706MOL0     O95233   0.690   4.514   6.189 -0.2262  0.4223  0.1924
  706MOL0     C95234   0.654   4.654   6.196  0.2038  1.1449  0.5966
  706MOL0     C95235   0.783   4.726   6.184 -0.7333 -0.5771  0.8689
  706MOL0     C95236   0.788   4.881   6.204 -0.3508 -0.5527  0.2089
  706MOL0     C95237   0.927   4.931   6.168 -0.1820 -0.6863  0.2064
  706MOL0     C95238   0.916   5.042   6.069  0.1083  0.4726  0.0508
  706MOL0     C95239   0.908   5.124   5.986 -0.5462  0.3080 -0.8770
  706MOL0     C95240   0.635   4.469   5.954 -0.2336 -0.1672 -0.6828
  706MOL0     C95241   0.598   4.381   5.848 -0.6161 -0.4896 -1.9947
  706MOL0     C95242   0.601   4.441   5.702 -0.1287 -0.0892 -1.0951
  706MOL0     H95243   0.449   3.865   5.925  1.3274  1.8380 -1.0827
  706MOL0     H95244   0.293   3.686   5.850 -0.2655  0.7394 -0.0851
  706MOL0     H95245   0.089   3.680   5.724  0.7214 -0.5751 -0.2162
  706MOL0     H95246   0.075   3.739   5.567 -2.4523 -1.0103 -0.5714
  706MOL0     H95247   0.037   3.456   5.662 -0.0683  0.2828  0.3945
  706MOL0     H95248   0.036   3.511   5.483 -1.1754 -0.9748  0.3189
  706MOL0     H95249  -0.200   3.496   5.621  1.0705 -0.1752  1.5829
  706MOL0     H95250  -0.183   3.602   5.494 -2.0071  1.8235  0.3693
  706MOL0     H95251  -0.122   3.720   5.769  2.9098  2.1564  0.2129
  706MOL0     H95252  -0.112   3.796   5.606  2.5295  1.4994  2.8573
  706MOL0     H95253  -0.353   3.724   5.559 -2.0755  1.0081  0.6623
  706MOL0     H95254  -0.355   3.651   5.711 -1.0245  0.2214  1.2589
  706MOL0     H95255  -0.275   3.894   5.793 -0.9516  3.2594 -0.0324
  706MOL0     H95256  -0.334   3.950   5.647  0.5700  1.1361  0.5372
  706MOL0     H95257  -0.506   3.760   5.829 -2.8183  1.1520  1.2422
  706MOL0     H95258  -0.543   3.854   5.678  1.7712  0.3869 -1.6339
  706MOL0     H95259  -0.514   3.969   5.973 -0.5927  0.8930 -0.1645
  706MOL0     H95260  -0.491   4.074   5.833  1.6200 -0.7137  0.4868
  706MOL0     H95261  -0.671   4.107   5.652  0.6304  1.4402 -1.0683
  706MOL0     H95262  -0.894   4.210   5.602 -1.5761  0.4429 -1.1694
  706MOL0     H95263  -1.017   4.078   5.629  1.5578  1.0032 -3.3182
  706MOL0     H95264  -1.099   4.315   5.682  2.4656  2.0785  0.8243
  706MOL0     H95265  -1.124   4.192   5.797 -1.4370  0.4548 -1.8509
  706MOL0     H95266  -0.938   4.263   5.922  2.0314  1.1070  1.3048
  706MOL0     H95267  -1.051   4.393   5.903 -0.9465 -1.3144 -0.2463
  706MOL0     H95268  -0.894   4.430   5.684  0.5671 -1.9434 -0.7995
  706MOL0     H95269  -0.770   4.401   5.800 -0.2502 -0.0706 -0.6764
  706MOL0     H95270  -0.623   4.555   5.727  1.3903  0.2543  0.0904
  706MOL0     H95271  -0.485   4.737   5.686 -0.3170 -0.8303  0.7173
  706MOL0     H95272  -0.192   5.028   5.714 -1.7203 -2.0966 -1.1405
  706MOL0     H95273  -0.061   5.199   5.631  1.8747 -0.8557 -2.1413
  706MOL0     H95274  -0.052   5.529   5.314 -0.9409  0.0168 -0.3733
  706MOL0     H95275  -0.209   5.465   5.261  1.2205  2.0748 -0.9056
  706MOL0     H95276  -0.224   5.691   5.380  1.1587  2.2412  1.6075
  706MOL0     H95277  -0.325   5.583   5.463  0.3947  0.4404 -0.3933
  706MOL0     H95278  -0.155   5.535   5.633  1.0712 -1.3199 -1.5827
  706MOL0     H95279  -0.030   5.617   5.519  1.0504  0.3917  0.9665
  706MOL0     H95280  -0.146   5.831   5.552 -1.6272 -2.0238 -2.5246
  706MOL0     H95281  -0.078   5.770   5.703  0.8918  1.1864 -1.0302
  706MOL0     H95282  -0.307   5.702   5.780  4.5330  0.8660  0.0699
  706MOL0     H95283  -0.380   5.763   5.640 -0.1382 -1.2197  1.4853
  706MOL0     H95284  -0.187   5.932   5.804  0.0903 -2.3439  0.6462
  706MOL0     H95285  -0.297   5.974   5.664  1.6373  1.2123  1.4026
  706MOL0     H95286  -0.329   5.894   5.953  1.6071  0.6596 -0.5851
  706MOL0     H95287  -0.478   5.903   5.854  1.0770 -3.1497 -0.9452
  706MOL0     H95288  -0.292   6.130   5.871  1.0188 -0.4540 -3.2045
  706MOL0     H95289  -0.463   6.126   5.802  1.1468  0.5904 -0.1534
  706MOL0     H95290  -0.362   5.328   5.356 -0.6040  1.0822  0.7619
  706MOL0     H95291  -0.490   5.125   5.414  0.3768  2.0740 -1.8635
  706MOL0     H95292  -0.794   5.013   5.823  1.3616  0.3780 -1.1687
  706MOL0     H95293  -0.928   4.813   5.894 -0.2099 -0.7888  0.4572
  706MOL0     H95294   0.410   3.790   5.442  0.1080  0.6473  0.2075
  706MOL0     H95295   0.539   3.959   5.519  0.9865 -2.9094 -1.2457
  706MOL0     H95296   0.626   4.096   6.033 -1.4757 -0.8390 -2.0284
  706MOL0     H95297   0.677   4.271   6.210 -1.5427 -0.9766  0.8162
  706MOL0     H95298   0.590   4.677   6.281 -1.4576  0.6696 -0.4641
  706MOL0     H95299   0.595   4.668   6.105  1.4235  1.0189 -0.2421
  706MOL0     H95300   0.796   4.727   6.075 -1.2650  1.2053  0.7902
  706MOL0     H95301   0.869   4.677   6.230  3.5526  1.9218 -3.4804
  706MOL0     H95302   0.755   4.905   6.306 -2.6541  2.0612 -1.0227
  706MOL0     H95303   0.723   4.938   6.137  3.3717  2.5174 -1.1964
  706MOL0     H95304   0.991   4.961   6.252  1.0050  1.6587 -1.4272
  706MOL0     H95305   0.985   4.862   6.107  1.7584  0.0254  1.1474
  706MOL0     H95306   0.915   5.207   5.919  2.5670  1.3857  0.5762
  706MOL0     H95307   0.639   4.571   5.918  0.1082 -0.7713 -2.4896
  706MOL0     H95308   0.499   4.445   5.661 -0.1992  1.3560 -0.8149
  706MOL0     H95309   0.655   4.536   5.699  0.0135 -0.0809  0.5412
  706MOL0     H95310   0.657   4.363   5.651  1.0921 -1.3627  1.9317
  707MOL0     O95311   5.518   9.940   6.982  0.4490  0.2961 -0.0767
  707MOL0     C95312   5.591   9.903   7.071 -0.3301 -0.6663 -0.8145
  707MOL0     O95313   5.634   9.778   7.085 -0.1020 -0.2698  0.2478
  707MOL0     C95314   5.579   9.680   7.010 -0.3786 -0.6300  0.2585
  707MOL0     C95315   5.609   9.658   6.870  0.3319  0.0994 -0.1747
  707MOL0     C95316   5.530   9.561   6.810  0.0545  0.5238 -0.1801
  707MOL0     C95317   5.462   9.471   6.883 -0.5290 -0.1193 -0.1529
  707MOL0     O95318   5.411   9.364   6.823 -0.4376 -0.8614  0.2487
  707MOL0     C95319   5.267   9.365   6.810  1.2316 -0.0169  0.1012
  707MOL0     C95320   5.228   9.432   6.682 -0.3139  0.5022  0.3754
  707MOL0     C95321   5.254   9.359   6.556 -0.3246  1.0092  0.7150
  707MOL0     C95322   5.166   9.237   6.528  0.8631  0.8554 -0.7963
  707MOL0     C95323   5.205   9.158   6.395  0.4756  1.2813  0.2795
  707MOL0     C95324   5.103   9.176   6.291 -0.3317  0.6658 -0.0876
  707MOL0     C95325   5.160   9.153   6.156  1.6711  0.5315 -0.5673
  707MOL0     C95326   5.061   9.163   6.043  0.2834 -0.0871 -0.0599
  707MOL0     N95327   5.113   9.079   5.932 -0.2808  0.0322  0.1420
  707MOL0     C95328   5.122   8.940   5.932 -0.2188 -0.5527  0.2155
  707MOL0     C95329   5.166   8.915   5.803  0.1775  0.6940  0.4779
  707MOL0     C95330   5.177   8.789   5.726  0.1053 -0.2537  0.3904
  707MOL0     C95331   5.053   8.753   5.633  0.8159 -0.8678 -0.5249
  707MOL0     C95332   5.091   8.784   5.483 -0.2067  0.6072 -1.0729
  707MOL0     C95333   4.967   8.798   5.393  0.7283  0.1954  0.3565
  707MOL0     O95334   5.010   8.780   5.254 -0.1359  0.0530 -0.1932
  707MOL0     C95335   5.049   8.879   5.175 -0.0107 -0.4958 -0.5815
  707MOL0     C95336   5.095   9.007   5.218 -0.3134  0.5912  0.6798
  707MOL0     C95337   5.171   9.078   5.128 -0.2080 -1.2434 -0.4457
  707MOL0     C95338   5.164   9.066   4.993 -0.4859 -0.0300  0.7738
  707MOL0     C95339   5.238   9.156   4.898 -0.5065 -0.2258 -0.8704
  707MOL0     O95340   5.361   9.201   4.930 -0.0489 -0.2282 -0.0127
  707MOL0     C95341   5.401   9.312   4.857  0.3072 -0.3897 -0.9003
  707MOL0     C95342   5.530   9.310   4.801  0.1460  0.8978 -0.1359
  707MOL0     C95343   5.574   9.414   4.718  0.6136 -0.1272  0.0520
  707MOL0     C95344   5.491   9.527   4.696 -0.6311  0.6493 -0.5070
  707MOL0     O95345   5.513   9.632   4.613  0.8634 -0.8215 -0.3326
  707MOL0     C95346   5.643   9.679   4.604  0.2997  1.3067 -0.3590
  707MOL0     C95347   5.633   9.778   4.482  0.7295 -0.5574 -0.1278
  707MOL0     C95348   5.691   9.704   4.355  1.0478 -0.2300 -0.0017
  707MOL0     C95349   5.678   9.805   4.237  0.9856  0.0526 -0.3672
  707MOL0     C95350   5.753   9.758   4.111  0.2062 -0.4088  0.6586
  707MOL0     C95351   5.717   9.848   3.991 -0.0098 -0.1540 -0.1088
  707MOL0     C95352   5.773   9.995   3.995  0.6044  0.3824 -0.6940
  707MOL0     C95353   5.708  10.080   3.889 -1.0192 -0.7174  0.0497
  707MOL0    Cl95354   5.831  10.190   3.821  0.3008 -0.3268 -0.6220
  707MOL0     C95355   5.377   9.534   4.766  0.4662  0.1520 -0.7731
  707MOL0     C95356   5.331   9.433   4.849 -0.5328  0.5161  0.9126
  707MOL0     O95357   5.183   9.174   4.793 -0.3353 -0.2714  0.8593
  707MOL0     C95358   5.112   8.937   4.948 -0.0057 -0.9063  0.5124
  707MOL0     C95359   5.065   8.842   5.042 -0.9315  0.0138  0.1521
  707MOL0     N95360   5.189   9.037   5.733  0.1647  0.4147 -0.9042
  707MOL0     N95361   5.155   9.131   5.810 -0.0061 -0.3704  0.2552
  707MOL0     C95362   5.454   9.484   7.022 -0.0604 -0.3218  1.2447
  707MOL0     C95363   5.485   9.604   7.078 -0.0669  0.7007  1.1260
  707MOL0     C95364   5.670  10.006   7.147 -0.8520 -0.4155 -0.1697
  707MOL0     C95365   5.765   9.964   7.233  0.0197 -0.2276  1.7246
  707MOL0     C95366   5.826  10.047   7.317  0.9965 -0.2550  0.5705
  707MOL0     C95367   5.824  10.189   7.294 -0.1717  1.0082 -0.4263
  707MOL0     O95368   5.895  10.279   7.364 -0.0334 -0.8427 -0.0431
  707MOL0     C95369   5.964  10.234   7.479  0.5093  0.3947 -0.6509
  707MOL0     C95370   6.022  10.344   7.572 -0.0320 -0.0846  0.4321
  707MOL0     C95371   6.106  10.293   7.695  0.5083  1.0278 -0.2434
  707MOL0     C95372   6.041  10.175   7.773  0.5242  0.4830 -0.3069
  707MOL0     C95373   5.902  10.203   7.820 -0.7728 -0.4693  0.8005
  707MOL0     C95374   5.791  10.230   7.855  0.2518 -0.7084 -0.6017
  707MOL0     C95375   5.748  10.231   7.189  0.3867 -0.0305 -0.5256
  707MOL0     C95376   5.666  10.143   7.117 -0.0770 -0.1790  0.0807
  707MOL0     C95377   5.572  10.213   7.015  0.0465  0.3149  0.3242
  707MOL0     H95378   5.677   9.724   6.816  1.0050  2.3530  3.1380
  707MOL0     H95379   5.532   9.555   6.701  1.7631  0.5471 -0.1746
  707MOL0     H95380   5.222   9.265   6.804 -1.7035  1.1245  1.0821
  707MOL0     H95381   5.219   9.406   6.900  2.2928 -4.8533  3.3151
  707MOL0     H95382   5.272   9.532   6.678 -1.7840  1.1492 -3.3174
  707MOL0     H95383   5.124   9.464   6.673 -1.0348 -1.7204  0.3618
  707MOL0     H95384   5.359   9.329   6.562  1.6651  6.9920  2.4166
  707MOL0     H95385   5.261   9.430   6.473 -3.5243 -1.4942 -2.0286
  707MOL0     H95386   5.172   9.173   6.616  0.1786  1.9922  0.1039
  707MOL0     H95387   5.062   9.272   6.522  0.7816  1.4459  2.5141
  707MOL0     H95388   5.305   9.195   6.367  1.7391 -1.3218  0.9984
  707MOL0     H95389   5.226   9.052   6.413  1.3416  1.8477  3.0466
  707MOL0     H95390   5.019   9.106   6.298 -0.7735  0.9926 -1.7423
  707MOL0     H95391   5.059   9.276   6.286 -0.0441  0.7826 -0.3076
  707MOL0     H95392   5.199   9.051   6.162  0.3560  0.0641  0.4457
  707MOL0     H95393   5.242   9.220   6.128  3.1190 -1.0529 -0.2333
  707MOL0     H95394   4.968   9.121   6.081  0.5999  1.2284  2.3663
  707MOL0     H95395   5.051   9.270   6.021  0.1743 -0.0261  0.2780
  707MOL0     H95396   5.109   8.865   6.009  3.7843 -2.1945 -0.4839
  707MOL0     H95397   5.274   8.785   5.675  0.8400 -2.7412  1.8159
  707MOL0     H95398   5.189   8.701   5.790  1.1908 -1.3083 -1.1984
  707MOL0     H95399   5.022   8.649   5.628  2.2910 -1.3348 -0.5001
  707MOL0     H95400   4.969   8.813   5.669  0.3598 -0.6380 -1.9018
  707MOL0     H95401   5.140   8.692   5.450  2.7927  2.1054 -1.1354
  707MOL0     H95402   5.153   8.874   5.481  0.7706 -0.0317 -0.2168
  707MOL0     H95403   4.935   8.901   5.413  0.6339 -0.1103  1.9076
  707MOL0     H95404   4.876   8.744   5.422 -2.4427  5.4460  1.7060
  707MOL0     H95405   5.102   9.042   5.320 -2.4542  4.5596 -0.3254
  707MOL0     H95406   5.217   9.166   5.171  0.6450 -2.7006  1.8137
  707MOL0     H95407   5.596   9.226   4.818 -0.3334  0.4694 -0.3294
  707MOL0     H95408   5.680   9.420   4.696  0.4472  0.5092 -0.6240
  707MOL0     H95409   5.675   9.730   4.696 -0.9016 -2.5549  2.4670
  707MOL0     H95410   5.719   9.599   4.602  2.3192  3.1352 -0.8287
  707MOL0     H95411   5.532   9.819   4.473  0.5348 -0.4002  2.2131
  707MOL0     H95412   5.703   9.859   4.507  1.7158 -1.8308  1.4859
  707MOL0     H95413   5.797   9.680   4.361  0.9175 -0.4703  1.7220
  707MOL0     H95414   5.637   9.612   4.330 -1.5943  1.7236 -2.1488
  707MOL0     H95415   5.725   9.897   4.272  0.0575  1.2301 -2.1102
  707MOL0     H95416   5.573   9.819   4.207  0.9668 -0.2464 -0.4509
  707MOL0     H95417   5.743   9.652   4.086  2.7193 -0.9367  1.5830
  707MOL0     H95418   5.862   9.763   4.118  0.2088  0.0825  0.3762
  707MOL0     H95419   5.755   9.793   3.905 -1.6364 -0.9605 -0.3466
  707MOL0     H95420   5.608   9.848   3.984 -0.2196 -0.7555  2.3373
  707MOL0     H95421   5.882   9.992   3.987  0.4704  0.6171 -5.5027
  707MOL0     H95422   5.755  10.038   4.094 -0.5257 -1.3419 -0.1030
  707MOL0     H95423   5.659  10.014   3.816 -1.5567  0.6072 -0.8316
  707MOL0     H95424   5.620  10.131   3.927 -2.1059 -0.8062 -2.1764
  707MOL0     H95425   5.317   9.624   4.769 -1.1585 -0.9268  1.2174
  707MOL0     H95426   5.234   9.442   4.897 -0.1158  0.0595  1.8567
  707MOL0     H95427   5.108   8.909   4.844 -0.8792 -1.1383  0.6032
  707MOL0     H95428   5.035   8.739   5.021 -2.3310 -0.8653  5.1219
  707MOL0     H95429   5.387   9.415   7.072 -4.0187  3.8430  2.3852
  707MOL0     H95430   5.466   9.614   7.184  0.9290  0.8983  1.2969
  707MOL0     H95431   5.746   9.860   7.260 -3.1813  0.2601  1.7636
  707MOL0     H95432   5.894   9.992   7.381  4.3984 -2.7345 -4.4323
  707MOL0     H95433   6.049  10.170   7.456  0.5607 -0.6662  2.0737
  707MOL0     H95434   5.914  10.169   7.551  2.6736 -0.8022 -0.1239
  707MOL0     H95435   5.939  10.406   7.608  0.4608  1.6766 -1.3156
  707MOL0     H95436   6.083  10.407   7.507  0.3318 -0.0219  0.8302
  707MOL0     H95437   6.131  10.374   7.763 -2.1885 -1.2035  3.8282
  707MOL0     H95438   6.192  10.246   7.647  0.7131  1.3310 -0.1729
  707MOL0     H95439   6.039  10.083   7.713 -2.0031 -0.2412  0.7665
  707MOL0     H95440   6.109  10.143   7.852  1.2301 -0.1229 -1.1322
  707MOL0     H95441   5.690  10.259   7.873 -0.3765 -2.6132 -0.7624
  707MOL0     H95442   5.738  10.335   7.160 -0.2528 -0.1754 -0.8591
  707MOL0     H95443   5.560  10.317   7.047  0.3650  1.3813 -2.7200
  707MOL0     H95444   5.618  10.216   6.916  2.1809  0.7254  1.2706
  707MOL0     H95445   5.474  10.168   7.030  0.3229 -0.0643  1.0425
  708MOL0     O95446   9.576   3.291   2.981 -1.2421 -0.8519  0.4889
  708MOL0     C95447   9.474   3.226   2.979  0.0273  0.6614  0.4998
  708MOL0     O95448   9.469   3.097   2.924 -0.0013 -0.1707 -0.1448
  708MOL0     C95449   9.570   3.038   2.854 -0.6142 -0.0044  0.7722
  708MOL0     C95450   9.652   3.108   2.764 -0.1694  0.7269 -0.5400
  708MOL0     C95451   9.755   3.053   2.692  0.1758  0.5022  0.7282
  708MOL0     C95452   9.790   2.922   2.715  1.3106 -0.9549  0.1667
  708MOL0     O95453   9.900   2.882   2.645 -0.3276  0.7094 -0.0876
  708MOL0     C95454   9.941   2.744   2.676  0.4458 -0.4299 -0.5209
  708MOL0     C95455  10.077   2.719   2.608  0.0660 -0.3906 -0.0186
  708MOL0     C95456  10.206   2.720   2.708  0.5994  0.8033 -0.5061
  708MOL0     C95457  10.333   2.662   2.637  0.2121 -0.4322 -0.9388
  708MOL0     C95458  10.366   2.756   2.522 -0.8425  0.0680 -0.3657
  708MOL0     C95459  10.514   2.760   2.467 -0.0333  0.0308 -0.4266
  708MOL0     C95460  10.522   2.828   2.328 -0.3288  0.2504  0.8111
  708MOL0     C95461  10.669   2.832   2.276  0.9069 -0.5045  0.4036
  708MOL0     N95462  10.662   2.846   2.133  0.0905  0.8303 -0.0671
  708MOL0     C95463  10.606   2.754   2.044 -0.5096  0.5985 -0.6613
  708MOL0     C95464  10.625   2.819   1.926  0.3654  0.3378 -0.5003
  708MOL0     C95465  10.611   2.735   1.792 -0.3137  0.3091 -1.0393
  708MOL0     C95466  10.535   2.818   1.688  0.3994  0.7728  0.7372
  708MOL0     C95467  10.636   2.897   1.598 -0.1817 -0.0361 -0.1529
  708MOL0     C95468  10.559   2.948   1.480 -0.2587 -0.0586  0.0598
  708MOL0     O95469  10.473   3.056   1.525  0.6335 -0.3447  0.3723
  708MOL0     C95470  10.406   3.113   1.415 -0.1899  0.0037 -1.0150
  708MOL0     C95471  10.418   3.084   1.286  0.2043 -0.6297  0.3574
  708MOL0     C95472  10.356   3.153   1.188 -0.0017  0.0562  0.2783
  708MOL0     C95473  10.264   3.257   1.219 -0.5984  0.0028  0.2215
  708MOL0     C95474  10.182   3.318   1.105  0.0977 -0.2989  0.5350
  708MOL0     O95475  10.118   3.435   1.137  0.7670  0.3856 -0.6230
  708MOL0     C95476  10.058   3.522   1.052  0.1532 -0.4125  0.3455
  708MOL0     C95477  10.019   3.643   1.105  0.6231 -0.1632 -0.3793
  708MOL0     C95478   9.952   3.741   1.030 -0.0618 -0.1499 -0.5762
  708MOL0     C95479   9.929   3.730   0.893  0.0360  0.2494 -0.6336
  708MOL0     O95480   9.867   3.811   0.807  1.2778 -0.0498 -0.7491
  708MOL0     C95481   9.831   3.944   0.848  0.0839  1.0170 -0.3860
  708MOL0     C95482   9.695   3.963   0.923 -0.2654  0.0455 -0.5858
  708MOL0     C95483   9.664   4.114   0.919  0.1434 -0.3346  0.2572
  708MOL0     C95484   9.524   4.159   0.973 -1.1874  0.2262  0.4126
  708MOL0     C95485   9.398   4.117   0.893 -0.2315  0.2649  0.1188
  708MOL0     C95486   9.389   4.200   0.762 -0.2711 -0.9640 -0.7350
  708MOL0     C95487   9.331   4.110   0.654 -0.5236  0.1212 -0.4233
  708MOL0     C95488   9.192   4.055   0.693 -0.4630  0.5114 -0.0343
  708MOL0    Cl95489   9.164   3.921   0.573 -0.3781  0.5278 -0.9104
  708MOL0     C95490   9.974   3.613   0.839  0.9968 -0.0158 -0.5775
  708MOL0     C95491  10.033   3.505   0.913  0.2373 -0.2149  0.0780
  708MOL0     O95492  10.177   3.265   0.993  0.5063 -1.2189  0.2703
  708MOL0     C95493  10.250   3.286   1.352 -0.8782 -0.2749 -0.2550
  708MOL0     C95494  10.325   3.221   1.446  0.6462 -0.9146 -0.1920
  708MOL0     N95495  10.649   2.950   1.954 -0.4044  0.2777  0.7102
  708MOL0     N95496  10.686   2.961   2.076 -0.7811 -0.8850  0.4194
  708MOL0     C95497   9.706   2.841   2.804  0.5388 -0.1594 -0.8167
  708MOL0     C95498   9.595   2.899   2.874  0.6541 -0.8833 -0.0839
  708MOL0     C95499   9.362   3.288   3.063 -0.4647  0.0668 -0.0214
  708MOL0     C95500   9.394   3.391   3.151 -1.1754 -0.2590  1.3974
  708MOL0     C95501   9.300   3.451   3.228  0.2547  0.2005  0.3532
  708MOL0     C95502   9.169   3.412   3.214 -0.3733 -0.2922 -0.0218
  708MOL0     O95503   9.066   3.472   3.281 -0.1662  0.1646  0.4158
  708MOL0     C95504   9.029   3.600   3.216 -0.4811  0.1128 -0.2840
  708MOL0     C95505   9.003   3.705   3.319 -0.1104 -0.6409 -0.2389
  708MOL0     C95506   9.129   3.737   3.410  0.2292  0.0974 -0.5860
  708MOL0     C95507   9.119   3.853   3.512 -0.4063 -0.4795  1.1705
  708MOL0     C95508   9.252   3.899   3.550  0.1509 -0.0060  0.5304
  708MOL0     C95509   9.351   3.936   3.605  1.2937 -0.1336  0.0824
  708MOL0     C95510   9.135   3.321   3.117 -0.3166 -0.8556  0.2903
  708MOL0     C95511   9.230   3.249   3.048  0.1728  0.1809  0.7073
  708MOL0     C95512   9.180   3.135   2.962  1.2874 -0.1901 -0.3465
  708MOL0     H95513   9.629   3.214   2.757  2.5612  1.7109  2.7822
  708MOL0     H95514   9.809   3.112   2.618 -0.0848  2.2793  1.9238
  708MOL0     H95515   9.934   2.718   2.782 -4.2295 -0.7055 -0.6748
  708MOL0     H95516   9.871   2.671   2.634  0.0535  0.9964 -2.5330
  708MOL0     H95517  10.094   2.799   2.534 -0.2579  1.1618  1.5209
  708MOL0     H95518  10.094   2.621   2.563  1.6684  0.3705 -1.1704
  708MOL0     H95519  10.185   2.660   2.797 -0.7253  0.7977 -0.7965
  708MOL0     H95520  10.224   2.824   2.736 -0.6065  0.8604  0.1374
  708MOL0     H95521  10.427   2.672   2.693  0.7875 -2.2027 -1.5279
  708MOL0     H95522  10.314   2.558   2.608 -2.2131 -0.4775  0.5869
  708MOL0     H95523  10.301   2.727   2.439 -1.4433 -2.4351  0.8691
  708MOL0     H95524  10.336   2.858   2.546 -0.6275  0.0501 -0.0119
  708MOL0     H95525  10.564   2.831   2.534 -2.7658  1.2282  0.5101
  708MOL0     H95526  10.555   2.659   2.466  1.4691  0.5461  1.6354
  708MOL0     H95527  10.489   2.932   2.319 -0.1985  0.2044 -0.2941
  708MOL0     H95528  10.460   2.780   2.251 -3.4495  2.7324  1.5913
  708MOL0     H95529  10.718   2.912   2.332 -0.6215 -0.9147  2.4683
  708MOL0     H95530  10.709   2.738   2.315 -2.6015 -2.5732 -0.5422
  708MOL0     H95531  10.583   2.650   2.067 -0.7011  1.1000  1.5397
  708MOL0     H95532  10.704   2.691   1.756 -0.1959 -1.4631  1.1858
  708MOL0     H95533  10.546   2.648   1.811 -0.7449  0.5821 -1.2500
  708MOL0     H95534  10.473   2.751   1.629  2.0383  0.3509 -0.5879
  708MOL0     H95535  10.473   2.897   1.731  0.1446  1.1224 -0.2415
  708MOL0     H95536  10.719   2.837   1.559 -0.4652 -1.9313  1.9747
  708MOL0     H95537  10.676   2.983   1.653 -1.1079  1.2024 -1.3259
  708MOL0     H95538  10.505   2.868   1.429 -1.3499  0.5604  0.2074
  708MOL0     H95539  10.622   2.990   1.401  1.0279 -2.6690 -0.3918
  708MOL0     H95540  10.477   3.001   1.251  1.2693  0.8794 -1.6564
  708MOL0     H95541  10.379   3.133   1.084 -0.6667  3.7951 -0.7196
  708MOL0     H95542  10.052   3.681   1.201  1.2508  2.7037 -1.6242
  708MOL0     H95543   9.910   3.829   1.078 -1.2134 -0.8550 -0.2371
  708MOL0     H95544   9.906   3.978   0.920  0.7129  0.9415 -0.9979
  708MOL0     H95545   9.840   4.009   0.760 -3.2743  3.3597  0.8003
  708MOL0     H95546   9.616   3.899   0.883  0.4132 -0.5396 -1.0154
  708MOL0     H95547   9.697   3.935   1.029 -2.0358 -0.3027 -0.6146
  708MOL0     H95548   9.741   4.160   0.982 -0.2449 -1.8995  1.9542
  708MOL0     H95549   9.676   4.149   0.816  2.0250  0.9981  0.8654
  708MOL0     H95550   9.525   4.267   0.984  1.3294  0.0908  2.7887
  708MOL0     H95551   9.511   4.113   1.072 -3.8443  0.9073  0.4531
  708MOL0     H95552   9.313   4.131   0.961 -1.1234 -0.1353 -0.8754
  708MOL0     H95553   9.406   4.010   0.872  2.0675  0.4074 -0.0195
  708MOL0     H95554   9.311   4.275   0.776  0.3551  0.1618 -2.9102
  708MOL0     H95555   9.480   4.253   0.732  0.2849 -0.2515  1.9491
  708MOL0     H95556   9.388   4.017   0.641  2.5760  1.3158  2.9048
  708MOL0     H95557   9.317   4.164   0.560  0.7092 -0.4875 -0.9859
  708MOL0     H95558   9.183   4.014   0.794  1.0885 -3.2915 -1.2820
  708MOL0     H95559   9.126   4.142   0.687  2.2136  2.8335  1.3053
  708MOL0     H95560   9.969   3.585   0.734  2.3681  1.5015 -1.0968
  708MOL0     H95561  10.048   3.407   0.870 -0.1620  0.2912 -1.2695
  708MOL0     H95562  10.189   3.370   1.385  0.3147 -0.2286  1.9836
  708MOL0     H95563  10.308   3.250   1.549 -0.6253 -1.4759 -0.2344
  708MOL0     H95564   9.727   2.739   2.832  2.4445  0.8194  1.6703
  708MOL0     H95565   9.541   2.833   2.941  0.8533  0.8097  1.8622
  708MOL0     H95566   9.491   3.438   3.160 -0.9790  1.8650 -5.7222
  708MOL0     H95567   9.332   3.533   3.292  1.3581  1.1213 -1.3164
  708MOL0     H95568   8.927   3.581   3.181 -1.6455  1.9106  1.8769
  708MOL0     H95569   9.083   3.634   3.126 -0.8372  0.3904 -0.3994
  708MOL0     H95570   8.932   3.656   3.386  0.4848  0.7666  1.5063
  708MOL0     H95571   8.965   3.790   3.263  0.4919 -1.4923 -2.0299
  708MOL0     H95572   9.208   3.755   3.337  0.3039 -0.5390 -0.6684
  708MOL0     H95573   9.158   3.649   3.468 -2.6885 -0.0649  0.8440
  708MOL0     H95574   9.064   3.933   3.461  1.7747  1.2445  1.3778
  708MOL0     H95575   9.062   3.831   3.603 -0.5279  1.1048  1.5138
  708MOL0     H95576   9.444   3.977   3.638  0.2640  2.4568 -0.0031
  708MOL0     H95577   9.030   3.292   3.119 -0.1808 -1.5187 -1.2027
  708MOL0     H95578   9.191   3.161   2.857  2.0726 -3.4708 -1.2097
  708MOL0     H95579   9.222   3.037   2.986  1.1001 -0.1860  0.0018
  708MOL0     H95580   9.072   3.132   2.980  1.2388  3.0870  0.4484
  709MOL0     O95581   5.418   8.630   3.345 -0.6384 -0.0543 -1.0894
  709MOL0     C95582   5.317   8.690   3.359  0.5240 -1.3368  0.4451
  709MOL0     O95583   5.234   8.718   3.256  0.4028 -1.5699  0.6153
  709MOL0     C95584   5.258   8.717   3.125 -0.5982  0.2748 -0.0387
  709MOL0     C95585   5.383   8.713   3.060 -0.3513  0.4357 -0.6922
  709MOL0     C95586   5.393   8.709   2.917 -0.4662 -0.1015 -0.5785
  709MOL0     C95587   5.276   8.710   2.836 -0.2562  0.0876  1.4111
  709MOL0     O95588   5.282   8.720   2.702 -0.3857  0.3935  0.1404
  709MOL0     C95589   5.228   8.841   2.654 -0.1320 -0.1412  0.2463
  709MOL0     C95590   5.263   8.846   2.508  0.5834  0.0505  0.0187
  709MOL0     C95591   5.214   8.977   2.445 -0.0766  0.3468  0.1642
  709MOL0     C95592   5.245   8.973   2.297  0.5945  0.0981  0.3586
  709MOL0     C95593   5.248   9.120   2.246  0.3753  0.4668  0.4975
  709MOL0     C95594   5.378   9.177   2.305  0.2372  0.4276 -0.2719
  709MOL0     C95595   5.425   9.289   2.200  1.0272 -0.4047 -0.5522
  709MOL0     C95596   5.566   9.343   2.253  0.4298 -0.3179  0.1091
  709MOL0     N95597   5.629   9.440   2.164  0.2012 -0.4783  0.1020
  709MOL0     C95598   5.609   9.575   2.178  0.5861 -0.1701 -0.3462
  709MOL0     C95599   5.685   9.628   2.077  0.2376 -0.2311  0.0861
  709MOL0     C95600   5.693   9.773   2.051  0.9316  0.1654 -0.0120
  709MOL0     C95601   5.648   9.801   1.905  0.2882  1.7591  0.3235
  709MOL0     C95602   5.599   9.940   1.885 -0.0214  1.5747 -0.7502
  709MOL0     C95603   5.557   9.958   1.747  0.1442  0.4711 -0.9702
  709MOL0     O95604   5.504  10.088   1.748 -0.2604  0.6161  0.5729
  709MOL0     C95605   5.593  10.200   1.736 -0.2169 -1.0171 -0.7954
  709MOL0     C95606   5.731  10.200   1.693  0.2567  0.0613  0.1134
  709MOL0     C95607   5.801  10.317   1.688 -0.2304 -0.9226 -0.4343
  709MOL0     C95608   5.743  10.437   1.733 -0.0424 -0.1711 -0.7073
  709MOL0     C95609   5.818  10.571   1.713  0.7603  0.8566  0.4906
  709MOL0     O95610   5.943  10.560   1.641 -0.4527 -0.1944 -0.4002
  709MOL0     C95611   5.998  10.679   1.607  0.0333 -0.1624 -0.7863
  709MOL0     C95612   6.114  10.720   1.665  0.0416 -0.3593 -0.6203
  709MOL0     C95613   6.165  10.847   1.634  0.2644  0.0801 -0.8848
  709MOL0     C95614   6.110  10.927   1.532 -0.3758 -0.2130  0.4105
  709MOL0     O95615   6.165  11.045   1.485 -0.4882 -0.3103  0.3557
  709MOL0     C95616   6.308  11.067   1.477 -0.2986  0.2970 -0.3843
  709MOL0     C95617   6.334  11.220   1.497 -0.5669 -0.0296  0.1436
  709MOL0     C95618   6.222  11.317   1.449 -0.7956  0.0556  0.4034
  709MOL0     C95619   6.171  11.406   1.571  0.4471  0.5135 -1.0243
  709MOL0     C95620   6.062  11.498   1.532 -0.0537  0.8247 -0.4031
  709MOL0     C95621   5.919  11.445   1.504 -0.5788  0.5388  0.1354
  709MOL0     C95622   5.811  11.560   1.507  0.3836  0.6193  0.2460
  709MOL0     C95623   5.789  11.630   1.639  1.5568  0.8981 -0.7849
  709MOL0    Cl95624   5.690  11.518   1.751 -0.4265 -0.5779  0.1998
  709MOL0     C95625   5.997  10.882   1.470 -0.4307 -0.1702  0.2689
  709MOL0     C95626   5.934  10.763   1.506 -0.6304 -0.1551  0.1303
  709MOL0     O95627   5.752  10.679   1.735 -0.4167  0.7148 -0.0089
  709MOL0     C95628   5.613  10.437   1.774  0.0552  0.3411 -0.5276
  709MOL0     C95629   5.538  10.318   1.782 -0.2802  0.5316  0.4435
  709MOL0     N95630   5.739   9.531   2.005 -0.0993 -0.0285  0.1148
  709MOL0     N95631   5.699   9.413   2.049  0.3318 -1.0118 -0.1184
  709MOL0     C95632   5.154   8.711   2.906 -0.4609  0.1715 -0.1778
  709MOL0     C95633   5.140   8.709   3.045  0.0377 -0.5295 -0.7708
  709MOL0     C95634   5.262   8.719   3.495 -0.2733 -1.0055  0.9805
  709MOL0     C95635   5.127   8.717   3.527  0.1867  0.6970 -0.0194
  709MOL0     C95636   5.064   8.764   3.646 -0.3565 -0.8329 -0.2441
  709MOL0     C95637   5.149   8.822   3.736  0.3352  0.5390 -1.0960
  709MOL0     O95638   5.079   8.865   3.844 -0.2888 -0.7487  0.4215
  709MOL0     C95639   5.147   8.944   3.940 -0.1912 -0.5458  0.1567
  709MOL0     C95640   5.045   9.013   4.035  0.2093 -0.5630  0.5910
  709MOL0     C95641   4.960   9.107   3.955  0.3145 -0.2313  0.3384
  709MOL0     C95642   4.907   9.225   4.046 -0.0011  0.1167 -0.7127
  709MOL0     C95643   4.852   9.340   3.962 -0.1960 -0.7931 -0.8035
  709MOL0     C95644   4.819   9.418   3.874 -0.6169 -1.1345 -0.2037
  709MOL0     C95645   5.293   8.824   3.720 -0.2432  0.3381 -0.1319
  709MOL0     C95646   5.347   8.767   3.594 -0.7011  0.3430 -0.3902
  709MOL0     C95647   5.501   8.771   3.581  0.0946 -0.2419 -0.7247
  709MOL0     H95648   5.473   8.714   3.121 -3.1112 -2.3023  3.9527
  709MOL0     H95649   5.491   8.725   2.874 -0.8768  3.9871 -0.4300
  709MOL0     H95650   5.120   8.856   2.668  0.3666  2.9397  1.6389
  709MOL0     H95651   5.272   8.927   2.705  3.2055 -1.7607  0.3651
  709MOL0     H95652   5.224   8.753   2.465  3.1211 -2.0902  2.0050
  709MOL0     H95653   5.370   8.829   2.499  0.9052  0.9881  1.6212
  709MOL0     H95654   5.277   9.049   2.498  2.0586 -0.3127 -1.3161
  709MOL0     H95655   5.107   8.994   2.458 -0.7271 -1.4987 -2.1660
  709MOL0     H95656   5.341   8.927   2.271  1.4161  2.6258 -1.5757
  709MOL0     H95657   5.167   8.927   2.235  0.6154 -1.1383  1.2178
  709MOL0     H95658   5.249   9.116   2.137  4.8191  3.0214  0.2082
  709MOL0     H95659   5.160   9.179   2.273  1.0233  2.8737 -2.2124
  709MOL0     H95660   5.369   9.208   2.409  0.7418 -2.4297  0.7083
  709MOL0     H95661   5.454   9.098   2.308  1.2917  1.3616 -1.1426
  709MOL0     H95662   5.361   9.377   2.205 -1.1227 -1.9075 -0.1990
  709MOL0     H95663   5.431   9.254   2.097 -0.3972  2.4775 -1.6910
  709MOL0     H95664   5.563   9.392   2.351  3.5512 -2.3141  1.3570
  709MOL0     H95665   5.638   9.262   2.271  1.4150 -0.0551 -2.2409
  709MOL0     H95666   5.545   9.617   2.254  1.9208 -0.6644  1.1037
  709MOL0     H95667   5.620   9.828   2.111  1.8674  1.3102  0.0960
  709MOL0     H95668   5.794   9.812   2.061  1.2660 -0.7369  0.1468
  709MOL0     H95669   5.722   9.767   1.831  1.2871 -0.3467  2.1632
  709MOL0     H95670   5.564   9.734   1.882  1.2899  0.6020 -0.0774
  709MOL0     H95671   5.683  10.005   1.912  1.3762 -1.2523  2.4038
  709MOL0     H95672   5.511   9.954   1.949 -0.9440 -0.0086 -1.6193
  709MOL0     H95673   5.470   9.893   1.730 -2.3208  2.2814  3.1752
  709MOL0     H95674   5.637   9.947   1.673  1.1905  1.8248 -0.0906
  709MOL0     H95675   5.790  10.115   1.661  2.7222  1.3602  0.9472
  709MOL0     H95676   5.907  10.320   1.664 -0.1494  3.3280 -0.2901
  709MOL0     H95677   6.154  10.659   1.746  0.8606  3.6202  2.2671
  709MOL0     H95678   6.262  10.876   1.674  0.1171  0.7622 -1.0091
  709MOL0     H95679   6.368  11.006   1.545 -0.7116  1.6195  1.2447
  709MOL0     H95680   6.340  11.035   1.377 -1.2846 -2.0397 -0.0369
  709MOL0     H95681   6.364  11.231   1.602  0.4108  0.2849 -0.1536
  709MOL0     H95682   6.423  11.240   1.436 -1.0450 -2.5884 -1.5561
  709MOL0     H95683   6.251  11.392   1.374 -2.4921 -0.0615 -0.4109
  709MOL0     H95684   6.140  11.260   1.404  0.1676 -1.5044  0.5609
  709MOL0     H95685   6.252  11.473   1.599  3.2473 -1.5977 -3.4734
  709MOL0     H95686   6.147  11.344   1.657 -0.3702  5.9218  3.1680
  709MOL0     H95687   6.105  11.558   1.452  3.5671 -0.7639  0.1720
  709MOL0     H95688   6.059  11.573   1.612  3.7953  0.6528  0.0499
  709MOL0     H95689   5.925  11.393   1.408 -2.1553 -0.9730  0.8033
  709MOL0     H95690   5.893  11.367   1.576 -4.0861  0.2885 -1.2349
  709MOL0     H95691   5.711  11.517   1.495  0.1815  0.9405  0.7503
  709MOL0     H95692   5.831  11.626   1.422 -2.0828  0.1401 -0.7805
  709MOL0     H95693   5.884  11.659   1.685  0.8402 -0.5837  1.8242
  709MOL0     H95694   5.713  11.708   1.621 -2.0618 -2.7377 -2.9709
  709MOL0     H95695   5.973  10.939   1.381 -1.6493  0.4345  0.9575
  709MOL0     H95696   5.847  10.732   1.449  0.4100 -0.4514 -1.3239
  709MOL0     H95697   5.567  10.526   1.816 -1.1869 -0.1097 -0.9162
  709MOL0     H95698   5.438  10.317   1.824 -0.4197  1.4324  0.1641
  709MOL0     H95699   5.063   8.695   2.849  0.2487  1.7081 -1.8219
  709MOL0     H95700   5.044   8.712   3.094 -1.6181  2.4583 -3.7381
  709MOL0     H95701   5.066   8.661   3.457  0.7666 -0.4925  0.3988
  709MOL0     H95702   4.957   8.764   3.660 -0.2486 -1.8929  0.6698
  709MOL0     H95703   5.208   9.021   3.890  0.7035 -0.7750  0.8676
  709MOL0     H95704   5.213   8.878   3.998  0.5793 -1.1555 -1.3492
  709MOL0     H95705   5.089   9.070   4.117  1.5514  1.7267 -1.5820
  709MOL0     H95706   4.972   8.946   4.081 -2.0512  1.2457 -0.1774
  709MOL0     H95707   4.870   9.050   3.928  0.2776  0.6364 -1.5125
  709MOL0     H95708   5.014   9.139   3.865  0.8426  2.7584  1.6210
  709MOL0     H95709   4.837   9.182   4.119  0.5097  0.3439 -0.0831
  709MOL0     H95710   4.996   9.273   4.087 -0.1244  1.6316 -2.1503
  709MOL0     H95711   4.803   9.479   3.787  0.6393  3.3351  2.3819
  709MOL0     H95712   5.360   8.853   3.800  0.4487 -0.0073 -0.5683
  709MOL0     H95713   5.526   8.836   3.498 -1.5450 -4.0599 -4.5894
  709MOL0     H95714   5.538   8.829   3.666  0.5871  1.5920 -2.1402
  709MOL0     H95715   5.537   8.668   3.576 -3.0585 -1.6936  1.9010
  710MOL0     O95716   9.647   6.654   4.619 -0.3416 -0.5615  0.0686
  710MOL0     C95717   9.555   6.652   4.538  0.7323 -0.7463 -0.0501
  710MOL0     O95718   9.482   6.552   4.499  0.5521  0.6207  0.4587
  710MOL0     C95719   9.501   6.437   4.561  0.1257  0.8227 -0.1517
  710MOL0     C95720   9.559   6.328   4.500 -0.2461 -0.4412  0.6192
  710MOL0     C95721   9.565   6.207   4.565 -0.5872  0.2263  1.1997
  710MOL0     C95722   9.521   6.199   4.699  0.4009 -0.3662  0.2939
  710MOL0     O95723   9.523   6.073   4.750 -0.2098  0.0066 -0.6349
  710MOL0     C95724   9.472   6.066   4.892 -0.5544 -0.8180 -0.1100
  710MOL0     C95725   9.507   5.928   4.944 -0.1158  1.7480 -0.3090
  710MOL0     C95726   9.473   5.931   5.099  0.3760 -0.0233 -0.5050
  710MOL0     C95727   9.320   5.896   5.121  0.9672  0.2258  0.0604
  710MOL0     C95728   9.279   5.945   5.257 -0.5485 -0.1655  0.0836
  710MOL0     C95729   9.218   6.082   5.274 -0.5402  0.3565  0.7507
  710MOL0     C95730   9.078   6.090   5.207 -0.8731  0.7810  0.7414
  710MOL0     C95731   9.027   6.233   5.218  0.8741 -0.1700  0.9537
  710MOL0     N95732   9.064   6.314   5.100 -0.1306  0.5056  0.4672
  710MOL0     C95733   8.980   6.349   4.991 -0.2962  0.3954 -1.2478
  710MOL0     C95734   9.072   6.380   4.891  1.2891 -0.3591  0.6685
  710MOL0     C95735   9.031   6.378   4.753  0.2231  0.2426  0.3001
  710MOL0     C95736   8.968   6.521   4.716 -0.1048 -0.3449  0.1612
  710MOL0     C95737   9.074   6.628   4.700  0.8325  0.4060 -0.3818
  710MOL0     C95738   8.994   6.759   4.696  0.0126  1.4436 -0.7871
  710MOL0     O95739   9.088   6.861   4.680 -0.1652  0.2060  0.2603
  710MOL0     C95740   9.031   6.975   4.641  0.2582 -0.3452  0.8498
  710MOL0     C95741   8.922   7.039   4.701  0.6500  0.3329 -1.6037
  710MOL0     C95742   8.879   7.171   4.660 -0.3522  1.4053 -0.2304
  710MOL0     C95743   8.942   7.233   4.555 -1.2143  0.5403  0.8706
  710MOL0     C95744   8.902   7.362   4.511 -0.0100 -0.6024  1.3012
  710MOL0     O95745   8.930   7.389   4.376  0.0039  0.0407 -0.2491
  710MOL0     C95746   8.924   7.513   4.309 -0.7423 -0.6900 -0.1632
  710MOL0     C95747   8.840   7.614   4.344  0.4089 -0.2683 -0.2283
  710MOL0     C95748   8.849   7.729   4.269  0.6772 -0.4136  0.4671
  710MOL0     C95749   8.953   7.760   4.184 -0.0812  0.4803 -0.0428
  710MOL0     O95750   8.983   7.875   4.124  0.5522 -0.2091 -0.5762
  710MOL0     C95751   8.897   7.992   4.143 -0.9678  0.0163  0.1498
  710MOL0     C95752   8.969   8.114   4.093  0.5798 -0.3897  0.5324
  710MOL0     C95753   8.866   8.229   4.066  0.4353 -0.6612 -0.1764
  710MOL0     C95754   8.841   8.343   4.174 -0.0540 -0.2269  0.0986
  710MOL0     C95755   8.787   8.286   4.298 -0.1533 -0.9979 -0.2176
  710MOL0     C95756   8.756   8.395   4.402  0.2297 -0.9590 -0.4089
  710MOL0     C95757   8.611   8.410   4.443  0.2204 -0.3335  0.4905
  710MOL0     C95758   8.591   8.487   4.574  0.6346  0.4989 -0.5590
  710MOL0    Cl95759   8.676   8.411   4.709 -0.5738  0.5498  0.2170
  710MOL0     C95760   9.044   7.662   4.165 -1.2462  0.1827  0.0188
  710MOL0     C95761   9.029   7.537   4.226  0.0797 -0.7228 -1.4186
  710MOL0     O95762   8.833   7.438   4.583 -0.3649  0.1118  0.8425
  710MOL0     C95763   9.038   7.158   4.472  0.6178 -0.5054 -0.8973
  710MOL0     C95764   9.093   7.039   4.520 -0.2121 -0.2971  0.0405
  710MOL0     N95765   9.198   6.370   4.938 -0.5098  0.5781 -0.5275
  710MOL0     N95766   9.194   6.344   5.061 -0.8504  0.3941 -0.8243
  710MOL0     C95767   9.472   6.313   4.762 -0.0263  0.4208 -0.6715
  710MOL0     C95768   9.450   6.420   4.689  1.1493 -0.0378 -0.0803
  710MOL0     C95769   9.524   6.791   4.493  0.8198  0.6313  0.2470
  710MOL0     C95770   9.469   6.883   4.581 -0.2442  0.2875 -0.2508
  710MOL0     C95771   9.460   7.015   4.548 -1.0074  0.1772 -0.3607
  710MOL0     C95772   9.485   7.051   4.415  0.5214  0.6916  1.1847
  710MOL0     O95773   9.487   7.179   4.364 -0.1655 -0.2386 -0.1412
  710MOL0     C95774   9.463   7.296   4.453 -0.1282  0.5383 -0.3739
  710MOL0     C95775   9.427   7.421   4.381 -1.3815  0.4283  0.0066
  710MOL0     C95776   9.564   7.482   4.335  0.1866 -0.3027  0.4321
  710MOL0     C95777   9.550   7.530   4.193 -1.3862 -0.1809  0.4510
  710MOL0     C95778   9.657   7.624   4.158 -1.0823 -0.8602  1.1670
  710MOL0     C95779   9.751   7.701   4.138 -0.4238 -0.1377  0.6613
  710MOL0     C95780   9.530   6.958   4.322  0.7404 -0.7328  0.4815
  710MOL0     C95781   9.554   6.822   4.361 -0.6757 -0.2639  0.2785
  710MOL0     C95782   9.612   6.716   4.265  0.2802 -0.5347 -0.1065
  710MOL0     H95783   9.600   6.335   4.400 -0.3055 -0.3056  0.6040
  710MOL0     H95784   9.603   6.123   4.507 -0.0732  2.6492 -2.2857
  710MOL0     H95785   9.527   6.141   4.950 -1.6885  0.6878 -0.9024
  710MOL0     H95786   9.364   6.077   4.886 -0.5950 -1.3685 -0.4088
  710MOL0     H95787   9.614   5.909   4.934 -0.3540 -0.2782  0.3729
  710MOL0     H95788   9.455   5.848   4.890  0.7409 -1.2996  3.0269
  710MOL0     H95789   9.488   6.028   5.149 -2.2790 -1.5094  3.8071
  710MOL0     H95790   9.538   5.873   5.165  1.1504  1.6507  0.2678
  710MOL0     H95791   9.273   5.960   5.046  4.4318  1.5041 -1.2603
  710MOL0     H95792   9.297   5.790   5.107 -1.0680  0.6907 -0.4434
  710MOL0     H95793   9.210   5.878   5.310 -1.5763  2.7443  2.7085
  710MOL0     H95794   9.365   5.941   5.325  0.4460  0.0210 -1.1292
  710MOL0     H95795   9.219   6.117   5.378 -0.1249  2.3877  0.1031
  710MOL0     H95796   9.286   6.144   5.215 -0.7596  0.0756  0.1975
  710MOL0     H95797   9.013   6.012   5.248 -0.7754 -0.1729 -0.8252
  710MOL0     H95798   9.087   6.062   5.101  0.3897  2.5526  0.3293
  710MOL0     H95799   8.917   6.237   5.222  0.7730 -1.7892  0.4007
  710MOL0     H95800   9.065   6.292   5.301 -0.5633 -0.7303  2.0587
  710MOL0     H95801   8.873   6.331   4.988 -0.8599  2.3537  2.1757
  710MOL0     H95802   9.120   6.360   4.691  1.4375  2.3026  1.3200
  710MOL0     H95803   8.953   6.303   4.744 -0.1317  0.6447 -0.0102
  710MOL0     H95804   8.904   6.511   4.629 -0.4796 -0.9851  0.5016
  710MOL0     H95805   8.900   6.544   4.799  0.4974 -1.5818  1.0341
  710MOL0     H95806   9.130   6.621   4.607 -0.7138  2.0390 -1.4907
  710MOL0     H95807   9.126   6.612   4.796 -2.7043 -0.3166  1.5941
  710MOL0     H95808   8.920   6.762   4.777 -1.5105 -2.6811 -1.7465
  710MOL0     H95809   8.939   6.748   4.602 -1.4172 -0.8955  0.2244
  710MOL0     H95810   8.873   6.991   4.785  0.6522 -0.7623 -2.2084
  710MOL0     H95811   8.797   7.220   4.712  0.6517  2.3578  0.4989
  710MOL0     H95812   8.758   7.596   4.413  0.3354  1.3012  0.1269
  710MOL0     H95813   8.768   7.800   4.284  0.7143  0.0768 -1.4473
  710MOL0     H95814   8.814   7.965   4.078  1.4177 -0.3095 -3.0331
  710MOL0     H95815   8.864   8.002   4.247 -3.3904  0.6162 -0.6250
  710MOL0     H95816   9.045   8.147   4.164 -0.0283  0.3324  0.8589
  710MOL0     H95817   9.032   8.080   4.010  0.2371 -3.3255  1.3453
  710MOL0     H95818   8.915   8.272   3.978  1.2910  0.3732  0.7856
  710MOL0     H95819   8.777   8.189   4.016  2.9883 -4.5931 -2.1650
  710MOL0     H95820   8.774   8.417   4.129  0.9059  0.2244 -0.6337
  710MOL0     H95821   8.937   8.388   4.200 -0.4181 -0.3382  1.7652
  710MOL0     H95822   8.866   8.225   4.342 -0.1834  1.2077  3.3164
  710MOL0     H95823   8.696   8.227   4.281 -0.6548 -0.7638  1.4896
  710MOL0     H95824   8.812   8.365   4.492  0.9947 -0.4153 -0.6883
  710MOL0     H95825   8.796   8.493   4.374  0.5757  0.3479  3.8901
  710MOL0     H95826   8.564   8.313   4.462  3.1228 -1.8970  0.3615
  710MOL0     H95827   8.552   8.459   4.366  1.5499  1.7171  0.7120
  710MOL0     H95828   8.634   8.587   4.577 -0.7291  1.0960 -0.4775
  710MOL0     H95829   8.489   8.508   4.607 -0.5524 -2.3745 -2.0081
  710MOL0     H95830   9.133   7.666   4.103  0.3061 -1.0160  2.0163
  710MOL0     H95831   9.105   7.464   4.200 -0.9226 -0.6672 -5.0199
  710MOL0     H95832   9.061   7.205   4.377  0.6308  1.7392  0.1597
  710MOL0     H95833   9.172   6.994   4.461  0.9147 -0.7565  1.8340
  710MOL0     H95834   9.435   6.315   4.864 -0.5628  1.0356 -0.8744
  710MOL0     H95835   9.392   6.490   4.748 -1.2324 -3.3495  1.7917
  710MOL0     H95836   9.430   6.833   4.669  3.0140 -0.7225  0.7793
  710MOL0     H95837   9.445   7.084   4.631  0.7271  1.0328 -0.7175
  710MOL0     H95838   9.546   7.310   4.523  0.0975 -0.1232 -0.5052
  710MOL0     H95839   9.377   7.276   4.518 -0.3746  1.1884 -0.4912
  710MOL0     H95840   9.366   7.479   4.451 -0.7687  0.4665  0.5138
  710MOL0     H95841   9.360   7.402   4.297  0.3889 -2.2883 -0.9295
  710MOL0     H95842   9.650   7.422   4.365  1.0412  1.4864  1.7613
  710MOL0     H95843   9.587   7.575   4.387  0.1098  0.5166 -0.9497
  710MOL0     H95844   9.572   7.440   4.134 -1.6967 -1.6174  2.4296
  710MOL0     H95845   9.453   7.574   4.170  0.5981  3.5472 -1.7011
  710MOL0     H95846   9.831   7.771   4.126  1.9440 -2.7376  0.1906
  710MOL0     H95847   9.541   6.989   4.219  0.6450  3.5721  1.5951
  710MOL0     H95848   9.721   6.718   4.276  0.6097 -1.8222 -2.5214
  710MOL0     H95849   9.589   6.611   4.286  1.5839 -1.2499 -1.9814
  710MOL0     H95850   9.581   6.736   4.162  0.6424  0.7973  0.0302
  711MOL0     O95851  10.277   8.399  10.645  0.3178  0.3947 -0.3052
  711MOL0     C95852  10.380   8.380  10.705 -0.6002 -0.6913  0.6464
  711MOL0     O95853  10.399   8.291  10.809 -0.6735  0.3521  0.8410
  711MOL0     C95854  10.305   8.191  10.819  0.5191 -0.1877 -0.3534
  711MOL0     C95855  10.203   8.219  10.919 -0.0992  0.6977 -0.0885
  711MOL0     C95856  10.104   8.115  10.927  0.7305 -0.5808  0.1641
  711MOL0     C95857  10.099   8.003  10.846 -1.1374 -0.3000 -0.1147
  711MOL0     O95858   9.995   7.913  10.855  0.3554  0.0338  0.3613
  711MOL0     C95859   9.859   7.968  10.860 -0.6222  0.7030  0.0696
  711MOL0     C95860   9.774   7.848  10.836  1.2779 -1.6058 -0.3058
  711MOL0     C95861   9.793   7.746  10.946  0.1576 -0.5429  0.3215
  711MOL0     C95862   9.673   7.651  10.952  0.1399 -0.5139  0.7263
  711MOL0     C95863   9.563   7.697  11.044  0.0011 -0.9208 -0.8922
  711MOL0     C95864   9.435   7.619  11.031 -0.0523 -0.6957  0.2463
  711MOL0     C95865   9.454   7.471  11.051 -0.8104 -0.3209 -0.5256
  711MOL0     C95866   9.460   7.446  11.203 -0.2484  0.3313 -0.1952
  711MOL0     N95867   9.465   7.298  11.225  0.3290 -0.4690 -0.5416
  711MOL0     C95868   9.369   7.233  11.301 -0.2833 -1.3598 -0.5859
  711MOL0     C95869   9.411   7.108  11.305  0.5914  0.3287 -0.3346
  711MOL0     C95870   9.311   6.999  11.357  0.1330 -0.2645  0.4288
  711MOL0     C95871   9.385   6.862  11.358 -0.3221 -0.1033 -0.4130
  711MOL0     C95872   9.361   6.794  11.224  0.1517  0.3580 -0.2951
  711MOL0     C95873   9.461   6.678  11.203  0.4718  0.5684 -0.0988
  711MOL0     O95874   9.443   6.604  11.082  0.6893  0.7705  0.0216
  711MOL0     C95875   9.521   6.501  11.037  0.5597  0.1770 -0.0273
  711MOL0     C95876   9.495   6.445  10.911  0.3004 -0.6258 -0.0372
  711MOL0     C95877   9.574   6.342  10.854 -0.3203 -0.7592 -1.3409
  711MOL0     C95878   9.671   6.297  10.945  0.0609  0.2768  1.3743
  711MOL0     C95879   9.775   6.195  10.890  0.3494 -0.2678  0.6471
  711MOL0     O95880   9.871   6.149  10.974  0.0088 -0.4334 -0.2862
  711MOL0     C95881   9.958   6.059  10.927 -0.8615  1.0837  0.7639
  711MOL0     C95882   9.934   5.925  10.917  1.0603 -0.8706 -0.2887
  711MOL0     C95883  10.021   5.837  10.854 -0.1188 -0.2149 -1.3227
  711MOL0     C95884  10.142   5.876  10.801  0.0790  1.0003  0.0148
  711MOL0     O95885  10.230   5.789  10.732  0.1191 -0.1178 -0.4626
  711MOL0     C95886  10.232   5.658  10.802  0.0355 -0.3882  0.5300
  711MOL0     C95887  10.163   5.557  10.705  0.2985 -0.3775  0.1153
  711MOL0     C95888  10.171   5.418  10.770 -0.3559 -1.4128 -0.0562
  711MOL0     C95889  10.096   5.313  10.691  0.0922 -0.4577 -0.2089
  711MOL0     C95890  10.121   5.178  10.754 -0.5338 -0.4447  0.9170
  711MOL0     C95891  10.068   5.062  10.668  0.2897  0.2881 -0.7155
  711MOL0     C95892  10.076   4.917  10.714  0.8651  0.0255 -0.6853
  711MOL0     C95893   9.990   4.819  10.630 -0.5819 -0.7573 -0.8880
  711MOL0    Cl95894  10.042   4.830  10.461 -0.2693  0.0436 -0.0840
  711MOL0     C95895  10.173   6.009  10.823  0.8622  0.9369  0.5096
  711MOL0     C95896  10.078   6.101  10.871 -0.6006 -0.0313 -0.5007
  711MOL0     O95897   9.770   6.168  10.763  0.9200  0.5385 -0.8934
  711MOL0     C95898   9.685   6.340  11.077  0.4525  0.5455  0.2488
  711MOL0     C95899   9.619   6.451  11.121  0.7513  0.2675  0.2632
  711MOL0     N95900   9.530   7.097  11.230 -0.1431  0.4992 -1.2165
  711MOL0     N95901   9.558   7.211  11.183 -0.6418 -0.1303  0.5186
  711MOL0     C95902  10.200   7.981  10.751 -1.2635 -0.8569 -0.7395
  711MOL0     C95903  10.309   8.081  10.737  1.0040  0.6426  0.9555
  711MOL0     C95904  10.510   8.454  10.660  0.0913  0.3562 -0.6204
  711MOL0     C95905  10.616   8.374  10.622 -0.2069 -0.1793 -0.7315
  711MOL0     C95906  10.724   8.441  10.573  0.0688  0.8900 -0.0911
  711MOL0     C95907  10.733   8.585  10.561  0.7296  0.3439 -1.0217
  711MOL0     O95908  10.837   8.658  10.547 -0.4506 -0.1356  0.3513
  711MOL0     C95909  10.961   8.592  10.515  0.4408 -0.2439 -0.7587
  711MOL0     C95910  11.071   8.690  10.487  0.3999 -0.4896  0.0998
  711MOL0     C95911  11.198   8.607  10.442 -0.1856 -0.0604  0.6005
  711MOL0     C95912  11.197   8.568  10.290 -0.2711  0.2845  0.9091
  711MOL0     C95913  11.300   8.463  10.276 -0.6673  0.0542  1.4448
  711MOL0     C95914  11.393   8.385  10.254 -0.1188  0.0764  0.1384
  711MOL0     C95915  10.618   8.656  10.596  0.0312  0.0354  0.1212
  711MOL0     C95916  10.503   8.594  10.644 -0.1622 -0.0403 -0.4844
  711MOL0     C95917  10.396   8.681  10.687 -0.0714  1.2221 -0.5752
  711MOL0     H95918  10.195   8.311  10.977  1.1541  0.4028  0.5860
  711MOL0     H95919  10.023   8.143  10.993 -0.8226 -0.9061 -1.5202
  711MOL0     H95920   9.844   8.008  10.960  1.5242  1.1786  0.2557
  711MOL0     H95921   9.834   8.038  10.780  0.0740  1.4717  0.5069
  711MOL0     H95922   9.803   7.813  10.736 -0.9886  1.5984 -2.2530
  711MOL0     H95923   9.671   7.877  10.814  1.8118  1.4330  0.8480
  711MOL0     H95924   9.815   7.792  11.043 -1.7162  0.6119  0.2690
  711MOL0     H95925   9.873   7.684  10.907  1.0050  0.4479  0.4381
  711MOL0     H95926   9.634   7.634  10.851 -0.4726  3.5280  0.1156
  711MOL0     H95927   9.711   7.556  10.990  0.8399 -0.9403 -0.9777
  711MOL0     H95928   9.604   7.696  11.145  1.5487 -1.6772 -1.5022
  711MOL0     H95929   9.539   7.800  11.016  0.7702 -0.9881 -1.8407
  711MOL0     H95930   9.361   7.659  11.102 -0.2776 -1.0036  0.1889
  711MOL0     H95931   9.395   7.635  10.930  3.2531 -0.3037 -1.1047
  711MOL0     H95932   9.548   7.429  11.014  1.0877 -0.3266  3.6376
  711MOL0     H95933   9.368   7.425  11.002 -3.3241  2.5579  0.8655
  711MOL0     H95934   9.546   7.502  11.241 -1.5891  2.2139  0.2442
  711MOL0     H95935   9.365   7.469  11.253 -0.7731 -0.6868 -0.6980
  711MOL0     H95936   9.282   7.266  11.357  0.7009  1.1281 -0.3825
  711MOL0     H95937   9.275   7.021  11.458  0.0446 -3.0463  1.1028
  711MOL0     H95938   9.223   6.997  11.291  2.0289  0.5240 -2.2950
  711MOL0     H95939   9.491   6.876  11.381 -0.6796  1.3028  0.4411
  711MOL0     H95940   9.334   6.805  11.437  1.0157 -0.8702 -0.0684
  711MOL0     H95941   9.383   6.867  11.146 -2.1972 -1.1419 -2.4955
  711MOL0     H95942   9.259   6.764  11.200  0.0875 -0.3353  0.7690
  711MOL0     H95943   9.453   6.625  11.298 -0.9896  0.1981 -0.4018
  711MOL0     H95944   9.557   6.730  11.200  1.2369 -0.2046  4.3853
  711MOL0     H95945   9.412   6.476  10.848  1.2193 -0.7030 -1.3308
  711MOL0     H95946   9.558   6.322  10.749  0.4864  0.6824 -1.7604
  711MOL0     H95947   9.828   5.907  10.933  0.6398  1.0336 -0.6083
  711MOL0     H95948   9.997   5.732  10.842 -1.0510 -0.3443  1.1466
  711MOL0     H95949  10.336   5.625  10.811  0.2238  0.0289 -0.0406
  711MOL0     H95950  10.184   5.655  10.900 -0.6302 -1.2084  0.1825
  711MOL0     H95951  10.055   5.573  10.693 -0.6675 -4.3890  1.7419
  711MOL0     H95952  10.203   5.559  10.603  1.6265 -0.2965  0.6280
  711MOL0     H95953  10.274   5.389  10.790  0.6981  0.5843 -2.0891
  711MOL0     H95954  10.117   5.438  10.863  1.6171  3.0893  0.4007
  711MOL0     H95955  10.127   5.314  10.586 -0.2017  0.2999 -0.2948
  711MOL0     H95956   9.989   5.337  10.693 -0.5793 -3.1356  1.9977
  711MOL0     H95957  10.068   5.180  10.850  0.1131  0.9634  1.2725
  711MOL0     H95958  10.229   5.160  10.762 -0.6798 -1.9287 -0.1245
  711MOL0     H95959   9.962   5.085  10.657 -0.5516  0.5859  4.8627
  711MOL0     H95960  10.116   5.068  10.570  3.4844  1.4704  0.7826
  711MOL0     H95961  10.054   4.914  10.821 -0.4127  2.4062 -0.8151
  711MOL0     H95962  10.173   4.867  10.712  0.7197 -0.5712  2.3967
  711MOL0     H95963   9.993   4.720  10.675 -2.9830 -0.6644 -0.3985
  711MOL0     H95964   9.881   4.831  10.628 -0.5584 -0.5254 -2.2243
  711MOL0     H95965  10.269   6.044  10.788  0.5711  1.0951 -0.1427
  711MOL0     H95966  10.128   6.197  10.884  1.2448 -0.8283 -1.3344
  711MOL0     H95967   9.755   6.279  11.134  0.1947 -1.1146 -1.1084
  711MOL0     H95968   9.618   6.486  11.223 -1.6006 -1.9932  1.1242
  711MOL0     H95969  10.199   7.889  10.694  1.3112 -2.8511  2.0993
  711MOL0     H95970  10.389   8.068  10.665 -1.4873  1.6450 -2.2092
  711MOL0     H95971  10.606   8.266  10.622  0.7606 -0.3009 -2.4415
  711MOL0     H95972  10.803   8.373  10.544 -0.1575  2.0909 -4.1740
  711MOL0     H95973  10.940   8.523  10.432 -5.4452  1.0326 -0.7735
  711MOL0     H95974  10.991   8.530  10.599  0.5818  1.3228  0.3868
  711MOL0     H95975  11.088   8.750  10.578 -1.3362  1.0748 -0.5389
  711MOL0     H95976  11.040   8.764  10.413  1.0879 -0.1178  0.1628
  711MOL0     H95977  11.223   8.520  10.504  0.8842 -0.9614 -0.9821
  711MOL0     H95978  11.292   8.663  10.444  0.5214 -1.2379  1.3029
  711MOL0     H95979  11.102   8.521  10.263 -0.2108 -0.7491  2.3606
  711MOL0     H95980  11.220   8.659  10.234 -0.7593 -0.3055 -0.2743
  711MOL0     H95981  11.479   8.324  10.237  0.4369  1.5243 -2.9899
  711MOL0     H95982  10.619   8.762  10.577 -3.4261  0.1948  0.1140
  711MOL0     H95983  10.424   8.786  10.672 -0.0242  0.9705 -2.4734
  711MOL0     H95984  10.309   8.668  10.622  0.3101  2.0366 -1.2696
  711MOL0     H95985  10.368   8.659  10.790  0.4176  1.5364 -0.3721
  712MOL0     O95986   7.747   6.214   0.836 -0.6418 -0.0212  0.1893
  712MOL0     C95987   7.793   6.102   0.853  0.1275 -0.0086  0.5829
  712MOL0     O95988   7.815   6.010   0.750  0.8084  0.1014  0.2163
  712MOL0     C95989   7.805   6.052   0.627 -0.6368 -0.7589 -1.3321
  712MOL0     C95990   7.707   5.996   0.550 -0.0331  0.2220 -0.6387
  712MOL0     C95991   7.689   6.021   0.416 -0.0927 -0.1730  0.8831
  712MOL0     C95992   7.782   6.108   0.347 -0.4552  0.6977 -1.1541
  712MOL0     O95993   7.781   6.150   0.223  0.3010 -1.0308 -0.3078
  712MOL0     C95994   7.664   6.121   0.151  0.4311  0.4111  0.2783
  712MOL0     C95995   7.677   6.185   0.008 -0.3203  0.4044  0.5922
  712MOL0     C95996   7.566   6.127  -0.082 -0.2872 -0.4242 -0.2105
  712MOL0     C95997   7.589   6.162  -0.230  0.2470  0.3419 -1.1156
  712MOL0     C95998   7.466   6.140  -0.323  0.4018  0.3365  0.0319
  712MOL0     C95999   7.470   6.228  -0.448  0.2383  0.2342  0.2141
  712MOL0     C96000   7.350   6.224  -0.537  0.3906 -0.1997 -1.4907
  712MOL0     C96001   7.342   6.349  -0.635 -0.2642  0.4820  0.0615
  712MOL0     N96002   7.419   6.333  -0.761 -0.0682  0.5150  0.8393
  712MOL0     C96003   7.533   6.405  -0.800 -0.3037  0.8395 -0.2572
  712MOL0     C96004   7.544   6.383  -0.929 -1.1903  0.1107 -0.6919
  712MOL0     C96005   7.630   6.464  -1.020  0.0500  0.4652  0.1913
  712MOL0     C96006   7.592   6.605  -1.028 -0.1032  0.1720  0.2538
  712MOL0     C96007   7.468   6.622  -1.111  0.2496 -0.2563 -0.3905
  712MOL0     C96008   7.444   6.762  -1.178 -0.0554 -0.1670 -0.6581
  712MOL0     O96009   7.478   6.873  -1.088  0.1418  0.3681 -1.0079
  712MOL0     C96010   7.377   6.935  -1.022  0.3277 -0.2571 -0.3656
  712MOL0     C96011   7.314   7.047  -1.078  1.0361 -1.2104  0.1920
  712MOL0     C96012   7.203   7.111  -1.014 -0.9840 -0.3969 -0.8010
  712MOL0     C96013   7.170   7.068  -0.881  0.6784  0.0011  0.9271
  712MOL0     C96014   7.061   7.133  -0.812 -0.2006  0.0375 -0.0329
  712MOL0     O96015   7.004   7.239  -0.862 -0.5982 -0.4760  0.0807
  712MOL0     C96016   6.887   7.270  -0.806  0.1288  0.5692 -0.4433
  712MOL0     C96017   6.881   7.378  -0.706  0.4105  0.2738  0.4351
  712MOL0     C96018   6.765   7.386  -0.630  0.4300 -0.6378  0.8291
  712MOL0     C96019   6.646   7.321  -0.669  0.2973 -1.0027 -0.8435
  712MOL0     O96020   6.524   7.333  -0.615 -0.1783 -0.3691 -0.9046
  712MOL0     C96021   6.523   7.330  -0.472  0.2057 -1.6019  1.1825
  712MOL0     C96022   6.390   7.274  -0.429 -0.0986  0.2498 -0.1777
  712MOL0     C96023   6.352   7.322  -0.293 -0.0463 -0.6822  1.0814
  712MOL0     C96024   6.204   7.360  -0.287 -0.3036 -0.2020  0.2863
  712MOL0     C96025   6.146   7.352  -0.139  0.1181 -0.7188  1.2787
  712MOL0     C96026   6.118   7.488  -0.072 -0.5166  0.3692  0.5702
  712MOL0     C96027   6.242   7.569  -0.032 -0.4824 -0.1690 -0.0632
  712MOL0     C96028   6.328   7.520   0.083 -0.3338 -1.3722  0.8583
  712MOL0    Cl96029   6.265   7.588   0.236 -0.0531  0.4322 -0.0152
  712MOL0     C96030   6.649   7.228  -0.769  0.2522  0.1446 -0.0983
  712MOL0     C96031   6.766   7.195  -0.828 -0.4703 -0.3289 -0.1905
  712MOL0     O96032   7.037   7.087  -0.700 -0.3658  0.3053 -0.4528
  712MOL0     C96033   7.247   6.964  -0.822  0.1382 -0.3504  0.5914
  712MOL0     C96034   7.345   6.888  -0.893 -0.5320  0.1056 -0.2019
  712MOL0     N96035   7.454   6.291  -0.970 -0.1091  0.6570  0.1415
  712MOL0     N96036   7.372   6.266  -0.869  0.4208  0.1588 -0.6063
  712MOL0     C96037   7.873   6.168   0.430  0.0517 -0.6138  0.0639
  712MOL0     C96038   7.888   6.139   0.566  0.1077 -0.6384 -0.2154
  712MOL0     C96039   7.832   6.042   0.986  0.2286  0.4986  0.4230
  712MOL0     C96040   7.907   5.923   0.981  0.0382  0.8852  0.0390
  712MOL0     C96041   7.956   5.853   1.098  0.0074 -0.0982  0.1188
  712MOL0     C96042   7.915   5.912   1.226  0.4203  0.2311  0.6400
  712MOL0     O96043   7.965   5.853   1.342  0.1653  0.2172  0.0589
  712MOL0     C96044   8.107   5.822   1.360  0.4756 -0.3150  0.1565
  712MOL0     C96045   8.195   5.952   1.365  0.4079  0.6318  0.3418
  712MOL0     C96046   8.149   6.055   1.472  0.8480 -0.0553  0.3670
  712MOL0     C96047   8.237   6.186   1.490  0.1491 -0.0755 -0.1093
  712MOL0     C96048   8.202   6.291   1.582  0.2978 -0.6244  0.1199
  712MOL0     C96049   8.165   6.374   1.666 -0.5479 -0.1315  1.1569
  712MOL0     C96050   7.839   6.031   1.228 -0.2338 -0.1257 -0.0129
  712MOL0     C96051   7.796   6.097   1.113  0.1370 -0.3257  0.4148
  712MOL0     C96052   7.712   6.219   1.119 -0.0968  0.7308 -0.2290
  712MOL0     H96053   7.638   5.942   0.614  0.5073  3.0758  2.6690
  712MOL0     H96054   7.596   5.984   0.374  0.9146 -0.8334 -0.8616
  712MOL0     H96055   7.640   6.015   0.139 -1.8336  0.9594 -0.5498
  712MOL0     H96056   7.580   6.160   0.208  0.7407 -0.4042  1.3288
  712MOL0     H96057   7.776   6.150  -0.023 -0.5081  0.1202  0.3017
  712MOL0     H96058   7.674   6.294   0.010  2.3495  0.5516  0.1313
  712MOL0     H96059   7.471   6.174  -0.055  1.7849  4.4788 -0.2597
  712MOL0     H96060   7.566   6.018  -0.076 -2.8438 -0.5215 -1.0182
  712MOL0     H96061   7.613   6.267  -0.215  0.1943  0.0384  1.6998
  712MOL0     H96062   7.675   6.115  -0.279  0.2814 -2.2468  1.1808
  712MOL0     H96063   7.454   6.037  -0.358 -2.0371  0.6660 -0.2476
  712MOL0     H96064   7.375   6.159  -0.265  0.3529  2.2149 -0.6025
  712MOL0     H96065   7.485   6.334  -0.427 -0.0317  0.2985  0.0815
  712MOL0     H96066   7.553   6.200  -0.512 -0.8989  0.1160 -1.2694
  712MOL0     H96067   7.273   6.225  -0.460  4.7024  0.7925  3.4378
  712MOL0     H96068   7.341   6.131  -0.593  0.1652  0.2931 -2.2882
  712MOL0     H96069   7.240   6.353  -0.675  0.6468 -0.4788 -2.5773
  712MOL0     H96070   7.352   6.446  -0.586 -1.3725  1.1633 -0.9901
  712MOL0     H96071   7.582   6.482  -0.741 -3.1938  4.3407 -2.0048
  712MOL0     H96072   7.732   6.452  -0.983  1.1374 -1.8799 -3.1629
  712MOL0     H96073   7.625   6.416  -1.118 -1.2321  0.1410  0.4001
  712MOL0     H96074   7.561   6.641  -0.929  1.7116  1.2843  0.4688
  712MOL0     H96075   7.674   6.673  -1.057  3.4532 -3.2209  1.4586
  712MOL0     H96076   7.377   6.612  -1.051 -1.1094  1.5014 -2.0276
  712MOL0     H96077   7.468   6.551  -1.194  4.7269  0.7344 -1.5019
  712MOL0     H96078   7.338   6.765  -1.205 -0.3126 -0.6389  0.2616
  712MOL0     H96079   7.507   6.780  -1.266 -1.1256  2.4132 -0.9831
  712MOL0     H96080   7.340   7.065  -1.182 -2.8769  0.1068 -0.7150
  712MOL0     H96081   7.154   7.190  -1.069  0.3663  2.6605  2.0605
  712MOL0     H96082   6.980   7.414  -0.681  0.6335  0.2196 -0.3354
  712MOL0     H96083   6.767   7.435  -0.533 -2.2133  1.9087 -0.2661
  712MOL0     H96084   6.605   7.268  -0.434  0.2847 -1.2715  1.5701
  712MOL0     H96085   6.548   7.431  -0.438 -0.4738 -1.1434  0.3648
  712MOL0     H96086   6.312   7.309  -0.495  1.0216  2.6526 -0.3208
  712MOL0     H96087   6.391   7.164  -0.427 -0.3267  0.1416 -2.7440
  712MOL0     H96088   6.369   7.240  -0.222  1.1065  0.3050  1.9887
  712MOL0     H96089   6.417   7.403  -0.260 -3.1762  2.0695  0.9570
  712MOL0     H96090   6.150   7.280  -0.338  4.3216 -4.0371  0.8202
  712MOL0     H96091   6.182   7.453  -0.340 -0.9215 -0.5967 -0.1661
  712MOL0     H96092   6.217   7.293  -0.079  2.9803  0.5736 -0.6299
  712MOL0     H96093   6.053   7.298  -0.159  1.2146 -1.8969 -1.1789
  712MOL0     H96094   6.061   7.547  -0.145  1.9685  1.6027 -0.4869
  712MOL0     H96095   6.054   7.467   0.014 -0.6173  0.4717  0.5206
  712MOL0     H96096   6.221   7.675  -0.015  1.2179  0.0717  0.7038
  712MOL0     H96097   6.315   7.571  -0.113  0.1596 -1.9187  0.4179
  712MOL0     H96098   6.327   7.411   0.092  0.9194 -1.5821 -0.9148
  712MOL0     H96099   6.431   7.549   0.058 -1.2765  0.4309 -1.2412
  712MOL0     H96100   6.563   7.164  -0.784  0.9122 -1.6658  2.9336
  712MOL0     H96101   6.771   7.107  -0.891  1.1671  0.1270 -0.7730
  712MOL0     H96102   7.212   6.924  -0.727 -0.5520 -1.2299 -0.0037
  712MOL0     H96103   7.398   6.803  -0.852 -0.4509  0.7256  1.0478
  712MOL0     H96104   7.940   6.227   0.369 -2.2159  0.9048 -1.1383
  712MOL0     H96105   7.962   6.199   0.619 -1.9368  1.4520  0.4669
  712MOL0     H96106   7.942   5.879   0.888  1.7100  2.6856 -0.2485
  712MOL0     H96107   8.013   5.762   1.083 -0.6324 -0.4355 -0.3070
  712MOL0     H96108   8.137   5.761   1.274 -1.6797 -0.8134 -0.3175
  712MOL0     H96109   8.114   5.755   1.446 -0.1458 -2.9968 -1.7422
  712MOL0     H96110   8.188   5.996   1.265 -2.5459 -0.1373  0.1003
  712MOL0     H96111   8.299   5.932   1.390  0.8292  4.2069  2.1658
  712MOL0     H96112   8.138   6.001   1.567  1.9498 -3.7653 -1.4518
  712MOL0     H96113   8.050   6.097   1.448  0.5343 -0.9537  0.0578
  712MOL0     H96114   8.343   6.161   1.486 -0.2448 -2.1319  0.9265
  712MOL0     H96115   8.229   6.238   1.395  2.4814  5.1423  2.1454
  712MOL0     H96116   8.133   6.434   1.750  0.6078  2.0661  0.0969
  712MOL0     H96117   7.809   6.060   1.329 -0.6757 -0.8195  0.0628
  712MOL0     H96118   7.683   6.242   1.222 -0.6962 -2.5088  0.4556
  712MOL0     H96119   7.777   6.298   1.082 -0.2360  1.1034  0.3068
  712MOL0     H96120   7.617   6.207   1.065 -2.1847  3.0558  2.5946
  713MOL0     O96121   1.902  10.964   4.143 -0.2005  0.1070  0.9467
  713MOL0     C96122   1.817  11.031   4.083  0.3603  0.3406 -0.1596
  713MOL0     O96123   1.824  11.062   3.951  0.4845 -0.1788 -0.1110
  713MOL0     C96124   1.954  11.086   3.910  0.1190 -0.7553  1.0880
  713MOL0     C96125   2.009  11.219   3.904  0.0229 -0.2256  0.1373
  713MOL0     C96126   2.138  11.232   3.863 -0.3144  0.1555 -0.3353
  713MOL0     C96127   2.224  11.125   3.839 -0.7698  0.0857  0.5002
  713MOL0     O96128   2.354  11.144   3.812  0.7389 -0.3811 -0.6638
  713MOL0     C96129   2.446  11.047   3.866  0.3059 -0.2888  0.4911
  713MOL0     C96130   2.594  11.082   3.834  0.1712 -0.2830 -1.0969
  713MOL0     C96131   2.634  11.090   3.687  0.2575  0.1453 -0.5331
  713MOL0     C96132   2.776  11.143   3.651 -1.3029  0.2446 -0.8094
  713MOL0     C96133   2.792  11.144   3.498  0.1510 -1.0640 -0.0351
  713MOL0     C96134   2.739  11.271   3.432  0.9557  0.1126 -0.0581
  713MOL0     C96135   2.809  11.304   3.307 -0.0612 -0.5958  1.1309
  713MOL0     C96136   2.701  11.378   3.220 -0.4660  0.9713 -0.0007
  713MOL0     N96137   2.758  11.418   3.090  0.1270 -0.2732  0.1632
  713MOL0     C96138   2.787  11.540   3.042  0.8936 -0.4307 -0.3163
  713MOL0     C96139   2.796  11.524   2.903 -0.4771  0.1528 -0.6189
  713MOL0     C96140   2.810  11.627   2.805 -0.9958 -0.5286 -0.1822
  713MOL0     C96141   2.952  11.672   2.759 -0.1569 -0.5872  0.1340
  713MOL0     C96142   3.048  11.724   2.865  0.3952  0.7689  0.8503
  713MOL0     C96143   3.152  11.810   2.800  0.6479  0.0963  0.0642
  713MOL0     O96144   3.259  11.835   2.890  0.7824 -0.0225 -0.1527
  713MOL0     C96145   3.361  11.894   2.835  0.9018 -0.4008 -0.7932
  713MOL0     C96146   3.366  11.980   2.723 -0.1051  1.2278  0.2217
  713MOL0     C96147   3.477  12.052   2.677  0.2898  0.1865  1.0722
  713MOL0     C96148   3.593  12.028   2.754  0.2455  0.1664  0.1926
  713MOL0     C96149   3.722  12.092   2.702 -0.0549 -0.4998  0.8633
  713MOL0     O96150   3.715  12.133   2.573  0.1288 -0.4043  0.3809
  713MOL0     C96151   3.819  12.209   2.521  0.8407 -0.5562  0.1809
  713MOL0     C96152   3.905  12.293   2.592  0.0099  0.3616 -0.4610
  713MOL0     C96153   3.999  12.361   2.519  0.0631  0.3688  0.3754
  713MOL0     C96154   4.008  12.366   2.387 -0.5626 -0.2959  0.3705
  713MOL0     O96155   4.075  12.467   2.327 -0.1019  0.4515 -0.4287
  713MOL0     C96156   4.165  12.436   2.216  0.6310 -0.6456 -0.2797
  713MOL0     C96157   4.224  12.558   2.166  0.5142  0.1666  0.6634
  713MOL0     C96158   4.340  12.601   2.252 -0.4463 -0.4490 -1.5585
  713MOL0     C96159   4.463  12.545   2.186 -0.4022  0.5175 -0.7025
  713MOL0     C96160   4.585  12.608   2.236 -0.0488  0.0470 -0.2146
  713MOL0     C96161   4.701  12.596   2.139 -0.1980  0.8577 -0.2560
  713MOL0     C96162   4.829  12.659   2.218  0.6459 -0.1329 -0.0009
  713MOL0     C96163   4.938  12.690   2.126 -0.2624  0.9383 -1.2555
  713MOL0    Cl96164   5.074  12.757   2.220 -0.1987  0.1966 -0.2206
  713MOL0     C96165   3.937  12.280   2.317 -0.6697  1.1211  0.5308
  713MOL0     C96166   3.832  12.198   2.384 -0.5046 -1.0838 -0.2573
  713MOL0     O96167   3.814  12.105   2.782 -0.6460 -0.1070 -0.0506
  713MOL0     C96168   3.593  11.952   2.872 -0.0875  0.1363  0.7593
  713MOL0     C96169   3.477  11.884   2.904 -0.0411 -0.4926 -0.3408
  713MOL0     N96170   2.782  11.392   2.882 -0.4682  0.2695 -0.3611
  713MOL0     N96171   2.759  11.330   2.990 -1.1460 -0.1270 -0.0323
  713MOL0     C96172   2.171  10.993   3.832 -0.1503  0.6243 -0.3514
  713MOL0     C96173   2.037  10.973   3.878  0.0826 -0.4270  0.0949
  713MOL0     C96174   1.699  11.070   4.173  0.7072  0.2593  0.4214
  713MOL0     C96175   1.724  11.107   4.301 -0.5205 -0.1371  0.1003
  713MOL0     C96176   1.621  11.144   4.379  0.4843 -0.6014 -0.2835
  713MOL0     C96177   1.478  11.164   4.338 -0.0031 -0.3829 -0.5962
  713MOL0     O96178   1.369  11.210   4.409  0.6708 -0.8115  0.1993
  713MOL0     C96179   1.386  11.199   4.553  0.4891 -0.7418 -0.3037
  713MOL0     C96180   1.413  11.338   4.621  0.6338 -0.6233  0.1773
  713MOL0     C96181   1.473  11.313   4.754  0.2557 -0.4305 -0.0060
  713MOL0     C96182   1.486  11.441   4.838 -0.0702 -0.8716 -0.0266
  713MOL0     C96183   1.558  11.562   4.783 -0.3266 -0.3213  0.2170
  713MOL0     C96184   1.605  11.670   4.746  1.0896  0.7597 -0.7212
  713MOL0     C96185   1.462  11.130   4.210  0.5630  0.0684 -0.6156
  713MOL0     C96186   1.564  11.073   4.124  0.6855  1.0416 -1.3444
  713MOL0     C96187   1.522  11.050   3.982 -0.5628 -0.5073 -0.2896
  713MOL0     H96188   1.952  11.309   3.925  2.5005  0.7212  3.5966
  713MOL0     H96189   2.181  11.329   3.841  1.6695 -0.6051 -0.0255
  713MOL0     H96190   2.425  11.044   3.973 -2.8542  0.3184 -0.0211
  713MOL0     H96191   2.434  10.946   3.824  4.1926  0.0541 -1.9328
  713MOL0     H96192   2.650  11.005   3.888  1.1137 -0.0686 -1.7519
  713MOL0     H96193   2.608  11.178   3.885 -0.2513 -1.4021  1.2987
  713MOL0     H96194   2.567  11.158   3.635  0.7949 -1.1367 -3.0720
  713MOL0     H96195   2.628  10.989   3.646 -0.7731 -0.3253  0.7203
  713MOL0     H96196   2.811  11.243   3.680  3.8223 -0.9834 -1.7291
  713MOL0     H96197   2.852  11.070   3.680  1.5856  2.9214 -0.9787
  713MOL0     H96198   2.900  11.140   3.481  0.0017  1.9815 -2.4640
  713MOL0     H96199   2.747  11.050   3.464  1.4958 -2.2209  1.2300
  713MOL0     H96200   2.634  11.243   3.416  0.7216  2.3408 -3.5525
  713MOL0     H96201   2.736  11.365   3.487  0.8293  1.7041 -2.6010
  713MOL0     H96202   2.832  11.208   3.259 -2.2307 -1.6068  2.0053
  713MOL0     H96203   2.893  11.374   3.316  0.0566 -0.8717  2.3053
  713MOL0     H96204   2.611  11.317   3.205  0.1805  0.3670 -1.7031
  713MOL0     H96205   2.674  11.462   3.284 -3.0850 -2.2446  3.5546
  713MOL0     H96206   2.782  11.637   3.091  1.2228 -0.0284 -1.0652
  713MOL0     H96207   2.754  11.601   2.715  1.1854 -1.2663 -1.4179
  713MOL0     H96208   2.759  11.707   2.859  2.0802  1.1455  0.4690
  713MOL0     H96209   2.993  11.582   2.712 -1.7397 -0.7995 -0.9110
  713MOL0     H96210   2.948  11.748   2.681  1.6147 -2.3672 -1.8430
  713MOL0     H96211   3.090  11.638   2.917 -0.5572 -0.4320 -0.3063
  713MOL0     H96212   2.991  11.774   2.944 -2.1032  1.7896 -1.4576
  713MOL0     H96213   3.113  11.895   2.743  2.7726 -1.3765 -3.9968
  713MOL0     H96214   3.208  11.756   2.724  3.2184  0.0262  1.8893
  713MOL0     H96215   3.282  11.999   2.656  1.3853  4.7574 -0.8694
  713MOL0     H96216   3.476  12.118   2.591  1.1237 -1.3322 -0.1705
  713MOL0     H96217   3.893  12.315   2.697  0.1502  1.1315 -0.6006
  713MOL0     H96218   4.058  12.434   2.572 -0.5538  0.1501  1.3796
  713MOL0     H96219   4.243  12.369   2.254  1.7240  0.8548  0.2086
  713MOL0     H96220   4.123  12.381   2.131  0.4393 -1.8863  0.5912
  713MOL0     H96221   4.252  12.532   2.063 -0.2852 -1.1732  0.7622
  713MOL0     H96222   4.147  12.635   2.178 -1.8668 -2.4607  4.6163
  713MOL0     H96223   4.347  12.708   2.276 -4.0474 -0.3056 -0.5805
  713MOL0     H96224   4.348  12.570   2.357  1.3596  2.1764 -0.8267
  713MOL0     H96225   4.459  12.579   2.082 -1.2754 -0.2397 -0.9316
  713MOL0     H96226   4.474  12.436   2.190 -3.2795  0.1669  2.4389
  713MOL0     H96227   4.618  12.563   2.330  0.3869  0.5372 -0.1265
  713MOL0     H96228   4.566  12.715   2.244 -0.8373  0.1360 -2.4952
  713MOL0     H96229   4.718  12.489   2.123 -0.2169  0.6930  0.7705
  713MOL0     H96230   4.678  12.650   2.046 -2.0372  3.0746  1.3854
  713MOL0     H96231   4.861  12.594   2.300 -0.4215 -0.2493  0.3320
  713MOL0     H96232   4.800  12.754   2.263 -1.1682 -1.8848  2.8500
  713MOL0     H96233   4.979  12.596   2.089  0.5251  0.9509 -0.4397
  713MOL0     H96234   4.915  12.754   2.040  0.4212 -0.0832 -2.2385
  713MOL0     H96235   3.948  12.268   2.210 -2.9843  0.2909  0.3226
  713MOL0     H96236   3.760  12.139   2.329 -1.1326  0.7343 -1.5046
  713MOL0     H96237   3.684  11.954   2.931  0.0324  2.5883  0.5991
  713MOL0     H96238   3.472  11.826   2.996  4.0243 -2.1308 -0.9505
  713MOL0     H96239   2.236  10.908   3.813  1.0494  0.9874  1.7935
  713MOL0     H96240   1.996  10.874   3.896 -1.2641  0.3938  1.8467
  713MOL0     H96241   1.826  11.106   4.337 -1.6614 -3.0351  4.0043
  713MOL0     H96242   1.646  11.186   4.476  0.8180  2.0498 -1.4240
  713MOL0     H96243   1.465  11.129   4.584  1.2891  0.7855  1.2960
  713MOL0     H96244   1.291  11.168   4.597  0.0783  4.7782  3.7837
  713MOL0     H96245   1.333  11.412   4.618  1.3504  0.1369 -0.3891
  713MOL0     H96246   1.493  11.384   4.562  0.1184  0.3898  0.2600
  713MOL0     H96247   1.574  11.271   4.748  1.3007  1.7411  1.1157
  713MOL0     H96248   1.416  11.233   4.802  0.6284 -1.1597 -0.7344
  713MOL0     H96249   1.388  11.475   4.872  0.8680  2.4795 -0.3537
  713MOL0     H96250   1.542  11.407   4.926 -0.0771  0.2690  0.4276
  713MOL0     H96251   1.643  11.763   4.709  0.5460  1.5815  0.6859
  713MOL0     H96252   1.364  11.160   4.175  0.8541  0.5263 -1.0545
  713MOL0     H96253   1.516  11.149   3.935  0.3540 -0.5966 -0.6177
  713MOL0     H96254   1.604  10.996   3.933 -0.0798 -0.0012 -0.0643
  713MOL0     H96255   1.427  10.998   3.977 -0.7773 -0.5822  2.5365
  714MOL0     O96256   6.011   3.923   1.298 -0.2136 -1.0737  0.2740
  714MOL0     C96257   5.980   3.812   1.336  0.3662  0.2696 -1.4212
  714MOL0     O96258   5.851   3.777   1.385 -0.2723 -0.7892  0.2844
  714MOL0     C96259   5.756   3.875   1.394  0.4340 -0.0291 -0.6200
  714MOL0     C96260   5.763   3.968   1.498  0.4946 -0.1558  0.4680
  714MOL0     C96261   5.670   4.073   1.515 -0.2895 -0.1100  0.9987
  714MOL0     C96262   5.566   4.082   1.423  1.1830  0.1154  0.1981
  714MOL0     O96263   5.480   4.185   1.458 -0.3436  0.3937 -0.7544
  714MOL0     C96264   5.483   4.300   1.378 -0.2619  1.4238  0.2370
  714MOL0     C96265   5.381   4.413   1.401  0.8563  0.8290 -0.1671
  714MOL0     C96266   5.396   4.489   1.533 -0.1136 -0.5754  0.3181
  714MOL0     C96267   5.289   4.587   1.571 -0.7279 -0.7031 -0.0028
  714MOL0     C96268   5.310   4.676   1.697 -0.2981 -1.0856  0.4113
  714MOL0     C96269   5.175   4.742   1.720  0.8201 -0.4608 -0.1782
  714MOL0     C96270   5.187   4.847   1.821  0.0803 -0.4293  0.1218
  714MOL0     C96271   5.042   4.889   1.853 -0.0535 -0.6769 -0.0134
  714MOL0     N96272   5.024   5.031   1.915 -0.6245  0.3099  0.2351
  714MOL0     C96273   5.109   5.077   2.015 -0.4928  0.7592 -0.3115
  714MOL0     C96274   5.077   5.204   2.042  0.8128  0.1335 -0.2008
  714MOL0     C96275   5.141   5.290   2.152 -0.4760 -0.6360 -0.9211
  714MOL0     C96276   5.051   5.401   2.198  0.4362  0.4871 -0.3668
  714MOL0     C96277   5.120   5.512   2.291  0.4999  0.1313 -0.2033
  714MOL0     C96278   5.080   5.484   2.438 -0.8469 -0.8203  0.5492
  714MOL0     O96279   5.067   5.612   2.505 -0.5281 -0.2858  0.3623
  714MOL0     C96280   4.953   5.633   2.572  1.0205  1.1896 -0.1609
  714MOL0     C96281   4.952   5.630   2.710 -0.3001 -0.1166  0.1822
  714MOL0     C96282   4.833   5.667   2.780 -1.3017  0.2139 -0.1303
  714MOL0     C96283   4.720   5.702   2.709  0.4833 -0.9351 -0.2493
  714MOL0     C96284   4.599   5.717   2.776 -0.0874 -0.2008 -0.9355
  714MOL0     O96285   4.485   5.718   2.705  0.6560  0.6086  0.7033
  714MOL0     C96286   4.375   5.752   2.775 -0.4091  0.0828 -0.2331
  714MOL0     C96287   4.323   5.674   2.878  0.1914  0.2645  0.7539
  714MOL0     C96288   4.209   5.713   2.938  0.8759 -0.0220 -1.0093
  714MOL0     C96289   4.144   5.829   2.910 -0.6284  0.2449  0.1277
  714MOL0     O96290   4.029   5.850   2.975  1.0519  0.3392 -0.4108
  714MOL0     C96291   3.906   5.816   2.909 -0.5048 -0.5568  0.2044
  714MOL0     C96292   3.782   5.903   2.963  0.3632 -0.2874  0.0850
  714MOL0     C96293   3.773   6.049   2.904 -0.0525 -0.0523 -0.3799
  714MOL0     C96294   3.706   6.155   2.997 -0.0283 -0.2906 -0.2443
  714MOL0     C96295   3.562   6.123   3.041  0.6979  0.1299 -0.1842
  714MOL0     C96296   3.456   6.141   2.924  0.3337  0.5903  0.0758
  714MOL0     C96297   3.413   6.008   2.849 -0.1636  0.6659 -0.1078
  714MOL0     C96298   3.311   6.054   2.731  0.1569  0.2580 -0.0493
  714MOL0    Cl96299   3.147   6.028   2.785  0.1694 -0.2540 -0.3203
  714MOL0     C96300   4.195   5.913   2.806  0.1589 -0.2888 -0.4578
  714MOL0     C96301   4.302   5.866   2.732  0.3591  0.6798 -1.1657
  714MOL0     O96302   4.609   5.750   2.896  1.0407 -0.0443  0.0665
  714MOL0     C96303   4.715   5.698   2.569 -0.1313 -0.3458 -0.1921
  714MOL0     C96304   4.833   5.665   2.503 -0.3517 -0.7678  0.1024
  714MOL0     N96305   4.966   5.223   1.966  0.2563  1.1629 -0.5804
  714MOL0     N96306   4.931   5.124   1.893 -0.5679 -0.0840 -0.2737
  714MOL0     C96307   5.558   3.991   1.325  0.5367  0.2577 -0.5310
  714MOL0     C96308   5.648   3.889   1.305 -0.1628  0.0591 -0.2959
  714MOL0     C96309   6.075   3.689   1.328 -0.7968 -0.2995 -0.6145
  714MOL0     C96310   6.041   3.573   1.400 -0.2935 -0.1520  0.1892
  714MOL0     C96311   6.120   3.460   1.417  0.5211 -0.9257 -0.1391
  714MOL0     C96312   6.241   3.465   1.351  0.0678  0.0521  0.2219
  714MOL0     O96313   6.318   3.352   1.367  0.3897  0.1499  1.2476
  714MOL0     C96314   6.350   3.285   1.244 -0.3192  0.4125  0.5279
  714MOL0     C96315   6.493   3.207   1.252  0.2037 -0.2249  0.6885
  714MOL0     C96316   6.498   3.088   1.356 -0.0748  0.0013 -0.2051
  714MOL0     C96317   6.592   2.976   1.295 -0.7456 -1.1373 -0.4912
  714MOL0     C96318   6.729   3.032   1.264 -0.3149 -0.2774  0.2116
  714MOL0     C96319   6.841   3.087   1.254 -0.0288  1.4655  0.0779
  714MOL0     C96320   6.270   3.579   1.260 -0.4173  0.0698 -0.0553
  714MOL0     C96321   6.198   3.695   1.253 -1.2948  0.4064 -0.0990
  714MOL0     C96322   6.231   3.801   1.153 -0.8268  0.0664  0.0500
  714MOL0     H96323   5.849   3.961   1.564  0.1777 -1.6969  0.7445
  714MOL0     H96324   5.676   4.140   1.599 -0.8454  1.4456 -0.1613
  714MOL0     H96325   5.585   4.338   1.377 -0.5982  2.3301 -0.1082
  714MOL0     H96326   5.466   4.263   1.276 -1.8778  0.0670  0.9591
  714MOL0     H96327   5.282   4.367   1.403  0.6366  1.2404 -0.8894
  714MOL0     H96328   5.394   4.483   1.318 -1.2465 -2.1497 -3.3023
  714MOL0     H96329   5.494   4.538   1.524 -1.3076  1.6853 -1.5193
  714MOL0     H96330   5.406   4.419   1.616 -0.2351  1.0711  1.7917
  714MOL0     H96331   5.285   4.646   1.480 -0.7303 -1.4869 -0.5255
  714MOL0     H96332   5.195   4.531   1.578  0.6354 -3.0636  0.4651
  714MOL0     H96333   5.334   4.612   1.782  2.6169  0.1050  0.5985
  714MOL0     H96334   5.385   4.753   1.680 -0.0414 -1.7020 -1.5750
  714MOL0     H96335   5.138   4.795   1.632  2.2487  0.3720 -0.3166
  714MOL0     H96336   5.102   4.668   1.753  0.6267 -0.4067 -0.4864
  714MOL0     H96337   5.253   4.929   1.790  2.9127 -2.8445 -0.7939
  714MOL0     H96338   5.231   4.801   1.910 -0.4554 -0.4467  0.3783
  714MOL0     H96339   4.983   4.886   1.761  1.0510  1.2748 -0.8588
  714MOL0     H96340   4.999   4.807   1.912 -1.8949 -1.9199 -2.8792
  714MOL0     H96341   5.196   5.025   2.055  1.0073  2.8458 -0.7257
  714MOL0     H96342   5.156   5.228   2.241  2.3700 -0.4743 -1.1852
  714MOL0     H96343   5.241   5.327   2.127  0.6357 -1.4735  1.9293
  714MOL0     H96344   5.008   5.454   2.112  0.2101  2.7034  1.0227
  714MOL0     H96345   4.970   5.362   2.261  0.4867  1.8098  0.5767
  714MOL0     H96346   5.083   5.610   2.259 -1.5976  0.8620  3.7781
  714MOL0     H96347   5.228   5.517   2.276  0.4245 -2.2569 -2.2271
  714MOL0     H96348   5.163   5.434   2.489 -1.4936 -2.5503 -0.0244
  714MOL0     H96349   4.989   5.424   2.447 -2.6701  0.9963 -3.6147
  714MOL0     H96350   5.045   5.602   2.759  0.0513  0.5337 -0.1098
  714MOL0     H96351   4.839   5.659   2.888 -0.4812  1.5803 -0.0552
  714MOL0     H96352   4.375   5.589   2.921  2.7661  1.8855  1.0650
  714MOL0     H96353   4.167   5.665   3.025  3.9508  1.6321  1.5989
  714MOL0     H96354   3.917   5.829   2.801 -2.7401 -2.1475 -0.2957
  714MOL0     H96355   3.891   5.712   2.938  2.7572 -1.1841 -0.0091
  714MOL0     H96356   3.689   5.847   2.946  0.5481 -0.7101  0.4298
  714MOL0     H96357   3.778   5.908   3.073 -1.0120 -1.5603  0.1307
  714MOL0     H96358   3.877   6.081   2.893 -0.2669  0.6117 -0.5252
  714MOL0     H96359   3.722   6.053   2.808  0.9789  1.5510 -0.9064
  714MOL0     H96360   3.717   6.253   2.949  1.2800 -0.6952 -0.8182
  714MOL0     H96361   3.776   6.159   3.082 -3.0515 -1.6442  2.5230
  714MOL0     H96362   3.555   6.202   3.117  2.2416  1.3662 -1.2473
  714MOL0     H96363   3.550   6.024   3.085 -1.9229 -0.6528 -2.3862
  714MOL0     H96364   3.371   6.197   2.965 -2.2272 -1.5571 -1.8862
  714MOL0     H96365   3.492   6.205   2.843 -2.2368  0.5701 -1.1928
  714MOL0     H96366   3.371   5.927   2.910 -0.6104  2.6884  2.4536
  714MOL0     H96367   3.503   5.971   2.799  1.6128 -0.1123  3.3357
  714MOL0     H96368   3.325   6.156   2.695  0.0325 -0.5748 -2.6110
  714MOL0     H96369   3.332   5.975   2.659  3.4389  1.9481 -1.1665
  714MOL0     H96370   4.156   6.011   2.781  1.3530  0.5313  0.7142
  714MOL0     H96371   4.332   5.919   2.642 -1.3223  1.3236 -1.3918
  714MOL0     H96372   4.626   5.707   2.508  0.8700 -0.7702 -1.7627
  714MOL0     H96373   4.827   5.681   2.396  3.4733 -2.0584 -0.4743
  714MOL0     H96374   5.475   3.997   1.255  2.3956  1.7632 -2.7348
  714MOL0     H96375   5.622   3.809   1.237  1.4284 -2.6899  2.0941
  714MOL0     H96376   5.945   3.556   1.449 -1.0269  0.6447 -0.9480
  714MOL0     H96377   6.091   3.373   1.474  1.9812 -2.1422 -1.1561
  714MOL0     H96378   6.369   3.356   1.163 -3.8760  1.6364  0.6009
  714MOL0     H96379   6.267   3.223   1.209 -1.5949  3.3556 -2.1240
  714MOL0     H96380   6.570   3.280   1.277 -1.0734  1.3903  0.1022
  714MOL0     H96381   6.514   3.169   1.152 -2.0422  0.4079 -0.0807
  714MOL0     H96382   6.397   3.046   1.362  0.2470 -0.6207  1.3845
  714MOL0     H96383   6.521   3.113   1.460  1.3571 -2.3105  0.1146
  714MOL0     H96384   6.603   2.893   1.366  3.2838  0.8276  1.5271
  714MOL0     H96385   6.544   2.939   1.205 -2.8529  2.1015 -0.8775
  714MOL0     H96386   6.930   3.142   1.229 -0.0685  0.8775 -1.4599
  714MOL0     H96387   6.366   3.563   1.212 -0.3709  1.6564 -0.5385
  714MOL0     H96388   6.144   3.817   1.089 -0.5612  1.8246  0.0873
  714MOL0     H96389   6.244   3.891   1.215  0.2366 -1.1992  1.7580
  714MOL0     H96390   6.324   3.785   1.097 -0.7273  3.1069 -0.8499
  715MOL0     O96391   2.409   9.807  10.713 -0.4161  0.0834  1.7806
  715MOL0     C96392   2.448   9.735  10.802 -0.6039 -0.2879 -0.8477
  715MOL0     O96393   2.530   9.627  10.786  0.1743  0.4628  0.8138
  715MOL0     C96394   2.559   9.591  10.657 -0.7367  0.9272 -0.5821
  715MOL0     C96395   2.467   9.509  10.604  0.4217  0.9709  0.3554
  715MOL0     C96396   2.476   9.470  10.469 -0.6437  0.1074 -0.3795
  715MOL0     C96397   2.590   9.505  10.392  0.0832 -0.2768  0.0007
  715MOL0     O96398   2.615   9.469  10.265 -0.2372  0.0344  0.4174
  715MOL0     C96399   2.508   9.427  10.175  0.2945 -0.0416 -0.2805
  715MOL0     C96400   2.417   9.542  10.146 -0.0726 -0.6987 -0.1759
  715MOL0     C96401   2.467   9.602  10.017  0.5070 -0.6976 -0.2555
  715MOL0     C96402   2.390   9.716   9.967  0.3630  0.4731 -0.0519
  715MOL0     C96403   2.249   9.690   9.921  0.4524 -0.4755  0.2108
  715MOL0     C96404   2.186   9.817   9.871 -0.6180 -0.0278 -0.1072
  715MOL0     C96405   2.036   9.797   9.814 -0.0015 -0.0529  0.5915
  715MOL0     C96406   2.031   9.705   9.686 -0.6025  0.2429 -0.2562
  715MOL0     N96407   2.086   9.773   9.573  0.5159 -0.0609  0.1036
  715MOL0     C96408   2.014   9.816   9.465 -0.0172 -0.6881 -0.8520
  715MOL0     C96409   2.113   9.841   9.378  1.0460 -0.2443 -0.5383
  715MOL0     C96410   2.092   9.909   9.237  0.1130 -0.0873 -0.6540
  715MOL0     C96411   1.981   9.842   9.150  0.6100  0.3792  0.6220
  715MOL0     C96412   1.943   9.877   9.003  0.9112  0.1412 -0.1973
  715MOL0     C96413   1.865  10.016   8.997  0.3230  0.1788 -0.6249
  715MOL0     O96414   1.816  10.058   8.866 -0.5665 -0.4820  0.0407
  715MOL0     C96415   1.708   9.998   8.813  0.4011  0.6595 -0.4769
  715MOL0     C96416   1.675  10.025   8.683 -0.5725 -0.2384  0.3959
  715MOL0     C96417   1.578   9.955   8.616  0.4419 -0.0685  0.2947
  715MOL0     C96418   1.485   9.884   8.682 -0.6790  0.2096  0.3844
  715MOL0     C96419   1.379   9.812   8.603  0.6851  0.6896 -0.0465
  715MOL0     O96420   1.365   9.830   8.466  0.4600  0.5451  0.3569
  715MOL0     C96421   1.269   9.753   8.401 -0.1118 -0.0371  0.1676
  715MOL0     C96422   1.125   9.778   8.381 -0.2271 -0.0894  0.0007
  715MOL0     C96423   1.053   9.688   8.294  0.0441 -1.0224 -0.9292
  715MOL0     C96424   1.119   9.587   8.230 -0.7936  0.3934  0.4612
  715MOL0     O96425   1.046   9.522   8.136 -0.1573 -1.1792  0.1612
  715MOL0     C96426   1.100   9.415   8.057  0.0580  0.2936 -1.1426
  715MOL0     C96427   1.031   9.410   7.928 -0.5123  0.8367  1.1310
  715MOL0     C96428   1.107   9.302   7.849 -0.6810  0.5374  1.4088
  715MOL0     C96429   1.024   9.243   7.731  0.4768  0.3298  0.7888
  715MOL0     C96430   1.118   9.218   7.608 -0.2119 -0.6386  0.9966
  715MOL0     C96431   1.050   9.129   7.503 -0.7506 -0.0514  1.1335
  715MOL0     C96432   1.139   9.092   7.383  0.6523  0.4431  0.6671
  715MOL0     C96433   1.073   8.982   7.302 -0.0022  0.3234  0.3920
  715MOL0    Cl96434   0.923   9.038   7.224  0.2898  0.4918 -0.1872
  715MOL0     C96435   1.250   9.553   8.264  0.0209  0.0501  0.2947
  715MOL0     C96436   1.323   9.639   8.343 -0.0752 -1.0155  0.0121
  715MOL0     O96437   1.308   9.739   8.676 -0.2122  1.2248 -0.1591
  715MOL0     C96438   1.508   9.865   8.822 -0.4382 -0.5388 -1.0174
  715MOL0     C96439   1.623   9.915   8.885  0.4652 -0.7281  0.4022
  715MOL0     N96440   2.237   9.823   9.433  0.4084  0.7197  0.1255
  715MOL0     N96441   2.220   9.776   9.555 -0.6046 -0.3066 -0.7447
  715MOL0     C96442   2.684   9.596  10.449  1.2361  0.7667  0.3578
  715MOL0     C96443   2.671   9.630  10.585  0.2497  0.0292 -0.4352
  715MOL0     C96444   2.406   9.778  10.939  0.4951 -0.7534  0.7861
  715MOL0     C96445   2.385   9.917  10.971 -0.3386 -0.0053 -0.7102
  715MOL0     C96446   2.367   9.963  11.102  0.8562  0.2151  0.4308
  715MOL0     C96447   2.346   9.878  11.204 -0.4479  0.0794 -0.5832
  715MOL0     O96448   2.307   9.916  11.326  0.1815  0.0543  0.1622
  715MOL0     C96449   2.351   9.862  11.444  1.0699  0.4168  0.0023
  715MOL0     C96450   2.280   9.924  11.565  0.1738  0.2303  0.1313
  715MOL0     C96451   2.342  10.066  11.578  0.3141 -0.2808 -0.0921
  715MOL0     C96452   2.255  10.150  11.669 -0.3789 -0.0379 -0.7379
  715MOL0     C96453   2.262  10.117  11.816  0.4254  0.6396 -0.2003
  715MOL0     C96454   2.289  10.086  11.933 -0.1900 -1.2651  0.2687
  715MOL0     C96455   2.357   9.747  11.172 -0.1344  0.3631 -0.6115
  715MOL0     C96456   2.398   9.690  11.048 -0.3497  0.4282  0.1539
  715MOL0     C96457   2.396   9.537  11.028  1.0746  0.1361  0.5576
  715MOL0     H96458   2.378   9.473  10.655  0.0589 -0.0435 -0.9431
  715MOL0     H96459   2.393   9.414  10.427 -1.9749  0.6889  1.3552
  715MOL0     H96460   2.563   9.394  10.087  0.3399  2.0566 -1.0930
  715MOL0     H96461   2.443   9.353  10.222  0.9479 -0.1877  0.4151
  715MOL0     H96462   2.417   9.629  10.212  4.3841  0.7844 -1.7875
  715MOL0     H96463   2.317   9.505  10.120 -1.6269  3.5814 -1.0279
  715MOL0     H96464   2.465   9.532   9.934 -1.9166 -0.2481 -0.6672
  715MOL0     H96465   2.572   9.624  10.037 -0.1564 -0.2610  3.5797
  715MOL0     H96466   2.387   9.804  10.032 -1.8702  0.0383  0.5166
  715MOL0     H96467   2.447   9.735   9.875  1.3005 -2.4789 -0.1726
  715MOL0     H96468   2.257   9.616   9.840  2.1567 -0.3971  0.2604
  715MOL0     H96469   2.178   9.666  10.000 -0.0777  1.6223  0.4426
  715MOL0     H96470   2.170   9.892   9.949 -1.5819 -2.4066  2.1377
  715MOL0     H96471   2.258   9.858   9.799 -3.2208 -1.8699 -4.0941
  715MOL0     H96472   1.984   9.889   9.784 -2.9521 -1.1511  1.9847
  715MOL0     H96473   1.979   9.745   9.891  1.1470 -0.3012  1.3095
  715MOL0     H96474   2.087   9.614   9.706 -0.2217 -0.0176 -2.3603
  715MOL0     H96475   1.927   9.670   9.683 -0.5131 -0.1659  0.8379
  715MOL0     H96476   1.909   9.842   9.467 -0.0955 -1.0098  0.9185
  715MOL0     H96477   2.071  10.016   9.242  0.8912  0.1368 -1.7221
  715MOL0     H96478   2.193   9.898   9.196  1.3059 -0.7377  2.2258
  715MOL0     H96479   1.986   9.733   9.148 -0.0974  0.3130  1.6938
  715MOL0     H96480   1.895   9.862   9.214 -0.7292 -0.1719 -0.9412
  715MOL0     H96481   1.873   9.803   8.963  0.7273  0.2981 -0.1707
  715MOL0     H96482   2.027   9.887   8.934  1.0871 -1.7886 -0.3256
  715MOL0     H96483   1.931  10.095   9.034  1.1169 -0.7611  0.0099
  715MOL0     H96484   1.781  10.019   9.067  0.4261  0.8422 -0.5219
  715MOL0     H96485   1.737  10.093   8.624 -0.3265 -1.8117 -1.2474
  715MOL0     H96486   1.569   9.960   8.508  1.0688 -3.4420 -0.0499
  715MOL0     H96487   1.086   9.873   8.414 -1.6435 -0.6972  0.1717
  715MOL0     H96488   0.950   9.719   8.278 -0.3940  0.3939  3.2970
  715MOL0     H96489   1.205   9.440   8.042  0.3423 -0.3251 -0.2615
  715MOL0     H96490   1.099   9.323   8.117  3.0859  1.1381  0.3837
  715MOL0     H96491   0.931   9.367   7.939  0.0184 -0.3903  1.3623
  715MOL0     H96492   1.033   9.508   7.880  3.5163 -0.3364 -1.6735
  715MOL0     H96493   1.190   9.364   7.813 -0.9843  1.9078  2.9140
  715MOL0     H96494   1.135   9.214   7.908 -0.7700 -0.4062  0.0827
  715MOL0     H96495   0.947   9.312   7.694 -0.8592  0.2444  3.2328
  715MOL0     H96496   0.968   9.155   7.763 -2.5066  1.4997 -0.8193
  715MOL0     H96497   1.211   9.176   7.648  0.4909  0.1592  0.2405
  715MOL0     H96498   1.141   9.315   7.565  1.7702 -0.7093  1.8000
  715MOL0     H96499   1.017   9.035   7.546 -3.8079 -0.2932 -1.3587
  715MOL0     H96500   0.966   9.177   7.451  0.2892 -0.2792 -0.8745
  715MOL0     H96501   1.231   9.049   7.423  0.1563 -1.0166  0.3419
  715MOL0     H96502   1.174   9.173   7.318  2.7518 -0.1631  0.9694
  715MOL0     H96503   1.139   8.956   7.219  0.0165  1.8662 -0.1152
  715MOL0     H96504   1.043   8.904   7.373 -3.9540  0.0167 -1.3386
  715MOL0     H96505   1.302   9.462   8.237 -1.3139 -0.8135  0.5553
  715MOL0     H96506   1.418   9.604   8.382 -0.4719 -1.3063  0.7358
  715MOL0     H96507   1.455   9.803   8.893  1.1686 -1.2243 -0.3910
  715MOL0     H96508   1.632   9.887   8.989 -1.8985  0.7711  1.0816
  715MOL0     H96509   2.773   9.634  10.400  1.5181 -0.9940 -0.5971
  715MOL0     H96510   2.733   9.701  10.640 -3.9778  1.7227  2.7617
  715MOL0     H96511   2.387   9.997  10.897 -1.0629  2.3670  1.6498
  715MOL0     H96512   2.335  10.065  11.117 -5.4240 -1.2281 -0.4908
  715MOL0     H96513   2.459   9.872  11.455  1.0201 -0.2164  1.2154
  715MOL0     H96514   2.324   9.756  11.446  1.8145  0.1786  3.7710
  715MOL0     H96515   2.298   9.860  11.652  2.6673  0.2363 -0.3061
  715MOL0     H96516   2.172   9.940  11.561  0.6525  4.7589  0.3173
  715MOL0     H96517   2.351  10.114  11.481  0.5898 -0.4745 -0.1662
  715MOL0     H96518   2.448  10.065  11.604  0.3061  1.0698  0.0721
  715MOL0     H96519   2.283  10.256  11.662 -2.9422  0.7059 -0.8481
  715MOL0     H96520   2.155  10.144  11.625 -1.7441  1.6043  1.8316
  715MOL0     H96521   2.327  10.064  12.031 -1.0977 -0.6724  0.7641
  715MOL0     H96522   2.332   9.673  11.248  1.0034  2.6711  2.2440
  715MOL0     H96523   2.486   9.500  10.979 -1.4214 -0.0587 -4.5243
  715MOL0     H96524   2.383   9.483  11.122  0.7303  1.6204  1.3985
  715MOL0     H96525   2.310   9.507  10.968  1.9092 -0.8022 -0.2034
  716MOL0     O96526  10.218   6.375   8.037 -0.0063 -0.0364  0.0384
  716MOL0     C96527  10.155   6.481   8.059 -0.6313  1.2952 -0.5381
  716MOL0     O96528  10.055   6.529   7.980  0.0716  0.6939  0.2318
  716MOL0     C96529  10.033   6.473   7.855  0.5311  0.4372 -0.2711
  716MOL0     C96530  10.000   6.569   7.759 -0.3494 -1.1096  0.5711
  716MOL0     C96531   9.966   6.537   7.634  0.4327 -0.4427 -0.7742
  716MOL0     C96532   9.960   6.398   7.602 -0.5434 -1.2723  0.3856
  716MOL0     O96533   9.919   6.349   7.476 -0.2673  0.6832  0.1594
  716MOL0     C96534   9.909   6.448   7.369 -0.1998  0.3636 -0.1591
  716MOL0     C96535   9.771   6.509   7.364 -0.9485 -0.7547 -0.0880
  716MOL0     C96536   9.686   6.411   7.277 -0.6988 -0.4163 -0.0879
  716MOL0     C96537   9.533   6.456   7.284 -0.7939  0.5820  0.4377
  716MOL0     C96538   9.489   6.564   7.182 -0.6795 -0.1538 -0.0365
  716MOL0     C96539   9.349   6.602   7.226 -0.1262 -0.5533  0.2820
  716MOL0     C96540   9.302   6.739   7.174  0.9408  0.9756  0.0648
  716MOL0     C96541   9.398   6.854   7.218  0.7530  0.0715  1.0272
  716MOL0     N96542   9.342   6.986   7.191 -0.7805 -0.5525  0.6011
  716MOL0     C96543   9.407   7.100   7.233  0.5662 -0.1399  0.4311
  716MOL0     C96544   9.341   7.208   7.162  0.2622  0.9431  0.2283
  716MOL0     C96545   9.401   7.347   7.162  0.3666  0.4712 -0.5642
  716MOL0     C96546   9.402   7.391   7.321 -0.9145 -0.4511  0.2733
  716MOL0     C96547   9.280   7.388   7.410 -0.1509 -0.7118  0.1033
  716MOL0     C96548   9.307   7.349   7.561  0.1020 -0.2772  0.8556
  716MOL0     O96549   9.364   7.214   7.571  0.0099 -0.6484  0.7364
  716MOL0     C96550   9.280   7.104   7.558 -0.7781  0.6156  0.3828
  716MOL0     C96551   9.349   6.981   7.568  0.6571 -0.5972 -0.0601
  716MOL0     C96552   9.274   6.860   7.561 -0.5437 -0.8227 -0.2507
  716MOL0     C96553   9.133   6.858   7.552 -0.4366  0.7162  0.1254
  716MOL0     C96554   9.051   6.733   7.564  0.5801  0.7428  0.3904
  716MOL0     O96555   9.119   6.609   7.565 -0.6710  0.1037  0.3981
  716MOL0     C96556   9.071   6.491   7.512 -0.3092 -0.0867 -0.8868
  716MOL0     C96557   8.944   6.461   7.449 -0.0454  0.5005 -0.4077
  716MOL0     C96558   8.926   6.341   7.382  0.5715 -0.1962 -0.3368
  716MOL0     C96559   9.029   6.250   7.362  0.3350  0.4989 -1.3248
  716MOL0     O96560   9.025   6.129   7.291  0.0721  0.2742  0.2341
  716MOL0     C96561   8.903   6.047   7.297  0.0643 -0.0758 -0.4619
  716MOL0     C96562   8.859   6.026   7.444  0.8049 -0.9810 -0.3429
  716MOL0     C96563   8.964   5.972   7.543 -0.4187 -0.0031 -0.8068
  716MOL0     C96564   8.906   5.957   7.690 -0.7867  0.5080  0.1013
  716MOL0     C96565   9.027   5.927   7.781  1.1533  0.5581  0.7500
  716MOL0     C96566   8.978   5.905   7.915  1.0394 -0.0103 -0.8592
  716MOL0     C96567   9.098   5.875   8.004 -0.1588 -0.3273 -0.2386
  716MOL0     C96568   9.159   5.730   8.008 -0.2012  0.5401  0.2550
  716MOL0    Cl96569   9.032   5.608   8.050  0.2562 -0.2495 -0.1906
  716MOL0     C96570   9.147   6.272   7.438  0.7427 -0.4192  0.0087
  716MOL0     C96571   9.161   6.396   7.506 -0.1128 -0.5549  0.3012
  716MOL0     O96572   8.936   6.745   7.591 -0.5209 -0.4749 -0.7924
  716MOL0     C96573   9.072   6.985   7.529  0.0352 -0.2361 -0.8243
  716MOL0     C96574   9.139   7.107   7.543  0.0908  0.0134 -0.0098
  716MOL0     N96575   9.259   7.151   7.072 -0.5035  0.5874 -0.5136
  716MOL0     N96576   9.269   7.019   7.084  0.6305 -0.2214 -0.1682
  716MOL0     C96577   9.982   6.302   7.698  0.2119 -1.2350  0.9868
  716MOL0     C96578  10.028   6.337   7.824 -0.4853 -0.1165 -0.3533
  716MOL0     C96579  10.192   6.562   8.184 -0.2079 -0.0334  0.4530
  716MOL0     C96580  10.307   6.509   8.254 -0.5404 -0.5788 -0.6601
  716MOL0     C96581  10.353   6.572   8.374  0.2953 -0.0497  0.6521
  716MOL0     C96582  10.285   6.681   8.430  0.4162 -1.0816 -0.0036
  716MOL0     O96583  10.347   6.720   8.545  0.5772 -0.2766  0.5885
  716MOL0     C96584  10.285   6.828   8.614 -0.2683 -0.0198  0.4518
  716MOL0     C96585  10.198   6.774   8.716  0.8986 -0.5913 -0.0734
  716MOL0     C96586  10.250   6.656   8.804 -0.3810 -0.9856 -0.4229
  716MOL0     C96587  10.136   6.584   8.882  0.4697 -0.5534  0.7722
  716MOL0     C96588  10.097   6.653   9.007 -1.5590  1.0141  0.1710
  716MOL0     C96589  10.059   6.702   9.109  0.5422  0.8988  0.1946
  716MOL0     C96590  10.171   6.735   8.363  0.2215 -0.4894  0.5464
  716MOL0     C96591  10.121   6.677   8.238 -0.6002  0.3953 -0.1508
  716MOL0     C96592  10.006   6.749   8.169  0.6180 -0.0285 -0.2411
  716MOL0     H96593  10.011   6.669   7.799  0.4831 -1.6050  1.6277
  716MOL0     H96594   9.940   6.612   7.562 -0.4488  0.3372  0.3273
  716MOL0     H96595   9.982   6.528   7.383  1.6419 -1.2155 -0.3918
  716MOL0     H96596   9.937   6.403   7.273  6.1969  0.7543  1.1402
  716MOL0     H96597   9.772   6.607   7.315 -1.9163  1.3913  3.7177
  716MOL0     H96598   9.742   6.536   7.466  2.4302 -2.1905  1.3957
  716MOL0     H96599   9.700   6.308   7.312 -0.4231 -1.2445 -2.4422
  716MOL0     H96600   9.713   6.407   7.171 -1.0111  1.5697 -0.2774
  716MOL0     H96601   9.476   6.366   7.257 -2.1857  1.5006  0.1938
  716MOL0     H96602   9.514   6.475   7.390  0.1977  2.7912  0.2739
  716MOL0     H96603   9.565   6.643   7.182  0.4657 -1.2077 -0.3437
  716MOL0     H96604   9.475   6.523   7.081 -0.5317  0.3332 -0.2586
  716MOL0     H96605   9.286   6.518   7.196 -2.2540  0.8210  0.6777
  716MOL0     H96606   9.362   6.610   7.334 -1.4320 -1.4064  0.5279
  716MOL0     H96607   9.203   6.754   7.218  1.4548 -1.1110  2.1482
  716MOL0     H96608   9.301   6.735   7.065 -0.4401 -0.7365  0.0972
  716MOL0     H96609   9.415   6.844   7.326 -2.4505 -1.4979  1.5135
  716MOL0     H96610   9.486   6.855   7.153 -0.9023  2.1964 -1.3674
  716MOL0     H96611   9.490   7.103   7.302  2.8670 -2.4370 -1.9877
  716MOL0     H96612   9.502   7.354   7.121  1.1156  1.3032  1.2906
  716MOL0     H96613   9.343   7.424   7.111 -0.7117 -1.9868 -3.3440
  716MOL0     H96614   9.482   7.327   7.360 -0.8152 -1.2428 -1.1618
  716MOL0     H96615   9.442   7.492   7.326 -1.4111  0.0107 -3.0058
  716MOL0     H96616   9.212   7.312   7.371  0.5650 -1.7426  0.8091
  716MOL0     H96617   9.237   7.488   7.398 -0.7442 -0.6724  2.2234
  716MOL0     H96618   9.216   7.356   7.622 -0.3373 -0.4878  0.2391
  716MOL0     H96619   9.379   7.417   7.608  1.0709  1.4215 -2.7210
  716MOL0     H96620   9.457   6.986   7.576  0.5510 -0.2563  1.2261
  716MOL0     H96621   9.326   6.771   7.527 -1.1474 -1.1344 -0.3682
  716MOL0     H96622   8.872   6.542   7.451  1.4716  1.9113 -0.1256
  716MOL0     H96623   8.832   6.319   7.334 -0.1277  2.0548 -0.1288
  716MOL0     H96624   8.818   6.084   7.238 -1.3964 -0.8253  1.0772
  716MOL0     H96625   8.930   5.948   7.258  1.2110 -0.8217  2.0210
  716MOL0     H96626   8.808   6.116   7.478 -1.6599 -1.9430 -1.2786
  716MOL0     H96627   8.774   5.957   7.439 -0.1372  0.0061  1.2476
  716MOL0     H96628   8.987   5.872   7.507  0.0628  0.0855 -0.7510
  716MOL0     H96629   9.058   6.027   7.543  0.3632 -1.2960 -0.3059
  716MOL0     H96630   8.842   5.869   7.697  1.1087 -0.8966  0.4951
  716MOL0     H96631   8.847   6.043   7.725 -1.9590  0.7759 -2.2875
  716MOL0     H96632   9.077   6.023   7.767 -1.3430  1.5464 -2.6949
  716MOL0     H96633   9.081   5.838   7.749  0.4476  0.5176 -0.3671
  716MOL0     H96634   8.942   6.003   7.945  0.4639 -0.7181  0.8530
  716MOL0     H96635   8.893   5.837   7.925 -0.4503  2.1261  2.4446
  716MOL0     H96636   9.072   5.898   8.108  0.4434 -1.6326  0.2241
  716MOL0     H96637   9.188   5.936   7.985  0.6225 -1.2289  0.4861
  716MOL0     H96638   9.208   5.703   7.914 -0.6530 -2.5425  0.8064
  716MOL0     H96639   9.238   5.740   8.084 -0.3487 -0.0879  0.4943
  716MOL0     H96640   9.223   6.199   7.464 -1.9863 -2.6492  2.5124
  716MOL0     H96641   9.261   6.403   7.548  0.8229 -0.2754 -1.8481
  716MOL0     H96642   8.965   6.987   7.514 -0.2250  0.7209  0.8662
  716MOL0     H96643   9.072   7.192   7.542 -0.5361 -0.4498  0.8639
  716MOL0     H96644   9.962   6.197   7.675 -2.8882 -0.2531 -1.5124
  716MOL0     H96645  10.045   6.260   7.898 -0.2960  1.5208  1.3953
  716MOL0     H96646  10.355   6.417   8.225 -1.1509 -1.7394  1.7408
  716MOL0     H96647  10.430   6.519   8.429  1.6995  0.4650 -0.7176
  716MOL0     H96648  10.233   6.900   8.552  1.2342  0.4930 -0.2537
  716MOL0     H96649  10.362   6.889   8.662  0.7111  0.5439 -1.7113
  716MOL0     H96650  10.109   6.736   8.666  1.2860 -1.5787 -0.0218
  716MOL0     H96651  10.160   6.856   8.778  0.3519  0.6285 -1.9434
  716MOL0     H96652  10.329   6.694   8.869 -1.7727  0.4970  0.4777
  716MOL0     H96653  10.295   6.581   8.739 -1.4456 -2.4426  0.4514
  716MOL0     H96654  10.049   6.575   8.816  0.6999 -1.5088  0.5889
  716MOL0     H96655  10.170   6.487   8.918 -0.7712 -1.6425 -0.8466
  716MOL0     H96656  10.013   6.731   9.201 -1.8575  1.0179 -0.9764
  716MOL0     H96657  10.119   6.824   8.397 -1.7585 -0.2352 -2.7271
  716MOL0     H96658   9.934   6.668   8.153 -1.1552  0.8594  2.5740
  716MOL0     H96659   9.966   6.825   8.236 -1.0674 -1.3910  0.3974
  716MOL0     H96660  10.040   6.805   8.082 -3.3337  3.1566 -0.0051
  717MOL0     O96661   5.431  11.300   0.591 -0.0675  0.2808 -0.3218
  717MOL0     C96662   5.539  11.242   0.574  0.5099  1.1386  0.2052
  717MOL0     O96663   5.647  11.236   0.650  0.6351  0.2569 -1.0029
  717MOL0     C96664   5.625  11.275   0.787  0.0891  1.0138  0.2158
  717MOL0     C96665   5.530  11.200   0.856  0.9281  0.0695 -0.6886
  717MOL0     C96666   5.491  11.250   0.975 -0.3305 -0.4514 -0.4749
  717MOL0     C96667   5.541  11.373   1.033  0.2935 -0.2209  1.0726
  717MOL0     O96668   5.530  11.411   1.168 -0.1678 -0.7733 -0.2858
  717MOL0     C96669   5.429  11.341   1.248  0.4625  0.6458  0.3387
  717MOL0     C96670   5.394  11.404   1.381 -0.3017 -0.0601 -0.7123
  717MOL0     C96671   5.302  11.313   1.478 -0.0751 -0.2534  0.2332
  717MOL0     C96672   5.381  11.198   1.542 -0.6792  1.5590 -0.3860
  717MOL0     C96673   5.294  11.104   1.635 -0.2786 -0.3597  0.5215
  717MOL0     C96674   5.376  10.986   1.684  0.4779  0.0255 -0.7476
  717MOL0     C96675   5.298  10.921   1.795 -0.6818 -0.0565  0.1266
  717MOL0     C96676   5.364  10.781   1.821  0.3609  0.0757 -0.2926
  717MOL0     N96677   5.318  10.721   1.938 -0.6321  0.1345 -0.5502
  717MOL0     C96678   5.231  10.614   1.948 -0.7359 -0.1155  0.3887
  717MOL0     C96679   5.233  10.576   2.072 -0.5241  0.1373  0.1084
  717MOL0     C96680   5.164  10.452   2.129 -0.0617 -0.5398  0.1412
  717MOL0     C96681   5.035  10.489   2.206 -0.6627 -1.6346  0.1699
  717MOL0     C96682   5.054  10.570   2.339 -0.5515 -0.8453  0.5194
  717MOL0     C96683   4.916  10.619   2.398 -0.8276  0.7196 -0.5065
  717MOL0     O96684   4.846  10.503   2.460  0.2008  0.1708  0.1922
  717MOL0     C96685   4.718  10.528   2.508  0.1691  0.6014  0.5750
  717MOL0     C96686   4.700  10.503   2.639  0.5238  0.9263 -0.2829
  717MOL0     C96687   4.574  10.500   2.699  0.0756  0.8520 -0.8114
  717MOL0     C96688   4.461  10.533   2.630 -0.8291  0.2849  1.0208
  717MOL0     C96689   4.332  10.508   2.688 -0.4318  0.4322  0.3992
  717MOL0     O96690   4.329  10.453   2.802  1.1118  0.2639  0.8882
  717MOL0     C96691   4.203  10.415   2.855 -0.1386  0.3387  0.1638
  717MOL0     C96692   4.122  10.321   2.796 -0.8751 -0.0934  0.1362
  717MOL0     C96693   4.015  10.253   2.864 -0.4940  0.3564 -0.8669
  717MOL0     C96694   3.977  10.313   2.989 -0.1931 -0.3065  0.3533
  717MOL0     O96695   3.886  10.264   3.068 -0.3331  0.4454  0.1700
  717MOL0     C96696   3.934  10.193   3.188 -0.1541  0.5845  0.2176
  717MOL0     C96697   3.819  10.113   3.241  0.1733  1.6711  0.1446
  717MOL0     C96698   3.817   9.982   3.151 -0.2369 -0.5254  0.0981
  717MOL0     C96699   3.705   9.893   3.208  0.0506  0.0960  0.8172
  717MOL0     C96700   3.588   9.904   3.104 -0.7290 -0.0992 -0.4003
  717MOL0     C96701   3.615   9.808   2.982 -0.3072  0.3504  0.0346
  717MOL0     C96702   3.501   9.797   2.889  0.1805  0.5012 -1.4238
  717MOL0     C96703   3.414   9.670   2.916  0.2729 -0.0084  0.1512
  717MOL0    Cl96704   3.263   9.678   2.838  0.2024  0.0148 -0.2454
  717MOL0     C96705   4.041  10.432   3.037  0.0036  0.5103  0.3779
  717MOL0     C96706   4.163  10.473   2.971  0.1796  0.4174 -0.3216
  717MOL0     O96707   4.239  10.532   2.608 -0.3310  0.2136  0.3117
  717MOL0     C96708   4.482  10.556   2.493  0.1247  0.0125  0.3849
  717MOL0     C96709   4.609  10.561   2.429 -0.0157  0.2641 -0.0822
  717MOL0     N96710   5.309  10.662   2.143 -0.3922 -0.0027 -0.5911
  717MOL0     N96711   5.363  10.750   2.067  0.1600  0.1029  0.4889
  717MOL0     C96712   5.657  11.430   0.970 -0.5977  0.5706 -0.0695
  717MOL0     C96713   5.691  11.379   0.844 -0.2144  0.1059  0.1063
  717MOL0     C96714   5.553  11.168   0.445 -0.5561  0.2129 -0.3622
  717MOL0     C96715   5.474  11.058   0.415 -0.9614  0.1720  1.1741
  717MOL0     C96716   5.476  10.988   0.291  0.5311 -0.4958  0.6463
  717MOL0     C96717   5.569  11.032   0.196  0.3478 -0.0088 -0.3740
  717MOL0     O96718   5.587  10.957   0.081 -0.2650  0.0840 -0.2520
  717MOL0     C96719   5.686  11.001  -0.022  0.1973  0.3188 -0.3459
  717MOL0     C96720   5.673  10.893  -0.132  0.0128  1.2230  0.6274
  717MOL0     C96721   5.804  10.871  -0.214 -0.2645 -0.4893 -0.1901
  717MOL0     C96722   5.780  10.814  -0.351  0.0540  0.0894  1.1838
  717MOL0     C96723   5.722  10.684  -0.362  0.4704 -0.9984 -0.7213
  717MOL0     C96724   5.676  10.578  -0.394 -0.1756 -0.2335  0.1647
  717MOL0     C96725   5.637  11.154   0.225  0.1229  0.5253 -0.4082
  717MOL0     C96726   5.637  11.216   0.348 -0.1601  0.6660 -1.4473
  717MOL0     C96727   5.720  11.338   0.379 -0.2758 -0.4523  0.5070
  717MOL0     H96728   5.480  11.110   0.822 -1.5959  1.1157 -0.0045
  717MOL0     H96729   5.420  11.184   1.024 -0.6235 -2.2037 -3.0741
  717MOL0     H96730   5.329  11.323   1.207 -1.0333  0.5423  3.6731
  717MOL0     H96731   5.469  11.243   1.273  2.4611  1.9632  2.6724
  717MOL0     H96732   5.350  11.496   1.341  2.8519  0.9423 -2.1876
  717MOL0     H96733   5.488  11.415   1.436 -0.2225 -1.8796 -0.4078
  717MOL0     H96734   5.233  11.267   1.406  1.8120 -1.6199 -0.7875
  717MOL0     H96735   5.248  11.371   1.553 -1.5596 -2.8633  1.3492
  717MOL0     H96736   5.444  11.139   1.474  1.8368 -0.1904  3.1645
  717MOL0     H96737   5.448  11.245   1.615  1.7293 -1.1703 -0.6334
  717MOL0     H96738   5.256  11.177   1.707 -1.4280  1.1380 -1.4825
  717MOL0     H96739   5.205  11.072   1.580 -0.0300  2.1709 -1.5812
  717MOL0     H96740   5.405  10.916   1.605 -0.1663 -1.0524 -0.0585
  717MOL0     H96741   5.474  11.017   1.721  0.3788  0.1651 -0.5977
  717MOL0     H96742   5.194  10.910   1.762 -0.5432  0.7196 -0.6090
  717MOL0     H96743   5.307  10.983   1.885 -2.1571 -1.5410  1.3662
  717MOL0     H96744   5.354  10.718   1.732  4.4304  0.4097 -1.1788
  717MOL0     H96745   5.472  10.796   1.825  0.4163  0.3956 -2.1466
  717MOL0     H96746   5.174  10.562   1.872  1.2133 -2.5871  0.4827
  717MOL0     H96747   5.127  10.402   2.039 -2.7364 -0.0265  0.8796
  717MOL0     H96748   5.222  10.388   2.196 -0.0105  2.3712  3.1117
  717MOL0     H96749   4.975  10.560   2.149  0.2281 -1.7628 -0.9684
  717MOL0     H96750   4.970  10.403   2.228 -1.0328 -1.0462  1.4579
  717MOL0     H96751   5.106  10.661   2.306 -1.9132 -0.6147 -1.1103
  717MOL0     H96752   5.109  10.523   2.421 -0.8792 -0.5779  0.8965
  717MOL0     H96753   4.860  10.655   2.312  0.4489 -0.4936 -1.8920
  717MOL0     H96754   4.931  10.701   2.469  1.8451  1.3039 -1.6216
  717MOL0     H96755   4.777  10.459   2.702 -0.0440  1.8658  1.1177
  717MOL0     H96756   4.567  10.464   2.801  0.2852  2.1720 -0.3121
  717MOL0     H96757   4.151  10.278   2.701 -1.9023  0.7927 -0.6065
  717MOL0     H96758   3.966  10.169   2.814 -1.8530  1.1003 -0.8194
  717MOL0     H96759   4.017  10.129   3.159  0.2031  1.4325 -0.6847
  717MOL0     H96760   3.971  10.264   3.263  1.8341  0.2539 -0.3927
  717MOL0     H96761   3.852  10.097   3.344 -1.3602  0.5907  0.5054
  717MOL0     H96762   3.733  10.178   3.258  0.2291  1.3984  1.5638
  717MOL0     H96763   3.808  10.005   3.045 -2.6270  0.2882  0.4216
  717MOL0     H96764   3.907   9.922   3.170 -0.2384 -0.8587 -0.9048
  717MOL0     H96765   3.666   9.924   3.305  0.5125 -3.1562  2.1570
  717MOL0     H96766   3.743   9.791   3.217 -0.6416  0.0452  4.6784
  717MOL0     H96767   3.575  10.005   3.065  2.6287  0.8776  0.6673
  717MOL0     H96768   3.492   9.876   3.150 -0.7937  2.4316  1.1774
  717MOL0     H96769   3.700   9.851   2.927  1.5289 -2.6322  0.3520
  717MOL0     H96770   3.651   9.709   3.010  0.7933  0.8296  0.3792
  717MOL0     H96771   3.537   9.787   2.787  0.2611 -1.3935 -1.2491
  717MOL0     H96772   3.435   9.884   2.898  1.1818  1.1343  0.3244
  717MOL0     H96773   3.466   9.588   2.867  1.6598  1.5908 -1.1732
  717MOL0     H96774   3.403   9.654   3.024 -0.4994  0.4131  0.1392
  717MOL0     H96775   4.013  10.476   3.132 -3.0875 -0.0862 -0.1384
  717MOL0     H96776   4.231  10.535   3.028  0.1084 -0.5068  0.7928
  717MOL0     H96777   4.405  10.583   2.420 -0.2317  0.0673  0.7765
  717MOL0     H96778   4.616  10.576   2.322 -1.9360  0.3800 -0.2269
  717MOL0     H96779   5.702  11.521   1.008  2.4097  0.0528 -2.1007
  717MOL0     H96780   5.765  11.429   0.783 -1.2966  2.6788  0.7914
  717MOL0     H96781   5.429  10.997   0.492  0.0383 -1.2747  0.6686
  717MOL0     H96782   5.418  10.899   0.271 -0.4463  0.1380  0.5829
  717MOL0     H96783   5.780  10.990   0.033 -2.0804 -1.1674  3.6764
  717MOL0     H96784   5.664  11.100  -0.063 -0.6344  0.4682  0.4216
  717MOL0     H96785   5.601  10.941  -0.199  1.1263 -0.7202 -2.1579
  717MOL0     H96786   5.640  10.795  -0.097  4.2082 -0.2804  0.9251
  717MOL0     H96787   5.873  10.806  -0.160 -1.2911 -1.5952 -0.1817
  717MOL0     H96788   5.841  10.973  -0.227 -1.7157  0.0546 -0.2092
  717MOL0     H96789   5.736  10.894  -0.411  3.2380  1.4369  0.4114
  717MOL0     H96790   5.885  10.804  -0.381 -0.3842 -2.0130  0.1847
  717MOL0     H96791   5.640  10.479  -0.416  0.2047 -0.3028 -0.1605
  717MOL0     H96792   5.704  11.196   0.150  0.4949 -1.3365 -1.1715
  717MOL0     H96793   5.793  11.337   0.461  0.7916  3.5254 -0.1743
  717MOL0     H96794   5.780  11.373   0.295  2.0805 -2.1058  1.3539
  717MOL0     H96795   5.637  11.406   0.395 -2.6922 -2.4870 -2.3580
  718MOL0     O96796   9.841   3.155  10.072  0.4682  0.6554  0.6461
  718MOL0     C96797   9.918   3.183   9.972  0.0583  0.2359 -0.8893
  718MOL0     O96798  10.005   3.289   9.962 -0.7161 -0.6485  0.1997
  718MOL0     C96799  10.012   3.389  10.053  0.9191  0.0129 -0.0096
  718MOL0     C96800  10.140   3.422  10.085  0.2814 -0.1719  0.3268
  718MOL0     C96801  10.161   3.520  10.197  0.5901 -0.1188  0.9933
  718MOL0     C96802  10.049   3.574  10.261  0.7547 -0.3842 -0.0695
  718MOL0     O96803  10.086   3.677  10.350 -0.0373 -0.4887  0.4035
  718MOL0     C96804   9.990   3.733  10.435 -0.0432  0.2493  0.0274
  718MOL0     C96805  10.066   3.823  10.539  0.6000 -0.4977  0.1716
  718MOL0     C96806   9.984   3.833  10.669  0.1948  1.2771  0.7700
  718MOL0     C96807  10.053   3.934  10.760  0.0318  0.0239  0.1448
  718MOL0     C96808  10.015   3.915  10.903  0.0826 -0.7683  0.5692
  718MOL0     C96809  10.081   3.784  10.964 -0.0568 -0.0664  0.0267
  718MOL0     C96810  10.229   3.768  10.925  0.5883  0.1255  0.0061
  718MOL0     C96811  10.304   3.686  11.027 -0.6079  0.5382  0.0078
  718MOL0     N96812  10.279   3.546  10.992 -0.6585 -0.2926 -0.2642
  718MOL0     C96813  10.325   3.495  10.874  0.3379 -0.5069 -0.8371
  718MOL0     C96814  10.288   3.367  10.892 -1.5263  0.0150  0.3754
  718MOL0     C96815  10.323   3.253  10.790 -0.2040 -1.2374 -0.9714
  718MOL0     C96816  10.482   3.236  10.790 -0.1441  0.4330 -0.2850
  718MOL0     C96817  10.514   3.145  10.664 -0.1881 -0.2235 -0.3112
  718MOL0     C96818  10.641   3.068  10.677  0.0981  1.0119  0.0594
  718MOL0     O96819  10.656   2.997  10.552 -0.7508  0.1218 -0.8197
  718MOL0     C96820  10.720   3.044  10.437 -0.8214 -0.3394 -0.2786
  718MOL0     C96821  10.855   3.095  10.437  0.7563 -0.1977  0.0660
  718MOL0     C96822  10.929   3.114  10.311  0.2518 -0.8522 -0.7969
  718MOL0     C96823  10.867   3.074  10.191 -0.8447 -0.2039 -1.1499
  718MOL0     C96824  10.945   3.077  10.067 -0.1599 -0.3260 -0.4067
  718MOL0     O96825  11.037   3.168  10.063 -0.0833 -0.1581  1.0020
  718MOL0     C96826  11.119   3.192   9.954  0.4085 -1.3344 -0.9494
  718MOL0     C96827  11.072   3.262   9.841  0.3420 -0.2002  0.3269
  718MOL0     C96828  11.163   3.271   9.734  0.5078 -0.2904  0.6153
  718MOL0     C96829  11.292   3.217   9.745 -0.7445 -0.1403  0.1039
  718MOL0     O96830  11.378   3.242   9.633  0.9892  0.7571  0.2353
  718MOL0     C96831  11.415   3.118   9.571  0.1939  0.0532  0.5229
  718MOL0     C96832  11.536   3.144   9.492 -0.2938  0.4507  0.3433
  718MOL0     C96833  11.547   3.039   9.380 -0.3175 -1.0323 -0.0448
  718MOL0     C96834  11.540   2.889   9.402 -0.6925  1.0843  0.7812
  718MOL0     C96835  11.576   2.813   9.280  1.0520  0.2361  0.0486
  718MOL0     C96836  11.578   2.662   9.311  0.6417  0.0345 -0.3029
  718MOL0     C96837  11.633   2.585   9.183  0.3529  0.0135 -0.3430
  718MOL0     C96838  11.673   2.437   9.211  0.0276  1.4669  0.4798
  718MOL0    Cl96839  11.627   2.330   9.070  0.2645 -0.1860  0.0396
  718MOL0     C96840  11.339   3.166   9.867 -0.3242  0.7023 -0.0418
  718MOL0     C96841  11.255   3.153   9.972 -0.0910  0.5070  0.8891
  718MOL0     O96842  10.914   3.008   9.976 -0.1752 -0.5760  0.3203
  718MOL0     C96843  10.732   3.031  10.199 -0.1277  0.2001  0.4231
  718MOL0     C96844  10.665   3.017  10.313  0.2148 -0.0418  0.8309
  718MOL0     N96845  10.221   3.346  11.008 -0.4336 -0.2146 -0.1071
  718MOL0     N96846  10.226   3.452  11.074 -0.3898  0.0008 -0.0342
  718MOL0     C96847   9.915   3.535  10.224  0.2821 -0.0579  0.6881
  718MOL0     C96848   9.891   3.443  10.115 -0.1853 -0.0428 -0.4601
  718MOL0     C96849   9.930   3.088   9.860  1.4630 -0.9336 -0.2339
  718MOL0     C96850  10.053   3.070   9.804 -0.1068 -0.6574  0.3208
  718MOL0     C96851  10.082   2.964   9.712  0.2398  0.3352  0.5021
  718MOL0     C96852   9.973   2.902   9.655  0.1416 -0.2476 -0.4877
  718MOL0     O96853   9.975   2.822   9.547 -0.2332  0.4085  0.4938
  718MOL0     C96854  10.107   2.768   9.513  0.4291 -0.9336 -0.3803
  718MOL0     C96855  10.099   2.686   9.394  0.3120 -0.0502 -0.1543
  718MOL0     C96856  10.061   2.754   9.263 -0.2273 -0.0974 -0.4324
  718MOL0     C96857  10.065   2.666   9.136 -1.2647 -1.2499  0.4750
  718MOL0     C96858  10.036   2.736   9.005 -0.0026 -0.2641 -0.4038
  718MOL0     C96859   9.998   2.785   8.902 -0.2382 -0.0958  0.5680
  718MOL0     C96860   9.843   2.931   9.699 -0.2481  0.3053 -1.2083
  718MOL0     C96861   9.818   3.016   9.803 -0.6684 -0.2535  0.6040
  718MOL0     C96862   9.681   3.025   9.864 -0.4362  0.5416  0.9577
  718MOL0     H96863  10.227   3.371  10.043 -0.8968 -1.1824 -0.9878
  718MOL0     H96864  10.260   3.562  10.206 -0.2018  2.2113 -0.3346
  718MOL0     H96865   9.916   3.788  10.377 -0.3653 -0.0197  0.1771
  718MOL0     H96866   9.946   3.644  10.482  0.4849 -0.1323 -0.1843
  718MOL0     H96867  10.090   3.918  10.491  0.9801 -1.6067 -1.9396
  718MOL0     H96868  10.165   3.780  10.560  1.5115  0.6926 -1.4618
  718MOL0     H96869   9.975   3.740  10.725  0.7761  1.8166  1.7894
  718MOL0     H96870   9.881   3.861  10.645 -0.5798 -3.0406 -2.2131
  718MOL0     H96871  10.157   3.942  10.727 -0.2502 -1.1067 -1.1384
  718MOL0     H96872  10.012   4.033  10.739 -3.9068 -0.5888  3.5517
  718MOL0     H96873  10.061   4.005  10.946 -1.3668  0.2100  0.1433
  718MOL0     H96874   9.907   3.921  10.917 -0.0724 -1.8027 -0.0345
  718MOL0     H96875  10.067   3.784  11.073  0.4214 -1.5984  0.1108
  718MOL0     H96876  10.038   3.689  10.931  2.9031 -0.8783 -1.8300
  718MOL0     H96877  10.268   3.870  10.926  2.8677 -0.6863  0.0588
  718MOL0     H96878  10.236   3.737  10.820  0.4271  1.6332 -0.4793
  718MOL0     H96879  10.413   3.696  11.026 -0.2337 -1.3299  4.1090
  718MOL0     H96880  10.277   3.683  11.133 -1.7661 -1.0868 -0.2971
  718MOL0     H96881  10.395   3.539  10.804  0.9095  0.9216  0.5696
  718MOL0     H96882  10.285   3.156  10.827  0.8949 -0.5504  2.2923
  718MOL0     H96883  10.280   3.276  10.692  0.5559 -0.2785 -1.0875
  718MOL0     H96884  10.528   3.334  10.775 -3.3472  2.3245  1.0847
  718MOL0     H96885  10.512   3.196  10.887 -3.1001  0.5477  0.7724
  718MOL0     H96886  10.518   3.220  10.585 -0.1600  1.6137  1.3613
  718MOL0     H96887  10.434   3.072  10.649 -0.1368 -0.4759  0.5441
  718MOL0     H96888  10.633   2.994  10.757  0.9430 -1.5926 -2.0751
  718MOL0     H96889  10.722   3.139  10.698  1.3490 -0.3798  0.1447
  718MOL0     H96890  10.898   3.117  10.534 -0.4904 -2.5894  1.2419
  718MOL0     H96891  11.030   3.153  10.305 -0.1476  0.5250  0.5841
  718MOL0     H96892  10.982   3.321   9.828 -0.0397 -0.8489 -0.0019
  718MOL0     H96893  11.139   3.314   9.638 -0.5998 -0.7277  0.6807
  718MOL0     H96894  11.442   3.045   9.647  2.2110 -3.0152 -2.8166
  718MOL0     H96895  11.331   3.086   9.510  0.5518 -0.7451  0.4414
  718MOL0     H96896  11.536   3.241   9.442  1.1828  0.1929 -0.2128
  718MOL0     H96897  11.633   3.133   9.541 -1.3486  0.1894  2.5129
  718MOL0     H96898  11.471   3.067   9.307  1.5000 -0.6958 -1.9233
  718MOL0     H96899  11.643   3.062   9.333 -1.0599  2.2657 -0.1940
  718MOL0     H96900  11.437   2.860   9.426 -0.8985  2.5236  1.7763
  718MOL0     H96901  11.606   2.872   9.488 -0.2850  2.4864  0.7693
  718MOL0     H96902  11.671   2.845   9.236  0.3369  1.7273 -0.4822
  718MOL0     H96903  11.494   2.836   9.211  0.8437  1.1210  0.5597
  718MOL0     H96904  11.637   2.642   9.401  1.8633  3.2291 -0.2813
  718MOL0     H96905  11.471   2.644   9.321  0.7849  0.4298  3.6794
  718MOL0     H96906  11.730   2.630   9.159  1.2741 -1.8107 -0.2581
  718MOL0     H96907  11.571   2.576   9.093  1.1007 -2.1630 -0.7151
  718MOL0     H96908  11.780   2.417   9.217 -0.5331 -3.1989 -1.4066
  718MOL0     H96909  11.612   2.407   9.296  4.1105  0.0374  3.2005
  718MOL0     H96910  11.437   3.118   9.864 -0.8442 -0.3784 -0.1642
  718MOL0     H96911  11.274   3.106  10.068  2.3179 -0.4741  0.0234
  718MOL0     H96912  10.683   2.998  10.108  2.1331  0.2169 -0.8820
  718MOL0     H96913  10.563   2.979  10.316 -1.4079  3.8250  1.7313
  718MOL0     H96914   9.827   3.571  10.277  0.0700  2.0083 -0.9534
  718MOL0     H96915   9.795   3.429  10.065 -0.2877 -2.4198  0.2850
  718MOL0     H96916  10.139   3.130   9.830 -0.6745  0.9068 -1.2365
  718MOL0     H96917  10.182   2.961   9.670 -1.3185  1.1705 -3.8761
  718MOL0     H96918  10.119   2.700   9.598 -2.5886 -1.0652  0.0642
  718MOL0     H96919  10.185   2.844   9.508 -1.0464  1.0076  2.6542
  718MOL0     H96920  10.049   2.589   9.404  0.5616 -0.2139 -0.5007
  718MOL0     H96921  10.204   2.659   9.382 -0.0432 -3.3573  2.5389
  718MOL0     H96922  10.127   2.838   9.235  0.6851 -1.2867 -2.0530
  718MOL0     H96923   9.958   2.789   9.278 -1.1637 -3.1374  0.8514
  718MOL0     H96924  10.171   2.640   9.130 -0.9506  0.2185 -4.1866
  718MOL0     H96925  10.010   2.572   9.132 -2.2738 -0.6999 -3.9384
  718MOL0     H96926   9.978   2.840   8.812  0.5965  2.8693  2.0669
  718MOL0     H96927   9.761   2.890   9.641 -2.7530  0.6135  1.8756
  718MOL0     H96928   9.644   3.126   9.885 -2.3417  0.0134  0.2974
  718MOL0     H96929   9.617   2.999   9.779  4.0730  0.6756 -2.9203
  718MOL0     H96930   9.660   2.950   9.939 -1.9961  2.0651  2.1165
  719MOL0     O96931   8.625   0.819   4.361  0.9727  0.1481 -0.4586
  719MOL0     C96932   8.552   0.761   4.279 -0.9503 -0.8042 -0.1728
  719MOL0     O96933   8.503   0.816   4.153 -1.1250 -0.4751  0.9057
  719MOL0     C96934   8.558   0.939   4.109  0.9545 -0.2196  0.3241
  719MOL0     C96935   8.690   0.986   4.127 -0.3162  1.1072 -0.3040
  719MOL0     C96936   8.735   1.102   4.057  0.2251  0.6192  0.3790
  719MOL0     C96937   8.644   1.175   3.978  0.7506 -0.2434  0.6121
  719MOL0     O96938   8.700   1.288   3.922  0.2072 -0.0860  0.5568
  719MOL0     C96939   8.602   1.371   3.852  0.4772  0.5968 -0.0524
  719MOL0     C96940   8.658   1.514   3.839 -0.0302 -0.0716  0.9735
  719MOL0     C96941   8.628   1.577   3.698 -0.1920  0.0554 -0.3687
  719MOL0     C96942   8.486   1.628   3.676  0.6024 -0.8534  0.3132
  719MOL0     C96943   8.445   1.681   3.545  0.1912  0.1139 -1.3611
  719MOL0     C96944   8.294   1.705   3.536 -0.2660  0.0681  0.9574
  719MOL0     C96945   8.214   1.598   3.461  0.5535 -0.0930  0.1225
  719MOL0     C96946   8.060   1.614   3.480 -0.8278 -0.1184  0.1353
  719MOL0     N96947   8.014   1.736   3.409 -0.0181 -0.4445  0.0608
  719MOL0     C96948   7.923   1.825   3.463 -0.2479 -0.3223 -0.7509
  719MOL0     C96949   7.895   1.903   3.352  0.6898 -1.0211  1.5563
  719MOL0     C96950   7.808   2.026   3.347 -0.6881 -0.8306 -0.0527
  719MOL0     C96951   7.883   2.161   3.364  0.1488 -0.4938 -0.3153
  719MOL0     C96952   7.844   2.250   3.245  0.6927  0.7482  0.0938
  719MOL0     C96953   7.887   2.396   3.269 -0.1670 -0.3320 -0.2501
  719MOL0     O96954   7.910   2.471   3.144  0.3961 -0.1654  0.3712
  719MOL0     C96955   7.800   2.504   3.072  0.4200 -0.5272  0.0219
  719MOL0     C96956   7.723   2.411   3.005  0.5463 -0.0987  0.1935
  719MOL0     C96957   7.621   2.447   2.913 -0.5628 -0.2331 -0.1282
  719MOL0     C96958   7.599   2.589   2.888 -0.0091  1.1652 -0.8982
  719MOL0     C96959   7.484   2.625   2.806 -0.0742 -0.5258  1.1359
  719MOL0     O96960   7.439   2.763   2.802  0.8610  0.6035  0.1707
  719MOL0     C96961   7.342   2.798   2.706  0.1776  0.6878  0.6875
  719MOL0     C96962   7.207   2.805   2.731 -0.8157  0.4830 -0.7887
  719MOL0     C96963   7.118   2.849   2.632 -1.2948 -0.1250 -0.5408
  719MOL0     C96964   7.161   2.889   2.502 -0.5613  0.9542 -0.4811
  719MOL0     O96965   7.088   2.943   2.396 -0.4880 -0.1533 -0.2853
  719MOL0     C96966   6.951   2.979   2.431 -0.2102 -0.5662 -0.5824
  719MOL0     C96967   6.886   3.068   2.323  0.2950  0.8410  0.1171
  719MOL0     C96968   6.979   3.165   2.239 -0.1521  0.2521  0.5587
  719MOL0     C96969   7.026   3.273   2.331  0.4332  0.2938 -0.4059
  719MOL0     C96970   7.046   3.401   2.250  0.7634  0.0343 -0.2132
  719MOL0     C96971   7.085   3.514   2.346  0.1729  0.3878  0.0466
  719MOL0     C96972   7.080   3.656   2.283  0.0413  0.2062  0.8168
  719MOL0     C96973   7.182   3.759   2.330 -0.2822 -0.2482  0.5288
  719MOL0    Cl96974   7.155   3.916   2.270  0.2970 -0.8179  0.0122
  719MOL0     C96975   7.300   2.888   2.480  0.3517 -1.0580 -1.2096
  719MOL0     C96976   7.379   2.845   2.584 -0.2831  0.5068  0.0324
  719MOL0     O96977   7.431   2.532   2.738 -0.9115  0.2140 -0.0211
  719MOL0     C96978   7.673   2.683   2.955  0.3559  0.5437  0.5424
  719MOL0     C96979   7.771   2.640   3.051  0.2074  0.5614  0.3016
  719MOL0     N96980   7.993   1.883   3.249 -0.2052 -0.0077 -1.0023
  719MOL0     N96981   8.058   1.775   3.289  0.5724 -0.4460  0.6178
  719MOL0     C96982   8.515   1.120   3.950  0.2185 -0.1576 -1.3671
  719MOL0     C96983   8.475   1.004   4.017  0.2542 -0.2504 -0.9924
  719MOL0     C96984   8.493   0.643   4.324  0.5271  0.3024  0.7276
  719MOL0     C96985   8.554   0.520   4.294  0.2846 -0.7023  0.0998
  719MOL0     C96986   8.497   0.404   4.346  0.4179 -0.4476  0.2563
  719MOL0     C96987   8.372   0.400   4.407 -0.5624  0.3149 -0.6916
  719MOL0     O96988   8.300   0.289   4.453  0.0211  0.2335  0.1007
  719MOL0     C96989   8.358   0.159   4.428  0.5516  0.3539 -0.2877
  719MOL0     C96990   8.271   0.058   4.493  0.3132  0.1051 -0.3107
  719MOL0     C96991   8.138   0.050   4.415 -0.8853 -0.0406 -0.4572
  719MOL0     C96992   8.029  -0.029   4.493  0.0073  1.0543  0.5061
  719MOL0     C96993   7.899  -0.001   4.432  0.1144  0.1531  0.8352
  719MOL0     C96994   7.781   0.008   4.400 -0.1516  0.6139  0.4310
  719MOL0     C96995   8.315   0.521   4.445  0.4453  0.0907  0.0460
  719MOL0     C96996   8.377   0.642   4.409  0.3484 -0.0928 -0.5976
  719MOL0     C96997   8.313   0.777   4.468  0.7708  0.5508  0.4729
  719MOL0     H96998   8.758   0.943   4.199 -1.0911  0.0567 -0.1911
  719MOL0     H96999   8.838   1.137   4.060  0.3852  0.1482  3.0951
  719MOL0     H97000   8.584   1.324   3.755  3.5002 -1.1471  0.0756
  719MOL0     H97001   8.501   1.362   3.893 -0.6027 -3.5859 -3.0084
  719MOL0     H97002   8.765   1.514   3.862 -0.6402 -1.2054  4.4598
  719MOL0     H97003   8.616   1.576   3.918 -2.6044 -2.5697  1.7534
  719MOL0     H97004   8.652   1.497   3.627  1.2772 -1.2885  1.5377
  719MOL0     H97005   8.706   1.652   3.684  3.8330 -3.6709  0.2046
  719MOL0     H97006   8.426   1.539   3.696 -0.9265 -0.2525 -1.3543
  719MOL0     H97007   8.459   1.700   3.753  0.1150  1.0810 -1.5704
  719MOL0     H97008   8.488   1.779   3.524 -1.5137  0.9948 -0.8599
  719MOL0     H97009   8.494   1.616   3.470  1.7743  0.8496 -1.0087
  719MOL0     H97010   8.235   1.738   3.622 -0.9849 -0.4586  0.6839
  719MOL0     H97011   8.280   1.798   3.481 -2.5239  1.5655  3.8069
  719MOL0     H97012   8.243   1.499   3.496  2.1061  0.4848  0.5568
  719MOL0     H97013   8.244   1.605   3.356  1.0442  0.1685  0.2748
  719MOL0     H97014   8.009   1.523   3.446 -0.3409  0.0132 -0.9878
  719MOL0     H97015   8.047   1.623   3.588  0.5670 -1.2338  0.4155
  719MOL0     H97016   7.886   1.823   3.564  4.2046  1.7340  1.1862
  719MOL0     H97017   7.767   2.032   3.245  1.5480 -3.9761 -1.3136
  719MOL0     H97018   7.736   2.018   3.428  0.4429 -0.2227  1.0554
  719MOL0     H97019   7.839   2.216   3.448 -1.6421  2.4096 -2.9418
  719MOL0     H97020   7.989   2.139   3.375  0.6611  1.9567  0.3197
  719MOL0     H97021   7.735   2.246   3.238  0.6706  1.2004  0.1840
  719MOL0     H97022   7.898   2.206   3.161  0.3201 -2.3113  1.3182
  719MOL0     H97023   7.982   2.392   3.324 -0.8635 -1.4209  0.9192
  719MOL0     H97024   7.809   2.447   3.326 -0.5226 -2.6535  1.4375
  719MOL0     H97025   7.743   2.305   2.998  0.9075  0.0745 -2.2527
  719MOL0     H97026   7.561   2.372   2.862  0.1664 -1.5327  0.8525
  719MOL0     H97027   7.182   2.771   2.831  1.1585  0.2486 -0.3151
  719MOL0     H97028   7.012   2.869   2.646 -1.3881  0.5086 -1.9737
  719MOL0     H97029   6.911   2.878   2.445  6.3505 -4.1292 -3.3382
  719MOL0     H97030   6.956   3.035   2.525 -0.7685 -1.2028 -0.1602
  719MOL0     H97031   6.842   3.000   2.250  0.9270 -2.5735  2.6734
  719MOL0     H97032   6.812   3.137   2.366 -0.5910  0.9893 -1.5618
  719MOL0     H97033   7.054   3.103   2.189 -2.0222  0.0720 -2.3005
  719MOL0     H97034   6.926   3.205   2.151  0.2894 -3.5725 -1.7029
  719MOL0     H97035   7.120   3.248   2.381  2.4742  1.3887 -3.3425
  719MOL0     H97036   6.949   3.291   2.406 -0.1157 -0.3211 -0.8034
  719MOL0     H97037   6.957   3.425   2.191  0.9432 -0.0532 -0.5226
  719MOL0     H97038   7.125   3.381   2.177  0.9981 -2.7155  0.6649
  719MOL0     H97039   7.014   3.511   2.430 -2.5442 -1.7030 -2.1128
  719MOL0     H97040   7.185   3.487   2.380 -0.0329  0.8275  1.0481
  719MOL0     H97041   6.981   3.700   2.295 -0.3617 -0.0924 -1.0300
  719MOL0     H97042   7.091   3.644   2.175  2.7253  3.4540  0.5975
  719MOL0     H97043   7.186   3.753   2.439  1.4638 -0.9770  0.4587
  719MOL0     H97044   7.278   3.719   2.295 -0.9636 -1.3219 -0.1689
  719MOL0     H97045   7.345   2.912   2.384 -1.5228  0.9927 -1.6408
  719MOL0     H97046   7.483   2.849   2.552 -0.5861 -0.3431 -1.1449
  719MOL0     H97047   7.663   2.786   2.922 -2.0702  0.5066  0.9464
  719MOL0     H97048   7.829   2.725   3.084  1.6442 -0.1712 -0.2261
  719MOL0     H97049   8.438   1.158   3.884 -1.0290  2.2952  1.2640
  719MOL0     H97050   8.376   0.962   4.008  0.2638 -0.3226 -0.7526
  719MOL0     H97051   8.647   0.509   4.239  0.1651  0.6564 -0.4067
  719MOL0     H97052   8.540   0.307   4.325 -1.8032 -1.6368  0.8122
  719MOL0     H97053   8.456   0.161   4.476  0.4368 -1.3173  0.0497
  719MOL0     H97054   8.378   0.130   4.324 -0.3814 -0.6530 -0.2024
  719MOL0     H97055   8.258   0.100   4.593  2.7213  1.4342 -0.4720
  719MOL0     H97056   8.314  -0.041   4.511  2.4729  1.4035  2.8342
  719MOL0     H97057   8.151   0.016   4.312  2.9195  1.3430 -0.5703
  719MOL0     H97058   8.099   0.152   4.407 -0.5513  0.0447 -1.0180
  719MOL0     H97059   8.063  -0.133   4.485  1.9622  1.7973 -1.9783
  719MOL0     H97060   8.032  -0.003   4.599  0.2223  4.0003 -0.1321
  719MOL0     H97061   7.681   0.030   4.371 -1.7145 -1.0205  3.9423
  719MOL0     H97062   8.235   0.519   4.518 -0.4604  0.6651 -0.9086
  719MOL0     H97063   8.261   0.756   4.562 -0.2853 -1.0020 -0.4110
  719MOL0     H97064   8.393   0.848   4.486  0.6286  0.4404  1.6861
  719MOL0     H97065   8.247   0.825   4.395  2.3849 -0.5704 -1.8514
  720MOL0     O97066   4.873   1.901   6.762  0.8892 -0.1945 -0.1557
  720MOL0     C97067   4.881   1.881   6.641 -0.3686 -0.0960 -0.0591
  720MOL0     O97068   4.872   1.765   6.574  0.8650 -0.2538 -0.0141
  720MOL0     C97069   4.849   1.644   6.638  0.3351 -0.5088 -0.4901
  720MOL0     C97070   4.942   1.602   6.746  0.6083  0.3814 -0.5862
  720MOL0     C97071   4.937   1.467   6.797  0.1556  0.2296  0.2222
  720MOL0     C97072   4.835   1.387   6.742  0.5952 -0.3388  0.2650
  720MOL0     O97073   4.818   1.269   6.809 -1.3290 -0.4638 -0.0615
  720MOL0     C97074   4.923   1.180   6.760  0.4023  0.4740 -0.5426
  720MOL0     C97075   4.894   1.037   6.812 -0.3756 -0.4131 -0.3829
  720MOL0     C97076   4.987   0.928   6.752  0.4942  0.0223 -0.2037
  720MOL0     C97077   5.137   0.958   6.761 -0.1213  0.3129  0.6345
  720MOL0     C97078   5.214   0.833   6.782  0.1845 -0.1523 -0.9955
  720MOL0     C97079   5.357   0.878   6.831 -0.1975  0.6895 -0.6344
  720MOL0     C97080   5.456   0.764   6.845  0.0711  0.5262 -0.1271
  720MOL0     C97081   5.597   0.813   6.877  0.3969  0.1383  0.0962
  720MOL0     N97082   5.605   0.903   6.998  0.2239  0.3097 -0.1594
  720MOL0     C97083   5.536   0.877   7.114  0.3362 -0.0755  0.8435
  720MOL0     C97084   5.548   0.987   7.188  0.2819  0.1520  0.1999
  720MOL0     C97085   5.486   1.012   7.326 -0.3357 -0.1274 -0.1146
  720MOL0     C97086   5.380   0.921   7.383 -0.0293 -0.0615 -0.4587
  720MOL0     C97087   5.254   0.905   7.285  0.1285 -0.6993  1.4170
  720MOL0     C97088   5.220   1.044   7.227  0.4635 -0.1925 -0.1105
  720MOL0     O97089   5.180   1.137   7.330 -0.2391  1.5461  0.9135
  720MOL0     C97090   5.167   1.267   7.290 -1.2057 -0.9578  0.2055
  720MOL0     C97091   5.110   1.357   7.380  0.5521 -0.0812 -0.0919
  720MOL0     C97092   5.088   1.494   7.361 -0.1906  0.3856 -0.1011
  720MOL0     C97093   5.117   1.547   7.236 -0.0036  0.7400  0.0660
  720MOL0     C97094   5.110   1.693   7.216  0.2632  0.0727 -0.7139
  720MOL0     O97095   5.091   1.737   7.093  0.1213 -0.7942  0.7998
  720MOL0     C97096   5.090   1.873   7.058 -0.1790  0.2679 -0.6462
  720MOL0     C97097   5.056   1.982   7.132 -0.3669 -0.7112 -0.2958
  720MOL0     C97098   5.088   2.109   7.083  0.2787  0.0133  0.3372
  720MOL0     C97099   5.137   2.126   6.954 -1.1913 -0.1555 -0.4406
  720MOL0     O97100   5.167   2.257   6.931 -0.5608  0.0376  0.6353
  720MOL0     C97101   5.208   2.299   6.799 -0.6436 -0.5909 -0.6217
  720MOL0     C97102   5.188   2.457   6.785  0.7445 -0.3140  0.2474
  720MOL0     C97103   5.175   2.490   6.623 -0.0730  0.6007 -0.2682
  720MOL0     C97104   5.156   2.640   6.600  0.8481  0.9683 -0.4620
  720MOL0     C97105   5.290   2.707   6.564 -0.2830  0.9069  0.5846
  720MOL0     C97106   5.285   2.853   6.556  0.6086 -0.5220 -0.3027
  720MOL0     C97107   5.228   2.930   6.681  0.0506 -0.4042 -1.1724
  720MOL0     C97108   5.281   3.067   6.676 -0.1606  0.0554 -0.2803
  720MOL0    Cl97109   5.201   3.160   6.793  0.1914 -0.0379  0.3746
  720MOL0     C97110   5.174   2.016   6.878  0.3379 -0.0923 -0.3907
  720MOL0     C97111   5.146   1.888   6.933 -0.1752  0.5868  0.7365
  720MOL0     O97112   5.092   1.756   7.319  0.4211 -0.4387  0.2133
  720MOL0     C97113   5.168   1.466   7.134  0.3462  0.4075 -1.1266
  720MOL0     C97114   5.192   1.334   7.156 -0.5588 -0.2868 -0.0243
  720MOL0     N97115   5.622   1.076   7.109  0.3623 -0.0885 -0.7436
  720MOL0     N97116   5.665   1.025   6.996 -0.0510  0.6940 -0.7408
  720MOL0     C97117   4.746   1.423   6.641  0.3747 -0.5273 -0.0099
  720MOL0     C97118   4.758   1.555   6.585  0.8626 -0.5715 -0.6065
  720MOL0     C97119   4.925   1.991   6.551  0.5785 -1.3137  0.0986
  720MOL0     C97120   4.990   1.966   6.429 -0.5846 -0.1533  0.0374
  720MOL0     C97121   5.022   2.071   6.350 -0.0461  0.7388  0.3995
  720MOL0     C97122   4.984   2.204   6.373  0.4284  0.2499 -0.1494
  720MOL0     O97123   5.008   2.314   6.292  0.1851  0.1097 -0.1370
  720MOL0     C97124   5.079   2.276   6.170 -0.2170  0.1449  0.1459
  720MOL0     C97125   5.090   2.410   6.090 -0.9413 -0.3497 -0.1996
  720MOL0     C97126   5.190   2.516   6.157 -0.0316 -0.1789  0.2995
  720MOL0     C97127   5.174   2.654   6.086  1.1039 -0.4174  1.1864
  720MOL0     C97128   5.244   2.658   5.956 -0.4174  0.5348 -0.0903
  720MOL0     C97129   5.320   2.669   5.859 -0.0425  0.5697 -0.1545
  720MOL0     C97130   4.923   2.231   6.495  0.2055 -0.0345  0.2512
  720MOL0     C97131   4.888   2.125   6.583  0.2409  0.3403 -0.3474
  720MOL0     C97132   4.849   2.170   6.717 -1.2036  0.4073 -1.0230
  720MOL0     H97133   5.033   1.657   6.768  0.4215  0.2573  0.5606
  720MOL0     H97134   4.994   1.429   6.881 -0.2983 -0.2209  0.3286
  720MOL0     H97135   4.943   1.185   6.653  0.7629 -0.8815 -0.5676
  720MOL0     H97136   5.015   1.201   6.815 -0.0295 -0.2715  0.5143
  720MOL0     H97137   4.794   1.011   6.778 -0.9893 -0.8356  1.5808
  720MOL0     H97138   4.893   1.040   6.922 -1.2225 -3.8706 -0.1803
  720MOL0     H97139   4.960   0.900   6.650  0.7958  0.3376 -0.3719
  720MOL0     H97140   4.972   0.842   6.818  2.6115 -0.3146 -0.0920
  720MOL0     H97141   5.173   1.000   6.667  1.0086 -2.5735 -0.2974
  720MOL0     H97142   5.151   1.027   6.845  0.5104  2.1112 -0.8875
  720MOL0     H97143   5.163   0.765   6.851  1.8308 -1.2867 -0.8351
  720MOL0     H97144   5.222   0.778   6.687  1.0896 -2.6381  0.4205
  720MOL0     H97145   5.397   0.954   6.763  0.2708 -0.1067 -1.2701
  720MOL0     H97146   5.345   0.927   6.928  1.1166  2.5157 -1.3285
  720MOL0     H97147   5.463   0.728   6.742 -2.2839 -0.2842 -0.0626
  720MOL0     H97148   5.413   0.686   6.908  0.8065  2.8763  3.5810
  720MOL0     H97149   5.641   0.718   6.906  0.1573 -0.1481 -0.4614
  720MOL0     H97150   5.645   0.862   6.791  3.2380 -1.8994  0.3760
  720MOL0     H97151   5.473   0.794   7.145 -2.0178  2.1494  2.4730
  720MOL0     H97152   5.555   1.013   7.411 -4.1789 -0.5369  3.3498
  720MOL0     H97153   5.456   1.116   7.336  1.5665  0.5750 -1.2272
  720MOL0     H97154   5.422   0.820   7.393  0.7805  0.2455 -0.6473
  720MOL0     H97155   5.348   0.967   7.476 -1.4205  2.9401 -2.2896
  720MOL0     H97156   5.166   0.868   7.338 -2.4724  1.1014 -1.2957
  720MOL0     H97157   5.277   0.834   7.205  0.9153  2.9974 -1.9967
  720MOL0     H97158   5.139   1.032   7.155  1.8075  0.1751 -1.7337
  720MOL0     H97159   5.308   1.072   7.169  0.6341 -0.9092 -0.1996
  720MOL0     H97160   5.092   1.312   7.477 -4.7564 -0.2158 -0.8556
  720MOL0     H97161   5.064   1.543   7.454  2.6200 -2.0811  2.1438
  720MOL0     H97162   5.020   1.967   7.233  0.5690  0.9190  0.3130
  720MOL0     H97163   5.070   2.196   7.145 -1.7134 -3.1442  4.7686
  720MOL0     H97164   5.310   2.263   6.792 -1.3373 -2.7712 -0.1605
  720MOL0     H97165   5.141   2.252   6.726 -0.8401 -0.1627 -0.7207
  720MOL0     H97166   5.091   2.489   6.825 -0.3682 -0.4667 -2.1428
  720MOL0     H97167   5.277   2.500   6.831  1.7608  0.2110 -2.0902
  720MOL0     H97168   5.270   2.466   6.573  2.0746  3.6139  1.9749
  720MOL0     H97169   5.092   2.442   6.571  0.0857  1.7180 -1.6211
  720MOL0     H97170   5.124   2.693   6.690  1.3359  4.5262 -2.1967
  720MOL0     H97171   5.075   2.657   6.528  1.4195  2.5210 -0.7769
  720MOL0     H97172   5.322   2.667   6.467 -0.7357  0.7731  0.4865
  720MOL0     H97173   5.357   2.698   6.650 -0.6962 -0.0086  0.8191
  720MOL0     H97174   5.386   2.895   6.550 -0.9831  4.0296  0.2667
  720MOL0     H97175   5.240   2.889   6.464 -1.2890 -0.0799  0.7437
  720MOL0     H97176   5.259   2.877   6.772 -0.7519  0.8319 -0.1533
  720MOL0     H97177   5.120   2.939   6.669 -0.0786  0.4064  0.3785
  720MOL0     H97178   5.385   3.080   6.706 -0.9941  3.6001  1.7959
  720MOL0     H97179   5.277   3.107   6.575 -1.5590  1.0705  0.1394
  720MOL0     H97180   5.206   2.035   6.776  4.2297 -0.8046  0.5474
  720MOL0     H97181   5.165   1.798   6.876 -3.2132  0.2958 -0.0263
  720MOL0     H97182   5.167   1.511   7.035 -0.6181  0.5838 -1.0522
  720MOL0     H97183   5.226   1.263   7.082 -0.9598  1.3284 -1.8640
  720MOL0     H97184   4.665   1.361   6.605 -0.9771  1.2974 -0.2850
  720MOL0     H97185   4.683   1.579   6.510 -0.6615 -1.3834  0.5863
  720MOL0     H97186   5.017   1.864   6.403  3.9482  0.2083  2.3929
  720MOL0     H97187   5.080   2.050   6.260 -0.9060 -0.5427  0.1041
  720MOL0     H97188   5.011   2.209   6.116  0.1673 -1.5853  1.6866
  720MOL0     H97189   5.176   2.230   6.190  0.1544  1.5855  1.9252
  720MOL0     H97190   4.994   2.462   6.081 -0.8479 -0.1373  0.0180
  720MOL0     H97191   5.124   2.385   5.989  1.3980 -0.5701  0.5708
  720MOL0     H97192   5.291   2.473   6.159  0.7313  1.5115  2.9397
  720MOL0     H97193   5.161   2.514   6.263  3.2784 -0.0856  1.3108
  720MOL0     H97194   5.068   2.679   6.075  1.2407  0.0895  0.9524
  720MOL0     H97195   5.208   2.735   6.152 -1.5325  0.9823  0.9700
  720MOL0     H97196   5.387   2.685   5.777  1.9669  0.1511  1.3382
  720MOL0     H97197   4.893   2.332   6.521 -0.9702 -0.6042  1.1407
  720MOL0     H97198   4.938   2.161   6.780 -1.0991 -0.9116 -1.3412
  720MOL0     H97199   4.840   2.279   6.722  1.7527  0.7022  0.7074
  720MOL0     H97200   4.764   2.115   6.757 -0.4786 -0.1481 -0.2048
  721MOL0     O97201   7.445   5.215   2.854 -0.8566  0.0793 -0.0894
  721MOL0     C97202   7.557   5.272   2.851  0.2888 -0.0802  0.1461
  721MOL0     O97203   7.647   5.278   2.748 -0.3075 -0.1225  0.0068
  721MOL0     C97204   7.646   5.200   2.631  0.8869  0.2003  0.0305
  721MOL0     C97205   7.730   5.082   2.622  0.0498 -0.2318  0.2706
  721MOL0     C97206   7.736   5.013   2.500 -0.5440  0.2095 -0.0381
  721MOL0     C97207   7.667   5.048   2.381  0.6905  0.5468 -0.4624
  721MOL0     O97208   7.667   4.982   2.258 -0.3283  0.1685 -0.7732
  721MOL0     C97209   7.552   4.903   2.224  0.4292  0.5065 -0.7051
  721MOL0     C97210   7.607   4.773   2.172 -0.3891  0.2887 -0.9488
  721MOL0     C97211   7.495   4.678   2.129  0.0932  0.0086 -0.5683
  721MOL0     C97212   7.528   4.531   2.166 -0.4828  0.8041 -0.7725
  721MOL0     C97213   7.400   4.447   2.145  0.2936 -0.1921  0.3150
  721MOL0     C97214   7.439   4.300   2.156  0.0603  0.2912  0.6340
  721MOL0     C97215   7.325   4.198   2.175 -0.6863  0.1066  0.4181
  721MOL0     C97216   7.268   4.142   2.039  1.1298  0.0169 -0.1293
  721MOL0     N97217   7.201   4.253   1.967 -0.3527  0.6679 -0.0566
  721MOL0     C97218   7.076   4.306   1.998 -0.7832  0.6404  0.4053
  721MOL0     C97219   7.076   4.418   1.912 -0.2087  1.8261  0.8805
  721MOL0     C97220   6.983   4.532   1.915  0.3582 -0.8157 -0.2106
  721MOL0     C97221   7.021   4.660   1.843 -0.4307 -0.3602 -0.0205
  721MOL0     C97222   6.914   4.766   1.864 -0.8346 -0.8134 -0.3480
  721MOL0     C97223   6.960   4.858   1.969 -0.0758  0.9031 -0.5488
  721MOL0     O97224   6.878   4.976   1.999 -0.2824  0.0838 -0.3658
  721MOL0     C97225   6.890   5.092   1.925 -0.2049  0.2302 -0.7672
  721MOL0     C97226   6.786   5.187   1.943 -0.8741  0.2402  0.0463
  721MOL0     C97227   6.783   5.313   1.886 -0.0677  0.5002  0.2050
  721MOL0     C97228   6.887   5.336   1.788 -0.1058 -0.1178 -0.3271
  721MOL0     C97229   6.878   5.465   1.717  0.4232 -0.5175 -0.5632
  721MOL0     O97230   6.908   5.465   1.588  0.0638  0.3487 -0.3051
  721MOL0     C97231   6.923   5.586   1.519  0.7792  0.6632 -0.3358
  721MOL0     C97232   7.041   5.650   1.547 -0.4803  0.2845 -0.5768
  721MOL0     C97233   7.073   5.766   1.481 -0.0150 -0.3840  0.3218
  721MOL0     C97234   6.978   5.823   1.385 -0.3750 -0.1585 -0.5506
  721MOL0     O97235   7.022   5.927   1.305 -0.8354  0.1608  0.7603
  721MOL0     C97236   6.958   5.956   1.181 -0.7320  0.4988 -0.0747
  721MOL0     C97237   6.993   5.864   1.072  0.1659 -0.3200 -0.6264
  721MOL0     C97238   7.131   5.887   1.008  0.1798 -0.5526 -1.0423
  721MOL0     C97239   7.147   5.823   0.862 -0.8152 -0.4289 -0.5669
  721MOL0     C97240   7.271   5.895   0.804 -0.7265 -0.1843  0.9373
  721MOL0     C97241   7.410   5.847   0.864 -0.5921 -0.0094  0.1221
  721MOL0     C97242   7.416   5.700   0.898 -0.0889 -0.5278 -0.6892
  721MOL0     C97243   7.557   5.645   0.892 -0.1512  2.0462 -0.1561
  721MOL0    Cl97244   7.605   5.647   0.725  0.4288  0.3182  0.4064
  721MOL0     C97245   6.851   5.761   1.375 -0.5448  0.7915  0.6849
  721MOL0     C97246   6.828   5.642   1.441  0.1300  0.6218 -0.0810
  721MOL0     O97247   6.854   5.568   1.784  0.3341  1.0782 -0.5959
  721MOL0     C97248   6.988   5.246   1.763 -0.2409  0.6616 -0.0617
  721MOL0     C97249   6.991   5.132   1.844  0.1564 -0.0103 -0.5928
  721MOL0     N97250   7.187   4.412   1.828 -0.3790 -0.3839  0.4020
  721MOL0     N97251   7.259   4.309   1.857  0.1401 -0.5113  0.3872
  721MOL0     C97252   7.589   5.168   2.387  0.7037  0.0741  0.3184
  721MOL0     C97253   7.577   5.240   2.509  0.4038 -0.1678 -1.3154
  721MOL0     C97254   7.604   5.339   2.976 -0.1780 -0.8058 -0.0324
  721MOL0     C97255   7.732   5.409   2.965 -0.3459  0.2236  0.3739
  721MOL0     C97256   7.783   5.471   3.082 -0.2578 -0.6704 -0.0030
  721MOL0     C97257   7.732   5.442   3.211  0.3678 -0.4169  0.0598
  721MOL0     O97258   7.796   5.504   3.315  0.4769  0.0424  0.6107
  721MOL0     C97259   7.750   5.477   3.457 -0.3331  0.4485  0.2683
  721MOL0     C97260   7.837   5.554   3.555 -0.2614  0.5935 -0.3609
  721MOL0     C97261   7.990   5.507   3.547  0.3476 -0.2250  0.3167
  721MOL0     C97262   8.068   5.608   3.636  0.0105 -0.1015  0.4074
  721MOL0     C97263   8.086   5.536   3.764 -0.0164  0.4575 -0.0932
  721MOL0     C97264   8.101   5.474   3.867  0.3613 -0.8587 -0.5239
  721MOL0     C97265   7.622   5.367   3.224  0.1260 -0.3418  0.8612
  721MOL0     C97266   7.554   5.323   3.108 -0.2127  0.1059  0.1728
  721MOL0     C97267   7.436   5.231   3.145 -0.7247 -0.7155  0.4904
  721MOL0     H97268   7.790   5.063   2.711  1.3307 -2.3653 -0.9761
  721MOL0     H97269   7.803   4.930   2.485 -0.5750  0.3309 -0.9118
  721MOL0     H97270   7.479   4.889   2.305  2.4494 -1.2095  0.9404
  721MOL0     H97271   7.500   4.948   2.139 -2.4951 -2.4076 -0.6558
  721MOL0     H97272   7.664   4.719   2.248 -0.7170 -1.2218 -1.7409
  721MOL0     H97273   7.672   4.779   2.084  0.1671  0.8486 -0.5164
  721MOL0     H97274   7.468   4.696   2.024 -3.6335  0.6331  0.3581
  721MOL0     H97275   7.405   4.700   2.187  0.9359  0.6416  0.5352
  721MOL0     H97276   7.615   4.495   2.110  0.1042  2.7380 -1.1961
  721MOL0     H97277   7.558   4.518   2.271 -0.6003  1.3903 -0.6638
  721MOL0     H97278   7.331   4.480   2.223 -0.9003  1.6732 -1.4286
  721MOL0     H97279   7.354   4.479   2.051 -0.1009  1.5881  1.0686
  721MOL0     H97280   7.499   4.263   2.072  0.0546 -1.2955  1.2901
  721MOL0     H97281   7.487   4.289   2.254 -0.6317  0.3238  0.9897
  721MOL0     H97282   7.244   4.230   2.241 -1.9354 -3.6297  0.9309
  721MOL0     H97283   7.376   4.112   2.217  0.1202  1.5517  2.5625
  721MOL0     H97284   7.359   4.107   1.989  1.8995 -0.6674  1.6768
  721MOL0     H97285   7.212   4.050   2.055  1.4137  0.1062  1.6031
  721MOL0     H97286   7.001   4.290   2.075 -0.1891  1.8549  1.2897
  721MOL0     H97287   6.884   4.512   1.871  0.6821  1.5640 -2.1958
  721MOL0     H97288   6.970   4.562   2.020 -1.5008  2.0662 -1.1397
  721MOL0     H97289   7.118   4.690   1.882 -0.2252 -0.7135 -0.2531
  721MOL0     H97290   7.034   4.623   1.741 -0.9811 -2.3734  0.6032
  721MOL0     H97291   6.812   4.728   1.880 -1.6080  0.5713 -1.7268
  721MOL0     H97292   6.902   4.818   1.769 -1.9609 -2.3485 -1.0988
  721MOL0     H97293   7.064   4.892   1.964 -0.0908  1.3938  1.3891
  721MOL0     H97294   6.953   4.802   2.063  0.7624 -0.2293 -1.1425
  721MOL0     H97295   6.699   5.165   2.005 -1.1968 -1.7937 -1.0376
  721MOL0     H97296   6.705   5.388   1.895  0.7194  1.2210  1.4149
  721MOL0     H97297   7.117   5.605   1.610  1.0455  1.5984 -1.4003
  721MOL0     H97298   7.170   5.813   1.469 -1.5645  2.7199 -1.5395
  721MOL0     H97299   6.849   5.961   1.184 -0.9380 -2.3585 -0.7413
  721MOL0     H97300   6.990   6.052   1.139 -1.8006  0.6541 -0.5787
  721MOL0     H97301   6.998   5.764   1.117 -4.0437 -0.8911 -1.0447
  721MOL0     H97302   6.927   5.861   0.985  2.2397 -4.5529 -2.3188
  721MOL0     H97303   7.129   5.995   0.996  3.5109 -0.1176  1.0631
  721MOL0     H97304   7.211   5.866   1.079 -1.7005 -0.4310  1.2494
  721MOL0     H97305   7.059   5.846   0.801 -0.3382  0.5987 -0.8793
  721MOL0     H97306   7.162   5.714   0.864 -0.0726 -0.3247  0.8846
  721MOL0     H97307   7.255   6.003   0.808  0.5743  0.1733 -1.7345
  721MOL0     H97308   7.287   5.876   0.698  0.6028  0.1751  1.0514
  721MOL0     H97309   7.499   5.884   0.812 -0.9895  1.0728  0.1749
  721MOL0     H97310   7.421   5.906   0.956 -2.0469 -2.3144  1.8981
  721MOL0     H97311   7.362   5.639   0.825 -2.0235 -1.9146  1.7784
  721MOL0     H97312   7.371   5.689   0.997  1.4951  2.2429  0.4710
  721MOL0     H97313   7.632   5.682   0.962 -0.8129  2.3021  0.4369
  721MOL0     H97314   7.544   5.542   0.926 -0.3981  2.7400  2.0038
  721MOL0     H97315   6.777   5.801   1.307 -0.9018 -3.3588 -1.7299
  721MOL0     H97316   6.733   5.595   1.419  0.8140 -0.7672 -0.1658
  721MOL0     H97317   7.068   5.266   1.691 -1.1425  2.9537 -0.4884
  721MOL0     H97318   7.079   5.068   1.844 -1.2044 -1.9916 -1.5614
  721MOL0     H97319   7.528   5.169   2.297  2.2324 -1.4705 -0.8178
  721MOL0     H97320   7.519   5.331   2.517 -1.6302 -0.9334 -5.1541
  721MOL0     H97321   7.779   5.420   2.867  2.2391 -0.6964  1.4041
  721MOL0     H97322   7.862   5.543   3.063 -2.7619  2.4978  0.6947
  721MOL0     H97323   7.766   5.370   3.474 -1.1741  0.1048 -0.9284
  721MOL0     H97324   7.646   5.510   3.464 -0.3631  0.5023 -0.3500
  721MOL0     H97325   7.789   5.545   3.654 -0.4311  1.5921 -0.3449
  721MOL0     H97326   7.819   5.660   3.533  1.6804  0.7366 -1.4052
  721MOL0     H97327   8.022   5.529   3.445 -0.4875  1.8318  0.4481
  721MOL0     H97328   8.006   5.402   3.574  1.7260  0.0523  0.6643
  721MOL0     H97329   8.163   5.610   3.582 -0.8614 -1.6396 -1.2765
  721MOL0     H97330   8.023   5.708   3.638 -0.8900 -0.3361 -2.9059
  721MOL0     H97331   8.112   5.429   3.964  0.5965  0.8749  0.2776
  721MOL0     H97332   7.592   5.352   3.327  1.8752 -1.6690  1.2392
  721MOL0     H97333   7.470   5.127   3.131 -0.0618 -0.2683 -1.6375
  721MOL0     H97334   7.406   5.238   3.250  1.2672  0.2740  1.0463
  721MOL0     H97335   7.349   5.246   3.080 -0.5600 -3.7414 -0.6198
  722MOL0     O97336   3.136   0.249   6.277  0.7802  0.0348 -0.6687
  722MOL0     C97337   3.236   0.270   6.341 -0.1354  0.7721 -0.7734
  722MOL0     O97338   3.283   0.392   6.356  0.5447 -0.8645  1.0163
  722MOL0     C97339   3.216   0.506   6.304 -0.6474 -0.1967 -0.5410
  722MOL0     C97340   3.173   0.610   6.387  0.2628 -0.2430 -0.1878
  722MOL0     C97341   3.080   0.710   6.350 -0.2851 -0.0138 -0.6818
  722MOL0     C97342   3.064   0.727   6.213 -0.5085 -0.7663  0.8342
  722MOL0     O97343   2.981   0.831   6.183 -0.0936  0.0531  0.0256
  722MOL0     C97344   2.991   0.899   6.054  0.0939 -0.7394 -0.4887
  722MOL0     C97345   2.883   1.005   6.068  0.3534 -0.0266 -0.1784
  722MOL0     C97346   2.904   1.090   6.196 -0.2978 -0.0921 -0.2248
  722MOL0     C97347   2.839   1.224   6.178  1.2448 -0.8497  0.4085
  722MOL0     C97348   2.845   1.317   6.303  0.5572 -0.0571  0.1296
  722MOL0     C97349   2.993   1.361   6.334 -0.5221  0.0975 -0.6444
  722MOL0     C97350   2.992   1.484   6.429  0.7167 -0.1651 -0.2827
  722MOL0     C97351   3.134   1.523   6.482 -0.9704 -0.0412 -0.3365
  722MOL0     N97352   3.131   1.624   6.594 -0.6212  1.0239  0.6317
  722MOL0     C97353   3.055   1.733   6.601 -0.7390 -0.2817  1.0098
  722MOL0     C97354   3.057   1.764   6.728  0.8828 -1.0415 -0.6796
  722MOL0     C97355   2.986   1.885   6.803  0.2835  0.4723  0.0854
  722MOL0     C97356   3.072   2.010   6.780 -0.2031  0.0691  0.9999
  722MOL0     C97357   3.216   1.986   6.813 -0.7301  0.1273 -0.6924
  722MOL0     C97358   3.238   1.935   6.958 -0.4042 -0.2044  0.7462
  722MOL0     O97359   3.371   1.905   7.002  0.1334 -0.5458  0.0142
  722MOL0     C97360   3.467   2.002   7.022  0.2699 -0.2476 -0.2361
  722MOL0     C97361   3.438   2.130   7.072 -0.0385 -1.2931  0.3082
  722MOL0     C97362   3.531   2.230   7.088  0.2508  0.2898 -0.0266
  722MOL0     C97363   3.657   2.195   7.076 -1.0266  0.1609  0.6684
  722MOL0     C97364   3.777   2.283   7.107  0.4096 -0.7305  0.1430
  722MOL0     O97365   3.907   2.229   7.122  0.2567  0.1260  0.6466
  722MOL0     C97366   4.014   2.314   7.170  0.3709 -0.1822 -0.6296
  722MOL0     C97367   3.998   2.416   7.267 -0.9296 -1.4926  0.2919
  722MOL0     C97368   4.105   2.501   7.295  0.2790  0.7923  0.4891
  722MOL0     C97369   4.221   2.514   7.216  0.0607 -0.2945  0.0366
  722MOL0     O97370   4.311   2.623   7.232 -0.3844  0.0565  0.0456
  722MOL0     C97371   4.322   2.695   7.112  1.4299  0.8714 -0.0204
  722MOL0     C97372   4.397   2.822   7.156 -0.2748 -0.2521 -0.1379
  722MOL0     C97373   4.536   2.785   7.213 -0.5117 -0.4828 -0.1829
  722MOL0     C97374   4.603   2.913   7.255 -0.3287 -0.2123 -0.2083
  722MOL0     C97375   4.734   2.889   7.325 -0.1983 -0.2103  0.9702
  722MOL0     C97376   4.788   3.019   7.387 -0.3030 -0.0158  0.1686
  722MOL0     C97377   4.702   3.059   7.508  0.7098  0.1236 -0.2375
  722MOL0     C97378   4.757   3.180   7.582 -0.2910 -0.2100 -0.9138
  722MOL0    Cl97379   4.757   3.332   7.484 -0.1038 -0.3898 -0.0725
  722MOL0     C97380   4.239   2.412   7.121 -0.5622  0.8441 -0.6619
  722MOL0     C97381   4.135   2.320   7.097  0.4454 -0.2882 -0.2937
  722MOL0     O97382   3.743   2.399   7.130  0.1770 -0.3082 -0.0353
  722MOL0     C97383   3.698   2.065   7.028 -1.3176 -0.4793  1.0275
  722MOL0     C97384   3.602   1.963   7.017  0.8066 -0.5435  0.2512
  722MOL0     N97385   3.127   1.673   6.806 -0.0902  0.5661  0.1767
  722MOL0     N97386   3.169   1.580   6.718  0.9080 -0.4763 -1.0093
  722MOL0     C97387   3.115   0.629   6.120 -0.3228 -0.0356 -0.5220
  722MOL0     C97388   3.174   0.513   6.163 -0.3247 -0.1517 -1.2560
  722MOL0     C97389   3.305   0.155   6.404 -0.0329  0.3625 -0.6840
  722MOL0     C97390   3.442   0.159   6.425 -0.4037 -0.3277 -0.0388
  722MOL0     C97391   3.519   0.061   6.478 -0.5379 -0.9307 -0.7007
  722MOL0     C97392   3.452  -0.060   6.503 -0.7039  0.1706  0.4787
  722MOL0     O97393   3.540  -0.160   6.548 -0.4551  0.7117  0.5933
  722MOL0     C97394   3.494  -0.286   6.602  0.2044 -0.0578 -0.5598
  722MOL0     C97395   3.613  -0.378   6.630  0.2314  0.2244 -1.1781
  722MOL0     C97396   3.665  -0.428   6.496 -0.4540 -0.0498  0.4962
  722MOL0     C97397   3.786  -0.532   6.526 -0.1711  1.3402  0.9233
  722MOL0     C97398   3.753  -0.655   6.601 -0.5038  0.6489 -0.5019
  722MOL0     C97399   3.737  -0.753   6.675  0.5900  0.8417  0.4787
  722MOL0     C97400   3.312  -0.073   6.500  0.4011  0.9131  0.9699
  722MOL0     C97401   3.235   0.033   6.450  0.2798  1.0623 -0.0635
  722MOL0     C97402   3.087   0.006   6.465  0.5622 -0.3442  0.6607
  722MOL0     H97403   3.208   0.606   6.490  0.4695  0.1518 -0.2419
  722MOL0     H97404   3.033   0.794   6.400 -0.5108 -0.3809 -0.2716
  722MOL0     H97405   3.086   0.953   6.045 -1.8480  3.5079  1.6097
  722MOL0     H97406   2.969   0.831   5.971  1.0373 -1.5400 -0.0993
  722MOL0     H97407   2.785   0.958   6.069  0.1191  0.3863 -1.6484
  722MOL0     H97408   2.897   1.062   5.975  2.2076 -0.2593 -0.0864
  722MOL0     H97409   3.007   1.121   6.214 -0.0255 -1.1384  0.1009
  722MOL0     H97410   2.864   1.052   6.291  1.3181  1.6118  1.2224
  722MOL0     H97411   2.889   1.278   6.097 -0.1300  0.0718  0.1369
  722MOL0     H97412   2.731   1.220   6.160  0.1001  3.7212  4.1860
  722MOL0     H97413   2.782   1.406   6.296 -0.6906 -0.5589  3.2459
  722MOL0     H97414   2.809   1.259   6.388 -0.1321 -2.6254 -1.8119
  722MOL0     H97415   3.031   1.272   6.384  0.1103 -0.3333 -1.8522
  722MOL0     H97416   3.042   1.381   6.238 -4.2820 -0.0072 -2.7449
  722MOL0     H97417   2.937   1.455   6.518  1.0721  2.4587  0.8781
  722MOL0     H97418   2.937   1.571   6.390  1.1568  0.0088 -0.5270
  722MOL0     H97419   3.194   1.437   6.514 -0.7733  1.1071  2.7583
  722MOL0     H97420   3.186   1.580   6.405 -1.5309  1.3138  0.2543
  722MOL0     H97421   3.002   1.794   6.529  0.5192  1.1759  1.2754
  722MOL0     H97422   2.885   1.910   6.769  0.1495  0.0882  0.1869
  722MOL0     H97423   2.984   1.866   6.911 -0.8519  3.2004  0.6338
  722MOL0     H97424   3.076   2.039   6.675  3.2355  1.7377  1.4457
  722MOL0     H97425   3.024   2.091   6.837 -1.5730  0.6278 -0.8440
  722MOL0     H97426   3.271   2.077   6.792 -1.7680  1.3513  1.5512
  722MOL0     H97427   3.266   1.914   6.746  0.1080 -0.1879  0.2492
  722MOL0     H97428   3.184   1.847   6.994  2.4198 -2.5460 -0.3889
  722MOL0     H97429   3.206   2.020   7.019  0.6921 -0.2253  1.3768
  722MOL0     H97430   3.337   2.167   7.087  0.4790  0.1872  0.2482
  722MOL0     H97431   3.497   2.327   7.122 -1.2329 -1.0064  2.4828
  722MOL0     H97432   3.906   2.417   7.324 -1.9548  1.2820 -1.1985
  722MOL0     H97433   4.097   2.575   7.373  0.3872  0.2571  1.0168
  722MOL0     H97434   4.364   2.636   7.030 -0.0964  0.2963 -0.4251
  722MOL0     H97435   4.218   2.717   7.085  0.5703 -2.2182  0.4413
  722MOL0     H97436   4.422   2.893   7.076  3.9056  0.5421  1.6365
  722MOL0     H97437   4.335   2.864   7.235 -0.4674  0.9595 -0.8971
  722MOL0     H97438   4.516   2.726   7.304  1.8370  2.8771  2.8172
  722MOL0     H97439   4.613   2.742   7.148  1.3070  2.0946  0.0789
  722MOL0     H97440   4.534   2.958   7.327  0.0417 -1.1158  0.7405
  722MOL0     H97441   4.624   2.966   7.161  3.0455 -0.0095  0.5389
  722MOL0     H97442   4.818   2.850   7.267  0.2013  0.4462  1.0992
  722MOL0     H97443   4.713   2.811   7.399 -3.7592 -0.7873 -0.4638
  722MOL0     H97444   4.894   3.006   7.412 -0.3040 -3.6099 -1.1290
  722MOL0     H97445   4.781   3.096   7.309 -0.5537  1.3165  1.4440
  722MOL0     H97446   4.708   2.978   7.581  2.1942  1.2338  0.9387
  722MOL0     H97447   4.597   3.071   7.481  1.1034  2.1047 -1.0683
  722MOL0     H97448   4.705   3.190   7.678  1.0700 -0.8104 -0.0743
  722MOL0     H97449   4.860   3.154   7.611 -0.6719 -2.0151 -1.0304
  722MOL0     H97450   4.333   2.397   7.070  0.2052  1.3636  0.5406
  722MOL0     H97451   4.136   2.260   7.007 -2.1878 -1.7526  0.5246
  722MOL0     H97452   3.803   2.043   7.014 -0.6995  1.0068  2.9183
  722MOL0     H97453   3.626   1.868   6.970  1.5526 -0.2071 -0.0717
  722MOL0     H97454   3.094   0.622   6.014 -5.6949  4.7214 -0.2499
  722MOL0     H97455   3.216   0.439   6.096 -0.2543 -0.9581 -0.3536
  722MOL0     H97456   3.492   0.255   6.418 -1.3617  0.3492  1.7049
  722MOL0     H97457   3.623   0.082   6.503 -1.0064  0.9975 -0.2176
  722MOL0     H97458   3.425  -0.334   6.531 -1.6350  2.1661 -0.4098
  722MOL0     H97459   3.431  -0.264   6.689 -0.1144  0.9851 -1.0364
  722MOL0     H97460   3.582  -0.465   6.689  2.8923 -0.3900 -0.5353
  722MOL0     H97461   3.684  -0.323   6.693 -0.6420  0.4379 -0.3506
  722MOL0     H97462   3.696  -0.340   6.440  1.7578 -0.7307  0.5510
  722MOL0     H97463   3.591  -0.477   6.433  2.7934 -1.7712 -2.3242
  722MOL0     H97464   3.813  -0.572   6.427 -2.2216 -1.3903  1.3558
  722MOL0     H97465   3.876  -0.485   6.567  1.8265 -0.8172 -0.6715
  722MOL0     H97466   3.717  -0.831   6.746  0.4976  0.1232 -0.3200
  722MOL0     H97467   3.277  -0.174   6.516  0.6347  1.0824  2.8117
  722MOL0     H97468   3.053  -0.053   6.379 -0.9144  0.2684  0.8003
  722MOL0     H97469   3.067  -0.043   6.561  0.4881 -0.3060  0.6652
  722MOL0     H97470   3.038   0.104   6.468  2.5782  1.1176 -4.1338
  723MOL0     O97471   8.400   5.344   0.045 -0.5849  0.0088 -0.2037
  723MOL0     C97472   8.499   5.393  -0.010  0.5936 -0.2027 -0.1651
  723MOL0     O97473   8.500   5.425  -0.147 -0.3678 -0.2332 -1.9958
  723MOL0     C97474   8.410   5.382  -0.229 -0.3019 -0.0139  0.8267
  723MOL0     C97475   8.345   5.472  -0.316 -0.2237  0.3601  0.3574
  723MOL0     C97476   8.251   5.442  -0.407 -0.1378 -0.2961 -0.5412
  723MOL0     C97477   8.229   5.305  -0.425  0.9806 -0.6123 -0.2111
  723MOL0     O97478   8.133   5.266  -0.514 -0.1823  0.1816  0.2654
  723MOL0     C97479   8.006   5.336  -0.548 -0.9577  0.1335 -0.8760
  723MOL0     C97480   7.912   5.250  -0.634  0.0394  0.5670  0.1460
  723MOL0     C97481   7.781   5.323  -0.657  0.5335  0.0450  0.9081
  723MOL0     C97482   7.695   5.248  -0.755  0.0193 -1.4951 -0.3609
  723MOL0     C97483   7.545   5.263  -0.734  0.3593  0.7913  0.7114
  723MOL0     C97484   7.475   5.150  -0.657  0.0480  0.0723 -0.1086
  723MOL0     C97485   7.523   5.118  -0.510  0.7531 -0.1431 -0.2598
  723MOL0     C97486   7.452   5.213  -0.410 -0.0764  0.6115  0.0211
  723MOL0     N97487   7.494   5.161  -0.275  1.4138 -0.1456 -0.1025
  723MOL0     C97488   7.442   5.061  -0.205  0.6361  1.1502 -0.3160
  723MOL0     C97489   7.529   5.056  -0.099  0.0602 -0.0522 -0.7718
  723MOL0     C97490   7.529   4.963   0.011  0.0139  0.1997  0.2455
  723MOL0     C97491   7.421   4.969   0.118 -0.7130 -0.0095  0.6588
  723MOL0     C97492   7.457   5.043   0.249  0.0100  0.2923 -0.8775
  723MOL0     C97493   7.511   5.180   0.211  0.1103  0.1118 -0.2229
  723MOL0     O97494   7.495   5.261   0.341  0.6432 -0.0776  0.1560
  723MOL0     C97495   7.483   5.394   0.330  0.7791  0.2308  0.6018
  723MOL0     C97496   7.541   5.469   0.224  1.0653  0.7992  0.7740
  723MOL0     C97497   7.511   5.594   0.200  0.3456 -1.1044  0.5446
  723MOL0     C97498   7.439   5.671   0.295  0.6105 -0.0283  1.0743
  723MOL0     C97499   7.403   5.812   0.263  0.5343 -0.1114 -0.5132
  723MOL0     O97500   7.277   5.853   0.308  0.1497  0.3056  0.2449
  723MOL0     C97501   7.242   5.975   0.261 -0.7544 -0.4455  0.3976
  723MOL0     C97502   7.124   5.980   0.189 -0.0258 -0.3465  0.4574
  723MOL0     C97503   7.088   6.097   0.111  0.1194  0.7790 -0.6201
  723MOL0     C97504   7.164   6.210   0.118  0.1976 -0.3345 -0.8345
  723MOL0     O97505   7.109   6.317   0.040  0.4449  0.8003 -0.0047
  723MOL0     C97506   7.191   6.420  -0.010 -0.4561 -0.4444  0.9325
  723MOL0     C97507   7.112   6.511  -0.091 -0.3709 -0.5805 -0.3165
  723MOL0     C97508   7.113   6.484  -0.242 -0.1470  0.3999 -0.7335
  723MOL0     C97509   7.064   6.607  -0.314  0.2479  0.2169 -0.0593
  723MOL0     C97510   7.095   6.615  -0.466  0.3818  0.3378  0.3882
  723MOL0     C97511   7.045   6.758  -0.523 -0.4754  0.3209 -0.2791
  723MOL0     C97512   6.891   6.766  -0.519  0.2932 -0.1652 -0.3366
  723MOL0     C97513   6.840   6.896  -0.596 -0.6052  0.0904 -0.2032
  723MOL0    Cl97514   6.654   6.906  -0.592  0.5602 -0.1662  0.3630
  723MOL0     C97515   7.274   6.219   0.201 -0.2682 -0.0260 -1.0201
  723MOL0     C97516   7.312   6.098   0.268 -0.5997  0.6495  0.0619
  723MOL0     O97517   7.475   5.872   0.174 -0.5824  0.2593 -0.2403
  723MOL0     C97518   7.391   5.610   0.413 -0.3838 -0.2570  0.7625
  723MOL0     C97519   7.426   5.468   0.442 -0.5138 -0.4656  0.9949
  723MOL0     N97520   7.624   5.154  -0.103 -0.1526 -0.2220  0.3658
  723MOL0     N97521   7.603   5.208  -0.213 -0.6213 -0.3419  0.1152
  723MOL0     C97522   8.278   5.215  -0.338 -0.8716  0.0257 -0.2824
  723MOL0     C97523   8.381   5.246  -0.245 -0.2843 -0.7759 -0.3135
  723MOL0     C97524   8.619   5.409   0.069 -1.0082  0.3021 -0.3602
  723MOL0     C97525   8.723   5.472  -0.002 -0.0603 -0.3569  0.4439
  723MOL0     C97526   8.851   5.479   0.051  0.8219 -0.2948  0.6122
  723MOL0     C97527   8.885   5.435   0.181 -0.1387  0.6177  0.5769
  723MOL0     O97528   9.011   5.436   0.227  0.2380  0.4014 -0.1039
  723MOL0     C97529   9.121   5.477   0.150  0.2323  0.5231 -0.1971
  723MOL0     C97530   9.173   5.596   0.237  0.1782 -0.0886  0.6316
  723MOL0     C97531   9.297   5.646   0.166 -0.2772 -0.4200  0.1043
  723MOL0     C97532   9.334   5.776   0.248  0.2419  0.1119  0.8225
  723MOL0     C97533   9.285   5.902   0.188  1.0912 -0.1435 -0.5544
  723MOL0     C97534   9.246   6.015   0.166 -0.2735 -0.3529 -0.6118
  723MOL0     C97535   8.779   5.388   0.260  0.0601 -0.3350 -0.2596
  723MOL0     C97536   8.648   5.357   0.199  0.0401 -0.7257 -0.8341
  723MOL0     C97537   8.560   5.276   0.294 -0.0373 -0.0246 -0.7259
  723MOL0     H97538   8.367   5.578  -0.306 -1.9970  0.6159  2.1910
  723MOL0     H97539   8.201   5.522  -0.460 -2.2184 -0.3865  1.1296
  723MOL0     H97540   7.948   5.363  -0.459 -0.8826 -0.0918 -0.7585
  723MOL0     H97541   8.028   5.428  -0.603 -1.8336 -1.3981 -4.0313
  723MOL0     H97542   7.900   5.156  -0.581  4.1813 -1.7826 -2.5271
  723MOL0     H97543   7.959   5.239  -0.733 -0.9292  0.0932 -0.2700
  723MOL0     H97544   7.788   5.426  -0.695  1.7178 -0.0501  0.8252
  723MOL0     H97545   7.724   5.326  -0.564 -2.0384 -1.1893 -0.5051
  723MOL0     H97546   7.718   5.293  -0.852  0.6080  3.7516  1.9108
  723MOL0     H97547   7.714   5.141  -0.770  1.7560 -1.4482  1.1414
  723MOL0     H97548   7.528   5.361  -0.687  1.5410 -0.3480  3.7602
  723MOL0     H97549   7.501   5.251  -0.834  2.2306  0.0332 -0.0592
  723MOL0     H97550   7.367   5.155  -0.673  0.0333  0.8031  0.1795
  723MOL0     H97551   7.501   5.054  -0.703 -0.8763 -0.0182 -0.4607
  723MOL0     H97552   7.630   5.140  -0.502  1.2017 -2.1585 -0.1948
  723MOL0     H97553   7.498   5.015  -0.481 -1.4964  0.1559 -0.9578
  723MOL0     H97554   7.470   5.319  -0.427 -0.9087  0.3805 -2.9222
  723MOL0     H97555   7.345   5.194  -0.418  0.1596 -3.1863  2.9716
  723MOL0     H97556   7.348   5.007  -0.205 -0.5673  2.9826  2.9669
  723MOL0     H97557   7.519   4.868  -0.042 -0.8089  1.6268 -2.3455
  723MOL0     H97558   7.631   4.951   0.049  0.5336 -1.5145 -1.5424
  723MOL0     H97559   7.330   5.020   0.083 -1.3931 -0.5721  1.5759
  723MOL0     H97560   7.406   4.864   0.145 -1.8332 -1.0265 -3.2536
  723MOL0     H97561   7.537   4.986   0.297  1.0576  0.1360 -2.7315
  723MOL0     H97562   7.371   5.053   0.316  0.0948 -0.4152 -0.6507
  723MOL0     H97563   7.444   5.232   0.142 -0.3014  2.3999  1.7722
  723MOL0     H97564   7.618   5.189   0.190  1.5352 -4.6616  3.2762
  723MOL0     H97565   7.594   5.409   0.151 -0.5645 -1.5669  1.4298
  723MOL0     H97566   7.553   5.649   0.116  1.5759  1.5920  2.7403
  723MOL0     H97567   7.064   5.890   0.185 -0.6847  0.1099 -0.7755
  723MOL0     H97568   7.011   6.091   0.035  1.1487  2.5935 -1.9097
  723MOL0     H97569   7.232   6.485   0.068  3.3126  1.2640 -2.1491
  723MOL0     H97570   7.282   6.388  -0.060  1.6223  0.3335  3.9264
  723MOL0     H97571   7.006   6.505  -0.062 -0.5596  4.7160  1.2583
  723MOL0     H97572   7.132   6.615  -0.062 -0.2851 -0.7792  0.3535
  723MOL0     H97573   7.211   6.441  -0.261 -0.0649 -1.6136  3.3304
  723MOL0     H97574   7.052   6.394  -0.256  1.5026 -0.6942 -1.1183
  723MOL0     H97575   7.114   6.693  -0.268  0.1461 -1.1426  2.7942
  723MOL0     H97576   6.957   6.610  -0.292  0.2833  1.5554  0.0038
  723MOL0     H97577   7.052   6.528  -0.517  2.4460  0.8680 -2.5251
  723MOL0     H97578   7.203   6.606  -0.482  1.1560  2.1543  3.6438
  723MOL0     H97579   7.087   6.843  -0.470 -1.9046 -0.2963  1.9807
  723MOL0     H97580   7.086   6.764  -0.624  2.4561  1.4993  0.8671
  723MOL0     H97581   6.881   6.776  -0.411  3.8597  0.1339  0.1094
  723MOL0     H97582   6.847   6.676  -0.563  1.4867 -0.4624 -0.9834
  723MOL0     H97583   6.888   6.978  -0.540  1.1305 -1.5680  0.8588
  723MOL0     H97584   6.861   6.897  -0.703 -3.6816 -1.0882 -0.9296
  723MOL0     H97585   7.324   6.314   0.218  0.1338  0.3061 -3.7356
  723MOL0     H97586   7.386   6.112   0.346 -0.7917  0.8006  0.2206
  723MOL0     H97587   7.354   5.669   0.497 -1.6008 -0.6941  0.5521
  723MOL0     H97588   7.398   5.425   0.538 -0.9028  0.8008  1.4570
  723MOL0     H97589   8.233   5.117  -0.347 -1.9658  0.5755 -1.1107
  723MOL0     H97590   8.426   5.169  -0.182  2.8641 -1.0681 -2.6483
  723MOL0     H97591   8.698   5.526  -0.093  1.6875  1.1783  0.8161
  723MOL0     H97592   8.928   5.520  -0.013  2.0719  0.9773  2.7971
  723MOL0     H97593   9.108   5.507   0.045 -2.4134 -0.6479 -0.2754
  723MOL0     H97594   9.190   5.392   0.151  1.2852  1.3352  1.8534
  723MOL0     H97595   9.192   5.548   0.333  0.0782  0.0246  0.7085
  723MOL0     H97596   9.101   5.679   0.245  0.6495  0.2361  1.6725
  723MOL0     H97597   9.294   5.670   0.060 -0.0119  2.2615  0.6223
  723MOL0     H97598   9.385   5.582   0.173 -0.7688 -1.4014 -2.0298
  723MOL0     H97599   9.295   5.754   0.348  1.9018 -0.7562  1.3286
  723MOL0     H97600   9.443   5.786   0.256  0.2835 -0.6766  1.3562
  723MOL0     H97601   9.209   6.114   0.146 -0.7957 -0.7956 -1.9100
  723MOL0     H97602   8.813   5.357   0.359 -1.9654 -0.3745  0.4571
  723MOL0     H97603   8.499   5.200   0.243  1.2361 -2.1757  0.7813
  723MOL0     H97604   8.627   5.238   0.371 -0.0832  1.6528  0.1902
  723MOL0     H97605   8.490   5.346   0.340 -0.9991 -0.5299 -1.3824
  724MOL0     O97606   5.930   7.813   3.485 -0.2025 -0.1835 -0.6698
  724MOL0     C97607   5.880   7.731   3.410  0.4005  0.8479 -0.6826
  724MOL0     O97608   5.939   7.622   3.363  0.3439  0.7058 -0.2978
  724MOL0     C97609   6.036   7.548   3.431 -0.4490  0.1166  0.2607
  724MOL0     C97610   6.079   7.564   3.561  0.3635  0.3492  0.8675
  724MOL0     C97611   6.182   7.487   3.614  0.0623  0.2944  0.3887
  724MOL0     C97612   6.238   7.394   3.535 -1.3771 -0.6774  0.2621
  724MOL0     O97613   6.342   7.310   3.579  0.1211 -0.3057  0.0940
  724MOL0     C97614   6.306   7.209   3.681 -0.4695 -0.0939  0.2325
  724MOL0     C97615   6.426   7.119   3.722  0.5352  0.0575  0.0158
  724MOL0     C97616   6.392   7.002   3.822 -0.5667 -0.1276  0.6270
  724MOL0     C97617   6.515   6.908   3.811  0.6935  0.1323  0.1030
  724MOL0     C97618   6.496   6.768   3.876 -0.4157 -0.0136 -0.8084
  724MOL0     C97619   6.517   6.755   4.025  0.9583  0.0933 -1.2113
  724MOL0     C97620   6.495   6.610   4.065 -0.5657 -0.2783  1.5561
  724MOL0     C97621   6.492   6.580   4.218 -0.2678 -0.1521  0.1253
  724MOL0     N97622   6.377   6.645   4.282 -0.0862  0.2647  0.0221
  724MOL0     C97623   6.369   6.736   4.387  0.2905  0.0791  0.7365
  724MOL0     C97624   6.236   6.729   4.424 -0.4894 -0.2087  0.4133
  724MOL0     C97625   6.175   6.786   4.549  0.3005  0.0200  0.3458
  724MOL0     C97626   6.249   6.926   4.577 -0.5243  0.3394 -0.3992
  724MOL0     C97627   6.178   7.022   4.680 -0.6970  0.5188  0.0506
  724MOL0     C97628   6.026   7.029   4.671 -0.8433 -0.0310 -0.1659
  724MOL0     O97629   5.968   7.111   4.769  0.0641 -0.3025  0.9273
  724MOL0     C97630   5.838   7.096   4.817 -0.3668  0.2853  0.0522
  724MOL0     C97631   5.745   7.007   4.759 -0.0018  0.2866  0.6963
  724MOL0     C97632   5.620   6.997   4.810  0.5687 -0.1702  0.0381
  724MOL0     C97633   5.577   7.077   4.918  1.1235  0.4268 -1.0228
  724MOL0     C97634   5.437   7.060   4.970 -0.2930  1.3861  0.3986
  724MOL0     O97635   5.373   7.153   5.047  0.3331  0.4905  0.2223
  724MOL0     C97636   5.252   7.192   5.022  0.9340 -0.0258 -0.4709
  724MOL0     C97637   5.180   7.230   5.132 -0.6846 -0.3468  1.0029
  724MOL0     C97638   5.044   7.271   5.119 -0.6719  0.2538  0.1324
  724MOL0     C97639   4.974   7.268   5.000  0.3628 -0.2042 -0.6509
  724MOL0     O97640   4.842   7.310   5.019  0.6884 -0.4949 -0.0470
  724MOL0     C97641   4.744   7.306   4.909  0.4039 -0.1044 -0.7516
  724MOL0     C97642   4.689   7.172   4.920  0.0528 -0.3557  0.6553
  724MOL0     C97643   4.647   7.113   5.056  0.6467  0.6659  0.6840
  724MOL0     C97644   4.528   7.189   5.113 -1.1314  0.1703 -0.5563
  724MOL0     C97645   4.460   7.124   5.237 -0.6219  0.3236 -1.3351
  724MOL0     C97646   4.415   6.977   5.214  0.6339 -0.7640  0.2931
  724MOL0     C97647   4.313   6.928   5.313  0.9801 -0.2773 -0.2470
  724MOL0     C97648   4.185   7.013   5.285  0.4059 -0.1092  0.5466
  724MOL0    Cl97649   4.039   6.940   5.339 -0.7389 -0.0861 -0.3403
  724MOL0     C97650   5.046   7.230   4.888  0.0423 -0.0752 -0.2812
  724MOL0     C97651   5.186   7.195   4.897  0.4003  0.0116 -0.0427
  724MOL0     O97652   5.383   6.952   4.930 -0.3427 -0.2784 -0.7024
  724MOL0     C97653   5.668   7.164   4.984  0.3845  0.4347  0.1128
  724MOL0     C97654   5.795   7.185   4.918  0.3164  0.3039 -0.1938
  724MOL0     N97655   6.169   6.642   4.340  0.1627  0.8658  0.3305
  724MOL0     N97656   6.255   6.595   4.254  1.0880 -0.0870  0.2034
  724MOL0     C97657   6.197   7.371   3.405  0.3495  0.2908 -1.0409
  724MOL0     C97658   6.093   7.448   3.352 -0.5093  0.2513  0.6587
  724MOL0     C97659   5.746   7.774   3.360  0.0289  0.4237  0.1147
  724MOL0     C97660   5.736   7.902   3.296  0.8168  0.0022  0.3458
  724MOL0     C97661   5.616   7.940   3.237  0.7841 -0.5409  0.2899
  724MOL0     C97662   5.511   7.853   3.232  0.4548 -1.2728 -0.5774
  724MOL0     O97663   5.403   7.911   3.169 -0.3531 -0.3505 -0.2788
  724MOL0     C97664   5.278   7.850   3.172  0.5707 -0.5422  0.2466
  724MOL0     C97665   5.185   7.934   3.075 -0.5830  0.4824  0.9587
  724MOL0     C97666   5.238   7.979   2.938 -0.7435 -0.2219  0.2756
  724MOL0     C97667   5.277   7.852   2.858 -0.5571  1.1818  0.1123
  724MOL0     C97668   5.162   7.765   2.822  0.1662  0.1331 -0.2046
  724MOL0     C97669   5.067   7.705   2.787  0.5135 -0.4744  0.2980
  724MOL0     C97670   5.524   7.722   3.284 -0.0982 -0.3042 -0.1268
  724MOL0     C97671   5.639   7.682   3.344 -0.5789  0.5841 -0.6788
  724MOL0     C97672   5.653   7.545   3.401 -0.3652 -0.0985 -0.0065
  724MOL0     H97673   6.049   7.655   3.612  1.5942 -0.2466  2.7751
  724MOL0     H97674   6.230   7.506   3.709  1.0515 -0.8010  0.1234
  724MOL0     H97675   6.269   7.267   3.766 -1.4980  0.3951 -0.5338
  724MOL0     H97676   6.220   7.159   3.636 -1.6080  1.7555  0.2436
  724MOL0     H97677   6.501   7.185   3.768  0.1238  2.6529 -2.7420
  724MOL0     H97678   6.451   7.083   3.622 -0.2915  2.6590 -1.2098
  724MOL0     H97679   6.298   6.953   3.798  0.1704 -1.5244  0.5040
  724MOL0     H97680   6.382   7.041   3.924  1.5772  2.2866  0.0189
  724MOL0     H97681   6.527   6.893   3.703  0.5204 -0.0328  0.1067
  724MOL0     H97682   6.595   6.964   3.861  0.5599  1.8171 -1.4844
  724MOL0     H97683   6.398   6.733   3.843  1.2745 -5.2559 -1.0967
  724MOL0     H97684   6.569   6.702   3.830 -2.5404 -2.3944 -0.9962
  724MOL0     H97685   6.623   6.778   4.038  1.1413 -0.9085 -0.8198
  724MOL0     H97686   6.452   6.824   4.080 -1.0569 -3.2066  0.9172
  724MOL0     H97687   6.579   6.552   4.026  0.4513  1.8451  0.4090
  724MOL0     H97688   6.403   6.558   4.035 -0.5746  1.2855 -1.6059
  724MOL0     H97689   6.494   6.472   4.235 -1.8729 -0.4000 -1.0359
  724MOL0     H97690   6.587   6.607   4.265  2.0253 -2.6089 -2.6981
  724MOL0     H97691   6.455   6.787   4.429  2.0963  0.1077 -2.6842
  724MOL0     H97692   6.072   6.800   4.515  0.3428 -4.4464 -2.5349
  724MOL0     H97693   6.180   6.725   4.639  2.6593 -0.6167 -0.1323
  724MOL0     H97694   6.356   6.918   4.602 -0.8049  0.1893  0.8168
  724MOL0     H97695   6.259   6.986   4.487 -0.8232  4.5212  2.0839
  724MOL0     H97696   6.218   7.123   4.672 -2.9694  1.4487 -0.3760
  724MOL0     H97697   6.204   6.980   4.777 -0.9916 -0.0952 -0.1288
  724MOL0     H97698   5.976   6.933   4.663 -2.7934  1.0151 -1.3869
  724MOL0     H97699   6.005   7.078   4.575 -3.1296 -0.1665  0.2024
  724MOL0     H97700   5.768   6.939   4.679 -3.3715 -1.3553  0.9433
  724MOL0     H97701   5.558   6.926   4.756 -0.8936  2.4122 -1.9182
  724MOL0     H97702   5.222   7.238   5.232  0.5101  2.3344  0.3967
  724MOL0     H97703   4.994   7.323   5.200  1.7653 -0.3378  2.1401
  724MOL0     H97704   4.668   7.384   4.923  2.9763  2.7451 -1.4807
  724MOL0     H97705   4.796   7.338   4.818 -0.2721  2.2280 -0.4057
  724MOL0     H97706   4.607   7.159   4.849  1.5664 -0.6878 -1.0909
  724MOL0     H97707   4.771   7.111   4.881  0.8145 -0.4781  2.3609
  724MOL0     H97708   4.615   7.011   5.032 -1.2590  1.7223 -1.6576
  724MOL0     H97709   4.731   7.096   5.124  1.4651 -3.9803 -1.0956
  724MOL0     H97710   4.447   7.193   5.040 -2.0269  1.2752  0.4547
  724MOL0     H97711   4.561   7.290   5.140  0.8174 -0.5651 -0.0248
  724MOL0     H97712   4.386   7.195   5.273  2.2472  1.8027  2.2762
  724MOL0     H97713   4.536   7.126   5.316 -4.4405  2.1722  2.7235
  724MOL0     H97714   4.372   6.975   5.113 -0.7457  3.0827  0.6604
  724MOL0     H97715   4.500   6.909   5.202 -0.5344 -1.9514 -2.0191
  724MOL0     H97716   4.347   6.942   5.416  0.2628  1.0727 -0.1731
  724MOL0     H97717   4.291   6.824   5.289 -2.0000  0.0457  0.6791
  724MOL0     H97718   4.207   7.111   5.328 -1.8681 -0.4088  2.6407
  724MOL0     H97719   4.173   7.033   5.179  0.6954  0.3145  0.5897
  724MOL0     H97720   5.007   7.209   4.789 -0.2615 -0.1719 -0.1416
  724MOL0     H97721   5.255   7.173   4.816  1.3067 -0.3235  0.8059
  724MOL0     H97722   5.640   7.231   5.064  2.6532  1.4366  0.1586
  724MOL0     H97723   5.870   7.250   4.963  0.4776 -1.5252  2.4338
  724MOL0     H97724   6.237   7.288   3.348  0.0387  0.5394 -1.6255
  724MOL0     H97725   6.051   7.413   3.258  3.1233  0.5962 -1.2396
  724MOL0     H97726   5.819   7.972   3.294  2.8148 -2.2459 -0.2397
  724MOL0     H97727   5.603   8.035   3.186 -1.8073 -0.7257  0.4770
  724MOL0     H97728   5.234   7.856   3.272 -0.4517 -0.9355 -0.1661
  724MOL0     H97729   5.275   7.748   3.133 -1.5604 -0.1674 -0.7072
  724MOL0     H97730   5.148   8.019   3.134  0.7758  0.6305  1.6197
  724MOL0     H97731   5.094   7.875   3.056 -0.1828 -0.4025  1.7345
  724MOL0     H97732   5.320   8.051   2.933 -2.2389  1.8373  2.8203
  724MOL0     H97733   5.168   8.035   2.875  1.5446  2.4073 -0.1109
  724MOL0     H97734   5.322   7.886   2.764 -1.3208 -1.3096 -1.2276
  724MOL0     H97735   5.349   7.801   2.923  0.9356  2.4968 -0.4524
  724MOL0     H97736   4.968   7.666   2.772 -0.6891  1.2899  2.9683
  724MOL0     H97737   5.439   7.655   3.277 -0.5679  0.2950 -0.1882
  724MOL0     H97738   5.565   7.528   3.463  0.1679 -0.1804  0.7432
  724MOL0     H97739   5.657   7.478   3.314 -4.1004 -0.7967  0.2232
  724MOL0     H97740   5.738   7.535   3.469 -0.2842  1.6524  0.2047
  725MOL0     O97741   1.644  10.708  10.353 -0.4036  0.4098  0.0689
  725MOL0     C97742   1.548  10.679  10.286  0.8595  0.1124  0.4057
  725MOL0     O97743   1.524  10.728  10.164 -0.1760 -0.3299  0.0296
  725MOL0     C97744   1.609  10.798  10.082  1.4637  0.5039 -0.8200
  725MOL0     C97745   1.728  10.855  10.119  0.2410 -0.4549  0.7985
  725MOL0     C97746   1.798  10.926  10.030 -1.4183  0.3596 -0.6277
  725MOL0     C97747   1.763  10.947   9.898 -0.2683  0.2678 -1.1017
  725MOL0     O97748   1.841  11.038   9.839  0.3446  0.6845  0.3511
  725MOL0     C97749   1.803  11.088   9.710 -0.1413 -0.7166 -0.0720
  725MOL0     C97750   1.797  11.237   9.716 -0.3817 -0.2696  0.6222
  725MOL0     C97751   1.782  11.302   9.582 -0.4985 -0.0824 -0.1348
  725MOL0     C97752   1.829  11.443   9.586 -0.4197 -0.3267  0.1796
  725MOL0     C97753   1.700  11.527   9.607  0.1392 -0.5283  0.1664
  725MOL0     C97754   1.727  11.667   9.584 -0.3499 -1.1744 -0.0115
  725MOL0     C97755   1.818  11.736   9.697 -0.2616 -0.1485 -0.1565
  725MOL0     C97756   1.817  11.889   9.665 -0.0038  0.0169 -0.1185
  725MOL0     N97757   1.709  11.965   9.727 -0.8659 -0.5762  0.5033
  725MOL0     C97758   1.612  12.034   9.644 -0.4001  0.2342  0.1759
  725MOL0     C97759   1.514  12.079   9.729 -0.2209  0.6924 -0.0562
  725MOL0     C97760   1.391  12.157   9.704 -0.0764 -0.0726 -0.0208
  725MOL0     C97761   1.403  12.280   9.622  0.2717  0.1357  0.2343
  725MOL0     C97762   1.387  12.260   9.473 -1.4318  0.3315  0.1910
  725MOL0     C97763   1.238  12.267   9.429 -0.1006  0.0290  0.6065
  725MOL0     O97764   1.218  12.205   9.307 -0.1848 -0.0221  0.1904
  725MOL0     C97765   1.247  12.287   9.200 -0.2775  0.3585  0.1487
  725MOL0     C97766   1.247  12.428   9.193  0.5128  0.8510 -0.0322
  725MOL0     C97767   1.299  12.489   9.077  0.3077  0.1228  0.2300
  725MOL0     C97768   1.348  12.406   8.971 -0.4522 -0.0113 -0.5689
  725MOL0     C97769   1.389  12.470   8.842  0.3193  0.3882  1.5121
  725MOL0     O97770   1.422  12.389   8.737  0.5252  0.5396  1.1896
  725MOL0     C97771   1.456  12.441   8.613 -0.7035  0.7807  0.1659
  725MOL0     C97772   1.470  12.585   8.581 -0.2822 -0.3313  0.9631
  725MOL0     C97773   1.525  12.617   8.456  0.2700 -0.5503  0.0140
  725MOL0     C97774   1.562  12.517   8.367 -0.4026 -0.1150  0.2886
  725MOL0     O97775   1.598  12.550   8.231 -0.6710 -0.7661 -0.1157
  725MOL0     C97776   1.707  12.643   8.213  0.1821 -0.8565  0.1788
  725MOL0     C97777   1.774  12.579   8.096  0.3512  0.4365 -0.1494
  725MOL0     C97778   1.926  12.613   8.085  0.6467  0.2517  1.0359
  725MOL0     C97779   2.012  12.492   8.043  0.4910 -1.1238  0.2629
  725MOL0     C97780   2.163  12.522   8.047  0.7694 -0.7953  0.3773
  725MOL0     C97781   2.249  12.415   7.985  0.4509 -0.5253  0.3320
  725MOL0     C97782   2.387  12.405   8.040 -1.0609  0.8093 -0.1371
  725MOL0     C97783   2.479  12.506   7.984  0.8636  0.4930  0.0893
  725MOL0    Cl97784   2.507  12.492   7.807 -0.2887 -0.1198  0.4225
  725MOL0     C97785   1.538  12.378   8.395  0.3201  0.1861  0.4293
  725MOL0     C97786   1.494  12.345   8.522  0.3445  0.8463  0.4649
  725MOL0     O97787   1.382  12.593   8.846 -0.2079  0.1604  0.0773
  725MOL0     C97788   1.366  12.267   8.987 -0.4060  0.6092  0.3467
  725MOL0     C97789   1.320  12.208   9.101  0.1168  1.6371 -1.0032
  725MOL0     N97790   1.567  12.057   9.856  0.0139 -0.5160  0.4692
  725MOL0     N97791   1.677  11.984   9.855 -0.4617  0.3664 -0.6870
  725MOL0     C97792   1.639  10.886   9.858 -0.1210 -0.8143 -0.5863
  725MOL0     C97793   1.565  10.812   9.951 -0.3957 -0.2085  0.0808
  725MOL0     C97794   1.438  10.601  10.344  0.3963  0.2134 -0.1387
  725MOL0     C97795   1.329  10.567  10.261 -0.3135 -0.7835 -0.4976
  725MOL0     C97796   1.212  10.506  10.305  0.3805  0.0291 -0.4325
  725MOL0     C97797   1.211  10.474  10.445  0.0369 -0.4439  0.7234
  725MOL0     O97798   1.106  10.407  10.499  0.1839  0.2755 -0.2675
  725MOL0     C97799   0.984  10.429  10.433 -0.3696  0.1964 -0.2616
  725MOL0     C97800   0.888  10.359  10.533  0.6530 -0.8404 -1.3700
  725MOL0     C97801   0.857  10.446  10.665 -0.0194 -0.2997  0.8287
  725MOL0     C97802   0.734  10.385  10.734  1.1836  0.3701  0.1944
  725MOL0     C97803   0.729  10.443  10.869  0.3000  0.8512  0.1251
  725MOL0     C97804   0.727  10.470  10.980  0.1986 -0.0251 -0.0622
  725MOL0     C97805   1.318  10.492  10.531  0.4617  0.9427  0.2915
  725MOL0     C97806   1.428  10.573  10.485 -0.5580 -0.2795  0.4587
  725MOL0     C97807   1.546  10.588  10.589  0.5705 -1.2023  0.0430
  725MOL0     H97808   1.760  10.847  10.223  0.4476 -1.8782  0.6321
  725MOL0     H97809   1.888  10.974  10.067 -1.7490  3.0375 -2.9737
  725MOL0     H97810   1.880  11.059   9.638  1.7187  1.8795  0.7244
  725MOL0     H97811   1.712  11.048   9.663 -1.8577  2.0724  0.6417
  725MOL0     H97812   1.897  11.271   9.744 -0.4573  3.6895 -2.8631
  725MOL0     H97813   1.716  11.270   9.782 -0.9383  3.4661 -1.6114
  725MOL0     H97814   1.678  11.290   9.552 -0.4781 -4.0408  0.8126
  725MOL0     H97815   1.843  11.244   9.512 -0.8778 -0.0528 -0.4925
  725MOL0     H97816   1.907  11.459   9.661  0.9860 -0.9837 -1.0987
  725MOL0     H97817   1.875  11.471   9.491 -0.6886 -0.8087 -0.0924
  725MOL0     H97818   1.616  11.494   9.544  0.3891  1.4685 -1.3036
  725MOL0     H97819   1.674  11.520   9.713  0.4179  1.8831  0.4492
  725MOL0     H97820   1.788  11.669   9.493  1.2884 -2.3343  1.0113
  725MOL0     H97821   1.639  11.730   9.566  1.7686  1.5494 -1.8650
  725MOL0     H97822   1.920  11.701   9.681 -0.5564 -1.3064  0.3555
  725MOL0     H97823   1.781  11.702   9.795 -1.0505  0.6589 -0.1595
  725MOL0     H97824   1.907  11.931   9.710  0.6082  1.3982 -2.4125
  725MOL0     H97825   1.826  11.910   9.557 -1.3796  2.4453  0.1616
  725MOL0     H97826   1.611  12.054   9.537 -3.0023  0.6237  0.2079
  725MOL0     H97827   1.309  12.096   9.664  0.4249 -0.5184 -0.3953
  725MOL0     H97828   1.351  12.188   9.801  0.0269  0.7562 -0.2396
  725MOL0     H97829   1.324  12.347   9.656  0.7781  1.5005 -1.2110
  725MOL0     H97830   1.505  12.312   9.644  0.5192 -1.4637  1.7253
  725MOL0     H97831   1.438  12.164   9.464 -0.8250  0.4957  1.5720
  725MOL0     H97832   1.434  12.348   9.427 -2.3706  0.8516  0.2008
  725MOL0     H97833   1.206  12.371   9.436  0.5826  0.2173  1.0756
  725MOL0     H97834   1.172  12.223   9.504  0.0398  0.9928  1.3164
  725MOL0     H97835   1.186  12.484   9.263 -2.3273 -0.9428 -0.9116
  725MOL0     H97836   1.290  12.597   9.068  0.0354  0.0890  0.0899
  725MOL0     H97837   1.432  12.671   8.636  2.8175  2.3926 -0.7593
  725MOL0     H97838   1.524  12.720   8.423  0.6665 -0.9829 -1.4258
  725MOL0     H97839   1.683  12.745   8.183  0.4655 -0.8365  0.0147
  725MOL0     H97840   1.780  12.649   8.294  1.4892  0.0209 -0.9967
  725MOL0     H97841   1.763  12.470   8.100  1.4809  0.3178  0.2287
  725MOL0     H97842   1.738  12.611   7.998  2.6070  0.3644 -1.0637
  725MOL0     H97843   1.931  12.669   7.991  2.3194  0.6757  1.3488
  725MOL0     H97844   1.971  12.664   8.171  3.6004 -1.5457  0.6952
  725MOL0     H97845   1.981  12.449   7.947 -1.5808 -0.0851  0.4114
  725MOL0     H97846   1.991  12.418   8.121  0.5061 -0.9089  0.4728
  725MOL0     H97847   2.169  12.534   8.155  1.7895  2.0382  0.0885
  725MOL0     H97848   2.195  12.614   7.998 -0.2751 -1.1854 -1.1296
  725MOL0     H97849   2.205  12.321   8.020 -0.3499 -0.0998  0.4715
  725MOL0     H97850   2.236  12.393   7.879  3.1530  1.2615 -0.4868
  725MOL0     H97851   2.430  12.308   8.013 -0.8701  0.1452  2.3237
  725MOL0     H97852   2.378  12.412   8.149 -1.1957  1.2439 -0.1709
  725MOL0     H97853   2.426  12.595   8.019 -1.8756 -0.5460 -1.1260
  725MOL0     H97854   2.580  12.500   8.025  1.7007  1.8719 -1.6709
  725MOL0     H97855   1.572  12.303   8.324  1.3147  2.9290 -2.1920
  725MOL0     H97856   1.500  12.243   8.558  0.7191  1.0985  1.1348
  725MOL0     H97857   1.396  12.193   8.913 -0.2539 -1.3629  2.2898
  725MOL0     H97858   1.344  12.104   9.124  3.7133  3.1086  3.5202
  725MOL0     H97859   1.607  10.903   9.756  1.9391 -1.6749 -1.4388
  725MOL0     H97860   1.468  10.768   9.931  1.0579 -3.3138 -0.6359
  725MOL0     H97861   1.351  10.579  10.155  0.8434  4.1087  0.0487
  725MOL0     H97862   1.138  10.492  10.227  0.2039 -0.0132 -0.2607
  725MOL0     H97863   0.985  10.371  10.341 -2.3436 -0.0278 -0.1888
  725MOL0     H97864   0.957  10.535  10.422  3.1801  1.1104 -1.6225
  725MOL0     H97865   0.937  10.270  10.573  1.8705  1.1769  2.0733
  725MOL0     H97866   0.794  10.329  10.485 -0.7648 -1.9076  1.7799
  725MOL0     H97867   0.824  10.550  10.650 -0.6823 -0.6683 -0.4073
  725MOL0     H97868   0.932  10.429  10.743 -2.4102 -2.0054  2.9281
  725MOL0     H97869   0.640  10.401  10.681  0.3046  0.1368  1.6466
  725MOL0     H97870   0.746  10.277  10.749  0.0009  0.5587  3.0350
  725MOL0     H97871   0.760  10.505  11.076  1.9841 -0.7143 -0.3700
  725MOL0     H97872   1.318  10.465  10.636  0.7139 -1.2741 -0.2081
  725MOL0     H97873   1.514  10.569  10.692  1.5231  0.6706  0.7342
  725MOL0     H97874   1.621  10.520  10.550  2.6538 -0.6245  2.7680
  725MOL0     H97875   1.592  10.688  10.585 -0.0260 -0.9068  0.3541
  726MOL0     O97876   0.928   3.094   8.664  0.2140  0.2207 -0.1814
  726MOL0     C97877   0.851   3.185   8.659 -1.1229 -0.2500 -0.0284
  726MOL0     O97878   0.849   3.269   8.557 -0.0336 -0.7787  0.5333
  726MOL0     C97879   0.951   3.285   8.469  0.1644  0.6320 -0.2661
  726MOL0     C97880   1.061   3.373   8.476  1.2805  0.2646 -0.3164
  726MOL0     C97881   1.163   3.352   8.379 -0.1967 -0.6310 -0.2509
  726MOL0     C97882   1.159   3.251   8.284 -1.3714 -0.6782 -0.1728
  726MOL0     O97883   1.268   3.216   8.210  0.0090  0.3048 -0.1635
  726MOL0     C97884   1.348   3.322   8.147  0.1764 -1.1859 -0.4591
  726MOL0     C97885   1.468   3.245   8.083 -0.4879 -0.2327 -0.3156
  726MOL0     C97886   1.550   3.341   8.003  0.1282  0.4447 -0.2966
  726MOL0     C97887   1.684   3.291   7.947 -0.2724  0.0365 -0.7523
  726MOL0     C97888   1.749   3.372   7.836 -0.5840 -0.2328  1.3189
  726MOL0     C97889   1.905   3.366   7.829  0.8027 -0.5752 -0.3188
  726MOL0     C97890   1.959   3.477   7.753 -0.5400  0.9611  0.2941
  726MOL0     C97891   2.114   3.474   7.763 -0.4944  0.2946  0.3788
  726MOL0     N97892   2.163   3.491   7.904  0.1994 -0.7282  0.2490
  726MOL0     C97893   2.201   3.399   7.991 -0.9299  0.1162  0.4816
  726MOL0     C97894   2.213   3.472   8.103 -0.4579  0.1829  0.0362
  726MOL0     C97895   2.249   3.393   8.227 -0.0658  0.7639 -0.1245
  726MOL0     C97896   2.396   3.394   8.282 -0.4525  0.2095  0.0382
  726MOL0     C97897   2.460   3.537   8.299  0.6097  0.1801  0.8258
  726MOL0     C97898   2.418   3.602   8.426  0.4827 -0.3814 -0.6452
  726MOL0     O97899   2.492   3.721   8.464  0.3507  0.7872 -0.2220
  726MOL0     C97900   2.430   3.801   8.557  0.4632  0.0346  0.0748
  726MOL0     C97901   2.389   3.742   8.681 -0.3093 -1.0866  0.3945
  726MOL0     C97902   2.352   3.838   8.777  0.7863  0.0309 -0.7759
  726MOL0     C97903   2.341   3.974   8.748 -0.1483  0.3596 -0.8771
  726MOL0     C97904   2.299   4.068   8.861  1.3533 -0.2995  0.7960
  726MOL0     O97905   2.204   4.017   8.942  0.1868 -0.3160  0.0633
  726MOL0     C97906   2.158   4.098   9.041 -0.0422 -0.5290  0.7470
  726MOL0     C97907   2.045   4.183   9.018 -0.0030 -0.2561  0.7228
  726MOL0     C97908   2.005   4.287   9.102 -0.4041 -0.0619  0.0816
  726MOL0     C97909   2.075   4.304   9.222  0.3570  0.1638  0.4220
  726MOL0     O97910   2.017   4.403   9.292 -0.0635 -0.6856  0.4451
  726MOL0     C97911   2.078   4.471   9.405 -0.0971  0.8510  0.7976
  726MOL0     C97912   1.993   4.581   9.463  1.3033 -0.2956 -0.0762
  726MOL0     C97913   2.058   4.715   9.480  0.3094 -1.1461  0.4649
  726MOL0     C97914   1.953   4.820   9.521  0.3511  0.4573 -0.8848
  726MOL0     C97915   2.001   4.942   9.596 -0.1109  0.3469  0.0151
  726MOL0     C97916   2.133   4.999   9.526 -0.0755 -0.1710  0.8967
  726MOL0     C97917   2.142   5.026   9.370 -0.5513  0.0911 -0.3524
  726MOL0     C97918   2.172   5.175   9.326  0.6683  0.9873 -1.1388
  726MOL0    Cl97919   2.058   5.290   9.405  0.3258  0.0912 -0.4725
  726MOL0     C97920   2.187   4.219   9.254  0.2714  0.1049 -0.1374
  726MOL0     C97921   2.230   4.118   9.166  0.8384 -0.3712 -0.2033
  726MOL0     O97922   2.356   4.173   8.875 -0.6635 -0.2787 -0.3025
  726MOL0     C97923   2.371   4.021   8.623  0.2883 -0.4732 -0.7929
  726MOL0     C97924   2.410   3.936   8.520 -0.8883  1.0025 -0.6138
  726MOL0     N97925   2.186   3.610   8.088 -0.2040  0.0221 -0.5782
  726MOL0     N97926   2.144   3.616   7.969 -0.1406 -0.1450  0.3986
  726MOL0     C97927   1.048   3.171   8.279 -0.2123 -0.9179  0.0810
  726MOL0     C97928   0.934   3.204   8.358 -0.1039  0.4352 -0.2791
  726MOL0     C97929   0.740   3.188   8.761 -0.1263 -0.9503 -0.7357
  726MOL0     C97930   0.629   3.277   8.734  0.6204 -0.4506 -0.6702
  726MOL0     C97931   0.522   3.281   8.826 -0.6740  0.4829  0.5623
  726MOL0     C97932   0.507   3.198   8.933  0.8205  0.3150 -0.0278
  726MOL0     O97933   0.405   3.205   9.025  0.4262 -0.4461 -0.7812
  726MOL0     C97934   0.300   3.102   9.030 -0.0377 -0.4328  0.4234
  726MOL0     C97935   0.173   3.164   8.962 -0.2746 -0.4121 -0.6559
  726MOL0     C97936   0.153   3.312   9.001  0.5114  0.1077  1.1246
  726MOL0     C97937   0.007   3.337   8.957  0.4245  0.1336 -0.6266
  726MOL0     C97938  -0.027   3.469   8.980  0.1387 -0.5636 -0.5472
  726MOL0     C97939  -0.064   3.583   9.010  0.4583 -0.5717  0.0414
  726MOL0     C97940   0.599   3.098   8.945 -1.6685  0.2481 -0.4763
  726MOL0     C97941   0.726   3.110   8.878  0.2960  0.1668 -0.0153
  726MOL0     C97942   0.836   3.012   8.926  0.5104  0.3939  0.2716
  726MOL0     H97943   1.074   3.452   8.550  0.6396 -0.3610  0.4820
  726MOL0     H97944   1.255   3.404   8.403 -0.9650  0.6014  0.1407
  726MOL0     H97945   1.296   3.373   8.066  0.7562 -0.7386 -0.5470
  726MOL0     H97946   1.385   3.398   8.216 -0.9695 -1.5870  0.6469
  726MOL0     H97947   1.432   3.171   8.012 -4.8817  2.3947 -1.1603
  726MOL0     H97948   1.525   3.205   8.168 -1.0631  2.3017  1.3868
  726MOL0     H97949   1.567   3.427   8.069 -2.2964  0.6708  0.1470
  726MOL0     H97950   1.491   3.377   7.918 -1.4048 -1.7034 -0.2148
  726MOL0     H97951   1.756   3.279   8.029 -1.9545 -1.0730  0.6419
  726MOL0     H97952   1.671   3.189   7.908  0.0116  0.3415 -1.6690
  726MOL0     H97953   1.706   3.337   7.742  0.4913 -1.0420  1.1128
  726MOL0     H97954   1.728   3.480   7.837  2.2456  0.5437 -2.1393
  726MOL0     H97955   1.947   3.373   7.930 -3.0165  2.0848  1.3595
  726MOL0     H97956   1.921   3.264   7.794  1.9672 -0.4701 -0.1264
  726MOL0     H97957   1.932   3.564   7.814  0.9407  0.6165  1.5005
  726MOL0     H97958   1.919   3.484   7.651  3.6575  1.7605 -1.5225
  726MOL0     H97959   2.154   3.378   7.728 -1.1560 -0.8031  2.4802
  726MOL0     H97960   2.149   3.559   7.705  0.8958 -0.8931 -0.6142
  726MOL0     H97961   2.213   3.291   7.980  2.3775  0.4862 -0.6597
  726MOL0     H97962   2.173   3.430   8.296 -1.1068 -1.7596  0.1972
  726MOL0     H97963   2.216   3.290   8.211 -0.9582  1.1864 -1.1453
  726MOL0     H97964   2.399   3.344   8.379  0.5572  2.4440  1.2454
  726MOL0     H97965   2.463   3.345   8.212 -1.0091  0.3146 -0.5746
  726MOL0     H97966   2.424   3.597   8.215  2.1276  1.0894  0.7884
  726MOL0     H97967   2.569   3.533   8.297  0.7316  1.6051  2.4821
  726MOL0     H97968   2.415   3.532   8.511  0.5490  2.0815  1.4958
  726MOL0     H97969   2.315   3.628   8.400  0.1444 -1.0525 -0.0312
  726MOL0     H97970   2.411   3.640   8.711  2.6688 -1.4157 -2.3905
  726MOL0     H97971   2.332   3.818   8.881 -1.5094  1.1757 -0.9340
  726MOL0     H97972   2.008   4.178   8.916  1.6049  0.0701  0.0896
  726MOL0     H97973   1.916   4.349   9.091  0.3389  1.1267  0.5704
  726MOL0     H97974   2.112   4.407   9.487  1.8075 -0.3037 -0.8069
  726MOL0     H97975   2.173   4.510   9.368  1.7650 -1.3089  2.9460
  726MOL0     H97976   1.899   4.581   9.407  1.0515 -2.7705  0.2224
  726MOL0     H97977   1.958   4.558   9.564  0.5997 -1.4120 -0.5573
  726MOL0     H97978   2.142   4.717   9.551  2.2431 -1.6877 -1.7108
  726MOL0     H97979   2.111   4.750   9.391 -1.6863  0.5878 -0.1273
  726MOL0     H97980   1.883   4.785   9.598 -2.8194  1.6645 -3.0314
  726MOL0     H97981   1.883   4.839   9.439 -1.8146 -1.4755  0.3997
  726MOL0     H97982   1.999   4.934   9.705  4.0424  1.6697  0.3670
  726MOL0     H97983   1.928   5.018   9.566  1.1172  1.5696  0.0149
  726MOL0     H97984   2.164   5.092   9.575  1.0160 -0.8630  1.5548
  726MOL0     H97985   2.213   4.926   9.541  1.5195  0.9837 -1.4585
  726MOL0     H97986   2.040   4.999   9.340 -2.9686  1.9069  4.9347
  726MOL0     H97987   2.217   4.961   9.323 -1.5831 -1.4898  0.0938
  726MOL0     H97988   2.275   5.195   9.357 -0.0971 -1.2772  3.9580
  726MOL0     H97989   2.166   5.182   9.217  4.0274 -2.7235 -1.8023
  726MOL0     H97990   2.240   4.248   9.343 -0.5867  2.4886 -0.3226
  726MOL0     H97991   2.319   4.060   9.187  0.5165 -0.8606 -0.1942
  726MOL0     H97992   2.371   4.125   8.589  0.3591 -1.0192 -2.5814
  726MOL0     H97993   2.452   3.971   8.426  1.5191  1.4574  0.5555
  726MOL0     H97994   1.055   3.089   8.209  1.5131  0.8882 -2.0427
  726MOL0     H97995   0.851   3.137   8.337 -2.6636  2.9055  1.3269
  726MOL0     H97996   0.625   3.334   8.642  1.2088  0.3810 -0.1901
  726MOL0     H97997   0.432   3.340   8.816 -0.6401  1.1739  3.3380
  726MOL0     H97998   0.279   3.069   9.132 -1.4526 -2.3472 -0.4185
  726MOL0     H97999   0.342   3.015   8.978 -1.7436 -0.6609 -0.6631
  726MOL0     H98000   0.089   3.099   8.990 -1.0829 -0.7413 -3.5573
  726MOL0     H98001   0.186   3.132   8.858  2.0374 -2.5665  0.1812
  726MOL0     H98002   0.219   3.383   8.949 -1.8288  2.1262  0.7181
  726MOL0     H98003   0.152   3.325   9.110 -1.7741 -1.3882  1.3476
  726MOL0     H98004  -0.010   3.314   8.851  2.2183 -1.0809 -0.6930
  726MOL0     H98005  -0.063   3.279   9.017  1.3929  0.3111  0.7186
  726MOL0     H98006  -0.106   3.673   9.048 -2.6624 -0.1492 -3.7704
  726MOL0     H98007   0.589   3.030   9.030 -2.0960  0.0177 -0.7069
  726MOL0     H98008   0.938   3.050   8.934  0.7297 -0.4680  2.2948
  726MOL0     H98009   0.804   2.970   9.022 -1.0460  1.2236  0.1624
  726MOL0     H98010   0.836   2.926   8.858 -1.8787  2.2032 -2.2275
  727MOL0     O98011   8.923   1.152  10.517 -0.3686  0.7740 -0.2178
  727MOL0     C98012   8.825   1.120  10.455 -0.1524  0.1147 -0.3250
  727MOL0     O98013   8.745   1.208  10.383  0.0415  0.9980  0.0317
  727MOL0     C98014   8.780   1.342  10.378  0.3331  0.3832 -0.3842
  727MOL0     C98015   8.854   1.390  10.265  0.9279  0.6818 -0.2253
  727MOL0     C98016   8.864   1.528  10.251  0.2891 -0.2826  0.4203
  727MOL0     C98017   8.797   1.619  10.336  0.2443  0.0883 -0.1663
  727MOL0     O98018   8.831   1.750  10.310 -0.0016 -0.8913  0.1782
  727MOL0     C98019   8.793   1.856  10.396 -0.6063 -0.0137 -1.1189
  727MOL0     C98020   8.848   1.993  10.340 -0.7315  0.8252  0.0807
  727MOL0     C98021   8.999   2.000  10.328  0.1698  0.3738 -0.2901
  727MOL0     C98022   9.044   2.120  10.247 -0.3465  0.5428  0.7368
  727MOL0     C98023   9.189   2.090  10.208  0.2004  0.2456  0.3076
  727MOL0     C98024   9.239   2.173  10.082 -1.3171  0.2546 -0.8873
  727MOL0     C98025   9.279   2.320  10.128  0.2048 -0.2646 -0.0062
  727MOL0     C98026   9.409   2.328  10.211 -0.8532  0.2891 -0.8757
  727MOL0     N98027   9.536   2.269  10.175 -0.2003  0.2996  0.0271
  727MOL0     C98028   9.616   2.305  10.072  0.0860  0.7831  0.0749
  727MOL0     C98029   9.718   2.226  10.088 -0.4440  1.2501  0.1982
  727MOL0     C98030   9.846   2.223  10.011  0.3414 -0.8122 -0.0122
  727MOL0     C98031   9.887   2.371   9.996  0.0400 -0.2109 -0.7268
  727MOL0     C98032  10.044   2.398   9.994 -0.5794  0.0158 -0.6779
  727MOL0     C98033  10.067   2.532   9.925  0.1390  0.2840  0.9437
  727MOL0     O98034   9.985   2.625  10.001 -0.6576  1.0795 -0.6285
  727MOL0     C98035  10.045   2.712  10.087  0.8255  0.6151 -0.1339
  727MOL0     C98036  10.172   2.692  10.150  0.7774  0.2145 -0.4691
  727MOL0     C98037  10.239   2.790  10.219 -0.3918  0.0397  0.4902
  727MOL0     C98038  10.178   2.922  10.233  0.5727 -0.0401  0.0543
  727MOL0     C98039  10.238   3.023  10.318 -0.0286  0.5017  0.1959
  727MOL0     O98040  10.255   3.149  10.267 -0.8126 -0.0066  0.0613
  727MOL0     C98041  10.301   3.256  10.354  0.0513  1.0338 -0.6916
  727MOL0     C98042  10.432   3.303  10.331  0.4859 -0.0752 -0.4332
  727MOL0     C98043  10.474   3.415  10.401 -0.3951 -0.5390  0.0355
  727MOL0     C98044  10.380   3.494  10.483 -0.9576 -0.5308 -0.7552
  727MOL0     O98045  10.411   3.617  10.548  0.0988 -0.2511  0.3957
  727MOL0     C98046  10.489   3.707  10.474 -0.7476 -0.6478  0.2253
  727MOL0     C98047  10.471   3.843  10.541 -0.6020  0.0451  0.3153
  727MOL0     C98048  10.588   3.896  10.634 -0.2478 -0.5842  0.2838
  727MOL0     C98049  10.578   3.827  10.766  0.7445 -0.4286 -0.6039
  727MOL0     C98050  10.711   3.842  10.840 -0.3936 -0.0086 -0.6016
  727MOL0     C98051  10.729   3.983  10.909 -0.3222 -0.0260  0.4438
  727MOL0     C98052  10.874   4.013  10.958  0.8941  0.3074  0.6893
  727MOL0     C98053  10.949   4.115  10.872 -0.5251  0.0298 -0.3977
  727MOL0    Cl98054  10.990   4.045  10.714  0.6762  0.2939  0.2970
  727MOL0     C98055  10.251   3.436  10.501  0.7133  0.4980 -0.5140
  727MOL0     C98056  10.214   3.319  10.433 -0.5192 -0.6377 -1.4278
  727MOL0     O98057  10.277   2.987  10.427  0.7739 -0.2171 -0.2881
  727MOL0     C98058  10.049   2.944  10.185  0.0443  0.6194  0.6870
  727MOL0     C98059   9.985   2.840  10.103 -0.5320  0.2659  0.2030
  727MOL0     N98060   9.698   2.148  10.195  0.4414  0.2323 -0.8315
  727MOL0     N98061   9.587   2.170  10.249 -0.9543 -0.4069  0.1659
  727MOL0     C98062   8.714   1.575  10.438 -1.0700 -0.2906 -0.0356
  727MOL0     C98063   8.709   1.435  10.464  0.2950 -0.6564 -0.2404
  727MOL0     C98064   8.783   0.978  10.446  0.2873 -0.4013  0.2565
  727MOL0     C98065   8.825   0.909  10.335  0.9101 -0.9543  0.1140
  727MOL0     C98066   8.802   0.768  10.323  1.2087 -0.4646  0.1505
  727MOL0     C98067   8.728   0.705  10.424  0.4376  0.2762  1.1623
  727MOL0     O98068   8.690   0.573  10.403 -0.2194  0.5580 -0.6099
  727MOL0     C98069   8.790   0.472  10.410 -0.0082 -0.5205 -0.7469
  727MOL0     C98070   8.834   0.447  10.555 -0.2313  0.5776  0.1110
  727MOL0     C98071   8.909   0.317  10.563 -0.1212  0.7885 -0.4889
  727MOL0     C98072   8.807   0.192  10.554 -0.2869  0.0439  0.7665
  727MOL0     C98073   8.891   0.074  10.587 -0.0708  0.3003 -1.5442
  727MOL0     C98074   8.957  -0.032  10.598  0.1031 -0.2170 -0.5858
  727MOL0     C98075   8.671   0.786  10.527 -0.0619  0.3353  0.0253
  727MOL0     C98076   8.702   0.923  10.546  0.0540 -0.4895  0.4954
  727MOL0     C98077   8.652   0.990  10.662  0.3617  0.5616  0.5904
  727MOL0     H98078   8.904   1.321  10.197  0.3979 -0.3460  0.4022
  727MOL0     H98079   8.925   1.559  10.167 -2.7847  1.0584 -1.4922
  727MOL0     H98080   8.686   1.876  10.407 -0.3899  0.3591  0.4973
  727MOL0     H98081   8.831   1.834  10.496 -1.6565 -3.5207 -1.3439
  727MOL0     H98082   8.828   2.075  10.409  1.5390  1.0215  0.5793
  727MOL0     H98083   8.806   1.997  10.239  0.1646 -0.5404 -0.3765
  727MOL0     H98084   9.029   1.909  10.276 -1.1682 -0.8226  0.9768
  727MOL0     H98085   9.049   2.007  10.425  1.7753 -3.0402 -0.7460
  727MOL0     H98086   8.975   2.140  10.165 -1.2326  0.8212  1.5382
  727MOL0     H98087   9.043   2.210  10.309 -2.3693  0.4632  0.8645
  727MOL0     H98088   9.253   2.095  10.296  0.2542  0.8209  0.2426
  727MOL0     H98089   9.187   1.988  10.169 -0.1687  0.2558  0.2937
  727MOL0     H98090   9.318   2.119  10.029 -2.6396 -0.8613 -1.7813
  727MOL0     H98091   9.157   2.186  10.011 -2.5828  1.9902  0.7810
  727MOL0     H98092   9.196   2.364  10.183  2.3884  2.1408  1.6509
  727MOL0     H98093   9.285   2.380  10.037 -1.5162 -1.3112 -0.8405
  727MOL0     H98094   9.429   2.432  10.239  0.7020  0.5874 -2.8903
  727MOL0     H98095   9.377   2.281  10.304  0.5954 -0.2430 -0.6189
  727MOL0     H98096   9.614   2.381   9.995 -0.8386 -0.9643 -1.7358
  727MOL0     H98097   9.913   2.158  10.068 -0.8805 -4.1774 -2.1009
  727MOL0     H98098   9.832   2.170   9.917 -2.2972  1.6785 -1.1620
  727MOL0     H98099   9.848   2.407   9.900  2.2378 -2.0182 -2.4429
  727MOL0     H98100   9.845   2.428  10.079  0.4755  2.2170 -2.0720
  727MOL0     H98101  10.103   2.325   9.938  0.1775  1.8686 -2.4169
  727MOL0     H98102  10.079   2.397  10.098 -0.6506  0.6346 -0.6438
  727MOL0     H98103  10.033   2.530   9.822 -3.1663  0.4688  1.9224
  727MOL0     H98104  10.173   2.559   9.925  0.4794 -0.9774  0.1194
  727MOL0     H98105  10.231   2.601  10.139  0.4001 -0.2230  0.9160
  727MOL0     H98106  10.334   2.769  10.267 -0.3024 -2.5189 -0.6934
  727MOL0     H98107  10.498   3.259  10.258  1.9835  1.2715  0.0445
  727MOL0     H98108  10.576   3.445  10.381 -0.2501 -0.2401  1.1730
  727MOL0     H98109  10.595   3.684  10.456 -0.4518  0.8321 -0.0178
  727MOL0     H98110  10.445   3.721  10.375 -1.3088 -3.2028  0.0516
  727MOL0     H98111  10.475   3.923  10.466  1.7348  0.8568  1.2165
  727MOL0     H98112  10.366   3.849  10.571 -1.0604  1.6647 -1.4235
  727MOL0     H98113  10.678   3.867  10.580 -0.4238  1.3046 -1.1442
  727MOL0     H98114  10.588   4.004  10.650  2.0901 -0.3107 -1.0805
  727MOL0     H98115  10.557   3.720  10.763  0.2646 -0.3187 -1.4279
  727MOL0     H98116  10.509   3.878  10.834  1.0451 -0.3412 -0.3574
  727MOL0     H98117  10.798   3.838  10.774  0.6942 -0.7149  0.8100
  727MOL0     H98118  10.732   3.765  10.915  4.5800  0.1682 -1.4282
  727MOL0     H98119  10.696   4.066  10.847  1.4851  0.4190  0.0261
  727MOL0     H98120  10.661   3.992  10.995  2.1029  2.8900  2.2254
  727MOL0     H98121  10.936   3.923  10.954 -0.9795 -1.0171 -3.5781
  727MOL0     H98122  10.862   4.062  11.055 -2.1315  0.4534  0.3277
  727MOL0     H98123  10.887   4.205  10.863 -0.8298  0.0609  1.6575
  727MOL0     H98124  11.039   4.147  10.924 -0.6494 -0.3087  0.0237
  727MOL0     H98125  10.184   3.485  10.571  2.0053  2.1491 -0.3566
  727MOL0     H98126  10.120   3.267  10.448 -0.3729 -0.0596  2.4130
  727MOL0     H98127  10.010   3.044  10.200  0.6770  1.0898 -0.6616
  727MOL0     H98128   9.891   2.846  10.050 -0.4507 -1.7252 -0.2671
  727MOL0     H98129   8.677   1.647  10.511 -4.9003 -3.1742  1.1796
  727MOL0     H98130   8.646   1.390  10.541  1.6692 -1.4349  0.4742
  727MOL0     H98131   8.891   0.959  10.265  2.8831 -3.4902  0.0220
  727MOL0     H98132   8.838   0.711  10.238  1.1451  0.0900 -0.2545
  727MOL0     H98133   8.872   0.514  10.351 -1.2484  1.8191 -0.9203
  727MOL0     H98134   8.741   0.385  10.365 -2.6017  0.2627  0.3559
  727MOL0     H98135   8.741   0.437  10.611 -1.2230 -0.4159 -1.6308
  727MOL0     H98136   8.885   0.538  10.590 -1.1179  1.3833 -0.6185
  727MOL0     H98137   8.976   0.321  10.649  0.5893  1.3661 -1.0472
  727MOL0     H98138   8.976   0.315  10.477 -0.8366 -2.1863 -1.0722
  727MOL0     H98139   8.725   0.201  10.625 -2.2262 -0.2012 -1.3584
  727MOL0     H98140   8.775   0.190  10.450  0.7183  5.3950  0.0891
  727MOL0     H98141   9.026  -0.114  10.609 -0.2878 -0.3078  1.5520
  727MOL0     H98142   8.580   0.744  10.569  1.3477 -2.6101  0.4245
  727MOL0     H98143   8.716   1.065  10.710 -2.6322  1.3376  3.8338
  727MOL0     H98144   8.565   1.045  10.627 -0.4916 -2.4835 -2.6569
  727MOL0     H98145   8.630   0.917  10.741  2.4947  1.4820  2.1477
  728MOL0     O98146   2.406   9.203   8.541 -0.0291  0.3776 -0.0858
  728MOL0     C98147   2.392   9.319   8.499  0.6729  0.6316 -0.0510
  728MOL0     O98148   2.469   9.362   8.400 -0.2504  0.9263 -0.4731
  728MOL0     C98149   2.558   9.271   8.344  0.3078  0.2849 -0.4170
  728MOL0     C98150   2.504   9.187   8.247 -0.0046 -0.4562 -0.8084
  728MOL0     C98151   2.577   9.095   8.180  0.2574  0.0725 -0.0143
  728MOL0     C98152   2.712   9.086   8.197 -0.1380 -1.6840  0.2055
  728MOL0     O98153   2.802   9.005   8.141  0.2842  0.3307  0.0639
  728MOL0     C98154   2.752   8.890   8.059  0.0825  0.3657 -0.3078
  728MOL0     C98155   2.868   8.794   8.056 -0.6140 -0.5551  0.4141
  728MOL0     C98156   2.814   8.645   8.023  0.1336 -0.0992 -0.0471
  728MOL0     C98157   2.922   8.570   7.946  0.1073  0.1435  0.2696
  728MOL0     C98158   2.876   8.429   7.908  0.3518  0.4064 -0.1834
  728MOL0     C98159   2.978   8.379   7.805 -0.0946  0.6111 -0.8976
  728MOL0     C98160   2.938   8.273   7.707  0.6011 -1.0761 -0.5845
  728MOL0     C98161   2.871   8.166   7.786 -0.1807 -0.2154  0.2186
  728MOL0     N98162   2.852   8.049   7.702  0.4315  0.4471 -0.6615
  728MOL0     C98163   2.796   8.039   7.577 -1.2215  0.1829  0.3223
  728MOL0     C98164   2.758   7.911   7.559 -0.0756  0.1686  0.1564
  728MOL0     C98165   2.681   7.852   7.443  0.0614 -0.0889 -0.2261
  728MOL0     C98166   2.712   7.702   7.432  1.1321  1.0958  0.2556
  728MOL0     C98167   2.619   7.620   7.350 -1.0072  0.5965  1.0747
  728MOL0     C98168   2.661   7.470   7.387  0.4468  0.5345 -0.8067
  728MOL0     O98169   2.608   7.427   7.512  0.5097 -0.2269  0.0910
  728MOL0     C98170   2.496   7.349   7.511 -0.2413  0.4286  0.3428
  728MOL0     C98171   2.395   7.340   7.417  0.4286  0.1598 -0.7510
  728MOL0     C98172   2.277   7.271   7.437 -0.4171  0.0261  0.2743
  728MOL0     C98173   2.255   7.191   7.541  0.0632 -0.4812  0.1735
  728MOL0     C98174   2.132   7.120   7.550 -0.3407 -0.2611  0.1588
  728MOL0     O98175   2.040   7.131   7.454 -0.8903  0.5731  0.1980
  728MOL0     C98176   1.914   7.092   7.454 -0.1799  0.9636  1.0639
  728MOL0     C98177   1.884   6.957   7.472  0.9117  0.1744 -0.5463
  728MOL0     C98178   1.749   6.912   7.470 -0.3297  0.5798  0.5578
  728MOL0     C98179   1.651   7.002   7.460  1.0062  0.6462 -0.0513
  728MOL0     O98180   1.525   6.944   7.442  0.6539  0.3227  0.2484
  728MOL0     C98181   1.417   7.044   7.427  1.5012  1.3931 -0.3279
  728MOL0     C98182   1.283   6.961   7.460  0.6732 -0.5708  1.1912
  728MOL0     C98183   1.256   6.933   7.612 -0.1725  0.3269  0.1923
  728MOL0     C98184   1.347   6.839   7.689 -0.6630  0.0449 -0.6523
  728MOL0     C98185   1.300   6.806   7.833 -0.4582  0.2380  0.0865
  728MOL0     C98186   1.370   6.676   7.881  0.1981  0.4495  0.7210
  728MOL0     C98187   1.306   6.543   7.833 -0.2778 -0.2585  0.6789
  728MOL0     C98188   1.153   6.552   7.820 -1.4414 -0.6158 -0.4177
  728MOL0    Cl98189   1.078   6.387   7.848 -0.1921 -0.1841 -0.1305
  728MOL0     C98190   1.680   7.136   7.431 -0.3439  0.6416  0.6054
  728MOL0     C98191   1.810   7.179   7.431  0.5976  0.9017  1.3293
  728MOL0     O98192   2.120   7.042   7.655  0.0141 -0.3606 -0.4701
  728MOL0     C98193   2.361   7.193   7.637 -0.1708  0.3688 -0.4787
  728MOL0     C98194   2.479   7.277   7.629 -0.4286  0.5361 -0.2937
  728MOL0     N98195   2.782   7.848   7.680 -0.5776 -0.3522  0.0160
  728MOL0     N98196   2.826   7.937   7.766 -0.0743 -0.2704 -0.1552
  728MOL0     C98197   2.766   9.172   8.296  0.2577 -0.4560 -0.5118
  728MOL0     C98198   2.693   9.267   8.381 -0.3068  0.9928 -0.3664
  728MOL0     C98199   2.279   9.404   8.542 -0.5370  0.5240 -0.5553
  728MOL0     C98200   2.310   9.543   8.542 -0.7645 -1.0856  0.5079
  728MOL0     C98201   2.207   9.639   8.562  0.1080  0.4179  0.2424
  728MOL0     C98202   2.079   9.591   8.609  0.3943  0.5911  0.8123
  728MOL0     O98203   1.972   9.675   8.654 -0.5121  0.2756  0.1994
  728MOL0     C98204   1.985   9.815   8.641 -0.7682  0.3048 -0.6944
  728MOL0     C98205   1.985   9.873   8.504  0.0588  0.9321  0.6935
  728MOL0     C98206   1.903   9.787   8.396 -0.0646 -0.1427  0.4293
  728MOL0     C98207   1.974   9.683   8.305 -0.5111 -0.1945  0.1533
  728MOL0     C98208   1.887   9.633   8.199  0.6146 -0.0129  0.3011
  728MOL0     C98209   1.818   9.601   8.098 -0.0418  0.1516  0.4793
  728MOL0     C98210   2.056   9.452   8.628 -0.0707 -1.1524 -0.6867
  728MOL0     C98211   2.151   9.357   8.582  0.0597  1.2318 -0.1928
  728MOL0     C98212   2.108   9.216   8.568 -0.0628 -0.0330 -0.6259
  728MOL0     H98213   2.395   9.188   8.243 -0.1662  1.0178  1.5747
  728MOL0     H98214   2.516   9.042   8.108 -0.1492 -0.2861  0.5828
  728MOL0     H98215   2.657   8.851   8.098 -1.4804  2.3886 -1.8767
  728MOL0     H98216   2.728   8.910   7.954 -0.7126  1.5392  0.0720
  728MOL0     H98217   2.916   8.795   8.155 -0.8712  3.1035  0.6412
  728MOL0     H98218   2.940   8.830   7.983 -0.1609  0.0403  1.1369
  728MOL0     H98219   2.721   8.655   7.966 -1.1518  0.0381  1.9917
  728MOL0     H98220   2.783   8.604   8.119  0.0969  3.4639  1.6087
  728MOL0     H98221   2.950   8.632   7.860  2.4203  2.0741  2.2436
  728MOL0     H98222   3.018   8.564   7.998  1.0677 -2.5631 -1.5987
  728MOL0     H98223   2.868   8.358   7.991 -3.8944  1.3449  0.4054
  728MOL0     H98224   2.777   8.434   7.863 -1.2450  0.9080  3.0904
  728MOL0     H98225   3.017   8.464   7.748  0.9938  0.5503 -0.2817
  728MOL0     H98226   3.067   8.340   7.856  0.6618  1.0617 -1.8401
  728MOL0     H98227   3.034   8.238   7.670  0.8920  1.3024 -2.3710
  728MOL0     H98228   2.884   8.314   7.621  0.6982 -0.7829 -0.5077
  728MOL0     H98229   2.925   8.145   7.879 -2.0192  0.4334  1.4972
  728MOL0     H98230   2.770   8.193   7.820  0.5797 -0.3156  2.7426
  728MOL0     H98231   2.779   8.125   7.512  1.9557  0.5164 -0.2456
  728MOL0     H98232   2.573   7.869   7.450  0.1294  0.9161 -1.2574
  728MOL0     H98233   2.721   7.917   7.364 -3.3499  0.7620 -1.4352
  728MOL0     H98234   2.806   7.691   7.377 -0.6532  0.3457 -2.9167
  728MOL0     H98235   2.700   7.660   7.532 -0.6451 -0.5051 -0.5545
  728MOL0     H98236   2.633   7.628   7.242  0.0801 -2.4372  0.8805
  728MOL0     H98237   2.517   7.640   7.385 -1.7604  0.2994 -0.8481
  728MOL0     H98238   2.769   7.463   7.399  0.8177  2.2093 -2.5503
  728MOL0     H98239   2.641   7.404   7.302  4.8224 -1.6257 -0.4232
  728MOL0     H98240   2.395   7.396   7.324 -0.8940 -1.2610 -1.6641
  728MOL0     H98241   2.208   7.277   7.353 -1.6989 -0.8735  1.2267
  728MOL0     H98242   1.963   6.883   7.482  0.3345 -0.4306 -0.4085
  728MOL0     H98243   1.722   6.807   7.460 -2.2333  0.8573  2.1263
  728MOL0     H98244   1.436   7.123   7.501  0.0669  2.6161 -1.2000
  728MOL0     H98245   1.397   7.091   7.330  2.8028 -0.9161 -1.7996
  728MOL0     H98246   1.199   7.023   7.428  1.5962 -0.9347 -2.3932
  728MOL0     H98247   1.281   6.882   7.384  0.9965  4.6663 -5.1479
  728MOL0     H98248   1.245   7.023   7.672 -0.8185 -1.0151  2.1769
  728MOL0     H98249   1.165   6.873   7.616  1.2923 -2.0548 -0.1132
  728MOL0     H98250   1.444   6.887   7.705  1.8818 -4.9743  1.1378
  728MOL0     H98251   1.350   6.745   7.633  1.9507 -1.1350  1.3003
  728MOL0     H98252   1.192   6.786   7.842 -0.0320 -2.2622  0.4537
  728MOL0     H98253   1.333   6.885   7.901  2.3495 -1.1429  0.4531
  728MOL0     H98254   1.473   6.670   7.843  1.0183 -3.9493  2.9049
  728MOL0     H98255   1.365   6.669   7.990  1.6149 -2.2255  0.6984
  728MOL0     H98256   1.334   6.477   7.916 -2.0507 -0.8740  0.8480
  728MOL0     H98257   1.361   6.513   7.744 -1.7331  0.1731 -0.4022
  728MOL0     H98258   1.129   6.615   7.906 -1.2717 -1.6017  0.3630
  728MOL0     H98259   1.105   6.605   7.737 -4.4747 -1.0226  0.9182
  728MOL0     H98260   1.608   7.212   7.405  1.1443  2.2943  1.1166
  728MOL0     H98261   1.809   7.287   7.420 -0.8593  0.9347  1.5995
  728MOL0     H98262   2.343   7.138   7.729 -0.2064 -2.0756 -1.8865
  728MOL0     H98263   2.565   7.277   7.695 -1.6767  1.8552  1.4123
  728MOL0     H98264   2.873   9.169   8.314  0.5676  1.7329 -1.6163
  728MOL0     H98265   2.739   9.327   8.459 -0.7227  0.4268  0.3232
  728MOL0     H98266   2.413   9.567   8.519  0.3231 -3.5400  2.4052
  728MOL0     H98267   2.221   9.747   8.559  1.1514  0.2729 -0.9867
  728MOL0     H98268   2.073   9.848   8.697 -4.0387  1.5737  4.4402
  728MOL0     H98269   1.897   9.861   8.687  1.2272  4.0705 -0.2605
  728MOL0     H98270   2.088   9.876   8.466  0.7026  1.6917  2.3872
  728MOL0     H98271   1.947   9.976   8.504  3.5165  2.6037  5.4167
  728MOL0     H98272   1.864   9.856   8.321  5.0096  0.5163 -1.9972
  728MOL0     H98273   1.818   9.740   8.448 -0.4530  0.9879  0.8315
  728MOL0     H98274   2.068   9.731   8.275  0.1739 -0.6145  1.5394
  728MOL0     H98275   2.000   9.600   8.371  0.2187  1.1607  1.6401
  728MOL0     H98276   1.755   9.576   8.014 -1.8464 -0.1447  1.8507
  728MOL0     H98277   1.961   9.420   8.671  0.0212  2.0717  2.3449
  728MOL0     H98278   2.001   9.209   8.547 -0.5355  0.5236  1.4124
  728MOL0     H98279   2.155   9.169   8.481  2.2778  1.0324 -0.0209
  728MOL0     H98280   2.125   9.162   8.661  0.0639 -0.1278 -0.7026
  729MOL0     O98281   8.916  11.402   3.102 -0.1068  0.3225 -0.1208
  729MOL0     C98282   8.835  11.422   3.011 -0.3247  0.6028  0.6858
  729MOL0     O98283   8.716  11.367   3.003 -0.8925 -0.5075  0.2918
  729MOL0     C98284   8.690  11.251   3.058 -0.1446 -0.2415  0.5479
  729MOL0     C98285   8.775  11.160   3.115  0.3967 -0.0384  0.4360
  729MOL0     C98286   8.733  11.039   3.179  0.3557  0.0404  1.3216
  729MOL0     C98287   8.600  11.006   3.190  0.1701 -0.8487 -0.7417
  729MOL0     O98288   8.556  10.894   3.252 -0.4363  0.5499 -0.0348
  729MOL0     C98289   8.424  10.878   3.304  0.4668  0.1930  0.4157
  729MOL0     C98290   8.432  10.885   3.460  0.2893  0.6599  0.0538
  729MOL0     C98291   8.306  10.830   3.521  0.0700  0.5384 -0.3165
  729MOL0     C98292   8.306  10.854   3.673 -0.1406 -0.1372  0.3351
  729MOL0     C98293   8.206  10.776   3.758  0.2129 -0.7849  0.0235
  729MOL0     C98294   8.185  10.862   3.893 -0.3194  0.7155 -0.1064
  729MOL0     C98295   8.054  10.821   3.962 -0.4849 -0.2426  0.3992
  729MOL0     C98296   7.930  10.887   3.902  0.6103 -0.5042 -0.0312
  729MOL0     N98297   7.818  10.901   3.997  0.5698 -0.7735 -0.2611
  729MOL0     C98298   7.693  10.850   3.998 -0.8337 -1.0653  0.5060
  729MOL0     C98299   7.634  10.892   4.114  0.6340 -0.7879 -0.4755
  729MOL0     C98300   7.505  10.847   4.170 -0.4821  0.0472 -1.1225
  729MOL0     C98301   7.536  10.757   4.285  0.2837 -1.1611 -0.2093
  729MOL0     C98302   7.578  10.609   4.246  1.0398 -0.4338  0.5823
  729MOL0     C98303   7.528  10.513   4.360 -0.0661 -0.7119  1.3959
  729MOL0     O98304   7.590  10.382   4.319 -0.6304 -0.1229  0.5541
  729MOL0     C98305   7.586  10.274   4.393 -0.4985 -0.3664  0.0490
  729MOL0     C98306   7.503  10.272   4.506 -0.0046 -0.1094  0.8057
  729MOL0     C98307   7.493  10.164   4.586 -0.4193 -0.4691 -0.2912
  729MOL0     C98308   7.585  10.056   4.564 -0.2104  0.2341 -0.3895
  729MOL0     C98309   7.581   9.933   4.649 -0.8143 -0.7235  0.6744
  729MOL0     O98310   7.656   9.828   4.616  0.9915 -0.2412 -0.1068
  729MOL0     C98311   7.638   9.704   4.675  0.0976 -0.1436 -0.6939
  729MOL0     C98312   7.517   9.650   4.682  0.3790  0.0710 -0.1297
  729MOL0     C98313   7.491   9.527   4.746 -0.8177 -0.1607 -0.1429
  729MOL0     C98314   7.596   9.456   4.803 -1.2456 -0.3739 -0.3401
  729MOL0     O98315   7.566   9.341   4.868  0.2107 -0.6354  0.2131
  729MOL0     C98316   7.503   9.346   4.996 -0.8387 -0.9308  0.1668
  729MOL0     C98317   7.486   9.212   5.068 -0.0014 -0.4145 -0.2644
  729MOL0     C98318   7.618   9.140   5.076  0.4523  0.4127 -0.3454
  729MOL0     C98319   7.604   9.029   5.180 -0.4238  0.0973  0.4188
  729MOL0     C98320   7.597   9.058   5.333 -0.0383  0.4336  0.8011
  729MOL0     C98321   7.721   9.136   5.383 -0.1597  0.8363 -0.8488
  729MOL0     C98322   7.724   9.140   5.540  1.5404 -0.4791  0.2109
  729MOL0     C98323   7.841   9.225   5.586 -0.0137 -0.0323 -0.2527
  729MOL0    Cl98324   7.833   9.390   5.513 -0.1789 -0.6521 -0.0258
  729MOL0     C98325   7.725   9.511   4.795  0.4096  0.0846  0.0918
  729MOL0     C98326   7.748   9.638   4.731  0.8340 -0.3827  0.1412
  729MOL0     O98327   7.497   9.937   4.738 -0.1239 -0.8258 -0.1850
  729MOL0     C98328   7.657  10.045   4.444 -0.0660 -0.1933  0.1486
  729MOL0     C98329   7.659  10.155   4.359 -0.7802  1.0875 -0.0847
  729MOL0     N98330   7.711  10.972   4.187 -0.2829  0.1842  0.4041
  729MOL0     N98331   7.827  10.968   4.118  0.0771  0.1463  0.4691
  729MOL0     C98332   8.509  11.094   3.121  0.2867 -0.5749  1.1904
  729MOL0     C98333   8.555  11.216   3.061  0.8953  0.5009 -0.0372
  729MOL0     C98334   8.886  11.506   2.898 -0.1981 -0.4766 -0.8233
  729MOL0     C98335   9.013  11.566   2.912 -0.0464 -0.6495 -0.1622
  729MOL0     C98336   9.075  11.655   2.813  0.5658 -0.7617 -0.1229
  729MOL0     C98337   9.008  11.685   2.696  1.2132 -0.6586  0.2028
  729MOL0     O98338   9.062  11.765   2.602  0.1468  0.3321 -0.4935
  729MOL0     C98339   8.987  11.808   2.488 -0.0772  1.2268  0.6546
  729MOL0     C98340   9.051  11.912   2.403 -0.4663 -0.9415 -0.0771
  729MOL0     C98341   9.086  12.037   2.493 -0.3091 -0.4672  0.0526
  729MOL0     C98342   8.969  12.139   2.520 -0.8063 -0.5608  0.5598
  729MOL0     C98343   8.954  12.245   2.419  0.4144  0.0085 -0.2328
  729MOL0     C98344   8.937  12.336   2.342  0.0960 -0.2582 -0.6403
  729MOL0     C98345   8.877  11.618   2.683  0.9655 -0.1469  0.2574
  729MOL0     C98346   8.820  11.532   2.777 -1.2868  0.3958 -0.1934
  729MOL0     C98347   8.683  11.471   2.740 -0.5381  0.0461  0.5895
  729MOL0     H98348   8.882  11.168   3.130  0.2786 -1.8063  2.9481
  729MOL0     H98349   8.809  10.975   3.224 -0.8551 -1.5954  1.1317
  729MOL0     H98350   8.352  10.956   3.277  0.7423 -0.1853 -1.5150
  729MOL0     H98351   8.389  10.779   3.273 -0.5420  0.5463  0.3713
  729MOL0     H98352   8.432  10.992   3.483 -2.0169  0.5956  0.6279
  729MOL0     H98353   8.529  10.847   3.494 -0.0081  0.4127  0.6556
  729MOL0     H98354   8.293  10.723   3.502 -0.1175  0.3336  0.8956
  729MOL0     H98355   8.216  10.877   3.482 -1.1025 -0.0674  1.5171
  729MOL0     H98356   8.404  10.834   3.719  0.3745  0.3099 -0.5404
  729MOL0     H98357   8.303  10.963   3.680  2.6451  0.1149 -1.0451
  729MOL0     H98358   8.109  10.775   3.709 -0.2732  0.7545  0.8632
  729MOL0     H98359   8.254  10.682   3.786  1.8518  0.2340  0.8178
  729MOL0     H98360   8.267  10.851   3.964 -0.6739 -0.1064  0.1953
  729MOL0     H98361   8.186  10.970   3.876  2.5725  0.9952  1.2285
  729MOL0     H98362   8.067  10.853   4.066 -2.1186 -0.4905  0.7053
  729MOL0     H98363   8.047  10.712   3.962  1.6703 -0.4550  2.0560
  729MOL0     H98364   7.949  10.985   3.858 -1.6896 -0.8482 -2.0063
  729MOL0     H98365   7.886  10.826   3.822 -2.8520 -0.7954  1.8594
  729MOL0     H98366   7.660  10.768   3.934 -0.6771 -0.9247  0.2422
  729MOL0     H98367   7.435  10.931   4.178 -0.2189  0.5569 -3.2815
  729MOL0     H98368   7.435  10.790   4.109 -2.1325  0.0904  0.6423
  729MOL0     H98369   7.599  10.805   4.360 -0.2181 -0.9726  0.0991
  729MOL0     H98370   7.445  10.739   4.343  1.4802 -2.6788  1.2950
  729MOL0     H98371   7.681  10.597   4.211  0.5898  2.6416 -2.3755
  729MOL0     H98372   7.512  10.592   4.161  2.4066  0.6029 -0.7515
  729MOL0     H98373   7.419  10.510   4.353  0.0220  0.1363 -1.5666
  729MOL0     H98374   7.562  10.562   4.451 -0.2214  2.3369 -0.0794
  729MOL0     H98375   7.447  10.362   4.529  3.3197  2.5829 -0.8310
  729MOL0     H98376   7.421  10.170   4.667  0.1218  2.9169  0.0919
  729MOL0     H98377   7.425   9.699   4.652  1.1199  1.8130  0.3434
  729MOL0     H98378   7.383   9.514   4.755 -1.2012  1.7255 -1.2822
  729MOL0     H98379   7.571   9.407   5.056 -0.5281 -0.7262 -0.3929
  729MOL0     H98380   7.409   9.397   4.972  0.3944  0.1069 -2.9200
  729MOL0     H98381   7.451   9.238   5.168 -0.4285 -2.8448  0.2974
  729MOL0     H98382   7.404   9.163   5.013 -0.3458  1.1087 -1.1501
  729MOL0     H98383   7.639   9.100   4.976  1.4598 -0.8018  0.3259
  729MOL0     H98384   7.692   9.210   5.115 -0.3482  1.2876 -0.3639
  729MOL0     H98385   7.695   8.969   5.167 -1.8362 -1.5187 -3.1381
  729MOL0     H98386   7.518   8.966   5.157 -0.1089  0.1884 -1.1130
  729MOL0     H98387   7.604   8.959   5.380  1.6699  0.1638  0.0637
  729MOL0     H98388   7.503   9.106   5.361  0.3818  0.1779  2.8430
  729MOL0     H98389   7.815   9.085   5.357 -0.3789 -0.6967  1.0965
  729MOL0     H98390   7.718   9.239   5.346  4.7269  1.3557 -0.4954
  729MOL0     H98391   7.739   9.036   5.570  3.0895 -0.3135  0.0731
  729MOL0     H98392   7.630   9.185   5.573 -0.3959 -3.1985 -1.1805
  729MOL0     H98393   7.846   9.233   5.695  0.4986  1.9422 -0.3888
  729MOL0     H98394   7.933   9.180   5.549 -0.4958 -1.7590  0.5476
  729MOL0     H98395   7.812   9.453   4.827  0.1033  0.2386  1.2256
  729MOL0     H98396   7.852   9.664   4.749  0.8124 -2.0718  3.6333
  729MOL0     H98397   7.709   9.954   4.415 -0.9171  0.6434 -4.9207
  729MOL0     H98398   7.717  10.155   4.268 -0.7631  3.2789 -0.1326
  729MOL0     H98399   8.405  11.068   3.105  0.8606 -0.9170 -3.1109
  729MOL0     H98400   8.491  11.276   2.997  2.9476  1.7095 -1.0465
  729MOL0     H98401   9.061  11.550   3.007  1.2139 -6.5552 -1.4166
  729MOL0     H98402   9.169  11.708   2.827 -0.7054  1.6665 -0.3165
  729MOL0     H98403   8.899  11.853   2.534 -0.6993  0.0148  0.6833
  729MOL0     H98404   8.970  11.712   2.438 -1.5595  2.1402 -0.6884
  729MOL0     H98405   8.976  11.935   2.326 -0.6485  1.3970  0.7147
  729MOL0     H98406   9.140  11.872   2.355 -1.1288 -1.1219 -1.1890
  729MOL0     H98407   9.163  12.091   2.437 -1.4327 -1.1753 -2.3112
  729MOL0     H98408   9.129  11.998   2.586  1.7249 -0.7747 -0.9447
  729MOL0     H98409   8.881  12.074   2.523  0.0035 -1.6486  1.8818
  729MOL0     H98410   8.974  12.170   2.624 -2.4201 -4.5912  2.0624
  729MOL0     H98411   8.937  12.421   2.276  1.9099 -1.0172 -1.6668
  729MOL0     H98412   8.817  11.635   2.594  0.3960  0.4670  0.7405
  729MOL0     H98413   8.599  11.497   2.805 -0.6872 -0.5534  0.6497
  729MOL0     H98414   8.651  11.500   2.640 -3.2718 -1.4307  0.9277
  729MOL0     H98415   8.694  11.362   2.744  2.8176  0.3066  2.4809
  730MOL0     O98416   1.042   5.835   8.863 -0.8291 -0.5274 -0.6619
  730MOL0     C98417   0.958   5.831   8.775  0.8269  1.4278 -0.7555
  730MOL0     O98418   0.986   5.825   8.644 -0.5339  0.3405  0.1520
  730MOL0     C98419   1.114   5.844   8.595 -0.2074 -0.0557  0.1584
  730MOL0     C98420   1.188   5.731   8.555 -0.9160  1.0738 -0.9393
  730MOL0     C98421   1.314   5.754   8.495 -0.2461  0.7670  0.1105
  730MOL0     C98422   1.375   5.884   8.485  0.3474 -0.4465 -0.1433
  730MOL0     O98423   1.495   5.906   8.415  0.5253 -0.1861  1.3430
  730MOL0     C98424   1.575   5.801   8.363 -0.6641  0.2028 -0.9853
  730MOL0     C98425   1.710   5.851   8.336 -0.2426  0.1653 -0.3979
  730MOL0     C98426   1.708   5.947   8.215  0.1114  0.1017 -0.7596
  730MOL0     C98427   1.852   5.973   8.192  0.6726  0.6386  0.1409
  730MOL0     C98428   1.878   6.070   8.081  2.0381  0.0169  0.5702
  730MOL0     C98429   1.875   5.995   7.938 -0.1249  0.0835 -0.8868
  730MOL0     C98430   1.877   6.103   7.826 -0.0945 -0.3391  0.4655
  730MOL0     C98431   1.838   6.025   7.702  0.5718 -0.5278 -0.0639
  730MOL0     N98432   1.929   5.918   7.659  0.0939 -0.0201  0.1816
  730MOL0     C98433   1.890   5.787   7.642  0.6145 -0.7055  1.1213
  730MOL0     C98434   2.001   5.719   7.596 -0.9713 -0.2745  0.0443
  730MOL0     C98435   1.999   5.585   7.529  0.0188 -0.3242 -0.1815
  730MOL0     C98436   1.909   5.587   7.413  0.3480  0.9246  0.3784
  730MOL0     C98437   1.973   5.651   7.292 -0.2341  0.8668 -0.2673
  730MOL0     C98438   1.925   5.583   7.157  0.3068 -1.0715 -1.3409
  730MOL0     O98439   2.010   5.478   7.115 -0.2664  0.1245  0.0810
  730MOL0     C98440   2.003   5.420   6.989  0.6463 -0.3337  0.0793
  730MOL0     C98441   1.891   5.437   6.899  0.2145 -0.0827 -0.2525
  730MOL0     C98442   1.895   5.361   6.784  0.2345  0.7522  0.6681
  730MOL0     C98443   2.006   5.282   6.744  1.0314 -0.7025 -0.8202
  730MOL0     C98444   2.014   5.195   6.625 -0.2644 -1.1966 -0.0698
  730MOL0     O98445   2.130   5.138   6.583  0.3055  0.1889  0.0376
  730MOL0     C98446   2.152   5.116   6.449  0.3876 -0.3866 -0.0266
  730MOL0     C98447   2.243   5.019   6.412 -0.8116 -0.1539  1.0888
  730MOL0     C98448   2.289   5.018   6.286 -0.0116  0.0594 -0.8576
  730MOL0     C98449   2.225   5.099   6.187 -0.6240 -0.3417  0.3327
  730MOL0     O98450   2.270   5.071   6.059  0.3737 -0.3856 -0.6823
  730MOL0     C98451   2.201   5.109   5.939 -0.0540 -0.4433  0.4380
  730MOL0     C98452   2.239   5.023   5.815 -0.4915 -0.3106 -0.6115
  730MOL0     C98453   2.175   4.885   5.809 -0.1438  0.2139  0.2001
  730MOL0     C98454   2.215   4.791   5.694 -0.8094  0.0911  0.2022
  730MOL0     C98455   2.187   4.639   5.720  0.4050 -0.0874 -0.2941
  730MOL0     C98456   2.046   4.609   5.771  0.4493  0.0553 -0.5290
  730MOL0     C98457   2.024   4.457   5.752  0.3807 -0.1216  0.6211
  730MOL0     C98458   1.872   4.424   5.770 -0.2686  0.0768 -0.5987
  730MOL0    Cl98459   1.801   4.392   5.615 -0.0254  0.2554 -0.1367
  730MOL0     C98460   2.127   5.192   6.220 -0.1518 -0.5301  0.5464
  730MOL0     C98461   2.093   5.206   6.354 -0.0989  0.2191 -0.6012
  730MOL0     O98462   1.899   5.171   6.578 -0.9976  0.4859 -0.6857
  730MOL0     C98463   2.118   5.275   6.830 -0.1094 -0.3533 -0.4003
  730MOL0     C98464   2.114   5.339   6.951 -0.5555 -0.8021  0.2747
  730MOL0     N98465   2.105   5.815   7.593  0.0270  0.3640  0.6548
  730MOL0     N98466   2.062   5.936   7.623  0.1261  0.4547  1.0338
  730MOL0     C98467   1.299   5.987   8.537  0.2483 -0.2520  0.7140
  730MOL0     C98468   1.166   5.973   8.583 -0.7123  0.0058 -0.0877
  730MOL0     C98469   0.815   5.825   8.817 -0.6392 -1.5854  0.0146
  730MOL0     C98470   0.724   5.813   8.715  0.1558  1.1451 -0.4198
  730MOL0     C98471   0.583   5.810   8.729 -0.4027 -0.1912  0.5108
  730MOL0     C98472   0.532   5.832   8.859  0.4339  0.5621  0.1289
  730MOL0     O98473   0.398   5.817   8.892  0.0966  0.2130 -0.2619
  730MOL0     C98474   0.324   5.941   8.875 -0.5347  0.3284  0.0532
  730MOL0     C98475   0.238   5.988   8.993 -0.3387  1.0287  0.7711
  730MOL0     C98476   0.325   6.034   9.112  0.6912  0.3141  0.9239
  730MOL0     C98477   0.232   6.049   9.236 -0.5273 -0.9155  0.8865
  730MOL0     C98478   0.314   6.080   9.357 -0.4272 -0.4271 -0.3352
  730MOL0     C98479   0.378   6.084   9.460  1.0288  1.5088 -0.0834
  730MOL0     C98480   0.618   5.844   8.966 -1.3218  0.4487 -0.3101
  730MOL0     C98481   0.761   5.842   8.952  0.5723  0.5009  1.2448
  730MOL0     C98482   0.848   5.864   9.083 -0.0049  0.3084  0.4643
  730MOL0     H98483   1.140   5.633   8.562  1.6216 -0.3153 -1.6413
  730MOL0     H98484   1.376   5.674   8.458  1.0830  2.6184 -1.9583
  730MOL0     H98485   1.597   5.722   8.436  2.3250  2.4152  0.7502
  730MOL0     H98486   1.522   5.759   8.277 -0.9720  4.9025 -3.4026
  730MOL0     H98487   1.765   5.759   8.314  1.0522  0.9884 -0.7434
  730MOL0     H98488   1.754   5.900   8.424 -0.7358 -1.6085  0.8974
  730MOL0     H98489   1.654   6.042   8.227  3.8283  2.1784  1.3976
  730MOL0     H98490   1.668   5.898   8.126 -1.2062  2.7831 -1.7716
  730MOL0     H98491   1.889   6.021   8.283  0.9172 -1.1961  1.0639
  730MOL0     H98492   1.906   5.878   8.180  0.8026  0.6145  0.8600
  730MOL0     H98493   1.798   6.143   8.066  1.1248 -0.6127  2.1582
  730MOL0     H98494   1.963   6.135   8.104  1.7408  0.4651  0.4173
  730MOL0     H98495   1.963   5.930   7.936  2.3790  2.7994  3.6795
  730MOL0     H98496   1.786   5.931   7.936 -0.1369 -0.0081  0.7634
  730MOL0     H98497   1.979   6.133   7.799 -1.3852  0.5425 -4.2272
  730MOL0     H98498   1.798   6.178   7.831 -2.4741 -2.6327 -0.3608
  730MOL0     H98499   1.745   5.973   7.729 -2.2370  0.8071 -5.6073
  730MOL0     H98500   1.833   6.102   7.625  3.9948 -0.8035 -0.7141
  730MOL0     H98501   1.790   5.743   7.641  0.9724 -1.5550  1.7339
  730MOL0     H98502   2.103   5.557   7.507 -1.0521 -4.2881 -0.9274
  730MOL0     H98503   1.963   5.521   7.609 -0.6626  1.9093  1.3970
  730MOL0     H98504   1.889   5.480   7.401  0.2962  0.7770  1.7110
  730MOL0     H98505   1.815   5.638   7.438  0.2427  0.5429  0.7613
  730MOL0     H98506   2.080   5.631   7.293 -0.4279 -0.1930 -0.1880
  730MOL0     H98507   1.963   5.760   7.293 -0.2516  0.8853  1.7421
  730MOL0     H98508   1.929   5.669   7.088  0.9881  0.0924  0.0932
  730MOL0     H98509   1.818   5.562   7.153 -0.2738  1.4076 -1.0558
  730MOL0     H98510   1.806   5.501   6.915 -0.0989  0.2828 -2.9351
  730MOL0     H98511   1.814   5.362   6.712 -0.3112 -1.0156  1.2062
  730MOL0     H98512   2.287   4.951   6.484 -1.4578  0.4289  2.0601
  730MOL0     H98513   2.370   4.948   6.268  0.5086  0.9772 -2.2407
  730MOL0     H98514   2.092   5.107   5.941 -0.1967  2.3839 -0.7603
  730MOL0     H98515   2.226   5.214   5.922  1.3248 -0.6115  1.3132
  730MOL0     H98516   2.220   5.095   5.735  1.6719  4.4116  2.6573
  730MOL0     H98517   2.346   5.011   5.831 -0.7414 -0.6470  1.0221
  730MOL0     H98518   2.194   4.838   5.906 -1.7506 -0.7867  0.0674
  730MOL0     H98519   2.067   4.904   5.802 -0.3000 -0.4741  0.6196
  730MOL0     H98520   2.325   4.793   5.687 -0.5467 -2.1037  2.3768
  730MOL0     H98521   2.162   4.832   5.608  1.3158  2.6500 -0.0233
  730MOL0     H98522   2.261   4.612   5.796 -0.8701  0.7602  1.3320
  730MOL0     H98523   2.200   4.583   5.628 -1.8871 -1.4555  0.1382
  730MOL0     H98524   2.020   4.652   5.868 -0.9310 -1.6082 -0.1211
  730MOL0     H98525   1.973   4.650   5.700 -0.3411 -0.8428 -0.2479
  730MOL0     H98526   2.089   4.389   5.808  2.1179 -1.7663 -3.0252
  730MOL0     H98527   2.054   4.427   5.651  3.4423  2.5112  0.6047
  730MOL0     H98528   1.878   4.325   5.816 -0.0780 -0.2530 -1.3153
  730MOL0     H98529   1.824   4.501   5.831  2.5837  1.8239 -0.3618
  730MOL0     H98530   2.101   5.268   6.147  3.5343  1.5173  1.1170
  730MOL0     H98531   2.040   5.297   6.379  1.8140  0.6614  2.3057
  730MOL0     H98532   2.201   5.212   6.802  1.8945  1.2035  1.6559
  730MOL0     H98533   2.194   5.323   7.023 -0.5596  0.9346  0.6963
  730MOL0     H98534   1.342   6.087   8.531 -1.5882  0.5053 -0.7858
  730MOL0     H98535   1.108   6.062   8.608  0.1778  0.9976 -1.4288
  730MOL0     H98536   0.763   5.787   8.617 -0.9241  0.1800 -0.6144
  730MOL0     H98537   0.505   5.803   8.655 -1.6367  1.6329  1.5468
  730MOL0     H98538   0.261   5.922   8.788  0.2944 -2.9873  0.0365
  730MOL0     H98539   0.398   6.017   8.848  0.3018  0.5473  2.6294
  730MOL0     H98540   0.181   5.902   9.029  0.9359 -0.8144 -1.3960
  730MOL0     H98541   0.163   6.061   8.960 -0.6063 -0.7339 -3.0570
  730MOL0     H98542   0.357   6.138   9.099  0.4618  0.4517  1.4528
  730MOL0     H98543   0.406   5.966   9.141  0.9946  0.5185  0.5643
  730MOL0     H98544   0.159   6.129   9.217 -1.0692 -1.5202  0.3498
  730MOL0     H98545   0.170   5.959   9.250 -0.7621 -0.8574  0.2756
  730MOL0     H98546   0.442   6.069   9.545 -1.1081 -0.1843  1.3612
  730MOL0     H98547   0.580   5.840   9.067  1.0058  0.0909  0.6223
  730MOL0     H98548   0.780   5.873   9.168  0.6582  1.5636  0.8930
  730MOL0     H98549   0.918   5.781   9.096  1.8455  1.5607 -0.9566
  730MOL0     H98550   0.906   5.957   9.077 -0.6070  0.7290  0.9426
  731MOL0     O98551   1.304  10.291   0.273  0.5701  0.1061 -0.1503
  731MOL0     C98552   1.287  10.325   0.390 -0.1311 -0.6241  0.0704
  731MOL0     O98553   1.163  10.328   0.455 -0.2052  0.7209  0.4934
  731MOL0     C98554   1.046  10.285   0.397 -0.5740 -1.4481 -0.5204
  731MOL0     C98555   1.001  10.312   0.274  0.9392  0.0037 -0.1901
  731MOL0     C98556   0.873  10.253   0.237 -0.3691  0.3532  0.2851
  731MOL0     C98557   0.795  10.169   0.315 -0.5149 -0.0598  0.2212
  731MOL0     O98558   0.665  10.131   0.292 -1.1184 -0.5418 -0.0932
  731MOL0     C98559   0.609  10.151   0.164 -0.1453  0.0280 -0.8613
  731MOL0     C98560   0.545  10.284   0.147  0.3154 -0.1102  0.8193
  731MOL0     C98561   0.438  10.308   0.034  0.5556  0.5874 -0.4234
  731MOL0     C98562   0.472  10.284  -0.112 -0.1352 -0.1780  0.0657
  731MOL0     C98563   0.360  10.308  -0.215  1.4981  0.4289  0.9199
  731MOL0     C98564   0.253  10.188  -0.223 -0.0037 -0.4489  0.9031
  731MOL0     C98565   0.158  10.211  -0.343  0.1382 -1.3014 -0.7074
  731MOL0     C98566   0.055  10.329  -0.330  0.6111  0.3259 -0.1649
  731MOL0     N98567  -0.014  10.311  -0.205  0.2186  0.0269  0.2814
  731MOL0     C98568  -0.121  10.224  -0.190 -1.0707  0.2720  0.0154
  731MOL0     C98569  -0.162  10.261  -0.065 -0.0346  0.4477 -0.1129
  731MOL0     C98570  -0.281  10.176   0.006  0.0140 -0.0654  0.6409
  731MOL0     C98571  -0.206  10.110   0.120  0.7824  0.2768  0.0154
  731MOL0     C98572  -0.301  10.030   0.208 -0.0758 -0.1483 -0.5255
  731MOL0     C98573  -0.226   9.944   0.314  0.9423 -0.0470 -1.1468
  731MOL0     O98574  -0.310   9.848   0.386  0.2323 -0.5375 -0.0998
  731MOL0     C98575  -0.379   9.894   0.495 -0.8842  0.2261  0.6262
  731MOL0     C98576  -0.414   9.795   0.585 -0.6311  0.3268  0.0476
  731MOL0     C98577  -0.497   9.823   0.688  0.7196 -0.0076 -0.4051
  731MOL0     C98578  -0.536   9.956   0.708  0.6431 -0.4422 -0.4346
  731MOL0     C98579  -0.637   9.996   0.823 -1.1611  0.7823  1.0873
  731MOL0     O98580  -0.648   9.914   0.928 -0.6328 -0.3082 -0.3199
  731MOL0     C98581  -0.719   9.958   1.044  0.3321  0.8248 -0.6832
  731MOL0     C98582  -0.861   9.987   1.044  0.5008 -0.4237 -0.2171
  731MOL0     C98583  -0.927  10.047   1.161 -0.1281  0.3897 -0.3004
  731MOL0     C98584  -0.848  10.087   1.271  0.5136  0.4947 -0.3946
  731MOL0     O98585  -0.896  10.156   1.377 -0.7020 -0.2643  0.1063
  731MOL0     C98586  -1.036  10.161   1.410 -0.1083 -0.0253 -0.6947
  731MOL0     C98587  -1.100  10.291   1.355 -0.3300 -0.8866 -1.4870
  731MOL0     C98588  -1.245  10.304   1.397 -0.0050  0.1240 -0.6574
  731MOL0     C98589  -1.303  10.419   1.321  0.2735 -0.3585 -1.2573
  731MOL0     C98590  -1.459  10.429   1.307 -0.2982  0.6709 -0.0887
  731MOL0     C98591  -1.508  10.305   1.224 -0.6172 -0.2536  0.2816
  731MOL0     C98592  -1.657  10.319   1.193 -0.2712 -0.1058  1.0607
  731MOL0     C98593  -1.766  10.307   1.304 -0.9649  0.3263 -0.6350
  731MOL0    Cl98594  -1.915  10.359   1.223 -0.4599 -0.1649  0.5739
  731MOL0     C98595  -0.711  10.065   1.269 -0.7175 -0.3086  0.6906
  731MOL0     C98596  -0.647   9.999   1.162 -0.4005  0.3256 -0.4279
  731MOL0     O98597  -0.685  10.106   0.821  0.1489  0.1670 -0.6044
  731MOL0     C98598  -0.489  10.056   0.625  0.1741 -0.4326  0.2682
  731MOL0     C98599  -0.415  10.026   0.517  0.6088 -0.3067  0.9623
  731MOL0     N98600  -0.076  10.366  -0.011  0.7631 -0.7488  0.0448
  731MOL0     N98601   0.014  10.389  -0.100  0.3467 -0.6233  0.1064
  731MOL0     C98602   0.842  10.155   0.445 -0.0445 -0.1193  0.5279
  731MOL0     C98603   0.956  10.223   0.485 -0.3352  0.2984  0.6024
  731MOL0     C98604   1.399  10.362   0.479 -0.5964 -0.3952  0.0691
  731MOL0     C98605   1.387  10.342   0.613  0.4025 -0.0670  1.3987
  731MOL0     C98606   1.474  10.404   0.694  0.0624  0.4616  0.1633
  731MOL0     C98607   1.587  10.468   0.653  0.4024  0.6019  0.1228
  731MOL0     O98608   1.671  10.508   0.754  0.5693  0.6028  0.3602
  731MOL0     C98609   1.767  10.600   0.712  0.1138 -0.1963  0.6431
  731MOL0     C98610   1.866  10.646   0.817  0.3089  0.8349  0.3832
  731MOL0     C98611   1.800  10.752   0.902  0.9998  0.3242 -0.4261
  731MOL0     C98612   1.888  10.855   0.957  0.6694 -0.3609 -0.8039
  731MOL0     C98613   1.933  10.959   0.860  0.2511 -0.0652  0.9754
  731MOL0     C98614   1.978  11.044   0.774 -0.5552 -0.5431 -0.4287
  731MOL0     C98615   1.609  10.467   0.516  1.4162  0.8497  0.2112
  731MOL0     C98616   1.513  10.422   0.421 -0.3911  0.2998  0.0294
  731MOL0     C98617   1.543  10.441   0.270  0.2706  0.0701 -0.7141
  731MOL0     H98618   1.062  10.374   0.210 -0.7117 -1.0769 -2.9901
  731MOL0     H98619   0.837  10.288   0.141 -0.9875  2.0518  1.0987
  731MOL0     H98620   0.679  10.136   0.082  1.1818 -0.3710  0.3071
  731MOL0     H98621   0.531  10.074   0.159 -1.5054  1.3347 -0.7873
  731MOL0     H98622   0.620  10.364   0.148 -0.4789  0.7457 -1.2950
  731MOL0     H98623   0.483  10.311   0.233 -2.0271  3.1736 -1.6248
  731MOL0     H98624   0.413  10.413   0.046  2.0708  1.1214 -1.5780
  731MOL0     H98625   0.347  10.251   0.053  0.6934 -0.3279 -2.3433
  731MOL0     H98626   0.562  10.341  -0.139  0.4723 -1.8527 -1.6360
  731MOL0     H98627   0.499  10.178  -0.118  1.3861  0.0007  2.2936
  731MOL0     H98628   0.307  10.404  -0.212 -2.8906 -1.6972 -0.1893
  731MOL0     H98629   0.401  10.317  -0.316 -0.7950 -5.2187 -0.9375
  731MOL0     H98630   0.301  10.090  -0.231 -3.5310 -2.3325  0.4529
  731MOL0     H98631   0.192  10.175  -0.133 -0.6642  2.4014  0.9790
  731MOL0     H98632   0.104  10.117  -0.361  0.3623 -0.7595 -5.7095
  731MOL0     H98633   0.213  10.234  -0.435 -0.0300  1.4444 -0.1971
  731MOL0     H98634   0.108  10.424  -0.338  2.0644 -0.5643 -1.4340
  731MOL0     H98635  -0.018  10.336  -0.411 -3.3022 -2.2769  2.7629
  731MOL0     H98636  -0.132  10.143  -0.261  1.0757  0.4766 -0.6267
  731MOL0     H98637  -0.356  10.245   0.044  1.3743  2.8215 -1.5043
  731MOL0     H98638  -0.317  10.113  -0.077  3.5103 -1.1659 -0.2334
  731MOL0     H98639  -0.129  10.041   0.084 -2.6173 -2.4616 -2.8076
  731MOL0     H98640  -0.156  10.192   0.173  1.4336  0.9529 -1.5950
  731MOL0     H98641  -0.350   9.953   0.147 -1.2026  0.9110 -0.9965
  731MOL0     H98642  -0.373  10.104   0.244 -0.4888 -1.0934  0.6366
  731MOL0     H98643  -0.186  10.013   0.389  0.3458 -0.2355 -0.6408
  731MOL0     H98644  -0.144   9.890   0.267  1.6321 -1.0485  1.0528
  731MOL0     H98645  -0.380   9.692   0.583  0.8636  0.7701  0.9291
  731MOL0     H98646  -0.555   9.755   0.750 -0.4514  1.8923  0.6486
  731MOL0     H98647  -0.931   9.968   0.963  1.2486 -1.3488 -0.6669
  731MOL0     H98648  -1.033  10.068   1.157 -0.4851 -0.8483  1.5436
  731MOL0     H98649  -1.081  10.070   1.369  1.6450 -1.3690  0.1986
  731MOL0     H98650  -1.043  10.154   1.519  0.2971  1.9311 -0.5051
  731MOL0     H98651  -1.046  10.374   1.402  0.4897 -2.9063  1.4334
  731MOL0     H98652  -1.094  10.297   1.246 -0.1966  2.4944 -1.4138
  731MOL0     H98653  -1.300  10.210   1.380  0.7747 -0.3743 -0.4891
  731MOL0     H98654  -1.254  10.299   1.506  0.4854 -1.7175 -0.6564
  731MOL0     H98655  -1.275  10.407   1.216  2.9873 -3.5733 -0.3526
  731MOL0     H98656  -1.260  10.505   1.371  2.3677 -1.4398 -1.0777
  731MOL0     H98657  -1.458  10.524   1.254  4.1328  1.9817  1.8765
  731MOL0     H98658  -1.515  10.444   1.400 -5.3690  3.6976 -3.1443
  731MOL0     H98659  -1.452  10.309   1.130  1.1131 -1.0513  1.2263
  731MOL0     H98660  -1.490  10.207   1.269 -1.5519 -1.9329 -2.6919
  731MOL0     H98661  -1.679  10.246   1.114  0.9547 -1.6892  2.1180
  731MOL0     H98662  -1.683  10.415   1.147 -2.0078 -1.8357 -1.8542
  731MOL0     H98663  -1.788  10.206   1.342 -0.7231  0.8421  0.9625
  731MOL0     H98664  -1.743  10.375   1.387 -0.2878  0.9603 -1.3279
  731MOL0     H98665  -0.647  10.093   1.352 -1.4600 -0.3398  1.2934
  731MOL0     H98666  -0.542   9.974   1.159 -1.1459 -3.2149 -0.9201
  731MOL0     H98667  -0.517  10.160   0.632 -2.4941 -0.9761 -1.1314
  731MOL0     H98668  -0.391  10.103   0.444  0.8676 -0.6306  0.6977
  731MOL0     H98669   0.777  10.099   0.511 -0.4065 -1.3692 -0.8471
  731MOL0     H98670   0.993  10.227   0.587 -2.2583  0.9306  1.3273
  731MOL0     H98671   1.297  10.298   0.654  0.7155 -1.5590  0.5511
  731MOL0     H98672   1.455  10.389   0.799  2.2745  1.0206  0.7023
  731MOL0     H98673   1.722  10.687   0.663  1.6325 -0.0575 -0.6031
  731MOL0     H98674   1.822  10.558   0.627 -1.2521 -2.0460  0.6078
  731MOL0     H98675   1.962  10.679   0.777 -1.6241  0.9603 -5.0631
  731MOL0     H98676   1.884  10.559   0.880 -0.4365 -0.5859 -1.2847
  731MOL0     H98677   1.747  10.715   0.991  0.7322  0.5688 -0.4825
  731MOL0     H98678   1.721  10.793   0.839 -0.1356 -2.0322 -0.6308
  731MOL0     H98679   1.846  10.912   1.040  2.0269  0.0803 -0.3921
  731MOL0     H98680   1.981  10.806   0.987 -0.9035 -2.6695  0.6769
  731MOL0     H98681   2.043  11.110   0.719 -0.4602  0.1186  0.4575
  731MOL0     H98682   1.691  10.522   0.470  1.8266  1.8986  2.1081
  731MOL0     H98683   1.448  10.469   0.223 -1.0969 -0.5231  1.5600
  731MOL0     H98684   1.619  10.518   0.255  0.0218  0.4119 -0.2394
  731MOL0     H98685   1.585  10.348   0.230  0.4902 -1.1372  2.0898
  732MOL0     O98686   7.516   7.537   3.458 -0.0572  0.0778  1.5372
  732MOL0     C98687   7.507   7.595   3.565 -1.6980  0.6899  0.4602
  732MOL0     O98688   7.444   7.537   3.675  0.5112 -0.4445  0.6966
  732MOL0     C98689   7.395   7.409   3.681 -1.7364 -0.1920 -0.0956
  732MOL0     C98690   7.440   7.303   3.611 -0.4500  0.3368  0.2140
  732MOL0     C98691   7.396   7.174   3.642  0.6370  0.6317 -0.3184
  732MOL0     C98692   7.302   7.159   3.745 -0.2052  0.4103 -0.4333
  732MOL0     O98693   7.228   7.046   3.772 -0.0091  0.3739  0.5125
  732MOL0     C98694   7.088   7.059   3.740 -0.3072  0.1801  0.5933
  732MOL0     C98695   7.015   6.926   3.730  1.3601 -0.5513 -0.0933
  732MOL0     C98696   7.065   6.844   3.615 -1.0129  0.3031  2.1742
  732MOL0     C98697   6.973   6.725   3.574 -0.7489  0.8803  0.6156
  732MOL0     C98698   6.964   6.642   3.703  0.5320 -0.5582 -0.1504
  732MOL0     C98699   6.868   6.536   3.666 -0.2594  0.2407 -0.1662
  732MOL0     C98700   6.825   6.462   3.787  0.0658  0.2913  0.1598
  732MOL0     C98701   6.757   6.339   3.729  0.0700 -0.3587 -0.5489
  732MOL0     N98702   6.631   6.358   3.655 -0.4704  0.8302 -0.3380
  732MOL0     C98703   6.521   6.397   3.729  1.1491 -0.1749  0.3684
  732MOL0     C98704   6.436   6.434   3.638  0.1125  0.8235 -1.2666
  732MOL0     C98705   6.293   6.447   3.687  0.8449  0.9645  1.0440
  732MOL0     C98706   6.239   6.301   3.715  0.2580  0.5605  0.1070
  732MOL0     C98707   6.229   6.210   3.585 -0.2788 -0.1309 -0.1314
  732MOL0     C98708   6.123   6.243   3.476  0.8388 -0.5988 -0.7570
  732MOL0     O98709   5.984   6.246   3.531 -0.4184  0.0047 -0.1672
  732MOL0     C98710   5.914   6.128   3.519 -1.3634  0.1779  0.0697
  732MOL0     C98711   5.781   6.148   3.572  0.2487 -0.0606  1.3177
  732MOL0     C98712   5.694   6.036   3.569  0.1793  0.0761 -0.2560
  732MOL0     C98713   5.745   5.909   3.526  0.5787  0.5848  0.0283
  732MOL0     C98714   5.651   5.796   3.528  0.0911  0.6999  1.1947
  732MOL0     O98715   5.702   5.676   3.553 -0.0223  0.1325  0.6768
  732MOL0     C98716   5.620   5.564   3.539 -0.8369  0.0977  0.5737
  732MOL0     C98717   5.530   5.534   3.429  0.0950 -0.4729 -0.7123
  732MOL0     C98718   5.459   5.420   3.419 -0.6361 -0.9186  0.3110
  732MOL0     C98719   5.460   5.330   3.522  0.1957 -1.3271 -0.2646
  732MOL0     O98720   5.384   5.215   3.539 -0.6381 -0.0672 -0.0231
  732MOL0     C98721   5.276   5.188   3.449  0.4185 -0.1748 -0.4501
  732MOL0     C98722   5.212   5.058   3.487  0.4371  0.8589  0.1100
  732MOL0     C98723   5.312   4.952   3.497  0.0607 -0.5138  0.1538
  732MOL0     C98724   5.247   4.813   3.484 -1.0100  0.6438  0.4902
  732MOL0     C98725   5.362   4.714   3.504 -0.2082 -0.3046 -0.3984
  732MOL0     C98726   5.320   4.575   3.449 -0.3389  0.6653  0.4147
  732MOL0     C98727   5.437   4.478   3.446 -0.1578  0.7280 -0.0131
  732MOL0     C98728   5.543   4.524   3.334  0.0256  0.1709 -0.8540
  732MOL0    Cl98729   5.653   4.404   3.285  0.2124  0.0268  0.2377
  732MOL0     C98730   5.542   5.363   3.631 -0.2748  0.0833  0.0381
  732MOL0     C98731   5.623   5.480   3.635 -0.3666  0.9059  0.1290
  732MOL0     O98732   5.527   5.820   3.515  0.0369  0.5603  0.0968
  732MOL0     C98733   5.875   5.904   3.471  0.4478  1.0951 -1.1036
  732MOL0     C98734   5.965   6.007   3.477  0.1635  0.1771  0.8406
  732MOL0     N98735   6.489   6.401   3.511  0.1692  0.4292 -0.3742
  732MOL0     N98736   6.615   6.374   3.523 -0.2260 -0.1892 -0.8579
  732MOL0     C98737   7.265   7.270   3.820 -0.7221  0.9717  0.4203
  732MOL0     C98738   7.313   7.389   3.787  0.0522 -0.5464  0.6611
  732MOL0     C98739   7.566   7.730   3.579  0.0369 -0.1072 -0.3761
  732MOL0     C98740   7.562   7.819   3.461  0.0422  0.0568  0.3924
  732MOL0     C98741   7.595   7.949   3.478  0.9292 -0.5033  0.1532
  732MOL0     C98742   7.619   8.003   3.607 -0.1295  0.1827 -0.0130
  732MOL0     O98743   7.628   8.140   3.638  0.3473  0.0876 -0.8435
  732MOL0     C98744   7.717   8.226   3.562  0.5354  0.2947  1.1987
  732MOL0     C98745   7.855   8.176   3.560  1.0483  0.4262 -0.3147
  732MOL0     C98746   7.954   8.271   3.524  0.0226 -0.1695 -0.1789
  732MOL0     C98747   7.967   8.323   3.383  0.4891  0.6537 -0.4019
  732MOL0     C98748   7.849   8.377   3.319 -0.4505  0.1765  0.1825
  732MOL0     C98749   7.757   8.420   3.256  0.3674  0.4105 -0.1112
  732MOL0     C98750   7.622   7.919   3.721 -0.4702 -0.0486 -0.2560
  732MOL0     C98751   7.602   7.782   3.707  0.2302  0.2033 -0.6472
  732MOL0     C98752   7.620   7.702   3.831 -0.2187  0.4213  0.0870
  732MOL0     H98753   7.517   7.312   3.534 -2.3892 -0.5419 -1.9531
  732MOL0     H98754   7.442   7.082   3.608  2.2598  0.5641  1.8307
  732MOL0     H98755   7.036   7.123   3.811 -2.0239  0.4804 -0.8578
  732MOL0     H98756   7.087   7.105   3.641  0.9210 -1.7117 -0.3596
  732MOL0     H98757   6.906   6.926   3.723  1.2010 -2.2268  1.4581
  732MOL0     H98758   7.030   6.861   3.818 -0.9921 -1.1772 -0.0912
  732MOL0     H98759   7.162   6.801   3.641 -0.0092  1.2099  0.2027
  732MOL0     H98760   7.080   6.902   3.523  0.7950 -2.8503  0.2832
  732MOL0     H98761   6.879   6.768   3.536 -0.0996  3.6625  1.9390
  732MOL0     H98762   7.021   6.678   3.488 -0.6091  1.3562  0.4321
  732MOL0     H98763   7.058   6.597   3.735  1.1603  0.9062  0.1534
  732MOL0     H98764   6.916   6.692   3.788 -0.7111  0.1092 -1.1926
  732MOL0     H98765   6.779   6.572   3.613  1.3553 -0.0891 -3.3774
  732MOL0     H98766   6.925   6.474   3.596  3.0864  1.9769  0.7767
  732MOL0     H98767   6.760   6.519   3.854 -0.4953 -0.5510  0.3553
  732MOL0     H98768   6.913   6.435   3.845 -0.6011  1.0180  1.5542
  732MOL0     H98769   6.828   6.292   3.661  1.2464 -0.2591  0.5569
  732MOL0     H98770   6.741   6.259   3.803 -1.7356 -0.9302 -1.4892
  732MOL0     H98771   6.511   6.390   3.837  0.1819 -0.8877  0.2485
  732MOL0     H98772   6.300   6.497   3.785  2.2716  2.8633  0.0475
  732MOL0     H98773   6.236   6.498   3.609  0.2279  0.5761  1.2347
  732MOL0     H98774   6.311   6.258   3.786  2.3418  0.0883 -2.1683
  732MOL0     H98775   6.139   6.303   3.760 -0.3139  0.2998 -1.1068
  732MOL0     H98776   6.211   6.110   3.626  1.1721  0.0306  0.9794
  732MOL0     H98777   6.330   6.201   3.546  0.8811 -0.8144  2.7413
  732MOL0     H98778   6.127   6.178   3.388  2.6719 -1.0651 -0.3648
  732MOL0     H98779   6.134   6.349   3.450 -1.3018  0.7043  2.8861
  732MOL0     H98780   5.740   6.243   3.604 -1.1477  0.9666 -2.9239
  732MOL0     H98781   5.592   6.069   3.583 -0.1955 -1.1514  0.0711
  732MOL0     H98782   5.544   5.608   3.351  1.3644 -0.2401 -0.2925
  732MOL0     H98783   5.396   5.405   3.331  0.2370  1.3490 -0.7918
  732MOL0     H98784   5.197   5.264   3.452 -3.1294 -3.4438 -1.6460
  732MOL0     H98785   5.300   5.185   3.342 -6.0065  2.1062 -2.4718
  732MOL0     H98786   5.164   5.063   3.586  0.7903 -0.1338  0.3389
  732MOL0     H98787   5.133   5.042   3.413  2.8421  3.0516 -3.2075
  732MOL0     H98788   5.380   4.960   3.412  0.7822 -2.0979  0.5280
  732MOL0     H98789   5.373   4.963   3.588 -3.1777  0.2338  2.4034
  732MOL0     H98790   5.203   4.802   3.385 -0.6374  0.5942  0.3298
  732MOL0     H98791   5.161   4.806   3.552 -1.3040  0.3985  0.0945
  732MOL0     H98792   5.377   4.713   3.612 -0.6306 -2.7804 -0.3052
  732MOL0     H98793   5.453   4.751   3.456 -0.7061  0.8539 -0.5079
  732MOL0     H98794   5.238   4.530   3.506 -0.7873 -0.5037 -1.0947
  732MOL0     H98795   5.279   4.595   3.349 -1.6878 -1.1726  0.5590
  732MOL0     H98796   5.405   4.377   3.419  1.1551  0.0940  0.6933
  732MOL0     H98797   5.486   4.474   3.543  1.7278  0.0199 -0.9460
  732MOL0     H98798   5.491   4.565   3.247  0.2320  1.7311 -0.2673
  732MOL0     H98799   5.608   4.601   3.376  2.0430  0.0285 -3.4426
  732MOL0     H98800   5.557   5.283   3.703  1.4101 -1.6100 -2.0355
  732MOL0     H98801   5.698   5.497   3.711  0.4893  0.4598 -0.5954
  732MOL0     H98802   5.890   5.803   3.434 -0.8060  0.7935 -0.8416
  732MOL0     H98803   6.063   5.984   3.437 -0.8470  0.1580 -1.8325
  732MOL0     H98804   7.201   7.259   3.907 -0.2146 -2.3662  0.5101
  732MOL0     H98805   7.275   7.484   3.823  3.0401  0.7798  0.6244
  732MOL0     H98806   7.536   7.781   3.363 -0.3792  0.6525  0.2696
  732MOL0     H98807   7.579   8.021   3.398  0.0890 -1.8517 -0.9322
  732MOL0     H98808   7.715   8.327   3.604  2.0012  0.9731 -0.2774
  732MOL0     H98809   7.684   8.234   3.459 -0.3076  0.0285  1.4394
  732MOL0     H98810   7.844   8.098   3.484 -2.7879  0.0303  0.4627
  732MOL0     H98811   7.887   8.126   3.652  3.2488 -0.7672 -1.6165
  732MOL0     H98812   8.051   8.229   3.550  0.0314 -0.5598 -0.8275
  732MOL0     H98813   7.941   8.356   3.592 -2.7025 -1.3217  0.8904
  732MOL0     H98814   8.050   8.395   3.378 -2.0799  3.9095  0.1391
  732MOL0     H98815   8.013   8.244   3.324  1.6184  1.0810 -0.1321
  732MOL0     H98816   7.666   8.446   3.206 -1.3692 -0.2293  2.5042
  732MOL0     H98817   7.647   7.969   3.815  1.7040  0.0036 -0.7977
  732MOL0     H98818   7.523   7.673   3.873  1.1499 -1.9525  1.9074
  732MOL0     H98819   7.695   7.624   3.815  0.0928  1.1358 -2.3378
  732MOL0     H98820   7.665   7.766   3.908  3.8440 -0.1382 -1.5426
  733MOL0     O98821   2.779   6.857   9.368 -0.0861  0.0743  0.1438
  733MOL0     C98822   2.808   6.754   9.419  0.5056  1.4781  0.2384
  733MOL0     O98823   2.919   6.684   9.386  0.1060 -1.0642  0.4238
  733MOL0     C98824   2.999   6.737   9.284  0.1296 -0.1054 -0.5854
  733MOL0     C98825   3.024   6.660   9.169  0.1161  0.6456 -0.6449
  733MOL0     C98826   3.114   6.701   9.061  0.5027 -0.1594 -0.6438
  733MOL0     C98827   3.182   6.824   9.079  0.2728 -0.3750  0.6354
  733MOL0     O98828   3.253   6.860   8.971  0.1351 -0.1347 -0.4686
  733MOL0     C98829   3.359   6.965   8.969  0.3611 -0.1778  0.0216
  733MOL0     C98830   3.490   6.899   9.024  0.6583 -0.3330  0.2536
  733MOL0     C98831   3.577   6.852   8.901 -0.3915  0.5780 -0.3775
  733MOL0     C98832   3.706   6.761   8.923  0.5568  0.0858 -0.3760
  733MOL0     C98833   3.739   6.685   8.804 -0.9018 -0.2319 -0.2786
  733MOL0     C98834   3.836   6.577   8.844  0.2744  0.6542  0.0940
  733MOL0     C98835   3.889   6.514   8.712  0.9940 -0.5449 -0.0255
  733MOL0     C98836   3.972   6.388   8.737  0.5904  0.2253 -0.4549
  733MOL0     N98837   3.981   6.299   8.619  0.0531 -0.0922 -0.6738
  733MOL0     C98838   4.093   6.261   8.561 -0.0180  0.7455  0.2197
  733MOL0     C98839   4.059   6.158   8.480 -0.4199  0.5749  0.3120
  733MOL0     C98840   4.169   6.085   8.400 -0.0598 -0.4624 -0.3456
  733MOL0     C98841   4.196   5.937   8.435  0.0448  0.4523  0.4609
  733MOL0     C98842   4.278   5.883   8.323  0.7391  0.8318  0.4317
  733MOL0     C98843   4.269   5.733   8.329 -0.2488 -0.2840 -0.0908
  733MOL0     O98844   4.145   5.699   8.279 -0.3984 -0.1512  0.9634
  733MOL0     C98845   4.147   5.575   8.240 -0.4547 -0.0403  0.0461
  733MOL0     C98846   4.111   5.538   8.108 -0.6122  0.9680  1.0170
  733MOL0     C98847   4.101   5.400   8.074  0.7380  0.5829 -1.5261
  733MOL0     C98848   4.127   5.293   8.167 -0.1922 -0.6179 -0.6363
  733MOL0     C98849   4.124   5.160   8.136 -1.0412  0.2067  1.0392
  733MOL0     O98850   4.080   5.135   8.012  1.1076  0.6244  0.4198
  733MOL0     C98851   4.008   5.017   7.987  1.2475 -0.9550  0.1141
  733MOL0     C98852   3.933   4.947   8.081 -0.1182  0.6009 -0.3393
  733MOL0     C98853   3.851   4.842   8.038  1.1471  0.7239  0.1499
  733MOL0     C98854   3.828   4.823   7.900 -0.2734 -0.0926  1.0826
  733MOL0     O98855   3.746   4.736   7.846 -0.7052 -0.6685  0.0300
  733MOL0     C98856   3.642   4.694   7.931  0.1001 -0.4447 -0.0039
  733MOL0     C98857   3.519   4.647   7.849 -0.7807  0.0481  0.6668
  733MOL0     C98858   3.406   4.578   7.939 -0.6052 -0.5603 -0.0511
  733MOL0     C98859   3.299   4.522   7.845  0.1379 -0.1252  0.4140
  733MOL0     C98860   3.205   4.430   7.936 -0.2703 -0.5447 -0.4231
  733MOL0     C98861   3.095   4.362   7.854  0.2340  0.6150 -0.7449
  733MOL0     C98862   3.006   4.275   7.924  1.2634 -0.3186 -0.9547
  733MOL0     C98863   2.901   4.352   7.995 -0.1041 -0.1645 -0.4904
  733MOL0    Cl98864   2.748   4.261   8.006 -0.0074  0.4654  0.0754
  733MOL0     C98865   3.900   4.896   7.806  0.4488 -0.2152 -0.1322
  733MOL0     C98866   3.990   4.995   7.853  0.0774  0.1803  0.4075
  733MOL0     O98867   4.174   5.073   8.206  0.1568  0.2979  0.6342
  733MOL0     C98868   4.171   5.336   8.293  0.0616  0.5028 -0.5870
  733MOL0     C98869   4.178   5.466   8.333 -0.0120 -0.0073 -0.0251
  733MOL0     N98870   3.921   6.146   8.480 -0.2193  0.0836 -0.2667
  733MOL0     N98871   3.874   6.234   8.570  0.4767  0.4796 -0.2503
  733MOL0     C98872   3.158   6.900   9.193  1.4966  0.0131 -0.9479
  733MOL0     C98873   3.069   6.860   9.295 -0.4661 -0.3805  0.0207
  733MOL0     C98874   2.733   6.704   9.545 -0.2769  0.9669  0.2521
  733MOL0     C98875   2.819   6.629   9.625 -0.5398 -0.0199 -0.2204
  733MOL0     C98876   2.778   6.581   9.745  0.0910  0.2131 -0.0035
  733MOL0     C98877   2.645   6.595   9.779  0.6471 -0.0682 -0.9076
  733MOL0     O98878   2.601   6.547   9.898  0.9265 -1.3004  0.1974
  733MOL0     C98879   2.649   6.428   9.949 -0.4278  0.0295  0.0262
  733MOL0     C98880   2.542   6.360  10.043  0.2279 -0.6939 -0.8970
  733MOL0     C98881   2.552   6.207  10.034 -0.0927 -0.1349  0.2346
  733MOL0     C98882   2.438   6.148  10.114 -0.1816  0.5673  0.1076
  733MOL0     C98883   2.312   6.124  10.050 -0.0565  0.4668 -0.2240
  733MOL0     C98884   2.223   6.101   9.974  0.6706  0.4709  0.0774
  733MOL0     C98885   2.562   6.679   9.706 -0.2794  0.7749  0.1669
  733MOL0     C98886   2.606   6.729   9.589  0.2743 -1.1968  0.1385
  733MOL0     C98887   2.521   6.826   9.511  0.3326  0.5078  0.4199
  733MOL0     H98888   2.972   6.564   9.168 -1.3271  1.3997 -0.4728
  733MOL0     H98889   3.130   6.638   8.974  0.2534  3.4121 -3.5101
  733MOL0     H98890   3.352   7.013   8.871 -5.1630 -1.1558 -0.3597
  733MOL0     H98891   3.333   7.051   9.031 -2.3691 -1.0260  0.1654
  733MOL0     H98892   3.469   6.826   9.102  2.8923 -1.0651  0.2564
  733MOL0     H98893   3.552   6.965   9.085  0.1060  1.3324 -0.9079
  733MOL0     H98894   3.619   6.937   8.848 -1.2715  1.8804  0.9094
  733MOL0     H98895   3.505   6.800   8.838 -1.2916  0.1413  0.9538
  733MOL0     H98896   3.788   6.829   8.950  0.6871  1.0877 -2.9532
  733MOL0     H98897   3.679   6.697   9.007 -1.9374 -0.4785 -1.5177
  733MOL0     H98898   3.652   6.638   8.757 -1.3256 -1.1756  1.3730
  733MOL0     H98899   3.783   6.756   8.734  1.6959  0.5418  1.9608
  733MOL0     H98900   3.913   6.597   8.919  1.4352 -1.4401 -0.4556
  733MOL0     H98901   3.766   6.501   8.880 -3.7461  3.0971 -1.7318
  733MOL0     H98902   3.956   6.585   8.662 -0.5643  0.8689 -0.1889
  733MOL0     H98903   3.805   6.482   8.650 -1.5851  0.1257  2.8969
  733MOL0     H98904   4.071   6.416   8.776  1.5857 -0.3667 -2.3985
  733MOL0     H98905   3.924   6.326   8.813 -0.3825  1.2477 -0.2218
  733MOL0     H98906   4.195   6.284   8.588 -0.5944 -1.4756  5.3753
  733MOL0     H98907   4.144   6.090   8.293 -1.3921 -2.6115 -0.1988
  733MOL0     H98908   4.258   6.142   8.425 -1.1585  0.9759  0.4741
  733MOL0     H98909   4.239   5.916   8.533 -1.4550  2.4107  1.6263
  733MOL0     H98910   4.098   5.887   8.438  0.5785 -0.7649 -0.9012
  733MOL0     H98911   4.382   5.909   8.346  1.3335 -0.8228 -0.2720
  733MOL0     H98912   4.255   5.911   8.220 -1.6552  1.5250  1.0940
  733MOL0     H98913   4.291   5.703   8.431 -2.1478  2.0569  1.1053
  733MOL0     H98914   4.348   5.682   8.273  0.3524  3.7263 -3.3423
  733MOL0     H98915   4.094   5.618   8.037  0.6656 -0.0869 -0.5537
  733MOL0     H98916   4.080   5.383   7.969 -2.6323 -0.8854 -0.7255
  733MOL0     H98917   3.947   4.956   8.188  1.6388  0.2848 -0.5112
  733MOL0     H98918   3.808   4.773   8.110  3.4759 -3.5256 -2.0967
  733MOL0     H98919   3.669   4.615   8.001 -1.1599 -1.4747 -0.6518
  733MOL0     H98920   3.606   4.780   7.989 -0.9960  1.3484 -3.0407
  733MOL0     H98921   3.471   4.725   7.790  0.6593  0.3596 -0.1192
  733MOL0     H98922   3.560   4.578   7.775 -0.2512  0.6858  0.3531
  733MOL0     H98923   3.448   4.493   7.992  0.5177 -0.1812 -0.3178
  733MOL0     H98924   3.358   4.646   8.011  1.4274 -1.7003  2.5516
  733MOL0     H98925   3.345   4.460   7.768  0.7326  3.2609 -2.2187
  733MOL0     H98926   3.255   4.601   7.784  2.2233 -1.5313 -3.2063
  733MOL0     H98927   3.157   4.485   8.018 -3.5177 -4.4465  0.6432
  733MOL0     H98928   3.280   4.357   7.966  4.5082  2.4284 -3.7883
  733MOL0     H98929   3.032   4.427   7.793 -0.0127 -0.1904 -1.3730
  733MOL0     H98930   3.143   4.297   7.780  3.2935  0.2377  1.3849
  733MOL0     H98931   3.062   4.207   7.988  0.0022 -1.2641 -0.8119
  733MOL0     H98932   2.963   4.217   7.841  0.3907 -1.8827  0.5178
  733MOL0     H98933   2.942   4.371   8.094  1.5627  2.9215 -1.6410
  733MOL0     H98934   2.887   4.449   7.948  2.4245 -0.1286 -1.2897
  733MOL0     H98935   3.870   4.868   7.706 -3.4938 -0.4924  0.9613
  733MOL0     H98936   4.047   5.057   7.784  0.8242 -0.3575  0.5254
  733MOL0     H98937   4.196   5.257   8.363 -2.5120  0.2191  0.0888
  733MOL0     H98938   4.201   5.469   8.439 -1.9833 -2.4391  0.5785
  733MOL0     H98939   3.216   6.990   9.209  2.9927 -0.9400 -0.7433
  733MOL0     H98940   3.077   6.929   9.379  4.0643  0.0753 -0.5084
  733MOL0     H98941   2.922   6.617   9.591 -0.3246  2.5992 -0.6944
  733MOL0     H98942   2.849   6.534   9.812 -0.2547  0.8138  0.7981
  733MOL0     H98943   2.746   6.453   9.993  0.3187  0.1045 -1.5829
  733MOL0     H98944   2.660   6.359   9.865 -1.3373  0.7311 -0.6862
  733MOL0     H98945   2.452   6.402   9.997  0.7551  2.6589  0.8457
  733MOL0     H98946   2.551   6.389  10.148  0.3585 -5.4445  0.6722
  733MOL0     H98947   2.645   6.176  10.080  0.2851 -0.8173 -0.9546
  733MOL0     H98948   2.555   6.173   9.930 -1.6001  4.1012 -1.4087
  733MOL0     H98949   2.483   6.050  10.129  1.4506  1.5408  2.1758
  733MOL0     H98950   2.429   6.190  10.215 -1.8362 -0.7804  0.5596
  733MOL0     H98951   2.139   6.073   9.913 -0.1398  3.5071 -0.3554
  733MOL0     H98952   2.465   6.701   9.750  0.4064 -0.2572  2.3743
  733MOL0     H98953   2.502   6.795   9.408  1.3951 -1.2980  0.7283
  733MOL0     H98954   2.423   6.830   9.558 -0.8360 -1.3174 -1.6743
  733MOL0     H98955   2.579   6.919   9.509 -0.0882  0.7693  0.2266
  734MOL0     O98956   1.278   6.969  10.503  0.2728  0.3542 -0.3927
  734MOL0     C98957   1.314   6.860  10.543  0.3171 -0.1286  0.8149
  734MOL0     O98958   1.400   6.777  10.472 -0.3965  0.3377 -0.6689
  734MOL0     C98959   1.408   6.781  10.335 -0.2731  0.6747  0.5448
  734MOL0     C98960   1.404   6.889  10.258 -0.1932 -0.2397  0.2513
  734MOL0     C98961   1.393   6.878  10.118 -0.2298 -0.0364 -0.3367
  734MOL0     C98962   1.381   6.755  10.058 -0.6463  0.3289  0.1498
  734MOL0     O98963   1.381   6.765   9.923 -0.0697  0.2114  0.3312
  734MOL0     C98964   1.395   6.641   9.857 -0.3215  0.0972 -0.1795
  734MOL0     C98965   1.409   6.675   9.714 -0.9548 -1.1030  0.5160
  734MOL0     C98966   1.290   6.755   9.654 -0.4620 -0.0073 -0.9466
  734MOL0     C98967   1.322   6.816   9.522  0.6865 -0.1123  0.2437
  734MOL0     C98968   1.197   6.899   9.471  0.2134 -0.4548  0.9750
  734MOL0     C98969   1.259   6.993   9.363 -0.5022  0.0656  1.0321
  734MOL0     C98970   1.295   6.928   9.221 -0.2228  0.1865  0.1553
  734MOL0     C98971   1.280   7.035   9.106 -0.9896 -0.4646 -0.4528
  734MOL0     N98972   1.299   6.973   8.979 -0.5168  0.2673 -1.0432
  734MOL0     C98973   1.210   6.878   8.928 -0.9418  0.4051 -0.3263
  734MOL0     C98974   1.234   6.892   8.795  0.0615 -0.5171 -1.2248
  734MOL0     C98975   1.167   6.828   8.670  0.0028 -0.2309  1.0404
  734MOL0     C98976   1.062   6.920   8.614 -0.1493  0.6740 -0.5186
  734MOL0     C98977   0.983   6.879   8.489  0.0647  0.3946  0.2944
  734MOL0     C98978   0.930   6.733   8.486 -0.8197  0.3193  0.8628
  734MOL0     O98979   0.826   6.708   8.575  0.7317  0.5465 -0.0599
  734MOL0     C98980   0.772   6.585   8.556  0.6901 -0.0394  0.2380
  734MOL0     C98981   0.786   6.498   8.658 -0.1938  0.4818  0.2607
  734MOL0     C98982   0.699   6.382   8.666 -0.6398 -0.5448 -0.4832
  734MOL0     C98983   0.602   6.357   8.566 -0.4135 -0.2822 -1.1793
  734MOL0     C98984   0.525   6.231   8.567 -0.1156  0.2041  0.3577
  734MOL0     O98985   0.428   6.216   8.476  0.7006 -0.7497 -0.5010
  734MOL0     C98986   0.345   6.104   8.504  0.1271 -0.3647 -0.5185
  734MOL0     C98987   0.352   6.003   8.411  0.7886  0.0520  0.5194
  734MOL0     C98988   0.266   5.891   8.405 -0.2285 -0.5182 -0.8593
  734MOL0     C98989   0.164   5.886   8.494  0.1687  0.0349 -0.5462
  734MOL0     O98990   0.081   5.771   8.495 -0.5753  0.8214  0.5722
  734MOL0     C98991   0.042   5.716   8.625 -0.0354 -0.3215  1.1210
  734MOL0     C98992  -0.110   5.689   8.614 -0.6423 -0.4835  0.2264
  734MOL0     C98993  -0.159   5.616   8.735  0.1843  0.2629 -1.0745
  734MOL0     C98994  -0.312   5.599   8.742  0.1730 -0.2435 -0.2228
  734MOL0     C98995  -0.402   5.575   8.613  0.1795  0.2879 -0.5762
  734MOL0     C98996  -0.550   5.548   8.633  0.6479 -0.0656 -0.3042
  734MOL0     C98997  -0.635   5.663   8.688  0.2757  0.1521  0.0756
  734MOL0     C98998  -0.771   5.613   8.728 -0.1662  0.8607  0.2289
  734MOL0    Cl98999  -0.851   5.542   8.594 -0.1670  0.3433  0.6848
  734MOL0     C99000   0.134   6.002   8.568 -0.4237  0.1430  0.3289
  734MOL0     C99001   0.225   6.105   8.578  0.6245  0.2758 -0.9149
  734MOL0     O99002   0.553   6.150   8.653  0.2656  0.0710  0.1728
  734MOL0     C99003   0.593   6.444   8.458  0.4852 -0.3602 -0.5637
  734MOL0     C99004   0.689   6.554   8.454  0.7238 -0.0854  0.0564
  734MOL0     N99005   1.339   6.980   8.779  0.2715  0.2795 -0.8626
  734MOL0     N99006   1.388   7.016   8.889 -0.2855  0.0136  0.6206
  734MOL0     C99007   1.380   6.638  10.139 -0.2609  0.1705 -0.7671
  734MOL0     C99008   1.405   6.650  10.274  0.3924  0.2345 -0.5055
  734MOL0     C99009   1.283   6.824  10.685  0.5207  0.0431 -0.2348
  734MOL0     C99010   1.384   6.764  10.754  0.2015 -0.5078  0.2486
  734MOL0     C99011   1.376   6.737  10.894 -0.9602  0.4670  0.0963
  734MOL0     C99012   1.268   6.767  10.969 -0.2162  0.2320 -0.2153
  734MOL0     O99013   1.256   6.730  11.100  0.0743  0.2964  0.0349
  734MOL0     C99014   1.202   6.831  11.184  0.9445 -0.3641 -0.7419
  734MOL0     C99015   1.293   6.845  11.311  0.3675  0.9210  0.0445
  734MOL0     C99016   1.217   6.925  11.420 -1.5425  0.8292  0.1818
  734MOL0     C99017   1.300   6.957  11.542  0.0527 -0.0396 -1.1708
  734MOL0     C99018   1.202   7.015  11.646 -0.3760 -0.3442 -0.6271
  734MOL0     C99019   1.119   7.040  11.722  0.9830 -0.8912 -0.2859
  734MOL0     C99020   1.162   6.821  10.897 -0.8320  0.4243 -0.5623
  734MOL0     C99021   1.170   6.857  10.759 -0.4339 -0.4543  0.0188
  734MOL0     C99022   1.051   6.913  10.693 -0.8246  0.4183  0.1297
  734MOL0     H99023   1.395   6.985  10.308  0.3622 -1.3635  2.6535
  734MOL0     H99024   1.387   6.961  10.048 -0.9085  0.7876  0.6850
  734MOL0     H99025   1.488   6.592   9.885 -0.5982  0.2187  0.9972
  734MOL0     H99026   1.310   6.572   9.866  0.0478 -0.1026  2.4530
  734MOL0     H99027   1.433   6.585   9.656  1.4751 -1.5967  2.1796
  734MOL0     H99028   1.498   6.735   9.697 -0.0204 -2.1726  1.4649
  734MOL0     H99029   1.260   6.833   9.725 -1.1325  2.3265 -3.5875
  734MOL0     H99030   1.206   6.688   9.632 -1.0620  0.8103 -1.2216
  734MOL0     H99031   1.424   6.855   9.520  1.2341 -1.4400 -2.7176
  734MOL0     H99032   1.327   6.739   9.444 -0.7270  0.0122  0.0046
  734MOL0     H99033   1.123   6.840   9.417  1.3199 -2.6148  1.6799
  734MOL0     H99034   1.156   6.966   9.547 -1.6340  1.8531 -1.8378
  734MOL0     H99035   1.185   7.070   9.338  0.2179  0.3036 -0.4489
  734MOL0     H99036   1.339   7.044   9.418 -0.7373  0.5197  0.9539
  734MOL0     H99037   1.246   6.831   9.212  3.2812 -1.6921 -0.8460
  734MOL0     H99038   1.404   6.914   9.212  0.5102  4.1461  1.1094
  734MOL0     H99039   1.186   7.089   9.122 -0.1531  0.7068  0.8086
  734MOL0     H99040   1.364   7.105   9.118  0.0790 -1.2320 -2.7862
  734MOL0     H99041   1.133   6.819   8.977 -2.8757  1.6661 -1.6802
  734MOL0     H99042   1.256   6.819   8.607 -1.1170  1.9280 -1.0258
  734MOL0     H99043   1.127   6.735   8.712  0.5494 -0.4205  1.1542
  734MOL0     H99044   0.993   6.946   8.695  1.0731  0.3701  0.6603
  734MOL0     H99045   1.127   7.005   8.594  1.2527 -0.4803 -1.1010
  734MOL0     H99046   1.035   6.910   8.397 -1.2593 -0.3816 -0.7613
  734MOL0     H99047   0.897   6.945   8.499  0.5309  1.0304  0.1768
  734MOL0     H99048   1.015   6.674   8.520 -1.5380  0.2394  2.5946
  734MOL0     H99049   0.910   6.701   8.383  0.9044  0.5961  0.4041
  734MOL0     H99050   0.836   6.525   8.751 -2.5271 -1.5589  2.2664
  734MOL0     H99051   0.703   6.322   8.756  1.3490  3.1044  2.0973
  734MOL0     H99052   0.426   6.014   8.333  1.0063 -1.0879  0.5495
  734MOL0     H99053   0.261   5.804   8.341 -1.1997 -1.3968  0.3625
  734MOL0     H99054   0.092   5.619   8.632  1.2859 -0.1217 -3.0784
  734MOL0     H99055   0.076   5.773   8.712  1.7102  1.3228 -0.5348
  734MOL0     H99056  -0.161   5.783   8.592  1.4176  0.5349 -0.4163
  734MOL0     H99057  -0.137   5.626   8.528 -1.0545 -1.1595  0.8428
  734MOL0     H99058  -0.115   5.516   8.736 -2.0667 -0.7671 -1.1729
  734MOL0     H99059  -0.122   5.683   8.814  0.7247 -1.4796  0.2160
  734MOL0     H99060  -0.356   5.690   8.784 -1.0221 -0.7515 -0.3271
  734MOL0     H99061  -0.333   5.510   8.803  1.7556 -0.0362  0.6809
  734MOL0     H99062  -0.353   5.486   8.573 -1.5877 -1.5215  1.0345
  734MOL0     H99063  -0.387   5.659   8.545 -2.2203  2.2086  1.0854
  734MOL0     H99064  -0.584   5.510   8.537  0.6479 -4.3448  1.1845
  734MOL0     H99065  -0.563   5.461   8.698 -2.9941  0.5338 -0.0111
  734MOL0     H99066  -0.650   5.735   8.606  1.6044 -0.4600 -0.7489
  734MOL0     H99067  -0.574   5.701   8.770  1.3418  1.7735 -1.3788
  734MOL0     H99068  -0.755   5.532   8.799 -2.8534 -0.0542 -0.0826
  734MOL0     H99069  -0.831   5.688   8.780 -4.4233 -0.7251 -1.9321
  734MOL0     H99070   0.036   5.999   8.614 -0.3838 -0.7024  0.3777
  734MOL0     H99071   0.185   6.191   8.630 -1.0944 -3.0586  4.0823
  734MOL0     H99072   0.528   6.435   8.372 -0.8568  0.1827  0.3540
  734MOL0     H99073   0.671   6.627   8.375 -3.1907 -3.1073 -2.2741
  734MOL0     H99074   1.367   6.535  10.107  1.6127 -0.7026  1.0679
  734MOL0     H99075   1.415   6.562  10.336  3.2417  2.0949  1.9769
  734MOL0     H99076   1.472   6.746  10.692 -1.4756  0.2213 -2.5063
  734MOL0     H99077   1.458   6.683  10.941 -0.0912  0.6579 -1.1594
  734MOL0     H99078   1.102   6.799  11.215  0.3726 -0.3108 -2.3907
  734MOL0     H99079   1.188   6.921  11.124  1.5846  0.7323  0.6995
  734MOL0     H99080   1.388   6.893  11.286  0.9380  2.8008  4.7306
  734MOL0     H99081   1.314   6.744  11.346  0.0061  0.4234 -1.1138
  734MOL0     H99082   1.118   6.886  11.446 -1.8567  0.4767 -1.4020
  734MOL0     H99083   1.200   7.019  11.366 -0.5812  2.2507  2.2475
  734MOL0     H99084   1.346   6.867  11.583 -0.2529  0.7749  1.1069
  734MOL0     H99085   1.377   7.034  11.532 -1.9018  2.0466 -1.1405
  734MOL0     H99086   1.052   7.039  11.806 -0.9000  0.7304 -1.6788
  734MOL0     H99087   1.066   6.849  10.941 -2.5328 -0.8688 -3.1988
  734MOL0     H99088   1.027   6.861  10.599 -1.0298  0.4878  0.1432
  734MOL0     H99089   0.958   6.912  10.750 -0.8031  2.7317  0.3089
  734MOL0     H99090   1.086   7.009  10.653  0.3785 -1.6447 -4.5321
  735MOL0     O99091   5.381   1.339   1.348  0.2079  0.2683 -0.2652
  735MOL0     C99092   5.261   1.302   1.361 -0.0763 -1.4126 -0.1287
  735MOL0     O99093   5.159   1.393   1.380 -0.3809  0.2468  0.8006
  735MOL0     C99094   5.192   1.523   1.367 -0.4484 -0.1303  0.0627
  735MOL0     C99095   5.281   1.590   1.458  0.5496  0.7060 -0.2662
  735MOL0     C99096   5.326   1.716   1.443  0.1418 -0.1906  0.5181
  735MOL0     C99097   5.274   1.800   1.336 -0.2792  1.0987  0.2348
  735MOL0     O99098   5.325   1.924   1.314 -0.2862 -0.5358 -0.2736
  735MOL0     C99099   5.248   2.040   1.289 -0.0698 -0.3117  0.5892
  735MOL0     C99100   5.332   2.170   1.308  0.2867 -0.9972  0.6278
  735MOL0     C99101   5.262   2.285   1.228  0.4860 -0.6955  0.1041
  735MOL0     C99102   5.348   2.410   1.229  0.2359 -0.3304  0.6288
  735MOL0     C99103   5.297   2.528   1.156  0.4977 -0.4302  1.1035
  735MOL0     C99104   5.396   2.643   1.147 -0.2368  0.0245  0.2108
  735MOL0     C99105   5.321   2.768   1.100  0.4739 -0.0899  0.0558
  735MOL0     C99106   5.410   2.884   1.110  0.7065 -0.3787 -0.2294
  735MOL0     N99107   5.346   2.996   1.042  0.1690 -0.1079 -0.7172
  735MOL0     C99108   5.408   3.098   0.971 -0.5593  0.5518 -1.2557
  735MOL0     C99109   5.326   3.199   0.958  0.4354  0.6590  0.2929
  735MOL0     C99110   5.351   3.339   0.916  0.1693  0.3602 -0.1506
  735MOL0     C99111   5.390   3.341   0.765 -0.3599 -0.3481 -0.4606
  735MOL0     C99112   5.354   3.480   0.703 -0.0185  0.6975 -0.8365
  735MOL0     C99113   5.442   3.579   0.772  0.1048  1.0083  0.3052
  735MOL0     O99114   5.410   3.711   0.720  0.1023 -0.2391  0.2344
  735MOL0     C99115   5.417   3.831   0.795 -0.5280  0.5221 -0.4901
  735MOL0     C99116   5.358   3.944   0.742  0.1355 -0.6754  0.1681
  735MOL0     C99117   5.380   4.068   0.803  0.8054  0.8688  0.6879
  735MOL0     C99118   5.472   4.086   0.904  0.2157  0.2324  0.3161
  735MOL0     C99119   5.502   4.221   0.965 -0.3509  1.0170  0.0737
  735MOL0     O99120   5.422   4.325   0.919 -0.4200  0.4787 -1.0249
  735MOL0     C99121   5.423   4.448   0.970  0.2960 -0.2869  0.4914
  735MOL0     C99122   5.536   4.509   1.023 -0.1126 -0.7442 -1.0769
  735MOL0     C99123   5.533   4.646   1.074  0.1982 -0.2794 -0.3936
  735MOL0     C99124   5.413   4.721   1.060  0.3300  0.3316 -0.0705
  735MOL0     O99125   5.379   4.844   1.122  0.5902  0.3938 -0.2961
  735MOL0     C99126   5.451   4.888   1.235  0.6736  0.1285 -0.1429
  735MOL0     C99127   5.359   4.951   1.344 -0.9886 -0.0433 -0.3966
  735MOL0     C99128   5.249   5.045   1.284  0.0850  0.6154 -0.4174
  735MOL0     C99129   5.192   5.138   1.394 -0.2109  0.6677 -1.4611
  735MOL0     C99130   5.071   5.061   1.460 -0.2546  1.6021  0.6381
  735MOL0     C99131   4.994   5.144   1.564  0.0355 -0.8425  0.6468
  735MOL0     C99132   4.892   5.246   1.516  0.7269  0.8335 -0.0270
  735MOL0     C99133   4.815   5.308   1.639 -0.2960  0.0864  0.5838
  735MOL0    Cl99134   4.715   5.460   1.605  0.0165 -0.0439 -0.2524
  735MOL0     C99135   5.312   4.658   0.989  0.0091 -0.4078  0.6925
  735MOL0     C99136   5.316   4.526   0.946 -0.5424 -0.8805  0.1992
  735MOL0     O99137   5.590   4.220   1.052 -0.2632 -0.2833  0.7605
  735MOL0     C99138   5.537   3.967   0.957  0.2247  0.3794  0.5916
  735MOL0     C99139   5.507   3.841   0.908  1.2749 -0.0814 -0.1436
  735MOL0     N99140   5.207   3.163   1.007 -0.2713 -0.6799 -0.5779
  735MOL0     N99141   5.216   3.045   1.052  0.0558 -0.0956  0.7238
  735MOL0     C99142   5.175   1.739   1.255  0.5192  0.0228  0.0735
  735MOL0     C99143   5.130   1.604   1.268 -0.5134  0.2172  0.1633
  735MOL0     C99144   5.231   1.165   1.394  0.6346  0.0851 -0.2938
  735MOL0     C99145   5.131   1.140   1.488 -1.1816  0.9829 -0.2796
  735MOL0     C99146   5.084   1.016   1.523  0.6071 -0.4996  0.2241
  735MOL0     C99147   5.158   0.902   1.488  0.1582  0.8819 -0.1363
  735MOL0     O99148   5.130   0.770   1.522  0.3099 -0.7075  0.5616
  735MOL0     C99149   5.057   0.748   1.644 -0.1977 -0.9084  0.5754
  735MOL0     C99150   4.915   0.718   1.609  0.9652  0.2286  0.3018
  735MOL0     C99151   4.901   0.626   1.485 -0.1297  1.1139 -1.2383
  735MOL0     C99152   4.751   0.623   1.449  0.6549 -0.0894 -0.7615
  735MOL0     C99153   4.727   0.549   1.329 -0.4493 -0.0221 -0.5874
  735MOL0     C99154   4.715   0.496   1.225 -0.2224  1.1682  1.0604
  735MOL0     C99155   5.261   0.922   1.402 -0.6441  0.1412 -0.6591
  735MOL0     C99156   5.297   1.050   1.347  0.1094  0.1685  1.0759
  735MOL0     C99157   5.406   1.049   1.240 -0.0005 -0.7547 -0.6331
  735MOL0     H99158   5.325   1.525   1.533 -0.8834 -1.9048 -1.5654
  735MOL0     H99159   5.399   1.756   1.513 -1.5527 -0.9034  2.8163
  735MOL0     H99160   5.213   2.020   1.187  0.5537  1.0035  0.0936
  735MOL0     H99161   5.155   2.038   1.347 -1.6029 -1.0472 -1.7567
  735MOL0     H99162   5.424   2.150   1.253 -0.1429 -1.8931  0.2241
  735MOL0     H99163   5.353   2.200   1.411  0.9610  2.2040 -0.3120
  735MOL0     H99164   5.162   2.298   1.270 -0.2226 -2.2708 -1.0428
  735MOL0     H99165   5.242   2.256   1.125 -2.4218  1.3355 -0.0275
  735MOL0     H99166   5.375   2.432   1.332  0.8834 -1.3797  0.6989
  735MOL0     H99167   5.439   2.376   1.179  0.2903  1.0676 -0.2679
  735MOL0     H99168   5.273   2.492   1.055 -0.2688  1.2377  0.6455
  735MOL0     H99169   5.210   2.581   1.196  0.8653  0.2815  0.9919
  735MOL0     H99170   5.440   2.661   1.245  0.5124 -0.5492 -0.0192
  735MOL0     H99171   5.481   2.610   1.087  0.9110  0.3517  1.6042
  735MOL0     H99172   5.231   2.792   1.158  1.9088  5.8299  0.4456
  735MOL0     H99173   5.295   2.748   0.996  0.1598 -0.7589  0.2545
  735MOL0     H99174   5.419   2.920   1.213  2.0151  2.3903 -1.1916
  735MOL0     H99175   5.510   2.854   1.076  0.8713  1.6994 -1.8101
  735MOL0     H99176   5.516   3.101   0.960 -0.4845  1.3738 -0.3954
  735MOL0     H99177   5.257   3.385   0.948 -0.8102 -2.7727  1.8960
  735MOL0     H99178   5.430   3.384   0.977 -0.1605  3.4269 -1.7310
  735MOL0     H99179   5.494   3.310   0.757 -0.1276 -0.1810  1.4489
  735MOL0     H99180   5.320   3.275   0.713 -1.6043  0.0908  0.5904
  735MOL0     H99181   5.248   3.496   0.722 -0.0392 -0.0313 -0.2739
  735MOL0     H99182   5.375   3.484   0.596  2.3425 -1.2513 -0.5525
  735MOL0     H99183   5.549   3.562   0.759  0.5947  2.7623  1.6210
  735MOL0     H99184   5.429   3.593   0.880 -1.5976  1.3432  0.0908
  735MOL0     H99185   5.286   3.922   0.664  0.1346  3.8796 -1.4113
  735MOL0     H99186   5.340   4.153   0.749  3.0124  1.3687 -0.2705
  735MOL0     H99187   5.633   4.463   1.037  0.3974  0.1398 -1.6153
  735MOL0     H99188   5.618   4.699   1.116 -1.3441 -0.1034  2.7743
  735MOL0     H99189   5.504   4.801   1.275 -0.2881 -1.2958 -1.8572
  735MOL0     H99190   5.529   4.956   1.199  1.7918 -0.5817  0.8411
  735MOL0     H99191   5.319   4.874   1.410  4.3163 -0.9749  2.2960
  735MOL0     H99192   5.426   5.014   1.403 -1.4329 -0.5414  0.6806
  735MOL0     H99193   5.300   5.119   1.221  2.7579  2.7965  3.8075
  735MOL0     H99194   5.177   4.993   1.220 -0.0537 -1.0886  1.0358
  735MOL0     H99195   5.153   5.220   1.332 -2.0935  1.0148  0.1042
  735MOL0     H99196   5.261   5.176   1.469  0.8249 -2.4703 -0.6740
  735MOL0     H99197   5.096   4.961   1.496 -1.7375  2.2379  3.8283
  735MOL0     H99198   4.999   5.051   1.379 -1.2029 -2.0445  1.7527
  735MOL0     H99199   4.938   5.081   1.634 -1.1027  0.3132  0.8166
  735MOL0     H99200   5.068   5.203   1.620  0.3200 -0.1125 -0.4720
  735MOL0     H99201   4.818   5.197   1.452 -0.1029  0.5829  1.0756
  735MOL0     H99202   4.929   5.333   1.462 -0.5168  0.6355 -1.2674
  735MOL0     H99203   4.756   5.222   1.674 -1.2852 -0.6393 -2.5234
  735MOL0     H99204   4.890   5.328   1.716 -0.9518 -0.8283  1.4928
  735MOL0     H99205   5.219   4.713   0.981 -0.1204 -0.7608 -0.2986
  735MOL0     H99206   5.236   4.481   0.889 -0.0492 -0.7238 -0.6323
  735MOL0     H99207   5.602   3.980   1.043 -0.4673 -0.2297  1.2203
  735MOL0     H99208   5.561   3.755   0.945  0.9757 -1.2286 -2.2274
  735MOL0     H99209   5.112   1.794   1.186  3.3036 -0.4026 -3.0499
  735MOL0     H99210   5.051   1.558   1.210 -1.4285  1.1944  0.5815
  735MOL0     H99211   5.091   1.224   1.544 -5.3239 -1.4971  0.9497
  735MOL0     H99212   4.992   1.010   1.580  2.3068  1.0070  3.3387
  735MOL0     H99213   5.065   0.828   1.719  0.3386  1.3959 -1.7952
  735MOL0     H99214   5.084   0.651   1.687 -0.7725 -2.7603 -2.9004
  735MOL0     H99215   4.857   0.810   1.600  1.1665  0.9945  4.6587
  735MOL0     H99216   4.879   0.673   1.702 -0.9556  3.7411  1.4434
  735MOL0     H99217   4.943   0.526   1.498 -2.4270  0.2458 -0.0099
  735MOL0     H99218   4.959   0.664   1.400  1.6736 -3.1346 -2.1501
  735MOL0     H99219   4.691   0.577   1.528  1.7211 -2.3882 -1.2133
  735MOL0     H99220   4.717   0.724   1.426  1.0530 -0.0288 -1.0965
  735MOL0     H99221   4.723   0.445   1.131 -2.4165  5.2628 -1.6412
  735MOL0     H99222   5.323   0.835   1.382  0.2236  1.2340 -3.0409
  735MOL0     H99223   5.421   0.945   1.212  0.7800 -1.5210  2.2791
  735MOL0     H99224   5.371   1.103   1.151 -2.1123 -0.3062  0.4012
  735MOL0     H99225   5.497   1.105   1.263 -0.5366  0.4769 -1.3987
  736MOL0     O99226   8.599   2.320   2.320  0.8516  0.4131 -0.7673
  736MOL0     C99227   8.486   2.355   2.283 -0.4799 -0.5027  0.5379
  736MOL0     O99228   8.466   2.443   2.188  1.0885  0.4540 -0.0031
  736MOL0     C99229   8.571   2.505   2.126 -0.4437  0.4207  0.5372
  736MOL0     C99230   8.668   2.429   2.056 -1.0967 -0.3472 -0.3349
  736MOL0     C99231   8.789   2.488   2.010  0.6509  0.7450  0.1614
  736MOL0     C99232   8.815   2.623   2.026  0.0340  0.6662 -0.6235
  736MOL0     O99233   8.937   2.671   1.989 -0.0103  0.2957 -0.9792
  736MOL0     C99234   8.981   2.795   2.035  0.7762  0.3424 -0.1492
  736MOL0     C99235   9.003   2.800   2.189  0.3929 -1.1011  0.9331
  736MOL0     C99236   9.084   2.675   2.229 -0.9427 -0.0412  0.1297
  736MOL0     C99237   9.201   2.653   2.140  0.2188 -0.4022 -0.8217
  736MOL0     C99238   9.313   2.564   2.202  0.4332 -0.1935 -0.1246
  736MOL0     C99239   9.267   2.415   2.229  0.0849  0.0335 -0.0445
  736MOL0     C99240   9.334   2.357   2.366  0.2187  0.5732 -0.2824
  736MOL0     C99241   9.315   2.212   2.403  0.9839  1.3793  0.1521
  736MOL0     N99242   9.359   2.189   2.541 -0.4214  0.2195  1.1078
  736MOL0     C99243   9.466   2.112   2.590 -0.0301 -0.9867 -0.5841
  736MOL0     C99244   9.434   2.090   2.718  0.5528  0.0807 -0.4384
  736MOL0     C99245   9.520   2.015   2.818 -0.0172 -0.9619 -0.4607
  736MOL0     C99246   9.543   2.104   2.941 -0.4512 -0.7204  0.1925
  736MOL0     C99247   9.624   2.025   3.055  0.1845  1.2563 -0.2234
  736MOL0     C99248   9.769   2.014   3.031 -0.3729  1.2294  1.9731
  736MOL0     O99249   9.801   1.889   2.949  0.0535 -0.3017 -0.1883
  736MOL0     C99250   9.929   1.851   2.946 -0.0209 -0.2133 -0.3650
  736MOL0     C99251  10.041   1.941   2.953  0.4239 -0.6326 -0.6510
  736MOL0     C99252  10.167   1.889   2.948 -0.1563  0.6271 -0.0479
  736MOL0     C99253  10.196   1.762   2.909  0.3886 -0.8216  0.1743
  736MOL0     C99254  10.343   1.734   2.886  0.8788  0.1471 -1.2593
  736MOL0     O99255  10.368   1.603   2.896  0.4068 -0.8196  0.3155
  736MOL0     C99256  10.482   1.558   2.829 -0.2079 -1.2289  0.0344
  736MOL0     C99257  10.488   1.557   2.693  0.0990  0.1931  0.3780
  736MOL0     C99258  10.599   1.503   2.625  0.2802 -0.4736  0.1651
  736MOL0     C99259  10.707   1.455   2.697 -0.7808 -0.0311  0.7272
  736MOL0     O99260  10.826   1.409   2.629  0.4787 -0.1582  0.5752
  736MOL0     C99261  10.799   1.353   2.501 -0.2882 -0.2721 -0.9145
  736MOL0     C99262  10.932   1.306   2.442  0.1756 -0.3706  1.2798
  736MOL0     C99263  11.050   1.417   2.434  0.0497  0.8241 -0.0851
  736MOL0     C99264  11.159   1.353   2.331 -0.3454 -0.2300  0.4415
  736MOL0     C99265  11.270   1.447   2.305 -0.9592 -0.7185 -0.1147
  736MOL0     C99266  11.371   1.463   2.421  0.0751  0.7588  0.3366
  736MOL0     C99267  11.504   1.543   2.387  0.6464  0.3547 -0.6876
  736MOL0     C99268  11.478   1.697   2.362 -0.8277 -0.8709 -0.0208
  736MOL0    Cl99269  11.393   1.737   2.207 -0.1167 -0.0992 -0.3731
  736MOL0     C99270  10.703   1.469   2.833 -0.3536  0.2300 -0.4132
  736MOL0     C99271  10.590   1.511   2.901 -0.6900  0.3540 -0.0574
  736MOL0     O99272  10.431   1.821   2.879  0.5098  0.3723 -0.5688
  736MOL0     C99273  10.093   1.670   2.901 -0.3457 -0.3981 -0.2393
  736MOL0     C99274   9.955   1.722   2.907  0.0188  0.1616 -1.0707
  736MOL0     N99275   9.308   2.143   2.738  0.2522  1.3514 -0.2950
  736MOL0     N99276   9.261   2.213   2.638 -0.3433  0.2183 -0.4556
  736MOL0     C99277   8.720   2.703   2.093 -0.0200 -0.1478  0.5933
  736MOL0     C99278   8.596   2.642   2.143 -0.7320 -0.5905  0.4500
  736MOL0     C99279   8.366   2.318   2.375 -0.4164  1.2564 -0.4769
  736MOL0     C99280   8.265   2.408   2.397 -0.0167  0.5532  0.9835
  736MOL0     C99281   8.154   2.372   2.470 -0.2808 -0.2182 -0.2503
  736MOL0     C99282   8.142   2.247   2.527 -0.2905  0.0751 -1.4482
  736MOL0     O99283   8.035   2.209   2.597 -0.2056  0.1657 -0.7272
  736MOL0     C99284   7.987   2.074   2.564  0.3178  0.2043 -0.9749
  736MOL0     C99285   7.834   2.085   2.596 -0.7476  0.0710  1.1793
  736MOL0     C99286   7.809   2.129   2.742  0.5919  0.2251 -0.1520
  736MOL0     C99287   7.660   2.107   2.770 -1.1728  1.1160 -0.5708
  736MOL0     C99288   7.567   2.164   2.676 -1.0205  0.3598  0.3814
  736MOL0     C99289   7.478   2.200   2.603 -0.1367 -0.1138 -1.2400
  736MOL0     C99290   8.249   2.163   2.512  0.0339  0.5407  0.3701
  736MOL0     C99291   8.368   2.198   2.453  0.2161  0.7660  0.8005
  736MOL0     C99292   8.477   2.094   2.435 -0.8126  0.5183 -0.2955
  736MOL0     H99293   8.662   2.321   2.053  1.6890 -0.5607 -2.1831
  736MOL0     H99294   8.862   2.419   1.968  0.6320  1.4479 -1.0841
  736MOL0     H99295   9.070   2.826   1.980  0.2101  3.4527  0.4927
  736MOL0     H99296   8.913   2.875   2.005  1.9275  1.5582  0.3840
  736MOL0     H99297   8.915   2.796   2.253  0.0812  2.7451  0.9404
  736MOL0     H99298   9.046   2.900   2.198 -1.4086 -0.2363  0.3560
  736MOL0     H99299   9.018   2.590   2.213 -0.1670 -0.6396  0.0324
  736MOL0     H99300   9.114   2.688   2.333  2.2252  3.2078 -0.9724
  736MOL0     H99301   9.169   2.597   2.052 -2.2749 -3.0419  1.5277
  736MOL0     H99302   9.238   2.749   2.105 -1.4937  0.9245  0.8437
  736MOL0     H99303   9.400   2.567   2.136 -0.6933 -4.8929 -2.2515
  736MOL0     H99304   9.340   2.616   2.295 -0.5854 -1.7075  1.0658
  736MOL0     H99305   9.159   2.398   2.236  0.3537 -1.6255  0.8566
  736MOL0     H99306   9.302   2.349   2.149  1.8907 -1.3159  1.7520
  736MOL0     H99307   9.299   2.413   2.453  0.1300  1.3842 -0.8198
  736MOL0     H99308   9.440   2.374   2.348  0.0808 -0.9377 -3.2111
  736MOL0     H99309   9.209   2.188   2.387  0.7431  0.1858  2.8421
  736MOL0     H99310   9.362   2.149   2.328  1.2284  0.4926  1.0230
  736MOL0     H99311   9.555   2.078   2.537  1.3866 -1.2705  1.8277
  736MOL0     H99312   9.464   1.933   2.863 -1.9870  0.1602 -0.7485
  736MOL0     H99313   9.606   1.964   2.773 -2.6747 -2.5433 -4.3312
  736MOL0     H99314   9.597   2.195   2.913  0.6537 -1.7187 -1.0487
  736MOL0     H99315   9.444   2.131   2.978  0.9448  2.1006  2.2543
  736MOL0     H99316   9.597   1.920   3.062  2.6748  0.6239  1.4207
  736MOL0     H99317   9.609   2.074   3.152  0.1044 -1.0929  1.0082
  736MOL0     H99318   9.825   2.007   3.125  2.9449 -1.4206  0.0659
  736MOL0     H99319   9.798   2.100   2.969 -2.4793 -0.9414 -2.4576
  736MOL0     H99320  10.028   2.046   2.978 -0.2384 -0.8707  0.0407
  736MOL0     H99321  10.251   1.956   2.955 -0.8395  2.0026 -3.2041
  736MOL0     H99322  10.420   1.587   2.614  0.1618  0.8583  0.5715
  736MOL0     H99323  10.602   1.500   2.517  0.4439 -4.0985  0.1669
  736MOL0     H99324  10.731   1.267   2.510  0.5048 -0.6736  2.2148
  736MOL0     H99325  10.767   1.425   2.426 -1.9837  1.7100  1.5385
  736MOL0     H99326  10.971   1.238   2.518  2.3157  1.7772  2.2254
  736MOL0     H99327  10.925   1.259   2.343 -0.2884 -1.0927  1.6474
  736MOL0     H99328  11.004   1.508   2.394  0.4976  0.4911 -1.4072
  736MOL0     H99329  11.098   1.448   2.527  1.6972 -0.8139 -0.3182
  736MOL0     H99330  11.118   1.326   2.233  1.4171  1.6547 -0.9163
  736MOL0     H99331  11.205   1.259   2.362  3.2541  1.5861  1.1474
  736MOL0     H99332  11.232   1.547   2.281  1.8005  1.2295  2.7304
  736MOL0     H99333  11.332   1.410   2.223 -2.4147 -0.5802 -1.3289
  736MOL0     H99334  11.321   1.521   2.500  0.5622 -0.4040  1.5417
  736MOL0     H99335  11.387   1.367   2.472 -1.7814  1.0941  1.6790
  736MOL0     H99336  11.561   1.506   2.301 -0.0928  2.4427 -2.1681
  736MOL0     H99337  11.570   1.531   2.473 -1.0358 -0.0675  0.5990
  736MOL0     H99338  11.426   1.745   2.446  0.7161  2.2367 -0.7209
  736MOL0     H99339  11.568   1.758   2.361 -0.4756 -1.3338 -2.4880
  736MOL0     H99340  10.784   1.448   2.902 -0.3976  2.3162  0.3214
  736MOL0     H99341  10.589   1.497   3.008  1.7994 -0.0337 -0.0278
  736MOL0     H99342  10.114   1.565   2.880 -0.0055 -0.0603 -1.7676
  736MOL0     H99343   9.868   1.658   2.898  1.1572 -1.9498  1.7428
  736MOL0     H99344   8.728   2.811   2.106 -0.1917  0.0634 -0.8637
  736MOL0     H99345   8.523   2.706   2.193 -1.6027 -1.6078  0.5028
  736MOL0     H99346   8.262   2.507   2.352  0.0677  0.5127  0.8891
  736MOL0     H99347   8.066   2.435   2.482  0.2995  0.7546 -0.9502
  736MOL0     H99348   8.029   2.006   2.639  2.0401 -0.2431 -2.2775
  736MOL0     H99349   8.008   2.042   2.461 -2.3956 -1.5540 -1.0851
  736MOL0     H99350   7.805   1.982   2.578 -0.0029  0.1799 -0.9158
  736MOL0     H99351   7.788   2.152   2.522 -2.0149 -1.6700  0.3248
  736MOL0     H99352   7.841   2.234   2.741  1.7150 -0.0310 -3.3829
  736MOL0     H99353   7.863   2.078   2.822  2.5469  2.0057 -0.2498
  736MOL0     H99354   7.641   2.000   2.766  0.5693  0.7398  0.4932
  736MOL0     H99355   7.633   2.142   2.870 -0.5345  3.1408 -1.0529
  736MOL0     H99356   7.408   2.242   2.534 -1.9176  1.4311  1.3399
  736MOL0     H99357   8.243   2.069   2.566 -2.1600 -0.0725 -0.8184
  736MOL0     H99358   8.439   1.999   2.473 -0.7826  0.1338 -1.2020
  736MOL0     H99359   8.502   2.086   2.329  0.7613 -1.0022  0.1487
  736MOL0     H99360   8.568   2.121   2.489 -0.3107  2.6126 -2.0482
  737MOL0     O99361   5.588   2.238   6.041  0.4645  0.4399  0.4309
  737MOL0     C99362   5.567   2.251   6.161 -0.8842  0.1190  0.5079
  737MOL0     O99363   5.585   2.371   6.227 -0.3055  0.1339 -0.1756
  737MOL0     C99364   5.643   2.469   6.160 -0.8312  0.1169 -0.5048
  737MOL0     C99365   5.770   2.502   6.209 -0.2684 -0.8878  0.0244
  737MOL0     C99366   5.816   2.631   6.182  0.0238  0.6912 -0.6876
  737MOL0     C99367   5.747   2.724   6.103 -0.0139 -0.0894  0.8283
  737MOL0     O99368   5.795   2.853   6.108  0.5547 -0.4939  0.6162
  737MOL0     C99369   5.696   2.957   6.088 -1.5389  0.2829  0.4233
  737MOL0     C99370   5.776   3.088   6.059 -0.3948  0.2323  0.5555
  737MOL0     C99371   5.688   3.208   6.097 -0.4714 -0.1655  0.1776
  737MOL0     C99372   5.752   3.340   6.090  1.0115  0.0137  0.7149
  737MOL0     C99373   5.673   3.443   5.996  0.1848  1.2186  1.5766
  737MOL0     C99374   5.547   3.490   6.063  0.2240 -0.7029  0.0866
  737MOL0     C99375   5.506   3.630   6.012  0.4660  0.5153  0.0451
  737MOL0     C99376   5.553   3.748   6.101 -0.6432 -0.4634  0.7799
  737MOL0     N99377   5.696   3.767   6.093 -0.5659 -0.0544  0.9863
  737MOL0     C99378   5.757   3.870   6.021  0.4693  0.4044 -0.4920
  737MOL0     C99379   5.893   3.841   6.035 -0.3294  0.0024 -0.6992
  737MOL0     C99380   5.999   3.918   5.969  0.6685  0.3237 -0.9979
  737MOL0     C99381   5.964   3.992   5.839  0.3544  0.2865 -0.1883
  737MOL0     C99382   5.978   3.910   5.712 -0.9118  0.2888 -0.1987
  737MOL0     C99383   5.869   3.808   5.673 -0.2450  0.2266  0.6078
  737MOL0     O99384   5.744   3.874   5.651 -0.0867 -0.4801 -0.6478
  737MOL0     C99385   5.628   3.797   5.637  1.4046 -0.3287  0.0154
  737MOL0     C99386   5.508   3.863   5.625 -1.1016 -0.5078  0.4922
  737MOL0     C99387   5.388   3.804   5.598 -0.2866 -0.0962 -1.1585
  737MOL0     C99388   5.379   3.662   5.603  0.4477  0.1023  0.5988
  737MOL0     C99389   5.247   3.595   5.591  0.4342 -0.8221 -1.2339
  737MOL0     O99390   5.137   3.672   5.589  0.4080  0.0316  0.0587
  737MOL0     C99391   5.012   3.619   5.595 -0.6734  0.0701  0.6321
  737MOL0     C99392   4.978   3.498   5.660  0.3585  0.4187 -0.2175
  737MOL0     C99393   4.848   3.460   5.669 -0.1151  0.4103  0.6097
  737MOL0     C99394   4.752   3.541   5.601 -0.2651 -0.3200 -0.0689
  737MOL0     O99395   4.623   3.498   5.588  0.9474  0.1935  0.1383
  737MOL0     C99396   4.545   3.452   5.703 -0.9562  0.6649 -0.6197
  737MOL0     C99397   4.398   3.433   5.675  0.7714 -0.6752  0.2523
  737MOL0     C99398   4.322   3.564   5.643 -0.5486  0.0256 -0.1808
  737MOL0     C99399   4.352   3.682   5.726 -0.6128 -0.4770 -0.7027
  737MOL0     C99400   4.290   3.813   5.676  0.8753 -0.5569 -0.6047
  737MOL0     C99401   4.320   3.846   5.527  0.7352 -0.3709  0.2468
  737MOL0     C99402   4.283   3.996   5.511 -0.3060  0.3063  1.0127
  737MOL0     C99403   4.280   4.057   5.368 -1.1034 -0.6298  0.2628
  737MOL0    Cl99404   4.434   4.016   5.279  0.0696 -0.7156 -0.1864
  737MOL0     C99405   4.794   3.662   5.533 -0.7885 -0.2545  0.3107
  737MOL0     C99406   4.922   3.694   5.522 -0.9773  0.2361 -0.3650
  737MOL0     O99407   5.254   3.473   5.586 -0.0496 -1.0242  0.5950
  737MOL0     C99408   5.500   3.598   5.588  0.7487  0.0974 -0.0570
  737MOL0     C99409   5.619   3.661   5.622 -0.3554  0.0957  0.8061
  737MOL0     N99410   5.905   3.744   6.136 -0.3153 -0.5309 -0.2283
  737MOL0     N99411   5.790   3.699   6.158 -0.1698  0.3299 -0.1315
  737MOL0     C99412   5.625   2.682   6.033 -1.2517  0.8991 -0.5017
  737MOL0     C99413   5.575   2.549   6.065  0.2288  0.5617 -0.2379
  737MOL0     C99414   5.521   2.141   6.242 -0.0813 -0.6742 -0.1351
  737MOL0     C99415   5.419   2.160   6.326 -0.0165  0.6373  1.5079
  737MOL0     C99416   5.358   2.057   6.399 -0.2877 -1.0965  0.6628
  737MOL0     C99417   5.419   1.932   6.396 -0.8060  0.0353  0.2851
  737MOL0     O99418   5.366   1.844   6.487  0.0579  0.3247 -0.0116
  737MOL0     C99419   5.355   1.710   6.444  0.0922  0.2200 -0.5507
  737MOL0     C99420   5.287   1.627   6.555 -1.0424 -0.1372  1.7084
  737MOL0     C99421   5.378   1.582   6.661 -0.4090  0.3996 -0.0825
  737MOL0     C99422   5.324   1.469   6.743  0.6821  0.0863  0.8632
  737MOL0     C99423   5.433   1.383   6.790  0.2979  0.0840  1.4426
  737MOL0     C99424   5.503   1.293   6.842 -0.6322 -0.2572  0.9984
  737MOL0     C99425   5.522   1.903   6.295  0.5621  0.9346 -0.2212
  737MOL0     C99426   5.573   2.013   6.217 -0.1453 -0.7999  0.0892
  737MOL0     C99427   5.680   1.989   6.118 -0.5372 -0.1341 -0.9179
  737MOL0     H99428   5.816   2.437   6.282  1.1666  1.0557  0.9168
  737MOL0     H99429   5.916   2.661   6.211 -0.1677  1.1633 -0.5048
  737MOL0     H99430   5.617   2.948   6.013  0.1007  3.2928 -1.8577
  737MOL0     H99431   5.646   2.978   6.183 -2.2324 -1.5693  0.5151
  737MOL0     H99432   5.796   3.087   5.951 -0.8927  2.0292  0.4070
  737MOL0     H99433   5.874   3.079   6.106 -0.2767 -0.3890  0.2043
  737MOL0     H99434   5.659   3.185   6.200  2.3431 -0.9187  0.8903
  737MOL0     H99435   5.591   3.212   6.046 -0.6477 -1.9562  0.3231
  737MOL0     H99436   5.751   3.375   6.194 -3.5216 -0.7616  1.1517
  737MOL0     H99437   5.857   3.331   6.060  1.2726  1.2512  1.2048
  737MOL0     H99438   5.744   3.526   6.000  3.9729 -1.8327  3.5339
  737MOL0     H99439   5.657   3.412   5.892 -2.6711  2.6382  1.4754
  737MOL0     H99440   5.465   3.421   6.044  0.3018 -0.4415 -1.3147
  737MOL0     H99441   5.564   3.489   6.171  0.6910 -0.7790  0.0127
  737MOL0     H99442   5.397   3.639   6.003  0.6060  1.4259 -0.7817
  737MOL0     H99443   5.537   3.638   5.907 -0.6122 -0.6701 -0.4063
  737MOL0     H99444   5.503   3.844   6.081  1.0431  0.3877  0.4430
  737MOL0     H99445   5.524   3.717   6.202 -2.1917 -2.8467 -0.3020
  737MOL0     H99446   5.697   3.948   5.976 -1.4158 -1.3554 -1.1982
  737MOL0     H99447   6.042   3.994   6.033  0.8765 -1.0102  0.5006
  737MOL0     H99448   6.074   3.841   5.947 -0.5730 -0.7778 -1.5610
  737MOL0     H99449   5.862   4.030   5.841 -1.6123 -4.3099  1.3096
  737MOL0     H99450   6.034   4.073   5.818 -1.4187  0.9095 -4.6884
  737MOL0     H99451   6.072   3.855   5.724 -0.4329  1.0322 -0.4958
  737MOL0     H99452   5.986   3.976   5.626 -0.2904  0.3773 -0.0788
  737MOL0     H99453   5.864   3.732   5.752  0.8085  0.1883  0.6547
  737MOL0     H99454   5.905   3.755   5.585  0.8000 -1.6750  2.1025
  737MOL0     H99455   5.519   3.971   5.631  1.9209 -0.6372 -0.7332
  737MOL0     H99456   5.304   3.871   5.584  1.8095  2.7047 -1.2402
  737MOL0     H99457   5.056   3.460   5.725  0.3808  2.3035  0.9250
  737MOL0     H99458   4.818   3.371   5.724 -3.3293  0.8540 -0.2342
  737MOL0     H99459   4.580   3.355   5.739 -0.0362  1.7111  1.4840
  737MOL0     H99460   4.557   3.528   5.781 -1.1692  1.7174 -1.5739
  737MOL0     H99461   4.373   3.367   5.591 -2.2783  1.3199 -0.5948
  737MOL0     H99462   4.350   3.384   5.761  0.8144  0.9770  1.2738
  737MOL0     H99463   4.341   3.587   5.538  2.0196 -0.9648 -0.0041
  737MOL0     H99464   4.213   3.559   5.646 -0.7277  2.7583  0.1609
  737MOL0     H99465   4.459   3.703   5.736 -1.0134  1.5807 -0.3315
  737MOL0     H99466   4.328   3.669   5.832  1.8057 -2.6757 -0.3049
  737MOL0     H99467   4.314   3.899   5.739 -1.3257 -0.2943 -0.0277
  737MOL0     H99468   4.182   3.797   5.680  0.6721  0.5723 -1.0000
  737MOL0     H99469   4.427   3.838   5.511  1.5743  2.1798  3.3317
  737MOL0     H99470   4.265   3.780   5.460 -0.5792  0.3081  0.5990
  737MOL0     H99471   4.361   4.050   5.564  0.6861 -2.7814  2.9480
  737MOL0     H99472   4.190   4.015   5.567 -1.7496  0.1368 -1.1879
  737MOL0     H99473   4.198   4.028   5.301 -1.1524  4.3734 -2.3299
  737MOL0     H99474   4.277   4.165   5.387  0.5468 -0.4748 -0.1544
  737MOL0     H99475   4.727   3.722   5.472  0.4996  0.7186 -0.1765
  737MOL0     H99476   4.951   3.784   5.469  2.6976  0.3002  1.4230
  737MOL0     H99477   5.498   3.493   5.562 -0.0440  0.0055  0.3479
  737MOL0     H99478   5.704   3.594   5.616 -0.2391  0.3457 -3.5454
  737MOL0     H99479   5.583   2.753   5.963  1.2057  0.6002 -2.4378
  737MOL0     H99480   5.481   2.511   6.025  1.2458 -3.4720  0.7218
  737MOL0     H99481   5.373   2.259   6.332 -1.4089  0.0136  1.4239
  737MOL0     H99482   5.273   2.080   6.463 -2.9759 -1.7918 -2.3686
  737MOL0     H99483   5.450   1.662   6.418 -0.1288 -1.9774  2.1834
  737MOL0     H99484   5.291   1.699   6.356  0.9594 -3.5880 -0.8960
  737MOL0     H99485   5.259   1.529   6.515  1.7597 -1.1547  2.0244
  737MOL0     H99486   5.196   1.673   6.592 -2.2030 -2.8431  2.4467
  737MOL0     H99487   5.400   1.665   6.730 -0.9556  0.8935 -0.4935
  737MOL0     H99488   5.475   1.548   6.625 -1.3282 -3.7743  0.8330
  737MOL0     H99489   5.277   1.518   6.828  1.0088  0.7931  0.6427
  737MOL0     H99490   5.254   1.413   6.680  3.6237 -0.0710 -2.5763
  737MOL0     H99491   5.566   1.213   6.874 -0.4600 -1.8233 -2.7392
  737MOL0     H99492   5.551   1.801   6.272  0.8464  1.2784 -1.4913
  737MOL0     H99493   5.653   2.025   6.019  2.0624  2.2799 -0.8734
  737MOL0     H99494   5.772   2.046   6.132  1.1070 -2.3901 -1.7873
  737MOL0     H99495   5.700   1.881   6.112  1.5761 -0.0612  2.1548
  738MOL0     O99496   0.205   5.424   0.570 -0.3582 -0.2162  0.1492
  738MOL0     C99497   0.126   5.515   0.564  0.2663 -0.5557 -0.9285
  738MOL0     O99498   0.020   5.513   0.484  0.5847  0.3954  0.0734
  738MOL0     C99499   0.012   5.410   0.396 -0.5916 -0.3270  0.5933
  738MOL0     C99500  -0.010   5.444   0.265  0.2256 -0.5791  1.7090
  738MOL0     C99501  -0.042   5.357   0.166  1.3414 -0.2038  0.7962
  738MOL0     C99502  -0.059   5.227   0.194 -0.0796 -0.2235  0.5242
  738MOL0     O99503  -0.095   5.131   0.102 -0.5729  0.1461  0.0452
  738MOL0     C99504  -0.070   5.144  -0.034 -0.4940 -0.7168  0.6408
  738MOL0     C99505  -0.084   4.997  -0.078 -0.0082 -0.4794  0.8320
  738MOL0     C99506  -0.036   4.983  -0.218 -0.0188  0.0216  0.2844
  738MOL0     C99507  -0.012   4.840  -0.247 -0.5014  0.1666  0.0919
  738MOL0     C99508   0.012   4.815  -0.398 -0.9433  0.1630 -0.2493
  738MOL0     C99509   0.134   4.887  -0.453 -0.0425 -0.0448 -0.0252
  738MOL0     C99510   0.273   4.814  -0.443  0.4683 -1.0414  0.0051
  738MOL0     C99511   0.299   4.693  -0.533  0.0293 -0.8943 -0.4238
  738MOL0     N99512   0.436   4.651  -0.499 -0.0950  0.1395 -0.4321
  738MOL0     C99513   0.547   4.660  -0.581  1.4687 -0.1527 -0.3068
  738MOL0     C99514   0.643   4.584  -0.525 -0.1697  0.6135  0.2675
  738MOL0     C99515   0.777   4.549  -0.599 -0.3842  0.1707 -0.0500
  738MOL0     C99516   0.858   4.448  -0.521 -0.4565 -0.6654  1.2121
  738MOL0     C99517   1.002   4.431  -0.597  0.6882  0.2164  0.0378
  738MOL0     C99518   1.003   4.304  -0.669 -0.3814  0.7946 -0.9012
  738MOL0     O99519   0.933   4.299  -0.792  0.6142  0.0406 -0.3060
  738MOL0     C99520   0.879   4.177  -0.828 -1.0205  0.0397 -0.6728
  738MOL0     C99521   0.949   4.056  -0.802 -0.2092 -0.4988 -1.0991
  738MOL0     C99522   0.882   3.932  -0.827 -1.1625 -0.3225 -0.3945
  738MOL0     C99523   0.756   3.929  -0.882 -0.1698  0.6904 -0.1901
  738MOL0     C99524   0.687   3.797  -0.896 -0.0890 -0.0898 -0.4920
  738MOL0     O99525   0.736   3.687  -0.824  0.1714  0.1350  0.4258
  738MOL0     C99526   0.703   3.555  -0.868 -0.9299 -1.1952  0.2991
  738MOL0     C99527   0.704   3.526  -1.004  1.3252 -1.0742 -0.0292
  738MOL0     C99528   0.678   3.388  -1.044 -0.0084  0.1948 -0.2145
  738MOL0     C99529   0.654   3.287  -0.954 -0.9309  0.5026 -0.2948
  738MOL0     O99530   0.651   3.159  -0.993 -0.8342  0.0600  1.0586
  738MOL0     C99531   0.575   3.059  -0.911  0.1694  0.3492 -0.3655
  738MOL0     C99532   0.519   2.937  -0.995  0.6195 -0.7215  0.4530
  738MOL0     C99533   0.496   2.812  -0.918  1.1796  0.0283 -0.5293
  738MOL0     C99534   0.384   2.819  -0.807  0.8975 -0.2864  0.1857
  738MOL0     C99535   0.411   2.734  -0.683 -0.3816 -0.3798 -0.3928
  738MOL0     C99536   0.403   2.581  -0.685  0.2605 -0.6378  0.5190
  738MOL0     C99537   0.374   2.537  -0.545 -0.1493  0.2273  0.8623
  738MOL0     C99538   0.383   2.383  -0.525  0.5990  0.3214 -0.7474
  738MOL0    Cl99539   0.557   2.325  -0.563  0.5609 -0.7536  0.1221
  738MOL0     C99540   0.657   3.325  -0.822  1.1830  1.2741  0.3697
  738MOL0     C99541   0.674   3.447  -0.781 -0.6227  0.0171 -0.4004
  738MOL0     O99542   0.590   3.795  -0.971  0.5779  0.2596 -0.2512
  738MOL0     C99543   0.686   4.051  -0.905 -0.1100  0.6946 -0.2717
  738MOL0     C99544   0.753   4.172  -0.878  0.4058  0.2005 -0.6771
  738MOL0     N99545   0.608   4.550  -0.400  0.1200 -0.0776  0.0218
  738MOL0     N99546   0.480   4.590  -0.386 -0.2653 -0.4256 -0.1488
  738MOL0     C99547  -0.011   5.181   0.315  0.1306  0.0746 -0.4050
  738MOL0     C99548   0.019   5.271   0.418  0.1660 -0.0600 -0.2925
  738MOL0     C99549   0.137   5.624   0.667 -0.6665 -0.7990 -0.2345
  738MOL0     C99550   0.240   5.615   0.762 -0.2115 -0.5548  0.1631
  738MOL0     C99551   0.277   5.718   0.844 -1.0381  0.3307  0.1857
  738MOL0     C99552   0.207   5.838   0.849 -0.6481 -0.2272  0.5085
  738MOL0     O99553   0.222   5.935   0.944 -0.1479 -0.5345  0.5511
  738MOL0     C99554   0.343   5.950   1.015 -0.5922  0.2145 -0.7771
  738MOL0     C99555   0.440   6.035   0.946 -0.1507 -0.6287  0.2839
  738MOL0     C99556   0.568   6.054   1.038  0.0651 -0.2526  0.0718
  738MOL0     C99557   0.666   6.152   0.965 -0.3705 -0.4832 -0.6418
  738MOL0     C99558   0.795   6.169   1.038 -0.1748 -0.0844  1.3454
  738MOL0     C99559   0.903   6.203   1.087  0.3204  0.5742  0.5890
  738MOL0     C99560   0.098   5.858   0.764 -0.8268 -0.0489 -0.1426
  738MOL0     C99561   0.083   5.755   0.665  0.2621 -1.6013  0.6150
  738MOL0     C99562  -0.004   5.791   0.555  0.4217  0.3942 -0.7477
  738MOL0     H99563  -0.007   5.546   0.229  0.9560 -1.4388 -0.8377
  738MOL0     H99564  -0.074   5.397   0.070 -0.9852 -0.7871  1.2498
  738MOL0     H99565  -0.132   5.222  -0.078 -1.3319 -0.7720  1.6871
  738MOL0     H99566   0.035   5.170  -0.050  0.7790 -4.7368  1.3109
  738MOL0     H99567  -0.187   4.960  -0.079  0.0162 -0.5913 -0.8187
  738MOL0     H99568  -0.033   4.927  -0.012 -0.2500 -1.0359  0.4347
  738MOL0     H99569   0.057   5.041  -0.223 -0.2563  0.3760 -0.1643
  738MOL0     H99570  -0.105   5.033  -0.287  1.6516  4.6319  1.5781
  738MOL0     H99571   0.066   4.801  -0.180 -2.4004 -3.3300  0.5233
  738MOL0     H99572  -0.096   4.780  -0.210 -1.0351  1.9095  1.8682
  738MOL0     H99573   0.032   4.709  -0.417  1.3181  0.6177 -0.6832
  738MOL0     H99574  -0.077   4.834  -0.459  0.8061  2.3626 -2.3244
  738MOL0     H99575   0.101   4.904  -0.556 -4.2502 -2.2151  0.7600
  738MOL0     H99576   0.144   4.993  -0.426  1.2808  0.6470 -2.8980
  738MOL0     H99577   0.285   4.805  -0.334 -0.0371  2.9593  0.5533
  738MOL0     H99578   0.348   4.883  -0.483 -0.6078 -1.3900 -2.7786
  738MOL0     H99579   0.222   4.616  -0.519 -1.3648  0.3323 -1.0777
  738MOL0     H99580   0.295   4.729  -0.636  2.0302  0.6458 -0.0065
  738MOL0     H99581   0.544   4.707  -0.679 -1.0223  3.2987  1.1880
  738MOL0     H99582   0.758   4.521  -0.703  0.6992  0.5411 -0.3628
  738MOL0     H99583   0.841   4.638  -0.602  0.8513 -0.1564  5.2738
  738MOL0     H99584   0.860   4.500  -0.425 -3.9062  4.6429 -1.0926
  738MOL0     H99585   0.811   4.351  -0.506  0.0184 -1.0307  0.4560
  738MOL0     H99586   1.076   4.439  -0.517  0.5600  0.2982  0.1495
  738MOL0     H99587   1.024   4.521  -0.656  1.6884  0.4295  0.7072
  738MOL0     H99588   0.958   4.232  -0.600  0.5026  1.8858  0.8783
  738MOL0     H99589   1.107   4.276  -0.685 -0.8280 -0.2612 -2.1411
  738MOL0     H99590   1.045   4.051  -0.751 -1.2301 -0.3512  0.9430
  738MOL0     H99591   0.940   3.845  -0.797  0.7310  1.1510  0.3981
  738MOL0     H99592   0.732   3.601  -1.077 -3.5510  4.9575  3.4302
  738MOL0     H99593   0.697   3.367  -1.148  0.3175  1.1988 -0.3765
  738MOL0     H99594   0.651   3.012  -0.847 -1.0927 -1.8886 -0.4035
  738MOL0     H99595   0.490   3.091  -0.851 -2.1742 -2.3008 -2.0261
  738MOL0     H99596   0.428   2.968  -1.047  0.2328 -2.8442 -0.2592
  738MOL0     H99597   0.597   2.898  -1.062  1.0821  0.4432  0.2867
  738MOL0     H99598   0.457   2.729  -0.978 -0.4762 -1.4716  2.4003
  738MOL0     H99599   0.586   2.774  -0.868  0.6646 -2.2371 -1.1974
  738MOL0     H99600   0.291   2.780  -0.850 -0.9630  1.2204  2.5348
  738MOL0     H99601   0.372   2.923  -0.775  2.2693  0.2941 -1.1170
  738MOL0     H99602   0.348   2.772  -0.602  2.3501  1.9107  0.8565
  738MOL0     H99603   0.516   2.762  -0.665 -1.2685  1.7403  2.2239
  738MOL0     H99604   0.316   2.558  -0.747 -0.4626 -0.2709  1.3760
  738MOL0     H99605   0.492   2.540  -0.733 -2.2554 -3.6899 -2.0638
  738MOL0     H99606   0.273   2.574  -0.526 -0.9966 -0.5072 -1.7554
  738MOL0     H99607   0.436   2.594  -0.475 -1.2212  2.2942  0.2061
  738MOL0     H99608   0.371   2.360  -0.419  1.2131  0.6908 -0.5942
  738MOL0     H99609   0.304   2.328  -0.577 -0.5739  0.4217  0.8639
  738MOL0     H99610   0.653   3.254  -0.740  2.5139 -0.1685 -0.7452
  738MOL0     H99611   0.696   3.470  -0.677  0.4343  0.0369 -0.6196
  738MOL0     H99612   0.585   4.049  -0.944 -0.1261  0.0764 -0.2182
  738MOL0     H99613   0.701   4.266  -0.886  0.5638  0.2388 -1.2929
  738MOL0     H99614   0.007   5.075   0.325  0.8233  0.1600 -0.6950
  738MOL0     H99615   0.046   5.236   0.517  0.6607 -0.2673 -0.4959
  738MOL0     H99616   0.300   5.525   0.768  0.3340 -0.1652  0.6976
  738MOL0     H99617   0.342   5.695   0.928 -1.5245  4.2013  1.8519
  738MOL0     H99618   0.382   5.849   1.034 -0.1605  0.7042  1.2310
  738MOL0     H99619   0.338   5.995   1.114 -3.3348  1.0156 -1.2167
  738MOL0     H99620   0.410   6.137   0.922 -2.4248 -1.8311 -2.5863
  738MOL0     H99621   0.457   5.987   0.849  1.4908  1.1859 -0.3997
  738MOL0     H99622   0.625   5.965   1.067  2.0303  1.5840  2.3468
  738MOL0     H99623   0.540   6.102   1.132  0.9661 -2.7091  1.6985
  738MOL0     H99624   0.693   6.119   0.864 -0.7561  5.0328 -2.9028
  738MOL0     H99625   0.627   6.253   0.950  0.4540 -0.1810 -0.7890
  738MOL0     H99626   0.988   6.259   1.121 -0.2830  1.6105  0.4105
  738MOL0     H99627   0.056   5.958   0.775  2.4564  1.2730  2.3504
  738MOL0     H99628  -0.096   5.735   0.574  1.8641 -1.3769  1.6359
  738MOL0     H99629  -0.033   5.897   0.547 -0.7928  0.1911  0.5418
  738MOL0     H99630   0.048   5.768   0.462  1.0738  1.8119 -0.7675
  739MOL0     O99631   6.928   4.908   2.424  0.6033 -0.2971  0.1118
  739MOL0     C99632   6.996   5.007   2.389 -0.5608 -0.2781  0.5029
  739MOL0     O99633   7.125   5.005   2.354 -0.1963 -0.7592  0.5014
  739MOL0     C99634   7.202   4.915   2.420  0.0287  0.7035  0.5213
  739MOL0     C99635   7.281   4.943   2.542 -0.6845 -0.6330  0.3008
  739MOL0     C99636   7.361   4.850   2.593 -0.7967 -0.4803  0.0891
  739MOL0     C99637   7.355   4.716   2.557 -0.1642  0.0653  0.3925
  739MOL0     O99638   7.448   4.630   2.609 -0.8179 -0.8760 -0.1126
  739MOL0     C99639   7.436   4.590   2.748 -0.4908 -0.8173  0.4363
  739MOL0     C99640   7.333   4.485   2.769 -0.8585  0.4170 -0.1779
  739MOL0     C99641   7.351   4.377   2.661 -0.7111  0.6410  1.1781
  739MOL0     C99642   7.284   4.244   2.708 -1.2518  0.6631 -0.5702
  739MOL0     C99643   7.300   4.134   2.604  0.0009 -0.0761  1.1292
  739MOL0     C99644   7.236   4.001   2.650 -0.0108 -0.0120  0.3775
  739MOL0     C99645   7.090   4.013   2.709 -0.1913  0.1826  0.0733
  739MOL0     C99646   6.982   4.030   2.596 -1.2803  0.7563 -0.5265
  739MOL0     N99647   6.981   4.153   2.532 -0.0775  0.3039 -0.3566
  739MOL0     C99648   6.926   4.261   2.582  0.4740  0.0843 -0.2745
  739MOL0     C99649   6.939   4.355   2.491  0.1148 -0.3824 -0.3627
  739MOL0     C99650   6.923   4.498   2.502 -0.1455 -0.5913  0.1055
  739MOL0     C99651   6.889   4.563   2.373  1.0724 -0.5346  0.3206
  739MOL0     C99652   6.737   4.576   2.364 -0.0283 -0.4731  0.9719
  739MOL0     C99653   6.708   4.691   2.256 -0.1541 -0.5966 -0.0881
  739MOL0     O99654   6.569   4.718   2.260  0.0805  0.6508  1.0321
  739MOL0     C99655   6.529   4.838   2.316  0.1580 -0.1694 -0.8873
  739MOL0     C99656   6.470   4.944   2.243  0.8264 -0.0018 -0.6458
  739MOL0     C99657   6.446   5.062   2.303 -1.4581 -0.3458 -0.4207
  739MOL0     C99658   6.479   5.093   2.442  0.4605 -0.1616  0.3086
  739MOL0     C99659   6.451   5.222   2.504 -0.2813 -0.1490  0.0827
  739MOL0     O99660   6.388   5.317   2.411 -0.4366  0.3674  0.6226
  739MOL0     C99661   6.350   5.442   2.445  0.2146 -0.5419  0.1482
  739MOL0     C99662   6.334   5.508   2.567 -0.7950 -0.0116  0.4861
  739MOL0     C99663   6.283   5.639   2.573 -0.2507  0.0503 -0.2060
  739MOL0     C99664   6.248   5.711   2.461  0.1897 -0.2874  0.7127
  739MOL0     O99665   6.200   5.839   2.474 -0.0223  0.0633  0.4148
  739MOL0     C99666   6.114   5.900   2.374 -0.0176  0.2135  0.0449
  739MOL0     C99667   5.976   5.842   2.369 -0.2563  0.3383 -1.1948
  739MOL0     C99668   5.904   5.837   2.504 -1.0144 -0.0265 -0.3559
  739MOL0     C99669   5.874   5.971   2.576 -0.1521  0.3366  0.1715
  739MOL0     C99670   5.787   5.972   2.706  0.6864  0.1853 -0.1573
  739MOL0     C99671   5.771   6.109   2.772 -0.7517 -0.7344 -0.7220
  739MOL0     C99672   5.688   6.206   2.677 -0.7181 -0.5997  0.5032
  739MOL0     C99673   5.681   6.347   2.732 -0.5032 -0.4819  0.7622
  739MOL0    Cl99674   5.846   6.406   2.752  0.2740  0.0356 -0.1161
  739MOL0     C99675   6.275   5.659   2.339  0.2478 -0.4136  0.4298
  739MOL0     C99676   6.313   5.522   2.333 -0.2154  0.5289 -0.1761
  739MOL0     O99677   6.465   5.230   2.623  0.2429 -0.8324  0.1614
  739MOL0     C99678   6.544   4.988   2.515  0.0099 -0.4558  0.2263
  739MOL0     C99679   6.564   4.866   2.450  0.2872  1.0253  1.4714
  739MOL0     N99680   7.005   4.298   2.389  0.9317  0.5783  0.7572
  739MOL0     N99681   7.017   4.169   2.409 -0.6733 -0.7476  0.3445
  739MOL0     C99682   7.281   4.679   2.450  1.0512 -0.9436  0.3907
  739MOL0     C99683   7.199   4.777   2.381 -0.0043 -0.8150 -0.7518
  739MOL0     C99684   6.926   5.141   2.379 -0.0043  0.6619  0.2113
  739MOL0     C99685   6.809   5.169   2.446  0.0439  0.4133  0.3637
  739MOL0     C99686   6.759   5.302   2.451  0.8792  0.8887 -0.1248
  739MOL0     C99687   6.801   5.403   2.370 -0.2272 -0.3408  0.6565
  739MOL0     O99688   6.743   5.528   2.390 -0.2270  0.8637 -1.1947
  739MOL0     C99689   6.793   5.626   2.303 -0.1972 -0.1011  0.6502
  739MOL0     C99690   6.694   5.738   2.291 -0.3668 -0.2478 -1.0639
  739MOL0     C99691   6.598   5.718   2.166 -0.1573 -0.3334 -0.6302
  739MOL0     C99692   6.660   5.782   2.041 -0.4738  0.1433  1.3969
  739MOL0     C99693   6.645   5.930   2.033 -0.2294  0.4248  0.4038
  739MOL0     C99694   6.646   6.050   1.992  0.3536 -0.4424 -0.3734
  739MOL0     C99695   6.899   5.372   2.275  0.9179  0.9260 -1.0297
  739MOL0     C99696   6.965   5.242   2.288 -0.1170 -0.3247 -0.2673
  739MOL0     C99697   7.074   5.224   2.198 -0.5999  0.9703  0.0100
  739MOL0     H99698   7.312   5.043   2.568  5.0383 -1.6571 -1.1119
  739MOL0     H99699   7.424   4.892   2.671 -0.5268 -0.1958 -0.2743
  739MOL0     H99700   7.536   4.549   2.765 -1.0705 -1.4220  2.6442
  739MOL0     H99701   7.434   4.677   2.814  1.1737  0.3306 -0.9289
  739MOL0     H99702   7.231   4.522   2.774 -1.6144  0.1565 -6.3766
  739MOL0     H99703   7.359   4.430   2.860  4.1126 -0.0758 -1.5893
  739MOL0     H99704   7.458   4.370   2.643 -0.7438  2.1693  0.1821
  739MOL0     H99705   7.305   4.407   2.567  1.2250  0.7931  0.2368
  739MOL0     H99706   7.321   4.213   2.807  0.3338  1.0098 -1.0196
  739MOL0     H99707   7.180   4.264   2.734 -0.5899 -0.6731  4.0417
  739MOL0     H99708   7.246   4.161   2.512 -2.0309  0.8734  2.5207
  739MOL0     H99709   7.403   4.115   2.573  0.2754  3.3773 -0.6332
  739MOL0     H99710   7.241   3.935   2.563 -2.6426  0.1229  0.0561
  739MOL0     H99711   7.294   3.958   2.732 -3.4918  1.9924  4.2906
  739MOL0     H99712   7.077   4.086   2.789  0.6795  0.3998  0.0324
  739MOL0     H99713   7.066   3.912   2.743 -1.5697 -0.0712 -1.4950
  739MOL0     H99714   6.982   3.951   2.520 -2.5609 -3.1238  3.1177
  739MOL0     H99715   6.887   4.030   2.650 -0.7084  0.9200  0.5143
  739MOL0     H99716   6.867   4.266   2.673  2.0577  0.1759  0.7949
  739MOL0     H99717   6.847   4.522   2.578  1.4342 -0.2044  1.6446
  739MOL0     H99718   7.022   4.526   2.539  1.1326 -2.6827 -1.4856
  739MOL0     H99719   6.934   4.662   2.366 -0.0068  0.0294  1.0123
  739MOL0     H99720   6.927   4.507   2.287  0.1334 -2.3850  1.0379
  739MOL0     H99721   6.695   4.600   2.462  0.8744 -1.4528  1.6173
  739MOL0     H99722   6.700   4.481   2.326  2.0265 -0.1669 -2.1083
  739MOL0     H99723   6.729   4.669   2.152 -0.8989 -0.4560 -0.2756
  739MOL0     H99724   6.752   4.789   2.280 -3.5472  1.1559 -0.3235
  739MOL0     H99725   6.432   4.910   2.147 -0.0911  0.3121 -0.3949
  739MOL0     H99726   6.381   5.129   2.248 -3.1322  0.3384  2.2213
  739MOL0     H99727   6.358   5.460   2.661  0.6635 -1.3892 -0.5195
  739MOL0     H99728   6.262   5.679   2.672 -1.3542 -0.5966 -0.1596
  739MOL0     H99729   6.097   6.005   2.398 -0.9490 -0.2582  1.5375
  739MOL0     H99730   6.163   5.904   2.276 -0.9181  0.6633 -0.3979
  739MOL0     H99731   5.907   5.876   2.291 -0.0347 -1.3431 -2.1769
  739MOL0     H99732   5.995   5.741   2.333 -0.6545 -1.2757  2.6608
  739MOL0     H99733   5.806   5.788   2.498 -1.2542  0.2484  0.9292
  739MOL0     H99734   5.953   5.780   2.583 -4.1086  1.9758  3.3504
  739MOL0     H99735   5.809   6.025   2.505 -1.3988 -1.8890 -0.4693
  739MOL0     H99736   5.961   6.035   2.591 -1.4001  1.8368  1.3869
  739MOL0     H99737   5.805   5.895   2.782 -3.5488 -1.2732 -0.3253
  739MOL0     H99738   5.690   5.929   2.680  1.6622 -1.3464 -1.4633
  739MOL0     H99739   5.724   6.104   2.870 -1.1861  2.2669 -0.7058
  739MOL0     H99740   5.874   6.143   2.786 -0.8718  0.2468 -1.9667
  739MOL0     H99741   5.591   6.156   2.673 -0.6378 -0.6669 -1.5913
  739MOL0     H99742   5.729   6.211   2.576 -0.5529 -3.2226  0.3682
  739MOL0     H99743   5.625   6.409   2.662  0.0572  1.7355  2.1661
  739MOL0     H99744   5.623   6.357   2.823 -1.4917 -0.6650  0.1704
  739MOL0     H99745   6.262   5.717   2.248  0.5549 -0.2957  0.4590
  739MOL0     H99746   6.326   5.492   2.229  1.4181 -1.5824  0.5613
  739MOL0     H99747   6.570   5.002   2.619  1.3149  1.8924 -0.3623
  739MOL0     H99748   6.613   4.789   2.508 -0.9369  0.1991  1.4404
  739MOL0     H99749   7.304   4.586   2.398  3.1777  0.7272 -1.8777
  739MOL0     H99750   7.138   4.756   2.294 -0.1742 -0.6523 -0.6723
  739MOL0     H99751   6.772   5.093   2.514 -2.1744  0.6439 -0.5158
  739MOL0     H99752   6.676   5.334   2.513  2.4926 -1.6643  3.7616
  739MOL0     H99753   6.809   5.595   2.199  1.1464 -0.9769  1.0997
  739MOL0     H99754   6.887   5.661   2.347 -0.9840  1.6874  1.0237
  739MOL0     H99755   6.740   5.837   2.284 -3.2587  1.2079 -1.0089
  739MOL0     H99756   6.631   5.737   2.380 -0.4285 -2.7479 -1.0666
  739MOL0     H99757   6.504   5.760   2.205  1.2724 -0.1553  3.0306
  739MOL0     H99758   6.591   5.610   2.150 -4.1153 -0.2265 -0.5948
  739MOL0     H99759   6.766   5.763   2.026 -1.1986 -2.4487 -1.3253
  739MOL0     H99760   6.616   5.728   1.957 -1.0464 -0.7085  2.2201
  739MOL0     H99761   6.653   6.153   1.963 -3.5499 -0.5228 -2.3061
  739MOL0     H99762   6.926   5.444   2.198  0.8990  1.2937 -0.6924
  739MOL0     H99763   7.167   5.240   2.254  3.1250 -1.3523 -4.8100
  739MOL0     H99764   7.089   5.128   2.147  0.3116  1.4716 -0.6977
  739MOL0     H99765   7.067   5.293   2.114 -5.0424  1.0059  0.2058
  740MOL0     O99766   9.288   2.024   2.102  0.0771 -0.4873 -0.0817
  740MOL0     C99767   9.292   1.904   2.109 -0.1675 -0.6473  0.6884
  740MOL0     O99768   9.284   1.817   2.005 -0.5106 -0.0960  0.9596
  740MOL0     C99769   9.323   1.866   1.881 -0.5384  1.1474 -0.6260
  740MOL0     C99770   9.229   1.897   1.788  0.7628 -0.7665 -0.7826
  740MOL0     C99771   9.273   1.948   1.660 -0.9956 -0.0548  0.3184
  740MOL0     C99772   9.413   1.947   1.631  0.2917 -0.7204  0.8968
  740MOL0     O99773   9.454   2.014   1.521  1.1005  0.4932  0.3657
  740MOL0     C99774   9.376   2.025   1.393  0.0928 -0.8710  0.2990
  740MOL0     C99775   9.339   2.177   1.382  0.3773  0.5185 -0.1142
  740MOL0     C99776   9.257   2.198   1.257 -0.1295 -0.8088  0.1639
  740MOL0     C99777   9.239   2.350   1.218 -1.0570  0.5337  0.8039
  740MOL0     C99778   9.125   2.353   1.117 -0.4259  0.0304  1.1923
  740MOL0     C99779   9.142   2.263   0.997 -0.7544  0.6047 -0.6824
  740MOL0     C99780   9.031   2.288   0.886  0.4337 -0.5656 -0.0425
  740MOL0     C99781   9.033   2.439   0.849 -0.2153  0.1943  1.0943
  740MOL0     N99782   8.970   2.462   0.717  0.4560  0.2128  0.4923
  740MOL0     C99783   9.040   2.439   0.604  0.5590  0.8061  1.5029
  740MOL0     C99784   8.936   2.428   0.506  0.0688 -0.8019 -1.1749
  740MOL0     C99785   8.940   2.411   0.359 -0.9392  0.0970 -0.4362
  740MOL0     C99786   9.009   2.526   0.299 -0.2637 -0.7448  0.0889
  740MOL0     C99787   9.047   2.484   0.156  0.6220  0.0449 -0.4213
  740MOL0     C99788   9.069   2.608   0.070 -0.0123 -0.7392 -0.5143
  740MOL0     O99789   9.151   2.566  -0.042  0.5779  0.5556 -0.2088
  740MOL0     C99790   9.243   2.649  -0.104  0.0851  0.0417  0.2643
  740MOL0     C99791   9.249   2.688  -0.238  0.1628  0.5135  1.0084
  740MOL0     C99792   9.348   2.778  -0.290  0.4298 -0.3860 -1.0082
  740MOL0     C99793   9.464   2.804  -0.209  0.4464 -0.3585 -0.0800
  740MOL0     C99794   9.568   2.897  -0.265 -0.4777  0.6643 -0.3808
  740MOL0     O99795   9.545   2.931  -0.396 -0.2308 -0.3180  0.1431
  740MOL0     C99796   9.615   3.040  -0.448 -0.3150 -0.0722 -0.3237
  740MOL0     C99797   9.752   3.052  -0.455 -0.5711 -0.4791 -0.1818
  740MOL0     C99798   9.811   3.160  -0.521 -1.0529 -0.3663  0.6721
  740MOL0     C99799   9.728   3.264  -0.570 -0.2072  0.5205  0.1428
  740MOL0     O99800   9.765   3.367  -0.646 -0.0035  0.0321  0.5363
  740MOL0     C99801   9.896   3.377  -0.709 -0.3084 -0.3547 -0.2373
  740MOL0     C99802   9.892   3.303  -0.844  1.0998  0.1373  1.1809
  740MOL0     C99803   9.823   3.362  -0.973  0.4005 -0.0577 -0.2533
  740MOL0     C99804   9.664   3.346  -0.966  0.6532 -0.1599  0.2787
  740MOL0     C99805   9.616   3.423  -1.094 -0.5526 -0.2651 -0.4025
  740MOL0     C99806   9.615   3.346  -1.226  0.4535  0.8370 -0.1899
  740MOL0     C99807   9.513   3.228  -1.245 -0.4811  0.3143  0.6452
  740MOL0     C99808   9.553   3.155  -1.383 -0.4945 -0.2984 -1.3295
  740MOL0    Cl99809   9.430   3.042  -1.442 -0.0105  0.1330  0.3512
  740MOL0     C99810   9.586   3.252  -0.547 -1.0475 -1.0140  0.3689
  740MOL0     C99811   9.537   3.141  -0.492 -0.1101  0.2267  0.5920
  740MOL0     O99812   9.653   2.943  -0.193  0.2291  0.0130 -0.4295
  740MOL0     C99813   9.462   2.761  -0.073 -0.5132  0.0845  0.6172
  740MOL0     C99814   9.346   2.695  -0.018  0.4144  0.7402  0.0919
  740MOL0     N99815   8.811   2.446   0.571 -0.2488  0.2907  0.5913
  740MOL0     N99816   8.837   2.470   0.687 -0.1906 -0.4691  0.2262
  740MOL0     C99817   9.501   1.892   1.719 -0.7408 -0.1108  0.4196
  740MOL0     C99818   9.459   1.850   1.840  0.5753 -0.8607  0.1918
  740MOL0     C99819   9.312   1.830   2.229  0.0038  0.4852 -0.4744
  740MOL0     C99820   9.202   1.770   2.305 -0.6251 -1.0601  0.4252
  740MOL0     C99821   9.222   1.685   2.411 -0.3857  0.4707 -0.1266
  740MOL0     C99822   9.351   1.682   2.468  0.7264 -0.4394 -0.9261
  740MOL0     O99823   9.377   1.586   2.566 -0.0429 -0.0343 -0.4798
  740MOL0     C99824   9.412   1.642   2.694  0.2594  0.2500  0.1528
  740MOL0     C99825   9.553   1.593   2.751  0.8061 -0.0387  0.0748
  740MOL0     C99826   9.538   1.453   2.797  0.4127  0.4057  0.0547
  740MOL0     C99827   9.667   1.389   2.834  0.3886  0.3041 -0.6771
  740MOL0     C99828   9.761   1.395   2.725 -0.5909 -0.3762 -0.0967
  740MOL0     C99829   9.850   1.401   2.641  0.0313 -0.1233 -0.3393
  740MOL0     C99830   9.462   1.743   2.406  1.3258  0.8215  0.0012
  740MOL0     C99831   9.444   1.816   2.281  0.5907 -0.5524 -0.0026
  740MOL0     C99832   9.561   1.866   2.201 -0.2305  0.2654  0.3447
  740MOL0     H99833   9.121   1.895   1.790  0.7712 -0.3350  0.3623
  740MOL0     H99834   9.211   1.987   1.580  1.9667  2.8518 -0.8031
  740MOL0     H99835   9.433   1.984   1.309  0.3804  1.8259 -0.9299
  740MOL0     H99836   9.284   1.965   1.395  1.8482 -3.9327 -1.7353
  740MOL0     H99837   9.438   2.222   1.367  1.0358 -1.5458 -2.5739
  740MOL0     H99838   9.287   2.207   1.474 -0.8168  0.1412 -0.6506
  740MOL0     H99839   9.156   2.165   1.281 -0.3074 -0.5125 -0.1685
  740MOL0     H99840   9.300   2.136   1.179  0.2637 -0.0818 -0.2125
  740MOL0     H99841   9.211   2.424   1.294 -0.0724  1.9420 -0.1471
  740MOL0     H99842   9.336   2.384   1.180 -1.3919  1.9776  1.1954
  740MOL0     H99843   9.038   2.319   1.175 -1.8883  1.4911 -0.0481
  740MOL0     H99844   9.097   2.454   1.086  0.3658 -1.3582 -5.7715
  740MOL0     H99845   9.231   2.272   0.934 -2.2820 -0.1592 -3.1374
  740MOL0     H99846   9.147   2.160   1.034  1.4786  1.3458  1.3179
  740MOL0     H99847   8.934   2.256   0.926 -0.0645  0.8561 -0.0545
  740MOL0     H99848   9.038   2.230   0.794 -1.3055  0.8818 -1.1504
  740MOL0     H99849   8.969   2.496   0.917  1.8430  2.5712  1.1741
  740MOL0     H99850   9.137   2.473   0.859  0.0822 -0.4744  0.4011
  740MOL0     H99851   9.144   2.428   0.578 -0.0284 -1.4855 -0.2729
  740MOL0     H99852   8.985   2.314   0.334  0.2705  0.9318 -1.6162
  740MOL0     H99853   8.842   2.415   0.311 -3.4346  0.8168  4.1402
  740MOL0     H99854   8.934   2.606   0.297  0.1467 -0.3368 -2.3095
  740MOL0     H99855   9.086   2.572   0.361  0.2496 -2.6853  0.9624
  740MOL0     H99856   8.990   2.401   0.113  1.4684 -1.0119  0.4120
  740MOL0     H99857   9.147   2.441   0.154  0.6672  0.0699  0.7638
  740MOL0     H99858   9.130   2.679   0.127 -1.2040  0.8377 -1.1424
  740MOL0     H99859   8.975   2.654   0.038  1.3915  2.3639 -0.4765
  740MOL0     H99860   9.181   2.648  -0.314  1.9365 -1.0841  0.1728
  740MOL0     H99861   9.326   2.813  -0.391  0.9813  1.3699 -0.5618
  740MOL0     H99862   9.817   2.979  -0.408 -0.9563 -0.1834  0.8479
  740MOL0     H99863   9.918   3.142  -0.526 -1.4882 -3.2425 -0.2885
  740MOL0     H99864   9.923   3.482  -0.722 -0.6140  0.2556  3.0659
  740MOL0     H99865   9.973   3.326  -0.650  0.0888 -1.7669 -1.8834
  740MOL0     H99866   9.992   3.279  -0.883  0.5003 -0.5523  0.0060
  740MOL0     H99867   9.855   3.202  -0.823 -2.3017  1.5947  2.9909
  740MOL0     H99868   9.847   3.468  -0.974  3.0758 -0.5797  0.5084
  740MOL0     H99869   9.860   3.321  -1.068 -4.5256 -1.4790 -1.8629
  740MOL0     H99870   9.616   3.405  -0.887  0.7956 -0.6795  0.7583
  740MOL0     H99871   9.621   3.245  -0.970 -0.3929  0.3058 -0.9704
  740MOL0     H99872   9.687   3.506  -1.085  2.7501 -3.0470  1.7699
  740MOL0     H99873   9.511   3.445  -1.076 -0.5155 -0.6566  0.3133
  740MOL0     H99874   9.580   3.412  -1.306  1.0924  0.0678 -1.1287
  740MOL0     H99875   9.717   3.314  -1.253 -0.0827 -2.3218  1.0794
  740MOL0     H99876   9.412   3.270  -1.255 -0.3274  0.3213 -1.1210
  740MOL0     H99877   9.520   3.149  -1.169  2.2062 -2.5508 -2.2407
  740MOL0     H99878   9.588   3.229  -1.456 -2.8792  0.7276 -1.5010
  740MOL0     H99879   9.641   3.096  -1.356  0.9068  1.3698 -2.0129
  740MOL0     H99880   9.527   3.332  -0.590 -0.7226  0.1301  1.9736
  740MOL0     H99881   9.431   3.117  -0.488 -0.2089 -0.1494 -2.1031
  740MOL0     H99882   9.549   2.773  -0.010  0.0222 -2.2698  0.4410
  740MOL0     H99883   9.361   2.663   0.084  3.1192  2.4788  0.3486
  740MOL0     H99884   9.607   1.888   1.697 -0.9584  3.1650 -2.0556
  740MOL0     H99885   9.540   1.816   1.904  2.5895  2.8948 -0.0767
  740MOL0     H99886   9.101   1.799   2.279 -0.2838  0.2800  0.5216
  740MOL0     H99887   9.145   1.625   2.459  1.5010 -1.3289  0.7974
  740MOL0     H99888   9.335   1.615   2.766  0.6847 -1.0910  0.1302
  740MOL0     H99889   9.418   1.751   2.699  2.5035  0.2210 -0.5599
  740MOL0     H99890   9.584   1.660   2.831 -0.9826  3.4448 -1.9080
  740MOL0     H99891   9.623   1.619   2.671  3.8037  3.7803  3.4977
  740MOL0     H99892   9.496   1.401   2.711 -0.7707  2.8187 -0.9080
  740MOL0     H99893   9.456   1.443   2.868 -0.1476 -1.1241 -0.7567
  740MOL0     H99894   9.713   1.451   2.912 -2.1838  0.7972  0.5519
  740MOL0     H99895   9.649   1.287   2.869  1.9805  0.7028  1.5228
  740MOL0     H99896   9.920   1.425   2.564  0.8692  1.9883  1.0086
  740MOL0     H99897   9.556   1.721   2.456  0.7289 -0.6585  0.5387
  740MOL0     H99898   9.590   1.792   2.126 -0.7820 -2.2019  2.3921
  740MOL0     H99899   9.545   1.968   2.167  0.8664  0.9309  1.7234
  740MOL0     H99900   9.654   1.867   2.259  2.1864 -3.2704 -2.9377
  741MOL0     O99901   7.688   5.829   2.517  0.6576  0.8653  0.5885
  741MOL0     C99902   7.650   5.815   2.400 -0.1314  0.7804 -0.1679
  741MOL0     O99903   7.535   5.858   2.344 -0.1870 -0.4819 -0.1740
  741MOL0     C99904   7.452   5.944   2.415  0.0731  0.8870 -0.2654
  741MOL0     C99905   7.313   5.957   2.376 -0.4292  0.8208 -0.5990
  741MOL0     C99906   7.227   6.044   2.439  0.4221 -0.7231  1.4693
  741MOL0     C99907   7.263   6.124   2.542  0.5033  0.4102 -0.6616
  741MOL0     O99908   7.184   6.209   2.618  0.4134 -0.2884  0.2733
  741MOL0     C99909   7.044   6.222   2.586 -0.2966 -0.3843  0.5650
  741MOL0     C99910   6.985   6.359   2.630 -0.7954  0.3167 -0.3861
  741MOL0     C99911   6.833   6.384   2.586  0.4396 -0.3283 -0.0884
  741MOL0     C99912   6.808   6.529   2.556 -0.0031 -0.1798 -0.1685
  741MOL0     C99913   6.677   6.568   2.477  0.2453  0.2479  0.0757
  741MOL0     C99914   6.685   6.713   2.419 -0.5529 -0.2210 -0.2797
  741MOL0     C99915   6.563   6.759   2.361  0.2917 -0.2601 -0.1693
  741MOL0     C99916   6.582   6.903   2.314  0.9374  0.5177  0.0623
  741MOL0     N99917   6.635   6.902   2.178  0.3595  0.5900  0.9214
  741MOL0     C99918   6.764   6.927   2.134  1.0338 -0.5247 -0.3689
  741MOL0     C99919   6.746   6.945   2.003 -1.1660 -0.2262  0.1796
  741MOL0     C99920   6.849   6.966   1.897  1.1059 -1.1659 -0.3783
  741MOL0     C99921   6.935   6.845   1.873  0.6247  0.2525  0.1977
  741MOL0     C99922   7.042   6.882   1.773  0.8326  0.5651  0.0792
  741MOL0     C99923   7.159   6.786   1.774  0.2067  0.7944 -0.1510
  741MOL0     O99924   7.234   6.778   1.897  0.1629 -0.5496  0.3440
  741MOL0     C99925   7.345   6.699   1.884  0.4987  0.2914 -0.5127
  741MOL0     C99926   7.469   6.760   1.912  1.2976 -1.7637  0.4339
  741MOL0     C99927   7.585   6.697   1.899 -1.2117  0.1828  0.4821
  741MOL0     C99928   7.586   6.558   1.864 -1.1316  0.7847  0.4279
  741MOL0     C99929   7.710   6.482   1.852 -0.5963 -0.7789 -0.4100
  741MOL0     O99930   7.718   6.384   1.761 -0.0029 -0.8953  0.4264
  741MOL0     C99931   7.783   6.264   1.786  0.2991 -1.1570  0.0450
  741MOL0     C99932   7.799   6.182   1.674  0.4824  0.3005  0.5343
  741MOL0     C99933   7.868   6.059   1.691  0.6688 -0.2249 -0.6579
  741MOL0     C99934   7.917   6.013   1.818  0.7568  0.0765  0.2151
  741MOL0     O99935   7.983   5.901   1.835 -0.5559 -0.4811  0.1109
  741MOL0     C99936   7.957   5.795   1.745 -0.1015  0.6116 -0.6884
  741MOL0     C99937   8.037   5.669   1.795 -0.2673 -0.7280 -0.5718
  741MOL0     C99938   8.029   5.554   1.702 -0.0751  0.6983  0.5378
  741MOL0     C99939   7.896   5.503   1.647  1.1600  0.2821  0.4595
  741MOL0     C99940   7.816   5.389   1.706 -0.0774 -0.8392 -0.3511
  741MOL0     C99941   7.865   5.249   1.682 -0.6026  0.4114  0.0146
  741MOL0     C99942   7.923   5.199   1.544 -0.8647 -1.3733 -0.5391
  741MOL0     C99943   7.987   5.060   1.548  0.0608 -0.2952  0.8071
  741MOL0    Cl99944   7.866   4.933   1.568 -0.0664 -0.4301 -0.0294
  741MOL0     C99945   7.897   6.104   1.932  1.6002  0.3346 -0.0379
  741MOL0     C99946   7.829   6.227   1.918 -0.7349  0.0961  0.7100
  741MOL0     O99947   7.795   6.515   1.940 -0.0736  0.4458  0.6092
  741MOL0     C99948   7.458   6.505   1.839 -1.0881  0.5775  0.4704
  741MOL0     C99949   7.338   6.566   1.845  0.3679  0.7543  0.0390
  741MOL0     N99950   6.622   6.919   1.963 -0.7356  0.6206  1.2212
  741MOL0     N99951   6.558   6.894   2.068  0.0986  0.0739 -0.5486
  741MOL0     C99952   7.396   6.115   2.591 -0.1337 -0.1951  0.6761
  741MOL0     C99953   7.482   6.022   2.520 -0.6893 -0.5758 -0.6128
  741MOL0     C99954   7.725   5.712   2.327  1.4538 -1.3740  0.5075
  741MOL0     C99955   7.754   5.584   2.389  0.4144  0.1042 -0.5047
  741MOL0     C99956   7.803   5.474   2.306  0.3584  0.5642  0.1133
  741MOL0     C99957   7.839   5.496   2.173 -0.2341 -0.7063  0.3972
  741MOL0     O99958   7.902   5.399   2.097 -0.7484  0.3590  0.6369
  741MOL0     C99959   7.956   5.279   2.152 -0.4178 -0.8455  0.1292
  741MOL0     C99960   8.060   5.224   2.055 -0.1089  0.0543  0.3740
  741MOL0     C99961   8.162   5.128   2.105 -0.6705 -0.3600  0.1825
  741MOL0     C99962   8.103   5.000   2.171  0.5609  1.1172 -0.2996
  741MOL0     C99963   8.043   4.913   2.072 -0.6015  0.0215  0.0835
  741MOL0     C99964   8.012   4.872   1.967 -0.4000 -0.3683  0.2486
  741MOL0     C99965   7.804   5.623   2.123 -0.2106  0.2117 -0.7168
  741MOL0     C99966   7.755   5.729   2.195  0.3864 -0.2988  0.5106
  741MOL0     C99967   7.720   5.852   2.112 -0.3305 -0.4469 -1.3375
  741MOL0     H99968   7.278   5.885   2.303  2.6121 -0.4423 -0.9796
  741MOL0     H99969   7.124   6.030   2.405  1.0411 -1.3052 -0.2612
  741MOL0     H99970   7.027   6.222   2.478 -0.9005  0.0616  0.6518
  741MOL0     H99971   6.985   6.142   2.631 -0.7174  0.9183  2.4383
  741MOL0     H99972   7.046   6.436   2.582  0.8183  0.5777  1.9421
  741MOL0     H99973   6.993   6.364   2.739  0.5787 -0.2553 -0.4426
  741MOL0     H99974   6.766   6.347   2.664  1.7473 -1.2490  0.6360
  741MOL0     H99975   6.812   6.317   2.502 -2.0855 -1.6996  1.4985
  741MOL0     H99976   6.800   6.577   2.654  1.4057  1.6901 -0.9111
  741MOL0     H99977   6.893   6.574   2.504  0.3573 -0.0112  0.5500
  741MOL0     H99978   6.645   6.494   2.402 -0.1647  0.8819 -0.3791
  741MOL0     H99979   6.586   6.550   2.535  0.1661  0.5632  0.0522
  741MOL0     H99980   6.701   6.776   2.507 -2.6534  0.2754 -0.2007
  741MOL0     H99981   6.762   6.728   2.343 -0.2256 -1.2730 -0.1721
  741MOL0     H99982   6.486   6.761   2.439  0.0708 -4.3800 -0.0534
  741MOL0     H99983   6.543   6.688   2.280  2.0882 -2.2167  1.0107
  741MOL0     H99984   6.490   6.962   2.316  2.4565  3.0256  1.1320
  741MOL0     H99985   6.650   6.949   2.386  3.4776 -3.0688  0.2071
  741MOL0     H99986   6.848   6.954   2.197  0.0940  0.2876  0.5961
  741MOL0     H99987   6.802   7.006   1.807 -2.2787 -0.5122  1.5350
  741MOL0     H99988   6.904   7.053   1.935  0.2062 -0.9864  0.5452
  741MOL0     H99989   6.975   6.817   1.971  0.1741 -0.2237  0.2482
  741MOL0     H99990   6.877   6.761   1.835  1.2302 -0.3207  0.5111
  741MOL0     H99991   7.095   6.964   1.823  2.1529 -1.2096  1.7450
  741MOL0     H99992   7.006   6.912   1.674 -2.1016  3.6128  1.8447
  741MOL0     H99993   7.232   6.820   1.700  0.4073  3.4930  1.1937
  741MOL0     H99994   7.111   6.690   1.752  1.3665 -0.2835  1.7465
  741MOL0     H99995   7.474   6.862   1.947  2.5997 -1.6890  0.0951
  741MOL0     H99996   7.676   6.757   1.906  1.1005 -2.3001 -3.8589
  741MOL0     H99997   7.757   6.211   1.578  0.3574 -0.4947  0.3461
  741MOL0     H99998   7.874   5.991   1.606 -6.5230  0.5599 -2.5010
  741MOL0     H99999   7.853   5.764   1.728 -0.3096  1.4316 -0.9497
  741MOL0     H    0   8.008   5.816   1.651  2.8523  1.2243  0.9326
  741MOL0     H    1   8.135   5.714   1.813 -1.4695  0.9695  2.4236
  741MOL0     H    2   8.001   5.640   1.894 -1.5763  3.4317  0.3621
  741MOL0     H    3   8.081   5.580   1.610 -1.0382 -0.4080 -0.3562
  741MOL0     H    4   8.073   5.471   1.758 -0.6761 -2.6395 -3.4811
  741MOL0     H    5   7.907   5.469   1.543 -1.9233  2.9424 -0.9294
  741MOL0     H    6   7.830   5.590   1.639  0.3736 -0.1681  1.8311
  741MOL0     H    7   7.724   5.392   1.646  0.2987 -1.1470 -0.9482
  741MOL0     H    8   7.802   5.413   1.811 -3.0856 -1.1433 -0.5999
  741MOL0     H    9   7.940   5.223   1.758 -2.6410 -3.6637  0.9781
  741MOL0     H   10   7.784   5.177   1.700 -1.3370  1.1619 -0.2072
  741MOL0     H   11   7.995   5.268   1.498 -2.9396  0.7154 -0.8209
  741MOL0     H   12   7.833   5.186   1.483 -1.5702 -3.1615  0.7831
  741MOL0     H   13   8.040   5.049   1.452  3.4010 -3.1556  2.7352
  741MOL0     H   14   8.066   5.052   1.624  1.7598  0.7561 -0.7447
  741MOL0     H   15   7.916   6.062   2.030 -0.5293  0.7609  0.5985
  741MOL0     H   16   7.815   6.287   2.007 -0.5054  0.1784  0.6915
  741MOL0     H   17   7.461   6.399   1.812  0.3479  1.4989 -3.7987
  741MOL0     H   18   7.235   6.534   1.832 -1.0332  4.6168  0.2888
  741MOL0     H   19   7.428   6.174   2.677  1.0707 -1.8685  1.4272
  741MOL0     H   20   7.582   6.040   2.559 -1.9949  0.8571  2.4865
  741MOL0     H   21   7.728   5.576   2.494 -0.7832  2.7800 -0.5092
  741MOL0     H   22   7.834   5.386   2.361  3.3676 -0.6337 -3.1236
  741MOL0     H   23   7.873   5.209   2.167 -1.1547  0.3117  1.7301
  741MOL0     H   24   8.009   5.306   2.243 -0.8227 -0.5903  0.2893
  741MOL0     H   25   8.119   5.310   2.024 -0.1668 -0.2291 -0.5397
  741MOL0     H   26   8.019   5.184   1.962  2.0814  1.9595 -1.5174
  741MOL0     H   27   8.217   5.182   2.183 -2.0318 -0.2527  1.1095
  741MOL0     H   28   8.219   5.110   2.014 -2.0087  0.2196 -0.8006
  741MOL0     H   29   8.188   4.947   2.214 -0.9560 -1.2545 -0.0372
  741MOL0     H   30   8.022   5.022   2.242 -0.4282  0.7154 -1.2632
  741MOL0     H   31   7.958   4.841   1.880 -1.2840 -0.2565  0.7522
  741MOL0     H   32   7.814   5.649   2.018 -1.3546 -0.4326 -1.0039
  741MOL0     H   33   7.623   5.834   2.064 -1.8482  0.3642  1.1925
  741MOL0     H   34   7.711   5.947   2.166  1.8503 -1.5907  1.2593
  741MOL0     H   35   7.802   5.862   2.040  3.3876  1.9091  2.7219
  742MOL0     O   36   1.657   9.962   2.871 -0.4561  0.7506  0.1976
  742MOL0     C   37   1.538   9.953   2.903 -0.2837 -0.6995  0.1105
  742MOL0     O   38   1.435   9.896   2.823 -0.0407  0.1462  0.6603
  742MOL0     C   39   1.461   9.850   2.697 -0.2389 -0.3367 -0.3252
  742MOL0     C   40   1.437   9.928   2.586 -0.4498 -0.0874 -0.9063
  742MOL0     C   41   1.471   9.875   2.449 -0.2449  0.4723 -0.0498
  742MOL0     C   42   1.516   9.744   2.432 -0.3082  0.0750  0.1115
  742MOL0     O   43   1.560   9.685   2.317 -0.1502  0.3774  0.3383
  742MOL0     C   44   1.646   9.763   2.227  0.2484  0.8668 -0.6295
  742MOL0     C   45   1.635   9.683   2.109  0.5000 -0.2902  0.4541
  742MOL0     C   46   1.696   9.741   1.985  0.9204 -0.4524  0.2498
  742MOL0     C   47   1.588   9.790   1.881  0.1701 -0.0415 -0.8043
  742MOL0     C   48   1.518   9.678   1.801 -0.1724 -0.2401  0.4349
  742MOL0     C   49   1.426   9.727   1.687 -0.1601 -0.8080  0.3650
  742MOL0     C   50   1.294   9.775   1.750 -0.3057 -0.6243 -0.6396
  742MOL0     C   51   1.202   9.826   1.644 -0.0399 -0.3168  0.6018
  742MOL0     N   52   1.070   9.863   1.694 -0.0058  0.0277  0.1708
  742MOL0     C   53   1.044   9.924   1.821 -0.8315 -1.1694 -0.3510
  742MOL0     C   54   0.904   9.932   1.820  0.2745  0.1000 -0.1592
  742MOL0     C   55   0.805   9.950   1.938  0.7132  0.1484  0.3683
  742MOL0     C   56   0.789  10.094   1.987 -0.5665 -0.0117  0.3334
  742MOL0     C   57   0.918  10.147   2.047  0.2490 -0.1857  0.7626
  742MOL0     C   58   0.949  10.085   2.187 -0.7814 -1.1816 -0.3279
  742MOL0     O   59   1.061  10.165   2.232 -0.9295  0.2650 -0.2432
  742MOL0     C   60   1.040  10.273   2.322  0.1076  0.7643  0.4396
  742MOL0     C   61   0.926  10.312   2.396  0.8095 -0.8378 -0.4842
  742MOL0     C   62   0.935  10.412   2.493 -0.0251 -0.2455 -0.4853
  742MOL0     C   63   1.051  10.483   2.513  0.1862 -0.9723 -0.2807
  742MOL0     C   64   1.058  10.613   2.596  0.2162 -0.1360 -0.3233
  742MOL0     O   65   1.177  10.681   2.602 -0.2505 -0.0258  0.9038
  742MOL0     C   66   1.188  10.802   2.677  0.3777 -0.3212 -0.0596
  742MOL0     C   67   1.302  10.889   2.647 -0.1645 -0.0656  0.4603
  742MOL0     C   68   1.328  11.002   2.718  0.4768  0.2339  0.1396
  742MOL0     C   69   1.238  11.044   2.812  0.2643  0.5308 -0.5918
  742MOL0     O   70   1.267  11.169   2.875 -0.6415 -0.7277  0.1112
  742MOL0     C   71   1.166  11.237   2.949  0.8656  0.4829 -0.2949
  742MOL0     C   72   1.196  11.372   3.009 -0.6579 -0.2526 -0.0025
  742MOL0     C   73   1.252  11.470   2.925 -0.1330  0.3349  0.7835
  742MOL0     C   74   1.289  11.591   3.005 -0.1153 -0.1336 -1.6875
  742MOL0     C   75   1.320  11.709   2.911 -0.0195 -0.7040 -0.3845
  742MOL0     C   76   1.187  11.788   2.893  0.2492  0.7257  0.1680
  742MOL0     C   77   1.188  11.898   2.784  0.6137 -0.2035 -0.0750
  742MOL0     C   78   1.261  12.025   2.846  0.4279 -0.8304 -0.2610
  742MOL0    Cl   79   1.293  12.133   2.718 -0.2912 -0.0685 -0.0401
  742MOL0     C   80   1.121  10.968   2.844 -0.0594 -0.1370 -0.7518
  742MOL0     C   81   1.099  10.842   2.785 -0.1289 -0.7540  0.8588
  742MOL0     O   82   0.953  10.651   2.651  0.7139 -0.5947  0.1231
  742MOL0     C   83   1.161  10.446   2.431 -0.1461 -0.4199  0.3612
  742MOL0     C   84   1.156  10.342   2.335  0.8897  0.1459 -1.0809
  742MOL0     N   85   0.863   9.876   1.700 -0.5900 -0.9241 -0.3126
  742MOL0     N   86   0.958   9.839   1.630 -0.1423  0.0319  0.2793
  742MOL0     C   87   1.521   9.664   2.544  0.6106 -0.2642  1.1750
  742MOL0     C   88   1.500   9.717   2.667  0.0617 -0.5354 -0.3659
  742MOL0     C   89   1.502  10.013   3.036  0.2706  0.3166  0.1452
  742MOL0     C   90   1.419   9.931   3.116  0.4552  0.9396  0.0853
  742MOL0     C   91   1.389   9.970   3.240 -0.4561 -0.3155  0.2109
  742MOL0     C   92   1.449  10.083   3.305  0.3888 -0.6524  0.7542
  742MOL0     O   93   1.405  10.119   3.426  0.6474 -0.6766 -0.9510
  742MOL0     C   94   1.489  10.216   3.497 -0.8942  0.1705 -0.3959
  742MOL0     C   95   1.631  10.156   3.548  0.5978 -0.2548  0.2607
  742MOL0     C   96   1.607  10.075   3.675  0.4603  0.0424 -0.1706
  742MOL0     C   97   1.734  10.053   3.766  1.0124 -0.1688  0.4615
  742MOL0     C   98   1.833   9.985   3.680  0.2643  0.0447  0.1842
  742MOL0     C   99   1.908   9.939   3.597 -0.1297  0.7133 -0.6390
  742MOL0     C  100   1.523  10.168   3.224  0.2207 -0.2747  0.2745
  742MOL0     C  101   1.553  10.132   3.091  0.4914 -0.1220  0.3432
  742MOL0     C  102   1.631  10.229   3.007  0.8004 -0.3338  0.2017
  742MOL0     H  103   1.400  10.029   2.595  0.4497  0.2145 -0.4732
  742MOL0     H  104   1.460   9.942   2.365 -0.1600  0.9604  0.3245
  742MOL0     H  105   1.608   9.864   2.207  0.8231  1.3266  0.4947
  742MOL0     H  106   1.752   9.760   2.253 -0.4279 -0.0611  2.3620
  742MOL0     H  107   1.528   9.672   2.088 -0.3932  2.0953  3.2113
  742MOL0     H  108   1.680   9.588   2.140  0.8749 -0.3616 -0.2747
  742MOL0     H  109   1.766   9.673   1.936 -0.2312 -0.9735 -0.7392
  742MOL0     H  110   1.756   9.825   2.021  1.0864 -1.1322  1.6161
  742MOL0     H  111   1.510   9.847   1.931  0.6403 -1.3184  1.5503
  742MOL0     H  112   1.637   9.861   1.814  1.2103  2.4690  2.3943
  742MOL0     H  113   1.599   9.633   1.742  0.5186  2.1206 -0.5429
  742MOL0     H  114   1.486   9.595   1.864  2.7421 -1.8197  0.0199
  742MOL0     H  115   1.463   9.803   1.618 -0.7731 -0.5093  0.3594
  742MOL0     H  116   1.405   9.649   1.614  1.7593 -0.0941 -1.0438
  742MOL0     H  117   1.319   9.861   1.812 -1.9418 -1.5343  1.4240
  742MOL0     H  118   1.243   9.704   1.816 -0.9234  1.8873  1.7780
  742MOL0     H  119   1.244   9.915   1.598 -0.2470  0.5097  1.9594
  742MOL0     H  120   1.181   9.750   1.568  1.3063 -0.4105  0.3016
  742MOL0     H  121   1.117   9.949   1.897  0.6355 -3.2429 -0.9703
  742MOL0     H  122   0.709   9.911   1.903  0.4371  0.6537  0.5510
  742MOL0     H  123   0.826   9.869   2.009 -2.1059 -1.0966 -0.0641
  742MOL0     H  124   0.787  10.164   1.903  1.0340 -0.3312 -0.0186
  742MOL0     H  125   0.701  10.107   2.050 -1.0684  0.4485 -0.4507
  742MOL0     H  126   0.899  10.254   2.056 -3.4692 -0.7968  2.0230
  742MOL0     H  127   1.010  10.126   1.992 -0.2297 -1.0616  0.2713
  742MOL0     H  128   0.985   9.983   2.171 -0.0863 -0.7491 -1.6716
  742MOL0     H  129   0.862  10.082   2.254 -1.4552  2.6553 -0.8146
  742MOL0     H  130   0.836  10.251   2.394  1.4343 -1.8767  1.2993
  742MOL0     H  131   0.850  10.441   2.554  0.2409 -1.1859  0.3541
  742MOL0     H  132   1.358  10.874   2.555 -0.2381  0.3932  0.3383
  742MOL0     H  133   1.407  11.075   2.701  0.0129  0.8278  0.4795
  742MOL0     H  134   1.071  11.248   2.896 -0.7468  1.0565  2.4668
  742MOL0     H  135   1.147  11.172   3.034  1.9496  3.4051  2.4035
  742MOL0     H  136   1.109  11.401   3.069  0.0375  0.7554  0.5460
  742MOL0     H  137   1.273  11.338   3.079 -1.0849  0.0886  0.6475
  742MOL0     H  138   1.343  11.438   2.875 -0.0880  1.0728  0.3780
  742MOL0     H  139   1.179  11.482   2.845 -2.2671  0.1721  2.5938
  742MOL0     H  140   1.384  11.567   3.054 -0.7907  0.6950  0.1250
  742MOL0     H  141   1.222  11.614   3.088  0.4502  1.1554 -1.5589
  742MOL0     H  142   1.363  11.678   2.815 -0.3339 -0.3431 -0.6428
  742MOL0     H  143   1.394  11.777   2.955 -2.5555  1.7775  0.3609
  742MOL0     H  144   1.107  11.724   2.855  2.5723 -1.1827 -1.9568
  742MOL0     H  145   1.168  11.837   2.988 -1.7891  1.2152 -0.4421
  742MOL0     H  146   1.080  11.914   2.776  0.6977 -0.3621 -2.0855
  742MOL0     H  147   1.229  11.873   2.686 -0.0557  0.0177 -0.4217
  742MOL0     H  148   1.208  12.076   2.927  4.1733 -1.8408  3.1803
  742MOL0     H  149   1.354  12.008   2.901  1.5380 -0.6888 -2.0058
  742MOL0     H  150   1.061  10.994   2.931 -2.2748 -0.4292 -2.1034
  742MOL0     H  151   1.023  10.776   2.827 -1.0751 -0.5329 -0.4589
  742MOL0     H  152   1.263  10.482   2.437 -0.1731 -0.0738 -0.9414
  742MOL0     H  153   1.250  10.331   2.282  1.7097  1.3930  0.0531
  742MOL0     H  154   1.534   9.557   2.530  0.2116 -0.0864 -0.8056
  742MOL0     H  155   1.493   9.640   2.743 -2.5064 -0.7936 -0.7820
  742MOL0     H  156   1.374   9.842   3.076 -1.3308  1.2550  1.2847
  742MOL0     H  157   1.313   9.916   3.297  1.0444  0.3855  3.0876
  742MOL0     H  158   1.447  10.251   3.591  0.1472  0.6098 -0.0823
  742MOL0     H  159   1.490  10.311   3.443  0.9090  0.0214 -0.6895
  742MOL0     H  160   1.693  10.243   3.570  0.8644  0.8533 -4.0074
  742MOL0     H  161   1.674  10.094   3.468 -0.1661 -0.1549 -0.2427
  742MOL0     H  162   1.549   9.987   3.645 -4.6239  2.9108  0.2826
  742MOL0     H  163   1.536  10.129   3.738 -0.9614 -1.5632 -0.3324
  742MOL0     H  164   1.787  10.142   3.801 -1.4016  0.8076  1.8356
  742MOL0     H  165   1.706   9.989   3.850  0.7073 -1.5316 -0.6440
  742MOL0     H  166   1.978   9.881   3.540 -0.2277 -0.4010  0.3257
  742MOL0     H  167   1.568  10.262   3.255 -0.8680 -0.5146  2.8031
  742MOL0     H  168   1.667  10.189   2.912 -0.1933 -2.1788  0.5586
  742MOL0     H  169   1.570  10.314   2.973  1.0988 -0.7862 -1.5484
  742MOL0     H  170   1.717  10.254   3.070  1.6147 -0.0381 -0.9856
  743MOL0     O  171   9.122   9.457   1.498 -0.2514  0.0136  0.0120
  743MOL0     C  172   9.013   9.479   1.448 -0.3936 -0.4043 -0.1437
  743MOL0     O  173   8.943   9.402   1.354 -0.4025 -0.0303  0.2098
  743MOL0     C  174   8.967   9.267   1.346 -1.1197 -0.1705 -0.6490
  743MOL0     C  175   9.090   9.218   1.319 -0.1311 -1.0033  0.0946
  743MOL0     C  176   9.131   9.089   1.320  0.0544 -0.0602  0.7606
  743MOL0     C  177   9.036   8.991   1.367  0.0163  0.0935  1.2226
  743MOL0     O  178   9.066   8.858   1.350  0.2208  0.6150  1.0597
  743MOL0     C  179   8.974   8.764   1.403 -1.0751  0.3638 -0.2824
  743MOL0     C  180   9.001   8.616   1.394 -0.2926 -0.3934 -0.4664
  743MOL0     C  181   9.050   8.576   1.249 -0.7544  0.4691 -0.1637
  743MOL0     C  182   9.191   8.524   1.236 -0.9816  0.2030 -0.1356
  743MOL0     C  183   9.196   8.444   1.104 -0.2429 -0.2904 -0.3153
  743MOL0     C  184   9.270   8.514   1.000 -0.8040 -0.1328  0.3578
  743MOL0     C  185   9.205   8.641   0.943  0.4237  0.7771  0.0443
  743MOL0     C  186   9.276   8.689   0.818 -0.1077  0.7176 -0.1617
  743MOL0     N  187   9.244   8.611   0.694 -0.2126  0.2316  0.0409
  743MOL0     C  188   9.128   8.622   0.624  0.7880 -0.3557  0.1852
  743MOL0     C  189   9.146   8.562   0.505  0.0473  0.1762 -1.0701
  743MOL0     C  190   9.057   8.556   0.396  0.4989 -0.4836  0.7883
  743MOL0     C  191   9.001   8.691   0.348 -0.3270 -0.2988  0.5426
  743MOL0     C  192   9.106   8.804   0.341  0.4097  0.3105 -0.2547
  743MOL0     C  193   9.047   8.940   0.320 -0.0500  0.8794  0.6272
  743MOL0     O  194   8.955   8.966   0.424 -0.7052  0.2099  0.0761
  743MOL0     C  195   9.003   8.989   0.553 -0.3296  0.1323  1.2499
  743MOL0     C  196   8.917   8.960   0.667 -0.3184  0.2654  0.7952
  743MOL0     C  197   8.968   8.990   0.790  0.5648  0.3534 -0.8209
  743MOL0     C  198   9.091   9.050   0.807 -0.3566  0.0933 -1.2319
  743MOL0     C  199   9.164   9.055   0.946 -0.0651 -0.0386 -0.2883
  743MOL0     O  200   9.249   9.149   0.973 -0.0335 -0.6815 -0.6569
  743MOL0     C  201   9.214   9.283   1.008 -0.3216  0.5610 -0.3233
  743MOL0     C  202   9.314   9.382   1.038 -0.0952  0.3922 -0.1498
  743MOL0     C  203   9.272   9.513   1.070  0.1677 -0.1775  0.3083
  743MOL0     C  204   9.144   9.555   1.064  1.0753  0.1518 -0.2302
  743MOL0     O  205   9.116   9.688   1.103  0.3923  0.5963  0.4364
  743MOL0     C  206   9.204   9.765   1.191  0.8838  0.4801  0.7242
  743MOL0     C  207   9.130   9.905   1.223  0.7639  0.3790  0.4451
  743MOL0     C  208   9.226  10.019   1.199 -0.3562 -0.3567 -0.7383
  743MOL0     C  209   9.167  10.161   1.256 -0.7075  0.3922  0.6115
  743MOL0     C  210   9.259  10.270   1.211 -0.1566  0.2103 -0.0679
  743MOL0     C  211   9.200  10.405   1.261  0.7969  0.1967 -0.1303
  743MOL0     C  212   9.302  10.519   1.288 -0.3205  0.6754 -0.6897
  743MOL0     C  213   9.252  10.657   1.255 -0.0046 -0.4864  0.5725
  743MOL0    Cl  214   9.208  10.678   1.081 -0.2723 -0.0537 -0.0068
  743MOL0     C  215   9.046   9.464   1.021  0.0572  0.7615  0.3814
  743MOL0     C  216   9.083   9.332   0.993  0.2338 -0.4482 -0.4975
  743MOL0     O  217   9.134   8.970   1.027  0.1135  0.1985 -0.1087
  743MOL0     C  218   9.171   9.083   0.693  1.1733 -0.4921  0.1145
  743MOL0     C  219   9.129   9.050   0.569 -0.5504  1.4629  0.5690
  743MOL0     N  220   9.273   8.516   0.503 -0.1690  0.1307 -0.2472
  743MOL0     N  221   9.334   8.544   0.616 -0.2252 -0.2350 -0.5611
  743MOL0     C  222   8.908   9.043   1.402 -0.4011 -0.1104  0.3810
  743MOL0     C  223   8.876   9.179   1.396 -0.0794  0.2658  0.5680
  743MOL0     C  224   8.949   9.609   1.468 -0.2077 -0.3581  1.1875
  743MOL0     C  225   8.858   9.644   1.377  1.1483 -0.4400  0.1822
  743MOL0     C  226   8.783   9.759   1.397  0.2539 -1.1783 -0.5005
  743MOL0     C  227   8.806   9.844   1.505 -0.6303  0.2693  0.5815
  743MOL0     O  228   8.761   9.970   1.516  0.1087  0.2995 -0.3421
  743MOL0     C  229   8.848  10.058   1.446  0.1960  0.2423 -0.1431
  743MOL0     C  230   8.801  10.197   1.461  0.4860 -0.4322 -0.1601
  743MOL0     C  231   8.851  10.272   1.580 -0.6476 -0.0771  0.1422
  743MOL0     C  232   8.778  10.401   1.587 -0.6879  0.4302  0.3510
  743MOL0     C  233   8.848  10.513   1.507  0.6980  0.5596 -0.2592
  743MOL0     C  234   8.894  10.606   1.445  0.3632  0.1528  1.2975
  743MOL0     C  235   8.891   9.801   1.601  0.3608  0.2328 -0.1620
  743MOL0     C  236   8.968   9.687   1.588  0.7633  0.7142  0.0778
  743MOL0     C  237   9.043   9.646   1.713 -0.1558  0.1002 -0.5614
  743MOL0     H  238   9.166   9.289   1.287 -0.2972 -0.8739 -0.0107
  743MOL0     H  239   9.230   9.066   1.282 -0.3200  1.5577 -1.3951
  743MOL0     H  240   8.948   8.788   1.507 -5.9586  0.8672 -1.3712
  743MOL0     H  241   8.881   8.783   1.349 -0.1330  1.4926 -1.5662
  743MOL0     H  242   8.924   8.547   1.428  1.9348 -2.0612  1.4901
  743MOL0     H  243   9.079   8.600   1.470 -2.7830 -2.2258  1.8911
  743MOL0     H  244   9.020   8.662   1.188 -2.5528 -0.1823 -0.2558
  743MOL0     H  245   8.977   8.496   1.232 -1.8586  0.5676  3.2952
  743MOL0     H  246   9.263   8.606   1.222  1.4477 -1.9512 -1.1705
  743MOL0     H  247   9.220   8.470   1.327 -0.2156  2.0855  0.8009
  743MOL0     H  248   9.249   8.351   1.125 -1.2034 -0.7080  0.3356
  743MOL0     H  249   9.097   8.409   1.071 -1.0478 -1.1096  2.6470
  743MOL0     H  250   9.366   8.551   1.037  0.3735  1.1470 -3.5360
  743MOL0     H  251   9.276   8.446   0.914 -3.5412 -0.0307 -0.0070
  743MOL0     H  252   9.205   8.721   1.017 -0.1114 -0.8882  1.9574
  743MOL0     H  253   9.099   8.614   0.934 -0.4405  3.3339  1.5022
  743MOL0     H  254   9.248   8.793   0.801 -3.6077  0.1738  1.5075
  743MOL0     H  255   9.384   8.683   0.835 -0.0270 -0.1233 -0.8983
  743MOL0     H  256   9.049   8.684   0.664 -1.6139 -1.9021 -1.8414
  743MOL0     H  257   9.110   8.500   0.319  2.4221 -0.3933  2.0000
  743MOL0     H  258   8.973   8.489   0.419  0.5456 -0.6514  0.4888
  743MOL0     H  259   8.952   8.685   0.250  1.4845  0.7628 -0.4972
  743MOL0     H  260   8.922   8.711   0.421 -1.4145 -1.7982 -0.1848
  743MOL0     H  261   9.166   8.771   0.256  0.0124 -0.2500 -0.3266
  743MOL0     H  262   9.164   8.822   0.431 -0.3323  0.8720  0.1127
  743MOL0     H  263   8.992   8.932   0.226 -0.2765 -0.2054  0.8401
  743MOL0     H  264   9.118   9.020   0.298 -0.6721  1.0777 -0.7805
  743MOL0     H  265   8.821   8.919   0.639  0.7679 -1.9679  0.0257
  743MOL0     H  266   8.908   8.971   0.879 -2.1188  1.5012 -2.2696
  743MOL0     H  267   9.420   9.359   1.029 -0.0301  0.5245  0.2527
  743MOL0     H  268   9.347   9.589   1.087  1.0377 -1.2995  1.6947
  743MOL0     H  269   9.219   9.710   1.284 -0.7928  0.4733  1.0137
  743MOL0     H  270   9.304   9.780   1.151  1.6355 -1.7370  1.5982
  743MOL0     H  271   9.048   9.905   1.151 -0.9266  0.1792  2.2717
  743MOL0     H  272   9.082   9.910   1.321 -0.9203 -1.4057 -0.2200
  743MOL0     H  273   9.319   9.996   1.251 -2.2843 -4.2210  1.5214
  743MOL0     H  274   9.235  10.020   1.091 -0.2995 -0.7979 -0.7401
  743MOL0     H  275   9.166  10.169   1.365  1.5041  0.2016  0.6881
  743MOL0     H  276   9.071  10.177   1.207  0.7834  4.3801 -1.4445
  743MOL0     H  277   9.267  10.268   1.102  0.8497  3.0185 -0.1216
  743MOL0     H  278   9.352  10.255   1.266 -2.0625  3.2964  4.5857
  743MOL0     H  279   9.132  10.438   1.183  2.5024 -1.1468 -2.3198
  743MOL0     H  280   9.153  10.389   1.358 -2.1543  2.4714 -1.0751
  743MOL0     H  281   9.391  10.493   1.230  0.6156 -0.2724  1.0876
  743MOL0     H  282   9.336  10.525   1.392  0.6038  1.1490 -1.0086
  743MOL0     H  283   9.158  10.680   1.306 -1.0842 -1.0882 -1.0658
  743MOL0     H  284   9.330  10.723   1.293  0.3263  0.1342 -1.0901
  743MOL0     H  285   8.939   9.470   1.033 -0.1518 -1.7070  0.3769
  743MOL0     H  286   8.989   9.277   0.987 -0.9328  1.4743 -0.9454
  743MOL0     H  287   9.264   9.137   0.706  0.1649  1.1091  1.0235
  743MOL0     H  288   9.187   9.072   0.480  0.5442 -1.2364  0.5125
  743MOL0     H  289   8.830   8.979   1.442  2.8070 -3.7250  1.4975
  743MOL0     H  290   8.783   9.223   1.432  1.3956  3.4181  0.8495
  743MOL0     H  291   8.837   9.587   1.287 -4.2984  1.5693 -0.2069
  743MOL0     H  292   8.704   9.794   1.330 -1.9554 -4.1056  0.3580
  743MOL0     H  293   8.837  10.035   1.340  0.3605 -0.2750 -0.0490
  743MOL0     H  294   8.952  10.046   1.477  0.5881  0.2829 -1.3922
  743MOL0     H  295   8.691  10.199   1.457  0.5240  0.0648 -3.2732
  743MOL0     H  296   8.832  10.242   1.366  1.5715 -2.8808 -1.0519
  743MOL0     H  297   8.959  10.289   1.576 -0.5738 -0.7744 -1.2734
  743MOL0     H  298   8.826  10.212   1.668  1.0890 -1.6970 -0.4220
  743MOL0     H  299   8.672  10.395   1.563 -1.3425  3.3162  2.0750
  743MOL0     H  300   8.775  10.435   1.691 -1.5270 -1.2618  0.9107
  743MOL0     H  301   8.950  10.686   1.401  0.4270  0.1152  1.3116
  743MOL0     H  302   8.912   9.863   1.688  1.3394  3.3408 -2.4254
  743MOL0     H  303   8.983   9.567   1.759 -0.9286 -0.0917 -1.8344
  743MOL0     H  304   9.142   9.605   1.689  0.3325  0.3948  0.8713
  743MOL0     H  305   9.070   9.733   1.772  0.2647  0.8610 -1.8262
  744MOL0     O  306   1.357   0.114   8.942 -0.0318  0.0391 -0.5092
  744MOL0     C  307   1.451   0.189   8.985  0.3700  0.7111 -1.1360
  744MOL0     O  308   1.485   0.195   9.115 -0.0785  0.1236 -0.4387
  744MOL0     C  309   1.446   0.103   9.201  0.1021  0.4884 -0.4584
  744MOL0     C  310   1.442  -0.030   9.171  0.2166  1.0667  0.1849
  744MOL0     C  311   1.426  -0.124   9.267  0.2551  0.7315  0.4739
  744MOL0     C  312   1.384  -0.090   9.395  0.1554 -0.1247  0.1245
  744MOL0     O  313   1.342  -0.191   9.480  0.6161 -0.6962  0.1074
  744MOL0     C  314   1.323  -0.175   9.616  1.3341 -0.3822 -1.1688
  744MOL0     C  315   1.231  -0.285   9.684 -0.2231  0.3774  1.1293
  744MOL0     C  316   1.313  -0.419   9.674  0.2255 -0.4266  0.5119
  744MOL0     C  317   1.250  -0.542   9.735  0.5181  0.1038  0.3992
  744MOL0     C  318   1.261  -0.539   9.887 -1.2547  0.4034  0.4760
  744MOL0     C  319   1.193  -0.661   9.947 -0.1630  0.5388  0.4954
  744MOL0     C  320   1.217  -0.681  10.097  0.7609 -0.0078  0.1768
  744MOL0     C  321   1.091  -0.604  10.167  0.1398  0.9103 -1.5878
  744MOL0     N  322   1.075  -0.655  10.306 -1.0495 -0.1082  0.4576
  744MOL0     C  323   1.189  -0.657  10.392 -0.0148 -0.5848 -0.0058
  744MOL0     C  324   1.131  -0.676  10.512  0.6538  0.6611  0.1378
  744MOL0     C  325   1.218  -0.716  10.633 -0.7096 -0.8194 -0.0246
  744MOL0     C  326   1.367  -0.669  10.632 -0.2050 -0.2839  0.4012
  744MOL0     C  327   1.376  -0.520  10.636 -0.4657  0.6226  0.5220
  744MOL0     C  328   1.505  -0.487  10.560 -0.0398  0.7378  0.0874
  744MOL0     O  329   1.491  -0.509  10.421  0.0488 -0.1684  0.3613
  744MOL0     C  330   1.471  -0.397  10.341 -0.0397 -0.1035  0.2902
  744MOL0     C  331   1.564  -0.378  10.234  0.3096  0.6918  0.6302
  744MOL0     C  332   1.542  -0.284  10.132  1.1025  0.2114  0.1546
  744MOL0     C  333   1.422  -0.211  10.139  0.8760 -0.2580  0.3100
  744MOL0     C  334   1.392  -0.117  10.029 -0.1677  0.6767 -0.2956
  744MOL0     O  335   1.263  -0.085  10.009  0.8548 -0.2519  0.1562
  744MOL0     C  336   1.223   0.021   9.929  0.3066 -0.5907 -0.7658
  744MOL0     C  337   1.296   0.136   9.920  0.4867  0.0401 -0.9423
  744MOL0     C  338   1.239   0.249   9.859 -0.6703  0.9188  0.5758
  744MOL0     C  339   1.129   0.245   9.788  0.8930  1.0936 -0.5662
  744MOL0     O  340   1.082   0.334   9.692 -0.6310 -0.0516 -0.9370
  744MOL0     C  341   0.946   0.401   9.706  0.3555 -0.5102  0.1494
  744MOL0     C  342   0.833   0.334   9.619 -1.1003 -1.1155  0.4061
  744MOL0     C  343   0.883   0.333   9.475  0.3920  0.1324 -0.3085
  744MOL0     C  344   0.918   0.188   9.437  0.2296 -0.1267  0.2565
  744MOL0     C  345   1.029   0.192   9.332  0.3775  0.5040  0.1681
  744MOL0     C  346   0.995   0.277   9.208 -1.0232  0.1151  0.1592
  744MOL0     C  347   1.111   0.258   9.103 -0.0982 -0.4806  0.2099
  744MOL0     C  348   1.090   0.341   8.972 -1.0067 -0.1556 -1.5669
  744MOL0    Cl  349   0.936   0.319   8.876 -0.4573 -0.2413  0.2720
  744MOL0     C  350   1.047   0.134   9.811  0.0052  1.3447 -0.1709
  744MOL0     C  351   1.086   0.016   9.885  0.2428 -1.4241  0.0061
  744MOL0     O  352   1.477  -0.093   9.947  0.1547 -0.2530  0.3291
  744MOL0     C  353   1.332  -0.226  10.251 -0.0900  0.7211 -1.0084
  744MOL0     C  354   1.350  -0.317  10.351  0.0816 -0.6026 -0.5046
  744MOL0     N  355   0.994  -0.677  10.505  0.2630 -0.2041  0.3752
  744MOL0     N  356   0.965  -0.655  10.380 -0.1522  0.2835  0.1669
  744MOL0     C  357   1.379   0.045   9.428  0.0642  0.2365 -0.2021
  744MOL0     C  358   1.410   0.144   9.332 -0.4693  0.2062 -0.0746
  744MOL0     C  359   1.536   0.287   8.902 -0.3532  0.2969 -0.7921
  744MOL0     C  360   1.573   0.412   8.949  0.0657  0.7007 -0.5366
  744MOL0     C  361   1.636   0.505   8.861 -0.5405  1.3329 -0.9211
  744MOL0     C  362   1.686   0.466   8.732  0.6053 -0.1829 -1.3818
  744MOL0     O  363   1.760   0.565   8.665  0.0186 -0.2004  0.1733
  744MOL0     C  364   1.785   0.553   8.528  0.0240  0.1741  0.6412
  744MOL0     C  365   1.847   0.681   8.473 -0.3131  0.4456  0.2961
  744MOL0     C  366   1.991   0.722   8.499  0.0082 -0.3054 -0.2187
  744MOL0     C  367   2.075   0.623   8.574 -0.8593 -0.1391  0.6886
  744MOL0     C  368   2.198   0.693   8.605 -0.1784  0.6992 -0.3321
  744MOL0     C  369   2.292   0.756   8.634 -1.3729 -0.5982 -0.8588
  744MOL0     C  370   1.636   0.349   8.676  0.7037 -0.1957 -0.4565
  744MOL0     C  371   1.562   0.256   8.766 -0.6250 -0.3536  0.3204
  744MOL0     C  372   1.516   0.123   8.714 -0.2138 -0.7000  0.4314
  744MOL0     H  373   1.473  -0.070   9.074 -0.1651  0.3469  0.3559
  744MOL0     H  374   1.424  -0.232   9.263 -0.2390  0.5187  3.7156
  744MOL0     H  375   1.416  -0.167   9.673  0.7524 -1.6684  0.0481
  744MOL0     H  376   1.262  -0.085   9.627  0.7771 -1.0235  2.4776
  744MOL0     H  377   1.132  -0.299   9.640 -1.1071 -0.0665  3.1476
  744MOL0     H  378   1.221  -0.258   9.789  1.5902 -0.3063  1.5229
  744MOL0     H  379   1.411  -0.403   9.720  1.2040  0.2840 -1.7059
  744MOL0     H  380   1.338  -0.436   9.569  2.3067 -1.2038  1.0917
  744MOL0     H  381   1.147  -0.551   9.702  0.1957 -3.8714  1.9569
  744MOL0     H  382   1.307  -0.633   9.712 -2.7381 -2.9517  3.1455
  744MOL0     H  383   1.359  -0.521   9.932 -0.8370  4.4727 -1.6208
  744MOL0     H  384   1.197  -0.455   9.915 -3.0688 -0.9729  0.6434
  744MOL0     H  385   1.086  -0.659   9.926  0.2855  2.9803 -2.1548
  744MOL0     H  386   1.231  -0.746   9.888 -0.1903  0.0992  1.1032
  744MOL0     H  387   1.310  -0.639  10.138  1.3750 -0.6223 -0.5443
  744MOL0     H  388   1.209  -0.789  10.113  0.6209 -0.1131 -0.6014
  744MOL0     H  389   1.105  -0.495  10.176  0.8371  0.6755  4.2499
  744MOL0     H  390   0.998  -0.613  10.109 -1.3817  3.1482  0.2542
  744MOL0     H  391   1.292  -0.647  10.358 -0.2873  0.3963 -0.5869
  744MOL0     H  392   1.159  -0.683  10.720 -3.1621  0.4825 -2.0295
  744MOL0     H  393   1.210  -0.825  10.633  0.5209 -0.9732  1.9047
  744MOL0     H  394   1.437  -0.713  10.703  2.0764 -1.7411 -2.5466
  744MOL0     H  395   1.401  -0.706  10.535 -1.8370 -0.3781 -0.1711
  744MOL0     H  396   1.384  -0.486  10.740 -0.4786 -3.6744  2.1160
  744MOL0     H  397   1.286  -0.487  10.585 -1.4063 -2.2768  0.1279
  744MOL0     H  398   1.588  -0.543  10.604 -1.9780 -0.9679  1.8038
  744MOL0     H  399   1.542  -0.386  10.579  1.7340 -0.0082  0.7937
  744MOL0     H  400   1.650  -0.444  10.229  0.2268  0.6107  0.2209
  744MOL0     H  401   1.600  -0.267  10.042  0.6225  0.2006 -0.1641
  744MOL0     H  402   1.393   0.146   9.967  0.1272  0.7162 -0.3254
  744MOL0     H  403   1.287   0.346   9.853  0.8716  0.0955 -2.4873
  744MOL0     H  404   0.906   0.420   9.806 -3.4322  0.1305 -1.3202
  744MOL0     H  405   0.964   0.505   9.679 -3.4788 -0.1805 -1.8551
  744MOL0     H  406   0.805   0.234   9.655 -0.3601 -2.0936 -1.5953
  744MOL0     H  407   0.743   0.394   9.630 -1.3599 -1.5996  0.9853
  744MOL0     H  408   0.823   0.384   9.399  0.8930 -0.1307 -0.8968
  744MOL0     H  409   0.970   0.397   9.454 -1.5942  1.4843 -6.3284
  744MOL0     H  410   0.830   0.138   9.395  0.5129  0.1738 -0.7342
  744MOL0     H  411   0.942   0.120   9.519  0.1502 -3.1211 -2.0150
  744MOL0     H  412   1.037   0.086   9.307 -1.8281  0.0687  1.0543
  744MOL0     H  413   1.122   0.219   9.382  2.5484 -2.4667 -1.8682
  744MOL0     H  414   0.899   0.230   9.185 -0.4063 -3.1512  3.2774
  744MOL0     H  415   0.986   0.385   9.224 -0.1014  0.0410  1.2987
  744MOL0     H  416   1.110   0.153   9.073 -2.1647 -1.0438  2.0320
  744MOL0     H  417   1.208   0.285   9.145 -0.1319  0.7886 -0.4888
  744MOL0     H  418   1.096   0.439   9.021  2.1360 -2.3937  3.3313
  744MOL0     H  419   1.173   0.338   8.901 -0.5653 -2.2697 -1.0199
  744MOL0     H  420   0.950   0.131   9.762  0.5537 -2.8526 -1.3771
  744MOL0     H  421   1.008  -0.054   9.917 -2.6384  0.2670 -2.7314
  744MOL0     H  422   1.243  -0.165  10.255 -1.4699 -1.2251 -0.1242
  744MOL0     H  423   1.272  -0.338  10.424 -0.6268  1.6672 -0.5307
  744MOL0     H  424   1.351   0.078   9.528 -1.0853  4.2049 -1.6864
  744MOL0     H  425   1.403   0.248   9.362 -1.4379 -0.3117  1.6294
  744MOL0     H  426   1.558   0.430   9.055  1.3559 -0.5106 -0.1119
  744MOL0     H  427   1.678   0.599   8.895 -0.5553  0.8412  0.5290
  744MOL0     H  428   1.698   0.523   8.470  1.1902 -0.8273 -0.6736
  744MOL0     H  429   1.857   0.471   8.519 -0.8997 -0.7627  1.4559
  744MOL0     H  430   1.795   0.770   8.511  0.4087  0.4405  1.3371
  744MOL0     H  431   1.839   0.660   8.366 -0.2012  0.7553  0.2277
  744MOL0     H  432   1.994   0.821   8.545 -1.8475  0.1357 -0.9476
  744MOL0     H  433   2.043   0.739   8.404  0.5319  5.0026  0.7300
  744MOL0     H  434   2.022   0.596   8.665  1.0699 -1.0078  1.6214
  744MOL0     H  435   2.093   0.539   8.506 -0.9552  3.0537 -3.7265
  744MOL0     H  436   2.390   0.799   8.648 -0.4419 -2.5016 -1.2446
  744MOL0     H  437   1.669   0.325   8.576 -2.0528 -3.8982 -0.7171
  744MOL0     H  438   1.563   0.084   8.623 -3.9849  0.0290 -2.0813
  744MOL0     H  439   1.517   0.051   8.797 -4.0588  1.1647  2.3287
  744MOL0     H  440   1.412   0.133   8.681  0.7043  0.9740 -2.2900
  745MOL0     O  441   0.609   1.096   0.315 -0.0835  1.0039 -0.0291
  745MOL0     C  442   0.687   1.184   0.319  1.2570  0.4212 -0.4758
  745MOL0     O  443   0.813   1.170   0.344 -0.3782  0.5716  0.3668
  745MOL0     C  444   0.863   1.057   0.407  0.7713  0.1831  0.6540
  745MOL0     C  445   0.907   0.950   0.330  0.6858  0.1779  0.0704
  745MOL0     C  446   0.980   0.849   0.392 -0.5508 -0.1534  0.4279
  745MOL0     C  447   0.998   0.829   0.532  0.0361 -0.0569  0.6208
  745MOL0     O  448   1.054   0.717   0.589  0.1276  0.8038  0.0677
  745MOL0     C  449   0.991   0.592   0.545 -0.5517 -0.2160 -0.7896
  745MOL0     C  450   0.915   0.524   0.661  0.0571  0.8090 -1.3308
  745MOL0     C  451   1.023   0.439   0.744 -0.1071 -0.9570  1.0573
  745MOL0     C  452   0.953   0.345   0.844 -0.5377 -0.0550  0.1416
  745MOL0     C  453   1.021   0.210   0.854  0.0816 -0.1640  0.3018
  745MOL0     C  454   0.924   0.097   0.892  0.1994  0.4274 -0.4286
  745MOL0     C  455   0.922   0.054   1.039  0.1914 -0.8046 -0.1371
  745MOL0     C  456   0.912   0.166   1.142 -0.5545 -0.7505  0.9101
  745MOL0     N  457   0.842   0.110   1.262 -0.0524 -0.0626  0.7720
  745MOL0     C  458   0.715   0.061   1.256  0.2517 -0.7321 -0.2000
  745MOL0     C  459   0.679   0.020   1.378  0.6771 -0.2480 -0.3082
  745MOL0     C  460   0.550  -0.060   1.417 -0.0432  0.5059  1.3301
  745MOL0     C  461   0.546  -0.113   1.551  0.9821  0.4778 -0.7481
  745MOL0     C  462   0.436  -0.224   1.556  0.0578  0.4727  0.3149
  745MOL0     C  463   0.421  -0.280   1.707 -0.5707  0.3380  0.0498
  745MOL0     O  464   0.322  -0.189   1.758 -0.4678  0.0468 -0.3192
  745MOL0     C  465   0.224  -0.227   1.846 -0.3253 -0.1301 -0.8047
  745MOL0     C  466   0.176  -0.136   1.940  0.5875 -0.0478  0.0400
  745MOL0     C  467   0.069  -0.177   2.029 -0.3916 -0.6772  0.3785
  745MOL0     C  468   0.004  -0.300   2.015 -0.0998 -0.4301 -1.0570
  745MOL0     C  469  -0.101  -0.351   2.118 -0.0015  0.2668 -0.0654
  745MOL0     O  470  -0.122  -0.483   2.122  0.3504 -0.5784  0.6740
  745MOL0     C  471  -0.198  -0.539   2.228  0.1940  0.2956  0.1630
  745MOL0     C  472  -0.242  -0.482   2.346 -0.1177  0.1967 -0.5556
  745MOL0     C  473  -0.325  -0.553   2.431  0.1014 -0.4272 -0.8384
  745MOL0     C  474  -0.361  -0.681   2.408  0.8967 -0.0001  0.2152
  745MOL0     O  475  -0.458  -0.746   2.488 -0.1111 -0.0486  0.4461
  745MOL0     C  476  -0.534  -0.664   2.578 -0.4822 -0.2032  0.6027
  745MOL0     C  477  -0.654  -0.754   2.616  0.3300 -0.5199 -0.1954
  745MOL0     C  478  -0.774  -0.661   2.647 -0.7757 -0.7118  0.3126
  745MOL0     C  479  -0.898  -0.746   2.685 -0.3229 -0.8640  0.0076
  745MOL0     C  480  -1.018  -0.661   2.719 -0.3442  1.0542 -0.0372
  745MOL0     C  481  -1.127  -0.757   2.766 -1.2307  0.2445  0.2317
  745MOL0     C  482  -1.099  -0.838   2.884 -0.8376  0.5933 -0.9894
  745MOL0     C  483  -1.050  -0.766   3.009  0.5618 -0.0547 -0.1865
  745MOL0    Cl  484  -1.166  -0.653   3.071  0.2068 -0.2588 -0.3200
  745MOL0     C  485  -0.322  -0.747   2.290 -0.6093  0.0650 -0.4672
  745MOL0     C  486  -0.233  -0.676   2.204  0.1615  0.5729  0.5127
  745MOL0     O  487  -0.163  -0.266   2.178  0.1142 -0.5265  0.2682
  745MOL0     C  488   0.048  -0.389   1.919  0.1445  0.4357  0.7185
  745MOL0     C  489   0.151  -0.341   1.834 -0.0641  0.6760 -0.1871
  745MOL0     N  490   0.783   0.052   1.463 -0.5148 -0.8641  0.0411
  745MOL0     N  491   0.880   0.108   1.389  0.3160  0.1664  0.2668
  745MOL0     C  492   0.950   0.931   0.617 -0.5660  0.2892  0.3874
  745MOL0     C  493   0.883   1.041   0.547  0.4458  0.0678 -0.1753
  745MOL0     C  494   0.621   1.319   0.283 -0.5920  0.3790 -0.1764
  745MOL0     C  495   0.480   1.327   0.276  1.4027 -1.7759  0.0130
  745MOL0     C  496   0.411   1.442   0.243  0.2579  0.6383  0.8835
  745MOL0     C  497   0.481   1.561   0.235  0.8286 -0.1311  0.6240
  745MOL0     O  498   0.422   1.687   0.216  0.3412 -0.2512  0.3989
  745MOL0     C  499   0.311   1.705   0.131  0.0711 -0.4577 -0.3674
  745MOL0     C  500   0.206   1.802   0.197  0.3098 -0.1716  1.0401
  745MOL0     C  501   0.074   1.821   0.110 -0.3579  0.6298 -0.1607
  745MOL0     C  502  -0.046   1.856   0.195 -0.1798 -0.0487  0.4261
  745MOL0     C  503  -0.031   1.993   0.254 -0.2955  0.3682  0.0110
  745MOL0     C  504  -0.003   2.104   0.312  0.2913  0.6379 -0.1931
  745MOL0     C  505   0.614   1.560   0.257 -0.4310 -0.5956  0.4623
  745MOL0     C  506   0.689   1.440   0.273  0.0027 -0.1560  0.4566
  745MOL0     C  507   0.841   1.461   0.281  0.9341  0.3896 -0.6841
  745MOL0     H  508   0.900   0.952   0.222 -2.1771 -1.1025  0.1370
  745MOL0     H  509   1.012   0.774   0.320 -3.6505 -0.0715 -1.2149
  745MOL0     H  510   0.937   0.601   0.450  2.3524 -1.7860 -2.7686
  745MOL0     H  511   1.072   0.526   0.512  0.0021 -0.4097  0.8611
  745MOL0     H  512   0.839   0.458   0.620 -0.5796  1.9740 -2.0861
  745MOL0     H  513   0.874   0.597   0.732  1.2649 -0.5201  0.8628
  745MOL0     H  514   1.097   0.505   0.790  0.6902  1.9181 -3.6548
  745MOL0     H  515   1.078   0.380   0.671 -3.5078 -0.6956 -2.0072
  745MOL0     H  516   0.952   0.400   0.938  0.9972  0.3270 -0.0361
  745MOL0     H  517   0.849   0.334   0.810 -1.8389  2.8307  2.6732
  745MOL0     H  518   1.062   0.172   0.759 -1.2006  1.0699 -0.7794
  745MOL0     H  519   1.096   0.222   0.933 -0.8536  2.3236  0.8911
  745MOL0     H  520   0.820   0.121   0.867  0.6550  0.3534 -2.6337
  745MOL0     H  521   0.951   0.007   0.836  1.7267  1.3034 -1.1604
  745MOL0     H  522   1.020   0.007   1.056 -0.1108 -1.0820  0.9344
  745MOL0     H  523   0.850  -0.027   1.052 -0.7066 -0.0686 -0.4339
  745MOL0     H  524   1.011   0.209   1.158 -1.7321  3.0279 -0.7791
  745MOL0     H  525   0.852   0.247   1.099  3.3685  0.1405 -3.8602
  745MOL0     H  526   0.662   0.037   1.165 -0.4045 -3.8633  0.8685
  745MOL0     H  527   0.462   0.006   1.414 -0.5490 -0.1806 -0.0760
  745MOL0     H  528   0.528  -0.131   1.337 -4.3146  0.5572  2.2348
  745MOL0     H  529   0.645  -0.154   1.576  0.7214 -0.1006 -0.6428
  745MOL0     H  530   0.524  -0.031   1.621 -0.8137 -0.6815  0.1098
  745MOL0     H  531   0.469  -0.295   1.480  0.7918  0.3169  0.7555
  745MOL0     H  532   0.341  -0.190   1.515 -1.2213 -3.8961 -0.8861
  745MOL0     H  533   0.501  -0.277   1.781 -1.3835  2.1774  0.9045
  745MOL0     H  534   0.379  -0.381   1.706  0.3901 -0.1008  1.3177
  745MOL0     H  535   0.220  -0.037   1.954 -2.1929  1.2785  0.0135
  745MOL0     H  536   0.042  -0.109   2.109 -0.3490  1.3143 -1.2294
  745MOL0     H  537  -0.233  -0.375   2.359 -0.1194 -0.0881  2.5798
  745MOL0     H  538  -0.380  -0.482   2.491  0.0167 -0.7680 -0.5058
  745MOL0     H  539  -0.467  -0.640   2.662  0.7128 -2.9612  0.5488
  745MOL0     H  540  -0.574  -0.585   2.515 -0.2685 -3.8154 -4.7509
  745MOL0     H  541  -0.684  -0.819   2.534  2.3578 -0.4619 -1.0541
  745MOL0     H  542  -0.632  -0.803   2.712 -3.7663 -1.0055  0.6578
  745MOL0     H  543  -0.739  -0.593   2.725 -1.2779 -0.5869  0.4278
  745MOL0     H  544  -0.795  -0.607   2.554  0.5380 -1.2507 -0.3294
  745MOL0     H  545  -0.871  -0.814   2.767 -0.2606  1.9557  2.5064
  745MOL0     H  546  -0.929  -0.810   2.602 -2.7018 -0.7517  0.7213
  745MOL0     H  547  -1.046  -0.611   2.627  1.4205  0.2485 -1.0626
  745MOL0     H  548  -1.001  -0.583   2.794 -1.9606  0.8691  0.5621
  745MOL0     H  549  -1.222  -0.703   2.774 -1.2132  0.1768  0.9188
  745MOL0     H  550  -1.151  -0.823   2.682 -3.3542 -0.9187  1.6693
  745MOL0     H  551  -1.021  -0.913   2.866 -0.4664  0.9177 -0.7571
  745MOL0     H  552  -1.191  -0.892   2.906 -0.3875 -0.8853 -2.4989
  745MOL0     H  553  -1.023  -0.839   3.086  1.3383 -0.5587 -0.9189
  745MOL0     H  554  -0.961  -0.712   2.977  1.2051 -0.3714  0.9940
  745MOL0     H  555  -0.346  -0.852   2.276  0.0780  0.0237 -1.4247
  745MOL0     H  556  -0.193  -0.722   2.114 -0.7268  2.0648 -0.6819
  745MOL0     H  557   0.010  -0.490   1.907 -2.3491  1.4228 -0.3856
  745MOL0     H  558   0.176  -0.400   1.746  1.0515 -0.1039  0.6257
  745MOL0     H  559   0.972   0.932   0.723 -1.4888 -2.2006  0.6632
  745MOL0     H  560   0.837   1.115   0.612  1.5267  0.8395 -0.2719
  745MOL0     H  561   0.423   1.235   0.266 -1.3685 -0.0160 -1.9608
  745MOL0     H  562   0.303   1.435   0.233  0.1958 -0.7213  2.1178
  745MOL0     H  563   0.266   1.611   0.097  0.9803  0.1044 -3.3972
  745MOL0     H  564   0.344   1.752   0.038 -1.2485 -1.1653 -1.2159
  745MOL0     H  565   0.249   1.898   0.225 -1.3760  0.4825  1.5019
  745MOL0     H  566   0.171   1.755   0.289 -2.5802  0.8304  0.5404
  745MOL0     H  567   0.054   1.728   0.056 -1.0751  0.0891  0.9868
  745MOL0     H  568   0.089   1.895   0.032  1.6572 -0.6114 -1.0074
  745MOL0     H  569  -0.141   1.851   0.142  1.0948 -0.2874 -2.0180
  745MOL0     H  570  -0.049   1.778   0.271 -1.0291  2.6466  3.3755
  745MOL0     H  571   0.043   2.190   0.355  1.1033 -0.9424  2.3047
  745MOL0     H  572   0.664   1.655   0.239 -1.0032 -0.9108 -3.7904
  745MOL0     H  573   0.900   1.423   0.197  1.1750 -0.0355 -0.3248
  745MOL0     H  574   0.856   1.565   0.312  1.8904 -0.1252  0.6722
  745MOL0     H  575   0.879   1.404   0.367 -0.9547 -1.1172 -0.7800
  746MOL0     O  576   6.610   5.520   9.260  0.2157  0.0913 -0.8412
  746MOL0     C  577   6.620   5.402   9.256 -0.3224 -0.1020  0.4250
  746MOL0     O  578   6.623   5.327   9.365 -0.6492 -0.2470 -0.5950
  746MOL0     C  579   6.595   5.383   9.495  0.2964  0.3617  0.5173
  746MOL0     C  580   6.570   5.514   9.541  0.1054 -0.1858  0.5710
  746MOL0     C  581   6.550   5.546   9.672 -0.9451 -0.0458 -0.5988
  746MOL0     C  582   6.545   5.451   9.765  0.0072 -0.4843  0.1704
  746MOL0     O  583   6.512   5.469   9.897  0.3847  0.0513  0.2185
  746MOL0     C  584   6.539   5.603   9.953 -0.5204 -0.2864  0.1079
  746MOL0     C  585   6.407   5.674   9.961  0.0262  0.2900 -0.1126
  746MOL0     C  586   6.329   5.626  10.079  0.7714 -0.3867  0.6871
  746MOL0     C  587   6.265   5.477  10.059  0.1853 -0.3929  0.0248
  746MOL0     C  588   6.189   5.438  10.182 -0.0646 -0.8710 -0.1179
  746MOL0     C  589   6.160   5.285  10.196 -0.0551 -0.3490  0.7126
  746MOL0     C  590   6.073   5.235  10.080 -0.2468 -1.0377  0.0903
  746MOL0     C  591   6.021   5.087  10.081 -0.3362  0.3618 -0.3313
  746MOL0     N  592   5.877   5.080  10.092 -0.6139 -0.2975  0.2746
  746MOL0     C  593   5.810   5.099  10.206  0.0873 -0.7470  0.0797
  746MOL0     C  594   5.676   5.071  10.181  0.3255 -0.2626  0.0780
  746MOL0     C  595   5.569   5.072  10.291 -0.1222 -0.2169  0.9260
  746MOL0     C  596   5.491   4.945  10.290 -0.8142  0.2590 -0.7652
  746MOL0     C  597   5.563   4.829  10.360  0.1598  0.4126 -0.4532
  746MOL0     C  598   5.669   4.765  10.263 -0.5054  0.9881  0.5019
  746MOL0     O  599   5.798   4.757  10.324 -0.3446 -0.4612 -1.4459
  746MOL0     C  600   5.833   4.669  10.424 -0.0648  0.4997  0.5256
  746MOL0     C  601   5.758   4.568  10.481  0.7466 -0.1404 -0.2839
  746MOL0     C  602   5.808   4.490  10.586  0.2103  0.1300  0.2104
  746MOL0     C  603   5.941   4.495  10.624 -0.3932 -0.4268  0.2501
  746MOL0     C  604   6.016   4.396  10.710 -0.4203  0.9239  0.1322
  746MOL0     O  605   6.146   4.397  10.717 -0.9132 -0.8153 -0.2409
  746MOL0     C  606   6.224   4.333  10.813  0.0274  0.6174  1.1523
  746MOL0     C  607   6.348   4.380  10.841 -0.2315  0.1041  0.1369
  746MOL0     C  608   6.436   4.334  10.942 -0.2557 -0.8007  0.6538
  746MOL0     C  609   6.393   4.227  11.022  0.2786  0.4288  0.2868
  746MOL0     O  610   6.487   4.174  11.122 -0.0999 -1.2271 -0.4729
  746MOL0     C  611   6.461   4.050  11.185  0.4203  0.8013  0.1824
  746MOL0     C  612   6.559   4.045  11.297  0.2770  0.4111  0.4725
  746MOL0     C  613   6.573   3.915  11.377 -0.4058  0.2496 -0.2398
  746MOL0     C  614   6.480   3.891  11.498 -0.4605 -0.4115 -0.2280
  746MOL0     C  615   6.557   3.838  11.625  1.1470 -0.3219 -0.1988
  746MOL0     C  616   6.628   3.958  11.697 -1.3239  0.0886 -0.4435
  746MOL0     C  617   6.739   3.908  11.784 -0.0238 -0.1268  0.2463
  746MOL0     C  618   6.694   3.855  11.916  0.1756  0.5257  0.3592
  746MOL0    Cl  619   6.834   3.777  11.999  0.8806 -0.7690  0.4830
  746MOL0     C  620   6.280   4.158  10.980  0.8716  0.3233 -0.1546
  746MOL0     C  621   6.196   4.219  10.878  0.7318  0.0814  0.0030
  746MOL0     O  622   5.943   4.314  10.767 -0.0991  0.6499  0.1329
  746MOL0     C  623   6.027   4.590  10.554 -0.1228 -0.0662 -0.8325
  746MOL0     C  624   5.968   4.675  10.456 -0.0222  0.5298 -0.8164
  746MOL0     N  625   5.671   5.029  10.051  0.5329  0.3698  0.3509
  746MOL0     N  626   5.787   5.044   9.994  0.4088  0.3340  0.0080
  746MOL0     C  627   6.575   5.317   9.732 -0.2880  0.4162 -0.0887
  746MOL0     C  628   6.600   5.286   9.599 -0.9882 -0.3103 -0.7289
  746MOL0     C  629   6.608   5.335   9.127 -0.3051 -0.2989  0.2025
  746MOL0     C  630   6.604   5.195   9.131  0.5372 -0.3308 -0.5672
  746MOL0     C  631   6.616   5.121   9.011  0.2765 -0.9711  0.0879
  746MOL0     C  632   6.632   5.193   8.892  0.3184  0.4801  0.7069
  746MOL0     O  633   6.658   5.124   8.769 -0.1125 -0.2030 -0.0831
  746MOL0     C  634   6.567   5.155   8.656  0.3280 -0.1511 -0.6680
  746MOL0     C  635   6.565   5.048   8.556  0.5723 -0.1852 -0.1301
  746MOL0     C  636   6.495   5.094   8.432 -0.0629 -0.5080  0.5457
  746MOL0     C  637   6.484   4.994   8.327 -0.5565  1.5188  0.4344
  746MOL0     C  638   6.455   5.035   8.194 -0.3249 -0.0569 -0.4333
  746MOL0     C  639   6.440   5.076   8.081  0.6678  1.2202  0.4547
  746MOL0     C  640   6.639   5.330   8.886 -0.0205  1.6820 -0.3753
  746MOL0     C  641   6.613   5.401   9.000  0.6602 -0.3835  0.2943
  746MOL0     C  642   6.593   5.551   8.982 -0.5618  0.1048 -0.0396
  746MOL0     H  643   6.578   5.597   9.471  1.5458 -0.7615  0.0085
  746MOL0     H  644   6.527   5.645   9.711 -0.5061  0.3243 -1.2665
  746MOL0     H  645   6.579   5.581  10.052  1.0458 -3.0963 -1.0343
  746MOL0     H  646   6.609   5.668   9.900 -1.2602  0.9924  0.6608
  746MOL0     H  647   6.347   5.678   9.870 -0.5020  1.3726  0.2563
  746MOL0     H  648   6.424   5.778   9.991 -1.4234  1.0974 -1.8897
  746MOL0     H  649   6.245   5.695  10.091  2.7597  2.0512  1.5543
  746MOL0     H  650   6.391   5.637  10.169 -0.2342  4.0346  1.0914
  746MOL0     H  651   6.211   5.469   9.964  1.8091  0.8355 -1.0582
  746MOL0     H  652   6.343   5.401  10.053  1.9432  1.3713 -0.7451
  746MOL0     H  653   6.245   5.468  10.271  2.3155 -1.4038 -1.3665
  746MOL0     H  654   6.099   5.499  10.184  1.9228  2.3198 -1.3889
  746MOL0     H  655   6.245   5.217  10.190 -0.8084 -1.4893  2.3603
  746MOL0     H  656   6.120   5.267  10.296  0.6390 -0.2184  1.0183
  746MOL0     H  657   6.150   5.235  10.002  2.3681  2.2346  2.3833
  746MOL0     H  658   5.996   5.310  10.059  0.2431 -0.0561  1.5937
  746MOL0     H  659   6.045   5.044   9.984  1.9131 -0.9238  0.6972
  746MOL0     H  660   6.071   5.023  10.155  1.2302  0.9835 -0.8076
  746MOL0     H  661   5.842   5.136  10.303 -0.4039  0.3185 -0.1523
  746MOL0     H  662   5.620   5.099  10.384 -0.2502 -0.7819  1.1661
  746MOL0     H  663   5.509   5.159  10.263 -1.1361 -1.6967 -2.0130
  746MOL0     H  664   5.391   4.963  10.331 -0.1416  2.8722 -0.0240
  746MOL0     H  665   5.469   4.905  10.191 -2.0734 -2.0397  0.3742
  746MOL0     H  666   5.485   4.758  10.391 -0.2142  1.5735  1.4277
  746MOL0     H  667   5.608   4.853  10.457  3.1560  0.9180 -1.8479
  746MOL0     H  668   5.703   4.816  10.173  3.5381  0.0505  1.3139
  746MOL0     H  669   5.640   4.659  10.257 -2.2458  1.4127  0.8748
  746MOL0     H  670   5.657   4.562  10.443  0.8301  0.7332 -0.6775
  746MOL0     H  671   5.757   4.409  10.637  1.0124  0.8554  2.2711
  746MOL0     H  672   6.378   4.470  10.787 -2.0782  1.3935  1.1860
  746MOL0     H  673   6.523   4.399  10.951 -0.7476  0.3890 -2.1034
  746MOL0     H  674   6.365   4.054  11.237 -0.4472 -1.3170 -1.1439
  746MOL0     H  675   6.476   3.966  11.117 -1.3565 -1.3254  2.2600
  746MOL0     H  676   6.660   4.071  11.263 -0.1307 -0.0951 -1.2075
  746MOL0     H  677   6.536   4.125  11.367 -2.4981  0.1994 -0.0841
  746MOL0     H  678   6.575   3.836  11.300  2.5619  0.9431 -1.0194
  746MOL0     H  679   6.678   3.921  11.408 -1.2046  2.8795  2.3251
  746MOL0     H  680   6.413   3.806  11.480  2.9892 -3.6714  0.9468
  746MOL0     H  681   6.421   3.981  11.517 -1.0334 -0.4836 -1.5145
  746MOL0     H  682   6.636   3.770  11.593  3.6672  1.9863  0.7053
  746MOL0     H  683   6.487   3.780  11.686  0.7877 -0.1951 -0.4907
  746MOL0     H  684   6.684   4.014  11.622 -0.6823  0.3029  0.1780
  746MOL0     H  685   6.553   4.016  11.752  0.9570 -0.6974  3.9739
  746MOL0     H  686   6.818   3.983  11.799  0.6158 -0.6080 -0.6808
  746MOL0     H  687   6.798   3.831  11.735  1.9524  1.6598 -0.3443
  746MOL0     H  688   6.651   3.935  11.977  2.0076  0.8788  1.2453
  746MOL0     H  689   6.622   3.775  11.898  2.9632 -1.7323 -1.4586
  746MOL0     H  690   6.246   4.067  11.028 -1.7042  0.0127 -2.3152
  746MOL0     H  691   6.102   4.169  10.858  0.5581 -0.7346  2.4958
  746MOL0     H  692   6.134   4.602  10.560 -0.4421  2.9663  0.3628
  746MOL0     H  693   6.010   4.764  10.412  2.1404 -0.1032 -0.1420
  746MOL0     H  694   6.597   5.245   9.811  1.3645  1.9548  0.9212
  746MOL0     H  695   6.636   5.186   9.577  3.6198  0.4091  2.1769
  746MOL0     H  696   6.583   5.142   9.223 -0.3753 -1.7473 -1.5387
  746MOL0     H  697   6.623   5.013   9.017  0.2795 -0.9360  0.8507
  746MOL0     H  698   6.615   5.246   8.617  1.9275  1.6187  4.5860
  746MOL0     H  699   6.463   5.168   8.685  0.0794 -3.1044  0.0063
  746MOL0     H  700   6.526   4.952   8.594  1.4919 -1.3381 -1.9471
  746MOL0     H  701   6.666   5.016   8.530  0.7304  1.4517 -1.7310
  746MOL0     H  702   6.552   5.178   8.390  2.2483 -2.6344 -0.8232
  746MOL0     H  703   6.394   5.131   8.454  0.7994  1.3761  1.6469
  746MOL0     H  704   6.568   4.925   8.321 -2.5059 -0.9195 -0.8951
  746MOL0     H  705   6.408   4.925   8.365 -0.3921  1.4662  0.6683
  746MOL0     H  706   6.424   5.134   7.993  1.1396  0.3246 -0.2275
  746MOL0     H  707   6.660   5.383   8.794  2.2663 -0.2723 -1.0682
  746MOL0     H  708   6.523   5.590   9.057  2.3882  0.9557  2.4907
  746MOL0     H  709   6.689   5.596   9.011 -0.7265  0.0352  0.6418
  746MOL0     H  710   6.582   5.582   8.878 -1.9617 -1.1648 -0.2966
  747MOL0     O  711   0.443  10.090   2.264  0.0725  0.3446  0.3744
  747MOL0     C  712   0.447  10.039   2.378  0.4767 -0.6031  0.6323
  747MOL0     O  713   0.474   9.903   2.401 -0.1727  0.4681  0.5987
  747MOL0     C  714   0.464   9.826   2.287 -0.1518  0.0885 -0.4518
  747MOL0     C  715   0.351   9.745   2.264  0.3551 -0.8132  0.4899
  747MOL0     C  716   0.332   9.678   2.143 -1.2745  0.2200  0.3509
  747MOL0     C  717   0.443   9.644   2.076 -0.7298  1.2920 -0.3701
  747MOL0     O  718   0.442   9.544   1.986 -0.3638 -0.3578  0.1905
  747MOL0     C  719   0.362   9.564   1.872  0.9631  0.2165 -0.0611
  747MOL0     C  720   0.286   9.431   1.843  0.1412  0.6854 -0.3878
  747MOL0     C  721   0.390   9.338   1.769  1.0717 -1.2460  0.2063
  747MOL0     C  722   0.330   9.192   1.757  0.3166 -0.3311  0.6282
  747MOL0     C  723   0.200   9.185   1.687  0.8906 -0.2762  1.3123
  747MOL0     C  724   0.168   9.046   1.640 -0.4696 -0.3344  0.9157
  747MOL0     C  725   0.240   8.960   1.536  0.0491 -0.9388 -1.0766
  747MOL0     C  726   0.275   9.034   1.411 -0.2594  0.3762 -0.2422
  747MOL0     N  727   0.410   9.104   1.430  0.2620 -0.1160 -0.3442
  747MOL0     C  728   0.526   9.047   1.464 -0.0488  0.2669  0.1514
  747MOL0     C  729   0.607   9.150   1.500  1.7650  0.2272  0.9344
  747MOL0     C  730   0.744   9.140   1.549 -0.4446 -0.6394 -0.6520
  747MOL0     C  731   0.770   9.217   1.679  0.4875  0.0563  0.1792
  747MOL0     C  732   0.836   9.354   1.637  0.0908 -0.4319 -0.3014
  747MOL0     C  733   0.831   9.450   1.762  0.3600 -0.0923 -0.5034
  747MOL0     O  734   0.935   9.416   1.857  0.2907 -0.1703  0.2430
  747MOL0     C  735   0.940   9.482   1.978 -0.6205 -1.2825 -0.1491
  747MOL0     C  736   0.981   9.619   1.985 -0.2752 -0.1139  0.9662
  747MOL0     C  737   1.004   9.670   2.112 -0.6591  0.3438 -0.2969
  747MOL0     C  738   0.984   9.598   2.234  0.2252 -1.0546  0.9002
  747MOL0     C  739   1.007   9.665   2.363  0.3443 -0.0645  0.7501
  747MOL0     O  740   0.990   9.802   2.354  0.4113 -0.6989 -0.8891
  747MOL0     C  741   0.984   9.881   2.471 -0.4360 -0.4465  1.0933
  747MOL0     C  742   1.097   9.918   2.533 -0.5076  0.1369  0.0809
  747MOL0     C  743   1.097  10.006   2.640  1.1004 -0.1932 -0.2915
  747MOL0     C  744   0.970  10.045   2.688  0.4899 -0.3053 -0.1657
  747MOL0     O  745   0.949  10.137   2.785  0.7196  0.0282 -0.0907
  747MOL0     C  746   1.020  10.263   2.773  0.6896  0.6382  0.0296
  747MOL0     C  747   1.104  10.286   2.889  0.1661 -0.2618 -0.4618
  747MOL0     C  748   1.172  10.419   2.880  0.4185  0.9791 -0.4411
  747MOL0     C  749   1.278  10.433   2.995  0.1602  0.7108  0.6336
  747MOL0     C  750   1.325  10.579   2.993 -0.1241 -1.0121  0.5412
  747MOL0     C  751   1.449  10.596   3.079  0.1305  0.3499 -0.7616
  747MOL0     C  752   1.416  10.567   3.227  0.8479  1.2350  0.3797
  747MOL0     C  753   1.496  10.654   3.317 -0.0584  0.7270  0.1097
  747MOL0    Cl  754   1.517  10.574   3.475 -0.2288  0.4595  0.0798
  747MOL0     C  755   0.851   9.987   2.642  0.3227 -0.0622 -0.0499
  747MOL0     C  756   0.860   9.908   2.532  0.2188 -0.1690 -0.8972
  747MOL0     O  757   1.018   9.608   2.465  0.5539 -0.2019  0.1317
  747MOL0     C  758   0.937   9.465   2.225 -0.9660 -0.3457  0.8026
  747MOL0     C  759   0.926   9.405   2.100  0.2923  0.2998  0.3326
  747MOL0     N  760   0.535   9.268   1.477 -0.6850 -0.5563  0.7784
  747MOL0     N  761   0.427   9.240   1.423 -0.1147 -0.5525  0.0579
  747MOL0     C  762   0.565   9.713   2.105  0.4588  0.2232 -0.4254
  747MOL0     C  763   0.576   9.813   2.209  0.3992  0.3416 -0.3441
  747MOL0     C  764   0.439  10.135   2.501 -0.1447 -0.2765  0.0345
  747MOL0     C  765   0.419  10.270   2.489 -0.7163 -0.2556 -0.8027
  747MOL0     C  766   0.389  10.357   2.593 -0.8198 -0.7396 -0.5529
  747MOL0     C  767   0.395  10.303   2.723 -0.5305 -0.1540 -0.0219
  747MOL0     O  768   0.362  10.377   2.834  0.4181 -0.1262  0.7075
  747MOL0     C  769   0.291  10.500   2.819  1.2841 -0.1545  0.0787
  747MOL0     C  770   0.253  10.544   2.963  0.8534 -0.5381  0.0947
  747MOL0     C  771   0.382  10.557   3.052 -0.5189  0.3418 -0.1533
  747MOL0     C  772   0.352  10.628   3.184  0.3540 -0.7391  0.0309
  747MOL0     C  773   0.295  10.767   3.170 -0.4762  0.3803  0.7470
  747MOL0     C  774   0.231  10.871   3.166 -0.1291 -0.2549  0.1526
  747MOL0     C  775   0.428  10.173   2.740  0.3487  0.5364 -0.2522
  747MOL0     C  776   0.438  10.084   2.635  0.4765 -0.6794  0.4352
  747MOL0     C  777   0.462   9.941   2.684 -0.1345  0.2949 -0.0046
  747MOL0     H  778   0.271   9.749   2.337 -1.2763 -2.4726 -1.1195
  747MOL0     H  779   0.245   9.627   2.104 -0.9764  2.1103 -3.1771
  747MOL0     H  780   0.296   9.649   1.888  0.4599 -0.0244 -0.8117
  747MOL0     H  781   0.428   9.595   1.790  1.6118  0.5404  0.5647
  747MOL0     H  782   0.200   9.452   1.778 -1.0667 -1.4824  0.3931
  747MOL0     H  783   0.229   9.388   1.926 -1.1334  3.7844  0.4814
  747MOL0     H  784   0.488   9.323   1.815  2.5933 -3.2072 -3.2933
  747MOL0     H  785   0.406   9.393   1.676  3.0701 -0.0420  1.1944
  747MOL0     H  786   0.395   9.115   1.712  1.7894  0.6498  1.0065
  747MOL0     H  787   0.316   9.151   1.858  2.9138 -1.7213  0.5236
  747MOL0     H  788   0.112   9.231   1.735  1.4115  0.9678  1.1257
  747MOL0     H  789   0.215   9.244   1.596 -0.2131 -0.8117  0.7583
  747MOL0     H  790   0.142   8.981   1.724 -1.4714 -1.6426 -0.3618
  747MOL0     H  791   0.066   9.062   1.602  0.0128 -0.7308 -0.5934
  747MOL0     H  792   0.171   8.880   1.508 -0.5533 -0.1700 -1.8209
  747MOL0     H  793   0.320   8.905   1.588 -1.6357 -0.8864  1.7971
  747MOL0     H  794   0.292   8.959   1.334 -2.8568 -1.6452  0.9736
  747MOL0     H  795   0.197   9.106   1.384 -1.3042  1.3604  4.4416
  747MOL0     H  796   0.547   8.941   1.476  0.3243  0.1135 -1.5856
  747MOL0     H  797   0.778   9.036   1.551  4.0883  0.6370 -0.3534
  747MOL0     H  798   0.795   9.178   1.460 -2.8855  1.2122 -1.3743
  747MOL0     H  799   0.669   9.227   1.718  0.4957 -2.8294  1.2142
  747MOL0     H  800   0.834   9.163   1.751 -0.3839 -0.1989  0.7758
  747MOL0     H  801   0.767   9.398   1.565 -0.8809 -0.3306  0.6581
  747MOL0     H  802   0.938   9.351   1.598  1.1325  0.7246  2.1066
  747MOL0     H  803   0.735   9.454   1.815  0.9894  0.2646  0.6460
  747MOL0     H  804   0.849   9.554   1.735 -0.6356  0.5945  1.3066
  747MOL0     H  805   1.010   9.659   1.889  2.9994 -3.7466  0.2024
  747MOL0     H  806   1.050   9.768   2.112  5.4939 -2.0841 -2.1721
  747MOL0     H  807   1.189   9.885   2.485 -1.0615  0.3352 -1.1405
  747MOL0     H  808   1.187  10.049   2.684 -0.5270  1.2715  1.7939
  747MOL0     H  809   1.078  10.269   2.680  0.2938  1.0586 -0.1954
  747MOL0     H  810   0.953  10.349   2.766  1.8234  1.4709 -1.1704
  747MOL0     H  811   1.036  10.294   2.974 -0.7424  0.2800 -1.2190
  747MOL0     H  812   1.171  10.204   2.915 -3.1804 -2.0545  3.6442
  747MOL0     H  813   1.213  10.444   2.782  1.7923 -0.4118 -0.2637
  747MOL0     H  814   1.102  10.496   2.915 -2.2757 -2.0099  1.3229
  747MOL0     H  815   1.364  10.365   2.995 -0.2996  0.1111 -0.2145
  747MOL0     H  816   1.230  10.414   3.092  0.7472  4.3284  1.7535
  747MOL0     H  817   1.254  10.647   3.041  3.3208  2.1033  1.6646
  747MOL0     H  818   1.335  10.622   2.893 -4.2562  2.2207  1.2024
  747MOL0     H  819   1.519  10.518   3.049  0.6922  0.7665 -0.5640
  747MOL0     H  820   1.494  10.696   3.072  0.6319  0.0087 -4.1455
  747MOL0     H  821   1.429  10.459   3.234 -5.3756 -0.0294 -1.2942
  747MOL0     H  822   1.310  10.573   3.254  0.2822 -3.4449  0.0003
  747MOL0     H  823   1.593  10.652   3.267 -0.7664 -4.4293 -1.7292
  747MOL0     H  824   1.452  10.754   3.325  4.4697  3.1430 -1.6968
  747MOL0     H  825   0.753  10.010   2.684 -1.5842 -1.0171 -3.5781
  747MOL0     H  826   0.778   9.861   2.479 -1.3657  0.2663  1.0121
  747MOL0     H  827   0.912   9.411   2.316  0.2248 -2.7872 -0.2362
  747MOL0     H  828   0.888   9.305   2.083 -2.4048  1.1643  0.7683
  747MOL0     H  829   0.648   9.670   2.050  0.2042  0.1911 -0.7878
  747MOL0     H  830   0.668   9.868   2.224  1.2063 -0.6228 -1.5865
  747MOL0     H  831   0.419  10.311   2.389 -0.1673  0.0745 -0.6727
  747MOL0     H  832   0.352  10.458   2.578 -1.2042 -0.2193  2.8914
  747MOL0     H  833   0.207  10.481   2.752  2.1812 -0.8155 -0.9024
  747MOL0     H  834   0.338  10.588   2.773 -2.1213  2.1068  0.6013
  747MOL0     H  835   0.196  10.462   3.007  0.2523 -0.2273 -0.0730
  747MOL0     H  836   0.187  10.632   2.968  2.1265  0.5538 -1.3427
  747MOL0     H  837   0.467  10.602   3.000  2.2558 -1.3715  2.5444
  747MOL0     H  838   0.403  10.454   3.084 -1.1693  0.8453  2.0898
  747MOL0     H  839   0.279  10.576   3.247  0.3226  0.7666  1.3102
  747MOL0     H  840   0.443  10.636   3.244 -1.4079  1.6443  2.6721
  747MOL0     H  841   0.173  10.960   3.177  1.6954  0.9379  0.5939
  747MOL0     H  842   0.443  10.142   2.844  1.4779 -2.3295 -1.1636
  747MOL0     H  843   0.431   9.922   2.787 -0.3901 -0.8738 -0.2733
  747MOL0     H  844   0.395   9.870   2.634 -1.3621 -0.7469  2.8847
  747MOL0     H  845   0.557   9.891   2.665 -0.4734 -0.2251 -0.3723
  748MOL0     O  846   2.324   4.123   6.361  0.3916 -0.0464  0.2632
  748MOL0     C  847   2.435   4.082   6.327  0.7385  0.3636 -0.5383
  748MOL0     O  848   2.538   4.060   6.423  0.4851 -0.2709 -0.2904
  748MOL0     C  849   2.501   4.050   6.558 -0.6924  0.0932  0.5243
  748MOL0     C  850   2.549   4.146   6.643  0.3558 -0.2524  0.5432
  748MOL0     C  851   2.504   4.146   6.774 -0.3660 -0.1919 -0.3462
  748MOL0     C  852   2.413   4.053   6.823  0.5609  0.4488 -0.5539
  748MOL0     O  853   2.360   4.057   6.952  0.3099  0.2315 -1.0539
  748MOL0     C  854   2.220   4.018   6.958  0.5764  1.2002 -0.2342
  748MOL0     C  855   2.158   4.066   7.087 -0.1916  0.3174 -0.4071
  748MOL0     C  856   2.201   4.215   7.103 -0.2558 -0.3682  0.5875
  748MOL0     C  857   2.168   4.258   7.241 -0.1284  0.2792  0.1271
  748MOL0     C  858   2.262   4.187   7.342  0.0673  0.3592 -0.5846
  748MOL0     C  859   2.236   4.247   7.480 -0.2314 -0.0066 -0.0841
  748MOL0     C  860   2.315   4.156   7.569  0.0201  0.0401  0.1612
  748MOL0     C  861   2.375   4.240   7.686  0.4413  0.8731 -0.1913
  748MOL0     N  862   2.520   4.283   7.663  0.4382 -0.2450 -0.1288
  748MOL0     C  863   2.606   4.261   7.557 -0.4074 -0.5117  0.3939
  748MOL0     C  864   2.727   4.304   7.606  0.3339 -0.0362  0.2181
  748MOL0     C  865   2.847   4.315   7.521 -0.5790 -0.8659 -0.5398
  748MOL0     C  866   2.900   4.451   7.495  0.0775  0.3889  0.6377
  748MOL0     C  867   2.808   4.537   7.395 -1.3914  0.2193  0.0820
  748MOL0     C  868   2.825   4.690   7.405  0.0496  1.2754 -0.7237
  748MOL0     O  869   2.936   4.746   7.344  0.2642 -0.4409 -0.9383
  748MOL0     C  870   2.950   4.885   7.380 -0.0385 -0.2607  0.6426
  748MOL0     C  871   2.859   4.965   7.446 -0.4249  0.1901  0.4451
  748MOL0     C  872   2.886   5.099   7.476  0.3846  0.3182  0.3152
  748MOL0     C  873   3.014   5.151   7.439  0.4958  1.1469  0.1242
  748MOL0     C  874   3.042   5.286   7.478 -0.0159  0.9611  0.1516
  748MOL0     O  875   3.176   5.321   7.465 -0.4240 -0.2242 -0.4666
  748MOL0     C  876   3.210   5.455   7.479  0.1934 -0.4718 -0.3298
  748MOL0     C  877   3.288   5.505   7.587 -0.0594 -0.7287  0.4652
  748MOL0     C  878   3.334   5.639   7.589 -0.1080  0.6904 -0.3747
  748MOL0     C  879   3.284   5.732   7.494  0.2435  0.5981  0.2857
  748MOL0     O  880   3.299   5.869   7.482 -0.1821 -0.6610 -0.6802
  748MOL0     C  881   3.401   5.929   7.567  0.9125 -0.2375  0.2132
  748MOL0     C  882   3.428   6.066   7.515 -0.5373  0.7298  0.3339
  748MOL0     C  883   3.532   6.136   7.609  1.0700  0.9464  0.2906
  748MOL0     C  884   3.500   6.276   7.591 -0.1814  0.0831 -0.0279
  748MOL0     C  885   3.586   6.376   7.669  0.2544  0.2278  0.1527
  748MOL0     C  886   3.729   6.393   7.622 -0.0831 -0.7649 -1.0264
  748MOL0     C  887   3.796   6.496   7.701  0.1580 -0.0734  0.2143
  748MOL0     C  888   3.950   6.497   7.664 -0.2606  0.1643  0.3788
  748MOL0    Cl  889   4.035   6.635   7.751 -0.6093 -0.2819  0.4851
  748MOL0     C  890   3.209   5.683   7.389  0.6801 -0.3163  0.4077
  748MOL0     C  891   3.171   5.550   7.381 -1.0756  0.7213  0.1175
  748MOL0     O  892   2.959   5.342   7.547 -0.8875 -0.6730 -0.5485
  748MOL0     C  893   3.109   5.074   7.369  0.8686  1.3509  0.0484
  748MOL0     C  894   3.075   4.944   7.336 -0.0263  0.2830 -0.5246
  748MOL0     N  895   2.707   4.367   7.722 -0.3378 -0.6783 -0.2562
  748MOL0     N  896   2.584   4.354   7.754 -1.4291 -0.0818  1.0718
  748MOL0     C  897   2.378   3.947   6.729  1.1911 -1.3484  0.1551
  748MOL0     C  898   2.407   3.953   6.593  0.0677  0.3044  0.0737
  748MOL0     C  899   2.456   4.055   6.181  0.4329  0.3893  0.8821
  748MOL0     C  900   2.569   3.980   6.149  1.1426 -0.1639  1.0743
  748MOL0     C  901   2.599   3.952   6.017  0.2012  0.3035 -0.5262
  748MOL0     C  902   2.518   3.990   5.916 -0.2424  0.0110  0.3191
  748MOL0     O  903   2.542   3.964   5.784 -0.2712  0.3653 -0.0126
  748MOL0     C  904   2.668   3.902   5.749  0.7320  0.0767  0.6275
  748MOL0     C  905   2.632   3.804   5.639 -0.5136  0.4282 -0.2857
  748MOL0     C  906   2.588   3.669   5.690  0.4573  1.7917 -0.0986
  748MOL0     C  907   2.703   3.576   5.718 -0.4726  0.5125 -0.1235
  748MOL0     C  908   2.763   3.527   5.591  0.9162  0.9245  0.5168
  748MOL0     C  909   2.818   3.487   5.489  0.7711  0.3353 -0.0963
  748MOL0     C  910   2.412   4.070   5.931 -0.0162 -0.2919 -1.1255
  748MOL0     C  911   2.375   4.108   6.071  0.4369 -0.2832  0.2788
  748MOL0     C  912   2.258   4.194   6.088 -0.1166 -0.0304  1.0835
  748MOL0     H  913   2.605   4.227   6.598 -1.2280  1.4547  1.5084
  748MOL0     H  914   2.526   4.232   6.838  0.6452 -1.7325  1.4945
  748MOL0     H  915   2.165   4.044   6.867 -0.1505 -1.9661 -0.8092
  748MOL0     H  916   2.205   3.910   6.960  0.2833  1.1467  3.8421
  748MOL0     H  917   2.199   4.007   7.169  1.5179  1.5466 -0.3099
  748MOL0     H  918   2.050   4.063   7.076  0.0116 -1.3908 -2.7664
  748MOL0     H  919   2.135   4.267   7.033 -1.8272 -0.3703  2.0027
  748MOL0     H  920   2.304   4.248   7.092 -0.7341  0.8155 -0.5875
  748MOL0     H  921   2.183   4.365   7.253 -2.2275  0.7555 -0.9831
  748MOL0     H  922   2.064   4.235   7.266 -0.5543  1.3477 -0.6167
  748MOL0     H  923   2.229   4.083   7.352 -3.6231  1.4360 -0.1888
  748MOL0     H  924   2.368   4.183   7.313  0.6494  1.6717  1.1838
  748MOL0     H  925   2.248   4.356   7.484 -0.4470 -0.0280  2.4597
  748MOL0     H  926   2.134   4.228   7.516  0.4969  0.1339  2.1860
  748MOL0     H  927   2.397   4.104   7.519 -0.2401  2.4269 -3.1170
  748MOL0     H  928   2.236   4.087   7.600 -1.1506  0.0836 -2.4447
  748MOL0     H  929   2.313   4.327   7.708 -1.6711 -0.7282  0.4621
  748MOL0     H  930   2.359   4.177   7.773 -0.1342  2.5202  0.9470
  748MOL0     H  931   2.582   4.225   7.457  0.4063  1.8473 -0.7444
  748MOL0     H  932   2.922   4.258   7.577 -2.8527 -0.3768  3.2831
  748MOL0     H  933   2.827   4.267   7.424 -0.6186  1.2027 -1.6119
  748MOL0     H  934   2.904   4.501   7.592  0.8629 -0.8386  1.2661
  748MOL0     H  935   3.005   4.453   7.463  0.5757  3.2595  2.1245
  748MOL0     H  936   2.708   4.498   7.415 -1.3744 -0.3698 -0.8925
  748MOL0     H  937   2.832   4.509   7.292 -3.6767  0.6611 -0.6449
  748MOL0     H  938   2.824   4.731   7.506  2.4440  2.9513 -1.2889
  748MOL0     H  939   2.738   4.725   7.348 -1.3197  0.1170  0.5890
  748MOL0     H  940   2.756   4.941   7.474 -1.3622  1.2366 -1.8313
  748MOL0     H  941   2.809   5.158   7.526 -1.5670 -1.6343 -0.2280
  748MOL0     H  942   3.291   5.454   7.683 -0.5588 -0.7632  0.4660
  748MOL0     H  943   3.394   5.658   7.677  1.3443  0.1471 -1.2172
  748MOL0     H  944   3.367   5.936   7.671  1.2031 -1.4863  0.4077
  748MOL0     H  945   3.487   5.862   7.561 -0.8939 -2.6600 -0.2145
  748MOL0     H  946   3.472   6.068   7.414  1.7865  2.0964  1.2919
  748MOL0     H  947   3.339   6.129   7.513 -0.2749  1.2024  2.1915
  748MOL0     H  948   3.537   6.092   7.709 -0.6552 -2.4711 -0.9572
  748MOL0     H  949   3.627   6.116   7.558 -0.1898 -1.3101 -1.3291
  748MOL0     H  950   3.396   6.294   7.621 -0.0621  0.2827  0.2722
  748MOL0     H  951   3.516   6.299   7.486  0.4113 -3.1250 -0.7282
  748MOL0     H  952   3.597   6.325   7.765  3.5520 -1.4574 -0.9364
  748MOL0     H  953   3.540   6.475   7.677  1.5828  0.8863  0.0521
  748MOL0     H  954   3.777   6.297   7.643 -1.1340 -0.4663  3.6933
  748MOL0     H  955   3.728   6.427   7.518  2.0978 -0.0941 -0.8911
  748MOL0     H  956   3.792   6.472   7.808 -2.2681 -1.1089 -0.0569
  748MOL0     H  957   3.760   6.597   7.681 -2.0370 -0.1809  3.0010
  748MOL0     H  958   4.002   6.403   7.683  2.6323  1.2342 -1.5430
  748MOL0     H  959   3.949   6.514   7.556 -2.2123  1.2797  0.5250
  748MOL0     H  960   3.172   5.748   7.310 -1.6332  1.0656  2.5042
  748MOL0     H  961   3.108   5.513   7.301 -1.4009 -1.1382  1.1686
  748MOL0     H  962   3.201   5.123   7.337  2.0414 -0.6720  0.0953
  748MOL0     H  963   3.145   4.895   7.270  1.4618  1.4935  0.1049
  748MOL0     H  964   2.311   3.867   6.758 -1.1745  1.7692  4.5772
  748MOL0     H  965   2.368   3.883   6.521 -1.2858  3.1356 -2.1440
  748MOL0     H  966   2.632   3.937   6.226  1.6301 -1.4122  0.0225
  748MOL0     H  967   2.678   3.878   6.015 -2.2136 -2.4437 -0.3924
  748MOL0     H  968   2.728   3.852   5.826  0.8691  0.2461  0.6314
  748MOL0     H  969   2.736   3.976   5.708 -1.9730 -0.4265 -5.9403
  748MOL0     H  970   2.709   3.793   5.562  0.9182 -1.0211  1.2967
  748MOL0     H  971   2.556   3.850   5.575 -1.4150 -1.1251 -0.3766
  748MOL0     H  972   2.522   3.615   5.621  0.3475  1.0134  0.5991
  748MOL0     H  973   2.526   3.675   5.781  0.4268  0.3725  0.0054
  748MOL0     H  974   2.778   3.634   5.773  0.0508  0.9402 -1.2489
  748MOL0     H  975   2.664   3.492   5.776  1.0723 -0.3103 -0.2347
  748MOL0     H  976   2.864   3.457   5.396 -0.0280 -4.0118  0.6984
  748MOL0     H  977   2.359   4.109   5.844  1.0777  1.7814 -0.9299
  748MOL0     H  978   2.172   4.132   6.114 -1.6518  1.6289  0.1547
  748MOL0     H  979   2.275   4.261   6.173  0.0565  0.6163  0.5478
  748MOL0     H  980   2.236   4.244   5.993  5.0475  0.4644 -0.1956
  749MOL0     O  981   3.940   0.498   6.198  0.8609 -1.4630 -0.7873
  749MOL0     C  982   4.037   0.440   6.184 -0.6263 -0.3250 -0.4235
  749MOL0     O  983   4.071   0.384   6.072 -0.0875  0.6920  0.7388
  749MOL0     C  984   3.990   0.393   5.955  0.1902 -0.4224 -0.3074
  749MOL0     C  985   4.050   0.430   5.840 -1.6087 -1.5389  0.6147
  749MOL0     C  986   3.987   0.432   5.720 -0.4049  0.5021 -0.4356
  749MOL0     C  987   3.850   0.399   5.712 -0.7462  0.0485 -0.3330
  749MOL0     O  988   3.789   0.414   5.590 -0.6780  0.0130 -0.6127
  749MOL0     C  989   3.696   0.515   5.597 -1.0990 -0.2832 -0.2771
  749MOL0     C  990   3.666   0.563   5.457 -0.5968  0.9512  0.2254
  749MOL0     C  991   3.563   0.677   5.456 -0.1489 -0.2572 -0.1409
  749MOL0     C  992   3.520   0.715   5.306  0.4562 -0.3320 -0.0398
  749MOL0     C  993   3.466   0.860   5.296  0.5446  0.3463 -0.7420
  749MOL0     C  994   3.360   0.892   5.405  0.6843 -0.0508 -0.2753
  749MOL0     C  995   3.326   1.037   5.423 -0.9314 -0.1597  1.0972
  749MOL0     C  996   3.407   1.120   5.528 -0.2894 -0.3359 -0.7941
  749MOL0     N  997   3.545   1.145   5.489  0.8273  0.1056 -0.1778
  749MOL0     C  998   3.645   1.102   5.563  0.1140  0.8829  0.0038
  749MOL0     C  999   3.757   1.160   5.523 -0.1573  1.1246 -0.7433
  749MOL0     C 1000   3.903   1.143   5.570 -0.6206 -0.4114 -0.3050
  749MOL0     C 1001   3.965   1.004   5.530  0.2844 -0.1703 -0.1559
  749MOL0     C 1002   3.973   1.012   5.379  0.4543  0.0377  0.3791
  749MOL0     C 1003   3.972   0.878   5.319 -0.1216  1.1526 -0.1946
  749MOL0     O 1004   4.098   0.826   5.345  0.2379  0.1026  0.8906
  749MOL0     C 1005   4.142   0.728   5.269 -0.3127 -0.1176 -1.3366
  749MOL0     C 1006   4.136   0.725   5.132 -0.1876  0.4467 -0.5688
  749MOL0     C 1007   4.188   0.621   5.053  0.4706 -0.7333 -0.3964
  749MOL0     C 1008   4.251   0.513   5.119  0.6432 -0.0332  0.0880
  749MOL0     C 1009   4.288   0.395   5.040  0.2271 -0.4758 -0.2262
  749MOL0     O 1010   4.351   0.296   5.114  0.2610 -0.5456  0.7964
  749MOL0     C 1011   4.417   0.195   5.052  0.3007 -0.3387 -0.2846
  749MOL0     C 1012   4.484   0.209   4.931  0.0826  0.2825  0.3102
  749MOL0     C 1013   4.555   0.098   4.872 -0.2508 -0.3629 -0.2848
  749MOL0     C 1014   4.556  -0.024   4.938 -0.4674 -1.0078  0.1455
  749MOL0     O 1015   4.635  -0.126   4.885  0.5192 -0.4170 -0.4329
  749MOL0     C 1016   4.742  -0.176   4.964  0.0677 -0.7245  0.6188
  749MOL0     C 1017   4.875  -0.180   4.872 -0.3937 -0.1764  0.0558
  749MOL0     C 1018   4.987  -0.261   4.926  0.0109  0.3249  0.0631
  749MOL0     C 1019   5.129  -0.201   4.908  0.5267 -0.4738  0.6802
  749MOL0     C 1020   5.223  -0.310   4.869  0.7208 -0.2213 -0.3543
  749MOL0     C 1021   5.365  -0.256   4.841 -0.1411 -0.4976  0.6048
  749MOL0     C 1022   5.458  -0.363   4.785 -0.9863 -0.0945  0.6280
  749MOL0     C 1023   5.442  -0.404   4.641  0.2960  0.0150  0.1716
  749MOL0    Cl 1024   5.478  -0.268   4.523  0.1642 -0.5555  0.1880
  749MOL0     C 1025   4.500  -0.031   5.065 -0.0267  0.9464 -0.2157
  749MOL0     C 1026   4.432   0.075   5.118  0.1665  0.4796  0.2866
  749MOL0     O 1027   4.272   0.395   4.923  0.7449  0.0522  0.3645
  749MOL0     C 1028   4.261   0.520   5.265  0.3284  1.0580  0.8329
  749MOL0     C 1029   4.223   0.632   5.337  0.3857 -0.2615  0.5806
  749MOL0     N 1030   3.724   1.238   5.410  0.1163 -0.4213  0.1199
  749MOL0     N 1031   3.595   1.232   5.393 -0.5345 -0.1857  0.6666
  749MOL0     C 1032   3.787   0.349   5.828 -0.6489  0.4873  0.0141
  749MOL0     C 1033   3.856   0.354   5.947 -0.4586  0.3626  0.4830
  749MOL0     C 1034   4.112   0.400   6.307 -0.7044  0.6091 -0.3957
  749MOL0     C 1035   4.255   0.415   6.320 -0.0524  0.1367  0.2484
  749MOL0     C 1036   4.340   0.382   6.427 -0.2811  0.9469 -0.5106
  749MOL0     C 1037   4.283   0.331   6.544  0.0422 -0.0686 -0.1589
  749MOL0     O 1038   4.355   0.267   6.646  0.0757 -0.4087 -1.0859
  749MOL0     C 1039   4.498   0.275   6.647  0.4886  0.5373 -0.3176
  749MOL0     C 1040   4.565   0.209   6.768  0.1182  0.7880 -0.5255
  749MOL0     C 1041   4.534   0.264   6.898  0.1922 -0.2295 -0.1869
  749MOL0     C 1042   4.607   0.185   7.005  0.2601  0.7945 -0.2424
  749MOL0     C 1043   4.583   0.242   7.132  0.4529  1.1078 -0.8079
  749MOL0     C 1044   4.569   0.265   7.252  0.7568 -0.1853  0.4678
  749MOL0     C 1045   4.142   0.334   6.548 -0.0294 -0.4315 -0.5328
  749MOL0     C 1046   4.057   0.355   6.427  0.5845 -0.1338  0.2019
  749MOL0     C 1047   3.909   0.316   6.437  0.9774  1.0472  1.1104
  749MOL0     H 1048   4.155   0.460   5.842 -1.7184 -0.9797 -0.8130
  749MOL0     H 1049   4.050   0.465   5.637  1.5599  1.9348  1.5099
  749MOL0     H 1050   3.608   0.483   5.653 -0.2091 -2.6766 -0.1018
  749MOL0     H 1051   3.742   0.604   5.640 -0.1234 -0.2351 -1.3910
  749MOL0     H 1052   3.631   0.470   5.410 -2.1890 -1.4160  5.3547
  749MOL0     H 1053   3.757   0.596   5.406 -1.9617 -0.3638 -3.3858
  749MOL0     H 1054   3.621   0.755   5.507 -0.3045 -2.0801  3.0891
  749MOL0     H 1055   3.478   0.640   5.514  1.3313 -2.6333  0.6190
  749MOL0     H 1056   3.605   0.696   5.240  0.1511  1.9614 -1.2021
  749MOL0     H 1057   3.443   0.654   5.258 -2.3907  2.4220  0.6996
  749MOL0     H 1058   3.547   0.934   5.303 -1.0156  2.2923 -2.0333
  749MOL0     H 1059   3.430   0.880   5.195  5.1980  2.8784 -2.2510
  749MOL0     H 1060   3.269   0.836   5.380 -1.2030  1.3302  2.8810
  749MOL0     H 1061   3.395   0.862   5.504 -1.0948  0.0605  0.4272
  749MOL0     H 1062   3.225   1.042   5.466 -1.5027 -2.8384  0.3044
  749MOL0     H 1063   3.337   1.081   5.324  0.7213 -1.5465  0.6149
  749MOL0     H 1064   3.346   1.210   5.535 -1.7472 -1.3356 -0.1963
  749MOL0     H 1065   3.412   1.077   5.629 -2.6044  0.5139 -0.2588
  749MOL0     H 1066   3.623   1.032   5.643 -2.1319 -0.3948 -1.6321
  749MOL0     H 1067   3.954   1.230   5.528  1.1498 -0.7848  0.9708
  749MOL0     H 1068   3.893   1.149   5.679  2.2684 -3.3095  0.2636
  749MOL0     H 1069   4.067   0.985   5.565  0.1139  1.2076  1.1916
  749MOL0     H 1070   3.898   0.926   5.568 -2.3512  1.8846 -0.2620
  749MOL0     H 1071   4.067   1.059   5.349 -0.8807  1.9183 -1.1021
  749MOL0     H 1072   3.891   1.069   5.334  0.1213  0.0065  0.9384
  749MOL0     H 1073   3.947   0.880   5.213 -4.5509 -2.5588  0.4362
  749MOL0     H 1074   3.897   0.816   5.370 -0.2192  0.4045 -1.2300
  749MOL0     H 1075   4.091   0.810   5.082  1.5374  2.4385  1.0611
  749MOL0     H 1076   4.163   0.619   4.948 -1.1598 -0.1015 -0.0555
  749MOL0     H 1077   4.484   0.308   4.887 -1.3711  0.1843  0.0306
  749MOL0     H 1078   4.619   0.119   4.787  1.1175  1.0352  1.0132
  749MOL0     H 1079   4.771  -0.116   5.051 -1.3661 -0.6076  1.0375
  749MOL0     H 1080   4.709  -0.276   4.990 -1.5226  0.0593  1.8001
  749MOL0     H 1081   4.849  -0.207   4.769  2.2643 -0.3399 -0.6235
  749MOL0     H 1082   4.906  -0.075   4.873  2.1402 -0.7961  3.7214
  749MOL0     H 1083   4.965  -0.291   5.029 -3.2331 -1.8363 -1.1145
  749MOL0     H 1084   4.994  -0.355   4.872  0.1854  0.6072 -0.4076
  749MOL0     H 1085   5.154  -0.139   4.995  1.3147 -1.2904  1.0439
  749MOL0     H 1086   5.116  -0.133   4.823 -0.8606  1.4293  2.3211
  749MOL0     H 1087   5.194  -0.369   4.782 -0.3570  0.1107 -0.2390
  749MOL0     H 1088   5.230  -0.375   4.956 -3.7792  0.3839  0.6789
  749MOL0     H 1089   5.359  -0.164   4.782 -0.3848  0.1744  1.6580
  749MOL0     H 1090   5.405  -0.221   4.936 -0.8497 -2.9723  1.9036
  749MOL0     H 1091   5.452  -0.454   4.845 -0.7641 -0.7510 -0.3243
  749MOL0     H 1092   5.556  -0.317   4.800 -0.9636 -0.1150  0.5406
  749MOL0     H 1093   5.498  -0.498   4.629 -0.5015 -0.5139  0.5330
  749MOL0     H 1094   5.335  -0.424   4.628 -0.3690  3.5648 -0.6508
  749MOL0     H 1095   4.506  -0.126   5.117  2.0935 -0.6057 -3.0310
  749MOL0     H 1096   4.393   0.067   5.220  0.0062 -0.1131  0.1841
  749MOL0     H 1097   4.304   0.433   5.314 -0.5870  0.8980  1.3647
  749MOL0     H 1098   4.233   0.631   5.445 -1.6563 -4.9241  0.9873
  749MOL0     H 1099   3.682   0.326   5.840 -0.2527 -1.3938  0.0999
  749MOL0     H 1100   3.806   0.334   6.041  0.7343 -0.6209  0.9291
  749MOL0     H 1101   4.300   0.449   6.227  0.6761 -1.1588  0.0928
  749MOL0     H 1102   4.446   0.399   6.415 -0.0060 -1.0956 -1.4759
  749MOL0     H 1103   4.517   0.383   6.647 -2.3449  1.1237 -1.0123
  749MOL0     H 1104   4.536   0.231   6.554  1.5571  0.8252 -0.0377
  749MOL0     H 1105   4.674   0.220   6.763  0.1130  0.7893 -0.6364
  749MOL0     H 1106   4.531   0.105   6.767 -1.5003  1.2766 -0.0074
  749MOL0     H 1107   4.426   0.264   6.915 -0.1005  2.6582 -1.4167
  749MOL0     H 1108   4.564   0.369   6.906  2.9552 -0.9190 -0.4425
  749MOL0     H 1109   4.558   0.087   7.000  0.8822  0.5348 -2.0067
  749MOL0     H 1110   4.712   0.176   6.973 -0.5771 -0.1077 -3.0153
  749MOL0     H 1111   4.548   0.293   7.353 -1.4871  0.2469 -0.0646
  749MOL0     H 1112   4.103   0.298   6.643  0.6756 -2.4474 -0.9547
  749MOL0     H 1113   3.891   0.253   6.350  3.7740  1.1589  0.3751
  749MOL0     H 1114   3.890   0.270   6.535  1.2313  0.0004  0.6774
  749MOL0     H 1115   3.836   0.397   6.434  0.6190  0.8618  3.2038
  750MOL0     O 1116   9.306   0.493   5.459 -0.1010  0.4042 -0.5207
  750MOL0     C 1117   9.249   0.579   5.530  0.4312  0.7396 -0.0044
  750MOL0     O 1118   9.140   0.563   5.599 -0.3236 -0.0871 -0.9258
  750MOL0     C 1119   9.108   0.428   5.630 -0.4327 -0.4335  0.7781
  750MOL0     C 1120   9.011   0.366   5.555  0.7929 -0.9859  0.9324
  750MOL0     C 1121   8.976   0.235   5.571  0.2890 -0.4981 -0.6333
  750MOL0     C 1122   9.042   0.159   5.670  0.0918  0.0596  0.2516
  750MOL0     O 1123   9.029   0.031   5.701  0.3887 -0.2046  0.1246
  750MOL0     C 1124   8.904  -0.028   5.693 -0.2450  0.0472 -0.3483
  750MOL0     C 1125   8.905  -0.149   5.607  0.5196 -0.2380 -0.4806
  750MOL0     C 1126   8.996  -0.268   5.651  0.2774  0.4286 -0.2517
  750MOL0     C 1127   8.999  -0.380   5.543 -0.0198  0.8442  0.3120
  750MOL0     C 1128   9.045  -0.515   5.602  1.4945 -0.3588  0.0976
  750MOL0     C 1129   9.180  -0.502   5.664 -0.0809  0.9165 -0.5888
  750MOL0     C 1130   9.238  -0.637   5.707 -0.6000 -0.1276  0.1287
  750MOL0     C 1131   9.248  -0.657   5.855 -0.1396 -0.9156 -0.3865
  750MOL0     N 1132   9.288  -0.795   5.881  0.0292  0.1798 -0.2320
  750MOL0     C 1133   9.409  -0.858   5.886 -0.4928  0.3953  0.3193
  750MOL0     C 1134   9.382  -0.985   5.899  0.0311  0.1816  0.6544
  750MOL0     C 1135   9.482  -1.094   5.897 -0.5519 -0.4540  0.3308
  750MOL0     C 1136   9.568  -1.100   6.015  1.1307  0.7765 -0.3210
  750MOL0     C 1137   9.651  -1.226   6.016 -0.2933  0.1860 -0.1936
  750MOL0     C 1138   9.741  -1.231   6.142  0.2949 -1.1605  0.2176
  750MOL0     O 1139   9.671  -1.268   6.254  0.1295 -0.6826  0.6659
  750MOL0     C 1140   9.660  -1.404   6.267  0.7555 -0.5157  0.5594
  750MOL0     C 1141   9.772  -1.485   6.300  0.8927 -0.1267 -1.0492
  750MOL0     C 1142   9.757  -1.629   6.305  0.0884  1.2832 -0.2545
  750MOL0     C 1143   9.630  -1.687   6.284  0.0301  0.5474 -0.2905
  750MOL0     C 1144   9.611  -1.832   6.298 -1.3462  0.2941 -0.3637
  750MOL0     O 1145   9.726  -1.913   6.291  0.8143 -0.1749  0.0309
  750MOL0     C 1146   9.730  -2.049   6.263 -0.5206 -0.0192 -0.6905
  750MOL0     C 1147   9.622  -2.131   6.253  0.2391  0.3422 -0.6566
  750MOL0     C 1148   9.643  -2.269   6.232 -0.7561 -0.3275 -0.8518
  750MOL0     C 1149   9.773  -2.317   6.206 -0.1833  0.1352 -0.2038
  750MOL0     O 1150   9.808  -2.455   6.185 -0.2294  0.1909  0.0296
  750MOL0     C 1151   9.686  -2.536   6.165  0.1529 -0.1367 -0.0782
  750MOL0     C 1152   9.757  -2.644   6.088 -0.4143 -0.5742 -0.2106
  750MOL0     C 1153   9.675  -2.771   6.071  0.7622 -0.2535 -0.1582
  750MOL0     C 1154   9.755  -2.900   6.059  0.9275 -0.7592 -0.5542
  750MOL0     C 1155   9.841  -2.902   5.938  0.1440 -0.3569 -0.9239
  750MOL0     C 1156   9.958  -3.010   5.948 -0.6808 -0.6749 -0.2685
  750MOL0     C 1157   9.921  -3.138   5.873  0.6026  0.2484 -0.0259
  750MOL0     C 1158  10.038  -3.240   5.881  0.0112  0.2394 -0.8537
  750MOL0    Cl 1159  10.188  -3.173   5.823 -0.1162  0.3579 -0.0294
  750MOL0     C 1160   9.877  -2.219   6.188  0.7715  0.3847 -0.1527
  750MOL0     C 1161   9.856  -2.083   6.216 -0.3790  0.1772 -0.0823
  750MOL0     O 1162   9.492  -1.866   6.293 -0.3651 -0.4278 -0.4494
  750MOL0     C 1163   9.525  -1.603   6.240  0.3400 -0.0066 -0.7619
  750MOL0     C 1164   9.540  -1.465   6.232 -0.0293  0.4233  0.3387
  750MOL0     N 1165   9.246  -0.999   5.917 -0.5948 -0.1443  0.5865
  750MOL0     N 1166   9.188  -0.882   5.905 -0.6515 -0.1531  0.6265
  750MOL0     C 1167   9.140   0.225   5.744 -0.1296 -0.1330  0.3349
  750MOL0     C 1168   9.177   0.357   5.723 -0.0543  0.1871 -0.5500
  750MOL0     C 1169   9.335   0.704   5.567  0.6976 -0.2225  0.6993
  750MOL0     C 1170   9.435   0.756   5.480 -0.0282 -0.6166  0.4416
  750MOL0     C 1171   9.513   0.870   5.503  0.1979  0.8624 -0.1940
  750MOL0     C 1172   9.509   0.926   5.635 -0.3688 -0.5768  0.0978
  750MOL0     O 1173   9.584   1.026   5.687  0.7595 -0.5131  0.0148
  750MOL0     C 1174   9.690   1.070   5.600 -0.4703 -0.4349  0.4310
  750MOL0     C 1175   9.768   1.197   5.630  0.7234  0.7212  0.2408
  750MOL0     C 1176   9.912   1.214   5.569  0.5750 -0.4329  0.4455
  750MOL0     C 1177   9.989   1.317   5.655  0.9854 -0.3360  1.3291
  750MOL0     C 1178  10.006   1.257   5.787  0.0867 -0.3853  0.0757
  750MOL0     C 1179  10.029   1.206   5.895  0.6499 -0.3672 -1.1006
  750MOL0     C 1180   9.417   0.862   5.728  0.5607  0.2838  0.6165
  750MOL0     C 1181   9.326   0.759   5.694 -0.1924  0.4736 -0.1123
  750MOL0     C 1182   9.228   0.721   5.811 -0.0044  0.6491 -0.3494
  750MOL0     H 1183   8.976   0.418   5.467 -0.2489 -1.0916  1.2692
  750MOL0     H 1184   8.898   0.190   5.510 -0.1408 -1.3993  0.5439
  750MOL0     H 1185   8.883  -0.056   5.796  3.1815 -0.5053  0.3415
  750MOL0     H 1186   8.826   0.036   5.652  0.4343  1.5324  0.6137
  750MOL0     H 1187   8.926  -0.130   5.501  0.8405  0.6794 -0.2627
  750MOL0     H 1188   8.802  -0.179   5.624  0.5426  0.9047  2.2309
  750MOL0     H 1189   8.946  -0.304   5.742 -0.3144 -1.2195 -1.1892
  750MOL0     H 1190   9.092  -0.225   5.682 -1.0350  2.1529  1.6936
  750MOL0     H 1191   8.904  -0.412   5.500  2.1144 -1.8319 -2.9196
  750MOL0     H 1192   9.065  -0.351   5.460  0.3090  2.4160  1.0737
  750MOL0     H 1193   8.978  -0.557   5.677  1.9224 -1.1980  0.0230
  750MOL0     H 1194   9.047  -0.592   5.524  1.5228  0.1926 -0.4615
  750MOL0     H 1195   9.251  -0.451   5.599  0.1906 -1.5079 -2.3352
  750MOL0     H 1196   9.159  -0.435   5.748 -1.0836  1.4639 -1.2589
  750MOL0     H 1197   9.341  -0.641   5.671 -0.0654  1.1520  1.4238
  750MOL0     H 1198   9.195  -0.725   5.659  4.0607 -1.7872 -1.5684
  750MOL0     H 1199   9.316  -0.584   5.901  0.9551 -1.2148 -1.4626
  750MOL0     H 1200   9.149  -0.632   5.894  0.7403  0.0764  1.3128
  750MOL0     H 1201   9.510  -0.820   5.878  0.5479 -2.5645 -5.2680
  750MOL0     H 1202   9.421  -1.184   5.888  0.5765 -1.0634 -2.5321
  750MOL0     H 1203   9.541  -1.073   5.807 -2.8038  2.0060 -0.6894
  750MOL0     H 1204   9.629  -1.010   6.008  1.2734  0.5560 -2.4528
  750MOL0     H 1205   9.507  -1.091   6.106  1.8611  0.1857  0.2355
  750MOL0     H 1206   9.721  -1.214   5.932  0.2634  1.4091  0.4339
  750MOL0     H 1207   9.597  -1.321   6.007  0.1848 -0.1455  0.3377
  750MOL0     H 1208   9.776  -1.128   6.152 -3.2228  0.5858 -2.9087
  750MOL0     H 1209   9.827  -1.295   6.124  1.8827  1.0116 -0.2851
  750MOL0     H 1210   9.863  -1.427   6.314 -1.1646  3.5542 -1.4482
  750MOL0     H 1211   9.824  -1.713   6.324 -2.2855 -0.4573  1.0621
  750MOL0     H 1212   9.522  -2.095   6.274 -0.1610  0.3571 -2.3940
  750MOL0     H 1213   9.558  -2.334   6.241  1.1123 -2.5806  2.9102
  750MOL0     H 1214   9.658  -2.565   6.266  2.6451  0.2319  0.7669
  750MOL0     H 1215   9.601  -2.495   6.110 -1.5978  0.6686  3.0023
  750MOL0     H 1216   9.795  -2.603   5.994  2.0748 -1.2523  0.4242
  750MOL0     H 1217   9.846  -2.675   6.143  0.1165  3.5225  1.5485
  750MOL0     H 1218   9.589  -2.789   6.137 -0.0526 -2.2614 -1.6722
  750MOL0     H 1219   9.627  -2.755   5.974 -2.1104 -0.9032  1.0232
  750MOL0     H 1220   9.682  -2.980   6.045 -1.8422  1.6971 -1.2123
  750MOL0     H 1221   9.804  -2.914   6.156  0.4417 -2.3923 -0.5208
  750MOL0     H 1222   9.887  -2.807   5.909  1.1269 -1.1876 -2.1949
  750MOL0     H 1223   9.773  -2.919   5.854 -1.8836 -1.7522  0.8882
  750MOL0     H 1224  10.044  -2.961   5.901 -0.1680 -2.4080 -1.2321
  750MOL0     H 1225   9.995  -3.026   6.050  3.5844  1.0459 -1.3194
  750MOL0     H 1226   9.884  -3.112   5.773 -0.0970  1.7257  0.5891
  750MOL0     H 1227   9.838  -3.190   5.923  0.8002 -2.4121 -2.2098
  750MOL0     H 1228  10.041  -3.260   5.988 -4.3468 -0.2530 -0.6562
  750MOL0     H 1229  10.001  -3.326   5.825 -2.1680  2.1600 -2.5863
  750MOL0     H 1230   9.979  -2.244   6.158  0.9102  1.0199 -0.2322
  750MOL0     H 1231   9.936  -2.011   6.227  0.1027 -0.5224  1.3338
  750MOL0     H 1232   9.428  -1.632   6.201 -0.1276  0.6362 -0.0993
  750MOL0     H 1233   9.448  -1.422   6.195  0.1839  0.9277  0.3885
  750MOL0     H 1234   9.199   0.171   5.817  1.1363 -2.7699 -2.4340
  750MOL0     H 1235   9.259   0.399   5.780 -0.3696  1.8658 -1.2555
  750MOL0     H 1236   9.450   0.707   5.384  3.2057 -0.4236  0.7390
  750MOL0     H 1237   9.575   0.919   5.428 -2.0430  3.8065 -0.2895
  750MOL0     H 1238   9.651   1.091   5.501  0.0725  5.0523  1.0334
  750MOL0     H 1239   9.762   0.987   5.606 -2.2695 -2.1123 -0.2706
  750MOL0     H 1240   9.771   1.218   5.738 -3.1956 -0.2085  0.6899
  750MOL0     H 1241   9.708   1.279   5.588 -0.6680  0.8400  2.3051
  750MOL0     H 1242   9.894   1.257   5.469  2.7521  0.0302  0.2097
  750MOL0     H 1243   9.953   1.115   5.549 -1.8903 -1.7716  1.5124
  750MOL0     H 1244  10.085   1.350   5.614  0.4833 -2.4997 -2.0360
  750MOL0     H 1245   9.931   1.410   5.660  1.5132 -0.0664  3.6074
  750MOL0     H 1246  10.043   1.171   5.995 -1.8160  1.7901  0.1096
  750MOL0     H 1247   9.412   0.888   5.833  4.0444  3.4691  0.2351
  750MOL0     H 1248   9.131   0.753   5.772  0.4398  0.9617 -1.2103
  750MOL0     H 1249   9.234   0.613   5.828  2.2206  0.7363 -0.3912
  750MOL0     H 1250   9.249   0.783   5.899  0.8772 -0.1404  0.0066
  751MOL0     O 1251   5.733   4.649   4.453  0.0801  0.2269  0.2873
  751MOL0     C 1252   5.667   4.741   4.410  0.3640 -0.0684  0.3627
  751MOL0     O 1253   5.688   4.807   4.287  0.0532  0.8826  0.4385
  751MOL0     C 1254   5.794   4.758   4.217  0.0107  0.4783 -1.8437
  751MOL0     C 1255   5.913   4.825   4.233 -0.7649 -0.4745  0.9070
  751MOL0     C 1256   6.035   4.776   4.174  0.2759  0.1482  0.6090
  751MOL0     C 1257   6.042   4.668   4.092 -0.8310  1.2309 -0.0853
  751MOL0     O 1258   6.160   4.642   4.022  1.2291 -0.6438 -0.5789
  751MOL0     C 1259   6.186   4.508   3.996  0.1737  0.0188  0.0346
  751MOL0     C 1260   6.332   4.481   3.958 -0.7803  1.1449 -0.8085
  751MOL0     C 1261   6.428   4.562   4.046 -0.4931 -0.3303  1.0409
  751MOL0     C 1262   6.442   4.493   4.188  0.7941  0.2374 -0.1463
  751MOL0     C 1263   6.566   4.523   4.265  0.0171 -0.1595 -0.2897
  751MOL0     C 1264   6.562   4.450   4.402  0.3995  0.2928  1.6620
  751MOL0     C 1265   6.693   4.499   4.465 -0.2266  0.3294 -0.1552
  751MOL0     C 1266   6.684   4.505   4.622  0.5394  0.1565  1.0283
  751MOL0     N 1267   6.679   4.366   4.674  0.2261  0.0369 -0.3199
  751MOL0     C 1268   6.771   4.264   4.653  0.8632  0.2326  0.3597
  751MOL0     C 1269   6.705   4.148   4.689  0.4189  0.4388  0.5495
  751MOL0     C 1270   6.737   4.004   4.663  0.5980 -0.8884  0.9727
  751MOL0     C 1271   6.684   3.975   4.516 -0.2989 -0.0222 -1.2001
  751MOL0     C 1272   6.530   3.979   4.491  0.1158 -0.1662  0.3258
  751MOL0     C 1273   6.462   3.888   4.594 -0.0206  0.1815  0.0788
  751MOL0     O 1274   6.324   3.877   4.547  0.3148  0.3078 -0.7771
  751MOL0     C 1275   6.238   3.873   4.653 -0.2193  0.1152  0.5380
  751MOL0     C 1276   6.203   3.753   4.708 -0.8677 -0.4151 -0.8298
  751MOL0     C 1277   6.110   3.752   4.815  0.8633 -0.3889 -0.1866
  751MOL0     C 1278   6.067   3.878   4.871  0.3522 -0.4703 -0.1022
  751MOL0     C 1279   5.974   3.884   4.983  0.2945 -0.2528 -0.9685
  751MOL0     O 1280   5.908   3.763   5.011 -0.9183 -0.1079 -0.3012
  751MOL0     C 1281   5.808   3.756   5.109  0.0134  0.3051 -0.0890
  751MOL0     C 1282   5.709   3.658   5.074  1.1283 -0.3891  0.3079
  751MOL0     C 1283   5.589   3.657   5.138 -0.3786  0.2189  0.3384
  751MOL0     C 1284   5.565   3.738   5.257  0.4655  0.2602 -0.3945
  751MOL0     O 1285   5.449   3.736   5.323  0.2151  0.5652  0.0783
  751MOL0     C 1286   5.323   3.712   5.268  0.2725 -1.0091  0.3709
  751MOL0     C 1287   5.268   3.857   5.229  0.0041  0.2861  0.2622
  751MOL0     C 1288   5.117   3.857   5.204 -0.2231 -0.9900  0.6256
  751MOL0     C 1289   5.065   3.788   5.077  0.5379  0.1387  0.4068
  751MOL0     C 1290   4.920   3.791   5.070  0.8966 -0.7153 -0.4260
  751MOL0     C 1291   4.851   3.919   5.013  0.3245 -0.0338  0.6273
  751MOL0     C 1292   4.927   3.990   4.899  0.5460 -0.2111 -0.7527
  751MOL0     C 1293   4.853   4.117   4.867  0.6337 -0.6768  0.2614
  751MOL0    Cl 1294   4.923   4.200   4.723 -0.3893 -0.2310 -0.0701
  751MOL0     C 1295   5.666   3.823   5.301 -0.8839  0.9459 -0.3792
  751MOL0     C 1296   5.791   3.831   5.224 -0.1378 -0.5484  0.8018
  751MOL0     O 1297   5.953   3.994   5.045 -1.0061  1.4140  0.1931
  751MOL0     C 1298   6.105   3.995   4.810  0.3049 -0.1317  0.5660
  751MOL0     C 1299   6.183   3.987   4.697  0.4371 -0.7429  0.6258
  751MOL0     N 1300   6.581   4.185   4.738  0.3724  0.2029  1.3805
  751MOL0     N 1301   6.562   4.311   4.726 -0.5947  0.1524 -0.3770
  751MOL0     C 1302   5.915   4.613   4.061 -0.5481  0.9891 -0.5546
  751MOL0     C 1303   5.789   4.653   4.129 -1.4629 -0.0188 -0.3784
  751MOL0     C 1304   5.565   4.797   4.495 -0.4401 -1.0033 -0.0303
  751MOL0     C 1305   5.595   4.821   4.636  0.2676  0.1319 -0.6412
  751MOL0     C 1306   5.507   4.884   4.725  0.6910  0.6007  0.1702
  751MOL0     C 1307   5.377   4.919   4.678 -1.1118  0.0397  0.1401
  751MOL0     O 1308   5.294   4.957   4.779 -0.1380  0.3739  0.7497
  751MOL0     C 1309   5.342   5.072   4.852 -0.5541  0.3155  0.8734
  751MOL0     C 1310   5.238   5.133   4.937  0.1452 -1.1812  0.3472
  751MOL0     C 1311   5.198   5.037   5.041 -0.3264  0.7658 -0.6132
  751MOL0     C 1312   5.097   5.076   5.150 -0.0351 -0.1537  0.0519
  751MOL0     C 1313   4.968   5.098   5.089  0.6066 -0.8550 -0.3915
  751MOL0     C 1314   4.853   5.126   5.053  0.6190  0.6923  0.5962
  751MOL0     C 1315   5.339   4.900   4.544 -1.4641  0.7606  0.1026
  751MOL0     C 1316   5.426   4.822   4.461  0.8052  0.3963 -0.6002
  751MOL0     C 1317   5.376   4.796   4.323  0.3540  0.1478  0.0976
  751MOL0     H 1318   5.912   4.897   4.315  4.7727 -0.3705  1.2680
  751MOL0     H 1319   6.126   4.834   4.182 -1.1096  3.1106 -2.4959
  751MOL0     H 1320   6.156   4.441   4.078  1.4122 -2.7331 -1.6026
  751MOL0     H 1321   6.115   4.478   3.918 -1.1040 -0.2997  1.2802
  751MOL0     H 1322   6.348   4.503   3.852  1.1886 -0.7424 -0.9900
  751MOL0     H 1323   6.350   4.375   3.977 -1.3930  0.8973 -1.5725
  751MOL0     H 1324   6.384   4.662   4.058 -1.3631 -0.3336 -1.5175
  751MOL0     H 1325   6.523   4.575   3.994 -0.1543  1.0372  1.9585
  751MOL0     H 1326   6.357   4.500   4.257 -0.2750 -2.9403 -0.9797
  751MOL0     H 1327   6.448   4.385   4.178 -1.0000  0.0860  0.0595
  751MOL0     H 1328   6.661   4.492   4.219  0.4394 -3.7238  2.4939
  751MOL0     H 1329   6.563   4.630   4.288 -0.1641 -0.2545  0.1475
  751MOL0     H 1330   6.480   4.495   4.460 -1.6971  0.5857 -1.3002
  751MOL0     H 1331   6.541   4.344   4.383 -3.5866  1.4076 -1.4137
  751MOL0     H 1332   6.719   4.600   4.433  1.1578  0.3839  1.0632
  751MOL0     H 1333   6.772   4.436   4.426 -1.8395 -0.8872 -1.5842
  751MOL0     H 1334   6.767   4.566   4.659  1.6390 -1.1347  0.7854
  751MOL0     H 1335   6.589   4.552   4.649  1.2774  2.0473  0.5061
  751MOL0     H 1336   6.868   4.266   4.603 -0.4238  0.8576 -2.2479
  751MOL0     H 1337   6.840   3.970   4.672  1.0036  0.3242  1.1714
  751MOL0     H 1338   6.687   3.943   4.739 -0.0288 -1.7710 -0.1296
  751MOL0     H 1339   6.731   4.043   4.444  0.1468  1.1089  0.1165
  751MOL0     H 1340   6.707   3.873   4.487  1.2204 -0.0575  0.0180
  751MOL0     H 1341   6.517   3.934   4.392  0.5536  1.7001 -0.6127
  751MOL0     H 1342   6.492   4.081   4.495 -1.1649 -0.6401  0.8413
  751MOL0     H 1343   6.460   3.935   4.692 -2.0064 -2.4768  1.4340
  751MOL0     H 1344   6.517   3.794   4.607  1.1791  0.3184 -2.9892
  751MOL0     H 1345   6.249   3.658   4.681  1.1688  0.1174  0.5500
  751MOL0     H 1346   6.088   3.656   4.861 -1.1837 -0.6394 -1.5475
  751MOL0     H 1347   5.723   3.600   4.984  0.2110  3.3228 -2.4689
  751MOL0     H 1348   5.512   3.587   5.107 -1.5575  2.2458 -1.6547
  751MOL0     H 1349   5.325   3.655   5.175  0.1351 -2.0186  0.9773
  751MOL0     H 1350   5.259   3.657   5.338 -3.0638  0.2802 -1.4584
  751MOL0     H 1351   5.292   3.926   5.310  0.8759  2.2563 -1.5676
  751MOL0     H 1352   5.321   3.888   5.138 -2.7211 -1.8895 -2.2688
  751MOL0     H 1353   5.067   3.805   5.287 -0.3247  0.5416  1.5653
  751MOL0     H 1354   5.086   3.961   5.196 -3.5329 -1.9122 -0.0975
  751MOL0     H 1355   5.096   3.684   5.088  1.1633  0.0592 -1.6164
  751MOL0     H 1356   5.121   3.823   4.990 -3.4589  3.2349 -1.2140
  751MOL0     H 1357   4.877   3.761   5.166  0.6233 -4.6404 -1.5986
  751MOL0     H 1358   4.885   3.704   5.013 -1.8973 -1.4534  2.1497
  751MOL0     H 1359   4.752   3.888   4.979  0.3237  0.2715  0.3467
  751MOL0     H 1360   4.834   3.991   5.094  1.9814 -0.8763  1.7808
  751MOL0     H 1361   4.919   3.927   4.810 -0.7532  0.5532 -1.2113
  751MOL0     H 1362   5.034   4.000   4.921  0.8987 -2.0017 -1.5157
  751MOL0     H 1363   4.745   4.104   4.859  0.9101 -1.7925 -2.9806
  751MOL0     H 1364   4.851   4.184   4.954 -3.1835  2.7941 -2.0978
  751MOL0     H 1365   5.644   3.888   5.386  1.8966  3.3998 -1.3351
  751MOL0     H 1366   5.868   3.898   5.260 -2.9186  3.4094  0.0695
  751MOL0     H 1367   6.062   4.087   4.847  2.1884  0.6773  0.8516
  751MOL0     H 1368   6.211   4.074   4.638 -0.3779  1.8953  3.8455
  751MOL0     H 1369   5.928   4.540   3.983 -2.0001 -0.6370  0.6428
  751MOL0     H 1370   5.705   4.592   4.100 -1.5555  0.9493 -2.2659
  751MOL0     H 1371   5.689   4.785   4.677 -1.4394 -3.0613  0.8527
  751MOL0     H 1372   5.538   4.887   4.829 -0.9898  0.5545  0.7013
  751MOL0     H 1373   5.387   5.145   4.783  0.6080 -2.0653 -1.0464
  751MOL0     H 1374   5.421   5.047   4.923  2.3158 -0.6806 -2.3924
  751MOL0     H 1375   5.145   5.159   4.886  0.3045 -1.0713  0.1139
  751MOL0     H 1376   5.288   5.225   4.971 -0.7059 -0.4982 -0.2088
  751MOL0     H 1377   5.286   5.013   5.101 -1.6528  4.7735  3.4692
  751MOL0     H 1378   5.159   4.947   4.993  1.3377 -1.5961  2.1387
  751MOL0     H 1379   5.092   4.988   5.214  0.9578 -0.1429  0.1609
  751MOL0     H 1380   5.134   5.168   5.198 -0.7136  0.8200 -1.2071
  751MOL0     H 1381   4.751   5.150   5.028  1.4164  1.5136 -2.1731
  751MOL0     H 1382   5.235   4.920   4.521 -1.4768  1.0030  0.3660
  751MOL0     H 1383   5.370   4.690   4.295  0.5419 -0.0470  0.7851
  751MOL0     H 1384   5.276   4.840   4.314  0.2201  0.4633  2.4746
  751MOL0     H 1385   5.433   4.851   4.248  0.1352  2.2420  1.3943
  752MOL0     O 1386   8.755   6.468   0.719  0.0427  0.6611  0.0519
  752MOL0     C 1387   8.846   6.396   0.746 -0.4558  0.0534 -0.7816
  752MOL0     O 1388   8.909   6.305   0.669  0.3275 -0.1993 -0.6469
  752MOL0     C 1389   8.879   6.322   0.535 -0.1603 -0.2739 -0.5041
  752MOL0     C 1390   8.885   6.447   0.461  0.6112 -0.4285 -0.5213
  752MOL0     C 1391   8.873   6.454   0.328 -0.1678 -0.1567  0.2816
  752MOL0     C 1392   8.846   6.335   0.266  0.0854 -0.0463  0.6016
  752MOL0     O 1393   8.834   6.354   0.125  0.5972  0.5821  0.1041
  752MOL0     C 1394   8.899   6.261   0.043  0.2402 -0.7223 -0.6826
  752MOL0     C 1395   8.956   6.328  -0.077 -0.7116 -0.7027  0.1718
  752MOL0     C 1396   8.852   6.357  -0.194  0.0224 -0.0158  0.3846
  752MOL0     C 1397   8.918   6.428  -0.315 -0.4684  0.2844 -0.7204
  752MOL0     C 1398   8.848   6.413  -0.447 -0.3283 -0.9541  0.0406
  752MOL0     C 1399   8.863   6.278  -0.519 -0.7359 -0.4004 -0.9902
  752MOL0     C 1400   9.005   6.252  -0.564  0.1815  0.2156  0.6317
  752MOL0     C 1401   8.988   6.122  -0.650 -0.8304 -0.1422 -0.2300
  752MOL0     N 1402   8.983   5.991  -0.580  0.3196 -0.0050 -0.4480
  752MOL0     C 1403   9.041   5.960  -0.460  1.1676 -0.4262  0.3279
  752MOL0     C 1404   8.996   5.839  -0.430  0.4387 -0.0027 -0.2458
  752MOL0     C 1405   9.049   5.750  -0.318 -0.8143  0.3357 -0.4683
  752MOL0     C 1406   8.970   5.730  -0.193  0.7030  0.4174  0.3684
  752MOL0     C 1407   8.929   5.865  -0.122  0.6336  0.5361  0.1398
  752MOL0     C 1408   8.827   5.861  -0.004  0.6620  1.2137  0.4898
  752MOL0     O 1409   8.898   5.888   0.113  0.1343  0.3053  0.0279
  752MOL0     C 1410   8.868   5.830   0.237 -0.3024  0.1312 -0.4026
  752MOL0     C 1411   8.953   5.861   0.344  1.0180  0.1124  0.3690
  752MOL0     C 1412   8.940   5.795   0.468  0.2352 -0.0817  1.6778
  752MOL0     C 1413   8.836   5.701   0.490 -0.4670 -0.4527  1.0691
  752MOL0     C 1414   8.823   5.614   0.610 -0.1423  0.0396 -0.3773
  752MOL0     O 1415   8.756   5.491   0.596 -0.4155 -0.2583 -0.3860
  752MOL0     C 1416   8.757   5.403   0.701  0.2607  1.0460 -0.5255
  752MOL0     C 1417   8.874   5.349   0.750  0.0964 -0.6886 -0.4230
  752MOL0     C 1418   8.869   5.268   0.862  0.6054 -1.4918  0.0888
  752MOL0     C 1419   8.741   5.229   0.913  0.3203  0.4230  1.4675
  752MOL0     O 1420   8.728   5.153   1.025 -0.7165 -0.3320 -0.1936
  752MOL0     C 1421   8.815   5.193   1.137  0.2826  1.1990 -0.4281
  752MOL0     C 1422   8.802   5.340   1.169  1.0886 -0.1555  0.6413
  752MOL0     C 1423   8.861   5.359   1.314 -0.3594 -0.1957  0.4457
  752MOL0     C 1424   8.921   5.508   1.340  0.6785  0.5559 -0.4920
  752MOL0     C 1425   8.978   5.536   1.480  0.0876 -0.2529  0.3442
  752MOL0     C 1426   8.866   5.537   1.588 -0.0717 -0.5848 -0.4819
  752MOL0     C 1427   8.914   5.569   1.736  0.1162  0.2133  0.2102
  752MOL0     C 1428   8.796   5.610   1.827 -0.3417  0.6648 -0.3343
  752MOL0    Cl 1429   8.693   5.747   1.772 -0.1844 -0.0430  0.4708
  752MOL0     C 1430   8.629   5.275   0.854  0.6526 -0.3049  0.0546
  752MOL0     C 1431   8.630   5.357   0.744 -1.4225  0.9048  0.4419
  752MOL0     O 1432   8.872   5.648   0.715 -0.2183 -0.3309  0.6946
  752MOL0     C 1433   8.753   5.678   0.374  1.1007  0.0053  0.0686
  752MOL0     C 1434   8.762   5.737   0.256 -0.4905 -0.3510 -0.1923
  752MOL0     N 1435   8.917   5.791  -0.533  0.2914  0.1992  1.0160
  752MOL0     N 1436   8.905   5.888  -0.621 -0.6813  0.0127  0.0472
  752MOL0     C 1437   8.836   6.207   0.337 -0.4868  0.6579 -0.9620
  752MOL0     C 1438   8.837   6.203   0.469 -0.1258  0.3989  0.0863
  752MOL0     C 1439   8.903   6.387   0.887  0.0425  0.0084 -0.3977
  752MOL0     C 1440   9.013   6.303   0.919  0.4130 -0.6525  0.2000
  752MOL0     C 1441   9.058   6.290   1.051  0.2786  0.4555  0.5213
  752MOL0     C 1442   9.003   6.343   1.166  0.3911  0.0727  0.9244
  752MOL0     O 1443   9.055   6.318   1.291 -0.0601  0.1106  0.8272
  752MOL0     C 1444   9.018   6.208   1.356  0.7314  0.9713 -0.5335
  752MOL0     C 1445   9.096   6.079   1.314 -0.4503  0.9004 -0.8323
  752MOL0     C 1446   9.047   5.949   1.381 -0.4240 -0.1094 -0.1549
  752MOL0     C 1447   8.927   5.911   1.321 -0.0827  0.0607  0.5163
  752MOL0     C 1448   8.937   5.846   1.192  1.9936  0.4573 -0.6065
  752MOL0     C 1449   8.956   5.792   1.079  1.0573  0.1157 -0.4604
  752MOL0     C 1450   8.891   6.416   1.140  0.4676  0.1583 -0.5628
  752MOL0     C 1451   8.841   6.445   0.997 -0.0694 -0.0579 -0.4219
  752MOL0     C 1452   8.715   6.525   0.991  0.7472  0.2183 -0.1717
  752MOL0     H 1453   8.903   6.534   0.523  0.1656 -1.8801  1.8083
  752MOL0     H 1454   8.862   6.536   0.259 -1.8048 -1.4086 -1.0406
  752MOL0     H 1455   8.977   6.208   0.097  3.0332  1.5470 -2.2466
  752MOL0     H 1456   8.821   6.193   0.006 -2.3824  1.9408 -0.5051
  752MOL0     H 1457   9.017   6.251  -0.126  0.8314  0.7086 -0.2175
  752MOL0     H 1458   9.005   6.422  -0.053 -3.4693  0.7461  0.5442
  752MOL0     H 1459   8.767   6.419  -0.165 -2.6257 -4.3117  2.9691
  752MOL0     H 1460   8.810   6.260  -0.223  2.9658 -1.6358  1.1158
  752MOL0     H 1461   8.926   6.536  -0.299 -0.8478  0.5357 -2.1038
  752MOL0     H 1462   9.023   6.398  -0.318 -0.3833 -0.0517  2.4305
  752MOL0     H 1463   8.741   6.432  -0.441  0.2941  2.7333  2.2360
  752MOL0     H 1464   8.893   6.496  -0.502 -2.2219  0.7489  0.9354
  752MOL0     H 1465   8.821   6.203  -0.452  2.1842 -0.3985  1.0425
  752MOL0     H 1466   8.801   6.288  -0.609 -1.7722  2.5015 -0.0773
  752MOL0     H 1467   9.065   6.237  -0.474  1.4071  1.7139  0.1081
  752MOL0     H 1468   9.032   6.341  -0.621  0.5433  0.2369  0.8351
  752MOL0     H 1469   8.902   6.135  -0.716 -2.1938  1.3643  1.7474
  752MOL0     H 1470   9.071   6.114  -0.721  1.9140  2.5407  2.3914
  752MOL0     H 1471   9.104   6.027  -0.402  1.6075 -2.3302  2.1728
  752MOL0     H 1472   9.074   5.661  -0.376 -2.2297  0.6117 -1.5292
  752MOL0     H 1473   9.134   5.810  -0.284 -0.7082  0.5654 -1.1318
  752MOL0     H 1474   8.882   5.667  -0.212 -0.1312  1.1207  1.7203
  752MOL0     H 1475   9.033   5.669  -0.127 -0.7803 -3.5730 -1.5563
  752MOL0     H 1476   8.879   5.930  -0.194  1.9608  1.3680 -0.0517
  752MOL0     H 1477   9.017   5.921  -0.090  2.4052 -2.3139  0.6395
  752MOL0     H 1478   8.769   5.769   0.007  1.5065  0.9672  4.0127
  752MOL0     H 1479   8.759   5.942  -0.031  0.9833  1.6388  0.9356
  752MOL0     H 1480   9.030   5.931   0.313  3.0826 -1.6918  1.2561
  752MOL0     H 1481   9.006   5.811   0.553  0.6338 -2.6479  1.9567
  752MOL0     H 1482   8.968   5.381   0.706 -2.3795  2.1971 -4.1572
  752MOL0     H 1483   8.962   5.236   0.907  0.7678 -1.9472 -0.5541
  752MOL0     H 1484   8.777   5.139   1.224  1.3420  2.8988  1.1645
  752MOL0     H 1485   8.915   5.162   1.105 -0.4797  1.2285 -3.0902
  752MOL0     H 1486   8.850   5.401   1.092 -2.0206 -1.0511 -2.2344
  752MOL0     H 1487   8.700   5.379   1.167  1.4248  0.8129  1.2742
  752MOL0     H 1488   8.781   5.348   1.387  0.7322 -3.9570  1.2918
  752MOL0     H 1489   8.946   5.293   1.337  0.2925 -0.4037 -2.1832
  752MOL0     H 1490   8.843   5.579   1.311 -0.1446  0.0157  0.3384
  752MOL0     H 1491   8.999   5.514   1.263  3.0962 -2.3511  1.5066
  752MOL0     H 1492   9.017   5.638   1.485 -0.0061 -0.0118 -2.5769
  752MOL0     H 1493   9.063   5.470   1.498  2.4550  2.2375 -1.0549
  752MOL0     H 1494   8.807   5.620   1.548  4.5647  2.4060 -1.9626
  752MOL0     H 1495   8.822   5.436   1.585  2.2776 -1.6942  0.4222
  752MOL0     H 1496   8.979   5.656   1.745 -0.4682  0.4964  2.4321
  752MOL0     H 1497   8.961   5.481   1.781  0.2751  0.1586 -0.0638
  752MOL0     H 1498   8.731   5.522   1.833 -0.2944  0.5847 -0.9809
  752MOL0     H 1499   8.838   5.634   1.925  0.3896 -3.3914  0.5438
  752MOL0     H 1500   8.536   5.263   0.909  0.7870 -2.1428 -0.0512
  752MOL0     H 1501   8.537   5.404   0.711 -1.5291 -1.2502 -2.7349
  752MOL0     H 1502   8.669   5.609   0.376  0.4885  0.6760 -1.3866
  752MOL0     H 1503   8.685   5.705   0.187 -1.4487  3.7178 -1.3079
  752MOL0     H 1504   8.821   6.120   0.274 -2.9448  0.3516 -0.0515
  752MOL0     H 1505   8.821   6.112   0.526  1.4268  0.0235 -0.0302
  752MOL0     H 1506   9.052   6.235   0.844 -0.8627 -2.0054  0.7033
  752MOL0     H 1507   9.146   6.228   1.062  0.6730  0.7871 -0.6683
  752MOL0     H 1508   8.917   6.176   1.332  1.1847 -1.7586  0.7578
  752MOL0     H 1509   9.027   6.213   1.465 -0.3338 -2.6425 -0.1421
  752MOL0     H 1510   9.204   6.081   1.327 -0.2623 -4.8956  1.3852
  752MOL0     H 1511   9.082   6.074   1.205 -3.3437  2.4142 -0.6277
  752MOL0     H 1512   9.034   5.972   1.487 -0.2843 -2.1967  0.3675
  752MOL0     H 1513   9.119   5.867   1.379 -1.5289 -1.0881 -1.8336
  752MOL0     H 1514   8.889   5.838   1.393  0.7053  0.0488  0.9323
  752MOL0     H 1515   8.849   5.988   1.319 -1.6284 -1.3983  1.8562
  752MOL0     H 1516   9.001   5.752   0.991 -1.8643 -1.1279 -1.5389
  752MOL0     H 1517   8.842   6.467   1.222  1.3314 -0.7883  0.5804
  752MOL0     H 1518   8.735   6.609   0.923  1.5422 -0.9942 -1.4743
  752MOL0     H 1519   8.629   6.466   0.958  0.3762  1.6538 -1.9484
  752MOL0     H 1520   8.694   6.571   1.088  1.7319  1.8774 -0.7020
  753MOL0     O 1521   2.844   4.133   0.685 -0.4489 -0.1672  0.0232
  753MOL0     C 1522   2.924   4.053   0.729  0.0371  0.4695  0.0185
  753MOL0     O 1523   2.940   4.024   0.864 -0.0966 -0.2089 -0.3437
  753MOL0     C 1524   2.823   4.013   0.936 -1.2437 -0.7132  0.3985
  753MOL0     C 1525   2.749   4.118   0.987  0.4013  0.1062 -0.0934
  753MOL0     C 1526   2.635   4.105   1.061  0.2280  0.2395  0.0430
  753MOL0     C 1527   2.579   3.978   1.080 -0.5315 -0.0449 -1.1520
  753MOL0     O 1528   2.457   3.972   1.149  0.0484 -0.8923  0.3403
  753MOL0     C 1529   2.355   3.885   1.093 -0.2409  0.4705 -0.5411
  753MOL0     C 1530   2.232   3.878   1.188 -0.2882 -0.0403 -0.2216
  753MOL0     C 1531   2.187   4.023   1.240  0.2526  0.3771  1.8894
  753MOL0     C 1532   2.109   4.001   1.360  0.3937  0.0450 -0.7597
  753MOL0     C 1533   2.022   4.115   1.419  0.2834 -0.0122  0.5900
  753MOL0     C 1534   2.093   4.238   1.472  0.5116  0.3789  0.3310
  753MOL0     C 1535   2.001   4.339   1.548 -0.0833  0.4602  0.2498
  753MOL0     C 1536   1.850   4.321   1.523 -0.1883 -0.0608 -0.4038
  753MOL0     N 1537   1.777   4.429   1.576 -0.0391  0.4754 -0.8698
  753MOL0     C 1538   1.719   4.534   1.513  0.0560 -0.6891  0.3720
  753MOL0     C 1539   1.660   4.597   1.617  0.0659  1.0017  0.1001
  753MOL0     C 1540   1.571   4.716   1.595  0.2952 -2.0705  0.5758
  753MOL0     C 1541   1.437   4.685   1.515 -0.6344 -0.4218  0.4065
  753MOL0     C 1542   1.458   4.680   1.352  0.8043  0.0955  0.0873
  753MOL0     C 1543   1.537   4.794   1.284  0.1446 -0.4375 -0.2705
  753MOL0     O 1544   1.462   4.846   1.168  0.9807  0.0891  0.7294
  753MOL0     C 1545   1.477   4.776   1.044 -0.1400 -0.7332 -0.7519
  753MOL0     C 1546   1.566   4.675   1.020 -0.0157 -0.1642 -0.0747
  753MOL0     C 1547   1.571   4.619   0.899 -1.3360 -0.7694  0.2377
  753MOL0     C 1548   1.496   4.662   0.789 -0.6467  0.1256  1.0946
  753MOL0     C 1549   1.516   4.608   0.653  0.6581  0.0255  0.5505
  753MOL0     O 1550   1.437   4.658   0.549  0.3167 -0.6057 -0.4727
  753MOL0     C 1551   1.451   4.612   0.424  0.3220  0.3330  0.3614
  753MOL0     C 1552   1.427   4.478   0.388 -0.4813 -0.4317  0.0965
  753MOL0     C 1553   1.450   4.438   0.256 -1.0116  0.3649  0.1454
  753MOL0     C 1554   1.479   4.532   0.160 -0.5375  0.0127 -0.3197
  753MOL0     O 1555   1.479   4.499   0.030 -0.2411  0.5126  0.1949
  753MOL0     C 1556   1.351   4.460  -0.017  0.5850 -0.2225 -0.8853
  753MOL0     C 1557   1.293   4.553  -0.126 -0.3262 -0.5058 -0.8554
  753MOL0     C 1558   1.164   4.512  -0.190 -0.3764  0.2145 -0.1363
  753MOL0     C 1559   1.050   4.608  -0.188  0.4093  0.7720  0.4607
  753MOL0     C 1560   1.075   4.732  -0.274  0.6282  0.6204  0.6776
  753MOL0     C 1561   0.947   4.819  -0.277  0.0520 -0.3399 -0.4794
  753MOL0     C 1562   0.967   4.936  -0.370  0.6337  0.2896 -0.3313
  753MOL0     C 1563   0.847   5.014  -0.395 -0.0697 -0.0758 -0.2398
  753MOL0    Cl 1564   0.706   4.910  -0.452  0.0251  0.0369  0.0813
  753MOL0     C 1565   1.508   4.668   0.192  0.0171 -0.2380 -1.0488
  753MOL0     C 1566   1.485   4.706   0.323  0.7410 -0.1942  0.3914
  753MOL0     O 1567   1.595   4.517   0.651  0.0480 -0.1650  0.8704
  753MOL0     C 1568   1.406   4.770   0.809  0.0977  0.9233  0.0105
  753MOL0     C 1569   1.402   4.825   0.939 -1.0914 -0.3088 -0.0843
  753MOL0     N 1570   1.684   4.535   1.733  0.2907  0.3417 -0.1457
  753MOL0     N 1571   1.754   4.432   1.709  0.2996  0.3617 -0.0117
  753MOL0     C 1572   2.655   3.866   1.029 -1.3930  0.2033  0.4463
  753MOL0     C 1573   2.783   3.884   0.965  0.7343  0.2098  0.5944
  753MOL0     C 1574   3.009   3.984   0.633  0.3038 -0.2107 -0.5755
  753MOL0     C 1575   3.030   4.049   0.502  0.5098 -0.7916 -0.5935
  753MOL0     C 1576   3.126   4.001   0.409  0.2799 -0.4885  0.2786
  753MOL0     C 1577   3.206   3.890   0.447 -0.2484 -0.3086 -0.0773
  753MOL0     O 1578   3.290   3.836   0.354  0.0888 -0.6962 -0.1358
  753MOL0     C 1579   3.331   3.915   0.243 -0.5471 -0.1488 -1.1080
  753MOL0     C 1580   3.454   3.845   0.175 -0.3956  0.2835  0.0810
  753MOL0     C 1581   3.494   3.889   0.030 -0.3827 -0.0712  0.0857
  753MOL0     C 1582   3.541   4.043   0.013  0.4804 -0.1859 -1.0928
  753MOL0     C 1583   3.566   4.057  -0.127 -0.4905  0.0840  0.1647
  753MOL0     C 1584   3.602   4.071  -0.243  0.5302 -0.5880 -0.3193
  753MOL0     C 1585   3.187   3.815   0.558  0.1873 -0.7716  0.2538
  753MOL0     C 1586   3.092   3.859   0.654 -0.5512 -0.4078  0.5489
  753MOL0     C 1587   3.076   3.780   0.782  0.6576  0.1905  0.4106
  753MOL0     H 1588   2.789   4.218   0.981 -1.4581  0.8326 -1.4660
  753MOL0     H 1589   2.586   4.189   1.109 -1.3936  0.9051 -2.5972
  753MOL0     H 1590   2.312   3.937   1.007 -2.2171 -0.1845 -0.0080
  753MOL0     H 1591   2.398   3.785   1.077 -3.4922 -1.5043  1.7744
  753MOL0     H 1592   2.266   3.819   1.274 -0.2652  0.3411  0.0326
  753MOL0     H 1593   2.154   3.828   1.130 -2.7580  2.8873  0.3266
  753MOL0     H 1594   2.134   4.068   1.155  1.3342  0.9594  1.4882
  753MOL0     H 1595   2.278   4.081   1.261  2.3221 -1.9559 -0.0068
  753MOL0     H 1596   2.044   3.916   1.336 -0.4866 -0.1652  2.0292
  753MOL0     H 1597   2.176   3.947   1.429 -0.7668 -0.4433  0.0210
  753MOL0     H 1598   1.957   4.150   1.338 -0.5577 -2.1328  0.2841
  753MOL0     H 1599   1.955   4.077   1.496  0.8114 -2.5252 -0.1041
  753MOL0     H 1600   2.166   4.208   1.548 -2.4388 -1.6889  2.5802
  753MOL0     H 1601   2.150   4.299   1.402  0.1980  1.2359  0.8030
  753MOL0     H 1602   2.033   4.436   1.508 -0.3854  0.4877  0.0700
  753MOL0     H 1603   2.025   4.325   1.654  2.4732 -0.9151 -0.4240
  753MOL0     H 1604   1.820   4.314   1.418 -1.4214 -0.6169 -0.0257
  753MOL0     H 1605   1.826   4.231   1.580  1.0314 -1.0464 -1.3781
  753MOL0     H 1606   1.708   4.561   1.408 -1.1718  0.4951  0.7679
  753MOL0     H 1607   1.551   4.772   1.687  0.8165 -1.5890  0.4003
  753MOL0     H 1608   1.628   4.788   1.536  0.1806 -1.2763  1.4077
  753MOL0     H 1609   1.393   4.596   1.561 -3.9620  0.6340 -0.4637
  753MOL0     H 1610   1.373   4.770   1.541 -1.9517 -0.1592 -3.1469
  753MOL0     H 1611   1.360   4.673   1.304  0.2393  1.1992  1.0503
  753MOL0     H 1612   1.497   4.579   1.334 -0.0111 -0.2361  0.1205
  753MOL0     H 1613   1.641   4.769   1.261  1.7051 -0.2780  5.3393
  753MOL0     H 1614   1.541   4.885   1.344 -1.5178 -0.3626 -0.2255
  753MOL0     H 1615   1.624   4.632   1.100 -0.2704 -0.7121 -0.1812
  753MOL0     H 1616   1.643   4.537   0.889 -1.5793 -0.7810 -1.9800
  753MOL0     H 1617   1.413   4.408   0.470 -0.0311  1.1391  1.5710
  753MOL0     H 1618   1.454   4.335   0.223  2.6422 -0.3154  2.2131
  753MOL0     H 1619   1.372   4.367  -0.071  2.7636 -0.2101 -0.1800
  753MOL0     H 1620   1.286   4.435   0.067  1.0114  1.1582 -0.1225
  753MOL0     H 1621   1.302   4.655  -0.088 -0.6176  0.1476 -2.4534
  753MOL0     H 1622   1.368   4.528  -0.201 -0.4157 -1.3353 -0.6749
  753MOL0     H 1623   1.189   4.479  -0.291 -2.0351 -2.8905  0.3609
  753MOL0     H 1624   1.118   4.434  -0.129 -1.0905  0.6423 -0.1145
  753MOL0     H 1625   1.029   4.645  -0.087 -3.6071 -3.4327  1.4877
  753MOL0     H 1626   0.959   4.558  -0.222 -2.2784  4.4615  1.6086
  753MOL0     H 1627   1.100   4.701  -0.376  4.4356  1.7608  1.0809
  753MOL0     H 1628   1.165   4.782  -0.235  0.6306  2.4701 -1.4782
  753MOL0     H 1629   0.867   4.749  -0.303  0.0607 -0.4894 -0.1161
  753MOL0     H 1630   0.923   4.849  -0.175 -2.9348 -0.7823 -0.9494
  753MOL0     H 1631   1.001   4.896  -0.466 -3.4621 -0.1740 -1.7845
  753MOL0     H 1632   1.040   5.005  -0.327 -1.1879  2.0928 -0.0167
  753MOL0     H 1633   0.828   5.061  -0.298 -4.7383 -5.0172  1.7823
  753MOL0     H 1634   0.879   5.088  -0.469  2.4155 -1.4647 -0.6865
  753MOL0     H 1635   1.545   4.729   0.110 -2.2247  0.9810 -1.2513
  753MOL0     H 1636   1.485   4.813   0.336  1.5413 -0.2727  1.1141
  753MOL0     H 1637   1.366   4.809   0.716  1.6864 -0.9739 -1.5765
  753MOL0     H 1638   1.329   4.904   0.954 -0.3180 -0.0858  3.1618
  753MOL0     H 1639   2.608   3.773   1.061 -0.5982  0.4172  2.3983
  753MOL0     H 1640   2.850   3.807   0.928  0.5978  0.0962  0.5805
  753MOL0     H 1641   2.965   4.134   0.481  1.2809 -0.1838 -0.5728
  753MOL0     H 1642   3.149   4.058   0.320 -0.1875  0.8228  0.9841
  753MOL0     H 1643   3.353   4.020   0.264  0.3850 -0.2207 -1.6753
  753MOL0     H 1644   3.248   3.908   0.173 -1.3470  0.5968 -0.2668
  753MOL0     H 1645   3.412   3.745   0.158  0.8780  0.0247 -1.7996
  753MOL0     H 1646   3.540   3.843   0.242 -0.8173 -0.9834  0.6147
  753MOL0     H 1647   3.406   3.871  -0.033 -0.5806  0.3799  0.2287
  753MOL0     H 1648   3.572   3.816   0.006  0.3697 -0.6437  3.7026
  753MOL0     H 1649   3.458   4.110   0.036  1.0917  1.8281 -4.1235
  753MOL0     H 1650   3.627   4.044   0.081 -0.4040  0.9191  0.0430
  753MOL0     H 1651   3.622   4.089  -0.346 -2.7503 -1.9707 -1.3349
  753MOL0     H 1652   3.253   3.728   0.564 -0.6480 -1.5194 -0.9636
  753MOL0     H 1653   3.104   3.844   0.866 -0.2259  0.5174  0.4596
  753MOL0     H 1654   2.973   3.750   0.800  0.3342  1.6482  1.1495
  753MOL0     H 1655   3.126   3.683   0.790 -2.4311 -1.4295  2.1171
  754MOL0     O 1656   8.662   3.124  11.431 -0.4949 -0.8520 -0.1511
  754MOL0     C 1657   8.645   3.111  11.311 -0.0583  0.4713 -0.1892
  754MOL0     O 1658   8.591   3.000  11.253 -0.0004  0.1398 -0.7255
  754MOL0     C 1659   8.602   2.882  11.321  1.3104  0.0209 -0.3439
  754MOL0     C 1660   8.501   2.845  11.406  0.2668  0.7382  0.2421
  754MOL0     C 1661   8.508   2.737  11.491 -0.3473 -0.8848  0.5898
  754MOL0     C 1662   8.616   2.648  11.483 -0.2238 -0.7122 -0.9882
  754MOL0     O 1663   8.626   2.536  11.556  0.2358  0.2973 -0.1895
  754MOL0     C 1664   8.522   2.495  11.645 -0.5875 -0.0429  0.5330
  754MOL0     C 1665   8.533   2.569  11.778  0.5402 -0.1389 -0.0391
  754MOL0     C 1666   8.452   2.537  11.891  0.7106  1.3313  0.4242
  754MOL0     C 1667   8.485   2.399  11.942 -0.1426 -0.7420 -0.5484
  754MOL0     C 1668   8.393   2.345  12.062 -0.7230  0.0870  0.1644
  754MOL0     C 1669   8.438   2.408  12.203 -0.3835  0.5802 -0.5038
  754MOL0     C 1670   8.372   2.543  12.237  0.4396  0.0742 -0.2292
  754MOL0     C 1671   8.412   2.589  12.371  0.0831 -1.0023 -0.1642
  754MOL0     N 1672   8.406   2.485  12.478  0.1798 -0.2926  0.3408
  754MOL0     C 1673   8.293   2.423  12.521  0.3954 -0.0332 -0.9692
  754MOL0     C 1674   8.330   2.339  12.623  0.6968  0.4568 -0.6533
  754MOL0     C 1675   8.230   2.260  12.705 -0.9176 -0.4546 -0.4543
  754MOL0     C 1676   8.130   2.190  12.614  0.0191  0.5811 -1.1136
  754MOL0     C 1677   8.049   2.087  12.692 -0.3352 -0.2698  0.5647
  754MOL0     C 1678   7.919   2.050  12.633  0.9714  0.0566 -0.0219
  754MOL0     O 1679   7.837   2.161  12.600  0.8531 -0.1068  0.3603
  754MOL0     C 1680   7.833   2.210  12.469 -0.4210 -0.0326 -0.3528
  754MOL0     C 1681   7.812   2.348  12.446 -0.0509 -0.1826  0.3590
  754MOL0     C 1682   7.817   2.401  12.323 -0.4223  0.1250  0.8275
  754MOL0     C 1683   7.868   2.328  12.213 -1.4130  0.6262  0.2200
  754MOL0     C 1684   7.892   2.378  12.070 -0.2219 -0.2483 -0.3006
  754MOL0     O 1685   8.013   2.343  12.010 -0.1387 -0.3649  0.5889
  754MOL0     C 1686   8.044   2.378  11.881  0.4670 -0.7203 -0.2216
  754MOL0     C 1687   8.009   2.497  11.827 -0.4108 -0.2632  0.5564
  754MOL0     C 1688   8.059   2.548  11.709 -0.8507  0.1008 -0.5860
  754MOL0     C 1689   8.138   2.462  11.631 -0.8670  0.7383  0.8578
  754MOL0     O 1690   8.190   2.489  11.509 -0.2114 -0.4792 -0.6893
  754MOL0     C 1691   8.132   2.409  11.412 -0.6438 -0.3019  0.0134
  754MOL0     C 1692   8.226   2.448  11.293  1.7198 -0.9061 -0.4759
  754MOL0     C 1693   8.244   2.599  11.257 -0.2388  0.5838 -0.2202
  754MOL0     C 1694   8.232   2.632  11.109 -0.2973 -0.7499  0.3961
  754MOL0     C 1695   8.276   2.772  11.086 -0.1805  0.0599 -0.2844
  754MOL0     C 1696   8.282   2.816  10.941  0.0769 -0.4922 -0.1690
  754MOL0     C 1697   8.398   2.762  10.860 -1.0585 -0.3404 -0.5193
  754MOL0     C 1698   8.430   2.843  10.738  0.6008  0.1282  0.0172
  754MOL0    Cl 1699   8.521   2.753  10.613 -0.0118 -0.2248 -0.4075
  754MOL0     C 1700   8.184   2.343  11.685 -0.1479 -0.3324 -0.4116
  754MOL0     C 1701   8.137   2.301  11.812 -0.2101  0.2230 -0.2243
  754MOL0     O 1702   7.795   2.450  12.028 -0.8544 -0.0117  0.5752
  754MOL0     C 1703   7.910   2.198  12.230 -0.2404 -0.0484  0.2147
  754MOL0     C 1704   7.884   2.132  12.359  0.2640 -1.4143  0.9561
  754MOL0     N 1705   8.473   2.352  12.638  0.2770  0.2280  0.6021
  754MOL0     N 1706   8.513   2.438  12.550 -1.1957 -0.8342  0.5729
  754MOL0     C 1707   8.720   2.680  11.398 -0.0112  0.2139  0.9256
  754MOL0     C 1708   8.712   2.798  11.319  0.6429 -0.6580  0.2174
  754MOL0     C 1709   8.663   3.231  11.217 -0.6152  1.0805 -1.0649
  754MOL0     C 1710   8.743   3.334  11.266 -0.1118  0.1145 -0.4100
  754MOL0     C 1711   8.781   3.437  11.183  0.4639  0.1105  0.1186
  754MOL0     C 1712   8.750   3.438  11.049 -0.9799  0.2510  0.2625
  754MOL0     O 1713   8.791   3.536  10.962 -0.0261 -1.0406  0.3561
  754MOL0     C 1714   8.701   3.572  10.851  0.4247  1.0482 -0.3818
  754MOL0     C 1715   8.721   3.717  10.805  0.5679  0.3611 -0.2156
  754MOL0     C 1716   8.675   3.830  10.903  0.4498  0.2125 -0.1793
  754MOL0     C 1717   8.796   3.886  10.977  0.5471  0.0575 -0.5725
  754MOL0     C 1718   8.884   3.965  10.894  0.5833 -0.5885  0.1671
  754MOL0     C 1719   8.942   4.041  10.817  0.6310 -0.0074  0.3588
  754MOL0     C 1720   8.660   3.337  11.007 -1.0405 -0.0850 -0.1304
  754MOL0     C 1721   8.608   3.234  11.084  0.7519 -0.2033  0.0427
  754MOL0     C 1722   8.524   3.126  11.014  0.2953 -0.1388  0.7651
  754MOL0     H 1723   8.413   2.907  11.421 -0.6690 -0.3429 -0.6177
  754MOL0     H 1724   8.425   2.706  11.554  0.4665  0.1492  2.2526
  754MOL0     H 1725   8.424   2.522  11.605 -0.6879  0.4578  1.1021
  754MOL0     H 1726   8.535   2.386  11.645  0.1751  0.0448  0.7314
  754MOL0     H 1727   8.528   2.678  11.769 -2.3823 -0.3060 -2.0278
  754MOL0     H 1728   8.636   2.561  11.813  0.6941  1.9946  0.1249
  754MOL0     H 1729   8.350   2.542  11.852  0.8529 -1.8264 -0.6359
  754MOL0     H 1730   8.467   2.619  11.961 -0.0647  2.1431 -0.3419
  754MOL0     H 1731   8.446   2.343  11.856 -3.8065  0.4377  0.1975
  754MOL0     H 1732   8.590   2.398  11.974 -0.0630  4.7702  0.2185
  754MOL0     H 1733   8.284   2.356  12.058 -1.0322 -0.6334  3.5868
  754MOL0     H 1734   8.403   2.237  12.077  2.2499  0.3361  0.4056
  754MOL0     H 1735   8.407   2.335  12.278 -1.3397  0.3358 -1.1102
  754MOL0     H 1736   8.547   2.420  12.206 -0.3238  0.3712 -1.3806
  754MOL0     H 1737   8.263   2.553  12.242  0.3421 -0.4241 -1.1648
  754MOL0     H 1738   8.408   2.619  12.167 -0.5283  2.7358  2.0072
  754MOL0     H 1739   8.511   2.634  12.359 -0.0338 -1.4451 -5.4952
  754MOL0     H 1740   8.342   2.665  12.404  1.4443 -0.4173  1.4648
  754MOL0     H 1741   8.191   2.432  12.484 -1.0488 -0.2650  2.5593
  754MOL0     H 1742   8.284   2.196  12.775  5.1117  2.9089 -1.3380
  754MOL0     H 1743   8.172   2.330  12.766 -1.6055  2.1013 -3.7524
  754MOL0     H 1744   8.062   2.255  12.558 -0.1601  0.8559 -0.5933
  754MOL0     H 1745   8.190   2.126  12.549 -0.6188 -0.2798 -0.8853
  754MOL0     H 1746   8.026   2.112  12.796 -2.4839  1.2320 -0.2076
  754MOL0     H 1747   8.109   1.996  12.685  0.0142  0.0232 -5.5760
  754MOL0     H 1748   7.862   1.990  12.704  3.2724  0.3526  2.2206
  754MOL0     H 1749   7.951   1.998  12.542  1.3084  3.9518 -2.3890
  754MOL0     H 1750   7.801   2.405  12.538 -3.6013  0.4830 -0.3196
  754MOL0     H 1751   7.798   2.505  12.301 -1.1788 -0.5519 -2.1976
  754MOL0     H 1752   7.927   2.548  11.876 -1.8196 -0.4882 -1.4333
  754MOL0     H 1753   8.028   2.651  11.691  1.8633  0.9801 -0.7051
  754MOL0     H 1754   8.131   2.300  11.422 -3.6771 -0.4943 -1.1027
  754MOL0     H 1755   8.030   2.442  11.388  0.0783  0.9825 -1.4687
  754MOL0     H 1756   8.321   2.399  11.313  0.5328 -3.3683 -0.4116
  754MOL0     H 1757   8.187   2.401  11.202  0.7891 -2.4465  0.6660
  754MOL0     H 1758   8.177   2.663  11.314  1.6615  2.1315  0.4058
  754MOL0     H 1759   8.349   2.613  11.286  1.0477 -2.6361 -2.6329
  754MOL0     H 1760   8.126   2.622  11.081 -1.3786  2.7054  2.6040
  754MOL0     H 1761   8.292   2.575  11.037  1.5573  1.5576  0.0237
  754MOL0     H 1762   8.380   2.787  11.118 -0.5250  0.9465  0.4609
  754MOL0     H 1763   8.204   2.832  11.142 -1.1242 -2.0344  0.8332
  754MOL0     H 1764   8.192   2.776  10.893 -1.4908 -0.0309  2.2168
  754MOL0     H 1765   8.288   2.925  10.945  5.0526 -0.5503 -0.6968
  754MOL0     H 1766   8.381   2.657  10.832  1.0918 -0.9052  0.0610
  754MOL0     H 1767   8.494   2.763  10.911 -0.3309  1.2852 -1.8339
  754MOL0     H 1768   8.328   2.857  10.701 -0.2314 -1.1216  1.6878
  754MOL0     H 1769   8.462   2.944  10.763  3.3304 -1.5501  4.5687
  754MOL0     H 1770   8.249   2.272  11.635 -1.3181 -0.3104 -2.0465
  754MOL0     H 1771   8.146   2.201  11.853 -0.7792  0.3193  0.1419
  754MOL0     H 1772   7.941   2.144  12.140 -0.1683  1.5759 -0.7695
  754MOL0     H 1773   7.897   2.025  12.346 -2.2810 -1.6209 -0.6480
  754MOL0     H 1774   8.802   2.609  11.389  0.3685  0.4345  2.4137
  754MOL0     H 1775   8.783   2.804  11.237  0.9954 -1.8502  0.4185
  754MOL0     H 1776   8.788   3.344  11.364 -3.7011 -1.5905  1.5602
  754MOL0     H 1777   8.861   3.497  11.226  2.1592 -1.5344 -0.5920
  754MOL0     H 1778   8.596   3.558  10.875  0.8201  1.3174  1.6737
  754MOL0     H 1779   8.715   3.502  10.768  1.1389  0.7327 -0.0080
  754MOL0     H 1780   8.669   3.728  10.709 -0.2911  3.6142  0.4798
  754MOL0     H 1781   8.828   3.735  10.797  0.0962  3.0066 -1.9617
  754MOL0     H 1782   8.601   3.805  10.979 -0.5983  1.7844 -0.6337
  754MOL0     H 1783   8.628   3.911  10.847  1.5028  3.2039  2.8875
  754MOL0     H 1784   8.744   3.943  11.055  1.7889 -0.7075  0.8723
  754MOL0     H 1785   8.849   3.805  11.027 -0.7068 -2.4310 -3.0312
  754MOL0     H 1786   8.989   4.092  10.736 -1.1495  0.8158 -0.2213
  754MOL0     H 1787   8.613   3.338  10.909 -2.3492  0.7915  0.4893
  754MOL0     H 1788   8.434   3.105  11.072  0.9979  1.1032  2.3890
  754MOL0     H 1789   8.493   3.162  10.916 -1.0063  1.9496  1.8765
  754MOL0     H 1790   8.581   3.032  11.009  0.8301  0.1997  0.3901
  755MOL0     O 1791   2.342   6.756   8.697 -0.2016  0.5739 -0.0529
  755MOL0     C 1792   2.388   6.724   8.805 -0.3445 -0.4171  0.4064
  755MOL0     O 1793   2.341   6.608   8.863 -0.0287 -0.1752 -0.5582
  755MOL0     C 1794   2.231   6.536   8.831  0.7426 -0.7758  0.0631
  755MOL0     C 1795   2.212   6.400   8.875 -0.2523 -0.2449 -0.4239
  755MOL0     C 1796   2.082   6.333   8.848  0.1706 -0.1006  0.3756
  755MOL0     C 1797   1.976   6.399   8.777 -0.9459  0.6736  0.1479
  755MOL0     O 1798   1.860   6.346   8.738 -0.0045 -0.2653  0.1742
  755MOL0     C 1799   1.848   6.205   8.757  0.1772  0.6852  0.3280
  755MOL0     C 1800   1.729   6.141   8.671 -0.2377  0.2095  0.0936
  755MOL0     C 1801   1.612   6.121   8.769  0.4228 -0.1666 -0.5794
  755MOL0     C 1802   1.637   5.997   8.861  0.1799  0.5878  0.3037
  755MOL0     C 1803   1.536   5.997   8.966  0.3429  0.3359 -0.5437
  755MOL0     C 1804   1.565   5.891   9.075 -0.3376  0.0850 -0.3535
  755MOL0     C 1805   1.469   5.889   9.190 -0.1490 -0.0673 -0.4586
  755MOL0     C 1806   1.316   5.856   9.150  0.6505 -0.0935 -0.4078
  755MOL0     N 1807   1.234   5.792   9.248  0.4985  0.0185 -0.6697
  755MOL0     C 1808   1.157   5.671   9.226 -0.4155  0.9181  0.1313
  755MOL0     C 1809   1.089   5.644   9.342  0.0626  0.1812  0.5436
  755MOL0     C 1810   0.978   5.546   9.365  0.1661  0.2956  0.5890
  755MOL0     C 1811   1.029   5.403   9.402  0.4169  0.9064  0.1665
  755MOL0     C 1812   1.116   5.337   9.289 -0.2346  0.9152  0.4986
  755MOL0     C 1813   1.226   5.254   9.356  0.3892  0.7230 -0.7790
  755MOL0     O 1814   1.172   5.133   9.438 -0.1292  0.0624  0.2270
  755MOL0     C 1815   1.195   5.012   9.375  0.1623 -0.5732 -0.2086
  755MOL0     C 1816   1.181   4.989   9.231 -0.5343 -0.1428  0.3447
  755MOL0     C 1817   1.220   4.870   9.172  0.6159 -0.7439  0.7977
  755MOL0     C 1818   1.260   4.767   9.258 -0.0880  0.5251 -0.2664
  755MOL0     C 1819   1.302   4.651   9.186  0.2412 -0.3874 -0.1635
  755MOL0     O 1820   1.368   4.552   9.257  0.3195 -0.3006 -0.0661
  755MOL0     C 1821   1.427   4.441   9.196  0.0736  0.1440 -1.0685
  755MOL0     C 1822   1.560   4.410   9.214 -0.2793 -0.2699 -0.3355
  755MOL0     C 1823   1.611   4.301   9.141 -0.3681 -0.3539  0.0702
  755MOL0     C 1824   1.541   4.214   9.048 -0.4107  0.5080  0.1775
  755MOL0     O 1825   1.616   4.116   8.982  0.2136 -0.4254  0.2286
  755MOL0     C 1826   1.553   4.035   8.889 -0.1069 -0.0837  0.1107
  755MOL0     C 1827   1.461   3.934   8.964 -0.3350 -0.3279  0.4479
  755MOL0     C 1828   1.430   3.811   8.884  0.8768 -0.0653  0.1416
  755MOL0     C 1829   1.367   3.713   8.979 -0.2802  0.0704  0.3843
  755MOL0     C 1830   1.324   3.586   8.897  0.7192 -0.5548  0.3098
  755MOL0     C 1831   1.247   3.489   8.984  0.7893  0.4232 -0.2361
  755MOL0     C 1832   1.231   3.360   8.905  0.3862 -0.1155  0.1424
  755MOL0     C 1833   1.112   3.257   8.925  0.6043 -0.0580  0.3818
  755MOL0    Cl 1834   1.153   3.157   9.064  0.3347 -0.2819  0.0585
  755MOL0     C 1835   1.407   4.260   9.036  1.5737 -0.0792  0.4660
  755MOL0     C 1836   1.346   4.362   9.113 -0.9489 -0.0011  0.1854
  755MOL0     O 1837   1.282   4.648   9.060 -0.5990 -0.2526  0.4965
  755MOL0     C 1838   1.264   4.783   9.404  1.1997  0.4572 -0.3829
  755MOL0     C 1839   1.226   4.907   9.465 -0.8084 -0.1939 -1.0657
  755MOL0     N 1840   1.127   5.740   9.434  0.0487  0.3582 -0.7851
  755MOL0     N 1841   1.215   5.820   9.384  0.3522 -0.2460  0.5143
  755MOL0     C 1842   1.993   6.537   8.753  0.8440 -0.3182 -0.4090
  755MOL0     C 1843   2.119   6.597   8.771 -0.7486  0.1060  0.4435
  755MOL0     C 1844   2.486   6.800   8.895  0.2730 -0.1842 -0.1071
  755MOL0     C 1845   2.557   6.740   8.990 -0.4161 -0.1233  0.4168
  755MOL0     C 1846   2.647   6.810   9.062  0.4148  0.5413 -0.0589
  755MOL0     C 1847   2.676   6.946   9.030 -0.6132  0.6002 -0.4541
  755MOL0     O 1848   2.780   7.006   9.106  0.1470 -0.1015 -0.2858
  755MOL0     C 1849   2.813   7.147   9.085 -0.2403  1.0177  0.3448
  755MOL0     C 1850   2.922   7.140   8.977  0.0668  0.0074 -0.6762
  755MOL0     C 1851   2.969   7.275   8.915 -0.8501  0.6707 -0.1325
  755MOL0     C 1852   2.958   7.401   9.015 -0.9563  0.1708  0.0258
  755MOL0     C 1853   3.076   7.408   9.107  0.8215 -0.3622 -0.2740
  755MOL0     C 1854   3.180   7.416   9.159  0.0331  0.0086 -1.4318
  755MOL0     C 1855   2.606   7.018   8.928  0.1158 -1.2200  0.2108
  755MOL0     C 1856   2.504   6.946   8.862 -0.3878 -1.1986 -0.3290
  755MOL0     C 1857   2.420   7.026   8.755 -1.0627  0.1947 -0.6669
  755MOL0     H 1858   2.296   6.355   8.927  0.8203 -1.5233 -3.0850
  755MOL0     H 1859   2.071   6.227   8.868  0.8248 -0.8034 -2.5294
  755MOL0     H 1860   1.940   6.165   8.711 -1.3326 -0.4985 -1.8371
  755MOL0     H 1861   1.848   6.182   8.864  1.8693 -0.1292  0.2036
  755MOL0     H 1862   1.761   6.043   8.635 -1.1002 -0.9308  2.2414
  755MOL0     H 1863   1.693   6.204   8.589 -3.4551 -2.7853 -1.0725
  755MOL0     H 1864   1.517   6.107   8.718  0.6634 -0.6347 -0.8964
  755MOL0     H 1865   1.604   6.205   8.839 -0.4460  1.3439 -2.4097
  755MOL0     H 1866   1.626   5.904   8.805 -1.8512  0.4770  0.8106
  755MOL0     H 1867   1.739   6.010   8.898 -0.3691  2.1900  1.3743
  755MOL0     H 1868   1.532   6.095   9.014 -2.0988  0.0653 -0.0402
  755MOL0     H 1869   1.435   5.988   8.925 -0.5364 -2.1990  1.8463
  755MOL0     H 1870   1.579   5.791   9.034  2.2088 -0.1062  0.8113
  755MOL0     H 1871   1.659   5.922   9.121 -1.3823  3.8045 -0.3839
  755MOL0     H 1872   1.473   5.989   9.235  0.9897 -0.1970 -0.2527
  755MOL0     H 1873   1.502   5.813   9.262 -1.5148  2.0353  2.6482
  755MOL0     H 1874   1.281   5.959   9.137  3.9535  1.5356  2.0400
  755MOL0     H 1875   1.311   5.801   9.055 -1.5727  2.1105 -1.6999
  755MOL0     H 1876   1.152   5.624   9.128  0.6332 -1.0719  0.9824
  755MOL0     H 1877   0.920   5.594   9.444 -1.9653  1.0949 -1.3650
  755MOL0     H 1878   0.911   5.533   9.279  0.8069  0.4254  0.0592
  755MOL0     H 1879   1.078   5.421   9.498  0.7823  2.9120 -0.3454
  755MOL0     H 1880   0.952   5.326   9.415  0.5757 -0.1508 -3.9143
  755MOL0     H 1881   1.177   5.415   9.243  1.1960  0.0803  0.9176
  755MOL0     H 1882   1.051   5.280   9.221 -0.4140  4.0200 -2.1423
  755MOL0     H 1883   1.273   5.311   9.438  1.8916 -0.9725 -0.4036
  755MOL0     H 1884   1.300   5.220   9.284  1.0511 -1.6604  0.9090
  755MOL0     H 1885   1.154   5.078   9.174  1.8784  0.4081 -0.0448
  755MOL0     H 1886   1.219   4.863   9.064  1.3044 -2.1597  0.8694
  755MOL0     H 1887   1.625   4.473   9.274  0.0634  1.8697 -2.7576
  755MOL0     H 1888   1.712   4.271   9.168  0.4584 -0.6299 -2.9447
  755MOL0     H 1889   1.492   4.096   8.821  0.8152 -0.2759 -0.9247
  755MOL0     H 1890   1.635   3.990   8.833  0.7261 -0.7768  1.8288
  755MOL0     H 1891   1.513   3.907   9.056  1.2980  5.0848  1.4310
  755MOL0     H 1892   1.367   3.976   9.000  0.1151 -1.4665  3.1509
  755MOL0     H 1893   1.365   3.836   8.800  4.7642 -0.6767 -3.3239
  755MOL0     H 1894   1.516   3.768   8.831 -0.5865 -0.3171 -2.1850
  755MOL0     H 1895   1.279   3.751   9.033  1.1085  1.5360  1.7160
  755MOL0     H 1896   1.442   3.691   9.055 -0.8341  0.5564  1.0922
  755MOL0     H 1897   1.414   3.548   8.848  1.2620 -0.5888  1.3078
  755MOL0     H 1898   1.252   3.608   8.817 -0.9883 -1.2113  1.6065
  755MOL0     H 1899   1.292   3.458   9.079  0.6237  0.8037 -0.0296
  755MOL0     H 1900   1.144   3.520   9.000  0.9158 -0.1709  2.0163
  755MOL0     H 1901   1.324   3.305   8.922  1.5773  1.0089 -2.3389
  755MOL0     H 1902   1.219   3.384   8.799 -0.4138 -1.4074 -0.0942
  755MOL0     H 1903   1.022   3.318   8.934  2.3226  2.2985  3.1263
  755MOL0     H 1904   1.095   3.193   8.837 -1.2359  0.9051 -0.0063
  755MOL0     H 1905   1.328   4.220   8.972 -1.8900  3.7986  1.8578
  755MOL0     H 1906   1.243   4.385   9.090 -1.1536 -1.4398 -0.4432
  755MOL0     H 1907   1.290   4.699   9.466 -1.2344  1.0660  1.6457
  755MOL0     H 1908   1.229   4.911   9.574 -0.7815  3.6053 -1.0827
  755MOL0     H 1909   1.902   6.593   8.731  1.4019  0.4699 -0.7516
  755MOL0     H 1910   2.118   6.704   8.756 -0.6899  0.0622  0.1307
  755MOL0     H 1911   2.552   6.633   9.008 -3.0955 -0.5292 -2.0180
  755MOL0     H 1912   2.701   6.756   9.140  0.2381 -0.4018 -0.5766
  755MOL0     H 1913   2.849   7.192   9.178  1.5325  1.7351 -0.6260
  755MOL0     H 1914   2.723   7.195   9.045 -2.0448 -0.9541  1.7902
  755MOL0     H 1915   2.903   7.064   8.901  0.8136 -0.4697 -0.3958
  755MOL0     H 1916   3.012   7.096   9.022  1.8978  2.1036 -2.1061
  755MOL0     H 1917   2.902   7.300   8.833 -1.3458 -0.0760  0.0341
  755MOL0     H 1918   3.076   7.258   8.897 -0.1376  3.0990  1.2911
  755MOL0     H 1919   2.940   7.496   8.963  0.7902  0.1222 -0.7379
  755MOL0     H 1920   2.877   7.373   9.084 -1.1473  0.9346  0.1189
  755MOL0     H 1921   3.279   7.428   9.198 -0.8042  1.6972  0.3023
  755MOL0     H 1922   2.633   7.120   8.901 -1.9709  0.4414  3.6596
  755MOL0     H 1923   2.426   6.970   8.661  0.9288 -3.6642  1.4726
  755MOL0     H 1924   2.322   7.057   8.793 -0.5572  4.1544 -2.1846
  755MOL0     H 1925   2.472   7.122   8.750 -0.1779  0.0186  2.4888
  756MOL0     O 1926   8.471   3.070   1.904 -0.1938  0.2312 -0.9671
  756MOL0     C 1927   8.444   3.025   2.017  0.7358  0.3935 -0.2218
  756MOL0     O 1928   8.470   3.094   2.141  0.2706 -0.4924  0.2431
  756MOL0     C 1929   8.577   3.176   2.135  0.7618 -1.9381 -0.2398
  756MOL0     C 1930   8.570   3.303   2.196  0.2158  1.1467  0.0665
  756MOL0     C 1931   8.669   3.396   2.193 -0.7932  0.0200 -0.4417
  756MOL0     C 1932   8.787   3.370   2.136  0.9342 -0.0470  1.1085
  756MOL0     O 1933   8.873   3.478   2.153 -1.0435 -0.3597 -0.0873
  756MOL0     C 1934   8.954   3.509   2.043 -0.3621  0.4966  0.1957
  756MOL0     C 1935   9.033   3.634   2.071  0.6941 -0.8306  0.1509
  756MOL0     C 1936   9.104   3.667   1.944  0.0323  0.3017 -0.2000
  756MOL0     C 1937   9.190   3.793   1.970  0.1411 -0.4161 -0.3864
  756MOL0     C 1938   9.290   3.801   1.860 -0.3313 -0.5855  0.5110
  756MOL0     C 1939   9.229   3.821   1.718 -0.6849 -0.6837  0.0929
  756MOL0     C 1940   9.328   3.833   1.610  0.7241 -0.3739  0.0207
  756MOL0     C 1941   9.433   3.946   1.632 -0.3627  0.4527  0.0866
  756MOL0     N 1942   9.557   3.908   1.556  0.6284  0.4167  0.4721
  756MOL0     C 1943   9.647   3.811   1.599  0.0045  1.2139  0.1648
  756MOL0     C 1944   9.744   3.797   1.502 -0.9694 -0.3611  0.2974
  756MOL0     C 1945   9.862   3.706   1.505  1.5201  0.6365  0.5486
  756MOL0     C 1946   9.818   3.571   1.450 -0.3994  0.1474 -0.3911
  756MOL0     C 1947   9.921   3.468   1.463 -0.7806 -0.9237  0.6541
  756MOL0     C 1948   9.878   3.322   1.418  0.5064 -0.7008  0.6303
  756MOL0     O 1949   9.818   3.321   1.286  0.2714  0.6396 -0.2380
  756MOL0     C 1950   9.817   3.206   1.215  0.6766  0.2488  0.1416
  756MOL0     C 1951   9.885   3.089   1.244 -0.0677 -0.9756  0.1152
  756MOL0     C 1952   9.858   2.959   1.186  1.1090 -0.3124  1.2957
  756MOL0     C 1953   9.743   2.954   1.102 -0.0060 -0.1973  0.0697
  756MOL0     C 1954   9.704   2.828   1.041 -0.6313  0.2448  0.2384
  756MOL0     O 1955   9.759   2.713   1.097 -1.1456 -0.2395 -1.1636
  756MOL0     C 1956   9.734   2.597   1.039 -0.0632 -0.0661  0.2314
  756MOL0     C 1957   9.604   2.556   1.019 -0.3023  0.0897  0.3907
  756MOL0     C 1958   9.583   2.419   0.983  0.5305 -0.4502  1.0192
  756MOL0     C 1959   9.683   2.336   0.942  0.1490 -0.6998  0.7548
  756MOL0     O 1960   9.687   2.214   0.894  0.6369  0.0317 -0.1676
  756MOL0     C 1961   9.572   2.130   0.873  0.2276 -0.3542  0.2754
  756MOL0     C 1962   9.552   2.069   1.012 -0.5361 -0.4341 -0.3208
  756MOL0     C 1963   9.668   1.965   1.034 -0.2626 -0.3476  0.0387
  756MOL0     C 1964   9.680   1.913   1.178 -0.3242 -0.7210  0.5309
  756MOL0     C 1965   9.611   1.780   1.192  0.2828  0.1588  0.1388
  756MOL0     C 1966   9.591   1.740   1.332 -0.3363 -0.6555 -0.6077
  756MOL0     C 1967   9.585   1.592   1.376 -0.5082  1.5277 -0.0949
  756MOL0     C 1968   9.609   1.583   1.536 -0.2767 -0.4113 -0.8597
  756MOL0    Cl 1969   9.780   1.638   1.584  0.0648  0.4700  0.0334
  756MOL0     C 1970   9.809   2.390   0.944  0.2756  0.7827  0.3669
  756MOL0     C 1971   9.844   2.514   1.002  0.4144 -0.0506 -0.0713
  756MOL0     O 1972   9.619   2.827   0.956  0.3742 -0.4270  0.3855
  756MOL0     C 1973   9.690   3.075   1.051  0.5979  0.5402 -1.0021
  756MOL0     C 1974   9.722   3.197   1.114  0.1150  0.0126 -0.5720
  756MOL0     N 1975   9.698   3.870   1.397 -0.0598  0.1682  0.1894
  756MOL0     N 1976   9.582   3.929   1.420  0.2403 -0.3557 -0.1815
  756MOL0     C 1977   8.809   3.244   2.069 -0.1657 -0.5140 -0.8382
  756MOL0     C 1978   8.702   3.152   2.065 -0.0327  0.4733 -1.3982
  756MOL0     C 1979   8.382   2.888   2.029 -0.5555 -0.5420 -0.6649
  756MOL0     C 1980   8.315   2.875   2.150  0.6103 -0.2597 -0.5645
  756MOL0     C 1981   8.257   2.752   2.185  0.0061  0.6550 -0.1616
  756MOL0     C 1982   8.245   2.644   2.096 -0.4631  0.0263  0.3020
  756MOL0     O 1983   8.153   2.548   2.134  0.4673 -0.0149 -0.1928
  756MOL0     C 1984   8.163   2.422   2.077 -0.1927  0.6444  0.4930
  756MOL0     C 1985   8.043   2.385   1.988 -1.4302 -0.0079 -0.0772
  756MOL0     C 1986   7.918   2.335   2.069 -0.1944 -0.5759 -0.9721
  756MOL0     C 1987   7.938   2.213   2.167  0.0702  0.6072  0.6830
  756MOL0     C 1988   8.032   2.109   2.113 -0.0394 -0.2281  0.0556
  756MOL0     C 1989   8.101   2.026   2.059 -0.1719 -0.8825  0.4132
  756MOL0     C 1990   8.313   2.662   1.977 -0.6729  0.2591  0.5400
  756MOL0     C 1991   8.376   2.779   1.939  0.4047  0.5724 -0.7474
  756MOL0     C 1992   8.451   2.770   1.814 -0.4273  0.4823 -0.0506
  756MOL0     H 1993   8.479   3.339   2.243 -1.8729  0.3036 -3.0079
  756MOL0     H 1994   8.653   3.497   2.231  1.7742  1.1845 -2.1255
  756MOL0     H 1995   9.026   3.428   2.027 -0.0825  1.0124 -1.2397
  756MOL0     H 1996   8.896   3.521   1.951 -2.0795  0.6554  1.2608
  756MOL0     H 1997   9.097   3.619   2.158  1.8552  1.6239 -0.2031
  756MOL0     H 1998   8.971   3.721   2.094  1.1234 -0.4861  0.0259
  756MOL0     H 1999   9.034   3.670   1.860 -1.8577  4.1994  1.2510
  756MOL0     H 2000   9.174   3.587   1.916 -0.7198 -0.7867  0.9790
  756MOL0     H 2001   9.129   3.883   1.985  0.6256 -0.0542 -0.5730
  756MOL0     H 2002   9.250   3.780   2.061 -3.1191 -1.5048  1.7875
  756MOL0     H 2003   9.354   3.888   1.883 -1.8285  0.7967 -0.3632
  756MOL0     H 2004   9.352   3.711   1.859 -0.1606 -0.4673  0.1673
  756MOL0     H 2005   9.181   3.727   1.688 -0.7129  0.0763 -2.5523
  756MOL0     H 2006   9.158   3.904   1.720 -2.0287 -1.5162 -3.7263
  756MOL0     H 2007   9.262   3.862   1.528 -1.0047  3.7677  2.5409
  756MOL0     H 2008   9.368   3.734   1.585 -1.9449 -0.6741 -3.9212
  756MOL0     H 2009   9.391   4.035   1.586 -4.7309 -1.0921  0.6433
  756MOL0     H 2010   9.476   3.956   1.733  2.1281 -2.5581 -0.4983
  756MOL0     H 2011   9.636   3.748   1.687  0.9113  0.1872 -0.4234
  756MOL0     H 2012   9.938   3.751   1.441  4.0020 -1.3373  1.9490
  756MOL0     H 2013   9.896   3.708   1.609 -0.6925  0.3520  1.3233
  756MOL0     H 2014   9.725   3.547   1.501 -1.4400  2.5227 -0.9962
  756MOL0     H 2015   9.797   3.575   1.342  4.5151 -3.3770 -1.8318
  756MOL0     H 2016   9.949   3.461   1.568  4.0527 -0.7246 -0.3973
  756MOL0     H 2017  10.007   3.497   1.402 -2.1615  3.6363  0.4182
  756MOL0     H 2018   9.800   3.296   1.490 -1.1646  1.3888 -0.2947
  756MOL0     H 2019   9.963   3.254   1.424  0.6628 -0.9557 -2.6614
  756MOL0     H 2020   9.971   3.084   1.310  1.7517  1.0505 -1.8840
  756MOL0     H 2021   9.913   2.868   1.209  0.6678  0.0011  3.8569
  756MOL0     H 2022   9.521   2.617   1.054 -0.1439  0.0672  0.8185
  756MOL0     H 2023   9.477   2.402   0.963  0.3597  3.5347 -2.9912
  756MOL0     H 2024   9.493   2.197   0.836  0.6617  0.8863  1.5154
  756MOL0     H 2025   9.592   2.049   0.803  1.9304 -0.4973  0.8866
  756MOL0     H 2026   9.547   2.141   1.094 -2.8806  0.2929 -1.0010
  756MOL0     H 2027   9.454   2.020   1.014 -2.1486  2.4948 -0.7962
  756MOL0     H 2028   9.662   1.872   0.977 -1.8708  0.0331 -0.4510
  756MOL0     H 2029   9.767   2.007   1.014  0.0297 -0.8570  0.3946
  756MOL0     H 2030   9.637   1.978   1.254 -2.0382  1.1776 -1.9385
  756MOL0     H 2031   9.785   1.910   1.209  0.1577  2.1152 -0.5549
  756MOL0     H 2032   9.667   1.700   1.142  0.6472  1.6041 -1.8934
  756MOL0     H 2033   9.512   1.773   1.146  0.1260 -1.8140  0.6788
  756MOL0     H 2034   9.671   1.776   1.397 -0.0837 -4.2734  1.3226
  756MOL0     H 2035   9.493   1.779   1.361 -0.2856 -1.3732  0.5841
  756MOL0     H 2036   9.656   1.523   1.330 -2.7858 -2.5109  1.8563
  756MOL0     H 2037   9.487   1.545   1.364  1.0169 -1.6057 -1.4510
  756MOL0     H 2038   9.540   1.637   1.601 -1.5236 -0.6790 -1.9064
  756MOL0     H 2039   9.591   1.481   1.571  2.2254  0.1601  2.6316
  756MOL0     H 2040   9.895   2.334   0.907  0.5226  1.0884  0.4785
  756MOL0     H 2041   9.947   2.547   1.010 -0.3455  2.2365  1.1239
  756MOL0     H 2042   9.604   3.068   0.985 -2.0779 -0.2641  2.2945
  756MOL0     H 2043   9.648   3.275   1.096 -6.1641 -4.4601  2.2633
  756MOL0     H 2044   8.905   3.207   2.034  0.5916  1.5087 -1.0037
  756MOL0     H 2045   8.714   3.054   2.019  0.1706  1.5329 -3.7721
  756MOL0     H 2046   8.304   2.956   2.221  0.5243  0.2899 -1.1939
  756MOL0     H 2047   8.193   2.763   2.272  0.1247  2.6231 -0.2704
  756MOL0     H 2048   8.162   2.349   2.159 -0.6318 -0.9731 -0.8890
  756MOL0     H 2049   8.259   2.410   2.026  0.0323  2.3124  0.4787
  756MOL0     H 2050   8.077   2.305   1.921  0.2848  1.1210 -0.6274
  756MOL0     H 2051   8.020   2.460   1.912 -1.4301  0.7080  0.6237
  756MOL0     H 2052   7.831   2.307   2.010 -0.5358 -1.8940  0.1122
  756MOL0     H 2053   7.880   2.420   2.127 -0.7926  0.4654 -2.8095
  756MOL0     H 2054   7.969   2.244   2.267 -2.0718  0.2186  1.4952
  756MOL0     H 2055   7.843   2.165   2.191  0.5082 -0.1713  0.9006
  756MOL0     H 2056   8.168   1.952   2.019 -3.6358 -2.7238 -2.6683
  756MOL0     H 2057   8.308   2.588   1.898 -2.0821  1.9104 -1.0146
  756MOL0     H 2058   8.455   2.866   1.762  0.7530  0.5908  0.1988
  756MOL0     H 2059   8.554   2.739   1.834 -0.7865 -0.9759 -0.3952
  756MOL0     H 2060   8.409   2.691   1.752  0.2239  0.4759 -0.4916
  757MOL0     O 2061   3.858   0.092   9.244 -0.7649 -0.5201 -0.3079
  757MOL0     C 2062   3.872   0.210   9.219 -0.3658  0.2356 -1.1488
  757MOL0     O 2063   3.997   0.265   9.207  0.4821 -0.3610  0.4260
  757MOL0     C 2064   4.110   0.193   9.182  0.0257 -0.3128  1.0264
  757MOL0     C 2065   4.197   0.180   9.282 -0.9223  0.3239  0.7467
  757MOL0     C 2066   4.322   0.121   9.269 -0.3135  0.3347  0.4350
  757MOL0     C 2067   4.358   0.058   9.148 -0.7226  0.2085  0.2047
  757MOL0     O 2068   4.480  -0.011   9.126 -0.1667  0.5062 -0.1968
  757MOL0     C 2069   4.573  -0.025   9.237 -0.0479  1.0432  0.6367
  757MOL0     C 2070   4.689  -0.105   9.190 -0.6713 -0.5799 -1.0489
  757MOL0     C 2071   4.766  -0.158   9.319  0.4247  0.0462  0.2918
  757MOL0     C 2072   4.895  -0.219   9.285  0.1349  0.1447  0.1888
  757MOL0     C 2073   4.964  -0.289   9.406  0.4864  0.3252  0.9544
  757MOL0     C 2074   4.887  -0.407   9.466  0.3506  0.0538 -0.0202
  757MOL0     C 2075   4.973  -0.484   9.570  0.6533 -0.0918 -0.4720
  757MOL0     C 2076   4.883  -0.597   9.630  0.5824  0.3138 -0.2225
  757MOL0     N 2077   4.971  -0.697   9.697 -1.2957 -0.7048  0.0807
  757MOL0     C 2078   5.045  -0.655   9.810  0.1387  0.4499  0.6785
  757MOL0     C 2079   5.131  -0.750   9.836 -0.0525 -0.0232  1.3344
  757MOL0     C 2080   5.226  -0.763   9.952 -0.3527 -0.1891  0.2877
  757MOL0     C 2081   5.162  -0.702  10.081 -0.3124  0.1960  0.0534
  757MOL0     C 2082   5.224  -0.730  10.216  0.2655 -0.8348  0.6567
  757MOL0     C 2083   5.236  -0.882  10.249 -0.0015 -0.1588  0.0480
  757MOL0     O 2084   5.267  -0.888  10.390  0.3473  0.3446 -0.5513
  757MOL0     C 2085   5.267  -1.016  10.458 -0.0705  0.6384 -0.4789
  757MOL0     C 2086   5.322  -1.020  10.584 -0.8425 -0.5191  0.0032
  757MOL0     C 2087   5.329  -1.139  10.654  0.3700 -0.6212  0.4442
  757MOL0     C 2088   5.272  -1.256  10.600 -0.3252 -0.3373  0.0293
  757MOL0     C 2089   5.277  -1.388  10.680 -1.0789  1.1981 -0.5272
  757MOL0     O 2090   5.313  -1.498  10.595 -0.3912  0.3309 -0.3807
  757MOL0     C 2091   5.372  -1.621  10.629  0.9949  0.4283  0.8524
  757MOL0     C 2092   5.444  -1.684  10.529  0.3314 -0.4979 -0.0238
  757MOL0     C 2093   5.489  -1.809  10.558 -0.4071 -0.2062  0.2905
  757MOL0     C 2094   5.473  -1.869  10.682  0.3548 -0.7731  0.8044
  757MOL0     O 2095   5.519  -1.983  10.723 -0.2791  0.0970  0.2286
  757MOL0     C 2096   5.566  -2.077  10.624 -0.0923  0.3478  0.2739
  757MOL0     C 2097   5.677  -2.145  10.704 -0.8294  0.7690  0.6570
  757MOL0     C 2098   5.759  -2.234  10.616 -0.1931 -0.6716  1.2028
  757MOL0     C 2099   5.877  -2.303  10.685  0.6496 -0.0574  0.3177
  757MOL0     C 2100   5.841  -2.432  10.767  0.0674 -0.7158 -0.0052
  757MOL0     C 2101   5.973  -2.499  10.813  0.1196  0.5574  0.3613
  757MOL0     C 2102   5.960  -2.644  10.866  0.4581  0.2752  0.7785
  757MOL0     C 2103   5.855  -2.678  10.974  0.1026 -0.4662  0.7448
  757MOL0    Cl 2104   5.896  -2.596  11.119 -0.1675 -0.2198 -0.0559
  757MOL0     C 2105   5.404  -1.797  10.786  0.2244  0.7402  0.1696
  757MOL0     C 2106   5.354  -1.677  10.753  0.4684 -0.7657 -1.1613
  757MOL0     O 2107   5.241  -1.391  10.794  0.8699 -0.1173 -0.6971
  757MOL0     C 2108   5.220  -1.254  10.476  0.4312  0.1841  0.9510
  757MOL0     C 2109   5.216  -1.137  10.400 -0.3859  0.5129 -0.4122
  757MOL0     N 2110   5.119  -0.850   9.747 -0.1184  0.7229  0.5784
  757MOL0     N 2111   5.025  -0.816   9.658 -0.4372  0.3470 -0.3168
  757MOL0     C 2112   4.266   0.061   9.044  0.0231 -0.5273  0.2440
  757MOL0     C 2113   4.136   0.127   9.061 -0.5447  0.3665 -0.2617
  757MOL0     C 2114   3.756   0.300   9.211  0.0084  0.9271  0.2647
  757MOL0     C 2115   3.765   0.402   9.116 -0.5996 -0.1891  0.2948
  757MOL0     C 2116   3.664   0.503   9.120 -0.7352 -0.3527  0.3235
  757MOL0     C 2117   3.554   0.493   9.197  0.9102  0.2309  1.0436
  757MOL0     O 2118   3.469   0.602   9.181 -0.2063  0.2187 -0.3607
  757MOL0     C 2119   3.351   0.603   9.259  1.1667 -0.4925 -0.4189
  757MOL0     C 2120   3.266   0.716   9.194  0.2588 -0.4759  0.6607
  757MOL0     C 2121   3.321   0.858   9.200 -1.2680  0.1903 -0.0606
  757MOL0     C 2122   3.262   0.946   9.083 -0.7421 -0.1088  0.4748
  757MOL0     C 2123   3.278   1.089   9.103  0.3449 -0.0472  0.5410
  757MOL0     C 2124   3.281   1.210   9.107 -0.6345 -0.9946 -0.5614
  757MOL0     C 2125   3.545   0.389   9.289  0.3387  0.5383 -0.0074
  757MOL0     C 2126   3.642   0.292   9.295 -0.2970  0.4599  0.2486
  757MOL0     C 2127   3.640   0.191   9.401  1.0547 -0.8915  0.3193
  757MOL0     H 2128   4.162   0.220   9.377  0.0519  1.5233  0.6242
  757MOL0     H 2129   4.387   0.116   9.356 -0.2095 -2.6627  0.2641
  757MOL0     H 2130   4.601   0.068   9.288  0.6823  0.0049  2.2342
  757MOL0     H 2131   4.527  -0.087   9.315  2.3517 -1.4279  0.2330
  757MOL0     H 2132   4.757  -0.039   9.134 -1.6126  2.4289  1.0793
  757MOL0     H 2133   4.660  -0.189   9.126 -0.8099 -1.5604  0.2746
  757MOL0     H 2134   4.704  -0.240   9.356  0.5495 -0.5986 -0.8555
  757MOL0     H 2135   4.780  -0.078   9.392  1.4004  0.3977 -0.2605
  757MOL0     H 2136   4.883  -0.297   9.209 -2.8890  0.8294 -0.1711
  757MOL0     H 2137   4.975  -0.149   9.259 -0.5472  0.3249 -1.5544
  757MOL0     H 2138   5.063  -0.319   9.372 -0.3208 -0.2271 -1.0662
  757MOL0     H 2139   4.968  -0.224   9.494 -0.7502 -0.5631  1.7003
  757MOL0     H 2140   4.796  -0.362   9.507  1.1008 -0.2260  2.1089
  757MOL0     H 2141   4.872  -0.470   9.378 -1.2160  0.3506 -0.0059
  757MOL0     H 2142   5.000  -0.410   9.646  2.4042 -2.9467  1.9139
  757MOL0     H 2143   5.066  -0.517   9.521 -0.1528  1.2516 -3.1309
  757MOL0     H 2144   4.815  -0.550   9.702  3.9003  2.3054  1.8947
  757MOL0     H 2145   4.830  -0.640   9.545  1.0759  0.0174 -0.3832
  757MOL0     H 2146   5.023  -0.566   9.867  0.0703  3.3823 -3.4534
  757MOL0     H 2147   5.269  -0.862   9.972  1.4259  0.4453 -0.1980
  757MOL0     H 2148   5.304  -0.694   9.919 -0.9366  0.3699  0.0581
  757MOL0     H 2149   5.161  -0.594  10.065 -1.7023  0.6779  2.7287
  757MOL0     H 2150   5.058  -0.734  10.090 -0.5004  1.3676  3.1808
  757MOL0     H 2151   5.166  -0.677  10.292 -0.4953 -3.2520  1.8646
  757MOL0     H 2152   5.327  -0.692  10.220  0.0674 -0.0354 -0.9171
  757MOL0     H 2153   5.330  -0.917  10.205 -0.2355 -0.0841 -0.5200
  757MOL0     H 2154   5.155  -0.948  10.216 -3.5347  1.0537  5.0990
  757MOL0     H 2155   5.371  -0.935  10.631 -0.5833  0.5738 -2.1226
  757MOL0     H 2156   5.372  -1.149  10.754 -1.1983  1.2773  1.3809
  757MOL0     H 2157   5.448  -1.640  10.430 -1.1994 -2.4187 -1.0110
  757MOL0     H 2158   5.532  -1.856  10.470 -1.4523  0.2480 -0.4869
  757MOL0     H 2159   5.480  -2.144  10.610  0.8496 -1.2095  1.5443
  757MOL0     H 2160   5.607  -2.047  10.527 -1.0781 -0.4028 -0.3959
  757MOL0     H 2161   5.746  -2.072  10.748  1.6490 -0.0503 -1.6294
  757MOL0     H 2162   5.631  -2.208  10.781 -2.3857 -0.7935 -1.4311
  757MOL0     H 2163   5.692  -2.310  10.574 -2.2692  0.9301  1.4531
  757MOL0     H 2164   5.810  -2.177  10.538  1.3218  0.0209  2.6307
  757MOL0     H 2165   5.918  -2.223  10.747 -1.0885  0.5582  0.7444
  757MOL0     H 2166   5.959  -2.319  10.615 -1.1026 -4.0464 -1.1516
  757MOL0     H 2167   5.781  -2.500  10.706  0.3642 -0.8213 -0.1803
  757MOL0     H 2168   5.790  -2.419  10.863  3.2679 -2.8992  2.1859
  757MOL0     H 2169   6.045  -2.511  10.732 -0.7171 -3.7022  0.0306
  757MOL0     H 2170   6.023  -2.442  10.893 -0.0514 -1.2360  1.8207
  757MOL0     H 2171   6.059  -2.668  10.904  0.4206 -0.5400  0.3773
  757MOL0     H 2172   5.944  -2.716  10.785 -1.7305 -0.8125  2.0687
  757MOL0     H 2173   5.751  -2.668  10.941 -0.0628 -1.5241  0.8946
  757MOL0     H 2174   5.862  -2.785  10.998  1.3767 -0.3530  0.9555
  757MOL0     H 2175   5.387  -1.843  10.883  1.9154  2.0738  1.1487
  757MOL0     H 2176   5.307  -1.616  10.829  1.8246 -3.2074  1.8186
  757MOL0     H 2177   5.178  -1.342  10.429 -0.3913  0.8299  0.4518
  757MOL0     H 2178   5.166  -1.135  10.303 -1.0518  2.3624 -0.0756
  757MOL0     H 2179   4.299   0.010   8.954  0.2933 -0.1486  0.1265
  757MOL0     H 2180   4.069   0.133   8.976 -3.0291 -4.8995  0.9622
  757MOL0     H 2181   3.844   0.414   9.043 -0.8748 -1.2310 -0.1947
  757MOL0     H 2182   3.665   0.600   9.072  0.5232  1.6396  3.9883
  757MOL0     H 2183   3.365   0.616   9.367 -2.7214 -0.9907  0.2906
  757MOL0     H 2184   3.300   0.506   9.255  1.7864 -0.8206 -0.3938
  757MOL0     H 2185   3.173   0.715   9.251  1.1671 -0.0127  2.1854
  757MOL0     H 2186   3.249   0.702   9.086  2.2897 -1.4758  0.4284
  757MOL0     H 2187   3.429   0.848   9.193 -1.2311  0.5813 -0.0364
  757MOL0     H 2188   3.316   0.917   9.292 -0.6385  2.5091 -1.4552
  757MOL0     H 2189   3.313   0.918   8.990 -0.2223 -0.7813  0.9507
  757MOL0     H 2190   3.155   0.930   9.065 -0.1945 -0.8757 -2.7388
  757MOL0     H 2191   3.273   1.316   9.100  1.0395 -0.8262 -0.3384
  757MOL0     H 2192   3.471   0.397   9.368  0.9549  0.8682  0.5457
  757MOL0     H 2193   3.605   0.097   9.358 -1.3962  0.6784 -1.3745
  757MOL0     H 2194   3.737   0.182   9.450  0.9798 -1.2299  0.4073
  757MOL0     H 2195   3.563   0.213   9.475  0.5096 -0.0562 -0.4652
  758MOL0     O 2196   6.332   9.407   9.468  0.0504 -0.3105 -0.0286
  758MOL0     C 2197   6.395   9.410   9.360 -0.4783  0.6415  0.6244
  758MOL0     O 2198   6.513   9.342   9.331  0.6109  0.0847 -0.1120
  758MOL0     C 2199   6.539   9.242   9.423 -0.6183 -0.3888  0.2166
  758MOL0     C 2200   6.535   9.115   9.383  0.3516 -0.1130  0.3636
  758MOL0     C 2201   6.548   9.007   9.472 -0.4572  0.2771  0.9151
  758MOL0     C 2202   6.577   9.041   9.608 -0.9928  0.8184  0.0909
  758MOL0     O 2203   6.591   8.938   9.689  0.1828 -0.0794 -0.2845
  758MOL0     C 2204   6.570   8.974   9.826 -0.6421 -0.3184 -0.6481
  758MOL0     C 2205   6.514   8.847   9.897 -0.9542 -0.0326 -0.1989
  758MOL0     C 2206   6.627   8.758   9.958  0.6803 -0.6962  0.6518
  758MOL0     C 2207   6.735   8.709   9.857  0.4738 -0.0471  0.3861
  758MOL0     C 2208   6.815   8.583   9.899  0.5733 -1.0075  0.4222
  758MOL0     C 2209   6.737   8.464   9.946  0.9434  0.2066 -0.0668
  758MOL0     C 2210   6.823   8.339   9.964 -0.0735  0.8383 -0.3992
  758MOL0     C 2211   6.929   8.341  10.075  0.3285  0.0109  0.9337
  758MOL0     N 2212   7.002   8.220  10.093 -0.5666  0.5463  0.4146
  758MOL0     C 2213   7.097   8.190  10.003 -0.0036  0.1153  1.2520
  758MOL0     C 2214   7.121   8.054  10.029  0.3680 -0.8926 -0.9463
  758MOL0     C 2215   7.230   7.970   9.971  0.3586  0.1059 -0.2121
  758MOL0     C 2216   7.368   8.043   9.993  0.0290  0.2420  0.8334
  758MOL0     C 2217   7.416   8.101   9.859 -0.3581  0.0871  0.1045
  758MOL0     C 2218   7.557   8.153   9.867  0.0699  0.5364  0.1804
  758MOL0     O 2219   7.655   8.050   9.842  0.3698  0.0584  0.9371
  758MOL0     C 2220   7.787   8.074   9.815 -0.5201 -0.0475 -0.6781
  758MOL0     C 2221   7.866   7.961   9.805  0.7615 -0.4904 -1.2745
  758MOL0     C 2222   8.007   7.983   9.771  0.1489  1.1641 -1.3911
  758MOL0     C 2223   8.059   8.106   9.734 -0.5547 -0.1357  0.7335
  758MOL0     C 2224   8.204   8.124   9.711  0.1458  0.0059 -0.0097
  758MOL0     O 2225   8.250   8.240   9.662 -0.3422 -0.1106 -0.4517
  758MOL0     C 2226   8.376   8.248   9.602 -0.1242  0.9443 -0.8065
  758MOL0     C 2227   8.482   8.331   9.646  0.2772 -0.1229 -0.3231
  758MOL0     C 2228   8.592   8.349   9.558  0.8175  0.6351  0.1894
  758MOL0     C 2229   8.602   8.281   9.438  0.3367 -1.1182 -0.2564
  758MOL0     O 2230   8.712   8.316   9.358  0.1237  0.4546 -0.7828
  758MOL0     C 2231   8.739   8.260   9.231  0.3077 -0.3933 -0.5130
  758MOL0     C 2232   8.837   8.147   9.242 -0.1906 -0.3382  0.5491
  758MOL0     C 2233   8.902   8.111   9.101 -0.9648 -0.5252 -0.2771
  758MOL0     C 2234   9.024   8.028   9.143  0.6725 -0.3568 -0.2734
  758MOL0     C 2235   9.088   7.962   9.019 -0.3583  0.4439  0.1590
  758MOL0     C 2236   9.203   8.039   8.954  0.3488 -1.2242  0.3184
  758MOL0     C 2237   9.260   7.966   8.834 -0.3388  0.2569 -0.2653
  758MOL0     C 2238   9.204   8.006   8.691 -0.0578 -0.5211  0.4939
  758MOL0    Cl 2239   9.026   8.001   8.672 -0.0022 -0.3687 -0.1285
  758MOL0     C 2240   8.504   8.183   9.416  0.2374  0.8178 -0.6990
  758MOL0     C 2241   8.394   8.176   9.491  0.2735 -0.2566  0.8850
  758MOL0     O 2242   8.273   8.021   9.717 -0.8524  0.9287 -0.8497
  758MOL0     C 2243   7.978   8.213   9.720  0.0232 -0.2999 -0.7398
  758MOL0     C 2244   7.841   8.196   9.764  0.3461 -0.5826  0.0426
  758MOL0     N 2245   7.032   8.016  10.132  0.4537 -0.1348  0.5908
  758MOL0     N 2246   6.950   8.113  10.164 -0.7199  0.4297  0.3095
  758MOL0     C 2247   6.591   9.176   9.647 -0.8425 -1.0281 -0.2000
  758MOL0     C 2248   6.575   9.280   9.551 -0.2150 -0.4228  0.2922
  758MOL0     C 2249   6.347   9.508   9.253  0.3115 -0.1655 -0.4569
  758MOL0     C 2250   6.432   9.547   9.156  0.1405  0.7413  0.1091
  758MOL0     C 2251   6.410   9.658   9.076 -0.2795 -0.0784 -0.4860
  758MOL0     C 2252   6.288   9.713   9.058  0.5908  0.1245 -0.3336
  758MOL0     O 2253   6.265   9.819   8.972 -0.1249  0.4562  1.0867
  758MOL0     C 2254   6.373   9.875   8.887  0.1838 -0.9616 -0.7687
  758MOL0     C 2255   6.385   9.795   8.763 -0.4743  1.5600 -0.0862
  758MOL0     C 2256   6.492   9.862   8.677  0.5915 -0.3029  0.2585
  758MOL0     C 2257   6.418   9.976   8.596 -0.5400  0.4793  0.2117
  758MOL0     C 2258   6.484   9.991   8.458 -0.4478  0.3679 -0.0273
  758MOL0     C 2259   6.522  10.003   8.350 -0.5350 -0.2088  0.8308
  758MOL0     C 2260   6.189   9.664   9.149  0.5387  0.1357  0.3583
  758MOL0     C 2261   6.210   9.571   9.245  0.5901  0.5387  0.3125
  758MOL0     C 2262   6.081   9.530   9.327 -0.3725 -0.2838 -0.2107
  758MOL0     H 2263   6.519   9.093   9.277 -2.6063 -1.6720  1.0159
  758MOL0     H 2264   6.554   8.908   9.429 -3.2039  0.1999  0.5288
  758MOL0     H 2265   6.671   8.986   9.866 -1.3772  1.8779  0.7105
  758MOL0     H 2266   6.516   9.065   9.854  2.7815  1.3311  1.3348
  758MOL0     H 2267   6.446   8.797   9.828 -1.5355  1.5432 -0.8285
  758MOL0     H 2268   6.464   8.878   9.989 -1.8002 -0.4409 -0.5144
  758MOL0     H 2269   6.578   8.672  10.005  2.3326 -1.7695  0.5185
  758MOL0     H 2270   6.667   8.817  10.041  0.3873 -0.0042  0.3078
  758MOL0     H 2271   6.679   8.690   9.764  3.6952 -0.6825 -1.5983
  758MOL0     H 2272   6.807   8.790   9.840 -1.8415  1.8006 -1.2522
  758MOL0     H 2273   6.883   8.542   9.824  1.2607 -0.8192  0.9229
  758MOL0     H 2274   6.889   8.602   9.977  1.3937 -1.7633 -0.1513
  758MOL0     H 2275   6.691   8.483  10.044 -2.9582  0.8796 -1.8195
  758MOL0     H 2276   6.654   8.449   9.875  0.6266  2.8821 -0.3888
  758MOL0     H 2277   6.882   8.313   9.876  2.8698  1.0084  1.3806
  758MOL0     H 2278   6.758   8.254   9.989  0.4442  0.3524 -0.6677
  758MOL0     H 2279   7.003   8.415  10.046 -0.7097  0.9466  0.6169
  758MOL0     H 2280   6.887   8.369  10.172  1.5749  0.1898  1.4433
  758MOL0     H 2281   7.142   8.242   9.919  0.1541 -3.0667 -0.7847
  758MOL0     H 2282   7.244   7.883  10.036  3.6539  0.1033 -0.7680
  758MOL0     H 2283   7.202   7.941   9.869  1.4045  1.1986 -0.8488
  758MOL0     H 2284   7.355   8.118  10.071 -0.2362 -2.5102  3.6072
  758MOL0     H 2285   7.436   7.971  10.040  1.2144 -0.4900 -1.7799
  758MOL0     H 2286   7.357   8.192   9.847  2.5707  2.2670  1.0974
  758MOL0     H 2287   7.408   8.031   9.776 -0.6402  1.4592 -1.0698
  758MOL0     H 2288   7.582   8.184   9.969  0.7358  1.9191 -0.3737
  758MOL0     H 2289   7.562   8.231   9.791 -1.2166  1.4801  1.0138
  758MOL0     H 2290   7.811   7.873   9.837 -1.4494  0.7361 -1.4607
  758MOL0     H 2291   8.072   7.897   9.782 -2.2728 -0.8285 -1.8516
  758MOL0     H 2292   8.468   8.378   9.743  1.6705 -0.3224 -0.0080
  758MOL0     H 2293   8.675   8.411   9.591  2.2639  0.4303 -2.7765
  758MOL0     H 2294   8.647   8.222   9.187  0.8403  0.1713 -2.1846
  758MOL0     H 2295   8.773   8.340   9.164  1.2625 -1.0852 -0.8796
  758MOL0     H 2296   8.918   8.169   9.312 -0.3877 -4.2277  2.2932
  758MOL0     H 2297   8.775   8.076   9.298 -1.8137  2.5636  2.6710
  758MOL0     H 2298   8.834   8.057   9.035 -1.1356  0.1742 -0.6870
  758MOL0     H 2299   8.924   8.195   9.034 -0.3748 -0.8442 -0.4906
  758MOL0     H 2300   8.994   7.954   9.218 -3.6143  0.1258 -1.1963
  758MOL0     H 2301   9.105   8.083   9.191  0.0548 -0.0342  0.4274
  758MOL0     H 2302   9.010   7.932   8.949 -1.7979 -1.3437  2.3846
  758MOL0     H 2303   9.143   7.874   9.053 -0.2873  0.2838 -0.3669
  758MOL0     H 2304   9.149   8.122   8.908  0.0235 -1.8247 -0.3979
  758MOL0     H 2305   9.283   8.074   9.019  0.4827 -0.9544  0.0080
  758MOL0     H 2306   9.256   7.858   8.846  0.5962  0.3561  1.1455
  758MOL0     H 2307   9.366   7.994   8.833  0.0108 -1.0329 -0.4341
  758MOL0     H 2308   9.252   8.100   8.663 -0.9327  0.2203  1.3790
  758MOL0     H 2309   9.254   7.941   8.619  1.2543  1.0108 -0.0322
  758MOL0     H 2310   8.492   8.135   9.319 -0.0897 -0.9593  0.1863
  758MOL0     H 2311   8.305   8.137   9.444 -1.1169  0.3766  2.8550
  758MOL0     H 2312   8.034   8.306   9.707  0.8960 -0.7911 -0.6009
  758MOL0     H 2313   7.776   8.283   9.772  0.9799 -0.2113  1.5321
  758MOL0     H 2314   6.616   9.199   9.750 -0.8100 -0.4295 -0.3383
  758MOL0     H 2315   6.594   9.382   9.583  2.7369 -1.0804  1.0005
  758MOL0     H 2316   6.528   9.497   9.163 -0.2827  0.1855  4.2140
  758MOL0     H 2317   6.499   9.703   9.035  0.7559 -0.3345  1.3608
  758MOL0     H 2318   6.468   9.881   8.941  0.5993  2.3524 -1.6497
  758MOL0     H 2319   6.328   9.972   8.864 -0.6001 -1.4665 -1.4282
  758MOL0     H 2320   6.294   9.772   8.706 -1.9741  3.9740  1.1382
  758MOL0     H 2321   6.426   9.703   8.806 -0.1718  2.2946  1.2730
  758MOL0     H 2322   6.523   9.782   8.610 -3.5455 -0.6954 -1.5124
  758MOL0     H 2323   6.571   9.899   8.743 -1.4088  0.0947  2.5827
  758MOL0     H 2324   6.312   9.950   8.589 -0.8679  1.6565  0.5545
  758MOL0     H 2325   6.405  10.077   8.636  1.3676  0.5807  0.6461
  758MOL0     H 2326   6.563  10.030   8.255  1.1848  0.3119  1.6750
  758MOL0     H 2327   6.094   9.716   9.138  1.2754  1.7306  1.1174
  758MOL0     H 2328   6.089   9.421   9.333 -0.1819 -0.1858  2.5437
  758MOL0     H 2329   6.073   9.573   9.427  1.6378  0.7867 -0.4477
  758MOL0     H 2330   5.992   9.566   9.274  2.4488  1.5325 -4.2481
  759MOL0     O 2331   6.529   3.124  11.436 -0.6755 -0.2714 -0.4612
  759MOL0     C 2332   6.537   3.005  11.435 -1.3391  0.5615  1.5415
  759MOL0     O 2333   6.641   2.934  11.376  0.4383 -0.0564 -0.1374
  759MOL0     C 2334   6.676   2.968  11.243 -1.0569  1.0924  1.1707
  759MOL0     C 2335   6.597   3.046  11.146 -0.7029  0.0858  0.6136
  759MOL0     C 2336   6.659   3.073  11.024 -0.5521 -0.0279  0.7611
  759MOL0     C 2337   6.788   3.047  10.992 -0.9583 -0.2095 -0.8806
  759MOL0     O 2338   6.856   3.069  10.879 -0.7818 -0.1465 -0.1102
  759MOL0     C 2339   6.791   3.044  10.761 -0.2015  0.0062 -0.5240
  759MOL0     C 2340   6.902   3.057  10.660  0.3317 -0.8135  0.4989
  759MOL0     C 2341   6.852   3.036  10.520  0.2597 -0.0766 -0.3479
  759MOL0     C 2342   6.947   3.097  10.417  0.2093  0.1230  0.0314
  759MOL0     C 2343   6.906   3.054  10.270  0.6626  0.1071 -0.9086
  759MOL0     C 2344   6.761   3.067  10.236  0.5019  0.2423 -0.0695
  759MOL0     C 2345   6.706   3.216  10.216 -0.4175  0.4684 -0.6434
  759MOL0     C 2346   6.551   3.223  10.194  0.4676  0.5556 -0.4813
  759MOL0     N 2347   6.481   3.186  10.320  0.1510 -0.4412  0.5077
  759MOL0     C 2348   6.422   3.063  10.356 -0.1334 -0.7196  0.7322
  759MOL0     C 2349   6.378   3.085  10.478 -0.2704  0.1707 -0.9192
  759MOL0     C 2350   6.318   2.985  10.574  0.3186 -0.1673  1.0177
  759MOL0     C 2351   6.416   2.947  10.685 -0.7089 -0.2123  0.6296
  759MOL0     C 2352   6.381   2.815  10.747 -0.0726  0.0745 -0.1596
  759MOL0     C 2353   6.484   2.772  10.850 -0.7150  0.0691  0.2801
  759MOL0     O 2354   6.494   2.629  10.848 -0.1818 -0.0305 -0.1026
  759MOL0     C 2355   6.589   2.568  10.931  0.3234  0.1243 -0.7569
  759MOL0     C 2356   6.682   2.646  11.006 -0.0967 -0.1867  0.1836
  759MOL0     C 2357   6.785   2.577  11.061 -0.3182  0.1330 -0.5619
  759MOL0     C 2358   6.806   2.440  11.061 -1.0065  0.9631  0.8768
  759MOL0     C 2359   6.921   2.374  11.132  0.9336 -0.2324 -1.2703
  759MOL0     O 2360   6.950   2.251  11.088  0.5993 -0.1715  0.1472
  759MOL0     C 2361   7.039   2.174  11.145 -0.9209  0.0185 -1.0223
  759MOL0     C 2362   7.127   2.103  11.056  0.3958 -0.0651 -0.9657
  759MOL0     C 2363   7.223   2.016  11.109 -0.2074  0.2735 -0.3355
  759MOL0     C 2364   7.228   1.989  11.247 -0.5985 -0.9033 -0.4269
  759MOL0     O 2365   7.327   1.906  11.294 -0.3959  0.3973 -0.0109
  759MOL0     C 2366   7.358   1.912  11.435 -0.2202 -0.1696  0.3652
  759MOL0     C 2367   7.509   1.878  11.442 -0.2618  0.7875  0.3309
  759MOL0     C 2368   7.605   1.991  11.394 -0.0927  0.2732 -0.1041
  759MOL0     C 2369   7.751   1.949  11.436 -0.3990  0.1259 -0.1480
  759MOL0     C 2370   7.857   2.046  11.400 -0.4166 -0.0947  0.6429
  759MOL0     C 2371   7.879   2.046  11.250  0.0279  0.7334 -0.0088
  759MOL0     C 2372   7.982   2.145  11.212 -1.4340 -0.3743  0.8760
  759MOL0     C 2373   7.966   2.174  11.059  0.4051 -0.1640 -0.6990
  759MOL0    Cl 2374   8.091   2.271  10.984  0.4439 -0.0089 -0.1861
  759MOL0     C 2375   7.141   2.059  11.330 -0.6778 -0.1366 -0.1404
  759MOL0     C 2376   7.045   2.144  11.282 -0.6421  0.9124  0.7051
  759MOL0     O 2377   6.984   2.437  11.211 -0.2304  0.0769 -0.5206
  759MOL0     C 2378   6.714   2.368  10.992  0.1519  0.4997  0.6679
  759MOL0     C 2379   6.612   2.431  10.923 -0.2683  0.2645  0.3409
  759MOL0     N 2380   6.400   3.214  10.517 -0.9280 -0.4820 -0.2949
  759MOL0     N 2381   6.453   3.274  10.417  0.4206 -0.1837  0.1308
  759MOL0     C 2382   6.868   2.987  11.091  0.4235  0.5857  0.1934
  759MOL0     C 2383   6.808   2.935  11.209 -0.9658 -1.1194 -0.4317
  759MOL0     C 2384   6.429   2.930  11.496 -0.3242 -0.0389 -1.1063
  759MOL0     C 2385   6.472   2.808  11.568  1.5146  0.0077  0.0869
  759MOL0     C 2386   6.373   2.730  11.635  0.0365 -0.3053 -0.6272
  759MOL0     C 2387   6.234   2.769  11.629 -0.7422 -0.9271 -0.5408
  759MOL0     O 2388   6.125   2.704  11.685  0.5297  0.8706 -0.5274
  759MOL0     C 2389   6.114   2.572  11.753  0.0008 -0.1661 -0.9807
  759MOL0     C 2390   5.961   2.526  11.758 -0.9244  1.3206 -0.4701
  759MOL0     C 2391   5.907   2.506  11.616 -1.0553  0.0337  0.4007
  759MOL0     C 2392   5.973   2.403  11.529  0.0234 -0.1275  0.3768
  759MOL0     C 2393   5.962   2.276  11.588  0.4057  0.4550  0.7708
  759MOL0     C 2394   5.954   2.162  11.635  0.2164 -0.1644 -0.5945
  759MOL0     C 2395   6.212   2.897  11.582  0.9067 -0.4088  0.3669
  759MOL0     C 2396   6.295   2.972  11.508  0.4287 -0.3297 -0.6655
  759MOL0     C 2397   6.236   3.092  11.430  0.3721 -0.1805 -0.4584
  759MOL0     H 2398   6.500   3.081  11.179 -0.7798 -1.8073  2.6253
  759MOL0     H 2399   6.596   3.117  10.947 -3.8326 -0.1837  3.1093
  759MOL0     H 2400   6.747   2.945  10.775 -0.5621  0.0054 -1.5793
  759MOL0     H 2401   6.718   3.116  10.722  3.0911  2.2493 -3.1664
  759MOL0     H 2402   6.973   2.980  10.693 -0.7875 -0.4791  4.1328
  759MOL0     H 2403   6.939   3.160  10.660 -4.6450  1.3046 -1.7662
  759MOL0     H 2404   6.750   3.074  10.513  1.0409  3.0550  2.8681
  759MOL0     H 2405   6.859   2.927  10.507  0.1938 -0.1927  0.5432
  759MOL0     H 2406   6.924   3.204  10.425 -1.1381 -0.0290 -1.3978
  759MOL0     H 2407   7.055   3.086  10.432  0.2843  0.4791 -0.2479
  759MOL0     H 2408   6.961   3.122  10.204 -0.9975  2.4094 -0.0665
  759MOL0     H 2409   6.928   2.948  10.261 -1.3968 -0.4366 -0.1459
  759MOL0     H 2410   6.748   3.008  10.145 -0.2192 -1.5545  1.1501
  759MOL0     H 2411   6.703   3.015  10.313  2.8211 -3.7095 -0.7358
  759MOL0     H 2412   6.753   3.265  10.130  1.7305  4.4476  2.4004
  759MOL0     H 2413   6.725   3.269  10.310  1.8028 -1.5175  0.1098
  759MOL0     H 2414   6.523   3.325  10.164  2.7257  2.2327  2.5313
  759MOL0     H 2415   6.521   3.150  10.118 -1.2152 -0.6255  1.2110
  759MOL0     H 2416   6.425   2.976  10.292  2.6550 -1.3641  1.6009
  759MOL0     H 2417   6.235   3.026  10.633  0.2612 -0.0055  0.8236
  759MOL0     H 2418   6.271   2.903  10.520 -2.1565 -0.7574  3.8324
  759MOL0     H 2419   6.513   2.934  10.635 -1.0273  0.0119 -0.0568
  759MOL0     H 2420   6.416   3.023  10.763 -1.3637  0.5423 -0.0887
  759MOL0     H 2421   6.371   2.740  10.669  1.6384 -0.2343 -0.1186
  759MOL0     H 2422   6.284   2.812  10.798 -0.5867 -0.1291 -1.1334
  759MOL0     H 2423   6.466   2.803  10.953  1.8994  2.1557  0.2052
  759MOL0     H 2424   6.579   2.817  10.819  0.6967 -1.0426  2.7480
  759MOL0     H 2425   6.675   2.752  11.030  0.0198 -0.1218 -0.0650
  759MOL0     H 2426   6.842   2.636  11.132  1.6862  0.9853 -2.7352
  759MOL0     H 2427   7.098   2.116  10.952 -0.5480 -0.4474 -0.7538
  759MOL0     H 2428   7.304   1.972  11.052  1.0538  4.3251 -2.0005
  759MOL0     H 2429   7.341   2.010  11.482 -4.2002 -0.1478 -0.7201
  759MOL0     H 2430   7.289   1.841  11.482  0.2863 -2.2824 -1.9362
  759MOL0     H 2431   7.522   1.859  11.549 -2.1729 -0.9036  0.3375
  759MOL0     H 2432   7.524   1.777  11.403  2.5380  0.8817  0.9700
  759MOL0     H 2433   7.601   2.015  11.287  4.9946  0.2970 -0.5610
  759MOL0     H 2434   7.578   2.083  11.448 -2.6713  0.9072 -2.2773
  759MOL0     H 2435   7.770   1.849  11.395 -1.6286  0.0156 -0.4867
  759MOL0     H 2436   7.755   1.931  11.544 -0.4784 -0.5991 -0.2606
  759MOL0     H 2437   7.960   2.025  11.431 -0.2945  2.6727  2.4217
  759MOL0     H 2438   7.828   2.145  11.436 -3.1569 -0.3127 -0.6876
  759MOL0     H 2439   7.911   1.946  11.220 -0.7482  0.9413 -1.6825
  759MOL0     H 2440   7.791   2.071  11.190  0.0296  0.2720 -0.2102
  759MOL0     H 2441   8.080   2.098  11.224 -2.0193 -2.1266 -0.7703
  759MOL0     H 2442   7.962   2.240  11.263  2.5907  1.6735 -0.8718
  759MOL0     H 2443   7.971   2.073  11.017 -1.1146 -1.1463  1.2991
  759MOL0     H 2444   7.869   2.213  11.028  0.1603  0.9910  1.3368
  759MOL0     H 2445   7.140   2.035  11.435  3.3100  1.4887  0.4391
  759MOL0     H 2446   6.976   2.204  11.342  0.8378  2.1888  1.2018
  759MOL0     H 2447   6.717   2.260  10.983 -0.3928  0.5513 -0.2818
  759MOL0     H 2448   6.554   2.369  10.857  0.3719  0.9533 -0.9038
  759MOL0     H 2449   6.974   2.987  11.067  0.5776  3.1235  0.5614
  759MOL0     H 2450   6.862   2.895  11.294 -2.6524  0.2233  1.3561
  759MOL0     H 2451   6.578   2.782  11.574  1.4763  0.0432  1.0524
  759MOL0     H 2452   6.402   2.638  11.686 -0.7242  1.0753  2.5841
  759MOL0     H 2453   6.155   2.581  11.854 -0.2502 -1.3103 -0.7671
  759MOL0     H 2454   6.175   2.496  11.704 -1.2987 -1.6348 -0.3926
  759MOL0     H 2455   5.902   2.601  11.811 -2.0491 -0.5487  1.0765
  759MOL0     H 2456   5.934   2.435  11.813 -0.8808  1.2388 -0.5823
  759MOL0     H 2457   5.930   2.596  11.558 -0.2179  0.1116  0.8374
  759MOL0     H 2458   5.800   2.485  11.613 -0.4443 -3.9598  1.5596
  759MOL0     H 2459   5.922   2.398  11.433  3.7327  0.9752 -1.8467
  759MOL0     H 2460   6.079   2.424  11.511  0.7090 -0.2893  3.5059
  759MOL0     H 2461   5.943   2.063  11.675  1.2051  0.1107  0.3921
  759MOL0     H 2462   6.114   2.943  11.595  0.5309 -0.2544 -2.4136
  759MOL0     H 2463   6.269   3.191  11.462  0.5485 -0.5564  0.5767
  759MOL0     H 2464   6.269   3.090  11.325 -1.9428  1.7126 -1.3108
  759MOL0     H 2465   6.127   3.090  11.427 -0.0469  3.6080  3.3421
  760MOL0     O 2466   4.486   0.019   0.936  1.0569  0.7584 -0.5068
  760MOL0     C 2467   4.485   0.117   1.008  0.3744  0.1296  0.2420
  760MOL0     O 2468   4.480   0.248   0.955  0.6851  0.6817 -0.2218
  760MOL0     C 2469   4.452   0.242   0.827  0.1139 -1.0352  0.7434
  760MOL0     C 2470   4.322   0.264   0.776  0.5955  1.0542  0.1984
  760MOL0     C 2471   4.303   0.263   0.639  0.0607  0.1293 -0.4866
  760MOL0     C 2472   4.401   0.230   0.547 -0.0860 -0.4418  0.3273
  760MOL0     O 2473   4.384   0.234   0.411  0.0087 -0.3254 -0.0369
  760MOL0     C 2474   4.338   0.363   0.365  0.0262  1.0026  0.0892
  760MOL0     C 2475   4.335   0.349   0.209  0.1897  0.6249  0.3657
  760MOL0     C 2476   4.218   0.439   0.145 -0.0898  0.1035  0.4012
  760MOL0     C 2477   4.149   0.373   0.028 -0.8114 -0.2435  0.6356
  760MOL0     C 2478   4.022   0.431  -0.012  0.6131  0.6105  0.0570
  760MOL0     C 2479   3.960   0.362  -0.132 -0.6835  0.2527 -0.7163
  760MOL0     C 2480   3.815   0.405  -0.148 -0.0734 -0.0917  0.8786
  760MOL0     C 2481   3.753   0.329  -0.268  0.6422  0.0314 -0.5903
  760MOL0     N 2482   3.737   0.187  -0.245  0.3748 -0.1476  0.7171
  760MOL0     C 2483   3.696   0.106  -0.345 -0.9368  0.2889 -0.6654
  760MOL0     C 2484   3.700  -0.019  -0.293  1.2278  0.1044  0.2763
  760MOL0     C 2485   3.616  -0.133  -0.355 -1.0377 -0.2121 -0.8749
  760MOL0     C 2486   3.528  -0.224  -0.267  0.2789  0.6869 -0.0981
  760MOL0     C 2487   3.583  -0.324  -0.159  0.3061  0.2267 -0.6128
  760MOL0     C 2488   3.630  -0.447  -0.239  0.7317 -0.1860  0.3705
  760MOL0     O 2489   3.691  -0.538  -0.146  0.6630  0.8180  0.3198
  760MOL0     C 2490   3.748  -0.642  -0.219 -0.3517 -0.2175  0.6637
  760MOL0     C 2491   3.787  -0.647  -0.356 -0.1160 -0.2041  0.3290
  760MOL0     C 2492   3.836  -0.766  -0.417  0.0577 -0.0410 -0.5088
  760MOL0     C 2493   3.860  -0.878  -0.343  1.1187  0.5609  0.1757
  760MOL0     C 2494   3.936  -0.986  -0.411  0.1641 -0.9746 -0.4756
  760MOL0     O 2495   3.950  -1.101  -0.343 -0.0403  0.1718 -0.7130
  760MOL0     C 2496   4.045  -1.195  -0.368  0.0359 -0.4298  0.6114
  760MOL0     C 2497   4.019  -1.279  -0.478 -0.2133  0.3075 -0.1399
  760MOL0     C 2498   4.125  -1.369  -0.517  1.0060  0.0295  0.4777
  760MOL0     C 2499   4.238  -1.378  -0.434 -0.5727 -0.9790  0.9453
  760MOL0     O 2500   4.326  -1.476  -0.481  0.1523 -0.0825 -0.1797
  760MOL0     C 2501   4.468  -1.457  -0.452 -0.3158 -0.7554 -0.6094
  760MOL0     C 2502   4.566  -1.565  -0.520  0.1910  0.1020 -0.7418
  760MOL0     C 2503   4.538  -1.607  -0.662 -0.1874 -0.3429 -0.6946
  760MOL0     C 2504   4.534  -1.496  -0.769 -0.2435 -0.6172  0.2601
  760MOL0     C 2505   4.521  -1.556  -0.911 -0.0713  0.1938 -0.6048
  760MOL0     C 2506   4.676  -1.576  -0.955  1.1649 -0.3139 -0.6347
  760MOL0     C 2507   4.745  -1.433  -0.974  1.2190  0.1693 -0.0536
  760MOL0     C 2508   4.877  -1.444  -1.053 -0.5535 -0.7060 -0.3674
  760MOL0    Cl 2509   4.998  -1.539  -0.961 -0.0497  0.0428  0.3281
  760MOL0     C 2510   4.254  -1.294  -0.321  0.7266  1.4359 -0.1329
  760MOL0     C 2511   4.158  -1.204  -0.287  0.1013 -0.3627 -0.7156
  760MOL0     O 2512   3.967  -0.969  -0.531 -0.7768  0.7667  0.0503
  760MOL0     C 2513   3.817  -0.884  -0.212 -0.0862  0.4211  0.0904
  760MOL0     C 2514   3.759  -0.774  -0.151  0.5575 -1.1765 -0.5527
  760MOL0     N 2515   3.725  -0.012  -0.161  0.9683 -0.5598  0.8183
  760MOL0     N 2516   3.747   0.114  -0.138 -0.3129  0.2825 -0.1794
  760MOL0     C 2517   4.526   0.217   0.597 -0.9349  0.7227 -0.0450
  760MOL0     C 2518   4.552   0.219   0.736 -0.5672 -0.5272 -0.2952
  760MOL0     C 2519   4.482   0.090   1.159  0.5995 -0.0093 -0.1876
  760MOL0     C 2520   4.483   0.210   1.234 -1.0957 -0.5561  0.2926
  760MOL0     C 2521   4.473   0.205   1.372 -0.3953  0.1141  0.6100
  760MOL0     C 2522   4.454   0.083   1.442  0.0859  0.6275  0.2226
  760MOL0     O 2523   4.409   0.083   1.578 -0.2265 -0.2911  0.1133
  760MOL0     C 2524   4.362  -0.034   1.653  0.6673  0.4813  0.5197
  760MOL0     C 2525   4.223  -0.077   1.610  0.1988  0.8289  0.1914
  760MOL0     C 2526   4.129   0.039   1.599 -0.3902 -0.2076 -0.2298
  760MOL0     C 2527   3.987  -0.024   1.590 -0.4398 -0.3021 -0.6285
  760MOL0     C 2528   3.875   0.078   1.605 -0.1194  0.3879  0.1455
  760MOL0     C 2529   3.784   0.151   1.604  0.1255  1.0873 -0.5088
  760MOL0     C 2530   4.467  -0.040   1.363  0.2222  0.0855 -0.8352
  760MOL0     C 2531   4.477  -0.032   1.221  0.2931  0.2523 -1.6472
  760MOL0     C 2532   4.483  -0.167   1.153 -1.1714  1.0415 -0.6324
  760MOL0     H 2533   4.239   0.268   0.845  1.4956 -0.4410  1.4503
  760MOL0     H 2534   4.203   0.278   0.598 -0.4878 -2.3305 -0.2502
  760MOL0     H 2535   4.238   0.384   0.402 -0.2831 -1.9016  1.1366
  760MOL0     H 2536   4.418   0.431   0.398  1.4254  0.4030 -1.8622
  760MOL0     H 2537   4.298   0.248   0.190  2.4210  0.0685 -1.4244
  760MOL0     H 2538   4.437   0.358   0.172 -0.3827 -4.1135 -3.2086
  760MOL0     H 2539   4.273   0.530   0.118 -1.9049  0.8949 -0.8797
  760MOL0     H 2540   4.145   0.458   0.224  1.2295  0.0090  1.6746
  760MOL0     H 2541   4.207   0.371  -0.064 -3.1933 -0.3627 -0.9681
  760MOL0     H 2542   4.135   0.267   0.052 -1.1123 -1.1010 -2.7942
  760MOL0     H 2543   3.947   0.412   0.066 -1.4821 -0.0535 -2.0159
  760MOL0     H 2544   4.035   0.539  -0.023  0.9936  0.5144 -0.4750
  760MOL0     H 2545   4.013   0.401  -0.219  0.1657  3.8636  1.1849
  760MOL0     H 2546   3.970   0.255  -0.114  2.4171  0.3406 -1.3270
  760MOL0     H 2547   3.812   0.513  -0.166 -1.9700 -0.4103 -1.1318
  760MOL0     H 2548   3.754   0.375  -0.062 -1.1507 -3.2849 -0.8470
  760MOL0     H 2549   3.655   0.374  -0.285 -0.0885 -0.4088  1.9678
  760MOL0     H 2550   3.828   0.339  -0.348  1.8881 -3.6236 -0.0756
  760MOL0     H 2551   3.643   0.134  -0.435  0.2508 -0.8374 -1.7480
  760MOL0     H 2552   3.545  -0.081  -0.421 -1.6428 -0.1648 -0.2016
  760MOL0     H 2553   3.684  -0.190  -0.418  0.2149 -0.4305  0.6027
  760MOL0     H 2554   3.466  -0.162  -0.202  0.2920  0.0121  0.5653
  760MOL0     H 2555   3.458  -0.277  -0.332  0.4003 -0.4234  0.6491
  760MOL0     H 2556   3.494  -0.333  -0.095  0.2425  2.4961 -0.3019
  760MOL0     H 2557   3.666  -0.279  -0.104  1.0594 -2.7039  0.8337
  760MOL0     H 2558   3.701  -0.396  -0.306  0.0379  0.6774  0.2693
  760MOL0     H 2559   3.543  -0.485  -0.293 -0.3945  1.9445  0.5580
  760MOL0     H 2560   3.780  -0.557  -0.416  0.1875  1.6606  2.9035
  760MOL0     H 2561   3.871  -0.752  -0.519  1.1959  4.9240  0.2969
  760MOL0     H 2562   3.940  -1.251  -0.547  2.3234  1.7635 -2.6807
  760MOL0     H 2563   4.115  -1.425  -0.609  2.3087  1.2165 -0.4245
  760MOL0     H 2564   4.496  -1.356  -0.482 -2.8306  0.2076  0.0113
  760MOL0     H 2565   4.495  -1.469  -0.347  2.6796 -0.2627 -1.2362
  760MOL0     H 2566   4.665  -1.517  -0.520  0.0309  0.4889 -2.6068
  760MOL0     H 2567   4.561  -1.652  -0.453 -0.0361  2.4169  2.4829
  760MOL0     H 2568   4.607  -1.684  -0.698  1.7613  0.9295  0.1760
  760MOL0     H 2569   4.439  -1.655  -0.663 -2.3735  3.6555 -1.4485
  760MOL0     H 2570   4.623  -1.434  -0.753 -1.5647  1.7846 -1.1581
  760MOL0     H 2571   4.447  -1.432  -0.755  0.3503  0.2492  0.0511
  760MOL0     H 2572   4.468  -1.485  -0.975 -1.0918  0.8942  0.9594
  760MOL0     H 2573   4.462  -1.648  -0.909 -1.3934  0.9942 -1.4502
  760MOL0     H 2574   4.726  -1.639  -0.880  1.1320 -0.6482 -0.8899
  760MOL0     H 2575   4.655  -1.622  -1.052 -0.3171  0.3638 -0.6573
  760MOL0     H 2576   4.766  -1.376  -0.883  0.4132  2.3704 -1.1538
  760MOL0     H 2577   4.675  -1.380  -1.039 -0.2807  2.2615  3.0480
  760MOL0     H 2578   4.870  -1.491  -1.151 -0.2568  0.2349 -0.8498
  760MOL0     H 2579   4.909  -1.341  -1.065  1.1978 -1.4925 -3.4096
  760MOL0     H 2580   4.347  -1.306  -0.267  1.3108 -1.0451 -1.5221
  760MOL0     H 2581   4.162  -1.140  -0.200  0.0378  1.2364 -1.8493
  760MOL0     H 2582   3.814  -0.974  -0.152  0.0267  1.6817  2.0957
  760MOL0     H 2583   3.719  -0.776  -0.050  0.9746 -4.2419 -0.3489
  760MOL0     H 2584   4.607   0.224   0.525 -1.6918  1.2170 -0.8540
  760MOL0     H 2585   4.655   0.198   0.766 -0.8387  0.0831  1.1581
  760MOL0     H 2586   4.479   0.309   1.189  0.8908 -0.9087 -0.7815
  760MOL0     H 2587   4.466   0.299   1.427 -0.3641  0.7375 -0.4196
  760MOL0     H 2588   4.363  -0.007   1.758  6.6515  3.4343  0.1366
  760MOL0     H 2589   4.445  -0.106   1.648  1.2282  1.0652  1.3774
  760MOL0     H 2590   4.176  -0.143   1.683  1.3641  4.4161  4.6368
  760MOL0     H 2591   4.216  -0.120   1.510  0.1053  0.3721  0.3961
  760MOL0     H 2592   4.167   0.104   1.520  0.4771  3.1171  2.7089
  760MOL0     H 2593   4.133   0.099   1.690  3.0669  1.3081 -1.2310
  760MOL0     H 2594   3.979  -0.064   1.489 -0.6270  0.2073 -0.8200
  760MOL0     H 2595   3.979  -0.096   1.672 -0.0460 -0.2121 -0.5064
  760MOL0     H 2596   3.708   0.225   1.618 -0.8093  0.2845 -1.1641
  760MOL0     H 2597   4.473  -0.141   1.403 -0.4512 -0.9084 -3.0812
  760MOL0     H 2598   4.416  -0.171   1.067 -0.4489 -1.2395 -1.1540
  760MOL0     H 2599   4.579  -0.188   1.105 -2.0473 -4.1640 -0.6977
  760MOL0     H 2600   4.450  -0.244   1.224  1.3458  0.8764  0.4996
  761MOL0     O 2601   2.477   1.321   1.155 -0.4807  0.7666  0.1874
  761MOL0     C 2602   2.562   1.226   1.142  0.7503 -0.2644  0.4582
  761MOL0     O 2603   2.686   1.218   1.197  0.0700  0.1649 -0.2597
  761MOL0     C 2604   2.754   1.325   1.252  0.2128 -0.0189 -0.5536
  761MOL0     C 2605   2.751   1.458   1.206  0.6910  1.3219  0.0373
  761MOL0     C 2606   2.829   1.555   1.266 -0.3715  0.7426  0.3494
  761MOL0     C 2607   2.921   1.534   1.364  0.3824 -0.3473 -0.2664
  761MOL0     O 2608   3.000   1.637   1.417  0.4302  0.5442 -0.0148
  761MOL0     C 2609   3.121   1.588   1.490  0.2779 -0.1403 -0.5572
  761MOL0     C 2610   3.241   1.683   1.468  0.0461 -1.5935  0.6576
  761MOL0     C 2611   3.229   1.812   1.547  0.8440  0.4099  0.1708
  761MOL0     C 2612   3.328   1.906   1.477  0.8428  0.3932 -0.0368
  761MOL0     C 2613   3.343   2.030   1.561 -0.6706  0.0981  0.1275
  761MOL0     C 2614   3.455   2.118   1.508 -0.8311 -0.3174 -0.4643
  761MOL0     C 2615   3.458   2.260   1.583 -0.8645  0.2967 -0.3537
  761MOL0     C 2616   3.526   2.256   1.722 -0.1776 -0.2761  0.2274
  761MOL0     N 2617   3.670   2.265   1.715  0.6521 -0.3320  0.4020
  761MOL0     C 2618   3.749   2.158   1.737  0.4914 -0.4513 -0.3460
  761MOL0     C 2619   3.871   2.193   1.680 -0.3318  0.7121 -0.4143
  761MOL0     C 2620   3.981   2.099   1.636 -0.2365 -0.5832 -0.2678
  761MOL0     C 2621   3.938   1.985   1.545 -0.2205  0.0928  1.0995
  761MOL0     C 2622   3.974   1.990   1.395  0.1252  0.5842  0.3440
  761MOL0     C 2623   4.118   1.996   1.367  0.7316  0.8763  0.3680
  761MOL0     O 2624   4.160   1.953   1.234 -0.0776 -0.8659 -0.4641
  761MOL0     C 2625   4.122   2.028   1.127  0.7689  1.4735 -0.4719
  761MOL0     C 2626   4.124   2.168   1.124 -0.2816  0.4165  0.4114
  761MOL0     C 2627   4.079   2.242   1.013 -0.9665 -0.1759  0.2606
  761MOL0     C 2628   4.017   2.171   0.904  0.7676  0.7641  0.5466
  761MOL0     C 2629   3.959   2.240   0.778  0.3322  0.4637  0.8460
  761MOL0     O 2630   3.859   2.166   0.712 -0.1560 -0.1866  1.1336
  761MOL0     C 2631   3.795   2.215   0.595  0.0694  0.0765  0.2067
  761MOL0     C 2632   3.658   2.237   0.579  0.1136  0.4839  0.5335
  761MOL0     C 2633   3.611   2.283   0.455 -0.3228  0.7357 -0.2973
  761MOL0     C 2634   3.698   2.306   0.349  1.0614  0.4314  1.3083
  761MOL0     O 2635   3.649   2.352   0.230  0.1879  0.5491 -0.1396
  761MOL0     C 2636   3.717   2.295   0.115  0.2489 -0.2074 -0.6486
  761MOL0     C 2637   3.653   2.354  -0.013  0.6114  0.4045 -0.5580
  761MOL0     C 2638   3.665   2.513  -0.017  0.2888 -0.0967 -0.4003
  761MOL0     C 2639   3.589   2.579  -0.133  0.3674  0.1270 -0.1423
  761MOL0     C 2640   3.451   2.610  -0.076 -0.0948  0.2531 -0.8864
  761MOL0     C 2641   3.379   2.687  -0.195 -0.1505  0.7188 -0.0815
  761MOL0     C 2642   3.230   2.724  -0.166  0.4026 -0.2332 -0.6202
  761MOL0     C 2643   3.125   2.676  -0.267 -0.0870  0.9753  0.0584
  761MOL0    Cl 2644   3.162   2.769  -0.417  0.1238 -0.1983 -0.0986
  761MOL0     C 2645   3.836   2.268   0.363 -0.1084  0.2690  0.4302
  761MOL0     C 2646   3.878   2.230   0.484 -0.9985 -0.0459  0.5711
  761MOL0     O 2647   3.991   2.357   0.754  0.3773  0.5075  0.3643
  761MOL0     C 2648   4.006   2.031   0.917 -1.2683 -0.3251  0.0587
  761MOL0     C 2649   4.051   1.961   1.024 -0.0842  0.0723 -0.2512
  761MOL0     N 2650   3.856   2.322   1.633  0.1077  0.2709  0.3665
  761MOL0     N 2651   3.741   2.368   1.656  0.0028  0.4453 -0.1114
  761MOL0     C 2652   2.910   1.405   1.428  0.2175  0.0270  0.5700
  761MOL0     C 2653   2.834   1.302   1.366  0.4860  0.3922  0.8293
  761MOL0     C 2654   2.517   1.100   1.072 -0.2851 -0.0333 -0.6161
  761MOL0     C 2655   2.399   1.041   1.119  0.2227  0.2212  0.0346
  761MOL0     C 2656   2.348   0.926   1.053  0.7620  1.2717 -0.7824
  761MOL0     C 2657   2.415   0.853   0.960  0.8776 -0.3368 -0.3735
  761MOL0     O 2658   2.361   0.730   0.931  0.4311 -0.4980 -0.0920
  761MOL0     C 2659   2.422   0.664   0.819 -0.1314 -0.4284  0.0517
  761MOL0     C 2660   2.333   0.565   0.755  0.1291  0.3333 -0.3264
  761MOL0     C 2661   2.260   0.466   0.837 -0.2279  0.7737 -0.1893
  761MOL0     C 2662   2.336   0.372   0.935  0.2019 -0.0511  0.3723
  761MOL0     C 2663   2.453   0.303   0.878  0.5761  0.2476  0.1692
  761MOL0     C 2664   2.539   0.230   0.837 -0.4841  0.2106 -1.1720
  761MOL0     C 2665   2.539   0.908   0.920  0.3410  0.0164 -0.9364
  761MOL0     C 2666   2.582   1.038   0.967 -0.2239  0.1315 -0.0687
  761MOL0     C 2667   2.717   1.085   0.918 -0.6722  0.2571  0.0115
  761MOL0     H 2668   2.693   1.481   1.117  1.6793  2.3074 -0.3659
  761MOL0     H 2669   2.823   1.657   1.228  0.2623  0.3511 -0.8617
  761MOL0     H 2670   3.095   1.566   1.594  1.6539 -1.9568 -0.5648
  761MOL0     H 2671   3.152   1.495   1.442  3.2351 -0.4411  1.6813
  761MOL0     H 2672   3.246   1.710   1.362 -2.2499  1.7361  1.2393
  761MOL0     H 2673   3.335   1.631   1.488 -0.0658 -2.6557 -1.3438
  761MOL0     H 2674   3.274   1.810   1.647  2.2763 -0.7219 -0.4712
  761MOL0     H 2675   3.129   1.856   1.558  0.7851  0.5422 -0.8388
  761MOL0     H 2676   3.428   1.867   1.454  1.3342  0.5809  1.6803
  761MOL0     H 2677   3.286   1.950   1.386 -0.9480  2.4172  1.6598
  761MOL0     H 2678   3.257   2.097   1.573  0.4427  1.7183 -0.5027
  761MOL0     H 2679   3.366   1.991   1.660  1.1090 -2.0674 -1.0417
  761MOL0     H 2680   3.551   2.067   1.504 -0.7474 -0.1569 -0.5309
  761MOL0     H 2681   3.422   2.156   1.411 -2.0502  0.2130  0.1299
  761MOL0     H 2682   3.360   2.302   1.611  0.1970  2.1681  0.7457
  761MOL0     H 2683   3.508   2.327   1.513  0.6378 -1.3280 -0.9206
  761MOL0     H 2684   3.498   2.339   1.787  2.5577 -0.5048  1.8501
  761MOL0     H 2685   3.510   2.156   1.764  1.3050 -0.7886 -0.3716
  761MOL0     H 2686   3.717   2.057   1.760  1.6180 -0.7025  0.1917
  761MOL0     H 2687   4.065   2.157   1.597  0.0326 -0.8188 -0.0425
  761MOL0     H 2688   4.021   2.053   1.727  0.8539  1.5673  0.4089
  761MOL0     H 2689   3.973   1.891   1.588 -0.8644 -0.9489 -0.5238
  761MOL0     H 2690   3.831   1.964   1.556 -0.1241  0.9086  4.5859
  761MOL0     H 2691   3.910   2.073   1.366 -1.5183  0.7143  3.7753
  761MOL0     H 2692   3.926   1.897   1.364 -1.6229  2.0285 -1.5124
  761MOL0     H 2693   4.160   1.923   1.437 -0.5264 -0.2581 -0.0422
  761MOL0     H 2694   4.163   2.093   1.392 -0.0768  0.4737  3.8998
  761MOL0     H 2695   4.170   2.226   1.204 -0.0101 -0.0363  0.5845
  761MOL0     H 2696   4.100   2.348   1.006 -1.6772 -0.0504 -0.0317
  761MOL0     H 2697   3.588   2.214   0.659 -1.0088  2.9500  0.3494
  761MOL0     H 2698   3.506   2.304   0.437  0.0009  2.0671 -0.7870
  761MOL0     H 2699   3.819   2.330   0.094  0.1228 -0.3032 -1.4583
  761MOL0     H 2700   3.725   2.186   0.112  0.1064 -0.1989 -3.0063
  761MOL0     H 2701   3.704   2.296  -0.090  0.5615 -4.1414  2.4769
  761MOL0     H 2702   3.547   2.327  -0.023  0.7587  0.1210 -1.4974
  761MOL0     H 2703   3.640   2.561   0.079 -3.7226 -1.7127 -0.4108
  761MOL0     H 2704   3.770   2.539  -0.032  0.3804 -1.2706 -2.0634
  761MOL0     H 2705   3.590   2.500  -0.208  1.3928 -0.3278  0.3305
  761MOL0     H 2706   3.646   2.665  -0.170  1.0879  1.2454  3.2408
  761MOL0     H 2707   3.450   2.660   0.022 -1.0094  0.4028 -0.9622
  761MOL0     H 2708   3.398   2.515  -0.068  2.2901 -1.1142 -0.6569
  761MOL0     H 2709   3.439   2.774  -0.224  1.5237 -0.7417 -1.1567
  761MOL0     H 2710   3.393   2.625  -0.283 -2.4336  0.2567 -0.1945
  761MOL0     H 2711   3.223   2.834  -0.167 -2.5973 -0.2972 -3.2595
  761MOL0     H 2712   3.198   2.685  -0.069 -1.4016 -1.3504 -1.6176
  761MOL0     H 2713   3.141   2.569  -0.286  0.5262  0.6712  2.0617
  761MOL0     H 2714   3.021   2.693  -0.238 -1.5888 -4.2842 -1.1098
  761MOL0     H 2715   3.915   2.266   0.289 -0.6055 -0.1704 -0.0990
  761MOL0     H 2716   3.980   2.194   0.490 -0.5570  1.4090  3.6228
  761MOL0     H 2717   3.948   1.962   0.856 -4.4395 -0.0324  2.4480
  761MOL0     H 2718   4.052   1.852   1.029  4.5471 -0.1952 -1.8689
  761MOL0     H 2719   2.957   1.378   1.522  2.3743 -1.6421 -0.9031
  761MOL0     H 2720   2.835   1.207   1.418  2.3345 -0.7238 -1.0653
  761MOL0     H 2721   2.336   1.091   1.193 -3.4515 -0.5875 -2.2900
  761MOL0     H 2722   2.245   0.900   1.077 -1.0648  3.1336 -5.3550
  761MOL0     H 2723   2.508   0.612   0.862 -0.3207  0.2979  1.3914
  761MOL0     H 2724   2.457   0.731   0.740  0.8078 -2.8392 -1.6739
  761MOL0     H 2725   2.389   0.507   0.681 -1.7621 -2.2649  0.1422
  761MOL0     H 2726   2.254   0.616   0.700 -0.6197 -1.1932 -0.7184
  761MOL0     H 2727   2.198   0.409   0.766  1.4394  0.1235 -1.1706
  761MOL0     H 2728   2.195   0.517   0.909 -1.9371 -0.1183 -1.0349
  761MOL0     H 2729   2.367   0.424   1.027  0.3287  0.3281  0.1173
  761MOL0     H 2730   2.256   0.301   0.957 -0.2457  0.4308  0.3280
  761MOL0     H 2731   2.616   0.155   0.831 -0.6569 -0.3637  1.9785
  761MOL0     H 2732   2.601   0.845   0.858  3.3321  1.0337  0.8117
  761MOL0     H 2733   2.710   1.107   0.811 -2.2618 -1.3169 -0.2481
  761MOL0     H 2734   2.751   1.179   0.963 -1.1090  0.3719  0.1026
  761MOL0     H 2735   2.788   1.004   0.937 -3.8200 -2.1764  2.2174
  762MOL0     O 2736   8.031   7.850   5.522  0.0982  0.3499  0.1270
  762MOL0     C 2737   8.087   7.857   5.636  0.2471  1.1007 -0.6382
  762MOL0     O 2738   8.165   7.962   5.690 -0.2483 -0.4872 -0.4832
  762MOL0     C 2739   8.206   8.059   5.604 -0.7517 -0.1718 -0.3113
  762MOL0     C 2740   8.119   8.145   5.546 -0.0235  0.0075 -0.1155
  762MOL0     C 2741   8.159   8.238   5.454  1.1348 -0.1309  0.2798
  762MOL0     C 2742   8.287   8.257   5.406  0.6042  1.1126  0.7565
  762MOL0     O 2743   8.312   8.355   5.313  0.6697 -0.4727  1.0611
  762MOL0     C 2744   8.437   8.423   5.326  0.5473 -0.1333 -0.3012
  762MOL0     C 2745   8.409   8.558   5.244 -0.1653  0.5209 -0.6671
  762MOL0     C 2746   8.505   8.560   5.122 -0.6837  0.5207  0.4989
  762MOL0     C 2747   8.463   8.695   5.042  0.5495 -0.0001 -1.2666
  762MOL0     C 2748   8.548   8.715   4.917  0.1515 -0.2419 -0.3108
  762MOL0     C 2749   8.695   8.737   4.936 -0.9444 -0.8911 -0.2507
  762MOL0     C 2750   8.733   8.858   5.029  0.4291 -0.1353 -0.4522
  762MOL0     C 2751   8.674   8.980   4.967  0.2158 -0.0087  0.2447
  762MOL0     N 2752   8.625   9.076   5.057  0.5545  0.2910 -0.1512
  762MOL0     C 2753   8.492   9.112   5.072 -0.7639  1.0937  0.4514
  762MOL0     C 2754   8.511   9.204   5.169  0.6547  0.0026  0.0060
  762MOL0     C 2755   8.399   9.295   5.215  0.4404 -0.0158  0.4566
  762MOL0     C 2756   8.395   9.443   5.166  0.5004  0.1712  0.0081
  762MOL0     C 2757   8.404   9.460   5.015 -0.5099 -0.4625  0.9856
  762MOL0     C 2758   8.461   9.596   4.976 -0.5429 -0.4869  0.2317
  762MOL0     O 2759   8.479   9.592   4.834 -0.4955  0.4962 -1.0526
  762MOL0     C 2760   8.537   9.711   4.785  0.3416  0.4147  0.2384
  762MOL0     C 2761   8.621   9.690   4.673  0.5218  0.2006 -0.8965
  762MOL0     C 2762   8.689   9.793   4.612 -0.1582  0.8648 -0.5153
  762MOL0     C 2763   8.670   9.921   4.655 -0.2621 -0.5882  0.4211
  762MOL0     C 2764   8.760  10.031   4.606 -0.8550  0.4790  0.7149
  762MOL0     O 2765   8.729  10.157   4.637 -0.7240 -0.8133  0.1878
  762MOL0     C 2766   8.795  10.266   4.587 -0.7475 -0.6858 -0.0636
  762MOL0     C 2767   8.934  10.276   4.546 -1.1150 -0.9401 -0.2505
  762MOL0     C 2768   8.982  10.408   4.505 -0.0019  0.6806  0.6550
  762MOL0     C 2769   8.910  10.521   4.524  0.7807  0.3813  0.9380
  762MOL0     O 2770   8.976  10.634   4.498  1.0474 -1.0440 -0.0754
  762MOL0     C 2771   8.951  10.678   4.368 -0.3674  0.2936  0.1574
  762MOL0     C 2772   9.061  10.635   4.263  0.2731  0.4411 -0.1972
  762MOL0     C 2773   9.208  10.647   4.304 -0.8967  0.4141 -0.1539
  762MOL0     C 2774   9.279  10.757   4.205 -0.4016 -0.3013 -0.0844
  762MOL0     C 2775   9.430  10.737   4.211 -0.0901  1.1279 -0.0294
  762MOL0     C 2776   9.513  10.858   4.154 -0.4918 -0.5872 -0.3189
  762MOL0     C 2777   9.664  10.826   4.169 -0.4185  0.2727  0.2050
  762MOL0     C 2778   9.770  10.935   4.143 -0.4493  1.1589  0.1887
  762MOL0    Cl 2779   9.752  11.080   4.258  0.0759 -0.2076 -0.4710
  762MOL0     C 2780   8.774  10.520   4.554 -0.6238 -0.9629 -0.8049
  762MOL0     C 2781   8.723  10.390   4.589  0.5405 -0.1906  0.2502
  762MOL0     O 2782   8.851   9.992   4.526 -0.1800 -0.5278  0.2570
  762MOL0     C 2783   8.583   9.939   4.759 -0.1629  0.5272 -0.9211
  762MOL0     C 2784   8.523   9.837   4.828  0.7015  1.3836  0.2035
  762MOL0     N 2785   8.643   9.210   5.215  0.0773  0.0956  1.0477
  762MOL0     N 2786   8.711   9.127   5.147 -0.5211  0.9160  0.6894
  762MOL0     C 2787   8.374   8.150   5.438  0.0434  0.1121  0.7584
  762MOL0     C 2788   8.333   8.062   5.545  0.2892 -0.4177 -0.7533
  762MOL0     C 2789   8.047   7.743   5.713  0.3967 -0.2346 -0.6543
  762MOL0     C 2790   7.982   7.765   5.835 -0.7989  0.1240 -0.0320
  762MOL0     C 2791   7.962   7.660   5.913  0.1969  0.5817 -0.6570
  762MOL0     C 2792   8.010   7.532   5.894 -0.3832 -0.3150  0.2050
  762MOL0     O 2793   8.014   7.443   6.009 -0.1138 -0.7179 -0.0824
  762MOL0     C 2794   8.101   7.332   6.002  0.2031 -0.0175 -0.3536
  762MOL0     C 2795   8.129   7.273   6.137 -0.2498  0.9792 -0.1729
  762MOL0     C 2796   8.217   7.368   6.224 -0.5834  1.1093 -0.3428
  762MOL0     C 2797   8.331   7.431   6.143  0.4098 -0.8104 -0.5822
  762MOL0     C 2798   8.425   7.504   6.227 -1.1816  0.2208 -0.6630
  762MOL0     C 2799   8.505   7.564   6.295  0.0672  0.4279  1.3767
  762MOL0     C 2800   8.070   7.508   5.769 -0.5960  0.4880 -0.1405
  762MOL0     C 2801   8.087   7.613   5.675 -0.8508 -0.9932 -0.3108
  762MOL0     C 2802   8.185   7.591   5.549  0.6419  0.1506 -0.2969
  762MOL0     H 2803   8.015   8.157   5.574 -0.4167  1.8401 -2.0688
  762MOL0     H 2804   8.087   8.307   5.410 -0.3129 -1.7169  0.0839
  762MOL0     H 2805   8.466   8.437   5.431 -2.7074 -1.8687  0.9734
  762MOL0     H 2806   8.507   8.351   5.282 -0.5419 -1.8184  0.6299
  762MOL0     H 2807   8.407   8.643   5.312  1.9729 -0.7312  1.0984
  762MOL0     H 2808   8.309   8.561   5.200 -0.8638  1.0992  0.8791
  762MOL0     H 2809   8.499   8.475   5.054  1.8752  0.1744  0.6271
  762MOL0     H 2810   8.607   8.570   5.159  0.1743 -2.1228 -0.9614
  762MOL0     H 2811   8.359   8.697   5.007 -0.6128  2.0121  1.8560
  762MOL0     H 2812   8.467   8.776   5.116  1.4165 -0.8542 -0.3443
  762MOL0     H 2813   8.532   8.625   4.856 -1.3433  0.5010 -1.0804
  762MOL0     H 2814   8.497   8.794   4.861 -1.4798  0.0347  1.4637
  762MOL0     H 2815   8.729   8.639   4.970  4.9448  0.3327 -1.5166
  762MOL0     H 2816   8.748   8.742   4.841  1.6705 -0.7221  1.1317
  762MOL0     H 2817   8.839   8.886   5.032 -0.0611  2.1320 -1.6871
  762MOL0     H 2818   8.697   8.843   5.131 -0.5183 -2.0516 -1.0160
  762MOL0     H 2819   8.747   9.045   4.918  1.5024 -2.5938 -1.4176
  762MOL0     H 2820   8.592   8.968   4.896  2.5890  0.9465 -2.8355
  762MOL0     H 2821   8.406   9.070   5.020 -0.0885  0.2935 -0.0319
  762MOL0     H 2822   8.314   9.241   5.171  0.6701 -1.0413  1.2340
  762MOL0     H 2823   8.372   9.286   5.320 -4.7206  1.6682 -0.4364
  762MOL0     H 2824   8.307   9.492   5.209 -0.5966 -2.1762  0.6156
  762MOL0     H 2825   8.478   9.494   5.215 -0.8217  0.0669  2.5181
  762MOL0     H 2826   8.307   9.443   4.969 -1.2869  2.7265  1.1870
  762MOL0     H 2827   8.465   9.374   4.988 -3.6220 -1.8977 -2.2971
  762MOL0     H 2828   8.564   9.599   5.014  0.7155 -4.6585 -2.2193
  762MOL0     H 2829   8.400   9.678   5.014  1.3782  1.2454 -0.2124
  762MOL0     H 2830   8.628   9.587   4.640 -0.9360 -0.5596  0.9475
  762MOL0     H 2831   8.752   9.776   4.525  0.8545 -1.9639  0.6590
  762MOL0     H 2832   9.007  10.195   4.540  2.8142  1.7499  4.1239
  762MOL0     H 2833   9.086  10.409   4.473 -0.5393 -1.7278 -1.4863
  762MOL0     H 2834   8.848  10.658   4.336 -0.1279  1.6398 -1.5604
  762MOL0     H 2835   8.951  10.787   4.372 -0.2413  0.2561  1.4651
  762MOL0     H 2836   9.038  10.531   4.242  0.8130  0.2543  0.1105
  762MOL0     H 2837   9.029  10.681   4.169 -3.5982 -1.2560  0.0991
  762MOL0     H 2838   9.215  10.680   4.408  0.7121  2.8649 -0.9343
  762MOL0     H 2839   9.247  10.545   4.293  0.5103  0.7620  1.3379
  762MOL0     H 2840   9.245  10.851   4.250  2.5937  0.0509  1.7361
  762MOL0     H 2841   9.237  10.754   4.104 -1.4549  1.7842  0.2352
  762MOL0     H 2842   9.457  10.640   4.169  1.8509  0.7713  1.8627
  762MOL0     H 2843   9.464  10.751   4.315  0.8882  3.6655 -0.6133
  762MOL0     H 2844   9.498  10.856   4.045  0.2425 -1.5475 -0.4138
  762MOL0     H 2845   9.496  10.960   4.189 -0.0792 -0.1520 -1.3350
  762MOL0     H 2846   9.681  10.731   4.117  3.2725 -0.8355  3.0188
  762MOL0     H 2847   9.677  10.796   4.273 -1.1480 -1.5335 -0.1714
  762MOL0     H 2848   9.869  10.890   4.156 -0.4061  1.0109 -0.5800
  762MOL0     H 2849   9.766  10.968   4.038  0.6428  1.8202  0.3369
  762MOL0     H 2850   8.715  10.609   4.570  0.3393 -0.2920 -0.8597
  762MOL0     H 2851   8.617  10.396   4.612  1.0781  1.1709  2.7051
  762MOL0     H 2852   8.580  10.036   4.807  2.1207  1.0271 -1.6437
  762MOL0     H 2853   8.469   9.855   4.920 -1.1061 -3.4190  0.3770
  762MOL0     H 2854   8.474   8.135   5.401  0.5270  3.6029  0.4205
  762MOL0     H 2855   8.401   7.985   5.578 -0.2173 -0.8183 -0.6382
  762MOL0     H 2856   7.967   7.871   5.856 -0.4539  0.1565  0.0548
  762MOL0     H 2857   7.906   7.688   6.002  2.7580  2.6248  0.4878
  762MOL0     H 2858   8.191   7.353   5.943  0.2881  1.7331  0.3149
  762MOL0     H 2859   8.044   7.256   5.948 -0.5773  2.1567 -2.8399
  762MOL0     H 2860   8.193   7.186   6.125 -0.0623  1.0831  0.0688
  762MOL0     H 2861   8.038   7.235   6.185  1.3299  0.5356  2.7384
  762MOL0     H 2862   8.261   7.302   6.299 -0.0312  1.0565 -0.7066
  762MOL0     H 2863   8.147   7.440   6.268 -1.2957  1.0713 -1.3801
  762MOL0     H 2864   8.391   7.359   6.085  2.1775  0.8646 -0.9392
  762MOL0     H 2865   8.296   7.502   6.068 -0.5846  0.7550  1.2739
  762MOL0     H 2866   8.579   7.604   6.362  4.3902 -0.5958 -2.2904
  762MOL0     H 2867   8.117   7.412   5.750  0.6601  1.1219 -0.3185
  762MOL0     H 2868   8.134   7.599   5.453  1.7861  4.4087 -0.7205
  762MOL0     H 2869   8.252   7.677   5.557  0.3260  0.2472  2.5382
  762MOL0     H 2870   8.239   7.496   5.562  0.6533  0.2792  0.7260
  763MOL0     O 2871   3.583   1.564   9.129 -0.2826  0.3471 -0.5617
  763MOL0     C 2872   3.669   1.636   9.076 -0.8744 -0.3699 -0.2105
  763MOL0     O 2873   3.760   1.718   9.138 -0.2906  0.4455  0.0106
  763MOL0     C 2874   3.759   1.748   9.273 -0.9890  0.0963  0.0487
  763MOL0     C 2875   3.809   1.658   9.365 -0.6034  0.1007 -0.4667
  763MOL0     C 2876   3.796   1.681   9.504  0.6097  0.7968  0.4119
  763MOL0     C 2877   3.732   1.796   9.555  0.0276  1.0555 -0.2752
  763MOL0     O 2878   3.691   1.825   9.681  0.3043  0.0410  0.0684
  763MOL0     C 2879   3.726   1.727   9.786 -0.9287  0.1293 -0.0378
  763MOL0     C 2880   3.879   1.753   9.823  0.5761  0.1567 -0.5555
  763MOL0     C 2881   3.900   1.885   9.896 -0.5348  0.0157  0.2414
  763MOL0     C 2882   4.047   1.924   9.913  0.1115 -0.7417  0.4732
  763MOL0     C 2883   4.076   2.017  10.023  0.9705  0.2084  0.9375
  763MOL0     C 2884   4.216   2.018  10.077 -0.2490  1.4057  0.5664
  763MOL0     C 2885   4.224   2.124  10.179 -0.4470 -0.2017  0.1900
  763MOL0     C 2886   4.248   2.261  10.106  0.3638 -1.3419 -1.1243
  763MOL0     N 2887   4.263   2.354  10.216  0.6723  0.4792  0.0944
  763MOL0     C 2888   4.375   2.431  10.237 -0.4088  0.1880 -0.6934
  763MOL0     C 2889   4.355   2.492  10.355 -0.6585 -0.5002  0.2637
  763MOL0     C 2890   4.453   2.583  10.425  0.0137  0.5425 -0.4200
  763MOL0     C 2891   4.444   2.743  10.377  0.0721  1.5083  0.7847
  763MOL0     C 2892   4.321   2.810  10.445 -0.0011 -0.3547  0.0138
  763MOL0     C 2893   4.317   2.958  10.405 -0.2114 -0.4117  0.4374
  763MOL0     O 2894   4.305   2.967  10.257 -0.7025 -0.0207 -0.2636
  763MOL0     C 2895   4.191   3.037  10.220 -0.0335  0.5487 -0.2925
  763MOL0     C 2896   4.064   2.988  10.241 -0.3251  0.5298 -0.2961
  763MOL0     C 2897   3.945   3.054  10.200 -0.3227  0.4153 -0.8178
  763MOL0     C 2898   3.972   3.156  10.103  0.8236  0.5115  1.1699
  763MOL0     C 2899   3.850   3.217  10.038 -1.0537 -0.1372  1.3229
  763MOL0     O 2900   3.733   3.151  10.037 -0.2365 -0.7361 -0.7137
  763MOL0     C 2901   3.613   3.203   9.999  0.0100  0.4555  0.7945
  763MOL0     C 2902   3.501   3.158  10.061 -0.9448  1.3733 -0.5265
  763MOL0     C 2903   3.371   3.206  10.058  0.8314 -0.7690  0.0952
  763MOL0     C 2904   3.352   3.318   9.970  0.3194  0.2235 -0.2827
  763MOL0     O 2905   3.231   3.381   9.938 -0.3269 -0.1332  0.1082
  763MOL0     C 2906   3.147   3.426  10.041 -0.0347 -0.3191  1.0312
  763MOL0     C 2907   3.006   3.385  10.004 -0.6353 -0.1584  0.7438
  763MOL0     C 2908   2.964   3.408   9.855  0.3388 -0.1117  0.1713
  763MOL0     C 2909   2.815   3.373   9.834 -0.4674  0.0643 -1.5905
  763MOL0     C 2910   2.761   3.437   9.706  0.4259 -0.0687 -0.2514
  763MOL0     C 2911   2.804   3.375   9.576  0.5975 -0.0792 -0.1850
  763MOL0     C 2912   2.724   3.245   9.544  0.0913 -1.0625 -0.5578
  763MOL0     C 2913   2.803   3.170   9.435 -0.6758  0.5721 -0.0399
  763MOL0    Cl 2914   2.955   3.088   9.462  0.0916 -0.0984 -0.2964
  763MOL0     C 2915   3.465   3.348   9.890 -0.1201 -0.4919  0.4495
  763MOL0     C 2916   3.592   3.291   9.896 -0.3031  0.4182 -0.8696
  763MOL0     O 2917   3.875   3.319   9.980  0.5912 -0.1592  0.0428
  763MOL0     C 2918   4.102   3.198  10.076  0.7621  0.1900  0.1159
  763MOL0     C 2919   4.213   3.150  10.137 -0.8739  0.6679 -0.3029
  763MOL0     N 2920   4.236   2.447  10.406 -0.5312 -0.4022 -0.2897
  763MOL0     N 2921   4.168   2.367  10.317 -0.7455 -1.0953 -0.3290
  763MOL0     C 2922   3.700   1.894   9.456 -0.6402 -0.8798  0.1320
  763MOL0     C 2923   3.717   1.875   9.319 -0.3759  0.3670  0.1523
  763MOL0     C 2924   3.655   1.660   8.937 -0.3222  0.5848  0.0727
  763MOL0     C 2925   3.770   1.670   8.867 -0.6390 -0.6995 -0.1964
  763MOL0     C 2926   3.776   1.702   8.735 -0.5747  0.2014  0.3669
  763MOL0     C 2927   3.652   1.727   8.666 -0.7743  0.1472 -0.6846
  763MOL0     O 2928   3.650   1.767   8.534 -0.7758 -0.0355 -0.3303
  763MOL0     C 2929   3.612   1.904   8.528 -0.3622 -0.2692  0.2208
  763MOL0     C 2930   3.474   1.928   8.494 -0.6461 -0.2518  0.7749
  763MOL0     C 2931   3.464   2.043   8.403 -0.5796 -0.8839 -0.4226
  763MOL0     C 2932   3.316   2.081   8.350 -0.3557  0.4482  0.4387
  763MOL0     C 2933   3.226   2.086   8.459  1.2083  0.0251  0.2628
  763MOL0     C 2934   3.156   2.109   8.559 -0.3873 -0.3102  1.0428
  763MOL0     C 2935   3.537   1.720   8.735  0.1233 -1.1660 -0.1660
  763MOL0     C 2936   3.533   1.704   8.872 -0.0634  1.0778 -1.1226
  763MOL0     C 2937   3.397   1.702   8.948  0.0066 -0.1315 -0.2178
  763MOL0     H 2938   3.846   1.561   9.334 -4.3986 -1.5664 -0.3293
  763MOL0     H 2939   3.831   1.598   9.564  0.7012  1.3758  1.1743
  763MOL0     H 2940   3.667   1.752   9.874 -0.4462  3.3109 -0.4827
  763MOL0     H 2941   3.727   1.620   9.763  0.7693 -0.3680  2.0827
  763MOL0     H 2942   3.930   1.720   9.732  1.6210 -0.5928  0.2774
  763MOL0     H 2943   3.893   1.670   9.893  0.7841 -0.4945 -1.3525
  763MOL0     H 2944   3.854   1.898   9.994 -0.7280  2.6442 -0.1374
  763MOL0     H 2945   3.852   1.962   9.835 -1.9193  0.1944  1.5014
  763MOL0     H 2946   4.112   1.836   9.918  2.7061  0.9534 -0.9739
  763MOL0     H 2947   4.078   1.974   9.821 -1.5946  3.2585  1.8442
  763MOL0     H 2948   4.037   2.114   9.992 -2.6831 -1.4519 -0.2783
  763MOL0     H 2949   4.010   1.983  10.103 -1.8205  0.9695 -0.8802
  763MOL0     H 2950   4.231   1.922  10.127  2.5874  2.4046  1.8197
  763MOL0     H 2951   4.292   2.030  10.000 -0.7388 -0.1405 -0.1933
  763MOL0     H 2952   4.307   2.088  10.240 -0.5180 -2.6019 -1.0091
  763MOL0     H 2953   4.146   2.117  10.256  1.1323 -1.8041  1.7312
  763MOL0     H 2954   4.341   2.254  10.049  1.0658 -0.5004 -0.1118
  763MOL0     H 2955   4.165   2.285  10.039  2.2194  1.1248 -2.7279
  763MOL0     H 2956   4.463   2.436  10.173 -0.2788 -2.5707 -0.8537
  763MOL0     H 2957   4.452   2.569  10.534 -1.9521 -0.1084 -0.4787
  763MOL0     H 2958   4.551   2.549  10.390 -0.5219  0.1824 -1.6140
  763MOL0     H 2959   4.533   2.797  10.412  0.1297  0.6138  2.1181
  763MOL0     H 2960   4.431   2.738  10.269  1.3606  0.8724  0.6382
  763MOL0     H 2961   4.325   2.809  10.554  0.0602 -2.1960  0.0202
  763MOL0     H 2962   4.221   2.768  10.428 -0.7325  1.5446 -0.6791
  763MOL0     H 2963   4.399   3.025  10.436 -1.3183  0.9829  0.4835
  763MOL0     H 2964   4.231   3.002  10.457 -1.0372 -1.4263 -0.0344
  763MOL0     H 2965   4.053   2.911  10.318 -0.9274  1.1508  0.2501
  763MOL0     H 2966   3.851   3.009  10.229 -0.0391  1.2618  1.6519
  763MOL0     H 2967   3.515   3.075  10.130 -1.3163  0.7307 -1.2170
  763MOL0     H 2968   3.291   3.168  10.121  1.3800 -1.0039  0.6597
  763MOL0     H 2969   3.162   3.382  10.140 -0.6687 -1.3351  0.6921
  763MOL0     H 2970   3.159   3.533  10.060 -2.3369  0.1747  0.1253
  763MOL0     H 2971   2.992   3.277  10.015  0.3507 -0.3570  0.2275
  763MOL0     H 2972   2.936   3.444  10.063 -3.2799 -1.4685 -0.8790
  763MOL0     H 2973   2.978   3.514   9.834 -0.7009 -0.0878 -0.4654
  763MOL0     H 2974   3.017   3.352   9.777 -3.0921 -0.5635 -2.0459
  763MOL0     H 2975   2.749   3.388   9.919  1.8416  1.3505  0.1070
  763MOL0     H 2976   2.815   3.266   9.810 -1.7281 -0.9554  2.3122
  763MOL0     H 2977   2.797   3.541   9.704 -2.9286  1.2437 -2.8440
  763MOL0     H 2978   2.652   3.444   9.705  0.2996 -1.7152  0.1062
  763MOL0     H 2979   2.775   3.447   9.499  0.0191 -1.3839 -1.2327
  763MOL0     H 2980   2.913   3.367   9.571  0.6353 -0.5305  1.1150
  763MOL0     H 2981   2.620   3.259   9.511 -0.3185 -1.3208  0.5983
  763MOL0     H 2982   2.726   3.180   9.631  0.6264 -2.3912 -1.5210
  763MOL0     H 2983   2.743   3.082   9.410 -0.6680  0.3632  0.6407
  763MOL0     H 2984   2.811   3.235   9.347 -1.4983 -0.5232 -0.9561
  763MOL0     H 2985   3.463   3.428   9.816  0.1995 -2.3932 -1.7101
  763MOL0     H 2986   3.679   3.330   9.844 -0.5340 -1.4957 -2.8117
  763MOL0     H 2987   4.116   3.268   9.994  0.1999 -1.4228 -1.4185
  763MOL0     H 2988   4.317   3.178  10.121 -0.1494 -1.8778 -0.6343
  763MOL0     H 2989   3.647   1.982   9.492 -1.6509 -1.4006 -0.0571
  763MOL0     H 2990   3.664   1.944   9.254  3.5279  1.5027 -2.0934
  763MOL0     H 2991   3.863   1.652   8.919 -0.7250  0.9429  0.5976
  763MOL0     H 2992   3.875   1.698   8.691 -1.0857 -0.9159 -0.7457
  763MOL0     H 2993   3.677   1.965   8.464  1.5712  1.2249  3.3612
  763MOL0     H 2994   3.644   1.966   8.612 -0.8584  0.2471  0.0375
  763MOL0     H 2995   3.427   1.962   8.586  0.5411 -0.7773  1.6042
  763MOL0     H 2996   3.434   1.836   8.450 -0.0029 -1.0862  1.8726
  763MOL0     H 2997   3.525   2.019   8.315  1.5335 -1.9850  1.2302
  763MOL0     H 2998   3.505   2.133   8.449 -2.4216 -0.0420 -0.3407
  763MOL0     H 2999   3.315   2.169   8.286  0.1437 -0.5935 -1.0666
  763MOL0     H 3000   3.291   1.989   8.296  0.0722  0.6634 -0.1323
  763MOL0     H 3001   3.093   2.137   8.641  0.4067  0.1391  1.5038
  763MOL0     H 3002   3.448   1.715   8.673  0.0758 -4.5077 -0.0064
  763MOL0     H 3003   3.404   1.756   9.043 -1.0913  0.5542 -0.5137
  763MOL0     H 3004   3.321   1.748   8.884  1.3305  3.9217  0.7943
  763MOL0     H 3005   3.366   1.603   8.980 -2.1156  0.4358 -0.3665
  764MOL0     O 3006   7.891   7.162   2.451 -0.2143 -0.0355  0.3482
  764MOL0     C 3007   7.867   7.282   2.453 -0.4109  0.3402 -0.1203
  764MOL0     O 3008   7.781   7.347   2.362 -0.3405 -0.6031 -0.5058
  764MOL0     C 3009   7.722   7.272   2.269 -1.1361 -0.1360  0.9870
  764MOL0     C 3010   7.761   7.296   2.140  0.1504  0.7394 -0.6741
  764MOL0     C 3011   7.686   7.251   2.026  0.0317 -0.0765 -0.5388
  764MOL0     C 3012   7.570   7.168   2.056  0.4096 -0.0365  0.2824
  764MOL0     O 3013   7.477   7.129   1.968  0.1638  0.0659 -0.2604
  764MOL0     C 3014   7.516   7.112   1.834 -1.0388 -0.1298  0.9516
  764MOL0     C 3015   7.396   7.081   1.745  0.1801  1.4102 -0.0735
  764MOL0     C 3016   7.273   7.172   1.753  0.0275  0.6053 -0.0744
  764MOL0     C 3017   7.306   7.312   1.699 -0.2311  0.2256  0.2466
  764MOL0     C 3018   7.176   7.386   1.644 -1.1458  0.3688  0.4993
  764MOL0     C 3019   7.208   7.486   1.537 -0.9128  0.6005  0.3317
  764MOL0     C 3020   7.301   7.601   1.563 -0.1484 -0.3815  0.2566
  764MOL0     C 3021   7.296   7.713   1.457 -0.7842  0.5916  0.7953
  764MOL0     N 3022   7.328   7.668   1.317 -0.6392 -0.3461  0.2811
  764MOL0     C 3023   7.409   7.566   1.287  1.4246 -0.4459 -0.1151
  764MOL0     C 3024   7.379   7.533   1.157 -0.4967 -0.1361 -0.6597
  764MOL0     C 3025   7.424   7.400   1.089 -0.3168  0.3367  0.7365
  764MOL0     C 3026   7.373   7.283   1.164  0.8100 -1.2952  0.2379
  764MOL0     C 3027   7.228   7.248   1.154  0.3582  0.2344 -0.4252
  764MOL0     C 3028   7.179   7.109   1.195 -0.4720 -0.0568 -0.9929
  764MOL0     O 3029   7.041   7.094   1.178  0.4952  0.3266  0.2190
  764MOL0     C 3030   6.963   7.002   1.246 -0.0606  0.4600 -0.3072
  764MOL0     C 3031   6.827   7.001   1.225 -0.3298  0.6050 -0.0834
  764MOL0     C 3032   6.745   6.918   1.290  0.4777 -0.0717 -0.1003
  764MOL0     C 3033   6.795   6.813   1.369  0.0901  0.2875 -1.4402
  764MOL0     C 3034   6.701   6.726   1.445 -0.3643 -0.4532 -0.8226
  764MOL0     O 3035   6.746   6.652   1.551  0.0492 -0.6142 -0.3881
  764MOL0     C 3036   6.671   6.560   1.616 -0.1900 -0.0215  0.0707
  764MOL0     C 3037   6.636   6.429   1.562  0.7243  0.2199 -0.0167
  764MOL0     C 3038   6.564   6.339   1.635  0.4952  1.2449 -0.7792
  764MOL0     C 3039   6.511   6.367   1.763 -0.3524  0.7531 -0.3768
  764MOL0     O 3040   6.440   6.283   1.845 -0.0230 -0.2334 -0.5251
  764MOL0     C 3041   6.369   6.175   1.785  1.1770  0.9880  0.2018
  764MOL0     C 3042   6.272   6.108   1.889 -0.5560 -0.3199 -0.4593
  764MOL0     C 3043   6.184   6.211   1.959  0.0634  0.5380 -0.6250
  764MOL0     C 3044   6.086   6.138   2.053  0.4425  0.2470 -0.2803
  764MOL0     C 3045   6.005   6.233   2.130 -0.4988  0.3371 -0.4716
  764MOL0     C 3046   5.887   6.287   2.061 -0.0009 -0.7671 -0.2394
  764MOL0     C 3047   5.765   6.203   2.032 -1.2867 -0.4928 -0.3297
  764MOL0     C 3048   5.671   6.288   1.946 -0.0347  0.5597 -0.8568
  764MOL0    Cl 3049   5.741   6.270   1.787 -0.8580  0.2763 -0.5664
  764MOL0     C 3050   6.546   6.485   1.815 -0.2831 -1.1799  0.2909
  764MOL0     C 3051   6.622   6.584   1.745 -0.9866 -0.0762  0.6579
  764MOL0     O 3052   6.582   6.725   1.407  0.0274  0.4177  0.2674
  764MOL0     C 3053   6.929   6.803   1.381 -0.2751  0.4398 -0.0860
  764MOL0     C 3054   7.013   6.896   1.325  0.2192 -0.1286 -0.6641
  764MOL0     N 3055   7.299   7.638   1.104  0.2026  0.1427 -0.2426
  764MOL0     N 3056   7.274   7.716   1.204  0.6005 -0.1869  0.1387
  764MOL0     C 3057   7.536   7.145   2.186 -0.1171 -0.0197 -0.3397
  764MOL0     C 3058   7.618   7.190   2.296  0.3615  0.5688 -0.0729
  764MOL0     C 3059   7.948   7.362   2.550  0.4828 -0.2079 -0.6504
  764MOL0     C 3060   7.912   7.498   2.560  0.1158  0.4356  0.9413
  764MOL0     C 3061   7.983   7.583   2.637 -0.3839  0.1636 -0.3498
  764MOL0     C 3062   8.088   7.551   2.718 -0.9383  1.2063  0.6967
  764MOL0     O 3063   8.136   7.656   2.786  0.0490 -0.0770 -0.0512
  764MOL0     C 3064   8.133   7.637   2.935  0.0655 -0.5387 -0.9990
  764MOL0     C 3065   7.996   7.677   3.006 -0.2595  0.0345  0.2789
  764MOL0     C 3066   7.956   7.599   3.132  0.0869  0.6785 -0.4525
  764MOL0     C 3067   7.985   7.687   3.251  1.1227 -0.1175  0.2765
  764MOL0     C 3068   8.114   7.742   3.267  0.1417 -0.9678  0.1092
  764MOL0     C 3069   8.232   7.776   3.249 -0.0293  0.2423  0.3289
  764MOL0     C 3070   8.113   7.417   2.718 -1.1494 -0.6023 -0.1232
  764MOL0     C 3071   8.051   7.319   2.638  0.5423  0.6889  0.5506
  764MOL0     C 3072   8.096   7.176   2.665 -0.9122  0.5677 -0.7981
  764MOL0     H 3073   7.848   7.357   2.117  0.9760 -0.3241 -0.4345
  764MOL0     H 3074   7.719   7.277   1.926  1.8754  3.1230  0.7501
  764MOL0     H 3075   7.570   7.200   1.796 -3.5066 -0.3429 -3.9375
  764MOL0     H 3076   7.576   7.021   1.828 -0.6105  0.2313 -1.8657
  764MOL0     H 3077   7.376   6.974   1.759  0.1158  1.4219 -0.0742
  764MOL0     H 3078   7.423   7.088   1.639  1.0718  0.0680  0.0335
  764MOL0     H 3079   7.234   7.174   1.855 -1.6448 -3.4318 -0.4530
  764MOL0     H 3080   7.193   7.138   1.687  0.9781 -0.7317 -0.5746
  764MOL0     H 3081   7.346   7.373   1.781 -4.0673  0.5553  2.1038
  764MOL0     H 3082   7.381   7.317   1.619  0.5836 -2.0662  0.7942
  764MOL0     H 3083   7.105   7.314   1.601 -1.2675  1.3746 -1.0556
  764MOL0     H 3084   7.120   7.451   1.712 -1.5678  1.9967 -1.3131
  764MOL0     H 3085   7.235   7.437   1.443 -0.7784 -0.0890  0.7216
  764MOL0     H 3086   7.112   7.528   1.504 -0.0122  1.3832 -1.3950
  764MOL0     H 3087   7.399   7.560   1.589  0.4799  1.7769  1.5888
  764MOL0     H 3088   7.274   7.638   1.663  2.7694  0.0209  1.0056
  764MOL0     H 3089   7.192   7.747   1.461 -1.3685 -1.0216  0.2688
  764MOL0     H 3090   7.366   7.790   1.489 -1.5365  0.9323  1.6682
  764MOL0     H 3091   7.482   7.517   1.352 -0.0591  0.4705  2.4013
  764MOL0     H 3092   7.381   7.401   0.988 -1.4864  1.1610  1.2162
  764MOL0     H 3093   7.532   7.391   1.082  0.2693  2.6781  4.4659
  764MOL0     H 3094   7.439   7.212   1.113 -1.2268 -1.8774 -1.7176
  764MOL0     H 3095   7.391   7.298   1.271 -1.4710  0.8896  0.4043
  764MOL0     H 3096   7.208   7.243   1.047 -2.0450  0.7085 -0.0496
  764MOL0     H 3097   7.172   7.324   1.210  1.7523  0.5830  0.5721
  764MOL0     H 3098   7.186   7.099   1.304 -0.4356  2.3483 -0.7348
  764MOL0     H 3099   7.228   7.025   1.145 -1.2659 -0.2562 -1.4374
  764MOL0     H 3100   6.783   7.076   1.160  0.3868 -0.8521 -2.3614
  764MOL0     H 3101   6.642   6.951   1.282  0.5459  0.2190  0.1984
  764MOL0     H 3102   6.676   6.391   1.468  0.8990 -1.3332  0.6564
  764MOL0     H 3103   6.544   6.242   1.590  0.1346  0.3995  1.1317
  764MOL0     H 3104   6.303   6.193   1.699 -1.2146 -1.9024  1.2427
  764MOL0     H 3105   6.442   6.100   1.752 -0.6469 -0.6087 -0.4193
  764MOL0     H 3106   6.202   6.048   1.830 -1.4550  0.5626 -0.3098
  764MOL0     H 3107   6.332   6.042   1.952 -1.9265 -0.9979  0.1822
  764MOL0     H 3108   6.253   6.275   2.014  0.5443 -0.8314  0.4165
  764MOL0     H 3109   6.122   6.271   1.892 -1.6501 -1.2583 -0.7634
  764MOL0     H 3110   6.139   6.081   2.130  0.9730  1.2440  0.1122
  764MOL0     H 3111   6.016   6.068   2.007 -0.5406 -0.4619  2.1150
  764MOL0     H 3112   6.061   6.319   2.168  2.1114 -0.5605 -2.0185
  764MOL0     H 3113   5.972   6.185   2.223 -0.4534 -1.0551 -1.1583
  764MOL0     H 3114   5.872   6.381   2.115  3.3314  0.0829 -0.6052
  764MOL0     H 3115   5.920   6.316   1.961  0.3749 -2.6467 -0.7114
  764MOL0     H 3116   5.715   6.182   2.127 -1.0672  0.4841  0.0221
  764MOL0     H 3117   5.789   6.106   1.989  0.0829 -0.3322  0.0039
  764MOL0     H 3118   5.573   6.239   1.942 -0.8373  2.1496 -1.4980
  764MOL0     H 3119   5.657   6.394   1.971 -0.3415  0.4101 -0.3841
  764MOL0     H 3120   6.520   6.505   1.919 -1.9971 -0.7491 -0.1935
  764MOL0     H 3121   6.662   6.671   1.797  1.0669 -0.1935 -0.5831
  764MOL0     H 3122   6.962   6.729   1.454 -3.1072 -0.3063  0.5694
  764MOL0     H 3123   7.119   6.880   1.339 -0.3475 -2.0477  2.7430
  764MOL0     H 3124   7.445   7.090   2.202  0.7253 -1.4179 -0.2164
  764MOL0     H 3125   7.604   7.160   2.399 -2.6838 -1.6154 -0.9825
  764MOL0     H 3126   7.824   7.530   2.504  1.2958  0.2825 -1.0859
  764MOL0     H 3127   7.968   7.690   2.628 -4.1958 -0.2616 -0.4425
  764MOL0     H 3128   8.211   7.698   2.981  0.3625 -0.8377 -1.1041
  764MOL0     H 3129   8.156   7.532   2.952 -0.7622 -0.8922 -1.9450
  764MOL0     H 3130   7.917   7.670   2.930  0.5434 -1.7072 -0.4437
  764MOL0     H 3131   8.019   7.782   3.030 -0.7271  0.0325  0.7682
  764MOL0     H 3132   8.011   7.505   3.144 -1.5118 -0.5990 -2.3396
  764MOL0     H 3133   7.851   7.568   3.126  0.3109 -0.4192  0.7972
  764MOL0     H 3134   7.911   7.767   3.259  2.1103  0.6572  2.5405
  764MOL0     H 3135   7.969   7.627   3.341 -1.0719 -1.6914 -1.0460
  764MOL0     H 3136   8.336   7.803   3.244 -0.5711  2.7235  1.0010
  764MOL0     H 3137   8.191   7.380   2.784 -2.0066 -1.2139  0.5793
  764MOL0     H 3138   8.018   7.104   2.691 -2.1001  0.2746 -4.4973
  764MOL0     H 3139   8.147   7.142   2.574  2.9736 -2.6447  2.2019
  764MOL0     H 3140   8.165   7.183   2.750  0.4089 -1.3857 -1.6288
  765MOL0     O 3141  11.051   8.972   5.588  0.6752  0.4631  0.0676
  765MOL0     C 3142  11.035   8.855   5.616 -1.3143 -0.1656  1.2435
  765MOL0     O 3143  11.099   8.747   5.561 -0.0476  0.4672  0.0655
  765MOL0     C 3144  11.198   8.762   5.464 -0.7719 -0.1332  0.0014
  765MOL0     C 3145  11.310   8.679   5.475 -0.1244  0.7524 -0.7964
  765MOL0     C 3146  11.415   8.680   5.381  0.6733 -0.5989 -0.1014
  765MOL0     C 3147  11.410   8.764   5.268  0.0479  0.6278 -0.0787
  765MOL0     O 3148  11.500   8.761   5.163 -0.2831 -0.4727  0.4608
  765MOL0     C 3149  11.566   8.637   5.133  1.2183 -0.5123 -0.0458
  765MOL0     C 3150  11.653   8.657   5.003 -0.3183 -0.9484  0.4241
  765MOL0     C 3151  11.584   8.652   4.866 -0.3677  0.3174 -0.1147
  765MOL0     C 3152  11.441   8.695   4.864 -0.2438 -0.8483 -0.4873
  765MOL0     C 3153  11.376   8.723   4.729  0.1184 -0.2653 -1.0008
  765MOL0     C 3154  11.330   8.589   4.660  0.2868 -0.5045 -0.4306
  765MOL0     C 3155  11.294   8.629   4.513 -0.2040  0.3146 -0.3703
  765MOL0     C 3156  11.193   8.754   4.480  0.0448  0.7414 -0.8865
  765MOL0     N 3157  11.118   8.708   4.362  0.1360 -0.3587  0.4745
  765MOL0     C 3158  11.164   8.683   4.235  0.5495  0.5634 -0.0838
  765MOL0     C 3159  11.056   8.658   4.168  0.6413  0.6019 -0.5618
  765MOL0     C 3160  11.048   8.663   4.017  0.2886  0.5161  0.6288
  765MOL0     C 3161  11.156   8.576   3.951  0.2056  0.2477 -0.0632
  765MOL0     C 3162  11.141   8.547   3.799 -0.1163  0.0087  0.7513
  765MOL0     C 3163  11.134   8.388   3.779  0.1191  0.9826 -0.2045
  765MOL0     O 3164  11.248   8.315   3.823 -0.2211  0.5908 -0.0105
  765MOL0     C 3165  11.263   8.178   3.791  0.3800  0.0910 -0.9220
  765MOL0     C 3166  11.161   8.095   3.739 -0.8367  0.2649 -0.8799
  765MOL0     C 3167  11.179   7.965   3.704  0.4327 -0.3092  0.4738
  765MOL0     C 3168  11.294   7.902   3.746  0.2415 -0.1004 -0.8955
  765MOL0     C 3169  11.325   7.765   3.716 -0.8112 -1.0150  0.3783
  765MOL0     O 3170  11.452   7.727   3.729  1.0958  1.0542  0.5997
  765MOL0     C 3171  11.478   7.588   3.720 -0.3293 -1.2215  0.2587
  765MOL0     C 3172  11.417   7.491   3.797 -0.6329 -0.6288 -0.4613
  765MOL0     C 3173  11.451   7.358   3.790 -0.4337  0.4394 -0.4787
  765MOL0     C 3174  11.523   7.306   3.683  0.1364 -0.2788  0.1056
  765MOL0     O 3175  11.525   7.175   3.652  0.2969  0.2630 -0.3315
  765MOL0     C 3176  11.521   7.082   3.763  0.3134 -0.5085  1.1579
  765MOL0     C 3177  11.566   6.962   3.701 -0.2478 -0.3187  0.5699
  765MOL0     C 3178  11.454   6.903   3.610  0.3366  0.0127 -0.2501
  765MOL0     C 3179  11.351   6.809   3.675 -0.6191 -1.3992  0.0423
  765MOL0     C 3180  11.295   6.699   3.592 -0.5784  0.9849  0.6127
  765MOL0     C 3181  11.178   6.625   3.656  0.3584  0.3248 -0.1918
  765MOL0     C 3182  11.042   6.704   3.639 -0.2416 -0.4726  0.9549
  765MOL0     C 3183  10.955   6.682   3.515 -0.8360  0.0578 -0.4707
  765MOL0    Cl 3184  10.839   6.810   3.524  0.6572 -0.2069 -0.2231
  765MOL0     C 3185  11.567   7.404   3.588 -0.0902 -0.8115  0.2427
  765MOL0     C 3186  11.545   7.542   3.612 -0.0905 -0.1113 -0.2756
  765MOL0     O 3187  11.237   7.705   3.648 -0.6470 -0.6641 -0.3626
  765MOL0     C 3188  11.397   7.985   3.782 -0.1365 -0.2440 -0.6147
  765MOL0     C 3189  11.382   8.118   3.815 -0.4064 -0.6525  0.3278
  765MOL0     N 3190  10.946   8.653   4.250 -0.6068  0.2466 -0.8084
  765MOL0     N 3191  10.983   8.694   4.367 -0.2897 -0.2744 -0.1793
  765MOL0     C 3192  11.299   8.853   5.264  1.2988 -0.4751 -0.1116
  765MOL0     C 3193  11.201   8.851   5.359 -0.2425 -0.2766  0.6851
  765MOL0     C 3194  10.926   8.807   5.707 -1.8828 -0.0400 -0.1405
  765MOL0     C 3195  10.918   8.666   5.739 -0.3167 -0.0425 -0.4628
  765MOL0     C 3196  10.828   8.623   5.836 -0.3480 -0.0758  0.7615
  765MOL0     C 3197  10.733   8.706   5.888  0.5436  0.0622 -0.1805
  765MOL0     O 3198  10.643   8.661   5.978  0.2959 -0.1961  0.5942
  765MOL0     C 3199  10.546   8.569   5.934  0.7154 -0.5369 -0.1957
  765MOL0     C 3200  10.433   8.650   5.863 -0.0375 -0.0218  0.6263
  765MOL0     C 3201  10.329   8.737   5.950 -0.3609  0.1424  0.1722
  765MOL0     C 3202  10.247   8.829   5.859  0.6798  0.9995  0.0932
  765MOL0     C 3203  10.169   8.932   5.930  0.5068 -0.0769 -0.1216
  765MOL0     C 3204  10.101   9.017   5.992 -0.0695  0.8582  0.3603
  765MOL0     C 3205  10.736   8.838   5.864  0.6553  1.3543 -0.0366
  765MOL0     C 3206  10.828   8.896   5.775  0.3885 -0.6181  0.4827
  765MOL0     C 3207  10.839   9.052   5.776 -0.9080  0.2588 -0.1734
  765MOL0     H 3208  11.312   8.617   5.564  1.7473  0.3371 -1.0921
  765MOL0     H 3209  11.498   8.613   5.402  0.7794 -0.0252  1.4662
  765MOL0     H 3210  11.640   8.613   5.210  0.5150  1.1853  1.1989
  765MOL0     H 3211  11.489   8.562   5.112 -2.0980  2.9507 -1.2571
  765MOL0     H 3212  11.720   8.571   4.993 -0.4577 -0.9069 -1.1870
  765MOL0     H 3213  11.712   8.746   5.023 -2.1728 -0.0547  2.3782
  765MOL0     H 3214  11.603   8.548   4.837  1.1550  0.5582 -0.1005
  765MOL0     H 3215  11.638   8.717   4.797  0.2933  0.0964  0.1770
  765MOL0     H 3216  11.376   8.633   4.927 -0.6314  0.4350  0.4136
  765MOL0     H 3217  11.446   8.793   4.912 -1.0400 -1.5706  1.1519
  765MOL0     H 3218  11.296   8.797   4.729 -1.1974 -1.4950  2.1812
  765MOL0     H 3219  11.455   8.765   4.666 -0.6582  0.1076 -1.7458
  765MOL0     H 3220  11.409   8.515   4.674 -0.2145 -0.5493  3.0331
  765MOL0     H 3221  11.242   8.553   4.715  0.0863  0.1121 -0.3368
  765MOL0     H 3222  11.246   8.551   4.453  1.6793 -1.7581  0.6902
  765MOL0     H 3223  11.385   8.652   4.457 -0.3709  0.2989 -0.6494
  765MOL0     H 3224  11.136   8.792   4.566  1.6293  1.9421 -0.3199
  765MOL0     H 3225  11.257   8.842   4.473  1.1082  0.4350  2.7878
  765MOL0     H 3226  11.263   8.678   4.190  0.2071 -0.0029 -0.7964
  765MOL0     H 3227  10.950   8.622   3.988  0.8758 -0.8614  0.5350
  765MOL0     H 3228  11.054   8.765   3.979 -0.9240  0.6803  0.8203
  765MOL0     H 3229  11.256   8.613   3.975  0.2614 -1.3201  2.5142
  765MOL0     H 3230  11.154   8.477   3.996  0.7184 -1.0413 -2.6450
  765MOL0     H 3231  11.224   8.580   3.735  0.7231 -1.8426  0.8359
  765MOL0     H 3232  11.050   8.598   3.766 -0.0242 -0.3689 -0.0973
  765MOL0     H 3233  11.110   8.359   3.676  1.7403 -2.1554  0.2041
  765MOL0     H 3234  11.049   8.346   3.834 -0.9396  0.6068 -2.0180
  765MOL0     H 3235  11.068   8.151   3.729 -0.9603  0.2817  0.2871
  765MOL0     H 3236  11.108   7.917   3.637  1.3107  1.2742 -1.6996
  765MOL0     H 3237  11.351   7.522   3.878 -0.3764  0.2533 -0.5775
  765MOL0     H 3238  11.402   7.292   3.861 -0.8473 -3.8760 -4.2813
  765MOL0     H 3239  11.566   7.124   3.853 -1.4122  3.1482  0.4822
  765MOL0     H 3240  11.417   7.073   3.797 -0.2144 -2.0962 -0.6511
  765MOL0     H 3241  11.653   6.982   3.638  0.1944 -1.4695  0.7941
  765MOL0     H 3242  11.601   6.893   3.778 -2.4165  0.4781  2.3885
  765MOL0     H 3243  11.417   6.985   3.548  2.8373  0.6362 -1.0734
  765MOL0     H 3244  11.506   6.849   3.531 -0.5782 -1.6410  0.2283
  765MOL0     H 3245  11.268   6.868   3.714  1.3484  1.3044  0.4228
  765MOL0     H 3246  11.403   6.762   3.759  0.2535  1.6910  1.3972
  765MOL0     H 3247  11.379   6.633   3.570  0.2147  1.7688  1.2033
  765MOL0     H 3248  11.265   6.741   3.495 -0.1651  2.4688  1.0964
  765MOL0     H 3249  11.179   6.524   3.614  1.8159 -0.0863  0.7699
  765MOL0     H 3250  11.188   6.614   3.764  0.8699  1.7115 -0.0760
  765MOL0     H 3251  11.068   6.810   3.641 -2.4140  0.1729 -0.9344
  765MOL0     H 3252  10.986   6.677   3.729  1.3866  0.8944  2.4588
  765MOL0     H 3253  11.005   6.705   3.421  1.3928 -2.2611  0.0378
  765MOL0     H 3254  10.923   6.577   3.510  0.4949 -0.5023  1.5207
  765MOL0     H 3255  11.618   7.367   3.500  1.2882  3.2453 -0.8765
  765MOL0     H 3256  11.588   7.607   3.537 -1.2093  1.2079  0.1812
  765MOL0     H 3257  11.489   7.932   3.806 -0.6466 -1.3439 -1.0343
  765MOL0     H 3258  11.469   8.170   3.854 -0.4006  1.3995 -2.2320
  765MOL0     H 3259  11.295   8.923   5.182  1.1684 -1.5810 -1.0718
  765MOL0     H 3260  11.136   8.937   5.345  0.5618  0.1543 -0.6434
  765MOL0     H 3261  10.991   8.596   5.700 -0.8028 -3.5166  4.0688
  765MOL0     H 3262  10.821   8.517   5.860  3.8010 -1.2803 -2.1794
  765MOL0     H 3263  10.508   8.513   6.020  4.4110  1.6820  3.2230
  765MOL0     H 3264  10.585   8.496   5.863 -1.8561 -1.7139 -0.5294
  765MOL0     H 3265  10.373   8.574   5.812 -0.5773 -0.6208  2.0986
  765MOL0     H 3266  10.488   8.718   5.797  0.3564  0.8852  1.8607
  765MOL0     H 3267  10.374   8.802   6.025 -0.6037 -0.0156  0.4567
  765MOL0     H 3268  10.269   8.664   6.005  1.6598 -1.3335  0.5269
  765MOL0     H 3269  10.314   8.878   5.787 -1.4655  0.9724 -2.0671
  765MOL0     H 3270  10.186   8.759   5.801 -1.8734  2.9065  0.3024
  765MOL0     H 3271  10.048   9.093   6.046 -0.9466  3.4069 -3.6367
  765MOL0     H 3272  10.661   8.899   5.914 -0.1121  0.1027  0.3794
  765MOL0     H 3273  10.812   9.086   5.676  1.7440  1.4841 -0.5650
  765MOL0     H 3274  10.769   9.094   5.849 -0.1506  4.1235 -1.4331
  765MOL0     H 3275  10.945   9.067   5.801 -0.2283 -3.2891 -0.4321
  766MOL0     O 3276   7.485   3.446   5.404  0.1732  0.2027  0.0095
  766MOL0     C 3277   7.399   3.368   5.443  0.4250 -0.0775 -0.1997
  766MOL0     O 3278   7.362   3.362   5.582 -0.2173  0.3688 -0.2746
  766MOL0     C 3279   7.435   3.421   5.682  0.3492 -0.6989  0.0321
  766MOL0     C 3280   7.574   3.434   5.683 -0.2138 -0.2290 -0.0861
  766MOL0     C 3281   7.633   3.511   5.790 -0.4856  1.1243  0.5354
  766MOL0     C 3282   7.558   3.568   5.887  0.1585  0.0212  0.8903
  766MOL0     O 3283   7.613   3.663   5.970 -0.0987 -0.0686  0.4166
  766MOL0     C 3284   7.529   3.706   6.070 -0.1965 -0.4623 -0.2936
  766MOL0     C 3285   7.607   3.799   6.166 -0.1981 -0.2771 -0.1155
  766MOL0     C 3286   7.527   3.868   6.278 -0.3622  0.0268 -0.7465
  766MOL0     C 3287   7.577   4.018   6.301  0.2709  0.0275 -0.0632
  766MOL0     C 3288   7.486   4.097   6.390 -0.4078 -0.2831 -0.9031
  766MOL0     C 3289   7.528   4.248   6.394 -1.1310 -0.7984 -0.6164
  766MOL0     C 3290   7.442   4.315   6.509 -0.7669  0.7194  0.4032
  766MOL0     C 3291   7.477   4.464   6.530  0.1080  0.3403 -0.7001
  766MOL0     N 3292   7.430   4.548   6.422 -0.7064  0.0115 -0.3819
  766MOL0     C 3293   7.500   4.578   6.309 -0.6864  0.7260 -0.3661
  766MOL0     C 3294   7.417   4.641   6.217  0.9789 -0.8959  0.1643
  766MOL0     C 3295   7.464   4.713   6.092 -0.5312 -0.5106 -0.1893
  766MOL0     C 3296   7.355   4.803   6.029 -0.8621  0.0237  0.6353
  766MOL0     C 3297   7.236   4.726   5.975  0.1591  0.6407  1.1368
  766MOL0     C 3298   7.222   4.737   5.824  1.1702 -1.1850 -0.6780
  766MOL0     O 3299   7.085   4.700   5.786  0.3046  0.2880 -0.3581
  766MOL0     C 3300   7.052   4.573   5.752  0.0485  0.3814  0.8332
  766MOL0     C 3301   7.113   4.525   5.632 -0.3899  0.7754 -0.0729
  766MOL0     C 3302   7.072   4.400   5.588 -0.0086  0.1616  0.9799
  766MOL0     C 3303   6.974   4.321   5.651  1.1231 -0.6394  0.0573
  766MOL0     C 3304   6.924   4.200   5.582 -0.2085 -0.6727  0.1848
  766MOL0     O 3305   6.817   4.140   5.647  0.2133  0.5001  0.6584
  766MOL0     C 3306   6.761   4.025   5.600  0.8540 -0.3361  0.2383
  766MOL0     C 3307   6.622   4.004   5.628 -0.0181  0.2681 -0.0898
  766MOL0     C 3308   6.553   3.885   5.592 -0.0633 -0.3968  0.3159
  766MOL0     C 3309   6.618   3.785   5.526 -1.2763 -0.1817  0.2972
  766MOL0     O 3310   6.558   3.674   5.474 -0.2169  0.9932 -0.1000
  766MOL0     C 3311   6.461   3.593   5.540  0.5231  0.0637  0.2016
  766MOL0     C 3312   6.314   3.640   5.542  0.7232  0.1776  0.2028
  766MOL0     C 3313   6.268   3.695   5.395  0.0343  0.9229  1.0800
  766MOL0     C 3314   6.234   3.837   5.405  0.2574 -0.1759 -0.7922
  766MOL0     C 3315   6.221   3.912   5.272 -0.2791 -0.5085 -0.0343
  766MOL0     C 3316   6.356   3.973   5.228 -0.1065  0.1741  0.2669
  766MOL0     C 3317   6.352   4.023   5.083  0.0389 -0.1326  0.3299
  766MOL0     C 3318   6.278   4.156   5.037 -1.1093  0.4700 -0.6730
  766MOL0    Cl 3319   6.351   4.307   5.103  0.1298 -0.1740 -0.0256
  766MOL0     C 3320   6.749   3.805   5.475  0.5101 -0.4172  0.4906
  766MOL0     C 3321   6.820   3.922   5.517  0.0312 -0.1023  0.1116
  766MOL0     O 3322   6.971   4.165   5.477 -0.3527 -0.0371 -0.7187
  766MOL0     C 3323   6.910   4.376   5.774 -0.0526 -0.2763  0.8550
  766MOL0     C 3324   6.954   4.503   5.825 -0.0393 -0.2623 -0.1730
  766MOL0     N 3325   7.296   4.648   6.274  0.2637  0.4219  0.2946
  766MOL0     N 3326   7.306   4.597   6.396  0.4551 -0.3972 -1.3203
  766MOL0     C 3327   7.417   3.537   5.888 -0.5635 -0.3013 -0.1948
  766MOL0     C 3328   7.365   3.464   5.793 -0.2159 -0.6111 -0.8522
  766MOL0     C 3329   7.315   3.296   5.332  0.4857 -0.0617 -0.6652
  766MOL0     C 3330   7.171   3.307   5.339 -0.5626  0.1962  0.0482
  766MOL0     C 3331   7.097   3.278   5.233  0.2451  0.5507  0.5968
  766MOL0     C 3332   7.154   3.207   5.128  0.6639  0.2173  0.3776
  766MOL0     O 3333   7.095   3.181   5.002 -0.2019  0.7174 -0.2968
  766MOL0     C 3334   6.970   3.238   4.971  0.5596  0.8343 -0.1901
  766MOL0     C 3335   6.921   3.220   4.829  0.4873  1.5637  0.5255
  766MOL0     C 3336   6.995   3.297   4.716  0.4408  0.9735 -0.1865
  766MOL0     C 3337   6.980   3.234   4.575  0.3036 -0.2157 -0.7408
  766MOL0     C 3338   6.847   3.187   4.526 -0.9068 -1.2203  0.4778
  766MOL0     C 3339   6.726   3.171   4.514  0.0015  0.4159  0.1600
  766MOL0     C 3340   7.291   3.168   5.136  0.0778 -0.8221  0.9345
  766MOL0     C 3341   7.377   3.214   5.232  0.3512  0.3366 -0.3526
  766MOL0     C 3342   7.522   3.184   5.228  0.9761 -0.6096  1.1791
  766MOL0     H 3343   7.643   3.406   5.604  1.1303  2.8964 -0.1986
  766MOL0     H 3344   7.740   3.518   5.807 -0.6027  1.5411  1.1066
  766MOL0     H 3345   7.446   3.763   6.027  0.0073 -0.0696 -0.1630
  766MOL0     H 3346   7.479   3.624   6.123 -0.1032 -0.8189 -0.7483
  766MOL0     H 3347   7.652   3.881   6.109 -1.6267  0.5120 -0.1389
  766MOL0     H 3348   7.685   3.742   6.218  0.3188 -1.2197 -1.8322
  766MOL0     H 3349   7.546   3.815   6.372  0.6967 -3.8615 -2.9331
  766MOL0     H 3350   7.421   3.862   6.252 -0.9494  0.6494  1.3169
  766MOL0     H 3351   7.674   4.003   6.350  0.2608  2.6390  0.8857
  766MOL0     H 3352   7.591   4.073   6.208  1.6518 -2.4795 -1.4575
  766MOL0     H 3353   7.385   4.091   6.347 -1.3332  1.3544  0.8608
  766MOL0     H 3354   7.491   4.060   6.493  0.8383  1.7397 -0.1844
  766MOL0     H 3355   7.634   4.245   6.421 -2.0110  0.7701  3.8952
  766MOL0     H 3356   7.518   4.289   6.293  0.3267  2.1167  0.3171
  766MOL0     H 3357   7.470   4.254   6.596 -0.0772 -0.8459 -0.8827
  766MOL0     H 3358   7.335   4.297   6.500 -0.9950  2.0428  0.1731
  766MOL0     H 3359   7.451   4.506   6.627  1.4641  3.4411 -1.5367
  766MOL0     H 3360   7.585   4.480   6.542  0.0999 -0.8067  1.4193
  766MOL0     H 3361   7.606   4.563   6.292 -0.3892  2.0048  0.2517
  766MOL0     H 3362   7.545   4.775   6.131  0.7707 -1.0523 -1.9174
  766MOL0     H 3363   7.510   4.650   6.015  1.1705  1.0089 -0.4710
  766MOL0     H 3364   7.330   4.872   6.110 -1.1634  2.2477 -1.2306
  766MOL0     H 3365   7.405   4.862   5.951 -0.7669 -1.2238 -0.2835
  766MOL0     H 3366   7.146   4.754   6.030  1.9782  0.8811  4.2471
  766MOL0     H 3367   7.250   4.622   6.006  3.8648  1.2143  1.8446
  766MOL0     H 3368   7.287   4.672   5.765 -0.6111 -0.5800 -3.4623
  766MOL0     H 3369   7.234   4.842   5.793  4.3927 -1.9142 -2.3407
  766MOL0     H 3370   7.183   4.588   5.576 -1.2333  0.3339 -1.6722
  766MOL0     H 3371   7.122   4.363   5.500  1.0836  1.1764  1.1475
  766MOL0     H 3372   6.567   4.076   5.688 -0.8858  1.6837 -2.4386
  766MOL0     H 3373   6.447   3.887   5.615 -0.7012 -2.4043 -2.0469
  766MOL0     H 3374   6.467   3.496   5.490 -1.5649  1.1618 -2.4013
  766MOL0     H 3375   6.505   3.574   5.638  0.8472 -0.1601  0.0144
  766MOL0     H 3376   6.264   3.550   5.577  0.3333  0.3359  0.0598
  766MOL0     H 3377   6.297   3.724   5.610 -0.4791 -1.6818  2.3017
  766MOL0     H 3378   6.356   3.680   5.332 -0.5775 -2.4239  0.8096
  766MOL0     H 3379   6.188   3.633   5.353  1.7616 -0.6433 -0.0748
  766MOL0     H 3380   6.309   3.885   5.469 -1.8148  0.2032  1.5096
  766MOL0     H 3381   6.142   3.856   5.462  1.4840 -2.0818  2.0902
  766MOL0     H 3382   6.153   3.996   5.289 -1.3984 -1.3474 -0.2402
  766MOL0     H 3383   6.178   3.849   5.194 -2.4067 -0.7993  1.3051
  766MOL0     H 3384   6.392   4.057   5.289  1.4870  1.5503 -2.3928
  766MOL0     H 3385   6.434   3.898   5.243  0.8638  1.4868  2.2192
  766MOL0     H 3386   6.299   3.944   5.029  2.9191  0.6843 -4.2012
  766MOL0     H 3387   6.456   4.034   5.052 -1.0239 -0.7541 -4.0722
  766MOL0     H 3388   6.285   4.163   4.928 -0.8715 -0.0843 -0.6962
  766MOL0     H 3389   6.173   4.158   5.069 -0.4538 -0.7799  1.7806
  766MOL0     H 3390   6.790   3.745   5.394 -0.2707 -3.6184  2.3208
  766MOL0     H 3391   6.922   3.930   5.479  0.3644 -0.9955  0.7744
  766MOL0     H 3392   6.823   4.338   5.826  0.5749 -0.1151  2.0507
  766MOL0     H 3393   6.911   4.537   5.919 -0.3729 -0.0254 -0.4059
  766MOL0     H 3394   7.350   3.556   5.971  0.2223  1.0746  0.1546
  766MOL0     H 3395   7.260   3.440   5.784 -0.4397 -0.9914  2.0660
  766MOL0     H 3396   7.125   3.359   5.422 -0.0939 -0.8198  0.9713
  766MOL0     H 3397   6.991   3.301   5.226  0.5609  1.5538 -1.8288
  766MOL0     H 3398   6.974   3.344   4.994 -1.3048  0.1152  4.6375
  766MOL0     H 3399   6.905   3.183   5.040  0.3017 -1.1339 -1.8868
  766MOL0     H 3400   6.816   3.251   4.836 -0.7280 -2.3329  1.7843
  766MOL0     H 3401   6.932   3.113   4.813  1.5106  1.8121 -0.5820
  766MOL0     H 3402   7.096   3.277   4.754 -0.5099 -0.9017  1.5527
  766MOL0     H 3403   6.972   3.402   4.733  4.9400  2.3227 -1.2059
  766MOL0     H 3404   7.032   3.309   4.514  0.2384  0.4065 -0.0418
  766MOL0     H 3405   7.029   3.136   4.576 -3.1590 -2.0980 -0.4315
  766MOL0     H 3406   6.621   3.174   4.491 -0.5506  2.4345  2.5215
  766MOL0     H 3407   7.316   3.105   5.051 -2.6728 -0.1983 -0.4637
  766MOL0     H 3408   7.574   3.193   5.323  2.3486  0.9154  0.3373
  766MOL0     H 3409   7.534   3.077   5.207  2.3612 -0.6455  2.0518
  766MOL0     H 3410   7.574   3.250   5.158 -0.4646  0.0170  0.6562
  767MOL0     O 3411   4.720   3.066   9.275  0.0905 -0.2234  0.1280
  767MOL0     C 3412   4.714   3.140   9.374 -0.3648 -0.7678 -0.1255
  767MOL0     O 3413   4.818   3.225   9.413  0.0064  0.3259 -0.0029
  767MOL0     C 3414   4.938   3.234   9.342  1.3749  0.0908  0.0167
  767MOL0     C 3415   5.050   3.188   9.407  1.1304 -0.2317  1.1629
  767MOL0     C 3416   5.170   3.221   9.344 -0.1567  0.8559  0.8223
  767MOL0     C 3417   5.179   3.266   9.217  0.1595 -0.3474 -0.1133
  767MOL0     O 3418   5.307   3.297   9.171 -0.0419  0.3883 -0.2308
  767MOL0     C 3419   5.330   3.252   9.032 -0.8658 -0.5661  0.0618
  767MOL0     C 3420   5.408   3.371   8.969 -0.2273 -0.9355  0.3062
  767MOL0     C 3421   5.350   3.516   8.969 -0.2212  1.0373 -0.3861
  767MOL0     C 3422   5.419   3.610   8.859 -0.1155 -0.0026 -1.0245
  767MOL0     C 3423   5.337   3.733   8.811 -0.8469  0.3608 -0.0109
  767MOL0     C 3424   5.339   3.853   8.901 -0.1189  1.0666 -0.1173
  767MOL0     C 3425   5.249   3.973   8.857 -0.4576  0.5034  0.0586
  767MOL0     C 3426   5.114   3.935   8.801 -0.5447 -0.2393  0.4734
  767MOL0     N 3427   5.039   4.050   8.762 -0.7934  0.0934  0.2456
  767MOL0     C 3428   4.950   4.045   8.655 -0.0848  0.0013 -0.1497
  767MOL0     C 3429   4.873   4.162   8.668  0.4376  1.1607 -0.4389
  767MOL0     C 3430   4.762   4.211   8.580  0.0630 -1.9870 -0.7188
  767MOL0     C 3431   4.629   4.145   8.610 -0.0579 -0.1959 -0.0463
  767MOL0     C 3432   4.515   4.213   8.550 -0.8439 -0.7468  0.4931
  767MOL0     C 3433   4.398   4.121   8.505 -0.3338 -1.1652 -0.6399
  767MOL0     O 3434   4.291   4.198   8.449  0.3439  0.5057 -0.5837
  767MOL0     C 3435   4.219   4.140   8.351  1.2521  0.2934 -0.2306
  767MOL0     C 3436   4.263   4.051   8.250  0.5225 -0.7579  0.3182
  767MOL0     C 3437   4.171   3.983   8.163 -1.2492  0.4074  0.5769
  767MOL0     C 3438   4.035   3.994   8.184 -0.7297  0.4543 -0.0733
  767MOL0     C 3439   3.931   3.907   8.108 -0.6095 -0.2265 -0.9007
  767MOL0     O 3440   3.972   3.842   7.995  1.2150 -0.3497 -0.0739
  767MOL0     C 3441   3.878   3.796   7.914 -0.2790 -0.6655  0.1574
  767MOL0     C 3442   3.843   3.660   7.898 -0.0135  0.6648  0.2075
  767MOL0     C 3443   3.743   3.613   7.818  0.9276  0.1589 -0.2811
  767MOL0     C 3444   3.664   3.698   7.755  0.0955  0.1309 -0.7400
  767MOL0     O 3445   3.559   3.654   7.691  0.2301  0.2818  1.0793
  767MOL0     C 3446   3.451   3.736   7.648 -0.9517 -0.6768  0.4392
  767MOL0     C 3447   3.358   3.645   7.564 -0.4844 -0.6857 -0.2407
  767MOL0     C 3448   3.215   3.683   7.594  0.0029  0.1863  0.2534
  767MOL0     C 3449   3.177   3.837   7.564 -0.7188  0.1137  1.0372
  767MOL0     C 3450   3.029   3.838   7.597 -0.1203 -0.1522 -0.2226
  767MOL0     C 3451   3.011   3.894   7.738 -0.5700 -0.3679 -1.5758
  767MOL0     C 3452   2.867   3.925   7.769 -0.6436 -0.1882  1.0050
  767MOL0     C 3453   2.786   3.796   7.792  0.4528 -0.8567  0.0168
  767MOL0    Cl 3454   2.811   3.746   7.965  0.5142  0.3305  0.1807
  767MOL0     C 3455   3.702   3.838   7.753  1.3241  1.0288  0.3809
  767MOL0     C 3456   3.805   3.875   7.836  1.0880 -1.0351  0.4992
  767MOL0     O 3457   3.822   3.931   8.154  0.1781  0.3856 -0.0720
  767MOL0     C 3458   3.995   4.102   8.273 -0.0015  0.3949  0.2156
  767MOL0     C 3459   4.080   4.169   8.358 -0.4043  0.1498 -0.4429
  767MOL0     N 3460   4.909   4.216   8.790  0.0592  0.2103 -0.5936
  767MOL0     N 3461   5.017   4.157   8.838  0.6547  0.1353  0.5521
  767MOL0     C 3462   5.066   3.327   9.162 -0.6031 -0.7777  0.7033
  767MOL0     C 3463   4.942   3.312   9.226 -1.0270  0.5391  0.5792
  767MOL0     C 3464   4.582   3.124   9.468 -0.3641 -0.0341  0.2031
  767MOL0     C 3465   4.591   3.188   9.593  0.6383 -0.4210 -0.0066
  767MOL0     C 3466   4.474   3.186   9.670 -0.0807  0.0368 -0.5310
  767MOL0     C 3467   4.354   3.124   9.638  0.6847  0.4787  0.1087
  767MOL0     O 3468   4.246   3.144   9.719  0.7620  0.2834 -0.4416
  767MOL0     C 3469   4.124   3.073   9.695 -0.1817  0.1347  0.2459
  767MOL0     C 3470   4.038   3.158   9.596 -0.9020  0.3710  0.1450
  767MOL0     C 3471   3.992   3.288   9.670 -0.5696  0.2491 -0.9224
  767MOL0     C 3472   3.848   3.316   9.660  0.0461 -0.2686  0.6330
  767MOL0     C 3473   3.817   3.347   9.517  1.4115 -0.4145 -0.2993
  767MOL0     C 3474   3.806   3.368   9.398 -0.1734 -0.6971  0.2058
  767MOL0     C 3475   4.346   3.062   9.511  0.3680  0.0265  0.0678
  767MOL0     C 3476   4.454   3.066   9.426  0.2195 -0.7800  0.8760
  767MOL0     C 3477   4.429   2.989   9.291 -0.6592 -0.1879 -0.4919
  767MOL0     H 3478   5.035   3.129   9.497  2.6961 -0.5556  1.2448
  767MOL0     H 3479   5.263   3.205   9.398  0.7826  2.5896 -0.1903
  767MOL0     H 3480   5.400   3.167   9.033 -0.4865 -0.2743  1.5500
  767MOL0     H 3481   5.246   3.221   8.970  0.5248 -1.7371 -1.3251
  767MOL0     H 3482   5.418   3.344   8.864 -1.3387  3.6717 -1.1717
  767MOL0     H 3483   5.507   3.369   9.016  0.6921 -1.2302 -1.5604
  767MOL0     H 3484   5.374   3.558   9.067 -2.4675  3.2983 -0.7015
  767MOL0     H 3485   5.242   3.501   8.956  0.1895 -3.2047 -0.1589
  767MOL0     H 3486   5.515   3.641   8.901 -1.4393  2.4540  0.4069
  767MOL0     H 3487   5.425   3.544   8.772  1.2454 -0.7903 -0.3792
  767MOL0     H 3488   5.383   3.752   8.713  0.1762 -0.2608  0.3329
  767MOL0     H 3489   5.235   3.697   8.797 -1.1272  0.2578  1.9456
  767MOL0     H 3490   5.318   3.825   9.004  0.2247  0.0762 -0.2986
  767MOL0     H 3491   5.432   3.910   8.909 -0.6363  1.7197  1.7829
  767MOL0     H 3492   5.308   4.036   8.790 -0.9855  0.5280 -0.3975
  767MOL0     H 3493   5.231   4.039   8.942  0.0197 -3.0888  3.2214
  767MOL0     H 3494   5.120   3.868   8.715 -1.2362  0.0298  0.2046
  767MOL0     H 3495   5.060   3.869   8.869  0.3877 -2.4340 -0.8442
  767MOL0     H 3496   4.944   3.956   8.594 -3.0441  0.6948 -1.0595
  767MOL0     H 3497   4.758   4.320   8.578  1.8642 -1.8689  0.3635
  767MOL0     H 3498   4.786   4.191   8.475 -0.7154 -3.7448 -0.6128
  767MOL0     H 3499   4.622   4.041   8.578  2.8130 -1.3048  2.4192
  767MOL0     H 3500   4.611   4.138   8.718  1.3309 -3.5527  0.0878
  767MOL0     H 3501   4.541   4.253   8.452  2.0690 -0.0115  1.4750
  767MOL0     H 3502   4.487   4.302   8.608  0.3261  1.4352 -2.0841
  767MOL0     H 3503   4.363   4.069   8.594  0.3632  0.5519  0.7050
  767MOL0     H 3504   4.431   4.040   8.439  2.8576  0.7021 -1.5595
  767MOL0     H 3505   4.368   4.042   8.226  0.6055 -4.8161  1.5207
  767MOL0     H 3506   4.220   3.926   8.085  0.3568 -0.0038  1.8418
  767MOL0     H 3507   3.901   3.574   7.933 -1.6064 -1.1927 -1.4701
  767MOL0     H 3508   3.708   3.511   7.814  0.7269  0.1841  0.6127
  767MOL0     H 3509   3.413   3.779   7.742 -0.4192  2.5644 -0.6841
  767MOL0     H 3510   3.492   3.817   7.587  1.4182 -0.2052  2.5038
  767MOL0     H 3511   3.379   3.669   7.460  1.0504 -0.8802  0.0033
  767MOL0     H 3512   3.371   3.538   7.578 -0.6586 -1.0276 -2.3865
  767MOL0     H 3513   3.145   3.617   7.543  0.9045 -1.2648  0.8183
  767MOL0     H 3514   3.202   3.663   7.701 -0.8528 -4.1666 -0.4834
  767MOL0     H 3515   3.206   3.851   7.459 -0.9394  0.3845  1.0102
  767MOL0     H 3516   3.241   3.900   7.626  1.5904 -0.1212 -0.9412
  767MOL0     H 3517   2.989   3.736   7.587  0.5383 -0.2094 -2.9918
  767MOL0     H 3518   2.969   3.899   7.530 -1.2213  2.5096  2.9080
  767MOL0     H 3519   3.047   3.832   7.820 -0.0527  2.0474  0.1314
  767MOL0     H 3520   3.074   3.983   7.738  0.8808 -1.3300  0.3376
  767MOL0     H 3521   2.815   3.983   7.692  4.1790  0.2512 -2.3548
  767MOL0     H 3522   2.869   3.997   7.851 -1.4614  1.2537 -0.1748
  767MOL0     H 3523   2.679   3.814   7.776  0.7176  0.1367 -0.8239
  767MOL0     H 3524   2.822   3.718   7.724  1.4873  0.6630 -1.2491
  767MOL0     H 3525   3.664   3.906   7.678 -0.7714 -0.3741  0.0756
  767MOL0     H 3526   3.837   3.979   7.838  0.7737 -0.9327  0.3210
  767MOL0     H 3527   3.889   4.114   8.290 -0.7616 -4.4601  0.2082
  767MOL0     H 3528   4.054   4.243   8.432 -1.3250 -2.1396  1.6897
  767MOL0     H 3529   5.084   3.368   9.064 -0.3549 -2.2462  0.1051
  767MOL0     H 3530   4.854   3.355   9.179 -2.1296 -0.7009  1.4216
  767MOL0     H 3531   4.675   3.247   9.629  0.8470 -0.6781 -0.0701
  767MOL0     H 3532   4.479   3.230   9.769 -0.6474 -1.0280 -0.0164
  767MOL0     H 3533   4.084   3.058   9.796  3.6157 -1.7884  1.6472
  767MOL0     H 3534   4.144   2.971   9.662 -0.1931  0.0035  0.6373
  767MOL0     H 3535   3.948   3.100   9.576 -1.2929  1.6885 -2.3172
  767MOL0     H 3536   4.102   3.179   9.509 -0.6987 -1.7453 -0.2849
  767MOL0     H 3537   4.046   3.376   9.635 -1.1955  1.5181  1.1144
  767MOL0     H 3538   4.016   3.276   9.776 -4.0821 -4.9974 -0.3472
  767MOL0     H 3539   3.781   3.231   9.679 -0.6068 -0.7401 -3.0027
  767MOL0     H 3540   3.838   3.403   9.725  1.9252  1.6866 -1.5170
  767MOL0     H 3541   3.809   3.385   9.292 -0.2300 -0.9786  0.1576
  767MOL0     H 3542   4.261   3.000   9.488  0.5712 -0.5061  0.7248
  767MOL0     H 3543   4.457   2.885   9.309  0.3792  0.0151 -0.8389
  767MOL0     H 3544   4.323   2.994   9.264 -1.0792 -0.8728  0.9388
  767MOL0     H 3545   4.494   3.026   9.211  0.9424  0.9716  1.2615
  768MOL0     O 3546  11.003   6.735   4.472  0.1280 -0.4116 -0.0134
  768MOL0     C 3547  11.057   6.834   4.515 -0.2201 -0.9276 -0.8551
  768MOL0     O 3548  11.183   6.841   4.568 -0.0954 -0.4486  0.2427
  768MOL0     C 3549  11.261   6.739   4.581 -1.0221 -0.0207 -0.1499
  768MOL0     C 3550  11.398   6.750   4.562 -0.1172  0.3416  0.0411
  768MOL0     C 3551  11.477   6.636   4.572 -0.0814 -1.2436 -0.7722
  768MOL0     C 3552  11.429   6.514   4.627  0.0460  0.2899  0.8363
  768MOL0     O 3553  11.507   6.395   4.647  0.4303  0.0706  0.1705
  768MOL0     C 3554  11.636   6.381   4.590  0.8680 -0.1656  0.1333
  768MOL0     C 3555  11.696   6.251   4.651 -0.6855  0.2640  0.1688
  768MOL0     C 3556  11.760   6.280   4.788  0.2188 -0.3390 -0.0600
  768MOL0     C 3557  11.660   6.318   4.907  0.4304  0.3860 -0.7829
  768MOL0     C 3558  11.744   6.356   5.030 -0.1390  0.2150  1.0479
  768MOL0     C 3559  11.665   6.434   5.142 -0.2795  1.0203  0.4385
  768MOL0     C 3560  11.748   6.449   5.267  1.1569 -0.2911 -0.7780
  768MOL0     C 3561  11.725   6.354   5.378 -0.5665  0.5535 -0.0508
  768MOL0     N 3562  11.848   6.312   5.448 -0.6821 -0.4649 -0.3787
  768MOL0     C 3563  11.939   6.217   5.420  0.3257  0.2349 -0.1451
  768MOL0     C 3564  12.039   6.232   5.520 -0.6030  0.2203  0.8454
  768MOL0     C 3565  12.156   6.139   5.549  0.6545  0.4171  0.6085
  768MOL0     C 3566  12.135   6.012   5.466 -0.4812  0.4140  0.8857
  768MOL0     C 3567  12.268   5.930   5.463 -0.5113 -0.7728 -0.1089
  768MOL0     C 3568  12.234   5.781   5.427 -1.1141 -0.4535 -0.9065
  768MOL0     O 3569  12.367   5.729   5.403  0.0729  0.0355  0.6202
  768MOL0     C 3570  12.402   5.620   5.328  0.2199 -0.0939  0.2556
  768MOL0     C 3571  12.305   5.532   5.273  0.6905  0.0262 -0.3764
  768MOL0     C 3572  12.340   5.404   5.228 -0.3081 -0.9071 -0.8327
  768MOL0     C 3573  12.474   5.367   5.204  0.6200 -0.3931 -0.1330
  768MOL0     C 3574  12.511   5.235   5.173 -0.2612  1.0178 -0.2367
  768MOL0     O 3575  12.640   5.188   5.211 -0.7357  0.0119  0.8755
  768MOL0     C 3576  12.688   5.066   5.174  1.2820  0.0730  0.3615
  768MOL0     C 3577  12.823   5.035   5.149  0.6934 -1.3899  0.6079
  768MOL0     C 3578  12.867   4.906   5.113 -0.0528 -0.2037 -0.4589
  768MOL0     C 3579  12.778   4.807   5.075 -0.2021 -0.1101  0.1325
  768MOL0     O 3580  12.831   4.692   5.026 -0.2034 -0.4359 -0.0348
  768MOL0     C 3581  12.778   4.652   4.899 -0.5530 -0.2964  0.2990
  768MOL0     C 3582  12.903   4.604   4.822  0.0810  0.3118  0.5481
  768MOL0     C 3583  12.943   4.475   4.890 -0.1548  0.2973  0.3084
  768MOL0     C 3584  12.936   4.344   4.785  0.2336  0.0578 -0.1558
  768MOL0     C 3585  13.079   4.317   4.724  0.7252  0.0210 -0.2554
  768MOL0     C 3586  13.064   4.227   4.600 -0.5681  0.1761 -0.1722
  768MOL0     C 3587  13.056   4.075   4.636  0.5942  0.1090 -0.7008
  768MOL0     C 3588  13.103   3.991   4.512  0.4332  0.2525 -0.1588
  768MOL0    Cl 3589  13.083   4.078   4.359 -0.6546 -0.0224 -0.0520
  768MOL0     C 3590  12.644   4.825   5.108  0.6683  0.4907  0.4033
  768MOL0     C 3591  12.601   4.952   5.143  0.3696  0.8071 -0.4231
  768MOL0     O 3592  12.425   5.182   5.101 -0.3868  0.1118 -0.3742
  768MOL0     C 3593  12.579   5.452   5.258  1.0835  0.5676 -0.3513
  768MOL0     C 3594  12.537   5.576   5.313  0.3107  0.2915 -0.8614
  768MOL0     N 3595  12.005   6.346   5.600 -0.1208 -0.1894 -0.7898
  768MOL0     N 3596  11.889   6.388   5.557 -0.1347  1.0361  0.8028
  768MOL0     C 3597  11.291   6.496   4.628 -0.6976  0.1053  0.8322
  768MOL0     C 3598  11.211   6.612   4.611  0.3082  0.0369  0.6421
  768MOL0     C 3599  10.973   6.957   4.535 -0.9013 -0.0368  0.0383
  768MOL0     C 3600  11.030   7.069   4.594 -0.9400  0.1644  0.1609
  768MOL0     C 3601  10.972   7.189   4.585  0.4241 -0.6551  0.6725
  768MOL0     C 3602  10.852   7.195   4.526  0.6664 -0.7270  0.5840
  768MOL0     O 3603  10.785   7.320   4.518  0.9790  0.5649  0.5427
  768MOL0     C 3604  10.701   7.338   4.408 -1.4502  0.7800 -0.8287
  768MOL0     C 3605  10.649   7.484   4.423 -0.8505  0.1098 -0.0940
  768MOL0     C 3606  10.561   7.499   4.554 -0.8336 -0.2250  0.4340
  768MOL0     C 3607  10.441   7.417   4.573 -0.5547  0.2488 -0.7550
  768MOL0     C 3608  10.352   7.421   4.449 -0.4354 -0.9804  0.2404
  768MOL0     C 3609  10.288   7.413   4.352  1.2388 -1.2320  0.4826
  768MOL0     C 3610  10.783   7.083   4.482 -0.1487 -0.1384  0.6898
  768MOL0     C 3611  10.841   6.963   4.490  0.5236 -0.4562 -0.0139
  768MOL0     C 3612  10.758   6.851   4.430  0.1260  0.2629 -1.0526
  768MOL0     H 3613  11.460   6.832   4.527  0.7546 -0.9576 -1.6212
  768MOL0     H 3614  11.583   6.655   4.561 -0.3549  1.6011  0.8084
  768MOL0     H 3615  11.623   6.362   4.483  1.8030 -0.4311  0.0548
  768MOL0     H 3616  11.697   6.468   4.615  0.8225  0.1330 -0.7567
  768MOL0     H 3617  11.776   6.218   4.584 -0.3425  1.3885 -0.0139
  768MOL0     H 3618  11.627   6.167   4.656  0.5252 -0.6890  1.6504
  768MOL0     H 3619  11.835   6.359   4.778 -1.8076  1.4543 -2.1698
  768MOL0     H 3620  11.820   6.194   4.820 -0.5143 -0.1760  1.8883
  768MOL0     H 3621  11.597   6.405   4.884 -0.9806 -0.9248 -2.1542
  768MOL0     H 3622  11.583   6.242   4.924 -0.3226  1.7049  2.4455
  768MOL0     H 3623  11.786   6.271   5.085  1.3715  0.6650  0.6301
  768MOL0     H 3624  11.832   6.417   5.008  0.0860  0.0080  1.3472
  768MOL0     H 3625  11.640   6.529   5.093 -2.4637  0.5741  0.6085
  768MOL0     H 3626  11.575   6.374   5.158 -0.0684  0.7011  0.4500
  768MOL0     H 3627  11.717   6.549   5.299 -2.4274 -0.1311 -4.0542
  768MOL0     H 3628  11.854   6.446   5.238  0.6989  1.8140 -2.9907
  768MOL0     H 3629  11.665   6.399   5.457  1.5971  4.3483 -0.3355
  768MOL0     H 3630  11.677   6.268   5.330 -0.8859 -0.0707  1.3361
  768MOL0     H 3631  11.944   6.149   5.335 -2.0716  1.0016 -0.9867
  768MOL0     H 3632  12.245   6.188   5.510 -0.9274  2.0989 -1.0919
  768MOL0     H 3633  12.173   6.118   5.655 -0.4973 -0.6956  0.5987
  768MOL0     H 3634  12.046   5.959   5.501 -1.6651  1.6549 -0.1188
  768MOL0     H 3635  12.112   6.027   5.360 -4.2753 -1.1372  1.3473
  768MOL0     H 3636  12.315   5.935   5.561 -1.1634  2.6357  0.1412
  768MOL0     H 3637  12.350   5.973   5.404  0.3724 -3.0974 -0.6933
  768MOL0     H 3638  12.172   5.785   5.337  0.3631 -1.7312 -2.0448
  768MOL0     H 3639  12.182   5.727   5.507  1.2265 -1.2340  0.1674
  768MOL0     H 3640  12.198   5.551   5.275  1.0827  2.4837 -0.1188
  768MOL0     H 3641  12.266   5.348   5.172 -1.0353 -0.3900 -0.4004
  768MOL0     H 3642  12.899   5.112   5.150  2.7722 -3.3720  1.3492
  768MOL0     H 3643  12.972   4.895   5.092  1.2087 -2.1631  5.1526
  768MOL0     H 3644  12.702   4.575   4.913  1.6099 -2.3787  1.4023
  768MOL0     H 3645  12.736   4.735   4.841  0.9326  1.4653  1.6144
  768MOL0     H 3646  12.894   4.580   4.715  0.2250  0.3220  0.5338
  768MOL0     H 3647  12.982   4.680   4.820 -0.3430  0.8160  1.8618
  768MOL0     H 3648  13.046   4.479   4.927  0.5238 -0.0959 -1.4319
  768MOL0     H 3649  12.877   4.454   4.975  0.4517  1.4816  1.0939
  768MOL0     H 3650  12.857   4.364   4.712 -2.9841 -0.9347  2.8200
  768MOL0     H 3651  12.904   4.249   4.828 -0.1897 -1.0652 -2.7624
  768MOL0     H 3652  13.150   4.281   4.798 -0.3653 -0.3942  0.6169
  768MOL0     H 3653  13.109   4.418   4.696 -0.9255  1.0340  1.4228
  768MOL0     H 3654  12.971   4.248   4.548  0.6136  1.0924 -2.0192
  768MOL0     H 3655  13.156   4.252   4.546  0.9465 -0.7440  1.8408
  768MOL0     H 3656  12.959   4.049   4.680  0.9039  0.7515  0.3998
  768MOL0     H 3657  13.124   4.047   4.717  2.4803 -0.1803 -2.2948
  768MOL0     H 3658  13.209   3.975   4.534 -0.5653 -1.0667  4.9725
  768MOL0     H 3659  13.057   3.892   4.500  1.6166 -0.3252 -0.1195
  768MOL0     H 3660  12.567   4.749   5.095 -0.4932  1.6473  0.2537
  768MOL0     H 3661  12.496   4.957   5.171  0.2673  0.0567 -0.6363
  768MOL0     H 3662  12.683   5.421   5.257  1.8121  2.5997  2.1679
  768MOL0     H 3663  12.592   5.656   5.362 -1.4471  1.6760 -1.0297
  768MOL0     H 3664  11.250   6.396   4.635  0.8430 -0.7610 -1.4357
  768MOL0     H 3665  11.104   6.599   4.620 -0.3133  3.6132 -0.2531
  768MOL0     H 3666  11.125   7.076   4.646  0.4649 -1.6593 -1.9546
  768MOL0     H 3667  11.016   7.280   4.624  1.3182  0.2886 -2.2275
  768MOL0     H 3668  10.610   7.277   4.406 -1.6613  0.9947  0.8851
  768MOL0     H 3669  10.753   7.322   4.313  0.1055  0.9259 -0.0440
  768MOL0     H 3670  10.587   7.509   4.337 -1.3210  1.0659  0.4991
  768MOL0     H 3671  10.722   7.566   4.430 -2.4461  1.4778  3.9863
  768MOL0     H 3672  10.519   7.599   4.542 -2.8101 -1.1611 -1.0476
  768MOL0     H 3673  10.624   7.500   4.643 -1.7427  3.1128  1.1539
  768MOL0     H 3674  10.475   7.314   4.589  0.1344  0.8708  2.4314
  768MOL0     H 3675  10.375   7.447   4.655 -0.2590 -1.1050  0.0140
  768MOL0     H 3676  10.229   7.409   4.263  1.1863 -1.0649  0.5096
  768MOL0     H 3677  10.682   7.086   4.442 -1.2061 -5.0882  2.1991
  768MOL0     H 3678  10.655   6.885   4.424 -1.3784 -2.9665  2.4415
  768MOL0     H 3679  10.801   6.806   4.340  1.5502 -0.0312 -0.2665
  768MOL0     H 3680  10.747   6.776   4.510 -2.6315  0.1220 -1.4892
  769MOL0     O 3681   6.834   2.061   2.475 -0.5011  0.7820 -0.1994
  769MOL0     C 3682   6.846   1.945   2.524 -0.3071  0.4929  0.0448
  769MOL0     O 3683   6.740   1.850   2.519 -0.7943 -0.6096  0.4141
  769MOL0     C 3684   6.623   1.907   2.483 -0.5000  0.8506 -0.1868
  769MOL0     C 3685   6.526   1.952   2.582 -0.1741 -1.0065  0.6397
  769MOL0     C 3686   6.406   2.017   2.555  0.6627  0.9214 -0.0174
  769MOL0     C 3687   6.368   2.023   2.413  0.2868  0.4918 -0.0192
  769MOL0     O 3688   6.248   2.063   2.368 -0.4585 -0.3349 -0.4464
  769MOL0     C 3689   6.207   2.197   2.403  0.7828  0.6786 -0.8330
  769MOL0     C 3690   6.224   2.286   2.285 -0.0466  0.0147  0.6283
  769MOL0     C 3691   6.164   2.422   2.302  0.1765 -0.2264  0.6946
  769MOL0     C 3692   6.275   2.496   2.374  0.7459 -0.3548 -0.3012
  769MOL0     C 3693   6.229   2.637   2.391 -0.2885 -0.0874  0.5493
  769MOL0     C 3694   6.336   2.734   2.459 -0.5465 -0.3880 -0.3997
  769MOL0     C 3695   6.284   2.863   2.504  0.7245  0.0348 -0.4953
  769MOL0     C 3696   6.260   2.867   2.655  0.2845  1.0250 -0.1652
  769MOL0     N 3697   6.232   3.002   2.711 -0.4728 -0.2932 -0.3781
  769MOL0     C 3698   6.325   3.101   2.720  0.3995  0.3819  0.4376
  769MOL0     C 3699   6.253   3.217   2.723 -0.0918  0.9471  0.6985
  769MOL0     C 3700   6.291   3.360   2.705 -0.5314 -1.1310  0.3572
  769MOL0     C 3701   6.420   3.385   2.628  0.6671  0.4189  0.1052
  769MOL0     C 3702   6.398   3.331   2.483 -0.0147 -0.3046  0.7977
  769MOL0     C 3703   6.514   3.247   2.421 -0.8837 -0.8419 -0.8446
  769MOL0     O 3704   6.643   3.314   2.453  0.6794 -0.1358  1.0456
  769MOL0     C 3705   6.651   3.441   2.398 -0.4989 -0.0197  1.3950
  769MOL0     C 3706   6.613   3.481   2.267 -0.2501  0.0283 -0.0834
  769MOL0     C 3707   6.629   3.614   2.223  0.1935  0.2138  0.7101
  769MOL0     C 3708   6.677   3.715   2.299  0.4383  0.2969  0.0615
  769MOL0     C 3709   6.689   3.853   2.252  0.4219 -0.4835 -0.5079
  769MOL0     O 3710   6.612   3.885   2.137  1.5394  0.7610 -0.1026
  769MOL0     C 3711   6.608   4.011   2.081 -0.1772  0.1112 -0.5500
  769MOL0     C 3712   6.616   4.139   2.155 -0.1389  0.6788 -0.3737
  769MOL0     C 3713   6.591   4.261   2.089 -0.3721 -0.8307  0.4783
  769MOL0     C 3714   6.539   4.259   1.954 -0.1730 -0.1837  0.2056
  769MOL0     O 3715   6.495   4.374   1.886  0.0365 -0.3954  0.3144
  769MOL0     C 3716   6.510   4.502   1.952 -0.0388 -0.3500  0.1656
  769MOL0     C 3717   6.453   4.605   1.857  0.1427 -1.1038 -0.6441
  769MOL0     C 3718   6.439   4.744   1.921 -0.0456 -0.0085 -0.3454
  769MOL0     C 3719   6.432   4.837   1.797  0.5097 -1.1451  0.5272
  769MOL0     C 3720   6.367   4.968   1.853  0.1608 -0.5769  0.1729
  769MOL0     C 3721   6.332   5.073   1.745  0.4715  1.1746  0.8839
  769MOL0     C 3722   6.244   5.186   1.788  0.9149  1.0331 -0.1107
  769MOL0     C 3723   6.310   5.314   1.821  0.3255 -0.0207 -0.1135
  769MOL0    Cl 3724   6.438   5.280   1.934  0.6170 -0.4475 -0.8026
  769MOL0     C 3725   6.529   4.140   1.891  0.4554  0.8281 -0.0652
  769MOL0     C 3726   6.556   4.018   1.951 -0.4461 -1.7051  0.2415
  769MOL0     O 3727   6.768   3.924   2.305  0.3357 -0.3610  0.0123
  769MOL0     C 3728   6.724   3.669   2.427  1.0516  0.0914 -0.1834
  769MOL0     C 3729   6.720   3.538   2.468 -0.0213 -0.8000  0.6693
  769MOL0     N 3730   6.118   3.182   2.706  0.4448  0.1971 -0.4042
  769MOL0     N 3731   6.108   3.053   2.710  0.1625  0.4517  0.0170
  769MOL0     C 3732   6.463   1.977   2.322  0.1728 -0.9447 -0.5204
  769MOL0     C 3733   6.587   1.917   2.350 -0.2750 -0.8729  0.0361
  769MOL0     C 3734   6.968   1.898   2.595  0.1788 -0.5184 -0.6982
  769MOL0     C 3735   6.942   1.792   2.680  0.8529 -0.8176 -1.0116
  769MOL0     C 3736   7.051   1.735   2.761  0.8127 -0.4200  0.0741
  769MOL0     C 3737   7.178   1.798   2.764 -0.2649 -0.3835 -0.0070
  769MOL0     O 3738   7.271   1.752   2.850  0.3848  0.0545  0.6315
  769MOL0     C 3739   7.381   1.841   2.883 -0.6779 -0.3299 -0.1929
  769MOL0     C 3740   7.408   1.836   3.035  0.2450  0.1549 -0.0498
  769MOL0     C 3741   7.283   1.791   3.117  0.1754  0.2969 -0.4877
  769MOL0     C 3742   7.303   1.803   3.267 -0.0375 -0.3034 -0.5397
  769MOL0     C 3743   7.365   1.936   3.300  0.2855  0.4721  0.5501
  769MOL0     C 3744   7.429   2.032   3.340 -0.5716 -0.8809  0.3047
  769MOL0     C 3745   7.199   1.897   2.664 -0.2186 -0.7311  0.4563
  769MOL0     C 3746   7.099   1.945   2.575  0.0260 -0.0353  0.5826
  769MOL0     C 3747   7.137   2.069   2.499  0.1842 -0.8600  0.4675
  769MOL0     H 3748   6.551   1.929   2.684  3.3787  1.7557  0.6102
  769MOL0     H 3749   6.339   2.027   2.640  2.6723  2.6315  1.4655
  769MOL0     H 3750   6.108   2.205   2.449  2.4312 -2.5783  4.0689
  769MOL0     H 3751   6.262   2.234   2.490  2.7066 -0.0451 -1.6802
  769MOL0     H 3752   6.161   2.256   2.200  0.9643  0.9843 -0.4953
  769MOL0     H 3753   6.327   2.281   2.250 -0.4188  0.4613 -0.6013
  769MOL0     H 3754   6.076   2.403   2.364 -0.8917 -2.1700 -1.2633
  769MOL0     H 3755   6.140   2.475   2.209  1.2015  1.7866  1.5189
  769MOL0     H 3756   6.288   2.457   2.475 -0.5373 -0.1091 -0.0308
  769MOL0     H 3757   6.370   2.495   2.319 -0.5142 -1.9069 -2.5861
  769MOL0     H 3758   6.183   2.669   2.298  0.8349  0.4515  0.1534
  769MOL0     H 3759   6.142   2.632   2.457 -0.6430 -0.9356  0.0330
  769MOL0     H 3760   6.387   2.688   2.544 -2.5585 -1.0880  0.4901
  769MOL0     H 3761   6.412   2.752   2.382  0.5510  0.7246  0.8728
  769MOL0     H 3762   6.190   2.895   2.459  0.6938 -1.2816 -1.4338
  769MOL0     H 3763   6.361   2.939   2.485  2.3683 -1.6775 -1.0335
  769MOL0     H 3764   6.180   2.800   2.686  1.8030 -1.0715 -0.5413
  769MOL0     H 3765   6.343   2.841   2.721 -2.3164  0.5698  3.1791
  769MOL0     H 3766   6.433   3.102   2.734  0.2610  0.2404  1.6326
  769MOL0     H 3767   6.210   3.410   2.651 -0.3425 -0.9385  0.2528
  769MOL0     H 3768   6.288   3.406   2.805  1.4723  1.1466 -0.5438
  769MOL0     H 3769   6.440   3.492   2.635  1.3977  0.1838  2.9137
  769MOL0     H 3770   6.497   3.315   2.663 -1.1357 -1.9837 -0.4936
  769MOL0     H 3771   6.372   3.414   2.416 -1.2291 -0.5169  0.9829
  769MOL0     H 3772   6.311   3.264   2.476  0.2863 -0.6474  0.2549
  769MOL0     H 3773   6.506   3.238   2.312  2.5289 -0.1321 -1.2667
  769MOL0     H 3774   6.506   3.151   2.472 -1.6100 -1.2075 -1.6192
  769MOL0     H 3775   6.587   3.401   2.198  5.8980 -2.1558 -0.5104
  769MOL0     H 3776   6.591   3.631   2.123  0.0032  1.2514  0.9517
  769MOL0     H 3777   6.640   4.145   2.260 -1.8193 -0.0720  0.0888
  769MOL0     H 3778   6.624   4.346   2.148  5.0782 -2.4937  0.4286
  769MOL0     H 3779   6.439   4.508   2.035  2.0270  3.3845  1.9316
  769MOL0     H 3780   6.614   4.518   1.981  0.2155  0.0157 -0.8905
  769MOL0     H 3781   6.528   4.615   1.779 -1.2846 -1.0965 -2.0624
  769MOL0     H 3782   6.353   4.571   1.829 -0.2758 -1.2155  0.8763
  769MOL0     H 3783   6.351   4.733   1.984  0.4853  0.6249  0.5372
  769MOL0     H 3784   6.524   4.761   1.989 -1.6631 -1.4252  2.1997
  769MOL0     H 3785   6.357   4.790   1.733  1.2799 -0.5969 -0.7985
  769MOL0     H 3786   6.522   4.852   1.738 -0.0755  3.9241  0.5028
  769MOL0     H 3787   6.449   5.019   1.904 -0.8705  0.7257  0.5659
  769MOL0     H 3788   6.282   4.953   1.920  0.0636 -1.7180 -0.1689
  769MOL0     H 3789   6.420   5.121   1.702 -0.1297  2.4904  1.0944
  769MOL0     H 3790   6.279   5.014   1.669  3.0675  1.6141 -1.4674
  769MOL0     H 3791   6.192   5.160   1.881 -0.6605  1.9740 -0.6762
  769MOL0     H 3792   6.170   5.213   1.712 -0.3769  0.2396  0.8278
  769MOL0     H 3793   6.360   5.344   1.729  2.0400  1.1745  1.1491
  769MOL0     H 3794   6.232   5.384   1.855 -1.6300 -1.3427 -1.6728
  769MOL0     H 3795   6.489   4.126   1.791 -0.1031 -4.1869  0.6290
  769MOL0     H 3796   6.533   3.926   1.899  2.8152 -1.6214 -1.5654
  769MOL0     H 3797   6.772   3.751   2.479 -0.4159  1.1671 -0.4496
  769MOL0     H 3798   6.762   3.522   2.567 -0.1236 -0.3834  0.7780
  769MOL0     H 3799   6.437   1.985   2.216  0.0353  1.5543 -0.3737
  769MOL0     H 3800   6.646   1.893   2.262 -1.4044 -0.7546 -0.7786
  769MOL0     H 3801   6.844   1.746   2.691  0.5773  0.0240  0.2405
  769MOL0     H 3802   7.026   1.650   2.824 -0.3789 -2.6325 -3.1323
  769MOL0     H 3803   7.360   1.946   2.859 -0.6308 -0.1665  0.4479
  769MOL0     H 3804   7.472   1.821   2.825  0.6620  1.0226  1.3304
  769MOL0     H 3805   7.459   1.929   3.059  2.1139 -1.3325  2.2111
  769MOL0     H 3806   7.488   1.765   3.056  1.6120  0.8253 -2.6035
  769MOL0     H 3807   7.259   1.685   3.109 -0.5752  0.4186  0.0934
  769MOL0     H 3808   7.194   1.847   3.086 -0.2067 -1.0925 -1.9857
  769MOL0     H 3809   7.209   1.779   3.316 -0.0977  2.1520  0.7009
  769MOL0     H 3810   7.379   1.730   3.296 -0.8859 -0.5678  1.1280
  769MOL0     H 3811   7.463   2.133   3.355 -2.4265  0.2582 -2.2850
  769MOL0     H 3812   7.294   1.948   2.649  0.2067 -2.0595 -1.7156
  769MOL0     H 3813   7.084   2.162   2.521 -1.4482 -1.2122 -1.6601
  769MOL0     H 3814   7.240   2.105   2.513 -0.7215  3.1610 -1.5789
  769MOL0     H 3815   7.107   2.043   2.397 -0.5289 -0.5406  0.5911
  770MOL0     O 3816   5.772   5.384   4.655  0.2092  0.5151 -0.0013
  770MOL0     C 3817   5.683   5.364   4.572  0.7499 -0.5501  0.2515
  770MOL0     O 3818   5.695   5.294   4.452 -0.1377 -0.2266  0.6117
  770MOL0     C 3819   5.805   5.289   4.371 -0.1058  0.1948  0.5957
  770MOL0     C 3820   5.807   5.196   4.272  0.9149 -0.2155 -1.2048
  770MOL0     C 3821   5.917   5.169   4.189 -0.4503  0.1933  0.2190
  770MOL0     C 3822   6.029   5.252   4.212  0.5932  0.2192  0.4891
  770MOL0     O 3823   6.135   5.243   4.132 -0.5822  0.1870  0.2402
  770MOL0     C 3824   6.179   5.110   4.104 -0.0435 -0.1800 -0.1794
  770MOL0     C 3825   6.319   5.113   4.040  0.1056 -1.0829 -0.4856
  770MOL0     C 3826   6.402   4.993   4.075 -1.6942 -0.1409  0.2476
  770MOL0     C 3827   6.552   5.019   4.024  0.7484 -1.3522  0.7759
  770MOL0     C 3828   6.657   4.908   4.065  0.6706  0.2113 -0.0336
  770MOL0     C 3829   6.657   4.890   4.219 -0.5052  0.0736 -0.5843
  770MOL0     C 3830   6.693   5.020   4.280 -0.4403 -0.1655 -0.0793
  770MOL0     C 3831   6.734   4.998   4.428  0.4873  0.3083  0.8506
  770MOL0     N 3832   6.642   4.952   4.536 -0.2934 -0.3224 -0.3993
  770MOL0     C 3833   6.696   4.933   4.654 -0.5258  1.1215 -0.0309
  770MOL0     C 3834   6.578   4.912   4.724  0.4507 -0.1019  0.0093
  770MOL0     C 3835   6.567   4.889   4.869 -0.2459  0.5833 -0.3150
  770MOL0     C 3836   6.570   4.741   4.909 -0.1376  0.0395  0.2951
  770MOL0     C 3837   6.459   4.705   5.007  0.1578  0.4886  0.2628
  770MOL0     C 3838   6.500   4.740   5.158  0.0712  0.7192  0.7803
  770MOL0     O 3839   6.531   4.881   5.172 -0.6345  0.8621  0.3876
  770MOL0     C 3840   6.434   4.975   5.168  0.4663 -0.9299  0.2429
  770MOL0     C 3841   6.482   5.109   5.199 -0.5327  0.0711  0.3599
  770MOL0     C 3842   6.400   5.216   5.197 -0.7431 -0.1950 -0.1466
  770MOL0     C 3843   6.268   5.201   5.165 -0.1388 -0.6688 -0.0553
  770MOL0     C 3844   6.183   5.321   5.142  0.8165  0.2270  0.0609
  770MOL0     O 3845   6.042   5.290   5.145 -0.1291 -0.1340  0.3980
  770MOL0     C 3846   5.961   5.402   5.128  0.0906  0.9737  0.4693
  770MOL0     C 3847   5.876   5.453   5.231  0.4234  0.1752 -0.3250
  770MOL0     C 3848   5.808   5.567   5.209 -0.4739 -0.0696 -0.1991
  770MOL0     C 3849   5.808   5.640   5.092  0.3876 -0.1937 -0.2277
  770MOL0     O 3850   5.739   5.757   5.103  0.4448  1.2282  0.2691
  770MOL0     C 3851   5.763   5.854   5.001  1.0432 -0.6998  0.6450
  770MOL0     C 3852   5.692   5.976   5.048  0.0531 -0.1211 -0.5770
  770MOL0     C 3853   5.538   5.966   5.022  0.3526  0.7837 -0.6528
  770MOL0     C 3854   5.443   6.048   5.105  1.1535  0.6532 -0.0251
  770MOL0     C 3855   5.305   6.067   5.033 -0.2143  0.3981 -0.0722
  770MOL0     C 3856   5.243   6.202   5.092 -0.2876 -0.8103  0.3022
  770MOL0     C 3857   5.145   6.174   5.205 -0.7144 -0.0440  0.3946
  770MOL0     C 3858   5.098   6.298   5.278  0.2530 -0.2382  0.0500
  770MOL0    Cl 3859   4.972   6.377   5.184 -0.0016  0.3790  0.0163
  770MOL0     C 3860   5.891   5.588   4.981  0.2307 -0.5393 -0.2080
  770MOL0     C 3861   5.965   5.467   5.007  0.8155 -0.0798  0.9494
  770MOL0     O 3862   6.233   5.430   5.136 -0.7363 -0.4366 -0.2812
  770MOL0     C 3863   6.224   5.073   5.147  0.4671 -0.5208  0.2093
  770MOL0     C 3864   6.305   4.966   5.145 -0.9908  0.4689  0.2389
  770MOL0     N 3865   6.471   4.904   4.636 -0.8814  0.0522 -0.2798
  770MOL0     N 3866   6.515   4.919   4.517 -0.3348 -0.0119 -0.3717
  770MOL0     C 3867   6.016   5.356   4.297 -1.5725  1.5920 -0.8205
  770MOL0     C 3868   5.917   5.378   4.382 -0.2595 -0.3271 -0.3943
  770MOL0     C 3869   5.543   5.419   4.621  0.0725  0.4413 -0.8921
  770MOL0     C 3870   5.536   5.485   4.742 -0.0571 -1.1720 -0.0528
  770MOL0     C 3871   5.411   5.534   4.798  0.4064  1.1995 -0.0154
  770MOL0     C 3872   5.291   5.505   4.723 -0.0632 -0.1659  0.4727
  770MOL0     O 3873   5.162   5.537   4.754 -0.5838 -0.0393 -0.4013
  770MOL0     C 3874   5.142   5.605   4.878  0.3748  0.4959 -0.1078
  770MOL0     C 3875   5.133   5.494   4.991 -0.0352 -0.4626  0.8234
  770MOL0     C 3876   5.094   5.521   5.135  0.1005 -0.2025  0.7992
  770MOL0     C 3877   5.140   5.651   5.189  0.0431 -1.2866 -0.4520
  770MOL0     C 3878   5.283   5.661   5.194  0.3120  0.7652  0.2203
  770MOL0     C 3879   5.405   5.670   5.194  0.1471  0.2747  0.1460
  770MOL0     C 3880   5.297   5.439   4.602  1.2750 -0.2539 -0.3802
  770MOL0     C 3881   5.419   5.392   4.560 -0.3129  0.8959  0.9236
  770MOL0     C 3882   5.403   5.327   4.419 -0.2489 -0.0931  0.5320
  770MOL0     H 3883   5.712   5.145   4.264  1.8771 -1.8854 -2.4380
  770MOL0     H 3884   5.914   5.090   4.114  2.3101  0.4128 -0.1977
  770MOL0     H 3885   6.180   5.048   4.194 -1.7371 -0.7296 -0.4907
  770MOL0     H 3886   6.108   5.070   4.030  0.9132  1.3518 -2.0223
  770MOL0     H 3887   6.372   5.194   4.092 -1.4944 -1.2229  1.4825
  770MOL0     H 3888   6.310   5.126   3.932 -0.6122 -4.4175 -0.9124
  770MOL0     H 3889   6.351   4.908   4.028 -2.2873  0.5338 -0.3430
  770MOL0     H 3890   6.394   4.978   4.183  0.7767 -4.5656  0.0897
  770MOL0     H 3891   6.562   5.041   3.918 -1.2603  1.7294  1.0954
  770MOL0     H 3892   6.576   5.117   4.067 -0.1135 -0.8376  0.0892
  770MOL0     H 3893   6.632   4.816   4.013  0.2884  0.9287 -1.1520
  770MOL0     H 3894   6.752   4.949   4.032  0.0375 -0.5119 -3.0051
  770MOL0     H 3895   6.555   4.864   4.247 -0.5433 -1.4948 -2.0156
  770MOL0     H 3896   6.731   4.812   4.240  0.1150  0.5450 -0.9738
  770MOL0     H 3897   6.609   5.090   4.269 -0.4132  0.1241  1.3598
  770MOL0     H 3898   6.779   5.067   4.233  0.4793 -0.3428  1.3554
  770MOL0     H 3899   6.824   4.938   4.414  0.7627  1.2071 -1.8695
  770MOL0     H 3900   6.745   5.105   4.444 -0.9420  1.2756 -3.2486
  770MOL0     H 3901   6.802   4.925   4.675 -0.7734  1.8230  1.5787
  770MOL0     H 3902   6.655   4.934   4.916 -2.8620  4.0637  1.7823
  770MOL0     H 3903   6.470   4.928   4.901 -0.3575  0.3149 -0.3263
  770MOL0     H 3904   6.550   4.685   4.817  0.7477  1.8173 -1.0407
  770MOL0     H 3905   6.669   4.707   4.938 -1.1930 -3.1431  0.6133
  770MOL0     H 3906   6.451   4.596   4.996  3.4053  0.2893 -1.3211
  770MOL0     H 3907   6.363   4.744   4.974 -1.2099 -1.2600  1.9102
  770MOL0     H 3908   6.591   4.685   5.185  0.6442  1.3755  0.2421
  770MOL0     H 3909   6.419   4.694   5.215  0.4861  1.0872  1.6748
  770MOL0     H 3910   6.588   5.128   5.214  0.0074 -0.8598 -1.8953
  770MOL0     H 3911   6.432   5.319   5.205  1.1743 -0.6005 -1.8274
  770MOL0     H 3912   5.867   5.392   5.320 -0.8648 -0.2431 -0.7112
  770MOL0     H 3913   5.754   5.610   5.293  0.1705  2.6821 -1.0952
  770MOL0     H 3914   5.868   5.869   4.976  1.0718 -1.5130  0.2290
  770MOL0     H 3915   5.730   5.821   4.902 -0.9241  2.8098 -0.0136
  770MOL0     H 3916   5.713   6.010   5.150 -1.9410 -0.0681 -0.1491
  770MOL0     H 3917   5.737   6.060   4.994  0.2220 -0.3862 -0.8590
  770MOL0     H 3918   5.530   6.000   4.918  4.8616  1.0832 -1.1363
  770MOL0     H 3919   5.521   5.858   5.015 -0.2854  0.5825  2.7053
  770MOL0     H 3920   5.487   6.148   5.113 -1.4784  1.7691  2.3063
  770MOL0     H 3921   5.424   6.018   5.208 -1.9894 -0.9341 -0.9419
  770MOL0     H 3922   5.241   5.979   5.049  0.8620 -0.1970  1.1458
  770MOL0     H 3923   5.312   6.077   4.924  0.4225 -1.1487 -0.1964
  770MOL0     H 3924   5.327   6.268   5.117 -0.1106 -1.4357  1.4073
  770MOL0     H 3925   5.178   6.246   5.016 -1.7316  0.8913  2.4070
  770MOL0     H 3926   5.200   6.116   5.280 -0.0024  0.5632  0.3576
  770MOL0     H 3927   5.055   6.120   5.176  1.5179 -3.0879 -1.5414
  770MOL0     H 3928   5.047   6.266   5.370  1.3208 -0.6960  0.5021
  770MOL0     H 3929   5.186   6.353   5.312  0.6134 -0.7546 -0.0370
  770MOL0     H 3930   5.890   5.631   4.882 -1.8410  1.9043  0.7376
  770MOL0     H 3931   6.014   5.437   4.915 -1.8542  3.5143 -1.9698
  770MOL0     H 3932   6.120   5.053   5.123 -0.2114  0.2178  2.2280
  770MOL0     H 3933   6.258   4.876   5.106 -2.6993  1.0248  0.8813
  770MOL0     H 3934   6.082   5.442   4.304 -1.3768  1.3432  0.7691
  770MOL0     H 3935   5.917   5.462   4.451 -2.6059 -0.1249 -0.5488
  770MOL0     H 3936   5.622   5.522   4.797 -0.8577 -2.1721  1.9916
  770MOL0     H 3937   5.404   5.603   4.881 -0.0111  3.1241 -1.5848
  770MOL0     H 3938   5.057   5.674   4.872  1.6386  2.1618  0.4401
  770MOL0     H 3939   5.218   5.682   4.889  1.5022 -0.1579 -2.6887
  770MOL0     H 3940   5.234   5.454   5.003  0.7406  1.6755  2.0504
  770MOL0     H 3941   5.082   5.411   4.943  0.3495 -0.9991  1.3394
  770MOL0     H 3942   5.143   5.442   5.194  0.7141 -0.4151  0.0276
  770MOL0     H 3943   4.986   5.520   5.145 -0.0743  1.5350 -0.4029
  770MOL0     H 3944   5.095   5.741   5.147 -2.3392 -0.1078  3.9520
  770MOL0     H 3945   5.095   5.671   5.287  0.7862 -1.3826 -0.0802
  770MOL0     H 3946   5.512   5.673   5.195  0.1729  2.5074 -1.2497
  770MOL0     H 3947   5.205   5.427   4.546  1.0795  2.4172 -0.7172
  770MOL0     H 3948   5.464   5.374   4.341 -0.3201  0.1275  0.6072
  770MOL0     H 3949   5.432   5.222   4.417 -0.6183 -0.1908  0.1729
  770MOL0     H 3950   5.298   5.327   4.391 -2.3561  0.8895  6.8340
  771MOL0     O 3951   5.455   7.004   8.121 -0.4813  0.3814 -0.0729
  771MOL0     C 3952   5.475   7.118   8.088 -0.0898 -0.6845 -0.9873
  771MOL0     O 3953   5.551   7.152   7.986  0.6801 -0.1274  0.3903
  771MOL0     C 3954   5.633   7.059   7.917 -0.4791  0.6020 -0.7557
  771MOL0     C 3955   5.603   7.028   7.783 -0.3124  0.2510 -0.6979
  771MOL0     C 3956   5.692   6.954   7.712  0.0453 -0.3095  0.5716
  771MOL0     C 3957   5.804   6.900   7.779  0.7280 -0.6807  0.0947
  771MOL0     O 3958   5.885   6.829   7.691 -0.2997 -0.3221 -0.1901
  771MOL0     C 3959   5.977   6.737   7.751 -0.6545 -0.2793 -0.4301
  771MOL0     C 3960   6.119   6.800   7.774  0.5664  0.7311  0.4824
  771MOL0     C 3961   6.198   6.778   7.640  0.6058 -0.3462 -0.4121
  771MOL0     C 3962   6.345   6.833   7.644 -0.7839 -0.6694 -0.1832
  771MOL0     C 3963   6.423   6.725   7.735 -0.4690 -0.3368 -0.0788
  771MOL0     C 3964   6.568   6.782   7.770  1.0726 -0.9902 -0.9676
  771MOL0     C 3965   6.670   6.810   7.651 -0.3049  0.6280  0.4684
  771MOL0     C 3966   6.690   6.689   7.549  0.9891 -1.1767  0.1565
  771MOL0     N 3967   6.733   6.759   7.426 -0.4834 -0.1255 -0.3532
  771MOL0     C 3968   6.646   6.841   7.354 -0.1526  0.0738 -0.6676
  771MOL0     C 3969   6.724   6.872   7.247 -0.0448 -0.4664 -0.1956
  771MOL0     C 3970   6.683   6.956   7.116  0.1776 -0.6365 -1.0815
  771MOL0     C 3971   6.609   6.877   7.014  0.5545 -0.7057  0.3455
  771MOL0     C 3972   6.469   6.855   7.061  0.9519  0.3373 -0.0692
  771MOL0     C 3973   6.407   6.756   6.963 -0.0743  0.6378  0.7853
  771MOL0     O 3974   6.366   6.825   6.840  0.2427  0.3131  0.4324
  771MOL0     C 3975   6.253   6.906   6.843 -0.9872  0.9844  1.1787
  771MOL0     C 3976   6.228   6.999   6.736 -0.2787  0.3061 -0.3400
  771MOL0     C 3977   6.115   7.071   6.719  0.4447 -0.1536 -0.2087
  771MOL0     C 3978   6.002   7.057   6.810 -0.5267 -0.2387  0.0136
  771MOL0     C 3979   5.886   7.145   6.803  0.5617 -1.1570  0.7173
  771MOL0     O 3980   5.775   7.106   6.875 -0.0993 -0.1502  0.0393
  771MOL0     C 3981   5.663   7.175   6.866 -0.0745 -0.4241 -0.5488
  771MOL0     C 3982   5.583   7.160   6.978  0.2777 -0.2591 -0.3435
  771MOL0     C 3983   5.454   7.203   6.980  0.4755  0.1639 -0.5129
  771MOL0     C 3984   5.395   7.270   6.876 -0.3856 -0.2430  1.2116
  771MOL0     O 3985   5.269   7.320   6.877 -0.2601  0.9091 -0.1906
  771MOL0     C 3986   5.218   7.377   6.994  0.9046 -0.3784 -0.2380
  771MOL0     C 3987   5.063   7.357   7.022 -0.2849  0.8485 -0.4358
  771MOL0     C 3988   5.008   7.399   7.156  0.1900  0.2415 -1.0508
  771MOL0     C 3989   4.965   7.555   7.163 -0.0662 -0.5260 -0.2226
  771MOL0     C 3990   4.916   7.596   7.306 -0.7010 -0.6245 -0.1345
  771MOL0     C 3991   4.799   7.534   7.364  0.7742 -0.0516  0.7644
  771MOL0     C 3992   4.760   7.568   7.508 -0.1822  0.1155 -1.5396
  771MOL0     C 3993   4.853   7.492   7.616 -0.2661 -0.2070 -0.0455
  771MOL0    Cl 3994   4.815   7.326   7.599  0.3992  0.0691  0.0871
  771MOL0     C 3995   5.471   7.283   6.759 -0.5727 -0.5193 -0.5816
  771MOL0     C 3996   5.602   7.231   6.751 -0.9839  0.1548 -0.0168
  771MOL0     O 3997   5.898   7.251   6.738  0.4601  1.0557 -0.9777
  771MOL0     C 3998   6.025   6.966   6.916 -0.0462 -0.9657 -0.4509
  771MOL0     C 3999   6.148   6.890   6.937  0.7838 -0.5955  0.2851
  771MOL0     N 4000   6.847   6.813   7.262  0.1263  0.2396  0.4387
  771MOL0     N 4001   6.860   6.752   7.376 -0.2715 -1.1194 -0.2333
  771MOL0     C 4002   5.835   6.918   7.916 -0.5005 -0.4222  0.5113
  771MOL0     C 4003   5.749   7.003   7.989  0.0387  0.9458 -0.0937
  771MOL0     C 4004   5.400   7.224   8.164 -0.4105  0.3986 -0.6303
  771MOL0     C 4005   5.323   7.180   8.277 -0.0581 -0.0901 -0.4233
  771MOL0     C 4006   5.259   7.267   8.358  0.5632  0.2770  0.0876
  771MOL0     C 4007   5.255   7.404   8.325 -0.1081 -0.1390 -0.9671
  771MOL0     O 4008   5.179   7.492   8.401  0.0217  0.8314  0.6400
  771MOL0     C 4009   5.249   7.615   8.427 -0.3174 -0.3684 -0.0805
  771MOL0     C 4010   5.338   7.605   8.561  0.5240 -0.6301  0.9141
  771MOL0     C 4011   5.259   7.552   8.680  0.2227  0.2526 -0.9862
  771MOL0     C 4012   5.166   7.666   8.728 -0.4562  0.1711  0.2819
  771MOL0     C 4013   5.234   7.770   8.806 -0.0513 -0.9277 -0.4138
  771MOL0     C 4014   5.265   7.865   8.872  0.3948  0.3762 -0.0822
  771MOL0     C 4015   5.316   7.449   8.204 -0.5943 -0.6453 -0.1571
  771MOL0     C 4016   5.397   7.366   8.130  0.2773  0.4796 -0.0953
  771MOL0     C 4017   5.501   7.419   8.035 -0.2774 -0.1216  0.3864
  771MOL0     H 4018   5.517   7.056   7.724 -0.0427 -1.2047 -1.8376
  771MOL0     H 4019   5.692   6.937   7.605  1.1063  1.6335  0.2156
  771MOL0     H 4020   5.940   6.706   7.849  0.6378 -0.6489 -0.0476
  771MOL0     H 4021   5.981   6.646   7.691 -1.2581  0.2942 -1.3810
  771MOL0     H 4022   6.173   6.755   7.857  1.8476  1.9884  0.3709
  771MOL0     H 4023   6.119   6.906   7.801  1.7998  0.2503  2.6024
  771MOL0     H 4024   6.142   6.832   7.563  1.4885  0.9495 -0.1790
  771MOL0     H 4025   6.202   6.671   7.620 -1.5224 -1.0491  2.2719
  771MOL0     H 4026   6.385   6.838   7.542  1.4553  1.4378  0.6966
  771MOL0     H 4027   6.347   6.932   7.690  1.6207  0.5552 -2.6296
  771MOL0     H 4028   6.372   6.720   7.832 -2.5763  2.1936 -0.9353
  771MOL0     H 4029   6.421   6.627   7.687 -1.5159 -0.2479 -0.2569
  771MOL0     H 4030   6.543   6.882   7.806 -1.6426 -1.6018 -0.9687
  771MOL0     H 4031   6.611   6.716   7.847 -1.6912 -0.7217  0.9709
  771MOL0     H 4032   6.757   6.827   7.715  0.1798 -1.6255  0.5026
  771MOL0     H 4033   6.644   6.907   7.608 -0.0348 -0.7626 -3.3006
  771MOL0     H 4034   6.766   6.624   7.591  0.8021  0.1728  2.8223
  771MOL0     H 4035   6.596   6.636   7.529  0.0803 -0.1384  1.4616
  771MOL0     H 4036   6.549   6.880   7.380 -1.0813 -3.2455  1.4625
  771MOL0     H 4037   6.620   7.040   7.146  2.2225  1.0313 -1.1987
  771MOL0     H 4038   6.770   7.007   7.072 -1.0426  1.8715 -0.8146
  771MOL0     H 4039   6.593   6.934   6.923 -2.9023 -0.5053  0.9193
  771MOL0     H 4040   6.662   6.788   6.977 -2.1015 -2.8326  1.2859
  771MOL0     H 4041   6.405   6.943   7.076  3.3844  2.0726  0.7523
  771MOL0     H 4042   6.471   6.797   7.153  0.2608 -0.5174 -0.5676
  771MOL0     H 4043   6.321   6.699   7.001  2.4327 -0.6096  5.2493
  771MOL0     H 4044   6.481   6.680   6.935  1.0397  1.8707  0.3077
  771MOL0     H 4045   6.304   6.999   6.659 -1.6817  1.9597 -1.8158
  771MOL0     H 4046   6.101   7.142   6.638  0.7896  1.1890  0.8686
  771MOL0     H 4047   5.635   7.127   7.067  0.3266  1.9260  0.5102
  771MOL0     H 4048   5.394   7.174   7.065 -2.6083  0.1545 -2.5021
  771MOL0     H 4049   5.269   7.338   7.083 -1.3143 -4.5231 -0.4962
  771MOL0     H 4050   5.247   7.482   6.987  3.7009 -1.0733 -0.4768
  771MOL0     H 4051   5.006   7.403   6.941 -1.5565 -1.2082 -0.7695
  771MOL0     H 4052   5.044   7.250   7.008  0.0131  1.0582 -2.6945
  771MOL0     H 4053   4.920   7.341   7.181  0.7409 -0.7700 -1.3943
  771MOL0     H 4054   5.081   7.388   7.237 -1.0263  0.1802  0.0733
  771MOL0     H 4055   4.872   7.559   7.106  0.4795  1.3570 -1.0778
  771MOL0     H 4056   5.039   7.627   7.125  0.9442 -2.1081 -1.3579
  771MOL0     H 4057   4.903   7.705   7.313  0.1926 -0.5087 -0.0568
  771MOL0     H 4058   5.005   7.580   7.367 -1.5193  1.9967  1.9237
  771MOL0     H 4059   4.711   7.563   7.306 -0.9589 -0.8053  2.8957
  771MOL0     H 4060   4.801   7.426   7.351 -0.6997 -0.0627  0.4377
  771MOL0     H 4061   4.660   7.527   7.525  0.1480 -0.6350 -1.3744
  771MOL0     H 4062   4.760   7.674   7.533 -0.0095 -0.3286  0.5169
  771MOL0     H 4063   4.959   7.512   7.596 -1.0888  2.5366 -2.4343
  771MOL0     H 4064   4.843   7.527   7.719 -0.7869 -0.6422  0.0541
  771MOL0     H 4065   5.410   7.321   6.677 -1.3112  1.0401  0.6399
  771MOL0     H 4066   5.657   7.225   6.658 -0.7785 -2.3990  0.1866
  771MOL0     H 4067   5.944   6.942   6.985  1.3366  0.4269  1.7681
  771MOL0     H 4068   6.153   6.822   7.022  1.4789 -0.9408 -0.0255
  771MOL0     H 4069   5.908   6.871   7.981 -1.4032 -0.8017  1.2575
  771MOL0     H 4070   5.798   7.022   8.085  1.2199 -0.4198 -0.3777
  771MOL0     H 4071   5.321   7.077   8.310 -3.4564 -0.9002 -2.6472
  771MOL0     H 4072   5.185   7.227   8.427 -1.6856  0.4066 -2.1125
  771MOL0     H 4073   5.178   7.698   8.434 -0.2633 -0.1433 -1.7874
  771MOL0     H 4074   5.326   7.640   8.353  0.0693 -0.9338  0.1310
  771MOL0     H 4075   5.384   7.702   8.582  0.3487 -0.3337 -0.0488
  771MOL0     H 4076   5.417   7.531   8.548  1.1085 -0.3762  2.7227
  771MOL0     H 4077   5.317   7.526   8.769 -0.1939  6.9007  1.8679
  771MOL0     H 4078   5.198   7.465   8.655  0.9490 -1.4664  2.6235
  771MOL0     H 4079   5.119   7.709   8.639  0.1116 -1.7423 -1.0014
  771MOL0     H 4080   5.085   7.631   8.792  1.9153 -0.4174  3.2403
  771MOL0     H 4081   5.293   7.935   8.948 -1.4606 -0.3207  1.3140
  771MOL0     H 4082   5.309   7.552   8.169 -2.4867 -0.0722  1.7432
  771MOL0     H 4083   5.479   7.392   7.931 -0.9269  2.3552 -0.1849
  771MOL0     H 4084   5.504   7.528   8.031 -3.9935  0.1495  1.0920
  771MOL0     H 4085   5.604   7.392   8.060  0.0110  0.2343 -0.3730
  772MOL0     O 4086  10.570   7.810   6.859  0.0093 -0.2114 -0.1143
  772MOL0     C 4087  10.537   7.929   6.886 -0.2729 -0.1235  0.1682
  772MOL0     O 4088  10.627   8.017   6.936  0.8182 -0.4150 -0.9777
  772MOL0     C 4089  10.756   7.984   6.941  0.2119  0.6985  0.5328
  772MOL0     C 4090  10.818   8.013   6.819 -0.7006  0.3106 -0.1348
  772MOL0     C 4091  10.953   7.982   6.818 -0.5178  0.2861 -0.0370
  772MOL0     C 4092  11.022   7.912   6.923  0.1256 -0.0749  0.5060
  772MOL0     O 4093  11.156   7.877   6.933 -0.5896 -0.3667  0.9332
  772MOL0     C 4094  11.218   7.842   6.807  0.8122  0.5368 -0.1681
  772MOL0     C 4095  11.187   7.693   6.794 -0.2209 -0.2303 -0.5056
  772MOL0     C 4096  11.213   7.615   6.916  0.8416 -1.0568 -0.1070
  772MOL0     C 4097  11.351   7.563   6.943 -0.3961  1.1898 -0.4806
  772MOL0     C 4098  11.447   7.662   7.010 -1.4122 -0.2267  0.0784
  772MOL0     C 4099  11.464   7.651   7.155 -0.0719 -0.2293 -0.5886
  772MOL0     C 4100  11.565   7.749   7.212  0.2070  0.6525 -0.7027
  772MOL0     C 4101  11.519   7.895   7.216 -0.3440  0.3969 -0.3558
  772MOL0     N 4102  11.411   7.935   7.317  0.2117  1.0888  0.9256
  772MOL0     C 4103  11.274   7.932   7.297  0.4581 -1.1209  0.4226
  772MOL0     C 4104  11.235   7.979   7.419 -0.8323 -0.2093 -0.4066
  772MOL0     C 4105  11.093   7.984   7.463  0.3493  1.2463 -0.2057
  772MOL0     C 4106  11.064   8.057   7.596 -0.6203 -0.1316  0.7816
  772MOL0     C 4107  11.089   7.971   7.716  0.5990 -0.0360  0.0603
  772MOL0     C 4108  10.989   7.855   7.753  0.5716 -0.1807  1.1872
  772MOL0     O 4109  11.013   7.812   7.886 -0.2589  1.1607  0.3190
  772MOL0     C 4110  10.971   7.884   7.986 -0.0288 -0.4855 -0.6884
  772MOL0     C 4111  10.851   7.946   7.977  0.9240  0.1266 -0.2361
  772MOL0     C 4112  10.796   8.015   8.087 -0.3853 -0.6901  0.2321
  772MOL0     C 4113  10.849   8.003   8.212 -0.5000  0.2187 -0.7618
  772MOL0     C 4114  10.789   8.053   8.345 -0.1258 -0.8837 -0.2667
  772MOL0     O 4115  10.859   8.030   8.463 -0.7173  0.8694  0.1785
  772MOL0     C 4116  10.809   8.096   8.578 -0.3320  0.7106 -1.1319
  772MOL0     C 4117  10.689   8.068   8.646  0.7327  0.4006 -0.9666
  772MOL0     C 4118  10.653   8.149   8.762  0.4076 -0.7411  0.5248
  772MOL0     C 4119  10.726   8.252   8.817  0.0242  0.6304 -0.7502
  772MOL0     O 4120  10.661   8.328   8.919  1.0019  0.3032  0.7322
  772MOL0     C 4121  10.746   8.398   9.016  0.2372 -0.2218  1.2183
  772MOL0     C 4122  10.642   8.436   9.119 -0.4825 -0.0755 -0.4901
  772MOL0     C 4123  10.579   8.315   9.203 -0.7355 -0.1572 -0.2095
  772MOL0     C 4124  10.460   8.348   9.293 -0.1460 -1.0978  0.2937
  772MOL0     C 4125  10.394   8.221   9.348 -0.9094 -0.6135 -0.1723
  772MOL0     C 4126  10.493   8.137   9.446 -1.1712 -0.9778  0.6807
  772MOL0     C 4127  10.414   8.017   9.487  0.3412 -0.7551 -0.3208
  772MOL0     C 4128  10.450   7.958   9.625  0.0373  0.5579  0.4867
  772MOL0    Cl 4129  10.630   7.940   9.657  0.2164  0.2298 -0.2441
  772MOL0     C 4130  10.847   8.285   8.748  0.2918 -0.1168 -0.2914
  772MOL0     C 4131  10.886   8.213   8.627 -0.0278  0.2337 -0.9643
  772MOL0     O 4132  10.691   8.126   8.332  0.6131 -0.3593 -0.0913
  772MOL0     C 4133  10.972   7.936   8.220 -0.6254  0.2118  0.7088
  772MOL0     C 4134  11.036   7.880   8.108 -0.3536 -0.3069  0.3777
  772MOL0     N 4135  11.342   8.019   7.508  0.4841  0.0625  0.1660
  772MOL0     N 4136  11.441   7.996   7.438  0.5670 -0.3320  0.4731
  772MOL0     C 4137  10.956   7.888   7.049 -0.1565  0.9207  0.6137
  772MOL0     C 4138  10.824   7.930   7.051  0.2452 -0.2614 -0.0339
  772MOL0     C 4139  10.398   7.976   6.845  0.1168 -0.5463  1.1589
  772MOL0     C 4140  10.305   7.887   6.782  0.5837 -0.5356 -0.0254
  772MOL0     C 4141  10.177   7.927   6.729  0.8503 -0.5059 -0.2149
  772MOL0     C 4142  10.136   8.063   6.743  1.2175  0.5113 -0.7217
  772MOL0     O 4143  10.004   8.113   6.705 -1.0032 -0.3030  0.8189
  772MOL0     C 4144   9.922   8.126   6.816  0.1710  0.1141 -0.7501
  772MOL0     C 4145   9.814   8.230   6.803  1.0210 -0.6637  0.3289
  772MOL0     C 4146   9.860   8.374   6.844  0.0838  1.4013  0.5017
  772MOL0     C 4147   9.753   8.485   6.828 -0.0572 -0.0905 -0.4051
  772MOL0     C 4148   9.727   8.534   6.691 -0.4611 -0.1419 -0.6128
  772MOL0     C 4149   9.719   8.589   6.579  0.3510 -0.0344 -0.1234
  772MOL0     C 4150  10.221   8.155   6.806  0.2801 -1.4727  0.1158
  772MOL0     C 4151  10.347   8.112   6.848 -1.7972  0.6067 -0.8133
  772MOL0     C 4152  10.432   8.207   6.925 -0.2246 -0.0111 -0.1173
  772MOL0     H 4153  10.785   8.068   6.731  1.0465  2.2731  0.3612
  772MOL0     H 4154  10.995   8.010   6.722  0.4737  1.2611  0.6677
  772MOL0     H 4155  11.191   7.897   6.716  1.8033 -0.0014 -0.8076
  772MOL0     H 4156  11.324   7.860   6.829  0.4322  0.5284  1.8025
  772MOL0     H 4157  11.252   7.646   6.720 -1.2807 -0.7257 -1.1524
  772MOL0     H 4158  11.082   7.705   6.764 -0.3264  1.8458  0.5645
  772MOL0     H 4159  11.155   7.525   6.893 -1.4307  0.4089 -0.4176
  772MOL0     H 4160  11.166   7.657   7.006  3.9990  2.4564  0.1296
  772MOL0     H 4161  11.355   7.478   7.011  1.6279 -0.4190 -2.4383
  772MOL0     H 4162  11.400   7.535   6.849 -0.4761  1.4156 -0.5909
  772MOL0     H 4163  11.546   7.650   6.965 -1.0754  2.8761 -0.2292
  772MOL0     H 4164  11.420   7.761   6.973 -2.4596 -0.8612 -0.9336
  772MOL0     H 4165  11.374   7.667   7.215  1.0549 -1.7540  1.6587
  772MOL0     H 4166  11.490   7.549   7.187 -1.5067 -0.6658 -0.7274
  772MOL0     H 4167  11.646   7.732   7.141  0.8539 -2.3830  0.6030
  772MOL0     H 4168  11.591   7.722   7.315 -0.0918 -0.8874 -1.0146
  772MOL0     H 4169  11.603   7.957   7.248 -0.9565  1.1600 -0.1910
  772MOL0     H 4170  11.490   7.949   7.126  0.4115 -0.2897 -1.0288
  772MOL0     H 4171  11.207   7.902   7.217 -1.9926  2.9961  0.6175
  772MOL0     H 4172  11.032   8.032   7.386 -1.6197  1.0277  1.1598
  772MOL0     H 4173  11.056   7.884   7.487 -0.1511  1.9402  2.1903
  772MOL0     H 4174  11.131   8.144   7.590  0.0892 -0.7728 -2.3851
  772MOL0     H 4175  10.961   8.091   7.583 -0.0121  0.7410 -2.5176
  772MOL0     H 4176  11.075   8.038   7.801 -1.1930 -0.9309  0.5373
  772MOL0     H 4177  11.194   7.939   7.717  0.3074 -1.2092 -1.6061
  772MOL0     H 4178  11.004   7.778   7.676  0.7428  2.2392 -1.3395
  772MOL0     H 4179  10.885   7.870   7.721  1.0598  1.6834  0.3926
  772MOL0     H 4180  10.786   7.945   7.891 -1.4284  0.6522  1.4452
  772MOL0     H 4181  10.708   8.076   8.072  0.1940  0.2026  0.3632
  772MOL0     H 4182  10.637   7.980   8.609  0.8687 -1.9642  3.7934
  772MOL0     H 4183  10.557   8.138   8.810 -0.0066  0.4666  0.0016
  772MOL0     H 4184  10.833   8.337   9.041  0.3501 -1.5300 -1.9315
  772MOL0     H 4185  10.786   8.491   8.974 -3.1200  1.2900  1.0299
  772MOL0     H 4186  10.699   8.499   9.188 -2.0167 -0.0258  0.7996
  772MOL0     H 4187  10.560   8.493   9.075  0.3917  3.5056  2.0011
  772MOL0     H 4188  10.555   8.230   9.138  0.0865 -1.6620  1.3905
  772MOL0     H 4189  10.665   8.278   9.258  0.5034  0.3781 -1.7005
  772MOL0     H 4190  10.384   8.397   9.232  0.4686 -0.7277 -0.1820
  772MOL0     H 4191  10.501   8.408   9.375  2.6951 -2.1597 -0.2419
  772MOL0     H 4192  10.344   8.158   9.273 -1.1630  1.3188 -1.7136
  772MOL0     H 4193  10.317   8.261   9.414  0.3540 -1.9030  2.2163
  772MOL0     H 4194  10.586   8.108   9.396 -0.6468 -2.2259  2.2986
  772MOL0     H 4195  10.524   8.194   9.534 -1.4967  0.5176 -0.1409
  772MOL0     H 4196  10.435   7.946   9.407  2.0938  1.2370 -1.7369
  772MOL0     H 4197  10.307   8.039   9.492  0.9620  2.5801  3.9871
  772MOL0     H 4198  10.394   8.005   9.706 -1.7537  0.5645 -0.6897
  772MOL0     H 4199  10.430   7.851   9.615 -0.7269  0.8417 -1.4481
  772MOL0     H 4200  10.907   8.373   8.770 -0.1844  0.3401 -0.7785
  772MOL0     H 4201  10.967   8.262   8.574  2.0996 -2.8679 -0.8543
  772MOL0     H 4202  11.028   7.912   8.310  1.5123 -2.8167 -1.2524
  772MOL0     H 4203  11.131   7.830   8.118 -0.1361  0.5097  3.3500
  772MOL0     H 4204  11.003   7.844   7.137 -1.2286 -1.3981  0.1219
  772MOL0     H 4205  10.763   7.913   7.140  1.2693  0.0342  0.7417
  772MOL0     H 4206  10.335   7.784   6.766  1.2389 -0.0441 -2.2959
  772MOL0     H 4207  10.112   7.845   6.700  1.0525  0.6267 -4.5601
  772MOL0     H 4208   9.974   8.152   6.909 -2.0617 -1.5389  1.0841
  772MOL0     H 4209   9.878   8.028   6.837 -1.1642  0.9059  0.2987
  772MOL0     H 4210   9.729   8.212   6.869  0.0572 -3.4102 -1.5153
  772MOL0     H 4211   9.773   8.227   6.701 -0.7817 -1.0345  1.0311
  772MOL0     H 4212   9.941   8.392   6.772 -1.4821 -1.5828 -2.2367
  772MOL0     H 4213   9.913   8.384   6.939  1.9768  0.0340 -0.3440
  772MOL0     H 4214   9.658   8.451   6.869 -0.9530  1.7698 -0.8462
  772MOL0     H 4215   9.788   8.572   6.884 -0.0808  0.5307 -1.3295
  772MOL0     H 4216   9.702   8.632   6.482 -2.3656 -1.8644 -0.5653
  772MOL0     H 4217  10.192   8.259   6.800 -1.8168 -2.0877 -1.6813
  772MOL0     H 4218  10.387   8.299   6.963  1.6904  0.6638  0.6263
  772MOL0     H 4219  10.468   8.157   7.015  3.3453  1.5502 -0.5225
  772MOL0     H 4220  10.512   8.243   6.860  0.9768 -2.8027 -0.3093
  773MOL0     O 4221  11.282   6.658   7.784 -0.5517 -0.2544  0.2622
  773MOL0     C 4222  11.375   6.583   7.745  0.5049  1.0577  0.9556
  773MOL0     O 4223  11.477   6.635   7.673 -0.3370  1.1571 -0.0933
  773MOL0     C 4224  11.475   6.752   7.608 -0.7308 -0.1096  0.0083
  773MOL0     C 4225  11.596   6.818   7.596  1.2170 -0.2325 -0.7688
  773MOL0     C 4226  11.610   6.921   7.502  0.4384  0.2059  0.1410
  773MOL0     C 4227  11.507   6.964   7.426  0.0244 -0.7033  0.6823
  773MOL0     O 4228  11.513   7.064   7.324  0.3528  1.2623 -0.0387
  773MOL0     C 4229  11.558   7.194   7.372  0.3924  0.3750  0.1200
  773MOL0     C 4230  11.571   7.272   7.243 -0.3153 -0.5937 -0.7635
  773MOL0     C 4231  11.710   7.252   7.184  1.0047 -0.4050  0.0227
  773MOL0     C 4232  11.834   7.291   7.281  0.0970  0.6534 -0.2973
  773MOL0     C 4233  11.976   7.301   7.223 -0.1529 -0.0377  0.2580
  773MOL0     C 4234  12.027   7.164   7.211 -0.4194  0.9141 -0.2801
  773MOL0     C 4235  12.157   7.164   7.132  0.7734 -0.0402 -0.3734
  773MOL0     C 4236  12.253   7.271   7.198  0.7552  0.0311  0.8976
  773MOL0     N 4237  12.268   7.401   7.122  0.4284  0.0544 -0.8609
  773MOL0     C 4238  12.226   7.529   7.164  0.0305 -1.1080 -0.4630
  773MOL0     C 4239  12.293   7.603   7.068  0.7098  0.0262 -0.4076
  773MOL0     C 4240  12.316   7.749   7.087 -0.9290 -0.5104 -0.0835
  773MOL0     C 4241  12.355   7.825   6.961 -0.9566  0.1068  0.8286
  773MOL0     C 4242  12.345   7.975   6.977  0.4302 -0.1968  0.2096
  773MOL0     C 4243  12.453   8.033   7.072  0.8327 -0.0825  0.4536
  773MOL0     O 4244  12.582   8.008   7.017 -0.2583  0.3940  0.1524
  773MOL0     C 4245  12.681   7.941   7.081 -0.2733  0.2026  1.0905
  773MOL0     C 4246  12.688   7.899   7.209 -0.1588 -0.3395 -0.5288
  773MOL0     C 4247  12.795   7.836   7.262  0.2941  0.1057  0.6887
  773MOL0     C 4248  12.911   7.803   7.183  0.8985  0.2045  0.2153
  773MOL0     C 4249  13.013   7.733   7.247  0.4363 -0.4138 -0.7805
  773MOL0     O 4250  12.994   7.697   7.380 -1.0852 -0.5850 -0.3777
  773MOL0     C 4251  13.105   7.642   7.445 -0.1018 -0.3872 -0.4199
  773MOL0     C 4252  13.095   7.524   7.515  0.7615  0.8311 -0.5557
  773MOL0     C 4253  13.200   7.476   7.587  0.1200 -0.9542 -1.0287
  773MOL0     C 4254  13.326   7.533   7.584 -1.3196  0.2246  0.6137
  773MOL0     O 4255  13.425   7.457   7.644  0.3087  0.0468  0.7929
  773MOL0     C 4256  13.561   7.486   7.625 -0.0612 -1.2286 -0.1274
  773MOL0     C 4257  13.660   7.454   7.735 -0.2545 -0.6149 -0.2121
  773MOL0     C 4258  13.622   7.495   7.876  0.2904 -0.8066  0.5297
  773MOL0     C 4259  13.487   7.444   7.925  0.2952  0.5979  0.2484
  773MOL0     C 4260  13.477   7.447   8.082  0.1285  0.1498  0.0858
  773MOL0     C 4261  13.541   7.323   8.148  0.1463  0.3307  0.2839
  773MOL0     C 4262  13.543   7.345   8.301  0.8745 -0.4293 -0.1692
  773MOL0     C 4263  13.661   7.264   8.358 -0.6108 -0.3934 -1.0963
  773MOL0    Cl 4264  13.650   7.092   8.324 -0.0489 -0.0520  0.3892
  773MOL0     C 4265  13.345   7.645   7.500  0.0095  0.3641  1.5228
  773MOL0     C 4266  13.232   7.700   7.431 -0.9652 -0.2094 -0.0042
  773MOL0     O 4267  13.111   7.705   7.181 -0.4008  0.1443 -0.2889
  773MOL0     C 4268  12.906   7.848   7.051  0.0243  0.7949  0.2924
  773MOL0     C 4269  12.791   7.914   7.003  0.5097  0.5539  0.8137
  773MOL0     N 4270  12.347   7.527   6.976  0.1757  0.2734 -0.0903
  773MOL0     N 4271  12.315   7.404   6.998 -0.2366 -0.2581  0.0225
  773MOL0     C 4272  11.389   6.900   7.443 -0.1909  0.3972  0.1115
  773MOL0     C 4273  11.374   6.793   7.527 -0.2307  0.0741 -1.1490
  773MOL0     C 4274  11.362   6.449   7.760  0.6192  0.1386 -0.0808
  773MOL0     C 4275  11.455   6.381   7.840  0.9313  0.0431  0.8115
  773MOL0     C 4276  11.454   6.236   7.846  1.3984 -0.0703  0.5818
  773MOL0     C 4277  11.368   6.163   7.762  0.0413 -0.5441 -0.0127
  773MOL0     O 4278  11.370   6.024   7.770  0.2401 -0.3741  0.6857
  773MOL0     C 4279  11.267   5.943   7.723 -0.3496 -0.8789 -0.7128
  773MOL0     C 4280  11.309   5.792   7.735  0.0938 -0.2974 -0.2057
  773MOL0     C 4281  11.333   5.745   7.879  0.4756 -1.3229 -0.2839
  773MOL0     C 4282  11.392   5.610   7.894 -0.5942  1.5006  0.2886
  773MOL0     C 4283  11.382   5.580   8.034 -0.0828  0.1987 -0.5169
  773MOL0     C 4284  11.355   5.565   8.151  0.1416 -0.5043 -0.2836
  773MOL0     C 4285  11.268   6.229   7.694 -0.2582  0.7442  0.2134
  773MOL0     C 4286  11.267   6.368   7.685 -0.0030 -1.4557 -0.1527
  773MOL0     C 4287  11.158   6.445   7.605  0.5825  0.0114 -0.4211
  773MOL0     H 4288  11.680   6.791   7.660  3.0705  0.1189 -2.9454
  773MOL0     H 4289  11.710   6.959   7.482  0.8382 -0.0871  1.5192
  773MOL0     H 4290  11.482   7.248   7.429  1.0519  2.4732 -0.8720
  773MOL0     H 4291  11.650   7.186   7.430  0.1476  0.9864  0.6050
  773MOL0     H 4292  11.543   7.377   7.261 -2.3926 -1.0248 -1.1697
  773MOL0     H 4293  11.496   7.234   7.174 -0.3781 -2.2822  0.1935
  773MOL0     H 4294  11.716   7.325   7.102 -2.1620 -0.2836 -0.1997
  773MOL0     H 4295  11.714   7.158   7.129  1.5867 -0.2488 -0.2151
  773MOL0     H 4296  11.814   7.389   7.325 -3.1097 -1.2167  2.9133
  773MOL0     H 4297  11.842   7.219   7.363  1.3356 -0.7017 -1.5391
  773MOL0     H 4298  11.977   7.350   7.126  1.4613  0.1449  0.3297
  773MOL0     H 4299  12.041   7.359   7.290  1.3266 -1.6867  0.3227
  773MOL0     H 4300  12.064   7.123   7.305 -2.2406 -4.2203 -1.4377
  773MOL0     H 4301  11.967   7.086   7.164  2.2138 -1.4821  0.0580
  773MOL0     H 4302  12.150   7.199   7.029  2.5291  1.7396  0.0367
  773MOL0     H 4303  12.197   7.063   7.130 -0.6735 -0.6329 -0.5386
  773MOL0     H 4304  12.222   7.300   7.299 -2.0056 -1.0596  0.4620
  773MOL0     H 4305  12.348   7.217   7.194  1.2345  0.9107  0.0447
  773MOL0     H 4306  12.193   7.570   7.259 -0.5578 -0.5208 -0.9013
  773MOL0     H 4307  12.221   7.794   7.118 -0.5025  1.4910 -1.5147
  773MOL0     H 4308  12.386   7.767   7.169 -1.5687  0.0032  0.3607
  773MOL0     H 4309  12.454   7.796   6.924 -1.9468 -1.1226 -1.0065
  773MOL0     H 4310  12.292   7.789   6.879  0.5392  1.1336 -0.8509
  773MOL0     H 4311  12.248   8.003   7.019 -0.3263 -1.4882 -0.6051
  773MOL0     H 4312  12.352   8.024   6.880  0.6228  1.7886  1.1839
  773MOL0     H 4313  12.424   8.000   7.173 -1.4325 -0.1395 -0.1564
  773MOL0     H 4314  12.452   8.143   7.075 -2.2853  0.0509 -1.1200
  773MOL0     H 4315  12.611   7.921   7.283  0.3411 -1.6886  0.4492
  773MOL0     H 4316  12.788   7.823   7.369 -1.4944 -2.5592  0.3522
  773MOL0     H 4317  13.011   7.455   7.514  0.5614  1.0726 -0.5345
  773MOL0     H 4318  13.196   7.383   7.644  1.5510  0.7991  2.1895
  773MOL0     H 4319  13.601   7.437   7.535  1.6516 -6.5327  3.0653
  773MOL0     H 4320  13.570   7.595   7.619 -3.0362 -0.8891  0.2856
  773MOL0     H 4321  13.672   7.345   7.723  2.3565 -0.3799 -0.2598
  773MOL0     H 4322  13.756   7.505   7.722 -1.5610  1.9485 -0.2402
  773MOL0     H 4323  13.697   7.462   7.948  1.0491 -0.4117 -0.0687
  773MOL0     H 4324  13.640   7.603   7.877  2.5061 -1.1182  0.2859
  773MOL0     H 4325  13.463   7.344   7.887 -0.9354  0.8572  0.2938
  773MOL0     H 4326  13.407   7.507   7.884 -0.4719 -0.1220  0.5918
  773MOL0     H 4327  13.370   7.447   8.106 -0.5648  1.7070 -2.5280
  773MOL0     H 4328  13.512   7.540   8.128 -2.0598  0.5185  1.1333
  773MOL0     H 4329  13.495   7.226   8.125  0.8236  0.0862 -0.0766
  773MOL0     H 4330  13.646   7.317   8.119  0.0232 -0.9431  0.0554
  773MOL0     H 4331  13.446   7.318   8.345 -0.4597  3.7199 -0.0842
  773MOL0     H 4332  13.561   7.450   8.325  2.1681 -0.5031 -0.7774
  773MOL0     H 4333  13.757   7.296   8.318 -0.4174 -0.9349 -1.0761
  773MOL0     H 4334  13.664   7.285   8.465  2.3347 -2.3333 -0.6704
  773MOL0     H 4335  13.438   7.692   7.471 -1.8150  2.1426 -2.0631
  773MOL0     H 4336  13.258   7.782   7.365 -2.1838  0.4736  0.3313
  773MOL0     H 4337  12.992   7.812   6.995  1.9353  1.7643  2.4495
  773MOL0     H 4338  12.802   7.961   6.906  1.6783 -1.4261 -0.0744
  773MOL0     H 4339  11.307   6.933   7.380  0.3384 -0.3438 -0.9897
  773MOL0     H 4340  11.280   6.739   7.523  0.5983 -1.5174 -0.1568
  773MOL0     H 4341  11.518   6.449   7.896  3.6587 -0.0896 -1.8511
  773MOL0     H 4342  11.532   6.191   7.906  1.3758 -3.8568 -1.9076
  773MOL0     H 4343  11.236   5.969   7.622 -5.2165  1.0975  0.9802
  773MOL0     H 4344  11.179   5.957   7.786  1.7046 -2.1774  2.7849
  773MOL0     H 4345  11.399   5.781   7.674 -2.1191 -2.5468 -3.4592
  773MOL0     H 4346  11.237   5.725   7.687 -1.7871  1.6851 -0.2950
  773MOL0     H 4347  11.238   5.757   7.932  0.3540 -1.9785 -0.3532
  773MOL0     H 4348  11.396   5.824   7.922 -1.4175  0.8134 -1.2135
  773MOL0     H 4349  11.351   5.534   7.826  3.6580 -1.0000  0.1799
  773MOL0     H 4350  11.495   5.607   7.859 -0.5687  2.0560  0.3081
  773MOL0     H 4351  11.342   5.560   8.257  1.8428 -0.7355 -0.0455
  773MOL0     H 4352  11.189   6.187   7.632  1.4114 -0.4834 -1.1988
  773MOL0     H 4353  11.201   6.484   7.512  2.9984  0.3138  0.7225
  773MOL0     H 4354  11.078   6.372   7.587 -2.1946  2.3936  1.4639
  773MOL0     H 4355  11.103   6.526   7.652 -5.6481 -5.3038  3.1268
  774MOL0     O 4356  11.319   9.536   0.774  0.2061  0.2403 -0.5356
  774MOL0     C 4357  11.233   9.504   0.856 -0.1036 -0.2587  0.4238
  774MOL0     O 4358  11.133   9.418   0.836 -0.1701 -0.0071 -1.0466
  774MOL0     C 4359  11.127   9.345   0.726  0.3527 -0.3476  0.3680
  774MOL0     C 4360  11.236   9.259   0.691  0.9298  0.1869 -1.2659
  774MOL0     C 4361  11.225   9.202   0.565 -0.5301  0.6039  0.4757
  774MOL0     C 4362  11.120   9.224   0.476 -0.1476 -0.7657  0.6748
  774MOL0     O 4363  11.114   9.169   0.346 -0.3576 -0.3622 -0.0983
  774MOL0     C 4364  11.217   9.215   0.258  0.6316  0.6614 -0.1439
  774MOL0     C 4365  11.228   9.112   0.146  0.4766 -1.2668  0.2298
  774MOL0     C 4366  11.270   8.976   0.206  0.4261 -0.1060  0.5348
  774MOL0     C 4367  11.316   8.872   0.101  0.1785  0.1160 -0.0797
  774MOL0     C 4368  11.214   8.827  -0.003 -0.7760 -0.1859 -0.4491
  774MOL0     C 4369  11.229   8.684  -0.054  0.1334 -0.6216  1.3227
  774MOL0     C 4370  11.141   8.565   0.003  0.0705  0.5716  0.5477
  774MOL0     C 4371  11.196   8.433  -0.071 -0.4995 -0.6746 -0.4185
  774MOL0     N 4372  11.100   8.333  -0.038 -0.0167  0.4867  0.3761
  774MOL0     C 4373  10.988   8.301  -0.103 -0.3427  0.5111  0.9759
  774MOL0     C 4374  10.937   8.193  -0.040  0.6483  0.1174 -0.8379
  774MOL0     C 4375  10.814   8.113  -0.088 -0.3653 -0.1943  0.4376
  774MOL0     C 4376  10.844   7.970  -0.118 -0.1835 -0.3216  0.4733
  774MOL0     C 4377  10.937   7.946  -0.229 -0.1394  0.1689  0.3989
  774MOL0     C 4378  10.871   7.979  -0.364 -0.0196 -0.0939  1.3883
  774MOL0     O 4379  10.879   8.122  -0.381  0.1079 -0.0333 -1.1405
  774MOL0     C 4380  10.976   8.171  -0.471  1.0544  0.3906 -0.1045
  774MOL0     C 4381  10.945   8.297  -0.528 -0.0603 -0.2791  1.2851
  774MOL0     C 4382  11.031   8.350  -0.624 -0.3216 -0.1154  0.3118
  774MOL0     C 4383  11.149   8.273  -0.658  0.4013 -0.0350 -0.5034
  774MOL0     C 4384  11.254   8.339  -0.749  0.9566  0.1680  0.0891
  774MOL0     O 4385  11.366   8.269  -0.767  0.4792 -0.0813  0.7973
  774MOL0     C 4386  11.469   8.332  -0.835 -0.4374 -0.7378 -0.1678
  774MOL0     C 4387  11.510   8.268  -0.963 -0.2215 -0.6468 -0.2052
  774MOL0     C 4388  11.593   8.342  -1.045 -0.4097  1.0840  0.3083
  774MOL0     C 4389  11.673   8.443  -1.002  0.0715 -0.1521  0.5845
  774MOL0     O 4390  11.764   8.523  -1.067 -0.3560  0.0324  0.5614
  774MOL0     C 4391  11.764   8.505  -1.215  0.2716 -0.1499 -0.5376
  774MOL0     C 4392  11.678   8.611  -1.283  0.4637 -0.2273 -0.8167
  774MOL0     C 4393  11.757   8.742  -1.304 -0.0195 -0.4569  0.0796
  774MOL0     C 4394  11.677   8.814  -1.421  0.4323  0.3246 -0.0649
  774MOL0     C 4395  11.535   8.857  -1.384 -0.6431  0.3044 -0.4105
  774MOL0     C 4396  11.475   8.959  -1.476  0.9770 -0.4366  0.7807
  774MOL0     C 4397  11.319   8.953  -1.481 -0.0452  0.8468 -0.2098
  774MOL0     C 4398  11.253   9.051  -1.378 -0.6884 -0.0562  0.5902
  774MOL0    Cl 4399  11.080   9.062  -1.412  0.3688  0.0491  0.0293
  774MOL0     C 4400  11.649   8.483  -0.872  0.2742  0.4854  0.2003
  774MOL0     C 4401  11.545   8.444  -0.790  0.4558  0.1269  0.1047
  774MOL0     O 4402  11.238   8.456  -0.796 -0.2604  0.1736 -0.6103
  774MOL0     C 4403  11.167   8.149  -0.602  0.4126 -0.2153  0.0602
  774MOL0     C 4404  11.091   8.096  -0.498  0.0355 -0.4137 -0.6208
  774MOL0     N 4405  11.029   8.157   0.060  0.7914 -0.7746 -0.4732
  774MOL0     N 4406  11.129   8.239   0.055 -0.0602 -0.6857  0.2340
  774MOL0     C 4407  11.010   9.307   0.513 -0.3802 -0.1232 -0.4702
  774MOL0     C 4408  11.022   9.370   0.642 -0.2052 -0.2465 -0.0847
  774MOL0     C 4409  11.226   9.587   0.981  0.1028 -0.5387 -0.7268
  774MOL0     C 4410  11.155   9.537   1.086 -0.1775  0.4029 -0.4691
  774MOL0     C 4411  11.142   9.610   1.207  0.4618  0.8385  0.0939
  774MOL0     C 4412  11.193   9.734   1.221 -0.0633 -0.6923  0.6538
  774MOL0     O 4413  11.171   9.821   1.324  0.8814 -0.1890  0.3226
  774MOL0     C 4414  11.065   9.779   1.420 -0.0977 -0.0762 -0.5213
  774MOL0     C 4415  11.041   9.879   1.541  0.8474  0.4078 -0.3351
  774MOL0     C 4416  11.178   9.909   1.607  0.6294 -0.8068 -0.6859
  774MOL0     C 4417  11.175  10.034   1.709  0.5952  1.0280 -0.1376
  774MOL0     C 4418  11.121  10.157   1.647 -0.2821 -0.9638 -0.8893
  774MOL0     C 4419  11.066  10.234   1.569 -0.3662  0.4102 -0.1880
  774MOL0     C 4420  11.260   9.792   1.124 -0.5290 -0.1762 -0.2920
  774MOL0     C 4421  11.277   9.725   1.001  0.0486  0.3408 -0.3168
  774MOL0     C 4422  11.357   9.797   0.900  0.1152 -0.4296 -0.0551
  774MOL0     H 4423  11.313   9.221   0.757 -1.5922 -2.7547  0.2129
  774MOL0     H 4424  11.298   9.131   0.529 -0.8657  1.0808 -1.2560
  774MOL0     H 4425  11.179   9.309   0.217  1.5493  1.0977 -0.0165
  774MOL0     H 4426  11.317   9.228   0.301  0.5405  2.6488 -0.4684
  774MOL0     H 4427  11.284   9.149   0.060 -1.1122 -0.7053 -0.5985
  774MOL0     H 4428  11.129   9.102   0.102  0.1066  3.4305 -0.5112
  774MOL0     H 4429  11.181   8.936   0.256  0.2907  0.1779  0.5250
  774MOL0     H 4430  11.342   8.997   0.285  0.5084  1.8802 -0.0088
  774MOL0     H 4431  11.403   8.908   0.044 -1.0809 -1.2207 -3.0558
  774MOL0     H 4432  11.349   8.787   0.162  0.0547  0.1130 -0.0182
  774MOL0     H 4433  11.108   8.843   0.020 -1.8609 -2.0209 -3.5156
  774MOL0     H 4434  11.206   8.894  -0.090  1.9863 -3.1981 -3.3300
  774MOL0     H 4435  11.216   8.695  -0.162 -0.4506 -0.1117  1.4395
  774MOL0     H 4436  11.329   8.647  -0.026  0.8160 -0.2241 -0.4653
  774MOL0     H 4437  11.034   8.578  -0.014 -0.1663 -1.7894 -0.1513
  774MOL0     H 4438  11.167   8.552   0.108  4.4932 -0.5114 -0.4352
  774MOL0     H 4439  11.195   8.454  -0.179 -0.1861 -2.0302 -0.6971
  774MOL0     H 4440  11.296   8.402  -0.039  1.6045  4.5424 -0.7981
  774MOL0     H 4441  10.949   8.356  -0.189 -0.0595  1.6653  1.5717
  774MOL0     H 4442  10.745   8.095  -0.005  1.6367 -3.4175  1.5951
  774MOL0     H 4443  10.751   8.156  -0.167 -1.4771 -2.5280 -0.0590
  774MOL0     H 4444  10.881   7.908  -0.037 -2.5477 -1.4450  0.7712
  774MOL0     H 4445  10.751   7.914  -0.133 -0.7991  0.9387 -0.6607
  774MOL0     H 4446  10.962   7.840  -0.240 -3.2394 -0.3839 -3.0948
  774MOL0     H 4447  11.029   8.005  -0.224  0.9168 -1.3750 -0.1339
  774MOL0     H 4448  10.769   7.944  -0.383 -0.5158  2.0982 -0.3925
  774MOL0     H 4449  10.931   7.938  -0.445 -1.0759  2.9794 -1.1620
  774MOL0     H 4450  10.848   8.342  -0.509 -0.2667 -0.8646  1.6496
  774MOL0     H 4451  11.025   8.450  -0.664 -0.4415 -0.1023  0.3625
  774MOL0     H 4452  11.448   8.186  -0.999 -2.1379  1.5155 -2.1930
  774MOL0     H 4453  11.602   8.280  -1.133 -2.1458  0.8895  0.2447
  774MOL0     H 4454  11.869   8.501  -1.245  0.7871 -4.1155  1.0974
  774MOL0     H 4455  11.719   8.415  -1.258 -2.1927  2.2370 -3.4211
  774MOL0     H 4456  11.642   8.578  -1.380  2.5179  2.3341 -2.6062
  774MOL0     H 4457  11.598   8.638  -1.214  1.1076 -1.7004  0.5731
  774MOL0     H 4458  11.770   8.795  -1.210  2.3253 -2.4424  0.9559
  774MOL0     H 4459  11.855   8.708  -1.339 -0.7457  0.1797 -2.8607
  774MOL0     H 4460  11.683   8.763  -1.517  2.1558  2.1671 -1.0008
  774MOL0     H 4461  11.732   8.908  -1.435  0.5087  0.1574 -0.8956
  774MOL0     H 4462  11.533   8.907  -1.287 -0.3780 -1.6791  0.6810
  774MOL0     H 4463  11.469   8.770  -1.373  0.3773 -0.3999  0.3134
  774MOL0     H 4464  11.524   9.056  -1.464  0.1140  0.4516 -2.0894
  774MOL0     H 4465  11.514   8.926  -1.573 -3.2446 -1.0693 -0.9109
  774MOL0     H 4466  11.274   8.854  -1.473  1.6831 -0.1208 -1.7847
  774MOL0     H 4467  11.287   8.990  -1.579 -2.8730 -1.5899 -0.3222
  774MOL0     H 4468  11.285   9.016  -1.279  2.8477  3.0807  0.8088
  774MOL0     H 4469  11.307   9.142  -1.408 -0.6034 -1.0842 -2.7916
  774MOL0     H 4470  11.707   8.572  -0.849 -0.1687  1.1334 -1.0751
  774MOL0     H 4471  11.523   8.495  -0.697 -1.8541  0.3277 -0.4747
  774MOL0     H 4472  11.251   8.097  -0.646  1.4305  3.0970 -2.3373
  774MOL0     H 4473  11.122   8.009  -0.442 -4.0003 -2.5371 -1.3685
  774MOL0     H 4474  10.922   9.319   0.450  0.3416  0.0043 -1.4855
  774MOL0     H 4475  10.942   9.436   0.673 -1.5326 -1.5000 -0.7696
  774MOL0     H 4476  11.093   9.448   1.081  0.5414 -0.1882  0.8228
  774MOL0     H 4477  11.069   9.573   1.278  1.4199  2.7554  2.2381
  774MOL0     H 4478  11.091   9.681   1.462  2.2046  0.6378 -0.1561
  774MOL0     H 4479  10.969   9.789   1.368  0.3058  2.4605 -0.8983
  774MOL0     H 4480  10.985   9.818   1.612 -0.0919 -0.8487 -2.0557
  774MOL0     H 4481  10.979   9.963   1.511 -1.6883 -0.5835  1.7331
  774MOL0     H 4482  11.251   9.938   1.531  2.5782  0.2259  1.4322
  774MOL0     H 4483  11.212   9.826   1.669 -3.2368 -1.3905  0.9150
  774MOL0     H 4484  11.113  10.011   1.795  0.0292  2.9386  0.0135
  774MOL0     H 4485  11.276  10.049   1.746  0.8793  0.3967 -0.6255
  774MOL0     H 4486  11.006  10.293   1.503 -1.9266  0.3837  1.1477
  774MOL0     H 4487  11.299   9.892   1.142 -0.5522 -0.4595  1.5163
  774MOL0     H 4488  11.466   9.789   0.912  0.9274  3.8685 -2.6494
  774MOL0     H 4489  11.348   9.767   0.796 -0.2368  2.4051 -0.9107
  774MOL0     H 4490  11.343   9.905   0.912  0.3471 -0.4122  0.0740
  775MOL0     O 4491   7.857   2.496  11.168 -0.3605 -0.1190 -0.0632
  775MOL0     C 4492   7.733   2.491  11.137 -0.0632 -0.0235  0.1655
  775MOL0     O 4493   7.681   2.537  11.021 -0.8428  0.4441  0.7767
  775MOL0     C 4494   7.760   2.585  10.919  0.5498  0.2997  0.4918
  775MOL0     C 4495   7.745   2.716  10.886 -0.2853 -0.1437  0.5788
  775MOL0     C 4496   7.834   2.790  10.806  0.5098  1.2265  0.7308
  775MOL0     C 4497   7.954   2.728  10.756 -0.2213  0.7870 -1.0590
  775MOL0     O 4498   8.049   2.786  10.668 -0.5887  0.2263 -0.1584
  775MOL0     C 4499   8.080   2.705  10.551 -0.5676 -0.7883 -0.4693
  775MOL0     C 4500   8.167   2.793  10.471 -0.5607 -0.2006 -1.5033
  775MOL0     C 4501   8.167   2.774  10.319 -0.0533  0.0187  0.6145
  775MOL0     C 4502   8.264   2.673  10.260  0.1579  0.3727 -1.3554
  775MOL0     C 4503   8.402   2.718  10.273 -0.0629  0.0992  0.4395
  775MOL0     C 4504   8.450   2.807  10.168  0.0247  0.2963 -0.6840
  775MOL0     C 4505   8.594   2.757  10.132  0.3740 -0.3273  0.0171
  775MOL0     C 4506   8.644   2.837  10.012  0.1609  0.4450  0.0981
  775MOL0     N 4507   8.795   2.852  10.017  0.0569  0.1427 -0.7061
  775MOL0     C 4508   8.883   2.787   9.936  0.4190  1.2345  0.2153
  775MOL0     C 4509   9.002   2.844   9.948 -0.2237 -1.0876  0.0128
  775MOL0     C 4510   9.128   2.810   9.887  0.1590  0.4953  0.6541
  775MOL0     C 4511   9.163   2.887   9.754 -0.3162  0.6942 -0.7026
  775MOL0     C 4512   9.203   3.033   9.784 -1.0325  0.8841 -0.4879
  775MOL0     C 4513   9.212   3.126   9.657  0.1657 -0.9115 -0.3691
  775MOL0     O 4514   9.082   3.109   9.588 -0.1639 -0.5084 -0.5043
  775MOL0     C 4515   8.960   3.167   9.628  0.3468 -0.0150 -0.2626
  775MOL0     C 4516   8.953   3.248   9.742  0.3034  0.3499 -0.4045
  775MOL0     C 4517   8.835   3.320   9.770  0.5753 -0.9018  0.4594
  775MOL0     C 4518   8.710   3.303   9.697 -1.0137  0.0579  0.5485
  775MOL0     C 4519   8.590   3.376   9.746  0.7627  0.6134  0.2913
  775MOL0     O 4520   8.499   3.380   9.650  0.3170 -0.1187 -1.0321
  775MOL0     C 4521   8.378   3.427   9.681  0.4213 -0.1933 -0.0477
  775MOL0     C 4522   8.274   3.359   9.616 -0.6857 -0.8424 -0.4646
  775MOL0     C 4523   8.135   3.381   9.648 -0.0898  0.3221 -0.0556
  775MOL0     C 4524   8.095   3.485   9.733 -0.4249  0.0619 -0.1777
  775MOL0     O 4525   7.964   3.491   9.769  0.2288 -0.3470 -0.7286
  775MOL0     C 4526   7.899   3.617   9.792 -0.1403 -0.4072 -0.4246
  775MOL0     C 4527   7.790   3.652   9.690  0.2545  0.3944  0.2362
  775MOL0     C 4528   7.694   3.760   9.740 -0.3383 -0.5063 -0.5166
  775MOL0     C 4529   7.622   3.829   9.626  0.0480  1.4417  0.5680
  775MOL0     C 4530   7.717   3.930   9.539  0.3337  0.2826 -0.0665
  775MOL0     C 4531   7.724   4.052   9.616  0.5856  0.1849  0.7341
  775MOL0     C 4532   7.824   4.148   9.551 -0.2280 -0.8926 -0.0619
  775MOL0     C 4533   7.779   4.197   9.416  0.0890 -0.3244  1.2291
  775MOL0    Cl 4534   7.614   4.258   9.422  0.1771  0.1357 -0.3192
  775MOL0     C 4535   8.201   3.554   9.797 -0.0796 -0.2848 -0.5979
  775MOL0     C 4536   8.339   3.533   9.769 -0.1749  0.0947 -0.1198
  775MOL0     O 4537   8.568   3.401   9.859 -0.0542 -0.0951 -0.5432
  775MOL0     C 4538   8.722   3.199   9.601 -0.1012 -0.1732  0.3439
  775MOL0     C 4539   8.842   3.146   9.557  0.6274 -0.1160 -0.8043
  775MOL0     N 4540   8.984   2.949  10.041  0.5610 -0.2898  0.5121
  775MOL0     N 4541   8.866   2.948  10.089  0.0092 -0.9042 -0.0788
  775MOL0     C 4542   7.966   2.590  10.792  0.8478 -0.6038 -0.3120
  775MOL0     C 4543   7.870   2.523  10.881 -0.4172  0.0452  0.4039
  775MOL0     C 4544   7.644   2.449  11.252 -0.4241  0.4441 -0.1030
  775MOL0     C 4545   7.684   2.470  11.383  0.0724 -0.6668 -0.1751
  775MOL0     C 4546   7.599   2.448  11.492 -0.3272 -0.7177 -0.0686
  775MOL0     C 4547   7.476   2.382  11.479 -0.3268  0.1189  0.6009
  775MOL0     O 4548   7.397   2.339  11.576  0.1388  0.6307 -0.0402
  775MOL0     C 4549   7.430   2.334  11.713 -1.5190  0.0968 -0.3711
  775MOL0     C 4550   7.527   2.220  11.728  0.4310  0.0665 -1.1901
  775MOL0     C 4551   7.560   2.191  11.882 -0.3937 -0.9693  0.0187
  775MOL0     C 4552   7.690   2.097  11.906 -0.6388  0.7308  0.6871
  775MOL0     C 4553   7.670   1.957  11.884  0.8224 -0.2656 -0.4049
  775MOL0     C 4554   7.644   1.845  11.862 -1.1907 -0.6874  0.5936
  775MOL0     C 4555   7.434   2.359  11.348 -0.1773  1.2514 -0.2516
  775MOL0     C 4556   7.520   2.386  11.235 -0.2607  0.0474 -1.2000
  775MOL0     C 4557   7.465   2.350  11.104 -0.0755  0.4364 -0.1312
  775MOL0     H 4558   7.652   2.758  10.922  1.1082  0.6087  3.7215
  775MOL0     H 4559   7.815   2.897  10.798 -2.8614  0.9375  2.9411
  775MOL0     H 4560   8.132   2.611  10.570 -1.1102 -0.8131  0.9684
  775MOL0     H 4561   7.993   2.680  10.490  2.8952 -4.5053 -4.6165
  775MOL0     H 4562   8.266   2.793  10.518 -0.8710  4.5762 -0.2309
  775MOL0     H 4563   8.112   2.887  10.484 -0.5683 -0.4858  1.2559
  775MOL0     H 4564   8.181   2.869  10.267 -0.3967  1.1342  2.4299
  775MOL0     H 4565   8.066   2.747  10.286 -0.7148  6.1851 -4.3800
  775MOL0     H 4566   8.259   2.580  10.317  2.8186  1.1907  0.4381
  775MOL0     H 4567   8.231   2.658  10.157 -0.2046  0.9521 -1.3268
  775MOL0     H 4568   8.411   2.768  10.370  0.8076  0.3751  0.2286
  775MOL0     H 4569   8.459   2.626  10.284  0.1791  0.3588  1.4395
  775MOL0     H 4570   8.385   2.803  10.080  1.0563 -0.8832 -1.4406
  775MOL0     H 4571   8.446   2.900  10.225 -2.9958  0.7910 -1.5197
  775MOL0     H 4572   8.586   2.654  10.097 -1.4795  0.3710 -1.8202
  775MOL0     H 4573   8.653   2.770  10.223 -1.8204 -2.3708  1.8825
  775MOL0     H 4574   8.600   2.803   9.917  1.7829  1.5211 -1.1062
  775MOL0     H 4575   8.603   2.937  10.027 -2.0975 -0.6041  1.4483
  775MOL0     H 4576   8.846   2.713   9.866 -0.3464 -0.9572  2.7630
  775MOL0     H 4577   9.205   2.819   9.964  0.3748 -3.1770  1.0867
  775MOL0     H 4578   9.119   2.704   9.860 -2.8164  0.7438  0.3766
  775MOL0     H 4579   9.229   2.819   9.700  1.7010 -0.8947  3.2887
  775MOL0     H 4580   9.066   2.893   9.706 -1.7948  1.7749  2.1919
  775MOL0     H 4581   9.306   3.037   9.822 -1.0104  1.5584 -0.6045
  775MOL0     H 4582   9.142   3.079   9.862 -0.4909  0.5178  0.1632
  775MOL0     H 4583   9.292   3.106   9.586 -1.1057  0.0459 -2.1609
  775MOL0     H 4584   9.240   3.223   9.700  0.1528 -1.5175  1.0587
  775MOL0     H 4585   9.034   3.240   9.813  0.1899 -1.2607 -0.4107
  775MOL0     H 4586   8.839   3.391   9.852  2.2591  1.0979 -1.2554
  775MOL0     H 4587   8.294   3.280   9.545 -0.7084 -0.8291 -0.4854
  775MOL0     H 4588   8.074   3.300   9.610 -0.1339  0.1063  0.4605
  775MOL0     H 4589   7.854   3.614   9.891 -2.4485  0.4973 -1.3916
  775MOL0     H 4590   7.969   3.702   9.787 -0.4695  0.1750  2.7064
  775MOL0     H 4591   7.833   3.676   9.593 -3.5888 -3.0040 -2.6418
  775MOL0     H 4592   7.725   3.567   9.666  0.7360  0.7157 -2.4826
  775MOL0     H 4593   7.636   3.718   9.823  0.2954  0.3790  0.3929
  775MOL0     H 4594   7.766   3.831   9.781 -0.0338 -1.8545  1.3785
  775MOL0     H 4595   7.531   3.875   9.666  0.0531  1.6654  0.3258
  775MOL0     H 4596   7.588   3.744   9.566 -2.1975  1.5802  1.5305
  775MOL0     H 4597   7.670   3.965   9.446 -0.9391  4.3689  1.8883
  775MOL0     H 4598   7.810   3.882   9.506  0.0408 -1.1103  1.0428
  775MOL0     H 4599   7.627   4.103   9.622  1.0363  1.2960 -0.6661
  775MOL0     H 4600   7.776   4.035   9.711 -1.1207 -1.3955  1.4322
  775MOL0     H 4601   7.919   4.098   9.530  1.2228  2.4740 -2.5702
  775MOL0     H 4602   7.851   4.237   9.609  0.4676  0.2207 -1.9853
  775MOL0     H 4603   7.846   4.274   9.377 -0.1571 -1.2275 -1.1933
  775MOL0     H 4604   7.770   4.120   9.339 -0.0759  2.3142 -1.6018
  775MOL0     H 4605   8.178   3.629   9.871  2.4946 -1.5147  1.6436
  775MOL0     H 4606   8.410   3.605   9.809  1.9859 -0.4205 -2.7588
  775MOL0     H 4607   8.629   3.157   9.567  0.9963 -0.5551 -2.4399
  775MOL0     H 4608   8.818   3.067   9.486 -4.6801 -1.5377  2.0819
  775MOL0     H 4609   8.055   2.535  10.765  1.2214 -0.0618 -0.2012
  775MOL0     H 4610   7.890   2.431  10.935  2.1484  0.4273  0.2222
  775MOL0     H 4611   7.784   2.509  11.400 -1.5451  2.4435  4.2748
  775MOL0     H 4612   7.629   2.476  11.592  0.2433 -2.0656  0.1732
  775MOL0     H 4613   7.345   2.307  11.776 -2.1512 -2.4481 -2.1276
  775MOL0     H 4614   7.476   2.426  11.750 -2.7188  1.1653 -1.4030
  775MOL0     H 4615   7.629   2.244  11.694  1.6046 -0.4316  1.7204
  775MOL0     H 4616   7.488   2.130  11.681 -1.1982  0.4375 -0.5937
  775MOL0     H 4617   7.469   2.144  11.921 -0.2145 -0.6271  0.8716
  775MOL0     H 4618   7.582   2.289  11.925  0.8692 -1.1836 -0.0880
  775MOL0     H 4619   7.765   2.133  11.836  0.9011  1.8595  2.8131
  775MOL0     H 4620   7.725   2.116  12.008 -0.2955  0.8179  0.5536
  775MOL0     H 4621   7.622   1.742  11.843 -0.9070 -1.3414  3.4069
  775MOL0     H 4622   7.340   2.307  11.335 -1.1322  2.9802 -0.5979
  775MOL0     H 4623   7.527   2.285  11.041 -1.5227 -0.7912 -0.3295
  775MOL0     H 4624   7.367   2.304  11.110  0.0804  0.2704  1.5149
  775MOL0     H 4625   7.448   2.440  11.044 -2.9233 -0.7422 -1.2817
  776MOL0     O 4626   5.649   7.978   6.376 -0.0704  0.8332  0.1907
  776MOL0     C 4627   5.755   8.030   6.423  0.2444 -0.6406  0.2722
  776MOL0     O 4628   5.867   8.062   6.351  0.2540  0.6153  0.0113
  776MOL0     C 4629   5.877   8.057   6.212  0.3753  0.1542 -0.1298
  776MOL0     C 4630   5.786   7.993   6.115 -0.1819  0.7573  0.2078
  776MOL0     C 4631   5.799   8.002   5.979  0.0427 -0.0894 -0.4441
  776MOL0     C 4632   5.897   8.088   5.928  0.5906  0.0723  0.8516
  776MOL0     O 4633   5.895   8.109   5.792 -0.4846  0.1065 -0.0954
  776MOL0     C 4634   6.007   8.180   5.741 -0.3833  0.4496  0.0927
  776MOL0     C 4635   6.008   8.191   5.590  0.6563  0.3245 -0.8527
  776MOL0     C 4636   5.909   8.301   5.532 -1.2158  0.0335 -0.0813
  776MOL0     C 4637   5.938   8.331   5.384 -0.2538 -0.0501  0.8964
  776MOL0     C 4638   5.819   8.385   5.313  0.3715  0.1086 -0.1523
  776MOL0     C 4639   5.834   8.392   5.162  0.2600  0.8284 -1.0381
  776MOL0     C 4640   5.714   8.471   5.095 -0.6495  1.0840 -0.2462
  776MOL0     C 4641   5.745   8.583   4.993  0.7340  0.6405  0.2094
  776MOL0     N 4642   5.811   8.700   5.048 -0.2268  0.0654 -1.4440
  776MOL0     C 4643   5.921   8.751   4.979 -0.2927  0.9030 -0.1865
  776MOL0     C 4644   5.914   8.884   5.018 -0.3421  0.0021  0.0503
  776MOL0     C 4645   6.009   8.985   4.959  0.4338  0.2857 -0.3157
  776MOL0     C 4646   6.152   8.971   5.017 -0.5696  0.2428  0.4117
  776MOL0     C 4647   6.246   9.052   4.935  0.1118  0.5217 -0.0717
  776MOL0     C 4648   6.380   9.061   5.012  0.4303 -0.3013 -0.2105
  776MOL0     O 4649   6.475   9.130   4.944 -0.4265 -0.1211 -0.7342
  776MOL0     C 4650   6.598   9.145   5.019  0.0003  0.5495 -0.1625
  776MOL0     C 4651   6.695   9.204   4.941 -0.4512  0.3009 -0.5576
  776MOL0     C 4652   6.832   9.217   4.985  0.1183  0.7155 -0.0371
  776MOL0     C 4653   6.869   9.163   5.109 -0.3863  0.3604 -0.2323
  776MOL0     C 4654   7.003   9.176   5.156  0.2866  0.6045  0.8089
  776MOL0     O 4655   7.037   9.104   5.264  0.2185 -0.8074 -0.3087
  776MOL0     C 4656   7.140   9.012   5.252  0.2806  0.2131 -0.1907
  776MOL0     C 4657   7.151   8.931   5.143 -0.1740 -0.3549 -0.7267
  776MOL0     C 4658   7.248   8.833   5.139  0.4216  0.0036  0.5780
  776MOL0     C 4659   7.333   8.817   5.248  0.0989 -0.5416 -0.2951
  776MOL0     O 4660   7.424   8.719   5.256 -0.3634  0.3499 -1.2852
  776MOL0     C 4661   7.419   8.601   5.173  0.0101 -0.3855 -0.1716
  776MOL0     C 4662   7.502   8.621   5.044 -0.0106  0.2367 -0.0784
  776MOL0     C 4663   7.660   8.639   5.050 -0.2961 -0.3759 -0.8357
  776MOL0     C 4664   7.740   8.514   5.086 -0.2519  0.7903  0.0988
  776MOL0     C 4665   7.881   8.538   5.049  1.1360 -0.9005 -1.0014
  776MOL0     C 4666   7.953   8.641   5.139  0.1733  0.5281  1.1374
  776MOL0     C 4667   8.011   8.554   5.260  0.4684 -0.8243  0.3022
  776MOL0     C 4668   8.111   8.631   5.344  0.0296 -0.9110  0.1456
  776MOL0    Cl 4669   8.026   8.728   5.463  0.2225  0.0403 -0.1136
  776MOL0     C 4670   7.319   8.892   5.368 -0.4104  0.2090  0.1682
  776MOL0     C 4671   7.217   8.990   5.369 -0.2833 -0.5243 -0.3272
  776MOL0     O 4672   7.081   9.235   5.088  0.5720 -0.2052 -0.5007
  776MOL0     C 4673   6.771   9.108   5.189 -0.0281 -0.4867 -0.5389
  776MOL0     C 4674   6.633   9.105   5.149 -0.7534 -0.1452 -0.0395
  776MOL0     N 4675   5.821   8.902   5.120  0.2572  0.2673 -0.7756
  776MOL0     N 4676   5.760   8.792   5.136 -0.7199 -0.3164 -1.4431
  776MOL0     C 4677   5.984   8.159   6.016 -0.5418 -0.0243  0.0091
  776MOL0     C 4678   5.971   8.143   6.153 -0.1497  0.1972  0.7303
  776MOL0     C 4679   5.759   8.063   6.565  0.5587  0.6770 -0.6998
  776MOL0     C 4680   5.870   8.131   6.629  1.1712  0.7440 -0.3753
  776MOL0     C 4681   5.876   8.163   6.762  0.1605  0.6993 -0.9609
  776MOL0     C 4682   5.781   8.110   6.856  0.3342 -0.1199  0.4884
  776MOL0     O 4683   5.809   8.122   6.990 -0.1829 -0.3366  0.7394
  776MOL0     C 4684   5.721   8.073   7.087  0.7265  0.0137 -0.2450
  776MOL0     C 4685   5.739   7.925   7.106 -0.6240 -0.4482 -0.8227
  776MOL0     C 4686   5.631   7.864   7.199 -0.4460 -0.9124  0.4931
  776MOL0     C 4687   5.612   7.714   7.165  0.7651 -0.0683  0.2693
  776MOL0     C 4688   5.579   7.688   7.027  0.7196 -0.1045  0.8851
  776MOL0     C 4689   5.557   7.641   6.920  1.3902 -0.5476 -0.5743
  776MOL0     C 4690   5.675   8.045   6.799 -0.3372  0.2876  0.5704
  776MOL0     C 4691   5.662   8.007   6.657  0.0585 -0.5829  1.5309
  776MOL0     C 4692   5.563   7.907   6.622  0.3592 -0.6154  0.6748
  776MOL0     H 4693   5.699   7.942   6.155 -1.4280  2.8100  0.2493
  776MOL0     H 4694   5.734   7.959   5.904  2.2808 -4.5324 -0.1291
  776MOL0     H 4695   6.000   8.283   5.779  1.4655  0.7998 -0.3982
  776MOL0     H 4696   6.098   8.129   5.774 -0.6938 -0.7408 -0.8373
  776MOL0     H 4697   6.009   8.093   5.543  2.1105 -0.4846  0.7485
  776MOL0     H 4698   6.104   8.235   5.563 -0.3567  3.9004  0.6990
  776MOL0     H 4699   5.933   8.396   5.581 -1.2573 -0.3966  0.7919
  776MOL0     H 4700   5.807   8.266   5.549 -0.3685 -1.9499  1.3357
  776MOL0     H 4701   6.022   8.400   5.377 -1.2353  0.9733 -1.8573
  776MOL0     H 4702   5.972   8.244   5.327  1.1105  1.6219 -0.9904
  776MOL0     H 4703   5.728   8.329   5.333 -0.1159  0.6134 -0.9087
  776MOL0     H 4704   5.808   8.486   5.354  4.2802  0.5242  0.3170
  776MOL0     H 4705   5.928   8.445   5.143  0.9530 -1.1758 -3.8842
  776MOL0     H 4706   5.854   8.292   5.123  0.7893 -0.0121  1.2323
  776MOL0     H 4707   5.647   8.493   5.178  1.5638 -0.2340  2.0090
  776MOL0     H 4708   5.660   8.393   5.040  2.5985  0.5960 -3.0704
  776MOL0     H 4709   5.811   8.545   4.914  2.1515 -0.2067  1.7338
  776MOL0     H 4710   5.647   8.612   4.953 -0.1758 -1.1710  0.9993
  776MOL0     H 4711   5.995   8.719   4.906  1.1536 -1.1393  1.9879
  776MOL0     H 4712   6.007   8.968   4.851 -1.4014  0.5833 -0.3586
  776MOL0     H 4713   5.976   9.087   4.978  1.8007  0.5213  0.9819
  776MOL0     H 4714   6.149   8.998   5.123 -0.2016  1.2763  0.1671
  776MOL0     H 4715   6.193   8.870   5.005  1.9141  1.2414 -0.0903
  776MOL0     H 4716   6.211   9.154   4.916  1.1601  0.5778 -2.0227
  776MOL0     H 4717   6.257   9.013   4.833  2.2284  0.1516  0.2493
  776MOL0     H 4718   6.413   8.958   5.031 -2.0866 -1.6002 -2.2377
  776MOL0     H 4719   6.369   9.110   5.109  2.9097  0.4494 -0.2371
  776MOL0     H 4720   6.666   9.242   4.844  0.9421  0.1175 -1.0626
  776MOL0     H 4721   6.896   9.279   4.925  2.4745 -0.3716  1.2189
  776MOL0     H 4722   7.091   8.945   5.054 -0.3378  2.5241 -0.2446
  776MOL0     H 4723   7.251   8.776   5.047 -3.0564 -0.3843  0.5681
  776MOL0     H 4724   7.461   8.519   5.232 -1.2363  0.2253  1.6435
  776MOL0     H 4725   7.315   8.571   5.155 -0.8119  0.4152  2.7886
  776MOL0     H 4726   7.489   8.534   4.979 -0.1666  0.3212 -0.1614
  776MOL0     H 4727   7.459   8.700   4.981 -3.2924 -0.8826  0.5174
  776MOL0     H 4728   7.692   8.683   4.956 -1.1579 -2.5146 -2.2091
  776MOL0     H 4729   7.678   8.712   5.129  0.4855 -0.3009 -1.0809
  776MOL0     H 4730   7.717   8.434   5.015  4.6397 -0.9855  0.1610
  776MOL0     H 4731   7.724   8.475   5.187 -0.3942  1.6342  0.4103
  776MOL0     H 4732   7.891   8.582   4.949 -0.6276  3.1490  0.3961
  776MOL0     H 4733   7.919   8.436   5.045  0.2630 -1.3112  0.5552
  776MOL0     H 4734   8.046   8.668   5.086  0.0631  1.0915  1.2234
  776MOL0     H 4735   7.902   8.732   5.171  0.8689  1.0084  0.9081
  776MOL0     H 4736   8.067   8.469   5.221 -2.4514 -1.5729 -2.7310
  776MOL0     H 4737   7.922   8.520   5.315 -1.6646  0.9248 -1.8060
  776MOL0     H 4738   8.176   8.555   5.388 -0.4014 -1.7543 -0.6260
  776MOL0     H 4739   8.166   8.698   5.277  0.4749 -1.0343  0.3875
  776MOL0     H 4740   7.385   8.879   5.453 -1.6395  1.8442  1.4465
  776MOL0     H 4741   7.193   9.051   5.455  2.4193  1.1958 -0.6648
  776MOL0     H 4742   6.786   9.054   5.282  2.6052 -0.5961 -0.9543
  776MOL0     H 4743   6.554   9.060   5.208  0.4587 -1.6679  0.5044
  776MOL0     H 4744   6.057   8.231   5.980 -0.0638  0.6737  2.2308
  776MOL0     H 4745   6.029   8.215   6.210  2.9236 -0.1858 -1.6462
  776MOL0     H 4746   5.950   8.152   6.558  0.4802 -1.2813 -1.8740
  776MOL0     H 4747   5.963   8.218   6.794  0.7258 -1.1040  0.8282
  776MOL0     H 4748   5.619   8.105   7.062  0.7155 -0.5436 -0.9476
  776MOL0     H 4749   5.737   8.111   7.188 -1.5490 -1.0511  0.5692
  776MOL0     H 4750   5.837   7.923   7.155  0.8600  0.6327 -3.5518
  776MOL0     H 4751   5.758   7.879   7.009 -2.3813 -2.4428 -0.2965
  776MOL0     H 4752   5.543   7.928   7.192  1.4291  1.7413 -0.6189
  776MOL0     H 4753   5.659   7.874   7.304  0.1112  1.2100  0.2043
  776MOL0     H 4754   5.706   7.667   7.195 -1.0470 -2.5296  2.5526
  776MOL0     H 4755   5.547   7.657   7.232  1.1690 -1.2611 -0.3449
  776MOL0     H 4756   5.528   7.608   6.822  1.3968  1.5190 -1.3299
  776MOL0     H 4757   5.600   7.990   6.856  1.2799 -2.0692  0.5819
  776MOL0     H 4758   5.592   7.826   6.555 -4.3358 -1.1655 -1.0572
  776MOL0     H 4759   5.540   7.851   6.713  0.0923 -1.1714  0.2749
  776MOL0     H 4760   5.469   7.941   6.577  0.1954 -1.7773  0.0922
  777MOL0     O 4761   9.146   2.982   6.165  0.4334  0.4247  0.6796
  777MOL0     C 4762   9.159   2.929   6.054  0.2982  0.2630 -0.7160
  777MOL0     O 4763   9.235   2.818   6.025 -0.2306  0.2787  0.3211
  777MOL0     C 4764   9.316   2.761   6.120  0.2998  0.9721 -0.0006
  777MOL0     C 4765   9.383   2.833   6.218 -0.0106 -1.0472  0.2254
  777MOL0     C 4766   9.460   2.764   6.308  0.6188  0.9368  0.1546
  777MOL0     C 4767   9.461   2.624   6.310 -1.0123 -0.5294 -0.2700
  777MOL0     O 4768   9.517   2.570   6.423 -0.5251  0.0405 -0.5611
  777MOL0     C 4769   9.530   2.427   6.424 -0.3234  0.0404  0.6207
  777MOL0     C 4770   9.639   2.407   6.533 -0.3671  0.4197  0.3814
  777MOL0     C 4771   9.600   2.460   6.669  0.1757 -1.0730  0.7667
  777MOL0     C 4772   9.729   2.507   6.748 -0.0881  0.5361  0.0807
  777MOL0     C 4773   9.711   2.538   6.890 -0.3562 -0.0635 -0.0818
  777MOL0     C 4774   9.840   2.596   6.947 -0.5528  0.4309  1.0377
  777MOL0     C 4775   9.824   2.649   7.090  0.1706  0.2819 -0.2176
  777MOL0     C 4776   9.957   2.686   7.146  0.3756  0.5591  0.6132
  777MOL0     N 4777   9.944   2.738   7.286 -0.5480  1.0242  0.0469
  777MOL0     C 4778   9.872   2.845   7.309 -0.0620  0.5764 -0.7874
  777MOL0     C 4779   9.832   2.834   7.439 -0.6842 -0.1239  0.2953
  777MOL0     C 4780   9.748   2.932   7.528 -0.0211 -0.0223  0.4615
  777MOL0     C 4781   9.599   2.950   7.478  0.2858  0.6814 -1.4633
  777MOL0     C 4782   9.518   3.051   7.554 -0.5046 -0.2182 -0.6439
  777MOL0     C 4783   9.575   3.191   7.563 -0.3721 -0.7141  0.6399
  777MOL0     O 4784   9.480   3.273   7.620 -0.4294 -0.0694 -0.0572
  777MOL0     C 4785   9.526   3.394   7.664  0.2582 -0.7681  1.0375
  777MOL0     C 4786   9.462   3.462   7.770  0.1889 -0.3073 -0.0443
  777MOL0     C 4787   9.482   3.604   7.806  0.2962  0.1441  0.5906
  777MOL0     C 4788   9.588   3.669   7.740 -0.4281  0.1951  0.4425
  777MOL0     C 4789   9.641   3.807   7.774  0.0160 -0.5644 -0.0956
  777MOL0     O 4790   9.704   3.882   7.677 -0.2067 -0.3908 -0.5519
  777MOL0     C 4791   9.752   4.008   7.713  0.7590 -0.4536  0.4222
  777MOL0     C 4792   9.671   4.124   7.709 -0.4459  0.3653  0.6977
  777MOL0     C 4793   9.723   4.244   7.731 -0.5152 -0.3715  1.0123
  777MOL0     C 4794   9.851   4.258   7.783 -0.0259 -1.0330 -0.5958
  777MOL0     O 4795   9.909   4.380   7.819 -0.1960  0.4855  0.1459
  777MOL0     C 4796   9.828   4.493   7.843  0.5060  0.1726  0.5715
  777MOL0     C 4797   9.917   4.599   7.904  0.0158 -0.2202  0.6685
  777MOL0     C 4798   9.850   4.738   7.890  0.1281  0.3262  0.6973
  777MOL0     C 4799   9.951   4.860   7.904 -1.2878 -0.0606 -0.1458
  777MOL0     C 4800   9.909   4.987   7.821  0.5106  0.9775 -0.2816
  777MOL0     C 4801  10.006   5.098   7.826 -1.2609  0.0210  0.1258
  777MOL0     C 4802  10.138   5.083   7.752  0.0513 -1.2524  0.4620
  777MOL0     C 4803  10.230   5.194   7.807 -0.3757 -0.1751 -0.7839
  777MOL0    Cl 4804  10.275   5.192   7.989 -0.2424 -0.1150 -0.0410
  777MOL0     C 4805   9.928   4.139   7.800 -0.9145 -0.7251  0.1889
  777MOL0     C 4806   9.883   4.018   7.759 -0.0708  0.3322 -0.3076
  777MOL0     O 4807   9.613   3.846   7.885  0.6724 -0.2688  0.8013
  777MOL0     C 4808   9.653   3.602   7.639 -0.5932  0.5598 -0.1392
  777MOL0     C 4809   9.626   3.467   7.602  0.7138  0.4496 -1.2617
  777MOL0     N 4810   9.865   2.707   7.481  0.9321  0.0780 -0.7483
  777MOL0     N 4811   9.940   2.651   7.394 -0.5800 -0.3875  1.2447
  777MOL0     C 4812   9.392   2.549   6.215  0.2876 -0.0057  0.6526
  777MOL0     C 4813   9.315   2.613   6.122 -0.7471 -0.7916 -0.1598
  777MOL0     C 4814   9.089   2.995   5.940  0.5573  0.1801 -0.4403
  777MOL0     C 4815   9.106   2.932   5.822  0.0645  0.3985  1.2511
  777MOL0     C 4816   9.074   2.993   5.701 -0.1991  0.2639 -0.1127
  777MOL0     C 4817   8.997   3.108   5.708 -0.4129  0.0854 -1.0474
  777MOL0     O 4818   8.956   3.190   5.603 -0.6856  0.2433 -0.4573
  777MOL0     C 4819   9.002   3.152   5.474  0.4630  0.7717  0.6935
  777MOL0     C 4820   9.004   3.273   5.382 -0.1684  0.2726  0.8766
  777MOL0     C 4821   8.867   3.337   5.359 -0.1618 -0.8153  0.4528
  777MOL0     C 4822   8.847   3.377   5.212  0.5131  0.5866  0.0942
  777MOL0     C 4823   8.728   3.456   5.190 -0.5430  0.2912 -0.0621
  777MOL0     C 4824   8.635   3.535   5.167 -0.4527 -0.4130  0.1137
  777MOL0     C 4825   8.955   3.158   5.833 -0.1095  0.2100 -0.0893
  777MOL0     C 4826   9.006   3.113   5.952 -0.6075  0.3222 -0.2048
  777MOL0     C 4827   8.975   3.194   6.085 -0.4918  0.0018 -0.0798
  777MOL0     H 4828   9.398   2.941   6.227 -0.8963 -0.7740 -1.2965
  777MOL0     H 4829   9.517   2.818   6.384  0.6909  1.1073 -0.0193
  777MOL0     H 4830   9.429   2.394   6.451 -1.9640  3.1726 -1.0512
  777MOL0     H 4831   9.568   2.385   6.331  1.1299  2.0646  0.2359
  777MOL0     H 4832   9.734   2.444   6.493 -1.5521  0.8343 -2.2816
  777MOL0     H 4833   9.660   2.300   6.540  0.8387  0.7401  2.7412
  777MOL0     H 4834   9.551   2.384   6.731 -2.0036 -1.4519 -1.2520
  777MOL0     H 4835   9.525   2.538   6.656  1.1282 -0.4949 -1.8895
  777MOL0     H 4836   9.811   2.437   6.726 -1.7677 -0.7518 -2.6180
  777MOL0     H 4837   9.758   2.602   6.703  0.8200  1.6430  2.7562
  777MOL0     H 4838   9.622   2.601   6.890 -0.0011  0.6629 -3.3037
  777MOL0     H 4839   9.686   2.448   6.946 -0.5583 -0.0790 -0.1938
  777MOL0     H 4840   9.925   2.531   6.925 -0.3835  1.3744 -1.4669
  777MOL0     H 4841   9.868   2.684   6.888 -2.3883  0.1069 -0.4088
  777MOL0     H 4842   9.774   2.571   7.147 -0.1023 -0.5717 -1.5690
  777MOL0     H 4843   9.777   2.746   7.072  2.6782  1.1046 -3.4498
  777MOL0     H 4844  10.031   2.606   7.137  0.1631  0.5478 -1.3507
  777MOL0     H 4845  10.006   2.765   7.089  6.5111 -2.7986  0.4374
  777MOL0     H 4846   9.852   2.926   7.239 -1.6986  1.8774  1.0632
  777MOL0     H 4847   9.754   2.906   7.634 -1.9129  0.3959  0.6977
  777MOL0     H 4848   9.795   3.031   7.521 -3.3362  1.9576  3.4051
  777MOL0     H 4849   9.597   2.985   7.374 -2.1137 -0.7809 -1.9788
  777MOL0     H 4850   9.540   2.859   7.486 -0.6968  1.2154 -2.4028
  777MOL0     H 4851   9.498   3.013   7.655  1.7024 -1.3118 -0.5435
  777MOL0     H 4852   9.423   3.054   7.500 -2.4603 -2.0346  2.3634
  777MOL0     H 4853   9.613   3.234   7.469  2.5669 -0.2811  1.9147
  777MOL0     H 4854   9.658   3.180   7.633  0.4476 -0.8324 -0.3323
  777MOL0     H 4855   9.378   3.401   7.801 -0.8047 -1.4299 -4.2874
  777MOL0     H 4856   9.429   3.654   7.886  1.1609 -1.3497  2.1695
  777MOL0     H 4857   9.573   4.105   7.665  0.5040 -2.7054 -0.4090
  777MOL0     H 4858   9.657   4.330   7.725 -3.4387 -2.5603 -0.1755
  777MOL0     H 4859   9.773   4.529   7.755  1.2423  2.1814  0.8938
  777MOL0     H 4860   9.741   4.467   7.903  0.8686  0.4374  1.2219
  777MOL0     H 4861   9.945   4.582   8.009 -0.8222 -0.0279  0.9315
  777MOL0     H 4862  10.013   4.601   7.852  0.2842  1.8956  1.1570
  777MOL0     H 4863   9.808   4.745   7.790 -0.7860 -3.3588  0.6786
  777MOL0     H 4864   9.779   4.757   7.972 -0.6829  3.0219 -0.5224
  777MOL0     H 4865  10.048   4.822   7.870  0.2184  2.1869  1.3228
  777MOL0     H 4866   9.958   4.884   8.010  1.4864 -0.9331 -0.0474
  777MOL0     H 4867   9.807   5.021   7.839  0.6109  1.6382 -0.9052
  777MOL0     H 4868   9.894   4.950   7.719 -1.6659  0.8837  0.0422
  777MOL0     H 4869   9.947   5.175   7.776 -0.7226 -1.3433 -2.8220
  777MOL0     H 4870  10.025   5.124   7.930 -1.3890  0.7842 -0.0360
  777MOL0     H 4871  10.116   5.101   7.646  0.3491 -0.5549  0.5111
  777MOL0     H 4872  10.195   4.991   7.764  5.6742  1.7441 -0.0082
  777MOL0     H 4873  10.321   5.191   7.747  0.3021 -1.6859  0.2624
  777MOL0     H 4874  10.172   5.285   7.787  2.9210  1.6153 -3.0966
  777MOL0     H 4875  10.027   4.147   7.843 -0.9309 -2.7211  0.6827
  777MOL0     H 4876   9.947   3.931   7.772  2.7681  2.6227  2.9723
  777MOL0     H 4877   9.732   3.658   7.590  1.0381  0.5663  2.3311
  777MOL0     H 4878   9.695   3.424   7.530  0.1378 -2.9360  0.0302
  777MOL0     H 4879   9.365   2.445   6.230 -1.1715  0.4069  1.0403
  777MOL0     H 4880   9.245   2.557   6.061 -1.3328  0.3935 -0.6030
  777MOL0     H 4881   9.175   2.849   5.815  0.7159  1.0204  0.0434
  777MOL0     H 4882   9.093   2.950   5.604  1.6717  1.0094 -0.1121
  777MOL0     H 4883   8.951   3.063   5.436  1.8542 -0.0699  0.6986
  777MOL0     H 4884   9.108   3.123   5.470 -0.7345 -4.4481 -1.1639
  777MOL0     H 4885   9.052   3.240   5.290  0.2758  0.7502  0.9348
  777MOL0     H 4886   9.068   3.347   5.430  0.2159 -1.7352  3.7512
  777MOL0     H 4887   8.856   3.424   5.424  1.9594 -1.3605  1.6324
  777MOL0     H 4888   8.783   3.270   5.379 -1.9016  1.4710  1.1618
  777MOL0     H 4889   8.922   3.446   5.170  0.9726 -0.7471 -1.3875
  777MOL0     H 4890   8.842   3.289   5.148 -2.5849  1.7956 -1.5598
  777MOL0     H 4891   8.553   3.599   5.142  0.6343  0.1235 -2.4316
  777MOL0     H 4892   8.909   3.256   5.841 -1.3498 -0.2915 -0.7389
  777MOL0     H 4893   8.917   3.286   6.071 -2.2477 -0.3216  3.7103
  777MOL0     H 4894   8.911   3.132   6.149 -0.4731  0.7475  0.6745
  777MOL0     H 4895   9.062   3.214   6.148 -1.5376  0.5325  1.2471
  778MOL0     O 4896   1.580   9.203   1.328 -0.2172 -0.5447  0.1165
  778MOL0     C 4897   1.682   9.142   1.363  1.7106  0.3767  0.5828
  778MOL0     O 4898   1.760   9.072   1.285  0.3279  0.0058  0.7392
  778MOL0     C 4899   1.764   9.088   1.149  0.1005  0.7888  0.4252
  778MOL0     C 4900   1.716   9.201   1.080 -0.1064 -0.3347 -0.0047
  778MOL0     C 4901   1.750   9.225   0.945  0.1505 -0.4657 -0.5308
  778MOL0     C 4902   1.835   9.138   0.869 -0.7257 -0.0094  0.7841
  778MOL0     O 4903   1.860   9.166   0.732 -0.4805 -0.3426 -0.1790
  778MOL0     C 4904   1.920   9.058   0.647 -0.1719  0.3880 -0.3244
  778MOL0     C 4905   1.974   9.098   0.517 -1.0124 -0.0104  0.5913
  778MOL0     C 4906   2.110   9.171   0.526 -0.3424 -0.2930 -0.5935
  778MOL0     C 4907   2.170   9.180   0.386 -0.5479 -0.1181 -0.6406
  778MOL0     C 4908   2.227   9.050   0.322  0.0714 -0.4705  0.6635
  778MOL0     C 4909   2.238   9.062   0.170  0.8294 -0.6716 -0.2241
  778MOL0     C 4910   2.249   8.917   0.126 -0.4970  0.8893 -0.0003
  778MOL0     C 4911   2.298   8.903  -0.015 -0.0138  0.3973  0.5380
  778MOL0     N 4912   2.364   8.773  -0.048 -0.3391  0.1104 -0.2555
  778MOL0     C 4913   2.309   8.672  -0.119  0.4041  0.0541  0.3013
  778MOL0     C 4914   2.396   8.572  -0.138 -0.1426  0.3183 -0.3860
  778MOL0     C 4915   2.391   8.434  -0.185 -0.4579 -0.0438 -0.2002
  778MOL0     C 4916   2.385   8.334  -0.065  0.5109  0.4331 -0.5992
  778MOL0     C 4917   2.255   8.332   0.022 -0.0761  0.2310 -0.3006
  778MOL0     C 4918   2.273   8.277   0.162 -0.0647 -0.2687 -0.8078
  778MOL0     O 4919   2.148   8.246   0.228 -0.4133  0.3140 -0.3214
  778MOL0     C 4920   2.075   8.348   0.297 -0.6568 -0.4492 -0.3104
  778MOL0     C 4921   2.108   8.486   0.305 -0.0169  0.8571 -0.2650
  778MOL0     C 4922   2.023   8.574   0.361 -0.6233  0.6428  0.2539
  778MOL0     C 4923   1.906   8.536   0.425 -0.3669 -0.1842  0.0269
  778MOL0     C 4924   1.829   8.647   0.484  0.2050  0.1124  0.4911
  778MOL0     O 4925   1.713   8.606   0.537 -0.3850 -1.2426  0.5618
  778MOL0     C 4926   1.637   8.698   0.598  0.8453  0.7557  0.0606
  778MOL0     C 4927   1.670   8.749   0.726  0.1558  0.3424  0.7790
  778MOL0     C 4928   1.585   8.835   0.794  0.2081  0.2803  0.1608
  778MOL0     C 4929   1.460   8.865   0.743  0.8423 -0.3742 -0.0151
  778MOL0     O 4930   1.369   8.937   0.827 -0.3263  0.7791  0.2121
  778MOL0     C 4931   1.325   9.062   0.780  0.3120  0.1886 -0.4779
  778MOL0     C 4932   1.409   9.160   0.844  0.3268  0.1448  0.6553
  778MOL0     C 4933   1.359   9.171   0.982 -0.2026  0.0219 -1.3153
  778MOL0     C 4934   1.324   9.320   1.016 -0.4417 -0.4063  0.2102
  778MOL0     C 4935   1.266   9.321   1.154 -0.2283 -0.2613  0.5198
  778MOL0     C 4936   1.228   9.465   1.193  0.7515 -0.3675 -1.3765
  778MOL0     C 4937   1.167   9.476   1.337 -0.4013  0.2712 -0.2110
  778MOL0     C 4938   1.293   9.462   1.427  0.6885  0.1876 -0.1031
  778MOL0    Cl 4939   1.226   9.451   1.594  0.3998 -0.0782 -0.0127
  778MOL0     C 4940   1.432   8.819   0.614  0.5988  0.1608 -0.2524
  778MOL0     C 4941   1.518   8.735   0.539  0.0979 -0.3895  0.0032
  778MOL0     O 4942   1.870   8.764   0.486 -0.0014  0.1339  0.3249
  778MOL0     C 4943   1.871   8.401   0.411 -1.0875  0.8171  0.0321
  778MOL0     C 4944   1.954   8.308   0.354 -0.1496  0.8878  0.4687
  778MOL0     N 4945   2.514   8.624  -0.079  0.4650  0.1901 -0.7150
  778MOL0     N 4946   2.496   8.747  -0.042  0.9819  0.9314 -0.4201
  778MOL0     C 4947   1.882   9.023   0.940  0.6496 -0.4109  0.8148
  778MOL0     C 4948   1.843   9.003   1.068 -0.3742  1.0094 -0.3812
  778MOL0     C 4949   1.724   9.124   1.510  0.4261  0.2968 -0.4763
  778MOL0     C 4950   1.771   9.000   1.555  1.2149 -0.4156 -0.9212
  778MOL0     C 4951   1.819   8.984   1.688 -0.3496  0.4103  0.1072
  778MOL0     C 4952   1.808   9.085   1.783 -0.2838  0.9376 -1.0786
  778MOL0     O 4953   1.852   9.062   1.915 -0.3152 -0.9546 -0.1987
  778MOL0     C 4954   1.762   9.094   2.024 -0.0321 -0.3946 -0.2609
  778MOL0     C 4955   1.830   9.211   2.112 -0.0686  0.3061  0.5710
  778MOL0     C 4956   1.727   9.281   2.207  0.5028  0.2475  0.6582
  778MOL0     C 4957   1.803   9.364   2.314 -1.2348 -0.3463 -0.1854
  778MOL0     C 4958   1.870   9.259   2.400  0.5010 -0.0277 -0.1028
  778MOL0     C 4959   1.904   9.171   2.474  0.2876  1.4105 -0.4978
  778MOL0     C 4960   1.759   9.204   1.746  1.2088  0.5073  0.0958
  778MOL0     C 4961   1.716   9.227   1.606 -0.7581 -0.5928 -0.1851
  778MOL0     C 4962   1.680   9.368   1.584  0.0151 -0.6724  0.2565
  778MOL0     H 4963   1.666   9.289   1.119  1.8739  0.0165  1.9132
  778MOL0     H 4964   1.701   9.303   0.888 -3.0349 -1.0182  1.2095
  778MOL0     H 4965   1.994   9.005   0.706 -2.4777 -2.7688 -0.0040
  778MOL0     H 4966   1.851   8.976   0.622  1.5576 -2.0413  2.3050
  778MOL0     H 4967   1.902   9.163   0.467 -1.9604 -0.6725  1.0634
  778MOL0     H 4968   1.973   9.009   0.453 -0.0093 -0.5960  1.3565
  778MOL0     H 4969   2.187   9.115   0.581  1.7578  0.8187 -2.2592
  778MOL0     H 4970   2.098   9.258   0.591  1.2820 -2.0890  2.3402
  778MOL0     H 4971   2.090   9.225   0.326  0.0554  3.2278  0.8088
  778MOL0     H 4972   2.255   9.248   0.399  1.5814 -2.6735 -0.5120
  778MOL0     H 4973   2.324   9.029   0.368 -0.0074  1.5838  1.8586
  778MOL0     H 4974   2.153   8.971   0.343 -0.3732 -0.7916 -1.7801
  778MOL0     H 4975   2.147   9.105   0.128  0.1187  0.4469  2.2450
  778MOL0     H 4976   2.327   9.123   0.154  0.1692  0.0736 -1.1244
  778MOL0     H 4977   2.158   8.858   0.139  1.0620 -1.6432  0.1100
  778MOL0     H 4978   2.328   8.871   0.186 -0.2800  2.2870  0.8233
  778MOL0     H 4979   2.219   8.919  -0.089  0.6602 -1.0197 -0.5329
  778MOL0     H 4980   2.371   8.984  -0.026  0.0457  0.3406  0.5165
  778MOL0     H 4981   2.211   8.663  -0.163 -0.0077  0.1694  1.1782
  778MOL0     H 4982   2.308   8.418  -0.255 -2.0957 -0.8469  1.8124
  778MOL0     H 4983   2.490   8.416  -0.227  1.7312  0.1094  4.3896
  778MOL0     H 4984   2.386   8.234  -0.109  1.2905  0.6687 -1.1370
  778MOL0     H 4985   2.472   8.330   0.001  2.8043 -0.1253 -3.4973
  778MOL0     H 4986   2.186   8.264  -0.030  4.1590 -4.0764 -1.0134
  778MOL0     H 4987   2.213   8.433   0.024  0.9893  0.7890 -2.7004
  778MOL0     H 4988   2.335   8.347   0.220  3.0821 -2.0440 -1.7531
  778MOL0     H 4989   2.336   8.187   0.157 -0.0384 -0.3056 -0.0127
  778MOL0     H 4990   2.203   8.523   0.268 -0.2890  0.6468 -1.1907
  778MOL0     H 4991   2.051   8.679   0.361  0.9295  0.3840  3.5389
  778MOL0     H 4992   1.772   8.738   0.759  0.5566  1.2479 -0.0933
  778MOL0     H 4993   1.612   8.878   0.889  2.2041 -1.9268  0.6765
  778MOL0     H 4994   1.323   9.071   0.671 -2.3669  1.2738 -0.4125
  778MOL0     H 4995   1.219   9.066   0.806 -0.5453  0.8830 -3.5640
  778MOL0     H 4996   1.516   9.136   0.839  0.4380  0.8455 -2.0256
  778MOL0     H 4997   1.411   9.257   0.792  0.0057 -1.6866 -3.0842
  778MOL0     H 4998   1.269   9.111   0.998 -0.2472  0.3165 -0.3890
  778MOL0     H 4999   1.431   9.116   1.043 -3.4979 -1.0759  1.9595
  778MOL0     H 5000   1.269   9.370   0.936  0.4405  0.1028 -0.1011
  778MOL0     H 5001   1.419   9.374   1.019  0.5967 -1.9949 -1.4185
  778MOL0     H 5002   1.349   9.283   1.214  0.9096 -0.0244 -0.8519
  778MOL0     H 5003   1.179   9.256   1.168 -0.4487  0.4907  3.0758
  778MOL0     H 5004   1.321   9.522   1.188  1.3101 -1.2304 -1.1494
  778MOL0     H 5005   1.156   9.503   1.121 -1.0450  2.7616  1.7262
  778MOL0     H 5006   1.102   9.393   1.367 -0.6406  1.5949  3.4165
  778MOL0     H 5007   1.116   9.570   1.361 -5.3237 -2.0307 -0.4845
  778MOL0     H 5008   1.344   9.367   1.412 -3.0556 -2.0677  0.1783
  778MOL0     H 5009   1.362   9.547   1.424  0.3706  0.5231  1.2954
  778MOL0     H 5010   1.344   8.867   0.572 -0.6053 -2.7035 -1.2930
  778MOL0     H 5011   1.489   8.698   0.441 -0.6235 -0.0457  0.0808
  778MOL0     H 5012   1.766   8.392   0.437 -2.1138  1.3745 -3.4383
  778MOL0     H 5013   1.912   8.210   0.330  0.2178  0.7849  0.2510
  778MOL0     H 5014   1.954   8.949   0.907  1.9760  1.1635  0.0530
  778MOL0     H 5015   1.889   8.914   1.109  0.7314  2.0009  0.6162
  778MOL0     H 5016   1.780   8.921   1.481  0.8503  1.2379 -2.8617
  778MOL0     H 5017   1.865   8.887   1.707  0.3657  0.7721  0.2481
  778MOL0     H 5018   1.752   8.999   2.076  2.9943 -1.0854 -0.7678
  778MOL0     H 5019   1.661   9.126   1.997 -0.7032 -1.3225  1.0353
  778MOL0     H 5020   1.883   9.276   2.042  3.3441 -2.9403 -0.1924
  778MOL0     H 5021   1.910   9.169   2.173 -0.3495 -2.1891 -0.6527
  778MOL0     H 5022   1.659   9.211   2.255  0.9082  0.5334  1.6759
  778MOL0     H 5023   1.666   9.353   2.152 -1.0711  0.2958  2.3944
  778MOL0     H 5024   1.887   9.417   2.268  1.7493 -4.0340  0.4367
  778MOL0     H 5025   1.738   9.434   2.367 -0.2193  0.3253  0.2145
  778MOL0     H 5026   1.951   9.093   2.531  2.8779  0.4523 -3.6197
  778MOL0     H 5027   1.764   9.282   1.821  1.7450  2.1397 -1.5665
  778MOL0     H 5028   1.637   9.390   1.485 -2.7323 -0.9158  1.3057
  778MOL0     H 5029   1.613   9.405   1.662 -0.3074  1.2457 -0.8510
  778MOL0     H 5030   1.772   9.426   1.594  0.4246 -0.7231 -2.3449
  779MOL0     O 5031   2.729   9.870   3.144 -0.1347  0.0214 -0.7949
  779MOL0     C 5032   2.675   9.768   3.115 -0.3586  0.1170  0.1613
  779MOL0     O 5033   2.582   9.699   3.196  0.0668  0.0985  0.2910
  779MOL0     C 5034   2.551   9.731   3.319  0.6280  0.7043  0.4984
  779MOL0     C 5035   2.567   9.847   3.382 -0.0008 -0.0947  0.4909
  779MOL0     C 5036   2.506   9.872   3.506  0.6836 -0.3812 -0.5093
  779MOL0     C 5037   2.427   9.776   3.573 -0.1704  0.5926  0.2999
  779MOL0     O 5038   2.371   9.789   3.695  0.8188  0.3545 -0.7457
  779MOL0     C 5039   2.395   9.914   3.777  0.2828 -0.0546  0.0490
  779MOL0     C 5040   2.341   9.919   3.924  0.7977  0.1121  0.1262
  779MOL0     C 5041   2.188   9.944   3.915 -0.8842  0.7658 -0.4432
  779MOL0     C 5042   2.128   9.927   4.054  0.8659  0.8292 -0.5134
  779MOL0     C 5043   1.975   9.922   4.043  0.0828  0.1642  2.1262
  779MOL0     C 5044   1.909   9.859   4.160 -0.2507  0.2835 -0.1433
  779MOL0     C 5045   1.942   9.722   4.219 -0.8569  0.5516 -0.6558
  779MOL0     C 5046   1.895   9.594   4.146 -0.7064  0.3779  0.6960
  779MOL0     N 5047   1.750   9.597   4.123  0.2543  0.3410  0.4550
  779MOL0     C 5048   1.691   9.605   3.996  0.2728  0.7011  0.2233
  779MOL0     C 5049   1.558   9.615   4.015  0.6004  0.5048  0.3530
  779MOL0     C 5050   1.439   9.643   3.925  0.5175 -0.2578 -0.0776
  779MOL0     C 5051   1.426   9.789   3.902  1.0388 -0.4867 -0.3559
  779MOL0     C 5052   1.379   9.864   4.026 -1.1138 -0.2028  0.5284
  779MOL0     C 5053   1.335  10.012   3.994 -0.1412 -1.0450 -0.1683
  779MOL0     O 5054   1.262  10.024   3.876 -0.2678 -0.5355 -0.8578
  779MOL0     C 5055   1.238  10.144   3.818  0.4299 -0.5841 -0.3951
  779MOL0     C 5056   1.276  10.273   3.879 -0.0468  0.2399 -0.2990
  779MOL0     C 5057   1.246  10.396   3.816 -0.0452 -0.3858  1.4377
  779MOL0     C 5058   1.179  10.393   3.685 -0.7129 -0.0399 -0.1182
  779MOL0     C 5059   1.148  10.529   3.626 -0.1002 -0.2145 -0.3660
  779MOL0     O 5060   1.220  10.643   3.679 -0.4046 -0.1740  0.0779
  779MOL0     C 5061   1.161  10.767   3.680  0.3072  0.3071 -0.4822
  779MOL0     C 5062   1.244  10.864   3.732 -1.1021  0.6078  0.2003
  779MOL0     C 5063   1.198  10.997   3.751  0.4233  0.4915  0.6763
  779MOL0     C 5064   1.062  11.024   3.723 -0.1136  0.3821 -0.1379
  779MOL0     O 5065   1.026  11.156   3.746  0.3958 -0.2896  0.1002
  779MOL0     C 5066   0.969  11.178   3.877  0.5244 -0.6843 -0.3595
  779MOL0     C 5067   1.014  11.313   3.928  0.0953 -0.0546  0.3877
  779MOL0     C 5068   1.163  11.343   3.919  0.6318  0.0915  0.8568
  779MOL0     C 5069   1.178  11.492   3.962 -0.1973  0.5080 -0.0469
  779MOL0     C 5070   1.329  11.535   3.952  0.1333 -0.2832  0.2961
  779MOL0     C 5071   1.413  11.489   4.081  0.6110  0.1069 -0.1647
  779MOL0     C 5072   1.561  11.480   4.038 -0.4490  0.0052  0.0858
  779MOL0     C 5073   1.638  11.447   4.162  0.8512  1.5647  0.7239
  779MOL0    Cl 5074   1.808  11.433   4.135 -0.1206 -0.1002  0.1470
  779MOL0     C 5075   0.987  10.921   3.659  0.4298  0.2039  0.0348
  779MOL0     C 5076   1.031  10.796   3.647 -0.1177 -0.1445 -0.0898
  779MOL0     O 5077   1.072  10.524   3.523 -0.6035 -0.5167  0.8182
  779MOL0     C 5078   1.146  10.270   3.624  0.6415  0.6562  0.4212
  779MOL0     C 5079   1.170  10.138   3.690 -1.0177 -1.1947 -0.0546
  779MOL0     N 5080   1.538   9.595   4.151  1.0537  0.5375 -0.1736
  779MOL0     N 5081   1.651   9.600   4.216  0.0355  0.1065 -0.2005
  779MOL0     C 5082   2.409   9.652   3.507 -0.0747 -0.6104 -0.6723
  779MOL0     C 5083   2.476   9.633   3.390 -0.9642 -0.1948  0.3043
  779MOL0     C 5084   2.720   9.691   2.994 -1.1628  0.0334 -0.2741
  779MOL0     C 5085   2.628   9.592   2.932  0.4518  0.9333 -0.1733
  779MOL0     C 5086   2.664   9.514   2.822  0.9032 -0.3181  0.0565
  779MOL0     C 5087   2.785   9.540   2.763  0.3199 -1.0643 -0.0976
  779MOL0     O 5088   2.820   9.469   2.648 -0.9021 -0.7185 -0.3100
  779MOL0     C 5089   2.717   9.395   2.594  0.5169 -0.5013  0.9307
  779MOL0     C 5090   2.779   9.332   2.476 -0.1633 -0.3273 -0.7786
  779MOL0     C 5091   2.856   9.201   2.530 -0.1756 -0.1672  0.7503
  779MOL0     C 5092   2.965   9.151   2.443 -0.2528  0.3564  0.2535
  779MOL0     C 5093   2.897   9.120   2.318  0.1448  0.7265 -0.0436
  779MOL0     C 5094   2.837   9.102   2.209  0.0162  0.4333  0.4302
  779MOL0     C 5095   2.857   9.651   2.801  0.3217  0.6425  0.5234
  779MOL0     C 5096   2.838   9.724   2.917 -0.0219  0.5970 -0.7231
  779MOL0     C 5097   2.946   9.829   2.953  0.4870  0.5260 -0.3102
  779MOL0     H 5098   2.619   9.931   3.339  0.1995  0.1044  1.1061
  779MOL0     H 5099   2.498   9.973   3.545 -1.4672 -1.4594  2.1507
  779MOL0     H 5100   2.502   9.933   3.789  0.3863  3.6934 -4.1528
  779MOL0     H 5101   2.354  10.001   3.724 -1.5441 -1.2018 -0.5336
  779MOL0     H 5102   2.389   9.999   3.982  0.5863  0.7584 -0.5677
  779MOL0     H 5103   2.370   9.824   3.969  1.1002 -0.0751 -0.4457
  779MOL0     H 5104   2.160   9.862   3.849  1.4626  0.6387 -1.3873
  779MOL0     H 5105   2.153  10.043   3.884 -2.9169 -0.3945 -2.1123
  779MOL0     H 5106   2.174   9.836   4.093 -1.3047  0.4359  1.3096
  779MOL0     H 5107   2.170   9.998   4.126 -0.2616 -0.7520  1.8521
  779MOL0     H 5108   1.932  10.022   4.044 -1.4246 -0.4546  2.1747
  779MOL0     H 5109   1.943   9.868   3.953 -1.1131  3.3250  0.4968
  779MOL0     H 5110   1.924   9.930   4.242 -1.9005 -2.0973  2.3939
  779MOL0     H 5111   1.802   9.863   4.138  0.2290  0.7288 -2.8158
  779MOL0     H 5112   1.877   9.722   4.307 -1.5107  4.5362 -0.9393
  779MOL0     H 5113   2.048   9.719   4.245 -0.9668  1.3325 -0.0857
  779MOL0     H 5114   1.947   9.598   4.051 -3.0224  0.8886 -0.6380
  779MOL0     H 5115   1.917   9.505   4.206 -1.6881 -1.8449 -2.0443
  779MOL0     H 5116   1.737   9.608   3.898 -1.2253 -2.1387 -0.7050
  779MOL0     H 5117   1.457   9.605   3.824  0.5241 -1.6052  0.4010
  779MOL0     H 5118   1.348   9.610   3.977  0.1186  0.2053 -0.4771
  779MOL0     H 5119   1.523   9.834   3.878  0.8512  1.5173  2.2448
  779MOL0     H 5120   1.349   9.804   3.826 -1.1908  2.7307  2.2812
  779MOL0     H 5121   1.464   9.858   4.094  0.9038  1.3244 -1.7058
  779MOL0     H 5122   1.287   9.813   4.057 -3.8179  2.5783 -2.1658
  779MOL0     H 5123   1.430  10.065   3.980  0.8145 -2.9033 -1.2184
  779MOL0     H 5124   1.273  10.045   4.077 -3.1132 -3.8012 -1.0909
  779MOL0     H 5125   1.313  10.271   3.980  1.3939  0.3880 -0.8072
  779MOL0     H 5126   1.268  10.494   3.857  2.9500 -0.0991 -0.5186
  779MOL0     H 5127   1.350  10.847   3.740 -1.3648 -0.3019  2.2229
  779MOL0     H 5128   1.255  11.081   3.790 -0.7320  1.4808  0.3217
  779MOL0     H 5129   0.860  11.180   3.871  0.5134  0.2071  0.0306
  779MOL0     H 5130   1.005  11.105   3.950 -0.2184 -1.1020 -0.4028
  779MOL0     H 5131   0.965  11.391   3.869  0.7664 -0.2984 -0.5169
  779MOL0     H 5132   0.995  11.326   4.035 -1.0987  3.5846 -0.1198
  779MOL0     H 5133   1.215  11.267   3.977 -2.1313 -3.2734 -0.7103
  779MOL0     H 5134   1.205  11.326   3.819 -1.4849  0.2516 -0.1098
  779MOL0     H 5135   1.143  11.516   4.063  0.5423  2.0026 -0.1128
  779MOL0     H 5136   1.134  11.548   3.879  2.2022  0.6264 -1.3276
  779MOL0     H 5137   1.339  11.642   3.932  1.4784 -0.5886 -0.8572
  779MOL0     H 5138   1.374  11.482   3.868 -0.8086 -4.3556  2.1242
  779MOL0     H 5139   1.402  11.569   4.154 -0.2800 -0.5543  0.4448
  779MOL0     H 5140   1.369  11.393   4.110  1.4624 -0.8144 -1.7676
  779MOL0     H 5141   1.582  11.582   4.004  0.7729  0.0910  1.0222
  779MOL0     H 5142   1.568  11.410   3.954  0.9937 -0.3060  0.4508
  779MOL0     H 5143   1.616  11.527   4.234 -1.9216  1.8785 -0.3676
  779MOL0     H 5144   1.590  11.354   4.195  2.1124 -0.8693 -3.5742
  779MOL0     H 5145   0.880  10.933   3.645 -0.0123 -0.9339  1.9602
  779MOL0     H 5146   0.955  10.727   3.611  1.4033 -0.7293 -2.4061
  779MOL0     H 5147   1.092  10.267   3.530  1.8169 -0.0482 -0.2451
  779MOL0     H 5148   1.158  10.038   3.647  1.9259 -2.2351  1.2396
  779MOL0     H 5149   2.370   9.579   3.577  0.4570 -0.0868  0.1916
  779MOL0     H 5150   2.463   9.538   3.340 -0.1738  0.4007 -1.0883
  779MOL0     H 5151   2.529   9.577   2.975 -0.3673  4.4421 -0.5395
  779MOL0     H 5152   2.595   9.433   2.799  0.3135  0.7060 -2.0143
  779MOL0     H 5153   2.643   9.470   2.562  1.2782 -0.2185 -0.2473
  779MOL0     H 5154   2.671   9.313   2.649 -2.1760  0.5284  0.3746
  779MOL0     H 5155   2.852   9.402   2.436  2.4281 -3.4965 -2.1301
  779MOL0     H 5156   2.702   9.307   2.402 -0.3975  1.9055 -1.3457
  779MOL0     H 5157   2.776   9.129   2.551 -1.1910  0.4021 -0.9909
  779MOL0     H 5158   2.909   9.219   2.624 -1.7366  0.8028  1.4807
  779MOL0     H 5159   3.024   9.243   2.446  0.8267 -0.3463  2.8824
  779MOL0     H 5160   3.023   9.072   2.492  1.5296  1.3563 -0.1540
  779MOL0     H 5161   2.782   9.070   2.123 -2.5235  0.7577  1.8403
  779MOL0     H 5162   2.946   9.677   2.744 -1.2634  3.1587 -1.0436
  779MOL0     H 5163   3.033   9.829   2.888  1.5077  1.3334  1.0144
  779MOL0     H 5164   2.889   9.923   2.956 -2.9740 -1.3904 -0.7509
  779MOL0     H 5165   2.992   9.805   3.049 -1.1287 -0.6015  0.2314
  780MOL0     O 5166   2.645   7.225   8.301  0.1932 -0.5401 -0.5561
  780MOL0     C 5167   2.625   7.310   8.220 -0.5481  0.4102  1.2803
  780MOL0     O 5168   2.608   7.289   8.086  0.8351  0.6246  0.2736
  780MOL0     C 5169   2.554   7.161   8.057 -0.0285 -0.6431  0.2452
  780MOL0     C 5170   2.436   7.115   8.130  1.0382  0.5330  0.5177
  780MOL0     C 5171   2.384   6.990   8.092 -0.9143 -0.2524  0.0916
  780MOL0     C 5172   2.438   6.911   7.985  0.6095  0.1180  0.5490
  780MOL0     O 5173   2.392   6.780   7.951  1.2382  1.4907  1.0253
  780MOL0     C 5174   2.252   6.755   7.951 -0.5128 -1.1099 -0.4091
  780MOL0     C 5175   2.246   6.621   7.881 -0.1841 -0.1741 -0.6044
  780MOL0     C 5176   2.118   6.591   7.812  0.2726 -0.7127 -0.7390
  780MOL0     C 5177   1.999   6.589   7.909 -0.2938 -0.2866  0.7272
  780MOL0     C 5178   1.868   6.638   7.845 -0.1504  0.0605 -0.2600
  780MOL0     C 5179   1.840   6.792   7.870 -0.1568 -0.9464 -1.0972
  780MOL0     C 5180   1.703   6.858   7.843  0.3851  0.8462 -1.1420
  780MOL0     C 5181   1.717   7.010   7.828  0.2313  0.2704  0.2429
  780MOL0     N 5182   1.599   7.096   7.838  0.1582  0.3208 -0.5125
  780MOL0     C 5183   1.527   7.114   7.951  0.4851  0.0446 -0.2747
  780MOL0     C 5184   1.418   7.187   7.902 -0.5940  0.2586 -0.5630
  780MOL0     C 5185   1.290   7.209   7.982  0.5364  0.5698  0.3019
  780MOL0     C 5186   1.167   7.286   7.924 -0.5556 -0.3226 -0.5220
  780MOL0     C 5187   1.037   7.245   7.989  0.5261  0.0251  0.5017
  780MOL0     C 5188   0.997   7.105   7.958  0.5334  1.1110  0.0616
  780MOL0     O 5189   0.884   7.062   8.030  0.7589  0.4557  0.6981
  780MOL0     C 5190   0.824   6.937   8.003  0.4297 -0.1811  0.1035
  780MOL0     C 5191   0.716   6.894   8.079  0.9392  0.7794 -0.3550
  780MOL0     C 5192   0.640   6.779   8.053 -0.7007  0.1803  0.4143
  780MOL0     C 5193   0.680   6.701   7.944 -1.1134  0.8619 -0.5236
  780MOL0     C 5194   0.619   6.567   7.931  0.8351 -0.5411 -0.4464
  780MOL0     O 5195   0.582   6.502   8.039  0.1891 -0.4938  0.1198
  780MOL0     C 5196   0.518   6.381   8.027  0.8251  1.1115  0.2900
  780MOL0     C 5197   0.596   6.260   8.007 -0.4320  0.2022 -1.7911
  780MOL0     C 5198   0.531   6.134   8.004 -1.0803  0.0953  0.7529
  780MOL0     C 5199   0.392   6.120   8.026 -0.0012  0.1568 -0.8091
  780MOL0     O 5200   0.314   6.005   8.028 -0.8496  0.3811 -0.3631
  780MOL0     C 5201   0.367   5.875   7.985 -1.5010 -0.1454 -0.6177
  780MOL0     C 5202   0.280   5.764   8.026  0.1187  0.1820  0.2354
  780MOL0     C 5203   0.327   5.623   7.988 -0.1636 -0.0111 -0.2649
  780MOL0     C 5204   0.231   5.539   7.895  0.2539  0.5236  0.1043
  780MOL0     C 5205   0.207   5.584   7.748 -0.0348 -0.2602 -0.1111
  780MOL0     C 5206   0.291   5.497   7.643  0.2638 -0.8115  0.4776
  780MOL0     C 5207   0.249   5.349   7.621  0.5942 -0.2176  1.4101
  780MOL0     C 5208   0.336   5.285   7.512 -0.3708  0.1252 -1.4059
  780MOL0    Cl 5209   0.500   5.272   7.562 -0.0243  0.3186 -0.4662
  780MOL0     C 5210   0.326   6.233   8.063 -0.5664  0.1577 -0.2800
  780MOL0     C 5211   0.382   6.362   8.074 -0.3347  0.6730  0.5503
  780MOL0     O 5212   0.623   6.511   7.823 -0.6617 -0.2213  1.0839
  780MOL0     C 5213   0.792   6.738   7.870  0.1994  1.2108 -0.0629
  780MOL0     C 5214   0.872   6.849   7.896  0.1348 -0.2259 -0.8631
  780MOL0     N 5215   1.440   7.215   7.767  0.6422 -0.7078  0.1660
  780MOL0     N 5216   1.542   7.159   7.727  0.0799 -0.2190  0.0768
  780MOL0     C 5217   2.551   6.957   7.919  0.4555 -0.2949  0.0868
  780MOL0     C 5218   2.603   7.088   7.953  0.3691  0.9612 -0.4774
  780MOL0     C 5219   2.643   7.450   8.263 -0.1455 -0.5276  0.8997
  780MOL0     C 5220   2.698   7.544   8.169  0.2094  0.3190 -0.1576
  780MOL0     C 5221   2.689   7.682   8.183  0.1833 -0.5024 -0.4129
  780MOL0     C 5222   2.649   7.733   8.306 -1.0831 -0.6551 -0.0390
  780MOL0     O 5223   2.669   7.867   8.344  0.1824  0.5118  0.3173
  780MOL0     C 5224   2.783   7.934   8.281 -1.1769 -0.4107  0.8298
  780MOL0     C 5225   2.776   8.079   8.335  0.0449 -0.6985 -1.2779
  780MOL0     C 5226   2.905   8.149   8.312 -0.3460 -0.3977 -0.2223
  780MOL0     C 5227   2.884   8.301   8.340 -0.5168  0.2045  0.3629
  780MOL0     C 5228   3.003   8.365   8.273 -1.0139  0.4185  0.2626
  780MOL0     C 5229   3.094   8.407   8.196  0.3950  0.0819 -1.7018
  780MOL0     C 5230   2.610   7.641   8.410 -0.5162 -0.4929 -0.9916
  780MOL0     C 5231   2.609   7.502   8.389  0.1112  1.1502 -0.3914
  780MOL0     C 5232   2.537   7.427   8.495  0.2343 -0.4688  0.0100
  780MOL0     H 5233   2.403   7.164   8.222  1.1501  1.5896  0.0067
  780MOL0     H 5234   2.295   6.951   8.141 -1.2990  2.8010  2.0234
  780MOL0     H 5235   2.206   6.760   8.050  0.1426 -1.1046 -0.0988
  780MOL0     H 5236   2.203   6.829   7.887 -0.0839  0.4309  0.9792
  780MOL0     H 5237   2.271   6.547   7.958 -1.3920 -2.1703 -2.0429
  780MOL0     H 5238   2.330   6.621   7.811  2.6166 -0.8969  2.4998
  780MOL0     H 5239   2.129   6.491   7.769  2.6681 -1.4594  1.3413
  780MOL0     H 5240   2.094   6.662   7.732  0.9157 -1.9747 -2.1029
  780MOL0     H 5241   1.974   6.483   7.924  0.6141 -0.6896 -0.4619
  780MOL0     H 5242   2.026   6.650   7.996  1.3838  0.3257 -0.1828
  780MOL0     H 5243   1.884   6.629   7.737  2.3698  2.5290 -0.2143
  780MOL0     H 5244   1.779   6.588   7.884  0.5693 -1.9463 -1.0278
  780MOL0     H 5245   1.866   6.799   7.975  1.3329 -3.6951 -1.1806
  780MOL0     H 5246   1.910   6.847   7.808  0.6199  1.3828  1.6636
  780MOL0     H 5247   1.634   6.835   7.924  1.5072 -1.2640 -0.7011
  780MOL0     H 5248   1.672   6.814   7.747 -1.1709 -1.4633  0.3158
  780MOL0     H 5249   1.769   7.040   7.919 -1.8161 -2.0343  2.3337
  780MOL0     H 5250   1.781   7.041   7.745 -1.4924  2.2394 -0.4201
  780MOL0     H 5251   1.539   7.075   8.052 -4.2136 -1.5213 -0.0696
  780MOL0     H 5252   1.257   7.109   8.012 -0.2676  1.4296  2.5586
  780MOL0     H 5253   1.310   7.258   8.078 -0.1910  1.2928  0.1013
  780MOL0     H 5254   1.178   7.392   7.952 -0.0041 -0.6079  0.4051
  780MOL0     H 5255   1.158   7.283   7.815 -1.0127 -2.2210 -0.4633
  780MOL0     H 5256   0.968   7.325   7.958  0.0505  0.1926  1.9095
  780MOL0     H 5257   1.034   7.254   8.098  0.4894  0.2666  0.4811
  780MOL0     H 5258   1.076   7.030   7.965  0.5368  0.8069 -2.3013
  780MOL0     H 5259   0.953   7.104   7.858 -0.1921 -0.5551  0.3523
  780MOL0     H 5260   0.687   6.953   8.166 -2.4462 -1.3752  0.1883
  780MOL0     H 5261   0.556   6.750   8.116 -1.1384  1.6928  0.5580
  780MOL0     H 5262   0.704   6.259   7.995 -0.0558 -1.0458  0.9643
  780MOL0     H 5263   0.599   6.054   7.975 -1.4305  0.1606 -0.3073
  780MOL0     H 5264   0.370   5.866   7.876 -4.9949 -0.4927 -0.7782
  780MOL0     H 5265   0.471   5.867   8.020 -1.2329  1.7026 -0.8707
  780MOL0     H 5266   0.267   5.753   8.134 -1.5527  1.4022  0.1873
  780MOL0     H 5267   0.176   5.787   8.001 -0.8920  1.2527  4.5908
  780MOL0     H 5268   0.424   5.629   7.938 -0.8014  2.1960 -1.4162
  780MOL0     H 5269   0.336   5.562   8.078  0.1634 -1.9274 -1.5472
  780MOL0     H 5270   0.138   5.522   7.949  0.2569 -0.4688 -0.1794
  780MOL0     H 5271   0.271   5.438   7.894 -0.0927  0.3823 -1.0285
  780MOL0     H 5272   0.226   5.691   7.737 -1.0216  0.1146  1.5079
  780MOL0     H 5273   0.107   5.571   7.707  0.3722 -0.6226 -1.0274
  780MOL0     H 5274   0.290   5.546   7.545  1.1356  0.3332  1.0059
  780MOL0     H 5275   0.394   5.499   7.680 -0.0175  1.8272  1.3295
  780MOL0     H 5276   0.146   5.361   7.583  0.8592  1.1237  1.0421
  780MOL0     H 5277   0.249   5.290   7.713 -0.2077  3.1312  3.7698
  780MOL0     H 5278   0.295   5.187   7.490  1.4223 -1.7866  2.6322
  780MOL0     H 5279   0.353   5.346   7.423  3.2113  1.4495 -0.0224
  780MOL0     H 5280   0.235   6.217   8.119  0.2179  4.4994  2.7686
  780MOL0     H 5281   0.332   6.450   8.114 -0.6133  1.7264 -1.9250
  780MOL0     H 5282   0.817   6.670   7.790  2.5490 -0.5299  1.9722
  780MOL0     H 5283   0.944   6.872   7.818  0.5648  2.1442  0.1253
  780MOL0     H 5284   2.596   6.888   7.848 -1.1894 -0.2739 -1.0377
  780MOL0     H 5285   2.696   7.112   7.903  2.5092  0.2953  2.8630
  780MOL0     H 5286   2.726   7.504   8.072  0.6387  1.6498 -0.6072
  780MOL0     H 5287   2.714   7.745   8.098 -2.0367  2.3155  0.8256
  780MOL0     H 5288   2.770   7.942   8.173 -0.4049  1.2525  0.8315
  780MOL0     H 5289   2.877   7.890   8.314 -0.2833  0.8085 -0.0280
  780MOL0     H 5290   2.751   8.081   8.442  0.5037 -2.6840 -1.0791
  780MOL0     H 5291   2.696   8.138   8.289 -1.1918  2.7690  4.3144
  780MOL0     H 5292   2.929   8.136   8.206 -1.7417  0.5292 -0.6864
  780MOL0     H 5293   2.989   8.105   8.366 -0.1739 -0.5713 -0.6286
  780MOL0     H 5294   2.788   8.341   8.307  0.3838  2.3832  0.2387
  780MOL0     H 5295   2.898   8.316   8.448  1.2329 -1.3349  0.3978
  780MOL0     H 5296   3.179   8.438   8.139  0.6744 -1.4850 -2.1930
  780MOL0     H 5297   2.576   7.684   8.503 -0.7286 -0.8227 -0.9178
  780MOL0     H 5298   2.601   7.346   8.530  0.0028  0.1610  2.0382
  780MOL0     H 5299   2.514   7.485   8.585  2.4040  0.0367  0.3094
  780MOL0     H 5300   2.441   7.387   8.461 -1.6299  2.2701  1.6280
  781MOL0     O 5301  10.319   0.421  10.543 -0.4331  0.2323  0.0738
  781MOL0     C 5302  10.224   0.466  10.483  0.6281 -1.2422 -0.5012
  781MOL0     O 5303  10.152   0.394  10.385  0.1912 -0.8817 -0.9688
  781MOL0     C 5304  10.195   0.276  10.334  0.3765  0.9927  0.8006
  781MOL0     C 5305  10.097   0.185  10.291 -0.5254  0.1103 -0.1668
  781MOL0     C 5306  10.128   0.072  10.224 -0.8945  0.1654 -0.6019
  781MOL0     C 5307  10.265   0.036  10.202  0.8993 -0.0103 -1.3219
  781MOL0     O 5308  10.294  -0.078  10.143 -1.1333  0.7983  0.7197
  781MOL0     C 5309  10.415  -0.086  10.063  0.2056 -0.9182 -0.8547
  781MOL0     C 5310  10.385  -0.194   9.954  0.1311 -0.5744 -0.8685
  781MOL0     C 5311  10.359  -0.330  10.031 -0.2210 -0.4835 -0.2860
  781MOL0     C 5312  10.352  -0.451   9.932  0.9307 -0.8797  0.7616
  781MOL0     C 5313  10.209  -0.446   9.860  0.5916 -0.5404 -0.9312
  781MOL0     C 5314  10.171  -0.581   9.797 -0.3916 -0.7224 -0.6510
  781MOL0     C 5315  10.034  -0.564   9.731 -0.2218 -0.6196  0.8206
  781MOL0     C 5316  10.017  -0.448   9.631 -0.0333 -0.0351  1.0700
  781MOL0     N 5317  10.130  -0.439   9.537  0.3426 -0.9099 -0.4946
  781MOL0     C 5318  10.176  -0.551   9.463 -0.1596 -0.0277 -0.5284
  781MOL0     C 5319  10.263  -0.495   9.376 -0.3562  0.6068 -0.0482
  781MOL0     C 5320  10.345  -0.567   9.270 -0.0042 -0.1717 -0.5002
  781MOL0     C 5321  10.276  -0.576   9.131  0.7351  0.4699  0.2076
  781MOL0     C 5322  10.354  -0.619   9.002  0.3406 -1.0549  0.2143
  781MOL0     C 5323  10.260  -0.629   8.880 -0.0918  0.7361 -0.7952
  781MOL0     O 5324  10.316  -0.713   8.788 -0.0810  0.9215 -0.3828
  781MOL0     C 5325  10.368  -0.656   8.675 -0.0367  0.2865 -0.5004
  781MOL0     C 5326  10.348  -0.520   8.633 -0.7185  0.6734  0.0032
  781MOL0     C 5327  10.380  -0.475   8.517 -0.0104  0.3137  1.0469
  781MOL0     C 5328  10.445  -0.562   8.426 -0.5986  0.3943 -0.7154
  781MOL0     C 5329  10.479  -0.513   8.292 -1.2079 -0.3513 -0.0588
  781MOL0     O 5330  10.515  -0.612   8.197 -0.3963 -0.0350  1.0795
  781MOL0     C 5331  10.562  -0.571   8.071  0.4779 -0.6900  0.3033
  781MOL0     C 5332  10.489  -0.489   7.981  0.2998  0.8183 -0.4015
  781MOL0     C 5333  10.535  -0.459   7.855 -0.1997  0.7702 -0.0290
  781MOL0     C 5334  10.647  -0.518   7.805  0.7770  0.8263  0.1407
  781MOL0     O 5335  10.683  -0.503   7.672  0.6974  0.3922 -0.0190
  781MOL0     C 5336  10.818  -0.515   7.646 -0.3609 -0.1467 -0.0981
  781MOL0     C 5337  10.843  -0.627   7.548 -0.2590 -0.1540 -0.0252
  781MOL0     C 5338  10.861  -0.589   7.399  0.7672  0.7086 -0.4979
  781MOL0     C 5339  10.742  -0.514   7.350  0.6655  0.1051  0.5016
  781MOL0     C 5340  10.606  -0.591   7.323 -1.0003  0.2646 -0.1878
  781MOL0     C 5341  10.487  -0.505   7.266  0.6403  0.1298 -0.4542
  781MOL0     C 5342  10.362  -0.598   7.258 -0.3772 -0.9024 -0.1296
  781MOL0     C 5343  10.241  -0.501   7.246 -0.1620  0.2588 -0.5733
  781MOL0    Cl 5344  10.237  -0.428   7.406  0.4486  0.7457 -0.2367
  781MOL0     C 5345  10.710  -0.620   7.888  0.0440 -0.3029  0.1127
  781MOL0     C 5346  10.671  -0.644   8.016  0.3426  0.3915 -0.9673
  781MOL0     O 5347  10.458  -0.395   8.269  0.3989 -0.5752  0.8841
  781MOL0     C 5348  10.460  -0.697   8.459  0.3903  1.2710 -0.5280
  781MOL0     C 5349  10.422  -0.750   8.585 -0.5665  0.0936  0.1662
  781MOL0     N 5350  10.259  -0.357   9.384 -0.3637  0.1596  0.1285
  781MOL0     N 5351  10.178  -0.325   9.485 -0.0560  0.5254  0.6764
  781MOL0     C 5352  10.358   0.128  10.250  0.3584  0.8300  0.3616
  781MOL0     C 5353  10.328   0.247  10.302 -0.3146  0.6639  0.1007
  781MOL0     C 5354  10.161   0.595  10.525  0.1695  0.0530  0.2957
  781MOL0     C 5355  10.186   0.642  10.658 -0.2251  0.4815  0.3767
  781MOL0     C 5356  10.114   0.747  10.715 -0.2450 -0.0164  0.5350
  781MOL0     C 5357  10.002   0.804  10.643 -0.6557 -0.4721 -0.5956
  781MOL0     O 5358   9.931   0.901  10.706  0.5940  0.9807 -0.1144
  781MOL0     C 5359   9.846   0.976  10.620  0.1707  0.1991  0.5425
  781MOL0     C 5360   9.767   1.072  10.719  0.2838  0.1904  1.3527
  781MOL0     C 5361   9.843   1.184  10.786  0.0133  0.0247 -0.3848
  781MOL0     C 5362   9.760   1.277  10.876  0.4898 -0.5369  0.2058
  781MOL0     C 5363   9.747   1.189  10.998 -0.2486 -0.6408  0.8917
  781MOL0     C 5364   9.730   1.151  11.111 -0.4415 -0.4522 -0.1180
  781MOL0     C 5365   9.986   0.759  10.508  0.7592  0.2727  0.3085
  781MOL0     C 5366  10.073   0.672  10.444 -0.0303  0.2612 -0.6099
  781MOL0     C 5367  10.053   0.645  10.290  0.5115  0.1427 -0.3913
  781MOL0     H 5368   9.991   0.206  10.300 -0.3770  0.6004  0.4883
  781MOL0     H 5369  10.044   0.020  10.180 -0.7429 -0.2034 -0.4614
  781MOL0     H 5370  10.424   0.015  10.023  0.4188 -0.1181  1.1008
  781MOL0     H 5371  10.503  -0.108  10.123 -0.7281  2.4904  2.1436
  781MOL0     H 5372  10.463  -0.215   9.880  0.5092  2.5240 -1.4825
  781MOL0     H 5373  10.292  -0.166   9.905 -1.1554 -4.6176 -1.1710
  781MOL0     H 5374  10.271  -0.325  10.096  1.1905  1.7136  1.6201
  781MOL0     H 5375  10.447  -0.357  10.090  2.1496 -0.8143 -3.7103
  781MOL0     H 5376  10.433  -0.451   9.859  2.4368  0.3505  2.3547
  781MOL0     H 5377  10.357  -0.551   9.977 -0.6069  0.1581  3.4396
  781MOL0     H 5378  10.143  -0.433   9.947  2.9971  1.6514  0.7251
  781MOL0     H 5379  10.193  -0.360   9.795 -0.3660 -0.0727 -0.1200
  781MOL0     H 5380  10.245  -0.609   9.722 -0.6841 -0.8813 -0.8836
  781MOL0     H 5381  10.167  -0.664   9.868 -1.5785  1.8650  2.5633
  781MOL0     H 5382   9.961  -0.543   9.810 -1.4514  1.5762 -0.7925
  781MOL0     H 5383  10.006  -0.654   9.676  0.9288 -1.0244  0.8664
  781MOL0     H 5384   9.922  -0.459   9.577  0.5159  2.4153 -0.5619
  781MOL0     H 5385  10.006  -0.349   9.676 -3.0481  1.3531 -2.2360
  781MOL0     H 5386  10.160  -0.657   9.479  0.1008  0.1176  0.7735
  781MOL0     H 5387  10.441  -0.519   9.249 -0.0475 -0.6784 -2.0233
  781MOL0     H 5388  10.362  -0.672   9.294  2.7783 -0.2208 -2.1992
  781MOL0     H 5389  10.179  -0.626   9.141  0.1703 -0.6473 -6.5242
  781MOL0     H 5390  10.262  -0.469   9.113  2.6299  0.7122 -0.1080
  781MOL0     H 5391  10.388  -0.721   9.022  1.2917 -0.6975  0.4756
  781MOL0     H 5392  10.440  -0.557   8.978  0.6005 -1.6685 -0.4881
  781MOL0     H 5393  10.224  -0.532   8.845  1.9477  0.7927 -3.0177
  781MOL0     H 5394  10.170  -0.682   8.912  0.8983  0.4266  1.7115
  781MOL0     H 5395  10.325  -0.446   8.709  3.8604 -1.2338  3.7308
  781MOL0     H 5396  10.361  -0.372   8.490  3.9026  0.7863 -0.5432
  781MOL0     H 5397  10.389  -0.451   7.998 -0.3981  0.2543 -2.8555
  781MOL0     H 5398  10.470  -0.406   7.786  1.4531  0.1634 -2.1427
  781MOL0     H 5399  10.858  -0.419   7.612  1.9345 -0.2016  2.2137
  781MOL0     H 5400  10.875  -0.539   7.736 -4.1540 -0.9676  2.3315
  781MOL0     H 5401  10.936  -0.675   7.580  0.1636  1.2981  1.0180
  781MOL0     H 5402  10.765  -0.703   7.558  0.5578 -1.0292 -0.1947
  781MOL0     H 5403  10.942  -0.515   7.393  1.2717  0.1739 -0.4072
  781MOL0     H 5404  10.889  -0.683   7.350  0.6649  0.0412  0.6927
  781MOL0     H 5405  10.777  -0.457   7.263 -1.1747  0.3189 -0.1512
  781MOL0     H 5406  10.703  -0.431   7.408 -1.8774 -0.7618  0.1609
  781MOL0     H 5407  10.577  -0.624   7.423 -1.2156 -0.3999 -0.4648
  781MOL0     H 5408  10.631  -0.675   7.257  1.8073  0.9446 -0.1463
  781MOL0     H 5409  10.483  -0.426   7.341 -0.2169 -0.6914  0.3900
  781MOL0     H 5410  10.518  -0.464   7.169  0.7146  3.4926  0.8643
  781MOL0     H 5411  10.351  -0.668   7.341 -0.1609 -1.8756 -0.9026
  781MOL0     H 5412  10.371  -0.655   7.164  2.2826  1.7656 -1.6651
  781MOL0     H 5413  10.247  -0.423   7.169 -0.1579 -1.0102 -1.9199
  781MOL0     H 5414  10.151  -0.561   7.226 -0.6219  1.8035 -3.7662
  781MOL0     H 5415  10.786  -0.682   7.840 -0.5498 -0.7360 -0.2847
  781MOL0     H 5416  10.712  -0.730   8.067 -4.9397 -1.6219  0.5706
  781MOL0     H 5417  10.501  -0.758   8.379 -1.6997 -3.3548  1.5421
  781MOL0     H 5418  10.442  -0.855   8.602 -1.0912 -0.4559 -2.2906
  781MOL0     H 5419  10.462   0.095  10.253 -0.2657 -1.2551  0.5005
  781MOL0     H 5420  10.399   0.319  10.342  0.6206  0.3465 -0.9281
  781MOL0     H 5421  10.262   0.591  10.717 -1.1326 -0.4141  0.8069
  781MOL0     H 5422  10.153   0.789  10.807 -0.4013 -0.2830  0.7245
  781MOL0     H 5423   9.789   0.925  10.542  3.2651 -1.7153 -0.6885
  781MOL0     H 5424   9.896   1.053  10.561 -1.1037 -0.2631 -1.2272
  781MOL0     H 5425   9.730   1.008  10.800  0.5578  0.0842  1.3950
  781MOL0     H 5426   9.682   1.112  10.662  1.0665  1.8576  1.3079
  781MOL0     H 5427   9.877   1.243  10.700  1.4395 -0.7755 -0.4088
  781MOL0     H 5428   9.931   1.135  10.829 -0.6152 -4.5392 -3.6923
  781MOL0     H 5429   9.812   1.371  10.898 -0.3613  0.3305 -1.2764
  781MOL0     H 5430   9.666   1.320  10.842 -0.7956  2.0955  5.9006
  781MOL0     H 5431   9.698   1.107  11.204 -3.7032 -0.8743 -1.3196
  781MOL0     H 5432   9.901   0.786  10.446 -0.6048 -1.8557  1.1314
  781MOL0     H 5433  10.148   0.608  10.250  0.4192 -1.9212  1.0972
  781MOL0     H 5434   9.971   0.575  10.269 -1.5620  3.3273 -4.1014
  781MOL0     H 5435  10.035   0.737  10.235 -2.2760  0.1136  0.3570
  782MOL0     O 5436   4.615   8.818   7.456  0.7652  0.0059 -0.3095
  782MOL0     C 5437   4.558   8.871   7.368 -0.9842 -1.2254 -0.2043
  782MOL0     O 5438   4.501   8.799   7.268  0.2677  0.1325 -0.3615
  782MOL0     C 5439   4.552   8.685   7.216  0.1496 -0.7287 -0.0618
  782MOL0     C 5440   4.467   8.626   7.116  0.0598  0.3212 -0.0007
  782MOL0     C 5441   4.522   8.521   7.031  0.4269 -0.7622 -0.4521
  782MOL0     C 5442   4.658   8.490   7.042 -0.4153  0.6751 -0.8877
  782MOL0     O 5443   4.718   8.415   6.939 -0.4844  0.2636  0.3342
  782MOL0     C 5444   4.835   8.328   6.966  0.3224  0.5258  1.0632
  782MOL0     C 5445   4.847   8.203   6.868 -0.5115  0.4045 -0.8834
  782MOL0     C 5446   4.727   8.111   6.881  0.5955 -1.1541 -0.5076
  782MOL0     C 5447   4.739   7.970   6.831  0.0008 -0.4093 -0.5293
  782MOL0     C 5448   4.759   7.959   6.678 -0.2966  0.3866 -0.6215
  782MOL0     C 5449   4.640   8.016   6.596 -0.2200 -0.3916  1.2533
  782MOL0     C 5450   4.677   8.021   6.446  0.1853 -0.9927  0.2457
  782MOL0     C 5451   4.677   7.878   6.388  0.1282  0.4656  0.0516
  782MOL0     N 5452   4.742   7.888   6.254 -0.4612  0.1664 -0.1152
  782MOL0     C 5453   4.709   7.985   6.165 -0.8816  0.0714  0.7788
  782MOL0     C 5454   4.812   7.997   6.082  0.1293  0.7172 -0.5455
  782MOL0     C 5455   4.827   8.082   5.955 -0.0171  0.1409  0.4487
  782MOL0     C 5456   4.949   8.182   5.947 -0.5253 -1.0089 -0.5329
  782MOL0     C 5457   4.916   8.310   6.016 -0.1243  0.0643  0.3193
  782MOL0     C 5458   5.042   8.382   6.059  0.0672  0.0524 -0.4628
  782MOL0     O 5459   5.023   8.519   6.049  0.1543 -1.5187 -0.5347
  782MOL0     C 5460   4.996   8.608   6.155  0.5565 -0.9595  1.1321
  782MOL0     C 5461   4.884   8.697   6.133 -1.3436  0.4724 -0.3937
  782MOL0     C 5462   4.847   8.780   6.236  0.1324 -0.1966  0.1293
  782MOL0     C 5463   4.902   8.759   6.364 -0.0310  0.3578  0.1889
  782MOL0     C 5464   4.843   8.826   6.478 -1.4051  0.4728  0.1454
  782MOL0     O 5465   4.889   8.792   6.604  0.1263  0.0382  0.4690
  782MOL0     C 5466   4.840   8.869   6.706  0.1940 -0.0775 -0.6790
  782MOL0     C 5467   4.873   9.015   6.703 -0.3541  0.2522 -0.7028
  782MOL0     C 5468   4.822   9.098   6.805  0.2905 -0.7134  0.4030
  782MOL0     C 5469   4.762   9.043   6.918 -0.2665 -0.5872 -0.5500
  782MOL0     O 5470   4.723   9.118   7.021 -1.0355 -0.2002  0.1570
  782MOL0     C 5471   4.806   9.232   7.068 -0.0903 -0.0300 -0.7563
  782MOL0     C 5472   4.922   9.200   7.160  0.5261  1.2784  0.2680
  782MOL0     C 5473   4.967   9.309   7.248 -0.2571  0.4320  0.0129
  782MOL0     C 5474   5.120   9.305   7.281  0.4912 -0.3308  0.2944
  782MOL0     C 5475   5.146   9.367   7.408 -0.2545 -0.1373 -0.0635
  782MOL0     C 5476   5.082   9.506   7.440 -0.4448  0.1096 -0.9045
  782MOL0     C 5477   5.162   9.623   7.370 -0.9211 -0.0779 -0.0470
  782MOL0     C 5478   5.269   9.684   7.474  0.9342  0.5739  0.3286
  782MOL0    Cl 5479   5.396   9.779   7.383  0.0855  0.1181  0.3439
  782MOL0     C 5480   4.742   8.906   6.935  0.2750 -0.4946  0.3486
  782MOL0     C 5481   4.778   8.821   6.830  0.1379  1.0687 -0.8272
  782MOL0     O 5482   4.736   8.885   6.455  0.3453  0.3718 -0.8734
  782MOL0     C 5483   5.009   8.668   6.387 -0.2681 -1.2225 -0.0640
  782MOL0     C 5484   5.059   8.601   6.279 -1.1677  0.1712 -1.0673
  782MOL0     N 5485   4.904   7.897   6.117  0.1034 -0.5589  0.7395
  782MOL0     N 5486   4.867   7.840   6.227  0.2892  0.4568  1.2797
  782MOL0     C 5487   4.727   8.531   7.153  0.0299  0.3723  0.1972
  782MOL0     C 5488   4.683   8.630   7.231  0.0862  0.4235 -0.4431
  782MOL0     C 5489   4.538   9.023   7.369 -0.9397  0.6948 -0.1824
  782MOL0     C 5490   4.510   9.075   7.246  0.2450 -0.3871 -0.0529
  782MOL0     C 5491   4.467   9.211   7.226  0.2231 -0.5267  0.4003
  782MOL0     C 5492   4.485   9.299   7.333  0.4096 -0.5310  0.1187
  782MOL0     O 5493   4.445   9.427   7.329  0.1554  0.1172 -0.1625
  782MOL0     C 5494   4.435   9.480   7.196  0.4968 -0.1722 -0.2544
  782MOL0     C 5495   4.443   9.636   7.223 -0.5153  0.4584  1.1975
  782MOL0     C 5496   4.583   9.693   7.210 -0.0349 -0.0530  0.0912
  782MOL0     C 5497   4.688   9.624   7.294  0.2728 -0.0468 -0.1469
  782MOL0     C 5498   4.778   9.728   7.352  0.3450  0.4942  0.0359
  782MOL0     C 5499   4.834   9.821   7.405  0.4688 -0.3914 -0.0449
  782MOL0     C 5500   4.523   9.245   7.458 -0.6230 -0.4390 -0.1095
  782MOL0     C 5501   4.546   9.106   7.480  0.0603  0.1230  0.3626
  782MOL0     C 5502   4.563   9.064   7.621  0.4157 -0.5285 -0.2655
  782MOL0     H 5503   4.375   8.677   7.090 -0.6528 -2.6767 -4.3246
  782MOL0     H 5504   4.461   8.480   6.950 -1.5178 -1.8306  1.4662
  782MOL0     H 5505   4.926   8.389   6.966  0.6356  0.2493 -2.1240
  782MOL0     H 5506   4.816   8.284   7.064  0.6434 -0.3687  0.7404
  782MOL0     H 5507   4.929   8.142   6.908 -1.4839 -0.7623 -0.6301
  782MOL0     H 5508   4.873   8.226   6.765  0.3253 -0.8892 -0.9836
  782MOL0     H 5509   4.647   8.162   6.826 -0.9961 -2.0862  0.8536
  782MOL0     H 5510   4.698   8.099   6.985 -0.8028  3.1817 -0.2180
  782MOL0     H 5511   4.823   7.915   6.876 -0.0525  2.9546  4.5316
  782MOL0     H 5512   4.644   7.923   6.857 -1.1717  3.0024  2.0903
  782MOL0     H 5513   4.856   8.003   6.650  0.9765 -0.3545  2.2247
  782MOL0     H 5514   4.766   7.857   6.640 -3.0037 -0.2651  0.4384
  782MOL0     H 5515   4.561   7.944   6.620  0.6026 -1.6814  0.2983
  782MOL0     H 5516   4.618   8.115   6.635 -1.6767  0.0149 -0.4870
  782MOL0     H 5517   4.779   8.056   6.427 -0.5995  0.8912 -0.7784
  782MOL0     H 5518   4.610   8.088   6.392  0.9932 -0.4100 -0.0679
  782MOL0     H 5519   4.730   7.801   6.444 -1.8303 -1.7641 -0.9904
  782MOL0     H 5520   4.580   7.829   6.374  0.3027 -0.1478  0.9131
  782MOL0     H 5521   4.631   8.061   6.156 -0.1652  0.7407  0.0859
  782MOL0     H 5522   4.823   8.004   5.879 -1.5151  0.1799  0.4676
  782MOL0     H 5523   4.736   8.143   5.950 -0.0056  0.1658  0.5594
  782MOL0     H 5524   5.034   8.126   5.985 -1.5362 -2.2399 -0.0268
  782MOL0     H 5525   4.969   8.204   5.842 -0.3918 -0.9975 -0.5054
  782MOL0     H 5526   4.863   8.292   6.110  1.7534 -0.5850  1.3298
  782MOL0     H 5527   4.865   8.376   5.946  1.0542  1.8108  1.0369
  782MOL0     H 5528   5.129   8.353   6.000 -0.9890 -1.7295 -1.2528
  782MOL0     H 5529   5.065   8.350   6.161  2.6763  0.7001 -0.7775
  782MOL0     H 5530   4.838   8.691   6.035 -4.7218  0.4062  1.0566
  782MOL0     H 5531   4.771   8.853   6.212  1.4621  1.2438  0.1969
  782MOL0     H 5532   4.936   9.062   6.628  1.6684  0.6499  1.1539
  782MOL0     H 5533   4.822   9.205   6.784 -3.4117 -0.6787  0.0109
  782MOL0     H 5534   4.847   9.304   6.996  0.1858 -0.1684 -0.7369
  782MOL0     H 5535   4.729   9.292   7.119  0.0304  0.4415 -1.1179
  782MOL0     H 5536   4.913   9.105   7.214  0.6683  1.2112  0.1746
  782MOL0     H 5537   5.006   9.182   7.093 -0.6756  0.5979 -1.1090
  782MOL0     H 5538   4.938   9.400   7.196 -0.5891  0.8831  0.9697
  782MOL0     H 5539   4.905   9.299   7.338 -0.2135 -4.7442 -0.1878
  782MOL0     H 5540   5.180   9.348   7.201 -3.6476  0.9729 -2.4227
  782MOL0     H 5541   5.165   9.209   7.310  2.9378  1.1714  1.9214
  782MOL0     H 5542   5.253   9.391   7.409  0.0820 -1.2697 -2.2944
  782MOL0     H 5543   5.119   9.298   7.489 -3.0572  0.4376 -0.3903
  782MOL0     H 5544   4.979   9.515   7.403 -0.7223  1.2929  0.0817
  782MOL0     H 5545   5.075   9.522   7.548  1.2823 -1.5044 -0.5259
  782MOL0     H 5546   5.096   9.701   7.330  0.9979  0.2661 -2.7364
  782MOL0     H 5547   5.212   9.581   7.283  0.6925 -2.5680  1.9573
  782MOL0     H 5548   5.221   9.763   7.532 -0.5628  0.7947 -1.1437
  782MOL0     H 5549   5.302   9.610   7.547 -0.5954 -0.0831  0.3915
  782MOL0     H 5550   4.701   8.863   7.026 -0.6456 -0.6206 -0.1012
  782MOL0     H 5551   4.753   8.716   6.845  0.0281  0.6551 -3.3598
  782MOL0     H 5552   5.039   8.643   6.488 -0.5975 -1.5189 -0.0357
  782MOL0     H 5553   5.150   8.544   6.297  1.6097  3.3736 -3.6658
  782MOL0     H 5554   4.823   8.487   7.177  0.4224 -0.1159 -2.0195
  782MOL0     H 5555   4.732   8.659   7.323  1.5277  0.6587 -1.2573
  782MOL0     H 5556   4.523   9.011   7.159  1.4381 -1.5882  0.9678
  782MOL0     H 5557   4.439   9.234   7.124  0.4650 -1.7917  0.0208
  782MOL0     H 5558   4.342   9.444   7.150 -0.2728  1.2604  0.1277
  782MOL0     H 5559   4.520   9.452   7.134  0.9721 -0.4697  0.5263
  782MOL0     H 5560   4.408   9.670   7.321  1.5186  0.7700  1.8627
  782MOL0     H 5561   4.378   9.697   7.159  1.2344  0.7204 -0.4427
  782MOL0     H 5562   4.579   9.798   7.240  0.4824 -0.2629  0.9249
  782MOL0     H 5563   4.616   9.686   7.106  1.2313  1.4649  0.3392
  782MOL0     H 5564   4.644   9.569   7.377  0.1730 -0.6552 -0.6017
  782MOL0     H 5565   4.727   9.542   7.234 -1.6024 -3.7414  3.2478
  782MOL0     H 5566   4.890   9.900   7.453  0.7524  0.4517 -1.6977
  782MOL0     H 5567   4.547   9.304   7.546  0.7555  0.1107 -0.8240
  782MOL0     H 5568   4.535   8.962   7.645 -1.8533  0.4200  1.4532
  782MOL0     H 5569   4.660   9.090   7.665 -0.7640 -1.0535  2.8321
  782MOL0     H 5570   4.494   9.130   7.674  0.4135 -1.6261  1.1457
  783MOL0     O 5571   2.403   9.345   2.477  0.2931 -0.5345  0.3793
  783MOL0     C 5572   2.309   9.399   2.525  0.1887 -0.5646 -0.4212
  783MOL0     O 5573   2.202   9.450   2.459 -0.1589  0.4849  0.0636
  783MOL0     C 5574   2.197   9.428   2.325  0.4200  0.3177  0.0291
  783MOL0     C 5575   2.152   9.537   2.255  0.5477  0.5557  0.0093
  783MOL0     C 5576   2.112   9.519   2.122 -0.0927 -0.4805 -0.2273
  783MOL0     C 5577   2.123   9.400   2.058  0.0893 -0.5869 -0.5458
  783MOL0     O 5578   2.071   9.412   1.931 -0.1065  0.3012 -0.4106
  783MOL0     C 5579   2.112   9.317   1.831 -0.2931  0.6356 -1.0393
  783MOL0     C 5580   2.102   9.374   1.691  0.3424 -0.1429 -0.3417
  783MOL0     C 5581   2.103   9.272   1.582 -0.8772 -0.4571  0.0462
  783MOL0     C 5582   2.240   9.245   1.541 -0.8751  0.0268 -1.1811
  783MOL0     C 5583   2.233   9.158   1.414  0.1847 -0.2694  0.2865
  783MOL0     C 5584   2.373   9.108   1.369  0.7626  0.2456 -0.1813
  783MOL0     C 5585   2.349   9.067   1.222 -0.1725  0.0820  0.2052
  783MOL0     C 5586   2.257   8.946   1.198 -0.2225 -0.2068  0.1464
  783MOL0     N 5587   2.291   8.886   1.066 -0.9055  0.1692  0.4896
  783MOL0     C 5588   2.413   8.847   1.016 -0.8093  0.7594  0.1405
  783MOL0     C 5589   2.381   8.777   0.902  0.7394 -0.0974  0.2623
  783MOL0     C 5590   2.481   8.684   0.829 -0.0970 -0.7146  0.6463
  783MOL0     C 5591   2.404   8.581   0.753 -0.7950 -0.2896  0.3487
  783MOL0     C 5592   2.484   8.518   0.640  0.0880 -0.7881 -0.2940
  783MOL0     C 5593   2.480   8.584   0.504 -2.0034 -1.3741  0.5862
  783MOL0     O 5594   2.534   8.721   0.498  0.7689  0.5860 -0.0591
  783MOL0     C 5595   2.668   8.745   0.496  0.7437 -0.2722 -1.0292
  783MOL0     C 5596   2.710   8.880   0.504  0.0264 -0.1591  0.1395
  783MOL0     C 5597   2.839   8.917   0.491  0.1458 -0.0103 -0.1108
  783MOL0     C 5598   2.945   8.826   0.482  0.1504  0.3894  0.4914
  783MOL0     C 5599   3.086   8.868   0.467 -0.1969 -0.1251 -0.1819
  783MOL0     O 5600   3.120   8.998   0.472 -0.1353  0.2084 -0.5292
  783MOL0     C 5601   3.245   9.039   0.442  0.4239  0.4272 -0.7151
  783MOL0     C 5602   3.300   9.155   0.510 -0.1168  0.6176  0.0444
  783MOL0     C 5603   3.432   9.196   0.490  0.2857  0.3596 -0.5163
  783MOL0     C 5604   3.508   9.145   0.380  0.1890 -0.2856  0.5958
  783MOL0     O 5605   3.638   9.189   0.377  0.4437 -0.4161  0.0078
  783MOL0     C 5606   3.696   9.222   0.249 -0.5567  0.3923  1.1693
  783MOL0     C 5607   3.838   9.270   0.260  0.5436 -0.2264  0.5750
  783MOL0     C 5608   3.903   9.320   0.135 -0.3851 -0.1717 -0.9000
  783MOL0     C 5609   4.035   9.394   0.160 -0.1290  0.3988 -0.0414
  783MOL0     C 5610   4.147   9.292   0.178 -0.0003 -0.6693  0.0772
  783MOL0     C 5611   4.286   9.361   0.177 -0.1639  0.6248  0.9532
  783MOL0     C 5612   4.391   9.256   0.200 -0.1381 -0.4002  0.4199
  783MOL0     C 5613   4.531   9.306   0.215 -0.3122  0.6313 -0.5849
  783MOL0    Cl 5614   4.640   9.163   0.215 -0.6659 -0.1244 -0.5645
  783MOL0     C 5615   3.447   9.047   0.296 -1.0667 -0.1614  0.3633
  783MOL0     C 5616   3.324   8.992   0.328 -0.3717 -0.0668  0.1700
  783MOL0     O 5617   3.171   8.776   0.459  1.1763  0.4477 -0.3668
  783MOL0     C 5618   2.903   8.691   0.491 -0.5282 -0.3860  0.5152
  783MOL0     C 5619   2.767   8.648   0.493 -0.3879  0.2779  1.0266
  783MOL0     N 5620   2.241   8.797   0.874  0.0772 -0.5757  0.9435
  783MOL0     N 5621   2.200   8.876   0.970  0.5533 -0.0987 -0.2283
  783MOL0     C 5622   2.175   9.294   2.125  0.2439  0.5859  0.9617
  783MOL0     C 5623   2.214   9.310   2.256  0.5688 -0.9611 -0.2581
  783MOL0     C 5624   2.307   9.448   2.667  0.3679 -0.4693 -0.2881
  783MOL0     C 5625   2.277   9.584   2.679 -0.0178 -0.3707 -0.6118
  783MOL0     C 5626   2.249   9.639   2.804 -0.2764  0.1355  0.4724
  783MOL0     C 5627   2.259   9.572   2.917 -0.1613  0.2244 -0.6296
  783MOL0     O 5628   2.245   9.632   3.039 -0.1078 -0.1821 -0.3472
  783MOL0     C 5629   2.209   9.549   3.152 -0.0897 -0.2069  0.9805
  783MOL0     C 5630   2.070   9.474   3.149 -0.1896 -0.1245  0.5090
  783MOL0     C 5631   2.034   9.396   3.271  0.1892 -0.3036 -1.0725
  783MOL0     C 5632   2.014   9.479   3.407 -0.0168 -0.6894 -0.3498
  783MOL0     C 5633   1.946   9.401   3.510 -0.9281  0.4701  0.4841
  783MOL0     C 5634   1.895   9.353   3.605 -0.1644 -0.4813 -0.2049
  783MOL0     C 5635   2.318   9.443   2.901  0.0687  0.6361  0.0013
  783MOL0     C 5636   2.339   9.374   2.777 -0.8220  0.0915  0.1011
  783MOL0     C 5637   2.395   9.234   2.777 -0.1346 -0.6104  0.9364
  783MOL0     H 5638   2.135   9.625   2.316 -0.8381 -1.1630  2.2602
  783MOL0     H 5639   2.074   9.603   2.065 -1.2849  0.4273  1.7984
  783MOL0     H 5640   2.219   9.292   1.831 -0.2301  0.6202  1.3265
  783MOL0     H 5641   2.048   9.232   1.856  2.4111 -0.7586  1.9408
  783MOL0     H 5642   2.172   9.454   1.667  1.2095 -0.5417  0.7806
  783MOL0     H 5643   2.002   9.420   1.692  0.7771  0.9075 -1.6893
  783MOL0     H 5644   2.057   9.310   1.490 -1.2568 -1.0152  0.0020
  783MOL0     H 5645   2.069   9.176   1.622  0.7543 -1.6016 -1.1934
  783MOL0     H 5646   2.305   9.333   1.535  0.9512 -1.1344  0.2797
  783MOL0     H 5647   2.291   9.198   1.626  3.0159  2.5169 -1.8906
  783MOL0     H 5648   2.152   9.085   1.416 -2.0665  2.1061  1.7392
  783MOL0     H 5649   2.217   9.244   1.348  3.2377 -0.1474 -0.4603
  783MOL0     H 5650   2.438   9.193   1.393  0.3161  0.4220  0.4256
  783MOL0     H 5651   2.411   9.017   1.418 -1.7310 -2.5574 -3.0089
  783MOL0     H 5652   2.445   9.037   1.179 -0.6489 -1.8464  0.3903
  783MOL0     H 5653   2.331   9.154   1.158  1.8941 -0.2334 -0.9043
  783MOL0     H 5654   2.279   8.864   1.267 -1.2404  1.0268  2.0499
  783MOL0     H 5655   2.150   8.970   1.200 -0.8974 -2.8666 -0.2186
  783MOL0     H 5656   2.511   8.832   1.058 -0.7700 -0.1203 -0.2351
  783MOL0     H 5657   2.539   8.751   0.765 -3.6687  2.5774  0.4618
  783MOL0     H 5658   2.556   8.651   0.902  1.3843 -0.3310 -0.6452
  783MOL0     H 5659   2.389   8.494   0.818  3.5581 -1.8482 -0.3847
  783MOL0     H 5660   2.314   8.615   0.702  2.4401  5.0008 -2.7766
  783MOL0     H 5661   2.450   8.416   0.621  2.1707 -1.5401 -0.2218
  783MOL0     H 5662   2.588   8.513   0.673 -0.0352  0.2119  0.2872
  783MOL0     H 5663   2.375   8.588   0.474 -1.1043 -0.0412 -2.9052
  783MOL0     H 5664   2.538   8.518   0.440 -0.0742  2.2813 -1.8058
  783MOL0     H 5665   2.642   8.963   0.517  3.0675  2.4686  0.3777
  783MOL0     H 5666   2.860   9.024   0.487  3.1043 -0.5592 -2.9614
  783MOL0     H 5667   3.242   9.215   0.579  1.7506  2.5638  0.0210
  783MOL0     H 5668   3.476   9.263   0.562 -2.5687 -2.5317  4.5315
  783MOL0     H 5669   3.698   9.134   0.185 -0.1255 -0.1755  1.9451
  783MOL0     H 5670   3.634   9.302   0.206  0.1974 -0.0482 -0.8444
  783MOL0     H 5671   3.841   9.343   0.341 -0.9342 -1.8420  2.2068
  783MOL0     H 5672   3.898   9.188   0.302  1.6691 -1.0600 -2.4209
  783MOL0     H 5673   3.907   9.236   0.065 -1.5161 -0.4959 -0.5980
  783MOL0     H 5674   3.835   9.391   0.087 -1.1607  1.2490  2.0230
  783MOL0     H 5675   4.025   9.455   0.250 -0.3145  1.4596 -0.7753
  783MOL0     H 5676   4.045   9.464   0.077 -0.2739  0.8434  0.3139
  783MOL0     H 5677   4.137   9.216   0.100  1.5400 -3.0607  2.0413
  783MOL0     H 5678   4.134   9.246   0.277 -2.3657 -0.7020 -0.1981
  783MOL0     H 5679   4.290   9.415   0.082 -1.8151  0.9581  1.0417
  783MOL0     H 5680   4.299   9.439   0.253 -0.8846  1.6335  0.0728
  783MOL0     H 5681   4.395   9.182   0.119 -1.6023 -1.6752  1.4609
  783MOL0     H 5682   4.360   9.199   0.288 -0.6386 -1.8014 -0.6236
  783MOL0     H 5683   4.552   9.375   0.133 -3.4998  1.6175 -0.7350
  783MOL0     H 5684   4.545   9.366   0.306 -0.9686 -0.8074  0.5102
  783MOL0     H 5685   3.506   9.022   0.208  1.1861  1.6857  1.2579
  783MOL0     H 5686   3.284   8.918   0.260 -1.5367  1.3946 -0.8165
  783MOL0     H 5687   2.974   8.610   0.473 -0.6242 -0.5342  0.7988
  783MOL0     H 5688   2.742   8.543   0.495 -0.5897  0.2888 -0.0123
  783MOL0     H 5689   2.190   9.200   2.073  0.5475  1.8570 -1.3599
  783MOL0     H 5690   2.253   9.226   2.314 -1.7310  0.6758  4.1349
  783MOL0     H 5691   2.252   9.653   2.599 -0.5957 -0.3055 -0.3830
  783MOL0     H 5692   2.225   9.744   2.817 -3.3504 -0.7709  3.3720
  783MOL0     H 5693   2.220   9.602   3.247  4.8945 -1.1803  1.1963
  783MOL0     H 5694   2.283   9.471   3.170 -1.3566 -1.3189  1.5807
  783MOL0     H 5695   2.076   9.396   3.073  3.6588 -0.9797  1.4512
  783MOL0     H 5696   1.987   9.542   3.131 -1.5608 -0.3049  4.9369
  783MOL0     H 5697   2.116   9.326   3.291  1.0507  1.3086  1.8576
  783MOL0     H 5698   1.948   9.339   3.236 -1.2605  0.8712  0.3884
  783MOL0     H 5699   2.107   9.514   3.453 -0.5934  0.7595 -0.2125
  783MOL0     H 5700   1.950   9.566   3.389  1.6787  0.6140 -0.4275
  783MOL0     H 5701   1.833   9.313   3.682 -0.9180 -0.0915 -0.6014
  783MOL0     H 5702   2.333   9.378   2.986 -1.3731 -0.9693 -0.9313
  783MOL0     H 5703   2.375   9.187   2.874  0.9278 -0.5895  1.1753
  783MOL0     H 5704   2.361   9.175   2.692  0.4778  0.4774 -0.0952
  783MOL0     H 5705   2.504   9.237   2.766 -0.4505  0.5515 -4.2504
  784MOL0     O 5706  10.843   2.522   4.056  0.4624 -0.2728  0.8627
  784MOL0     C 5707  10.946   2.509   3.988  0.1789  0.7797 -0.4143
  784MOL0     O 5708  11.012   2.391   3.959 -0.6209  0.2447 -0.6240
  784MOL0     C 5709  10.955   2.275   4.007  0.0001  1.6704  0.7383
  784MOL0     C 5710  10.935   2.240   4.141  0.0930 -0.0970 -0.6237
  784MOL0     C 5711  10.885   2.111   4.184  0.2472 -0.7968  1.1535
  784MOL0     C 5712  10.865   2.010   4.089 -0.0206  0.3809 -0.1579
  784MOL0     O 5713  10.846   1.872   4.121 -0.7972  0.1005 -0.4139
  784MOL0     C 5714  10.806   1.829   4.256  1.0071 -0.1697 -0.1478
  784MOL0     C 5715  10.832   1.678   4.265 -0.2288  0.0474 -0.2250
  784MOL0     C 5716  10.759   1.606   4.148  0.0156  0.8213 -0.1060
  784MOL0     C 5717  10.725   1.448   4.162  0.3499 -0.0220  0.0677
  784MOL0     C 5718  10.638   1.430   4.286 -0.2112 -0.2616  0.3703
  784MOL0     C 5719  10.566   1.292   4.281 -0.1213  0.3850  0.2659
  784MOL0     C 5720  10.471   1.279   4.395 -0.0100 -0.4835  0.4312
  784MOL0     C 5721  10.411   1.140   4.419  1.0404 -0.0643 -1.0114
  784MOL0     N 5722  10.328   1.102   4.299 -0.5211  0.3448 -0.4585
  784MOL0     C 5723  10.382   1.028   4.202  0.2879 -0.4431 -0.5907
  784MOL0     C 5724  10.273   1.002   4.117 -0.1431 -0.2983 -1.6344
  784MOL0     C 5725  10.262   0.941   3.979 -0.4291  1.1916 -0.4640
  784MOL0     C 5726  10.362   0.831   3.952  0.1401 -0.1460  0.9215
  784MOL0     C 5727  10.390   0.809   3.800  0.7874 -1.1811 -0.6963
  784MOL0     C 5728  10.522   0.729   3.769  1.0401  0.9298 -0.3679
  784MOL0     O 5729  10.520   0.602   3.830  1.3889 -0.1355 -0.1568
  784MOL0     C 5730  10.615   0.503   3.799 -0.2390 -0.1018  0.3671
  784MOL0     C 5731  10.719   0.522   3.712 -0.2736 -0.1333 -0.6676
  784MOL0     C 5732  10.818   0.426   3.681 -0.3221 -1.2421 -0.0366
  784MOL0     C 5733  10.811   0.304   3.752 -0.1631 -0.7230  0.3825
  784MOL0     C 5734  10.923   0.205   3.728 -0.0011  0.2261 -0.3098
  784MOL0     O 5735  11.024   0.230   3.630  0.2396 -0.2978  0.6505
  784MOL0     C 5736  11.146   0.163   3.631  0.6370 -1.4657 -0.6443
  784MOL0     C 5737  11.207   0.196   3.509 -0.5587 -0.0834 -0.2099
  784MOL0     C 5738  11.331   0.136   3.479 -0.0739  0.5866 -0.2092
  784MOL0     C 5739  11.397   0.075   3.586 -0.0792  0.4917  0.1667
  784MOL0     O 5740  11.526   0.024   3.572  0.3700 -1.1177  0.1668
  784MOL0     C 5741  11.630   0.121   3.605 -0.3427 -0.2055 -0.3664
  784MOL0     C 5742  11.770   0.083   3.561 -0.6003 -0.4577 -0.3170
  784MOL0     C 5743  11.889   0.185   3.575 -0.1728 -0.8440  0.4623
  784MOL0     C 5744  11.931   0.221   3.720 -0.8172  0.3138 -0.5405
  784MOL0     C 5745  12.042   0.322   3.736 -0.3606 -0.6894 -0.2773
  784MOL0     C 5746  12.072   0.361   3.875  0.1031 -0.2844 -0.2421
  784MOL0     C 5747  11.965   0.424   3.959  0.3296 -0.3811 -0.9152
  784MOL0     C 5748  12.011   0.480   4.100  0.2875 -0.2327  0.1877
  784MOL0    Cl 5749  12.126   0.612   4.077  0.1420  0.4659 -0.2643
  784MOL0     C 5750  11.349   0.063   3.713 -0.9039  0.1519 -0.2896
  784MOL0     C 5751  11.218   0.115   3.742 -0.2453  0.9472  0.5668
  784MOL0     O 5752  10.924   0.105   3.802 -0.1955 -1.0702 -0.2255
  784MOL0     C 5753  10.695   0.273   3.830  0.1879 -0.5216  0.4621
  784MOL0     C 5754  10.596   0.370   3.852  0.0811  0.1690  0.2013
  784MOL0     N 5755  10.163   1.057   4.175  0.0013 -0.1239  1.0139
  784MOL0     N 5756  10.195   1.118   4.284  0.1111  1.4023  0.5078
  784MOL0     C 5757  10.874   2.050   3.949  0.1474 -0.3938  0.1274
  784MOL0     C 5758  10.930   2.177   3.912 -0.4343 -0.0085 -0.6741
  784MOL0     C 5759  11.009   2.634   3.936  0.4470  0.1112 -0.3432
  784MOL0     C 5760  10.924   2.733   3.871  0.3998  0.2776  0.9726
  784MOL0     C 5761  10.987   2.843   3.820  1.0272  0.8716 -0.2062
  784MOL0     C 5762  11.124   2.862   3.837  0.0455 -0.6484 -0.0549
  784MOL0     O 5763  11.168   2.981   3.784  0.4013 -0.1228  0.0889
  784MOL0     C 5764  11.307   3.005   3.775  1.0818  0.2403 -0.1471
  784MOL0     C 5765  11.385   2.933   3.661  0.3682 -0.8736 -0.1343
  784MOL0     C 5766  11.516   2.873   3.712 -0.5312  0.4781  0.1577
  784MOL0     C 5767  11.598   2.805   3.595 -0.0748 -0.3827 -0.4223
  784MOL0     C 5768  11.666   2.902   3.517  0.2135 -0.1379 -0.5934
  784MOL0     C 5769  11.718   2.995   3.449 -0.0349 -0.8702  0.4155
  784MOL0     C 5770  11.194   2.777   3.921  0.0076 -0.1026  0.2479
  784MOL0     C 5771  11.141   2.655   3.969  0.5312  0.0373  0.4846
  784MOL0     C 5772  11.222   2.562   4.049 -1.7453  0.0189 -0.7474
  784MOL0     H 5773  10.940   2.310   4.224  0.4245 -0.6989 -0.1295
  784MOL0     H 5774  10.867   2.090   4.289  2.1172  0.7372  1.8588
  784MOL0     H 5775  10.857   1.885   4.334 -1.2515 -0.2030  1.4396
  784MOL0     H 5776  10.697   1.841   4.258  0.9372  0.3186 -2.7245
  784MOL0     H 5777  10.805   1.638   4.363  1.3622  3.3004  1.7384
  784MOL0     H 5778  10.940   1.663   4.261  0.0236  1.6504 -0.2578
  784MOL0     H 5779  10.829   1.614   4.065 -1.6511 -0.2493 -1.6900
  784MOL0     H 5780  10.667   1.654   4.113 -2.1590 -2.0045  1.3176
  784MOL0     H 5781  10.669   1.401   4.081 -0.1283 -1.6862  1.3247
  784MOL0     H 5782  10.819   1.396   4.182 -0.9418 -1.6645  2.2648
  784MOL0     H 5783  10.685   1.443   4.384 -2.9825  0.9140  1.6484
  784MOL0     H 5784  10.554   1.500   4.292  0.7004  0.7332  2.4648
  784MOL0     H 5785  10.505   1.291   4.190 -1.1690  0.4679  0.9536
  784MOL0     H 5786  10.651   1.223   4.276 -1.5800 -1.3860 -1.5606
  784MOL0     H 5787  10.386   1.347   4.388  0.6385  0.3822  0.7786
  784MOL0     H 5788  10.527   1.299   4.487  3.3709  0.3633 -1.6181
  784MOL0     H 5789  10.493   1.068   4.429  0.5421 -0.6449 -1.0188
  784MOL0     H 5790  10.347   1.139   4.508 -1.2063  0.3769 -2.5440
  784MOL0     H 5791  10.487   1.014   4.177 -0.6056 -4.2744 -3.1015
  784MOL0     H 5792  10.168   0.889   3.961  2.3864 -3.8790 -2.6869
  784MOL0     H 5793  10.266   1.020   3.902 -1.6947  1.1643 -0.5817
  784MOL0     H 5794  10.450   0.867   4.006  0.6888 -1.8569  1.2318
  784MOL0     H 5795  10.330   0.739   4.001 -0.4041 -1.9274 -2.4309
  784MOL0     H 5796  10.394   0.909   3.754  1.3154  0.2250  2.1812
  784MOL0     H 5797  10.296   0.767   3.762  0.7912 -1.8741  0.0518
  784MOL0     H 5798  10.610   0.788   3.797  0.6171  1.0717  0.7059
  784MOL0     H 5799  10.517   0.693   3.665 -0.5583 -2.4677  0.7300
  784MOL0     H 5800  10.743   0.620   3.672  1.0598  0.6548  1.8540
  784MOL0     H 5801  10.892   0.445   3.604 -1.0747 -0.0675 -0.4941
  784MOL0     H 5802  11.154   0.244   3.427 -0.2269  0.5024 -0.0873
  784MOL0     H 5803  11.375   0.122   3.380 -2.6167 -1.0144 -1.2293
  784MOL0     H 5804  11.613   0.219   3.557  1.4906 -1.1026 -3.1177
  784MOL0     H 5805  11.633   0.154   3.709  1.5366  3.1201 -1.3274
  784MOL0     H 5806  11.810  -0.007   3.609  4.4251  0.3519 -2.3505
  784MOL0     H 5807  11.758   0.083   3.452 -1.3308  2.4381 -0.3147
  784MOL0     H 5808  11.974   0.146   3.517 -0.9761  0.5220 -1.7735
  784MOL0     H 5809  11.867   0.286   3.537 -0.0350 -0.3828  1.5820
  784MOL0     H 5810  11.951   0.134   3.783 -1.0806  0.2164 -0.5900
  784MOL0     H 5811  11.850   0.280   3.763 -0.7869 -1.0390  1.4929
  784MOL0     H 5812  12.022   0.413   3.678 -0.4135 -0.6539 -0.2034
  784MOL0     H 5813  12.132   0.279   3.691  1.8031  2.0491  1.1898
  784MOL0     H 5814  12.092   0.266   3.925 -1.1847  0.6344  2.2420
  784MOL0     H 5815  12.160   0.426   3.886 -0.6418  0.6962  0.1120
  784MOL0     H 5816  11.889   0.350   3.986 -2.9513  3.3007  1.1167
  784MOL0     H 5817  11.914   0.503   3.902 -2.1543 -1.2117  0.0115
  784MOL0     H 5818  11.919   0.508   4.152 -0.9822 -0.5399 -1.7766
  784MOL0     H 5819  12.051   0.401   4.164  0.6305 -0.1447  0.0806
  784MOL0     H 5820  11.416   0.023   3.788  0.4559 -1.5251 -2.2996
  784MOL0     H 5821  11.173   0.109   3.840 -2.8314 -3.0206 -0.5906
  784MOL0     H 5822  10.701   0.178   3.882  0.6461 -0.6014  0.2660
  784MOL0     H 5823  10.512   0.333   3.909  0.3932 -3.5809 -1.5004
  784MOL0     H 5824  10.844   1.972   3.880  1.9404 -0.7666 -0.2820
  784MOL0     H 5825  10.939   2.198   3.806  2.7577 -0.6221 -0.6040
  784MOL0     H 5826  10.824   2.704   3.841  0.8205 -0.4873  0.2487
  784MOL0     H 5827  10.933   2.919   3.766 -0.9327 -0.1486  0.2109
  784MOL0     H 5828  11.349   2.978   3.872  0.4758  1.3629  0.4471
  784MOL0     H 5829  11.325   3.110   3.749 -0.7341  0.7284  0.4323
  784MOL0     H 5830  11.386   3.010   3.584  0.2056 -0.4169  0.3156
  784MOL0     H 5831  11.312   2.857   3.632 -2.7289  1.0384  2.0084
  784MOL0     H 5832  11.513   2.806   3.798  3.8078  0.3996  0.4699
  784MOL0     H 5833  11.571   2.959   3.750 -0.1965 -0.5527  2.1050
  784MOL0     H 5834  11.671   2.732   3.632  1.6556  1.8391  0.8002
  784MOL0     H 5835  11.537   2.750   3.522  1.7824 -2.1392 -0.7389
  784MOL0     H 5836  11.770   3.076   3.401 -2.0011  0.6599  0.7398
  784MOL0     H 5837  11.295   2.792   3.960 -0.0364  0.8069  0.0332
  784MOL0     H 5838  11.189   2.536   4.150  0.4097 -2.6621 -0.6106
  784MOL0     H 5839  11.238   2.475   3.985 -2.1032 -2.4596  2.2755
  784MOL0     H 5840  11.321   2.607   4.064 -2.0492 -0.2142  3.1533
  785MOL0     O 5841   5.075   5.805  11.495 -0.7389  0.4248  0.6571
  785MOL0     C 5842   4.978   5.771  11.547  0.4180  0.0205  0.4424
  785MOL0     O 5843   4.863   5.848  11.545  0.2284  0.7234  0.1576
  785MOL0     C 5844   4.859   5.983  11.523  0.0772  0.4784 -0.2049
  785MOL0     C 5845   4.745   6.031  11.460  0.1955 -0.2342 -0.5947
  785MOL0     C 5846   4.742   6.177  11.426  0.5385  0.7914 -0.7150
  785MOL0     C 5847   4.839   6.265  11.471  0.0072 -0.2578 -1.2229
  785MOL0     O 5848   4.824   6.394  11.438 -0.7889 -0.5759 -0.0243
  785MOL0     C 5849   4.868   6.492  11.534 -0.7503  0.2909  0.7164
  785MOL0     C 5850   4.782   6.627  11.518  0.2731 -0.7886 -0.1238
  785MOL0     C 5851   4.830   6.740  11.422  0.1874  0.4058  0.3234
  785MOL0     C 5852   4.757   6.755  11.288 -0.1954  0.0199 -0.2962
  785MOL0     C 5853   4.821   6.868  11.206 -0.2565 -0.1466 -0.3932
  785MOL0     C 5854   4.723   6.912  11.092  0.2677  0.0298 -0.5830
  785MOL0     C 5855   4.757   7.046  11.033 -0.1131 -0.1638  0.1472
  785MOL0     C 5856   4.640   7.108  10.960  0.4660  0.1412  0.1351
  785MOL0     N 5857   4.673   7.247  10.913  0.7868 -0.6129 -0.1891
  785MOL0     C 5858   4.598   7.360  10.947 -0.1176  0.1417 -0.5965
  785MOL0     C 5859   4.667   7.464  10.883  0.4674 -1.3697  0.4039
  785MOL0     C 5860   4.641   7.618  10.889  0.3051 -0.7674 -0.1359
  785MOL0     C 5861   4.524   7.650  10.808 -0.2547 -1.0246  0.3869
  785MOL0     C 5862   4.521   7.608  10.662 -1.4245 -0.0621  0.1398
  785MOL0     C 5863   4.403   7.664  10.581  0.5234 -0.2532  0.8421
  785MOL0     O 5864   4.288   7.638  10.665 -0.1947 -0.4687 -0.0447
  785MOL0     C 5865   4.163   7.689  10.641 -0.5498  0.7258 -0.5381
  785MOL0     C 5866   4.060   7.659  10.725 -0.7890 -0.5426 -0.4402
  785MOL0     C 5867   3.933   7.711  10.705 -0.9466  0.0083 -0.2305
  785MOL0     C 5868   3.915   7.803  10.596 -0.0648 -0.3699 -0.4078
  785MOL0     C 5869   3.780   7.866  10.579  0.0106  0.9812  0.2121
  785MOL0     O 5870   3.771   7.947  10.480 -0.6489 -0.0200  0.6150
  785MOL0     C 5871   3.651   7.976  10.412 -0.7184 -1.5829 -0.0376
  785MOL0     C 5872   3.665   8.105  10.341  0.3308  0.2969 -0.1442
  785MOL0     C 5873   3.557   8.144  10.267 -0.0757  0.4074  0.2095
  785MOL0     C 5874   3.437   8.069  10.261  0.2353  0.8778  0.0186
  785MOL0     O 5875   3.333   8.113  10.180 -0.8199 -0.1085 -0.1643
  785MOL0     C 5876   3.199   8.059  10.192 -0.4915 -0.4980 -0.0813
  785MOL0     C 5877   3.109   8.172  10.134  1.4736  0.5169 -0.5892
  785MOL0     C 5878   3.118   8.301  10.214  0.0396 -0.1451  0.3207
  785MOL0     C 5879   3.056   8.293  10.355  0.1027  0.4848 -0.0692
  785MOL0     C 5880   2.917   8.226  10.372  0.7672  0.4052 -0.6110
  785MOL0     C 5881   2.898   8.168  10.501 -0.6696  0.1484  0.3202
  785MOL0     C 5882   2.749   8.148  10.541  1.0926  0.0254  0.2521
  785MOL0     C 5883   2.713   8.035  10.632  0.1932  0.2314  0.1217
  785MOL0    Cl 5884   2.677   8.110  10.791 -0.3556 -0.1772  0.1586
  785MOL0     C 5885   3.430   7.946  10.332  0.2251  0.0332  0.4340
  785MOL0     C 5886   3.543   7.899  10.400  0.8617  0.6909  0.2867
  785MOL0     O 5887   3.684   7.835  10.652 -0.3066 -0.4571 -0.5987
  785MOL0     C 5888   4.020   7.832  10.505 -0.2239 -0.7804  0.3392
  785MOL0     C 5889   4.147   7.775  10.538 -0.2451 -0.5351 -0.3594
  785MOL0     N 5890   4.773   7.415  10.816 -0.1151  1.0110 -1.1682
  785MOL0     N 5891   4.771   7.285  10.823 -0.2466  0.0169  1.2689
  785MOL0     C 5892   4.945   6.213  11.541 -0.2774  0.2816 -0.4303
  785MOL0     C 5893   4.954   6.072  11.562 -0.9944  0.6550  0.2001
  785MOL0     C 5894   4.954   5.641  11.609 -0.0607 -0.1210  0.7437
  785MOL0     C 5895   4.917   5.637  11.741 -0.5777  0.2551  0.1426
  785MOL0     C 5896   4.877   5.521  11.799  0.1985 -0.4109 -0.2274
  785MOL0     C 5897   4.876   5.398  11.729  0.2748  0.0466 -0.1641
  785MOL0     O 5898   4.825   5.299  11.804  0.2900 -0.5395  0.6432
  785MOL0     C 5899   4.811   5.167  11.743  0.3563  0.0310 -0.9753
  785MOL0     C 5900   4.913   5.063  11.796  0.4328 -0.8027  1.3516
  785MOL0     C 5901   5.044   5.058  11.727 -0.4710 -0.1998 -1.0488
  785MOL0     C 5902   5.067   4.938  11.640  0.0827 -0.7977  0.7130
  785MOL0     C 5903   5.206   4.921  11.593  1.3287 -0.2059 -0.5197
  785MOL0     C 5904   5.322   4.916  11.562 -0.1223 -0.5611 -0.5644
  785MOL0     C 5905   4.941   5.392  11.601  0.4582 -0.1741 -0.5515
  785MOL0     C 5906   4.983   5.516  11.546 -0.2000  0.6707 -0.0493
  785MOL0     C 5907   5.059   5.516  11.412  0.8443  0.0847  0.1306
  785MOL0     H 5908   4.664   5.976  11.414 -1.3490  2.7398 -1.6513
  785MOL0     H 5909   4.654   6.215  11.376 -0.3742  2.4793  1.9216
  785MOL0     H 5910   4.844   6.466  11.637  1.5709 -0.7182  1.0700
  785MOL0     H 5911   4.976   6.508  11.526 -0.9601  1.8793  0.7165
  785MOL0     H 5912   4.780   6.679  11.614 -1.0246 -1.2477  0.1174
  785MOL0     H 5913   4.678   6.602  11.496  0.6021 -1.5237 -0.9099
  785MOL0     H 5914   4.938   6.736  11.401  0.2179  1.3601  0.2749
  785MOL0     H 5915   4.826   6.839  11.468  2.8618  0.0743  1.4603
  785MOL0     H 5916   4.750   6.660  11.234 -0.5992  0.0897 -0.3653
  785MOL0     H 5917   4.656   6.789  11.311 -0.8138 -0.7578 -1.7453
  785MOL0     H 5918   4.838   6.953  11.273 -1.8021  0.4305 -0.6838
  785MOL0     H 5919   4.921   6.833  11.179 -0.7874 -0.4341 -2.0853
  785MOL0     H 5920   4.720   6.829  11.020  0.7158 -0.4711 -0.0335
  785MOL0     H 5921   4.625   6.931  11.135  0.2489  2.2661 -1.4928
  785MOL0     H 5922   4.842   7.034  10.964  1.4581 -0.2178  2.0089
  785MOL0     H 5923   4.780   7.107  11.120 -0.5470 -1.4474  1.1957
  785MOL0     H 5924   4.614   7.050  10.872  1.2581 -0.3500  0.2169
  785MOL0     H 5925   4.556   7.131  11.026  1.8378  0.9289  1.6851
  785MOL0     H 5926   4.508   7.373  11.006  1.4787 -1.5096  2.3946
  785MOL0     H 5927   4.617   7.653  10.990 -1.0866  1.5034 -1.1863
  785MOL0     H 5928   4.732   7.663  10.848  0.4422  1.3963  2.2707
  785MOL0     H 5929   4.450   7.590  10.861 -0.7682 -1.2867 -0.6108
  785MOL0     H 5930   4.498   7.756  10.818  0.8288 -0.6719 -0.3808
  785MOL0     H 5931   4.532   7.499  10.654  3.9430  0.2843 -0.7385
  785MOL0     H 5932   4.614   7.646  10.620 -1.2709 -0.0600  0.4751
  785MOL0     H 5933   4.397   7.610  10.486  1.5403 -1.3135  1.3591
  785MOL0     H 5934   4.409   7.771  10.563 -0.3809 -0.2034  0.7776
  785MOL0     H 5935   4.090   7.586  10.799 -0.2578  0.0722 -0.0324
  785MOL0     H 5936   3.847   7.687  10.767 -0.8161 -0.6502 -0.2900
  785MOL0     H 5937   3.751   8.169  10.355  1.2452 -1.2239  1.7373
  785MOL0     H 5938   3.560   8.243  10.224  0.9691 -0.1875 -1.1647
  785MOL0     H 5939   3.193   7.975  10.121 -1.7371 -0.2181 -0.3327
  785MOL0     H 5940   3.184   8.032  10.297 -1.2905  1.8053  0.4387
  785MOL0     H 5941   3.141   8.202  10.034  0.1020 -2.3572 -2.0069
  785MOL0     H 5942   3.003   8.147  10.124  1.4148 -0.5079  1.9315
  785MOL0     H 5943   3.220   8.341  10.209  0.8438 -2.2585 -2.3212
  785MOL0     H 5944   3.052   8.375  10.167  1.9998  2.5530  1.5333
  785MOL0     H 5945   3.061   8.392  10.401  1.9053 -0.2341  1.4103
  785MOL0     H 5946   3.125   8.238  10.420 -1.0015 -0.8396  0.0414
  785MOL0     H 5947   2.906   8.142  10.303  1.3115 -1.6534  1.6533
  785MOL0     H 5948   2.844   8.300  10.337  0.0061  0.3211  0.7491
  785MOL0     H 5949   2.950   8.073  10.485 -1.2530  0.3015 -3.3457
  785MOL0     H 5950   2.949   8.233  10.572 -0.4363 -1.0163  1.2478
  785MOL0     H 5951   2.691   8.126  10.450 -1.2830 -0.9054  1.8911
  785MOL0     H 5952   2.703   8.239  10.582 -3.1952 -1.3557 -0.9545
  785MOL0     H 5953   2.626   7.979  10.597  0.2126  0.0636  0.3403
  785MOL0     H 5954   2.802   7.972  10.640  1.2189  1.7831  1.3815
  785MOL0     H 5955   3.333   7.896  10.332 -0.8456  1.8934  2.5274
  785MOL0     H 5956   3.539   7.805  10.453 -0.9851  0.4655 -0.1684
  785MOL0     H 5957   4.023   7.884  10.410  1.6063 -2.5102 -0.6346
  785MOL0     H 5958   4.232   7.807  10.479 -0.7318  2.6180  0.4551
  785MOL0     H 5959   5.018   6.287  11.573 -0.1643  0.1711 -0.4321
  785MOL0     H 5960   5.045   6.029  11.601  1.4878  1.8542 -3.6836
  785MOL0     H 5961   4.892   5.729  11.791 -2.2039  0.5342 -1.0909
  785MOL0     H 5962   4.834   5.521  11.899  0.6839  0.7278 -0.0045
  785MOL0     H 5963   4.810   5.164  11.634 -0.5085  2.3668 -1.0679
  785MOL0     H 5964   4.708   5.142  11.767  0.1571  0.5803 -1.2479
  785MOL0     H 5965   4.867   4.963  11.795  1.9032 -1.6206 -2.3764
  785MOL0     H 5966   4.935   5.100  11.896  0.3639 -1.3255  1.5639
  785MOL0     H 5967   5.121   5.049  11.804 -0.9558 -0.9913 -0.6455
  785MOL0     H 5968   5.057   5.153  11.674 -0.5559  0.2485 -0.2766
  785MOL0     H 5969   5.047   4.848  11.699  0.8797 -0.8604  0.8931
  785MOL0     H 5970   4.996   4.936  11.557  0.8924 -1.8175  0.0146
  785MOL0     H 5971   5.426   4.928  11.538  0.4305  3.2617  2.7291
  785MOL0     H 5972   4.969   5.303  11.546  2.3004 -0.0575  0.1263
  785MOL0     H 5973   4.990   5.547  11.333 -2.5593  0.8534  3.1529
  785MOL0     H 5974   5.148   5.579  11.420 -0.3448  1.6643  1.7498
  785MOL0     H 5975   5.079   5.411  11.387  2.8568  0.9170 -2.1393
  786MOL0     O 5976   3.940   5.332   4.207  0.4697  0.5383 -0.0244
  786MOL0     C 5977   3.918   5.212   4.227 -0.4841  0.0469 -0.1031
  786MOL0     O 5978   3.822   5.137   4.174 -0.1450 -0.0212  1.1416
  786MOL0     C 5979   3.701   5.204   4.166  0.5136  0.5707 -0.6995
  786MOL0     C 5980   3.656   5.275   4.052 -0.0142 -0.0775 -0.2307
  786MOL0     C 5981   3.565   5.368   4.072  0.8580 -0.8384  1.3078
  786MOL0     C 5982   3.502   5.398   4.190  0.2061  1.1541  0.0044
  786MOL0     O 5983   3.401   5.489   4.207 -0.0975 -0.3194  0.3388
  786MOL0     C 5984   3.427   5.607   4.124  0.2237  0.6928 -0.5350
  786MOL0     C 5985   3.292   5.692   4.117  0.6350 -0.5892  0.6776
  786MOL0     C 5986   3.237   5.748   4.253 -0.1657 -0.9149  0.8226
  786MOL0     C 5987   3.092   5.780   4.241  0.4474  0.3045  1.1576
  786MOL0     C 5988   3.026   5.809   4.376  0.4793 -0.0371 -0.7157
  786MOL0     C 5989   2.874   5.838   4.369 -0.9405 -0.2045 -0.0549
  786MOL0     C 5990   2.814   5.810   4.500  0.0119  0.2881  0.2457
  786MOL0     C 5991   2.834   5.926   4.602  0.2480 -0.2393  0.5440
  786MOL0     N 5992   2.764   5.900   4.724 -0.7948 -0.1711  0.8439
  786MOL0     C 5993   2.706   5.779   4.765  0.7520 -0.3404 -0.0207
  786MOL0     C 5994   2.654   5.810   4.887 -0.8133 -0.2796  0.1914
  786MOL0     C 5995   2.595   5.718   4.989 -0.0904  0.7241 -0.3779
  786MOL0     C 5996   2.676   5.593   5.016 -0.1753  0.4704 -0.0499
  786MOL0     C 5997   2.816   5.618   5.083 -0.7859  0.7497  0.5881
  786MOL0     C 5998   2.809   5.680   5.217  0.4199 -0.1982  0.3417
  786MOL0     O 5999   2.729   5.596   5.306 -0.0029  0.9894 -0.1903
  786MOL0     C 6000   2.794   5.494   5.381 -0.1006  0.0806  0.3957
  786MOL0     C 6001   2.928   5.449   5.371  0.6237  0.1697 -0.2447
  786MOL0     C 6002   2.975   5.334   5.443 -0.3735  0.3047 -0.1693
  786MOL0     C 6003   2.894   5.277   5.543 -0.2138  0.0267 -0.0428
  786MOL0     C 6004   2.954   5.173   5.623 -0.0887  1.5270  0.5121
  786MOL0     O 6005   3.079   5.123   5.589  0.6057 -0.6862 -0.3449
  786MOL0     C 6006   3.100   4.988   5.620  0.7944 -0.1129  0.0109
  786MOL0     C 6007   3.000   4.889   5.602  0.7832  0.8612 -0.3964
  786MOL0     C 6008   3.019   4.753   5.618 -0.1743 -0.3229 -0.6031
  786MOL0     C 6009   3.144   4.716   5.682 -0.0601  0.3555  0.0414
  786MOL0     O 6010   3.168   4.591   5.728  0.9299  0.0021 -0.7089
  786MOL0     C 6011   3.061   4.493   5.752 -0.3307  0.3116 -0.1087
  786MOL0     C 6012   3.121   4.359   5.796  0.7369  1.2041  0.9701
  786MOL0     C 6013   3.007   4.262   5.821 -0.0580  0.2143 -0.4956
  786MOL0     C 6014   2.945   4.284   5.958  0.8681 -0.1000  0.2277
  786MOL0     C 6015   2.787   4.271   5.974  1.3268 -0.8767 -0.2444
  786MOL0     C 6016   2.742   4.303   6.119 -0.2007  0.6398  0.0431
  786MOL0     C 6017   2.774   4.451   6.167 -1.1071  0.0101 -0.5767
  786MOL0     C 6018   2.786   4.448   6.326  0.6643 -0.0795 -0.5755
  786MOL0    Cl 6019   2.926   4.352   6.398  0.2232  0.1326 -0.1534
  786MOL0     C 6020   3.250   4.808   5.692 -0.2931  0.1090 -0.4628
  786MOL0     C 6021   3.226   4.943   5.661  0.4656 -0.0991  0.8108
  786MOL0     O 6022   2.890   5.129   5.714  0.2987  0.5637  0.0636
  786MOL0     C 6023   2.754   5.307   5.543  0.5439 -0.1503  0.2964
  786MOL0     C 6024   2.708   5.414   5.457 -0.3830  0.0849 -0.0452
  786MOL0     N 6025   2.660   5.945   4.916 -0.6774 -0.6076  0.1344
  786MOL0     N 6026   2.731   5.995   4.819 -0.4378  1.0060  0.2605
  786MOL0     C 6027   3.533   5.326   4.300 -0.3449  0.0350  0.5222
  786MOL0     C 6028   3.645   5.244   4.294 -0.6911 -0.4136  0.3001
  786MOL0     C 6029   4.009   5.143   4.318  0.2815 -0.9026  0.1506
  786MOL0     C 6030   4.059   5.013   4.285 -0.0896  0.1152  0.1353
  786MOL0     C 6031   4.164   4.952   4.356 -0.2851 -1.0159  0.0316
  786MOL0     C 6032   4.204   5.003   4.476  0.1629 -0.1167 -0.7895
  786MOL0     O 6033   4.304   4.944   4.550  0.8012  0.3809 -0.6487
  786MOL0     C 6034   4.340   4.996   4.680 -0.8154  0.0297  0.7018
  786MOL0     C 6035   4.434   4.893   4.753 -0.4152 -0.0229  0.1739
  786MOL0     C 6036   4.460   4.943   4.898 -0.0129  0.1024 -0.2100
  786MOL0     C 6037   4.526   4.834   4.981 -0.2511 -0.1400 -0.0713
  786MOL0     C 6038   4.555   4.883   5.116  0.9750  0.7678  0.5432
  786MOL0     C 6039   4.565   4.917   5.231  0.9217 -0.2679 -0.4810
  786MOL0     C 6040   4.158   5.127   4.520 -0.3209 -0.9187 -0.3281
  786MOL0     C 6041   4.067   5.209   4.441  0.3522  0.6763 -1.6356
  786MOL0     C 6042   4.043   5.350   4.477 -0.6124  0.1911 -0.1653
  786MOL0     H 6043   3.692   5.277   3.950 -2.3970  1.8279 -1.1304
  786MOL0     H 6044   3.536   5.421   3.981  0.2081  1.5357  2.8091
  786MOL0     H 6045   3.509   5.660   4.173  1.5803 -0.8408 -1.0497
  786MOL0     H 6046   3.444   5.586   4.018  0.9030 -1.8225  0.0016
  786MOL0     H 6047   3.216   5.629   4.071  0.9494  0.4184 -1.3470
  786MOL0     H 6048   3.320   5.778   4.054  2.7631 -2.1429 -0.6411
  786MOL0     H 6049   3.292   5.836   4.287  0.3754 -1.5992  1.7748
  786MOL0     H 6050   3.258   5.672   4.329  1.7779 -0.2331  1.0205
  786MOL0     H 6051   3.069   5.856   4.165 -1.3855 -3.3905 -2.3359
  786MOL0     H 6052   3.049   5.687   4.202  1.0270  1.0450 -1.4676
  786MOL0     H 6053   3.045   5.720   4.438  2.1738  1.0833  0.4821
  786MOL0     H 6054   3.069   5.898   4.424 -1.0913 -1.1844  3.2190
  786MOL0     H 6055   2.862   5.942   4.338 -0.4749 -0.0910  0.1358
  786MOL0     H 6056   2.830   5.771   4.294 -0.6416 -3.1085  2.1756
  786MOL0     H 6057   2.862   5.721   4.544 -1.8644 -1.2060 -0.5998
  786MOL0     H 6058   2.711   5.777   4.490 -0.7209  0.8354  4.2747
  786MOL0     H 6059   2.940   5.951   4.607 -0.2851  2.4943  0.2254
  786MOL0     H 6060   2.789   6.017   4.560  1.0390 -0.0806  0.0152
  786MOL0     H 6061   2.694   5.685   4.711 -2.0429 -1.1450  1.8141
  786MOL0     H 6062   2.584   5.780   5.078 -2.1993  0.7463 -0.6007
  786MOL0     H 6063   2.492   5.696   4.961 -0.1268  0.8308 -0.3288
  786MOL0     H 6064   2.614   5.522   5.071 -0.6276  2.0066  1.5310
  786MOL0     H 6065   2.698   5.547   4.919 -1.7847 -2.1366  0.7194
  786MOL0     H 6066   2.875   5.661   5.001 -3.2776 -1.1652 -2.4756
  786MOL0     H 6067   2.873   5.525   5.093  0.2041  1.1917 -0.6541
  786MOL0     H 6068   2.765   5.779   5.201 -0.4434 -0.8084 -1.3704
  786MOL0     H 6069   2.912   5.693   5.252  0.4955  2.8609 -0.7236
  786MOL0     H 6070   2.992   5.506   5.305  1.0179 -0.1463 -0.1341
  786MOL0     H 6071   3.073   5.303   5.408 -0.2719  2.1251 -1.6305
  786MOL0     H 6072   2.903   4.918   5.563  0.2933  2.3851  1.7406
  786MOL0     H 6073   2.938   4.686   5.594  0.7198 -1.2548 -1.1273
  786MOL0     H 6074   3.000   4.527   5.836  1.4444  0.4385  1.1892
  786MOL0     H 6075   3.000   4.471   5.664  0.2736 -1.6353 -0.0858
  786MOL0     H 6076   3.195   4.304   5.737 -0.3573 -1.1493  1.6751
  786MOL0     H 6077   3.174   4.372   5.892 -2.6578 -5.1886  4.3249
  786MOL0     H 6078   2.937   4.256   5.737 -3.1172  2.5866  1.6215
  786MOL0     H 6079   3.049   4.161   5.825 -0.0271  0.1960 -1.2768
  786MOL0     H 6080   2.976   4.380   6.001  3.0232 -1.2041  1.2797
  786MOL0     H 6081   2.989   4.211   6.027  2.9843  0.3362 -0.5773
  786MOL0     H 6082   2.757   4.168   5.950  1.8792 -0.2324 -4.5971
  786MOL0     H 6083   2.727   4.337   5.911 -0.3855 -1.9938  0.1404
  786MOL0     H 6084   2.638   4.271   6.129 -0.9101  2.6448 -0.5112
  786MOL0     H 6085   2.802   4.239   6.185 -0.5432 -0.5490 -0.7729
  786MOL0     H 6086   2.702   4.521   6.123 -1.3910 -0.3190 -0.6449
  786MOL0     H 6087   2.866   4.498   6.132 -2.1506  1.2309 -1.8357
  786MOL0     H 6088   2.788   4.551   6.364 -1.3583 -1.1243  2.7974
  786MOL0     H 6089   2.691   4.408   6.361 -0.7380  3.1548 -0.2701
  786MOL0     H 6090   3.345   4.771   5.728 -0.5799 -0.1183  0.0658
  786MOL0     H 6091   3.299   5.022   5.662 -0.2588  0.7018 -1.8440
  786MOL0     H 6092   2.699   5.265   5.626 -1.7662  0.5788 -0.7943
  786MOL0     H 6093   2.603   5.438   5.457 -1.3208 -3.4400  0.8190
  786MOL0     H 6094   3.476   5.346   4.391  0.5695 -0.4245  1.2111
  786MOL0     H 6095   3.686   5.207   4.388 -1.4557  2.4640  1.8866
  786MOL0     H 6096   4.038   4.975   4.185  1.5373 -0.2440 -0.1067
  786MOL0     H 6097   4.202   4.860   4.313 -3.7582 -1.4430 -2.5639
  786MOL0     H 6098   4.249   5.014   4.739 -0.4638  0.9751  0.9616
  786MOL0     H 6099   4.399   5.084   4.655 -0.0547 -0.7377 -0.2985
  786MOL0     H 6100   4.525   4.884   4.694 -0.1211 -0.8764  0.7503
  786MOL0     H 6101   4.389   4.794   4.762  2.3096 -1.5951 -1.9751
  786MOL0     H 6102   4.365   4.962   4.948  1.5248  1.4939  2.3535
  786MOL0     H 6103   4.512   5.039   4.894  0.8437 -0.3316  0.2332
  786MOL0     H 6104   4.454   4.753   4.993  1.3812 -1.4356  1.6454
  786MOL0     H 6105   4.614   4.790   4.932 -2.3738 -2.4809 -2.0778
  786MOL0     H 6106   4.577   4.940   5.335 -0.6883  0.5712 -0.4444
  786MOL0     H 6107   4.210   5.167   4.606  1.2032 -4.0533  0.3628
  786MOL0     H 6108   4.084   5.416   4.400 -0.4446  0.5778  0.2536
  786MOL0     H 6109   3.937   5.375   4.472 -1.2310 -2.1046  0.0333
  786MOL0     H 6110   4.087   5.387   4.570 -2.7151  0.8243  0.6242
  787MOL0     O 6111  11.327   2.742   4.294 -0.0985  0.8912  0.0283
  787MOL0     C 6112  11.227   2.807   4.324 -0.0350  0.0021 -0.6722
  787MOL0     O 6113  11.223   2.939   4.320 -0.3005 -0.8655  0.9256
  787MOL0     C 6114  11.334   3.003   4.269 -0.0660  0.0657 -0.9780
  787MOL0     C 6115  11.449   3.023   4.346 -0.5243  1.7122  0.4033
  787MOL0     C 6116  11.562   3.086   4.292  0.7981 -0.7231  0.4546
  787MOL0     C 6117  11.576   3.125   4.162  0.0072 -0.5011  0.0472
  787MOL0     O 6118  11.693   3.193   4.120  0.7654 -0.0073 -0.1113
  787MOL0     C 6119  11.677   3.267   3.989  0.7537 -0.4093 -0.1407
  787MOL0     C 6120  11.809   3.328   3.935  0.3445 -0.2699 -0.4850
  787MOL0     C 6121  11.852   3.461   4.000  0.4652  1.1307 -0.6827
  787MOL0     C 6122  11.745   3.574   3.979 -0.9846 -0.5531  0.1175
  787MOL0     C 6123  11.809   3.716   4.012  0.0194  0.1583  0.5748
  787MOL0     C 6124  11.714   3.828   3.967 -0.5679  0.4721  0.8726
  787MOL0     C 6125  11.775   3.966   3.996 -0.1107  0.8102  0.4197
  787MOL0     C 6126  11.669   4.074   3.994  0.4330  0.1039 -0.0324
  787MOL0     N 6127  11.670   4.127   3.858 -0.4984 -0.4204  0.2929
  787MOL0     C 6128  11.760   4.212   3.812  0.9653 -0.0567 -0.1151
  787MOL0     C 6129  11.716   4.257   3.691  0.7906  0.3111 -0.0895
  787MOL0     C 6130  11.749   4.372   3.602 -0.1749  0.6400  0.1038
  787MOL0     C 6131  11.848   4.333   3.487  0.0444  0.9012 -0.0098
  787MOL0     C 6132  11.768   4.317   3.352  0.2789 -0.4643 -0.6493
  787MOL0     C 6133  11.827   4.223   3.260 -0.3429  0.4390  0.3272
  787MOL0     O 6134  11.966   4.256   3.241 -0.2390  0.3933 -0.8035
  787MOL0     C 6135  12.064   4.159   3.237  1.2135  0.4342 -0.1311
  787MOL0     C 6136  12.049   4.020   3.259  0.6044  0.4276  0.4737
  787MOL0     C 6137  12.157   3.920   3.247  0.8802  0.1722 -1.0584
  787MOL0     C 6138  12.274   3.971   3.194 -0.0998 -0.3274 -0.2725
  787MOL0     C 6139  12.387   3.875   3.166  0.0079  0.4353 -0.7390
  787MOL0     O 6140  12.489   3.922   3.098 -0.5897 -0.6426  0.2726
  787MOL0     C 6141  12.601   3.842   3.091 -0.6254 -0.1601  0.2437
  787MOL0     C 6142  12.642   3.776   2.975  0.2889 -1.1664  0.4470
  787MOL0     C 6143  12.763   3.712   2.960  0.3690  0.9131  0.0717
  787MOL0     C 6144  12.847   3.705   3.074  0.1107 -0.1148 -0.0157
  787MOL0     O 6145  12.956   3.630   3.079 -0.2315  0.2483 -0.3721
  787MOL0     C 6146  13.009   3.573   2.963  0.4683 -0.3514  0.5952
  787MOL0     C 6147  13.103   3.468   2.994  0.8582 -0.0960  0.7837
  787MOL0     C 6148  13.184   3.423   2.863  0.2132 -1.0524 -0.4263
  787MOL0     C 6149  13.103   3.406   2.727  0.0600 -0.0229 -0.1907
  787MOL0     C 6150  13.202   3.368   2.607 -1.3018  0.1955 -0.5520
  787MOL0     C 6151  13.122   3.363   2.478  1.0928  0.4440  1.4915
  787MOL0     C 6152  13.202   3.268   2.378 -0.3303  0.9946  0.8024
  787MOL0     C 6153  13.320   3.342   2.322 -0.6093 -0.7437 -0.4284
  787MOL0    Cl 6154  13.424   3.248   2.192 -0.3944 -0.1542  0.1697
  787MOL0     C 6155  12.804   3.779   3.197 -0.5951 -0.0280  0.2314
  787MOL0     C 6156  12.682   3.845   3.202  0.3346  1.2451 -0.5297
  787MOL0     O 6157  12.382   3.764   3.218  0.4467  0.1999 -0.4743
  787MOL0     C 6158  12.283   4.115   3.164 -0.2083 -0.2394 -0.3066
  787MOL0     C 6159  12.185   4.203   3.199 -0.4217  0.3399  0.5351
  787MOL0     N 6160  11.600   4.185   3.664 -0.8999  0.6769 -0.3201
  787MOL0     N 6161  11.585   4.092   3.758  0.3922 -0.7116 -0.0505
  787MOL0     C 6162  11.456   3.111   4.083  0.5301 -0.0662  0.5142
  787MOL0     C 6163  11.335   3.055   4.132 -0.0627 -0.7739  0.2302
  787MOL0     C 6164  11.105   2.730   4.370 -0.2905  0.4479 -0.8226
  787MOL0     C 6165  11.002   2.709   4.292 -0.6482  0.6523 -0.2201
  787MOL0     C 6166  10.891   2.641   4.332  0.8956  1.0734 -0.3913
  787MOL0     C 6167  10.885   2.583   4.461  1.2965  0.7139  0.5299
  787MOL0     O 6168  10.773   2.519   4.512  0.3455 -0.3679 -0.7211
  787MOL0     C 6169  10.647   2.512   4.427  0.1788  0.2703 -0.3908
  787MOL0     C 6170  10.529   2.456   4.496  0.7195 -0.0327  0.7409
  787MOL0     C 6171  10.473   2.513   4.629 -0.0138  0.6102  0.6582
  787MOL0     C 6172  10.321   2.489   4.653  0.1977  0.2192  0.9706
  787MOL0     C 6173  10.241   2.576   4.581 -0.8632 -1.2105 -0.6056
  787MOL0     C 6174  10.186   2.672   4.537  0.1835  0.6416 -0.0446
  787MOL0     C 6175  10.994   2.597   4.540 -0.3735 -0.6800  0.7512
  787MOL0     C 6176  11.110   2.665   4.504  0.6264 -0.4200  0.7385
  787MOL0     C 6177  11.231   2.671   4.589 -0.4077  0.4744 -0.1228
  787MOL0     H 6178  11.444   2.991   4.450  0.2748 -0.2053 -0.1034
  787MOL0     H 6179  11.641   3.100   4.365  0.6084 -0.6114  0.6389
  787MOL0     H 6180  11.638   3.198   3.913  1.4091 -0.6685 -0.2515
  787MOL0     H 6181  11.600   3.344   3.998 -1.3375 -2.5750  1.4954
  787MOL0     H 6182  11.820   3.341   3.827  1.6914  2.0295 -0.1357
  787MOL0     H 6183  11.888   3.255   3.955  2.1331  0.0070 -5.2373
  787MOL0     H 6184  11.942   3.495   3.950  1.0447  0.7606  0.0871
  787MOL0     H 6185  11.866   3.436   4.106  0.7553 -0.9956 -1.1805
  787MOL0     H 6186  11.681   3.571   3.891 -1.2321  2.6269  0.0487
  787MOL0     H 6187  11.681   3.561   4.067 -2.3339 -0.7190 -0.8634
  787MOL0     H 6188  11.829   3.718   4.120 -1.5986 -0.0645  0.8945
  787MOL0     H 6189  11.907   3.727   3.964  0.7928  2.3432  2.4373
  787MOL0     H 6190  11.686   3.835   3.861  1.2110  4.1666  0.4861
  787MOL0     H 6191  11.623   3.826   4.028  1.0353 -1.6393  3.3575
  787MOL0     H 6192  11.851   3.987   3.920 -1.6803  1.2195 -1.1093
  787MOL0     H 6193  11.818   3.964   4.097 -0.5228  1.1203  0.6057
  787MOL0     H 6194  11.573   4.028   4.018  1.2200 -1.8708 -0.4000
  787MOL0     H 6195  11.701   4.155   4.061  2.8616 -2.4236  2.1216
  787MOL0     H 6196  11.842   4.265   3.861 -0.8325  1.9380  0.8897
  787MOL0     H 6197  11.660   4.408   3.549 -1.0980 -4.3562 -2.3365
  787MOL0     H 6198  11.790   4.452   3.664 -1.3438  0.7442  0.7759
  787MOL0     H 6199  11.910   4.421   3.470  0.0817  0.9756  0.5007
  787MOL0     H 6200  11.899   4.242   3.517 -0.1064  0.6838 -0.4004
  787MOL0     H 6201  11.765   4.415   3.303 -0.4765 -0.2800 -0.2509
  787MOL0     H 6202  11.668   4.279   3.370  0.8239 -1.3529  0.6393
  787MOL0     H 6203  11.776   4.223   3.164 -0.6109  0.2873  0.4681
  787MOL0     H 6204  11.808   4.129   3.313  1.8415  0.7524  1.8063
  787MOL0     H 6205  11.945   3.990   3.270  0.8379 -0.1805  1.1123
  787MOL0     H 6206  12.141   3.814   3.265  0.3278  0.8664  4.3482
  787MOL0     H 6207  12.574   3.781   2.891  2.1107  0.9930 -0.9995
  787MOL0     H 6208  12.790   3.666   2.865 -0.0336  2.4017 -0.8009
  787MOL0     H 6209  12.935   3.521   2.901  1.3979 -3.2311  1.7581
  787MOL0     H 6210  13.068   3.636   2.896  3.8315 -3.2456  0.5494
  787MOL0     H 6211  13.173   3.495   3.074  0.4983  5.1684 -0.3516
  787MOL0     H 6212  13.050   3.381   3.033  0.6367  0.5233  1.9103
  787MOL0     H 6213  13.257   3.504   2.853 -2.9164  2.2262  1.0914
  787MOL0     H 6214  13.240   3.335   2.894  0.0659 -1.2355 -0.6731
  787MOL0     H 6215  13.044   3.497   2.709 -1.3168 -0.5699  1.3513
  787MOL0     H 6216  13.035   3.323   2.743  1.3727 -0.9355  0.9269
  787MOL0     H 6217  13.248   3.272   2.634 -3.0675 -0.1254  1.6163
  787MOL0     H 6218  13.281   3.443   2.596 -0.6112 -0.6954 -1.8954
  787MOL0     H 6219  13.020   3.332   2.501  0.2394  4.4407  4.1070
  787MOL0     H 6220  13.107   3.458   2.426 -1.2558 -0.5578  0.1853
  787MOL0     H 6221  13.134   3.229   2.303  3.0916  0.0743 -2.1032
  787MOL0     H 6222  13.234   3.178   2.431  2.9069  1.0433 -0.7898
  787MOL0     H 6223  13.267   3.425   2.274  2.7171  3.1829  1.9987
  787MOL0     H 6224  13.390   3.380   2.398  2.4441 -2.0631 -2.3764
  787MOL0     H 6225  12.873   3.773   3.281 -0.5013  1.4952  0.2832
  787MOL0     H 6226  12.647   3.880   3.299  3.0503  1.6250  0.3830
  787MOL0     H 6227  12.375   4.160   3.128 -0.2290 -1.9123 -2.7239
  787MOL0     H 6228  12.196   4.310   3.185 -4.4715  0.6570 -1.5630
  787MOL0     H 6229  11.438   3.154   3.985 -2.5934 -1.6031  0.2711
  787MOL0     H 6230  11.252   3.065   4.064  2.1429 -2.2986 -2.9514
  787MOL0     H 6231  11.006   2.745   4.190 -2.4813 -0.4406 -0.7291
  787MOL0     H 6232  10.798   2.638   4.276 -0.1757  1.0237  1.3135
  787MOL0     H 6233  10.650   2.454   4.334 -2.0584  1.1326 -1.0657
  787MOL0     H 6234  10.621   2.615   4.400 -3.5095 -0.7769 -1.3211
  787MOL0     H 6235  10.539   2.348   4.509  1.8130  0.2651  2.7102
  787MOL0     H 6236  10.450   2.469   4.421 -0.4179  1.8303  2.1809
  787MOL0     H 6237  10.487   2.621   4.619  2.0452  0.2817 -0.5278
  787MOL0     H 6238  10.530   2.472   4.712  1.1693 -0.2257 -0.5266
  787MOL0     H 6239  10.295   2.385   4.629 -1.3619  0.0184  3.2258
  787MOL0     H 6240  10.303   2.499   4.760 -1.7292  0.1963  0.6755
  787MOL0     H 6241  10.163   2.765   4.489 -1.9349 -0.1201 -0.6399
  787MOL0     H 6242  10.995   2.568   4.644 -1.0121 -0.2729  0.8773
  787MOL0     H 6243  11.268   2.773   4.599 -1.3448  0.7195  1.1813
  787MOL0     H 6244  11.192   2.646   4.689 -3.7062 -3.6283 -2.1094
  787MOL0     H 6245  11.310   2.605   4.552 -0.2795  0.3966  0.2798
  788MOL0     O 6246   8.686   7.058   8.691  0.5569  0.3281  0.9667
  788MOL0     C 6247   8.726   7.098   8.584 -0.1716 -0.5245  0.4571
  788MOL0     O 6248   8.641   7.127   8.481  0.5796 -0.3999 -0.1986
  788MOL0     C 6249   8.511   7.084   8.477  0.6557 -0.5850 -1.0744
  788MOL0     C 6250   8.406   7.170   8.512 -0.3366  0.6077  0.1620
  788MOL0     C 6251   8.282   7.118   8.530 -0.1485 -0.4916  0.9274
  788MOL0     C 6252   8.249   6.976   8.498  0.0994 -0.2037  0.4196
  788MOL0     O 6253   8.135   6.905   8.520  0.5182 -0.0998  0.5779
  788MOL0     C 6254   8.039   6.969   8.599  0.3351 -0.0963 -0.5245
  788MOL0     C 6255   7.956   6.873   8.687  0.2840 -0.7449  0.9019
  788MOL0     C 6256   7.909   6.760   8.604 -0.6460 -0.4912 -1.0522
  788MOL0     C 6257   7.831   6.784   8.477  0.6347  0.5265  0.3479
  788MOL0     C 6258   7.776   6.641   8.429  1.5728 -0.2518 -0.3965
  788MOL0     C 6259   7.688   6.640   8.306  0.2679  0.2981  0.0005
  788MOL0     C 6260   7.741   6.732   8.198  0.2476  0.0967 -0.2412
  788MOL0     C 6261   7.675   6.717   8.062 -0.0764  0.0749 -0.3471
  788MOL0     N 6262   7.670   6.577   8.015  0.3907  1.2594 -1.0827
  788MOL0     C 6263   7.554   6.504   8.020 -0.5247 -0.3624 -0.2326
  788MOL0     C 6264   7.597   6.377   8.010  0.4516 -0.0379  0.4995
  788MOL0     C 6265   7.514   6.258   8.026  0.3953 -1.0496  0.0489
  788MOL0     C 6266   7.549   6.169   8.142  0.5677  0.4097 -0.0368
  788MOL0     C 6267   7.683   6.093   8.119 -0.5882 -0.9440 -0.8507
  788MOL0     C 6268   7.712   6.002   8.253  0.0726 -0.5887  0.5382
  788MOL0     O 6269   7.779   6.079   8.360  0.0476 -0.8254  0.5361
  788MOL0     C 6270   7.820   6.011   8.468 -0.7216  0.1928  0.0819
  788MOL0     C 6271   7.797   5.875   8.511  0.3872 -0.2362  0.3615
  788MOL0     C 6272   7.860   5.823   8.624 -0.0056  0.1285 -0.1336
  788MOL0     C 6273   7.950   5.905   8.703 -0.0498  0.5626 -0.1190
  788MOL0     C 6274   8.014   5.854   8.825 -0.1468  0.5178 -0.2678
  788MOL0     O 6275   8.084   5.943   8.909  0.1865  0.1913  0.1596
  788MOL0     C 6276   8.148   5.885   9.020 -0.5449 -0.1894 -0.6845
  788MOL0     C 6277   8.079   5.861   9.136  0.7094  0.7907  1.1590
  788MOL0     C 6278   8.156   5.826   9.251 -0.0205 -0.0851  0.2958
  788MOL0     C 6279   8.297   5.817   9.251  0.3710 -0.0621 -0.3316
  788MOL0     O 6280   8.362   5.785   9.365 -0.1396  0.0981 -0.7758
  788MOL0     C 6281   8.494   5.716   9.374  0.8297  0.0508 -0.1414
  788MOL0     C 6282   8.491   5.639   9.511  0.6297 -0.6559  0.8013
  788MOL0     C 6283   8.587   5.519   9.495 -0.3685  0.0755  0.7406
  788MOL0     C 6284   8.536   5.403   9.574  0.0468  0.6857  0.3664
  788MOL0     C 6285   8.626   5.277   9.563 -0.5860 -0.6220 -0.5449
  788MOL0     C 6286   8.579   5.153   9.640  0.0083  0.0621 -0.3367
  788MOL0     C 6287   8.669   5.025   9.608  0.3209 -0.7250 -0.4850
  788MOL0     C 6288   8.802   4.998   9.686  0.1716  0.7566  0.0173
  788MOL0    Cl 6289   8.891   4.852   9.627 -0.4925  0.0564 -0.1688
  788MOL0     C 6290   8.362   5.844   9.132  0.0267  0.9912 -0.3127
  788MOL0     C 6291   8.283   5.881   9.022 -1.7511  0.7345  0.1913
  788MOL0     O 6292   8.015   5.727   8.840 -0.0037  0.0414  0.4837
  788MOL0     C 6293   7.976   6.026   8.656  0.0234  0.0613 -0.2324
  788MOL0     C 6294   7.901   6.086   8.547  0.2949 -0.0913 -1.3822
  788MOL0     N 6295   7.735   6.374   7.987 -0.6013 -1.0146 -0.6475
  788MOL0     N 6296   7.781   6.498   7.995 -0.7291 -0.5507 -0.4145
  788MOL0     C 6297   8.355   6.899   8.455 -0.8886  0.0655  1.2275
  788MOL0     C 6298   8.485   6.957   8.439  0.2734 -0.2323 -0.0759
  788MOL0     C 6299   8.879   7.107   8.556  0.0849 -0.2560  0.1312
  788MOL0     C 6300   8.921   7.132   8.423  0.0694 -0.9485  0.3329
  788MOL0     C 6301   9.054   7.141   8.389 -0.4624 -0.0841  1.4718
  788MOL0     C 6302   9.156   7.131   8.483  1.3634 -0.7379  0.2449
  788MOL0     O 6303   9.289   7.136   8.445  0.3110 -0.1398 -0.8651
  788MOL0     C 6304   9.377   7.040   8.524 -0.5925 -0.7050  0.1705
  788MOL0     C 6305   9.489   6.963   8.462 -0.9565  0.7760  0.2364
  788MOL0     C 6306   9.606   6.931   8.565 -0.0036  0.0285  0.2871
  788MOL0     C 6307   9.564   6.826   8.670 -0.0221  0.7798 -0.0165
  788MOL0     C 6308   9.677   6.807   8.759  0.5283  0.3559 -0.2468
  788MOL0     C 6309   9.775   6.795   8.834 -0.1590 -0.1662  0.4220
  788MOL0     C 6310   9.115   7.130   8.622 -0.2076 -0.0947  0.2175
  788MOL0     C 6311   8.977   7.121   8.665  0.0593 -0.3134  0.1098
  788MOL0     C 6312   8.941   7.119   8.810 -0.0448  0.5951  0.4905
  788MOL0     H 6313   8.419   7.278   8.515  2.2263  0.3651 -0.4138
  788MOL0     H 6314   8.212   7.194   8.564  0.5811 -0.5054  2.5334
  788MOL0     H 6315   8.079   7.041   8.671 -0.6050  3.0207 -2.8925
  788MOL0     H 6316   7.965   7.019   8.535  0.6853  1.2037  0.0456
  788MOL0     H 6317   7.867   6.923   8.726 -0.7109 -3.5761  2.5012
  788MOL0     H 6318   8.012   6.829   8.770  2.6971  1.7366  0.7442
  788MOL0     H 6319   7.845   6.696   8.666 -3.8187  1.0700 -2.5043
  788MOL0     H 6320   7.992   6.697   8.570  0.0244  0.3683 -1.0419
  788MOL0     H 6321   7.762   6.868   8.479 -0.5504 -0.0226 -4.2225
  788MOL0     H 6322   7.905   6.818   8.403 -1.8024 -0.0865 -2.5680
  788MOL0     H 6323   7.859   6.578   8.399  0.6078 -2.1950  0.8409
  788MOL0     H 6324   7.734   6.596   8.520  2.4268  0.4937  0.3896
  788MOL0     H 6325   7.702   6.538   8.269 -0.5949 -1.0850  3.1837
  788MOL0     H 6326   7.583   6.647   8.335  0.5082  3.8815  0.4892
  788MOL0     H 6327   7.848   6.710   8.189  0.2486  0.2445 -0.5996
  788MOL0     H 6328   7.738   6.838   8.228 -2.4727 -0.6250  2.4985
  788MOL0     H 6329   7.574   6.745   8.096  0.1041 -0.3098  0.5437
  788MOL0     H 6330   7.710   6.796   7.995 -0.6632  2.4670  1.9394
  788MOL0     H 6331   7.458   6.551   8.040  0.7414  1.5621  1.7006
  788MOL0     H 6332   7.416   6.299   8.048  0.8497  0.0000  0.1528
  788MOL0     H 6333   7.517   6.195   7.936  1.6504  0.9922 -1.4393
  788MOL0     H 6334   7.558   6.227   8.234  2.5394  0.8015 -0.4448
  788MOL0     H 6335   7.473   6.094   8.165  0.0673  1.5363  2.2719
  788MOL0     H 6336   7.765   6.164   8.108 -2.2313  0.7653 -3.2654
  788MOL0     H 6337   7.669   6.036   8.027  0.7924 -1.4658 -0.7516
  788MOL0     H 6338   7.777   5.915   8.236  3.9341  1.9368  1.1132
  788MOL0     H 6339   7.618   5.957   8.287  0.5411 -1.3116  0.8973
  788MOL0     H 6340   7.718   5.814   8.467  1.1439 -0.6603 -0.4210
  788MOL0     H 6341   7.843   5.718   8.645  1.3932 -0.0370  0.3080
  788MOL0     H 6342   7.974   5.885   9.122  1.1132  0.8657 -2.6043
  788MOL0     H 6343   8.100   5.802   9.340 -3.3136 -4.1207 -2.5012
  788MOL0     H 6344   8.510   5.639   9.298 -0.0269 -1.8543  1.4963
  788MOL0     H 6345   8.573   5.790   9.374  0.5307  0.3760  0.1929
  788MOL0     H 6346   8.537   5.707   9.583  2.6935  0.9857 -1.8598
  788MOL0     H 6347   8.389   5.606   9.534 -0.2701  2.2584  1.4874
  788MOL0     H 6348   8.594   5.487   9.391  2.1669  4.3430 -0.6349
  788MOL0     H 6349   8.693   5.532   9.517  0.0895 -0.7770 -0.8496
  788MOL0     H 6350   8.433   5.384   9.544  0.5986 -1.5762 -0.2702
  788MOL0     H 6351   8.543   5.430   9.680 -0.9682  0.5548  0.4753
  788MOL0     H 6352   8.724   5.307   9.602 -1.0806  0.5771 -0.1956
  788MOL0     H 6353   8.643   5.254   9.458  1.8046  0.4066 -0.4400
  788MOL0     H 6354   8.586   5.158   9.749  2.2941  1.1839 -0.4927
  788MOL0     H 6355   8.472   5.136   9.624 -0.3393 -2.2661  3.2370
  788MOL0     H 6356   8.714   5.026   9.508  0.9390 -0.0441 -0.2137
  788MOL0     H 6357   8.608   4.935   9.608 -1.9187  0.7073 -1.5005
  788MOL0     H 6358   8.871   5.082   9.679  3.2066 -1.3656  2.0212
  788MOL0     H 6359   8.772   4.982   9.790 -2.3106  1.6429 -0.4945
  788MOL0     H 6360   8.470   5.832   9.124 -0.2554 -0.5760 -4.3092
  788MOL0     H 6361   8.340   5.921   8.938  1.1861 -0.3535  1.5241
  788MOL0     H 6362   8.056   6.084   8.701 -0.1118  0.3552 -0.3691
  788MOL0     H 6363   7.915   6.192   8.532  2.0608  1.1508  5.5982
  788MOL0     H 6364   8.346   6.792   8.440 -0.2187  0.2126 -0.6158
  788MOL0     H 6365   8.557   6.887   8.399 -0.5230 -1.5380  0.6727
  788MOL0     H 6366   8.845   7.131   8.346  1.6382  0.4937 -1.3010
  788MOL0     H 6367   9.076   7.144   8.282  2.4176 -2.4668  1.8636
  788MOL0     H 6368   9.314   6.969   8.579  0.2958  1.7293  4.8799
  788MOL0     H 6369   9.414   7.105   8.604  1.3693 -2.7296  1.0139
  788MOL0     H 6370   9.526   7.025   8.381 -1.0989 -1.0155 -1.2745
  788MOL0     H 6371   9.459   6.868   8.417  2.7148  0.0768 -1.0453
  788MOL0     H 6372   9.622   7.025   8.619 -1.5015 -0.2737  1.3186
  788MOL0     H 6373   9.690   6.884   8.513  0.1409 -0.9454  1.3439
  788MOL0     H 6374   9.474   6.850   8.727  1.0713  2.4801  1.1098
  788MOL0     H 6375   9.534   6.738   8.612  1.6822  0.0831  0.0978
  788MOL0     H 6376   9.866   6.790   8.891 -0.5037  2.6208  1.3586
  788MOL0     H 6377   9.190   7.118   8.700  0.7183 -4.3406 -1.0143
  788MOL0     H 6378   8.872   7.202   8.826  2.7883  2.7908  2.4347
  788MOL0     H 6379   8.897   7.030   8.855  2.8354 -0.4914  1.4329
  788MOL0     H 6380   9.026   7.144   8.874  0.6593  3.1157 -1.2431
  789MOL0     O 6381   7.888   0.161   0.098  0.5650  0.7038  0.8554
  789MOL0     C 6382   7.790   0.225   0.143 -0.4586  0.3363  0.1322
  789MOL0     O 6383   7.666   0.218   0.095  0.2101  0.0261  0.1702
  789MOL0     C 6384   7.631   0.110   0.025  0.2292 -0.2385 -0.4241
  789MOL0     C 6385   7.644  -0.024   0.077 -0.1082 -0.5251 -1.0906
  789MOL0     C 6386   7.591  -0.132   0.019 -0.0833  0.1939  0.4653
  789MOL0     C 6387   7.524  -0.132  -0.107 -0.5521 -0.9356  0.0307
  789MOL0     O 6388   7.480  -0.240  -0.183  0.0557 -0.4000  0.4787
  789MOL0     C 6389   7.500  -0.364  -0.128 -0.8689  0.3428 -0.5406
  789MOL0     C 6390   7.474  -0.460  -0.246  0.2158 -0.5665  0.2194
  789MOL0     C 6391   7.325  -0.522  -0.236 -0.4148 -0.4970 -0.7598
  789MOL0     C 6392   7.331  -0.675  -0.242 -0.7761  0.6202 -0.7768
  789MOL0     C 6393   7.202  -0.753  -0.233 -0.3321 -1.1482  0.2507
  789MOL0     C 6394   7.099  -0.729  -0.356  0.7263 -0.8902  0.2524
  789MOL0     C 6395   6.999  -0.842  -0.365 -0.7460 -0.7783  0.1793
  789MOL0     C 6396   7.057  -0.951  -0.463 -0.0136  0.3730 -0.2459
  789MOL0     N 6397   6.934  -1.000  -0.534  0.5591  0.5858  0.6548
  789MOL0     C 6398   6.893  -1.129  -0.535  0.6786 -0.0282 -0.4672
  789MOL0     C 6399   6.814  -1.141  -0.638  0.7285  0.6814  0.0808
  789MOL0     C 6400   6.753  -1.285  -0.670 -0.1607 -0.5662  0.9518
  789MOL0     C 6401   6.853  -1.391  -0.712 -1.2159  0.1080  0.7336
  789MOL0     C 6402   6.935  -1.341  -0.840 -0.3434  0.4083  0.0486
  789MOL0     C 6403   6.863  -1.367  -0.978 -0.1438  0.0112 -0.2520
  789MOL0     O 6404   6.919  -1.289  -1.086  0.1128 -1.0402 -0.4757
  789MOL0     C 6405   6.888  -1.157  -1.105  0.6711  0.2295 -0.2208
  789MOL0     C 6406   6.952  -1.101  -1.214 -0.2163 -0.2764  0.5075
  789MOL0     C 6407   6.923  -0.963  -1.239  0.0403 -0.9512 -0.7787
  789MOL0     C 6408   6.845  -0.876  -1.152 -0.0164  0.6392 -0.2480
  789MOL0     C 6409   6.825  -0.735  -1.195 -0.5952  1.0465  0.5854
  789MOL0     O 6410   6.738  -0.661  -1.115  0.1790 -0.3754  0.2910
  789MOL0     C 6411   6.717  -0.533  -1.159  0.2218  0.0445  0.6684
  789MOL0     C 6412   6.764  -0.439  -1.077 -0.1533 -0.3694 -0.6429
  789MOL0     C 6413   6.727  -0.303  -1.109 -0.0430  0.0775 -0.0586
  789MOL0     C 6414   6.650  -0.275  -1.224  0.3024  0.8888 -0.5437
  789MOL0     O 6415   6.615  -0.150  -1.244 -0.1570  0.7087 -0.2607
  789MOL0     C 6416   6.594  -0.086  -1.370  0.4530 -0.0595  0.2666
  789MOL0     C 6417   6.504   0.039  -1.361  0.1371 -0.0295 -1.3898
  789MOL0     C 6418   6.378   0.020  -1.279  0.0866 -0.8644 -0.2139
  789MOL0     C 6419   6.275  -0.079  -1.330 -0.0414  0.0023  0.8576
  789MOL0     C 6420   6.190  -0.024  -1.446  0.4985 -0.9121  0.9575
  789MOL0     C 6421   6.148  -0.130  -1.544  0.8465 -0.5839 -0.5501
  789MOL0     C 6422   6.041  -0.068  -1.638 -0.2130 -0.0146 -0.0834
  789MOL0     C 6423   5.995  -0.164  -1.757  0.5199  0.3928 -0.4033
  789MOL0    Cl 6424   5.971  -0.325  -1.702  0.5574  0.2201 -0.5912
  789MOL0     C 6425   6.613  -0.374  -1.312  1.3781  0.4657 -0.0916
  789MOL0     C 6426   6.648  -0.504  -1.278 -0.1698  0.7450 -0.7296
  789MOL0     O 6427   6.889  -0.693  -1.295 -0.1121  0.3331 -0.6184
  789MOL0     C 6428   6.781  -0.940  -1.047  0.8228  0.1898 -0.4952
  789MOL0     C 6429   6.801  -1.074  -1.022  0.5191 -0.0750 -0.2525
  789MOL0     N 6430   6.786  -1.021  -0.705  0.0731 -0.2917 -0.1633
  789MOL0     N 6431   6.866  -0.937  -0.636  0.5445  0.0547  0.4098
  789MOL0     C 6432   7.498  -0.001  -0.156  0.4212  0.9175 -0.0212
  789MOL0     C 6433   7.556   0.115  -0.095  0.2535  0.1190 -0.4486
  789MOL0     C 6434   7.819   0.325   0.249 -1.4403  1.0806  0.5041
  789MOL0     C 6435   7.716   0.408   0.287  0.2398 -0.6571 -0.4146
  789MOL0     C 6436   7.722   0.509   0.379  1.0994  0.2227 -0.9100
  789MOL0     C 6437   7.837   0.521   0.458 -0.7004  0.2203  0.4282
  789MOL0     O 6438   7.821   0.610   0.556  0.5768 -0.9267  0.3886
  789MOL0     C 6439   7.882   0.734   0.536  0.0804  0.2939  0.8345
  789MOL0     C 6440   7.915   0.806   0.657 -0.3088  0.5092  0.7187
  789MOL0     C 6441   8.001   0.938   0.641 -0.8152 -0.8654  0.5185
  789MOL0     C 6442   8.032   1.017   0.767 -0.0427  0.3863 -0.0045
  789MOL0     C 6443   7.911   1.095   0.804 -0.8798 -0.3291  0.8672
  789MOL0     C 6444   7.816   1.159   0.841  0.6761 -0.1237  0.3764
  789MOL0     C 6445   7.949   0.443   0.421 -0.1600  0.7387 -0.4580
  789MOL0     C 6446   7.945   0.346   0.318 -0.2166 -0.3249  0.4934
  789MOL0     C 6447   8.068   0.261   0.306 -0.0658 -0.6940  0.7269
  789MOL0     H 6448   7.704  -0.046   0.165 -0.4487 -2.2765 -1.2592
  789MOL0     H 6449   7.611  -0.229   0.063  1.2470  1.0274  1.8040
  789MOL0     H 6450   7.606  -0.384  -0.110 -1.3949 -4.2684 -1.4199
  789MOL0     H 6451   7.433  -0.380  -0.043 -1.9930  1.9924 -1.0642
  789MOL0     H 6452   7.553  -0.534  -0.261 -0.1053 -0.1311 -6.0576
  789MOL0     H 6453   7.478  -0.405  -0.340 -2.5005 -1.0145 -0.2520
  789MOL0     H 6454   7.260  -0.492  -0.318 -4.5747 -0.8937  2.0914
  789MOL0     H 6455   7.278  -0.493  -0.142  1.1485  0.1240 -0.1252
  789MOL0     H 6456   7.386  -0.709  -0.330  0.1888 -0.2087  0.1282
  789MOL0     H 6457   7.393  -0.714  -0.162 -0.4573  1.5061 -0.5875
  789MOL0     H 6458   7.239  -0.856  -0.229  1.5923 -0.4743  1.8232
  789MOL0     H 6459   7.141  -0.736  -0.143 -1.2428  0.0038 -0.5576
  789MOL0     H 6460   7.037  -0.641  -0.336  0.7527 -0.9823  0.7749
  789MOL0     H 6461   7.153  -0.704  -0.447  2.3261  0.7056  1.5667
  789MOL0     H 6462   6.903  -0.801  -0.397  0.6177  1.8058 -0.9009
  789MOL0     H 6463   6.988  -0.881  -0.263  2.5723 -2.0673  0.1674
  789MOL0     H 6464   7.127  -0.913  -0.538  0.2519 -2.1500 -1.3903
  789MOL0     H 6465   7.100  -1.038  -0.412 -0.0163 -1.2928 -2.8634
  789MOL0     H 6466   6.928  -1.201  -0.462  2.4682 -1.2221 -2.4014
  789MOL0     H 6467   6.709  -1.331  -0.581 -1.5862 -1.1618 -0.0359
  789MOL0     H 6468   6.683  -1.247  -0.745  0.0176  0.5294  1.3155
  789MOL0     H 6469   6.914  -1.405  -0.622 -0.9539 -0.8327  0.4206
  789MOL0     H 6470   6.794  -1.482  -0.732  1.2155 -1.8652  2.0204
  789MOL0     H 6471   7.034  -1.387  -0.837 -0.9197 -0.8819  2.2992
  789MOL0     H 6472   6.957  -1.235  -0.829  1.4396  0.3767 -2.4850
  789MOL0     H 6473   6.756  -1.350  -0.962 -0.8010 -0.6859 -3.2010
  789MOL0     H 6474   6.872  -1.473  -1.005 -4.1568 -1.0553  1.9250
  789MOL0     H 6475   7.014  -1.152  -1.288  1.6660  2.7751 -0.2056
  789MOL0     H 6476   6.964  -0.908  -1.323  0.4658 -0.5411 -0.3184
  789MOL0     H 6477   6.820  -0.461  -0.987 -0.7732  0.1758 -0.1197
  789MOL0     H 6478   6.751  -0.224  -1.039  2.3325 -1.9684  1.5879
  789MOL0     H 6479   6.688  -0.063  -1.421 -2.1440  3.6786 -3.4838
  789MOL0     H 6480   6.540  -0.149  -1.441 -1.2838  0.1555  1.3265
  789MOL0     H 6481   6.559   0.116  -1.305 -0.7253 -0.9145  0.7653
  789MOL0     H 6482   6.481   0.062  -1.466 -3.1595 -0.3220 -0.8240
  789MOL0     H 6483   6.401  -0.016  -1.178 -1.2245  1.2421  0.9276
  789MOL0     H 6484   6.334   0.120  -1.270  4.0821  1.2161 -1.3633
  789MOL0     H 6485   6.199  -0.091  -1.252 -0.1048 -0.3784  0.7403
  789MOL0     H 6486   6.322  -0.174  -1.357 -0.4442 -0.6614  2.3733
  789MOL0     H 6487   6.248   0.049  -1.503 -2.5701  0.8325 -0.1774
  789MOL0     H 6488   6.103   0.026  -1.404 -0.2039  0.1562 -1.5480
  789MOL0     H 6489   6.235  -0.165  -1.600 -0.3121 -2.1666 -1.4339
  789MOL0     H 6490   6.101  -0.212  -1.489 -2.2837  3.0108  2.7539
  789MOL0     H 6491   6.090   0.012  -1.694 -1.1278 -0.4909 -1.6392
  789MOL0     H 6492   5.954  -0.040  -1.579 -1.0180 -2.4889  0.0150
  789MOL0     H 6493   5.907  -0.126  -1.810  0.5444  1.3276  0.1982
  789MOL0     H 6494   6.068  -0.179  -1.837  0.5916  2.8595 -0.8741
  789MOL0     H 6495   6.545  -0.357  -1.394 -3.0979 -2.2689  2.6252
  789MOL0     H 6496   6.615  -0.596  -1.325  1.4136 -0.8211  1.0500
  789MOL0     H 6497   6.714  -0.884  -0.983  1.1983  1.4811 -1.1828
  789MOL0     H 6498   6.743  -1.114  -0.939 -0.0581 -0.0304 -0.6338
  789MOL0     H 6499   7.441   0.002  -0.248 -2.4237  0.7981  1.5983
  789MOL0     H 6500   7.533   0.210  -0.143 -2.8670 -0.3817 -0.1750
  789MOL0     H 6501   7.624   0.418   0.229 -0.2302  2.9601  0.6848
  789MOL0     H 6502   7.636   0.566   0.411  1.7719 -1.4748  5.3755
  789MOL0     H 6503   7.813   0.787   0.470 -1.1200 -4.0082 -1.7450
  789MOL0     H 6504   7.976   0.729   0.481  1.2974  0.4957  2.8062
  789MOL0     H 6505   7.976   0.734   0.712  2.4212  1.7242 -0.5012
  789MOL0     H 6506   7.821   0.833   0.705 -0.4487  0.3961  0.5094
  789MOL0     H 6507   7.959   1.002   0.563  0.1462 -1.5248 -0.5819
  789MOL0     H 6508   8.100   0.912   0.603 -1.1769  0.5489 -1.5275
  789MOL0     H 6509   8.056   0.952   0.851 -2.6410  3.6236  3.6414
  789MOL0     H 6510   8.113   1.088   0.749  0.0816  0.1347 -0.4555
  789MOL0     H 6511   7.728   1.201   0.887  0.2068  0.3415 -0.8849
  789MOL0     H 6512   8.041   0.452   0.478 -0.2257 -0.4611 -0.1411
  789MOL0     H 6513   8.103   0.254   0.409  0.9529 -1.2055  0.3567
  789MOL0     H 6514   8.054   0.163   0.260  2.7169 -0.0351 -1.7791
  789MOL0     H 6515   8.151   0.307   0.251 -2.3962  1.1632 -1.5186
  790MOL0     O 6516   4.321   9.971   9.379  1.1607  0.6212 -0.1983
  790MOL0     C 6517   4.356  10.078   9.423 -0.3481  0.2985 -0.6475
  790MOL0     O 6518   4.474  10.110   9.480  0.2646  0.1552 -0.3867
  790MOL0     C 6519   4.571  10.020   9.510  0.1736 -0.2048  0.3152
  790MOL0     C 6520   4.685  10.073   9.568  0.6386 -0.9153 -0.2286
  790MOL0     C 6521   4.794   9.991   9.596  0.5183 -0.4344  0.2760
  790MOL0     C 6522   4.800   9.860   9.551 -0.3113 -0.1452  0.9050
  790MOL0     O 6523   4.908   9.785   9.551 -0.2800 -0.0079 -0.1488
  790MOL0     C 6524   5.031   9.814   9.636  1.4837  0.5023  0.3178
  790MOL0     C 6525   5.081   9.681   9.687 -0.4349 -0.1308 -0.5517
  790MOL0     C 6526   4.977   9.611   9.782  0.4627 -0.4423 -0.4567
  790MOL0     C 6527   5.030   9.467   9.813  0.6367 -0.5668  0.6272
  790MOL0     C 6528   4.944   9.394   9.923 -0.3961 -0.6111 -0.6772
  790MOL0     C 6529   5.000   9.260   9.955  0.0350  0.2705 -0.9067
  790MOL0     C 6530   4.904   9.162  10.028 -0.2322  0.9493  0.9531
  790MOL0     C 6531   4.894   9.220  10.170  0.8681 -0.1976  0.2770
  790MOL0     N 6532   4.862   9.126  10.273 -0.6577 -0.1199  0.1174
  790MOL0     C 6533   4.906   8.999  10.282 -0.7562  0.3122 -0.0937
  790MOL0     C 6534   4.826   8.944  10.374  0.2837  0.0819  0.3380
  790MOL0     C 6535   4.815   8.792  10.396 -0.6210 -1.0239  0.8173
  790MOL0     C 6536   4.909   8.730  10.493 -0.3860 -0.4256 -1.4002
  790MOL0     C 6537   5.057   8.722  10.449 -0.2271  0.1693  0.0110
  790MOL0     C 6538   5.131   8.638  10.558 -0.4443 -0.0461  0.9342
  790MOL0     O 6539   5.245   8.573  10.502  0.4507  0.0255 -0.7912
  790MOL0     C 6540   5.346   8.639  10.439  0.0171 -0.5852  0.8428
  790MOL0     C 6541   5.379   8.772  10.487 -0.0926 -0.0394  0.3068
  790MOL0     C 6542   5.488   8.843  10.430  1.1248 -0.4029  0.8904
  790MOL0     C 6543   5.558   8.786  10.322 -0.1944  0.3062  0.3470
  790MOL0     C 6544   5.695   8.842  10.281 -0.1931  0.1796  0.6515
  790MOL0     O 6545   5.738   8.809  10.157 -0.0953  0.1761 -0.2690
  790MOL0     C 6546   5.844   8.879  10.113  0.2476  0.6783  0.3174
  790MOL0     C 6547   5.954   8.805  10.063 -0.2568  0.4909  0.4764
  790MOL0     C 6548   6.080   8.860  10.029  0.0916  0.1107  0.3598
  790MOL0     C 6549   6.089   9.000  10.027  0.4995  0.3013  0.7688
  790MOL0     O 6550   6.194   9.057   9.963  1.1071  0.9072 -0.5909
  790MOL0     C 6551   6.187   9.077   9.819  0.2752  0.3039  1.1304
  790MOL0     C 6552   6.250   9.206   9.780  0.1166 -0.5347  0.7138
  790MOL0     C 6553   6.148   9.316   9.812  0.5323  0.1338  1.1770
  790MOL0     C 6554   6.184   9.454   9.769  0.0185 -0.1058 -0.5192
  790MOL0     C 6555   6.124   9.565   9.867  1.0159  0.4732 -0.1274
  790MOL0     C 6556   5.969   9.556   9.882  0.2234  0.4250 -0.6690
  790MOL0     C 6557   5.895   9.560   9.751 -0.3114  0.4880 -0.0056
  790MOL0     C 6558   5.751   9.533   9.757  0.1036 -0.6632  0.0982
  790MOL0    Cl 6559   5.703   9.393   9.856  0.0773 -0.0692  0.3483
  790MOL0     C 6560   5.984   9.070  10.070  0.4740 -0.5378 -1.0943
  790MOL0     C 6561   5.866   9.013  10.120 -0.4139  0.2021 -0.3333
  790MOL0     O 6562   5.757   8.909  10.366  1.0422  0.0023  0.0946
  790MOL0     C 6563   5.525   8.657  10.278 -0.4392  0.8228 -0.2442
  790MOL0     C 6564   5.420   8.584  10.327  0.6186 -0.0880  0.3180
  790MOL0     N 6565   4.739   9.041  10.424 -0.4615  0.7149  0.5840
  790MOL0     N 6566   4.766   9.146  10.364  0.5399 -0.0299 -0.6403
  790MOL0     C 6567   4.679   9.808   9.504 -0.6083 -0.1092 -0.0805
  790MOL0     C 6568   4.571   9.888   9.474  0.3001  0.3094 -0.8167
  790MOL0     C 6569   4.267  10.194   9.395  0.2873  0.3817 -0.2911
  790MOL0     C 6570   4.137  10.162   9.348  0.0364  0.7265 -1.0475
  790MOL0     C 6571   4.043  10.251   9.309 -0.2283 -0.3146  0.2444
  790MOL0     C 6572   4.073  10.390   9.309 -0.4500 -0.2107 -1.1795
  790MOL0     O 6573   3.971  10.482   9.286  0.9207  0.4174 -0.9978
  790MOL0     C 6574   3.987  10.622   9.297 -0.4879 -0.5956 -0.0281
  790MOL0     C 6575   4.019  10.690   9.167  1.0480  1.2417  0.6637
  790MOL0     C 6576   3.955  10.633   9.038  0.2420 -0.1676  0.5529
  790MOL0     C 6577   3.799  10.604   9.057 -0.4886 -0.0513 -0.1088
  790MOL0     C 6578   3.725  10.639   8.939  0.0702 -0.2786 -0.2305
  790MOL0     C 6579   3.651  10.688   8.851  0.3141 -0.8527 -0.0932
  790MOL0     C 6580   4.197  10.428   9.362  0.4159 -0.8248  0.4850
  790MOL0     C 6581   4.294  10.330   9.401 -0.4361 -0.0738 -0.8392
  790MOL0     C 6582   4.426  10.385   9.452 -0.1627  0.2687  0.0553
  790MOL0     H 6583   4.704  10.173   9.606  2.6963 -2.2064  2.4681
  790MOL0     H 6584   4.885  10.034   9.637  1.1749  0.0934 -1.6410
  790MOL0     H 6585   5.113   9.870   9.590  1.1839  3.5591  3.0609
  790MOL0     H 6586   4.999   9.882   9.716 -2.4599  0.2978 -0.8601
  790MOL0     H 6587   5.174   9.705   9.740 -1.2230  2.1498 -0.0606
  790MOL0     H 6588   5.108   9.615   9.604  2.4407  3.4073 -2.7730
  790MOL0     H 6589   4.876   9.619   9.740  0.7744  2.1349 -0.8581
  790MOL0     H 6590   4.973   9.667   9.876  1.6656  0.5158 -0.9519
  790MOL0     H 6591   5.026   9.419   9.715 -0.4686  2.1698 -0.8064
  790MOL0     H 6592   5.132   9.475   9.849  0.8004  0.4399 -0.0052
  790MOL0     H 6593   4.943   9.462  10.009  0.5989 -1.0088 -0.3393
  790MOL0     H 6594   4.837   9.379   9.905  0.3027 -6.2646 -1.9330
  790MOL0     H 6595   5.017   9.200   9.866 -1.6357 -0.0895 -1.0309
  790MOL0     H 6596   5.097   9.261  10.006 -0.5609  0.7971  0.2720
  790MOL0     H 6597   4.938   9.058  10.027 -2.0575  0.3113 -0.2254
  790MOL0     H 6598   4.803   9.157   9.986 -0.7072 -2.8091  2.1753
  790MOL0     H 6599   4.987   9.264  10.206  1.9959 -0.1195 -2.5204
  790MOL0     H 6600   4.817   9.298  10.171  2.2161  1.2364 -1.0660
  790MOL0     H 6601   4.981   8.940  10.231 -2.0392 -1.1988 -0.3332
  790MOL0     H 6602   4.712   8.761  10.415 -2.2931  1.7684 -2.5273
  790MOL0     H 6603   4.838   8.742  10.301  1.5514 -0.2372  0.8749
  790MOL0     H 6604   4.919   8.795  10.580 -0.1180 -1.0082 -0.9916
  790MOL0     H 6605   4.871   8.632  10.524  2.2101 -0.8875  0.6265
  790MOL0     H 6606   5.098   8.822  10.436  0.7036  0.2346  2.7891
  790MOL0     H 6607   5.060   8.654  10.363 -1.5700  0.0486  0.0355
  790MOL0     H 6608   5.056   8.565  10.592  0.1273  0.4099  3.3375
  790MOL0     H 6609   5.157   8.705  10.640  4.0388 -3.7348  2.9873
  790MOL0     H 6610   5.332   8.809  10.577  0.4110 -1.6512  1.2745
  790MOL0     H 6611   5.533   8.932  10.471  2.3835 -1.0097  0.8688
  790MOL0     H 6612   5.943   8.697  10.057 -0.9852  0.6198 -1.1690
  790MOL0     H 6613   6.168   8.803  10.000 -0.9820 -1.2656 -0.3120
  790MOL0     H 6614   6.240   8.991   9.778  0.8502  1.6058 -0.9856
  790MOL0     H 6615   6.083   9.058   9.794 -0.0983 -0.7031  3.1664
  790MOL0     H 6616   6.349   9.218   9.825  0.3369  2.1238 -0.2876
  790MOL0     H 6617   6.261   9.213   9.671  0.8099 -0.3551  0.7917
  790MOL0     H 6618   6.051   9.274   9.784  0.9698  0.6418 -1.3201
  790MOL0     H 6619   6.150   9.325   9.921 -0.9261  3.5487  1.0349
  790MOL0     H 6620   6.149   9.474   9.667  0.4401  2.3209 -0.2546
  790MOL0     H 6621   6.293   9.464   9.764 -0.1437  2.4035 -5.4080
  790MOL0     H 6622   6.154   9.663   9.827  2.5621  1.1055  2.3307
  790MOL0     H 6623   6.174   9.549   9.963 -0.5133 -0.0900  0.6099
  790MOL0     H 6624   5.947   9.455   9.917  0.9720  0.2690 -0.6319
  790MOL0     H 6625   5.943   9.639   9.949  3.7817  1.6527 -0.6075
  790MOL0     H 6626   5.936   9.484   9.684 -1.4196  0.0162 -0.1761
  790MOL0     H 6627   5.921   9.659   9.712  2.5794  0.7221  2.1490
  790MOL0     H 6628   5.715   9.623   9.808 -1.2265 -1.8295  1.3126
  790MOL0     H 6629   5.702   9.533   9.659  1.1640  2.5031 -0.5486
  790MOL0     H 6630   6.003   9.172  10.104 -0.9551 -0.9833  1.3355
  790MOL0     H 6631   5.787   9.076  10.159 -0.6741 -2.2462  3.6249
  790MOL0     H 6632   5.577   8.612  10.194  1.3465  0.7061  0.8733
  790MOL0     H 6633   5.388   8.490  10.284  1.0894 -0.5883  1.0339
  790MOL0     H 6634   4.671   9.705   9.469 -1.1007 -0.2466  0.4294
  790MOL0     H 6635   4.488   9.836   9.428 -0.8613  0.6944  0.7569
  790MOL0     H 6636   4.100  10.061   9.334 -2.2647  1.0921  1.4907
  790MOL0     H 6637   3.947  10.227   9.266 -0.4305 -1.7615  1.4515
  790MOL0     H 6638   4.053  10.662   9.375 -1.3600 -0.8246  0.8419
  790MOL0     H 6639   3.896  10.665   9.340 -0.2813 -1.7228  1.6081
  790MOL0     H 6640   4.126  10.683   9.152  0.6622 -2.2095 -1.3055
  790MOL0     H 6641   4.004  10.798   9.182  0.8668  1.4797 -1.0692
  790MOL0     H 6642   3.996  10.545   8.989 -3.0453 -1.2480 -0.5155
  790MOL0     H 6643   3.970  10.715   8.967 -0.3674  0.0427  0.6568
  790MOL0     H 6644   3.789  10.500   9.088 -0.4506 -0.8782 -2.6706
  790MOL0     H 6645   3.756  10.668   9.134 -4.1463 -1.5568 -0.6765
  790MOL0     H 6646   3.590  10.715   8.767 -1.0099 -3.4748 -0.0620
  790MOL0     H 6647   4.233  10.530   9.373  4.0917 -1.4397 -3.2536
  790MOL0     H 6648   4.435  10.493   9.441 -2.2543  0.1971 -4.3822
  790MOL0     H 6649   4.429  10.353   9.557  1.4387  0.4024  0.0834
  790MOL0     H 6650   4.516  10.342   9.408 -0.0707 -1.8086  2.0241
  791MOL0     O 6651  10.655   0.474   5.868  0.6947  0.2284  0.3922
  791MOL0     C 6652  10.655   0.397   5.964  0.9399 -0.0705 -1.1917
  791MOL0     O 6653  10.552   0.344   6.028  0.5670  0.5598 -0.0487
  791MOL0     C 6654  10.438   0.360   5.960  0.4996 -0.3523 -0.2919
  791MOL0     C 6655  10.341   0.454   5.988 -0.2533  0.1626  0.0744
  791MOL0     C 6656  10.221   0.463   5.926  1.1408 -0.0118  0.5141
  791MOL0     C 6657  10.196   0.390   5.810 -0.6408  0.5631  0.4543
  791MOL0     O 6658  10.089   0.426   5.732 -0.0129  0.1025  0.6434
  791MOL0     C 6659  10.097   0.401   5.588  0.1023  0.1876  0.6218
  791MOL0     C 6660  10.013   0.273   5.555  0.0329  0.4150 -0.8351
  791MOL0     C 6661   9.989   0.252   5.403  0.0192  0.2242  0.2480
  791MOL0     C 6662   9.903   0.139   5.376  0.1699 -0.3703  0.0577
  791MOL0     C 6663   9.894   0.125   5.221 -0.1272 -1.1534 -0.6244
  791MOL0     C 6664   9.798   0.004   5.188 -0.9243 -0.1917 -0.5038
  791MOL0     C 6665   9.765  -0.029   5.042  0.7561  0.1101  0.3425
  791MOL0     C 6666   9.871  -0.111   4.968  0.4631 -0.0834  0.4919
  791MOL0     N 6667   9.809  -0.176   4.838 -0.6251 -0.0509  0.8311
  791MOL0     C 6668   9.842  -0.298   4.791 -0.0312  0.1563 -0.1672
  791MOL0     C 6669   9.821  -0.286   4.660  0.6297 -0.2286  0.1956
  791MOL0     C 6670   9.859  -0.386   4.567  0.1766  0.2887 -0.3799
  791MOL0     C 6671  10.005  -0.441   4.575 -0.5938 -0.0452  0.0835
  791MOL0     C 6672  10.046  -0.546   4.472 -0.4123  1.1317 -0.2781
  791MOL0     C 6673  10.160  -0.630   4.511 -0.0189 -0.1831 -0.0202
  791MOL0     O 6674  10.292  -0.573   4.508  0.0040  0.4144 -0.0587
  791MOL0     C 6675  10.402  -0.652   4.505  0.1950  1.1702  0.5507
  791MOL0     C 6676  10.522  -0.590   4.472  0.6297  0.1769 -0.3852
  791MOL0     C 6677  10.635  -0.668   4.459 -0.4903 -0.2244 -0.8981
  791MOL0     C 6678  10.633  -0.800   4.495  0.8154 -0.6667 -0.5235
  791MOL0     C 6679  10.758  -0.865   4.480 -0.0095  0.4122 -0.4245
  791MOL0     O 6680  10.858  -0.802   4.416  0.1552 -0.7692 -1.0400
  791MOL0     C 6681  10.991  -0.844   4.407 -0.4899  0.2321  0.2081
  791MOL0     C 6682  11.058  -0.913   4.508 -0.2192 -0.1614  0.2747
  791MOL0     C 6683  11.201  -0.940   4.507  0.1099  0.4034 -0.0917
  791MOL0     C 6684  11.269  -0.903   4.398 -0.0377  0.1333  0.4415
  791MOL0     O 6685  11.404  -0.944   4.396  0.4659 -0.4687 -0.9675
  791MOL0     C 6686  11.494  -0.871   4.317  0.3208  0.3427  0.5438
  791MOL0     C 6687  11.626  -0.931   4.339 -0.7019  0.2513  0.0298
  791MOL0     C 6688  11.674  -0.960   4.493  0.0853 -0.1328  0.8572
  791MOL0     C 6689  11.679  -0.824   4.559  0.1641 -0.2108 -0.0458
  791MOL0     C 6690  11.822  -0.782   4.605  1.4446 -0.3469  0.3585
  791MOL0     C 6691  11.827  -0.647   4.678  0.0650  0.2620 -0.6815
  791MOL0     C 6692  11.908  -0.539   4.608 -0.3044  0.6395  0.9096
  791MOL0     C 6693  12.056  -0.585   4.583  0.0137 -0.9387  0.1833
  791MOL0    Cl 6694  12.169  -0.446   4.597  0.1439 -0.1604 -0.3582
  791MOL0     C 6695  11.209  -0.837   4.289 -0.1152 -0.1861  0.4563
  791MOL0     C 6696  11.068  -0.808   4.293  0.1872 -0.5602  0.0916
  791MOL0     O 6697  10.747  -0.980   4.509  0.0846  0.9463  0.4671
  791MOL0     C 6698  10.514  -0.858   4.537 -0.2311  0.6738 -0.4258
  791MOL0     C 6699  10.394  -0.788   4.531  0.0385  0.5780 -0.0247
  791MOL0     N 6700   9.750  -0.172   4.630  0.0340  0.2578  0.0658
  791MOL0     N 6701   9.737  -0.109   4.742 -0.3419  0.2830  0.0917
  791MOL0     C 6702  10.291   0.290   5.775  0.2704 -0.1326  0.5253
  791MOL0     C 6703  10.408   0.278   5.858  0.1848  0.3076  0.1861
  791MOL0     C 6704  10.784   0.363   6.025 -0.4098  0.1914  0.3395
  791MOL0     C 6705  10.784   0.353   6.166 -0.1514  0.6695  1.1397
  791MOL0     C 6706  10.904   0.313   6.234 -0.6213 -0.0315  0.4123
  791MOL0     C 6707  11.025   0.311   6.163 -0.1969 -0.7021 -1.2106
  791MOL0     O 6708  11.143   0.286   6.227  0.8704 -0.5743 -0.3264
  791MOL0     C 6709  11.138   0.166   6.307 -1.4108 -0.0998  0.0325
  791MOL0     C 6710  11.074   0.040   6.245 -0.8138 -0.0212  0.1717
  791MOL0     C 6711  11.117  -0.007   6.105  0.7601  0.1526  0.2097
  791MOL0     C 6712  11.267  -0.014   6.090  0.2089  0.6199  1.1620
  791MOL0     C 6713  11.320  -0.109   6.185 -0.6036  0.8291  0.1717
  791MOL0     C 6714  11.382  -0.181   6.268  0.3366 -0.3705  0.7732
  791MOL0     C 6715  11.029   0.332   6.037  0.2357  0.0968  1.7614
  791MOL0     C 6716  10.915   0.360   5.961 -0.2082 -0.8316  0.2556
  791MOL0     C 6717  10.933   0.369   5.809  0.1884 -0.7499 -0.8130
  791MOL0     H 6718  10.353   0.517   6.076 -2.7205  2.7965 -1.3116
  791MOL0     H 6719  10.141   0.524   5.966  0.1961  1.3777 -3.0833
  791MOL0     H 6720  10.040   0.484   5.545  1.0105  0.2272 -0.5655
  791MOL0     H 6721  10.201   0.396   5.553 -0.7413  2.6997 -2.8067
  791MOL0     H 6722   9.925   0.281   5.618  0.2729 -1.5040 -0.1783
  791MOL0     H 6723  10.056   0.182   5.599 -0.8388 -0.4724 -1.7448
  791MOL0     H 6724  10.089   0.242   5.360  1.9444  1.4099  3.9654
  791MOL0     H 6725   9.940   0.341   5.362 -0.8449 -0.7268 -0.8332
  791MOL0     H 6726   9.950   0.052   5.423  0.3950 -0.3133 -0.0609
  791MOL0     H 6727   9.808   0.153   5.428 -0.5744  0.2128 -1.4271
  791MOL0     H 6728   9.845   0.219   5.191  1.8887  1.0882  2.4071
  791MOL0     H 6729   9.991   0.119   5.171  2.6802  0.7162  3.9002
  791MOL0     H 6730   9.835  -0.084   5.242 -2.4606  0.2751  1.4193
  791MOL0     H 6731   9.700   0.035   5.225 -0.5056 -1.2674  1.6756
  791MOL0     H 6732   9.746   0.060   4.981  0.4222 -0.9356 -1.1311
  791MOL0     H 6733   9.681  -0.097   5.031  0.0227  0.6658  2.0709
  791MOL0     H 6734   9.966  -0.064   4.941  1.2253 -1.8816 -0.1467
  791MOL0     H 6735   9.896  -0.200   5.026 -1.9903 -1.3791 -0.2649
  791MOL0     H 6736   9.889  -0.379   4.846 -1.9514 -0.1502  1.1308
  791MOL0     H 6737   9.792  -0.473   4.570 -1.4216  1.4906 -0.1568
  791MOL0     H 6738   9.858  -0.338   4.469 -0.9031  1.4968  0.1947
  791MOL0     H 6739  10.077  -0.360   4.560  2.1552 -2.6930 -2.2191
  791MOL0     H 6740  10.011  -0.492   4.672 -0.6033 -2.8617 -1.3023
  791MOL0     H 6741  10.080  -0.498   4.379  1.3204  0.0797 -0.2353
  791MOL0     H 6742   9.959  -0.608   4.451 -1.7006  1.5755  3.2389
  791MOL0     H 6743  10.171  -0.720   4.450  4.2320  0.1265 -0.0206
  791MOL0     H 6744  10.135  -0.664   4.612 -2.0920  0.5873 -0.2295
  791MOL0     H 6745  10.517  -0.486   4.441 -0.1516  0.4911  0.7491
  791MOL0     H 6746  10.723  -0.615   4.424 -0.4450  0.4296  0.1832
  791MOL0     H 6747  11.008  -0.932   4.602 -0.2628  2.6193  0.9280
  791MOL0     H 6748  11.248  -0.992   4.590  0.1041  0.9210  0.2398
  791MOL0     H 6749  11.474  -0.879   4.209 -0.6234 -0.0348  0.7344
  791MOL0     H 6750  11.493  -0.764   4.335  1.3152  0.3151  0.8140
  791MOL0     H 6751  11.639  -1.032   4.299 -0.4448  0.2055  0.2232
  791MOL0     H 6752  11.702  -0.884   4.277 -2.3416  0.7893 -1.6607
  791MOL0     H 6753  11.617  -1.028   4.557 -1.2722  0.0071 -0.1598
  791MOL0     H 6754  11.769  -1.014   4.488 -0.5977 -1.4754  1.7284
  791MOL0     H 6755  11.603  -0.823   4.638 -2.6670  1.8798 -2.5581
  791MOL0     H 6756  11.650  -0.747   4.487 -2.0699 -0.8458  0.1019
  791MOL0     H 6757  11.879  -0.779   4.512 -2.8045 -0.9600 -2.6003
  791MOL0     H 6758  11.855  -0.861   4.672 -0.0518 -0.7370  0.6829
  791MOL0     H 6759  11.733  -0.593   4.689 -0.3310 -0.6369  0.4418
  791MOL0     H 6760  11.868  -0.680   4.774 -1.5027 -1.5661 -0.5946
  791MOL0     H 6761  11.916  -0.457   4.681  1.7120 -0.7936  2.4331
  791MOL0     H 6762  11.857  -0.503   4.519  2.0765  2.1492  0.0473
  791MOL0     H 6763  12.079  -0.657   4.662  3.8866  0.4171  0.4845
  791MOL0     H 6764  12.068  -0.623   4.481  0.3459  1.6578 -0.8237
  791MOL0     H 6765  11.268  -0.793   4.209 -1.3492  1.2814  0.2827
  791MOL0     H 6766  11.026  -0.752   4.210 -2.0915 -1.6431  0.4441
  791MOL0     H 6767  10.522  -0.963   4.560  0.2836  1.0598  1.3566
  791MOL0     H 6768  10.306  -0.849   4.545  0.0666  0.2467 -1.2027
  791MOL0     H 6769  10.286   0.224   5.689 -1.2864  1.0126 -0.3011
  791MOL0     H 6770  10.485   0.206   5.830  0.2998  0.7671 -0.6990
  791MOL0     H 6771  10.699   0.383   6.227  0.7790 -0.2441  2.9528
  791MOL0     H 6772  10.908   0.287   6.339 -0.5410 -1.9014 -0.0297
  791MOL0     H 6773  11.104   0.196   6.407 -0.9708 -2.5094  0.9900
  791MOL0     H 6774  11.244   0.142   6.324 -1.8929 -1.1324  1.9657
  791MOL0     H 6775  10.966   0.054   6.255 -1.1837 -1.3450 -1.4558
  791MOL0     H 6776  11.094  -0.048   6.306 -2.8150  0.0873  1.0515
  791MOL0     H 6777  11.076   0.066   6.034  1.4972  0.2175 -0.1631
  791MOL0     H 6778  11.074  -0.105   6.087  0.2917  0.1257  1.4071
  791MOL0     H 6779  11.293  -0.059   5.994 -0.7375  2.6507 -0.1115
  791MOL0     H 6780  11.312   0.086   6.093 -0.6357  0.9870  3.0749
  791MOL0     H 6781  11.430  -0.254   6.331  1.8603  0.0411  0.1238
  791MOL0     H 6782  11.128   0.332   5.991  1.8124  0.4804  4.8992
  791MOL0     H 6783  10.883   0.291   5.752 -0.2297  1.0619 -3.1038
  791MOL0     H 6784  10.880   0.456   5.767  0.3536  0.0288  0.5382
  791MOL0     H 6785  11.037   0.378   5.777  0.3094  2.8943  0.1208
  792MOL0     O 6786   4.541   5.077   5.597  0.3840 -0.0170 -0.1159
  792MOL0     C 6787   4.580   5.061   5.710  0.4097 -0.1574  0.4458
  792MOL0     O 6788   4.708   5.056   5.759 -0.6294  0.1259 -0.6379
  792MOL0     C 6789   4.814   5.068   5.670  0.6057 -0.1891  0.0205
  792MOL0     C 6790   4.939   5.030   5.723 -0.6820  0.1951 -0.0089
  792MOL0     C 6791   5.063   5.062   5.667  0.9237  0.5440 -0.8058
  792MOL0     C 6792   5.067   5.136   5.549  0.5840 -0.5404  0.4020
  792MOL0     O 6793   5.175   5.152   5.476  0.1305  0.9731  0.4962
  792MOL0     C 6794   5.289   5.186   5.543 -1.0681  0.6178  0.0093
  792MOL0     C 6795   5.357   5.309   5.474 -0.6894  0.1590 -0.4994
  792MOL0     C 6796   5.465   5.260   5.364 -0.0624  0.6159 -0.1842
  792MOL0     C 6797   5.590   5.194   5.424  0.0627  0.1703  0.1730
  792MOL0     C 6798   5.681   5.116   5.323 -0.3941  1.3031 -0.6038
  792MOL0     C 6799   5.810   5.064   5.410  0.3452  0.3468  0.0870
  792MOL0     C 6800   5.911   4.991   5.327  0.1429 -0.0849  0.0669
  792MOL0     C 6801   5.868   4.852   5.282 -1.0199 -0.1782 -0.8917
  792MOL0     N 6802   5.961   4.782   5.188 -0.1228 -0.5590 -0.4563
  792MOL0     C 6803   5.956   4.778   5.047  0.3535 -0.9846 -0.1370
  792MOL0     C 6804   6.062   4.701   5.007  0.1178 -0.0488  0.6401
  792MOL0     C 6805   6.100   4.697   4.859  0.6190  0.7619  0.1824
  792MOL0     C 6806   6.137   4.549   4.809 -0.9881 -0.5234  0.1487
  792MOL0     C 6807   6.222   4.557   4.679 -0.1438 -0.2838  0.3085
  792MOL0     C 6808   6.214   4.424   4.610 -0.2738  0.4747 -0.6828
  792MOL0     O 6809   6.242   4.435   4.472 -0.2884  0.1878  0.8618
  792MOL0     C 6810   6.167   4.344   4.396 -0.0694  0.3367  0.2438
  792MOL0     C 6811   6.042   4.379   4.341 -0.2202  0.8892  0.0063
  792MOL0     C 6812   5.986   4.290   4.246 -0.0536  0.6584 -0.4075
  792MOL0     C 6813   6.039   4.156   4.224 -0.5808 -0.1790  0.4484
  792MOL0     C 6814   5.967   4.067   4.137  0.5773  0.4926 -0.8442
  792MOL0     O 6815   6.019   3.942   4.118 -0.1019  0.1738 -0.8829
  792MOL0     C 6816   5.963   3.864   4.031  0.2706 -0.8147 -0.3171
  792MOL0     C 6817   5.860   3.783   4.065  1.6459  0.4158  0.5376
  792MOL0     C 6818   5.791   3.714   3.963 -0.5376  0.5102 -1.1171
  792MOL0     C 6819   5.838   3.703   3.836 -0.4316 -0.3383 -0.5713
  792MOL0     O 6820   5.773   3.613   3.756 -0.6873  0.9389 -0.2879
  792MOL0     C 6821   5.793   3.599   3.620  0.4904 -0.7073 -0.1506
  792MOL0     C 6822   5.672   3.513   3.569  0.6107  0.3318 -0.1610
  792MOL0     C 6823   5.697   3.457   3.429  0.4567  0.2618 -0.1423
  792MOL0     C 6824   5.840   3.407   3.410  0.1871 -0.6828  0.0210
  792MOL0     C 6825   5.846   3.337   3.271 -0.1851  0.3554 -1.0499
  792MOL0     C 6826   5.845   3.418   3.147 -0.4124  0.4807  1.0295
  792MOL0     C 6827   5.982   3.476   3.118 -1.5639  0.9891  1.1052
  792MOL0     C 6828   6.087   3.363   3.072 -0.7534 -0.0016  0.2288
  792MOL0    Cl 6829   6.263   3.389   3.105 -0.0021 -0.3817 -0.1831
  792MOL0     C 6830   5.952   3.781   3.796 -0.0183  0.1487 -0.1953
  792MOL0     C 6831   6.014   3.862   3.900 -0.8301 -0.1237 -0.2336
  792MOL0     O 6832   5.852   4.098   4.112  0.2798  0.3073 -0.2107
  792MOL0     C 6833   6.156   4.118   4.287 -0.0119 -0.0965 -0.5509
  792MOL0     C 6834   6.224   4.211   4.371 -0.3202 -0.1147 -1.0073
  792MOL0     N 6835   6.130   4.665   5.121  0.6688  0.5402  0.3537
  792MOL0     N 6836   6.072   4.710   5.219  0.5205 -1.3680 -0.2047
  792MOL0     C 6837   4.949   5.142   5.479  0.4271  0.2287 -0.1402
  792MOL0     C 6838   4.818   5.110   5.539  0.3541  0.5235  0.0182
  792MOL0     C 6839   4.484   5.009   5.805  0.2490  0.2595  0.3329
  792MOL0     C 6840   4.520   4.888   5.866 -0.5485 -0.0973 -0.0885
  792MOL0     C 6841   4.426   4.811   5.941  0.9168 -0.4552  0.9016
  792MOL0     C 6842   4.306   4.880   5.981  0.3346 -0.8150  0.0496
  792MOL0     O 6843   4.217   4.808   6.060 -0.9683  0.6170  0.6248
  792MOL0     C 6844   4.080   4.832   6.027  0.0830  0.4711 -0.8171
  792MOL0     C 6845   3.986   4.743   6.112  0.6286  0.5913  0.3334
  792MOL0     C 6846   3.982   4.593   6.047 -0.3581  0.4004 -0.4416
  792MOL0     C 6847   3.872   4.491   6.083  0.2517  0.6092  0.6230
  792MOL0     C 6848   3.855   4.444   6.216 -0.4927  0.1333  1.1886
  792MOL0     C 6849   3.832   4.412   6.329 -0.6844  0.3042 -0.8553
  792MOL0     C 6850   4.274   5.009   5.928  0.0644 -0.5013  0.4776
  792MOL0     C 6851   4.364   5.075   5.844  0.6806  0.8475 -0.2620
  792MOL0     C 6852   4.335   5.225   5.808 -0.2418  0.6066 -0.1572
  792MOL0     H 6853   4.934   4.971   5.814  1.2574  2.3256  1.6359
  792MOL0     H 6854   5.152   5.043   5.725 -1.7331  1.2100  4.0122
  792MOL0     H 6855   5.257   5.222   5.641  1.1228  0.8994  0.6606
  792MOL0     H 6856   5.359   5.102   5.550 -2.3073 -0.4094  0.5728
  792MOL0     H 6857   5.402   5.373   5.551  1.1515 -3.2648  1.5313
  792MOL0     H 6858   5.280   5.366   5.420 -0.0866  0.2611 -1.2551
  792MOL0     H 6859   5.498   5.340   5.297  0.9315  0.7106  0.4061
  792MOL0     H 6860   5.420   5.178   5.308 -0.9301  1.9465 -1.5393
  792MOL0     H 6861   5.654   5.269   5.472  1.3997 -0.3172 -0.7789
  792MOL0     H 6862   5.554   5.128   5.504 -3.7422  3.7095  1.7650
  792MOL0     H 6863   5.625   5.038   5.269  1.8120  0.4580 -1.7877
  792MOL0     H 6864   5.710   5.187   5.246  0.2832  0.4182 -1.1803
  792MOL0     H 6865   5.855   5.135   5.480  1.9818 -2.0354  1.6316
  792MOL0     H 6866   5.764   4.994   5.481 -1.7801  1.2920 -0.2904
  792MOL0     H 6867   5.993   4.968   5.395  0.0248  1.3141  0.7055
  792MOL0     H 6868   5.926   5.055   5.239 -3.7105 -0.0549 -0.7636
  792MOL0     H 6869   5.847   4.800   5.376 -1.3423  0.8443 -0.3906
  792MOL0     H 6870   5.778   4.853   5.219 -1.3771 -2.3433 -0.5097
  792MOL0     H 6871   5.883   4.832   4.987 -1.7235 -2.3902  0.9922
  792MOL0     H 6872   6.013   4.736   4.805 -0.1619  0.0464  0.8928
  792MOL0     H 6873   6.182   4.769   4.865  0.3842  1.0808 -0.3478
  792MOL0     H 6874   6.197   4.507   4.890 -2.1212  2.0322  2.5083
  792MOL0     H 6875   6.047   4.490   4.793 -2.5394  2.2715 -2.6356
  792MOL0     H 6876   6.327   4.580   4.699 -0.6519  1.9578  0.7515
  792MOL0     H 6877   6.198   4.648   4.622  1.7067  2.8366  4.0158
  792MOL0     H 6878   6.115   4.378   4.616 -0.8713  1.8523  1.3860
  792MOL0     H 6879   6.285   4.363   4.665  1.0179  0.9297 -1.7940
  792MOL0     H 6880   5.994   4.476   4.342 -0.6768  0.7025 -1.5204
  792MOL0     H 6881   5.892   4.321   4.201 -0.0366  3.5784  1.3410
  792MOL0     H 6882   5.810   3.794   4.161 -1.4113 -2.4208 -0.5429
  792MOL0     H 6883   5.702   3.665   4.002  0.7784 -1.3479 -0.2659
  792MOL0     H 6884   5.786   3.696   3.570 -3.6150 -0.2991  0.8558
  792MOL0     H 6885   5.883   3.540   3.604  0.2677 -0.8188 -1.0215
  792MOL0     H 6886   5.636   3.434   3.636 -1.3468  1.6680  0.4572
  792MOL0     H 6887   5.590   3.583   3.546  0.7774  0.7361  0.4416
  792MOL0     H 6888   5.626   3.377   3.408 -0.4704  1.9874 -4.7849
  792MOL0     H 6889   5.662   3.536   3.362  1.8901  0.2677 -0.8996
  792MOL0     H 6890   5.877   3.340   3.489 -0.2523  2.1146  2.7739
  792MOL0     H 6891   5.910   3.491   3.403 -0.4514  0.1098  2.2746
  792MOL0     H 6892   5.763   3.266   3.264 -0.6825  0.6803  1.1261
  792MOL0     H 6893   5.930   3.267   3.275  1.2626  1.9930 -1.5751
  792MOL0     H 6894   5.827   3.356   3.059  1.2836  1.0824  0.2029
  792MOL0     H 6895   5.773   3.498   3.162 -1.7275  0.4360 -3.5552
  792MOL0     H 6896   6.019   3.535   3.203 -3.0563  4.4786 -0.4650
  792MOL0     H 6897   5.963   3.532   3.026  0.2711 -2.1743 -1.4531
  792MOL0     H 6898   6.082   3.269   3.127  3.6098  0.4198  1.7103
  792MOL0     H 6899   6.068   3.336   2.968 -1.9592  1.7184 -0.0562
  792MOL0     H 6900   5.992   3.784   3.694 -0.7775 -1.8383 -0.6018
  792MOL0     H 6901   6.097   3.930   3.882  1.1469 -1.5173  2.8031
  792MOL0     H 6902   6.189   4.016   4.274 -1.9810 -1.0002  0.9586
  792MOL0     H 6903   6.318   4.204   4.425 -2.0205  2.9657  2.9277
  792MOL0     H 6904   4.959   5.187   5.381 -1.0447  2.1537  0.5354
  792MOL0     H 6905   4.734   5.152   5.485 -1.4408 -0.7604  1.7128
  792MOL0     H 6906   4.613   4.842   5.836  0.5737  1.6689  0.5279
  792MOL0     H 6907   4.448   4.718   5.992  1.2017 -0.4479  0.7921
  792MOL0     H 6908   4.062   4.805   5.923 -1.4559  1.7425 -0.9275
  792MOL0     H 6909   4.042   4.934   6.041  0.2633  0.5209 -0.6850
  792MOL0     H 6910   3.887   4.788   6.100  1.3018  1.4108 -3.5388
  792MOL0     H 6911   4.025   4.740   6.214  2.0110  1.8884 -0.1284
  792MOL0     H 6912   4.074   4.540   6.074 -0.6859  0.1266  0.1484
  792MOL0     H 6913   3.984   4.618   5.940 -0.0397 -1.6853 -0.9758
  792MOL0     H 6914   3.775   4.532   6.053 -0.7858 -2.6204 -0.8605
  792MOL0     H 6915   3.876   4.403   6.019  1.9267  2.5926 -2.2215
  792MOL0     H 6916   3.821   4.373   6.429  2.9409  1.4678  0.1435
  792MOL0     H 6917   4.192   5.064   5.973 -1.5509 -0.0512 -2.7284
  792MOL0     H 6918   4.366   5.243   5.705 -1.2294 -1.4382 -0.8644
  792MOL0     H 6919   4.230   5.255   5.813 -0.2335  0.4084  2.4479
  792MOL0     H 6920   4.381   5.284   5.888 -3.8430 -3.9120  6.2135
  793MOL0     O 6921   5.455   6.511   9.776  0.2316 -0.2974 -0.4901
  793MOL0     C 6922   5.394   6.432   9.854  0.5170  0.2425 -0.2674
  793MOL0     O 6923   5.269   6.449   9.912  0.3515 -0.2554 -0.7654
  793MOL0     C 6924   5.194   6.560   9.887  0.0240 -0.0719  0.2739
  793MOL0     C 6925   5.186   6.618   9.758  0.4587  0.3762 -0.7070
  793MOL0     C 6926   5.108   6.734   9.730  2.1341  1.0166 -0.5372
  793MOL0     C 6927   5.040   6.794   9.836  0.3599  0.7365 -0.1291
  793MOL0     O 6928   4.970   6.904   9.806 -0.6983  0.6517  0.1133
  793MOL0     C 6929   4.896   6.984   9.902 -0.2927  0.9925  0.7493
  793MOL0     C 6930   4.826   7.100   9.835 -0.0010 -0.2082 -0.4375
  793MOL0     C 6931   4.922   7.161   9.734 -0.1814 -0.1362 -0.2814
  793MOL0     C 6932   4.902   7.311   9.691 -0.6632 -0.1797  0.2922
  793MOL0     C 6933   5.025   7.350   9.619  0.0488  0.8502 -0.0091
  793MOL0     C 6934   5.011   7.484   9.550  1.1568  0.1426 -0.1409
  793MOL0     C 6935   5.145   7.536   9.501 -0.3922 -0.3916  1.0483
  793MOL0     C 6936   5.241   7.612   9.595 -0.9488  0.0013 -1.0083
  793MOL0     N 6937   5.169   7.708   9.686  0.6167  0.5588 -0.2427
  793MOL0     C 6938   5.124   7.666   9.810  0.2060 -0.6415 -0.3616
  793MOL0     C 6939   5.068   7.788   9.849 -0.1391 -0.6058 -0.9925
  793MOL0     C 6940   5.011   7.817   9.988  0.9296 -0.3241  0.0628
  793MOL0     C 6941   4.951   7.689  10.068 -0.3338  0.1011  0.1618
  793MOL0     C 6942   4.912   7.721  10.209 -1.1376  1.2220  1.1122
  793MOL0     C 6943   4.792   7.821  10.229 -0.2903 -0.1616  1.1216
  793MOL0     O 6944   4.688   7.747  10.162  0.4481 -0.5729  0.4517
  793MOL0     C 6945   4.588   7.813  10.091  0.4944  0.4258 -0.0185
  793MOL0     C 6946   4.519   7.730  10.002 -0.4222  0.3920 -1.1250
  793MOL0     C 6947   4.422   7.797   9.924  0.5382 -0.3290  0.3133
  793MOL0     C 6948   4.383   7.931   9.949  1.7268 -0.3489  1.1263
  793MOL0     C 6949   4.289   8.000   9.858  0.2209 -0.2585  0.4242
  793MOL0     O 6950   4.256   8.133   9.887  0.2549 -0.3458  0.0570
  793MOL0     C 6951   4.202   8.207   9.785  0.4186  0.6986 -0.1849
  793MOL0     C 6952   4.291   8.270   9.696  0.6614  1.0731 -0.1011
  793MOL0     C 6953   4.237   8.343   9.592 -0.9502  0.0867 -1.0652
  793MOL0     C 6954   4.110   8.373   9.581  0.8677 -0.5963  0.1242
  793MOL0     O 6955   4.069   8.464   9.489 -0.7119 -0.0072 -0.5090
  793MOL0     C 6956   4.116   8.586   9.531 -0.2476  0.1057  0.0612
  793MOL0     C 6957   4.162   8.662   9.404  1.0746 -1.0405  0.4523
  793MOL0     C 6958   4.225   8.797   9.453  0.0219 -1.2341 -0.2372
  793MOL0     C 6959   4.350   8.780   9.534 -0.3594 -0.8732  0.7626
  793MOL0     C 6960   4.451   8.688   9.442  0.3258  0.0705 -0.5950
  793MOL0     C 6961   4.596   8.696   9.486  0.3546  0.4074  0.1054
  793MOL0     C 6962   4.633   8.588   9.588  0.6938 -0.2026  0.2369
  793MOL0     C 6963   4.655   8.448   9.527  1.2832  0.2406  0.7425
  793MOL0    Cl 6964   4.798   8.448   9.427  0.2030  0.1061  0.0570
  793MOL0     C 6965   4.021   8.311   9.663  0.1640  0.1398 -0.4929
  793MOL0     C 6966   4.068   8.232   9.775  0.3461  0.7279 -0.7415
  793MOL0     O 6967   4.250   7.941   9.759  0.5459 -0.0109 -0.1182
  793MOL0     C 6968   4.442   7.999  10.060  0.7486  0.6593  0.2090
  793MOL0     C 6969   4.544   7.936  10.135  0.1466  0.2514 -0.5688
  793MOL0     N 6970   5.089   7.891   9.762 -0.0211  0.4327  0.1192
  793MOL0     N 6971   5.152   7.841   9.657 -0.2405  0.0035 -0.7329
  793MOL0     C 6972   5.073   6.750   9.970 -0.2800 -0.9761  1.1323
  793MOL0     C 6973   5.141   6.630   9.994  0.0874 -0.0847  0.2443
  793MOL0     C 6974   5.464   6.294   9.858 -0.3693  0.3195 -0.8148
  793MOL0     C 6975   5.401   6.198   9.948  0.8312  0.6900  0.3023
  793MOL0     C 6976   5.450   6.070   9.947 -0.7079  0.1186 -0.4906
  793MOL0     C 6977   5.549   6.031   9.861 -0.5694  0.1509 -0.2807
  793MOL0     O 6978   5.586   5.898   9.862  0.6935 -0.5165  0.6363
  793MOL0     C 6979   5.628   5.834   9.740  0.6417  0.1474 -0.2556
  793MOL0     C 6980   5.780   5.814   9.717 -0.1473 -0.2665  1.5392
  793MOL0     C 6981   5.837   5.697   9.798 -0.0714  0.8314 -0.8126
  793MOL0     C 6982   5.986   5.679   9.765  0.4924  0.1246  0.7168
  793MOL0     C 6983   6.060   5.782   9.830 -0.0113 -0.0953  0.2939
  793MOL0     C 6984   6.120   5.878   9.887 -0.1556  1.0172 -0.8963
  793MOL0     C 6985   5.623   6.127   9.785  0.3661  0.8434  0.3288
  793MOL0     C 6986   5.593   6.257   9.800 -0.2880 -0.6016  0.0884
  793MOL0     C 6987   5.686   6.348   9.715  0.4120  0.2407 -0.1742
  793MOL0     H 6988   5.223   6.563   9.672 -1.2454  0.0384 -1.2654
  793MOL0     H 6989   5.103   6.768   9.628  0.9536  1.7618 -0.2553
  793MOL0     H 6990   4.820   6.914   9.939 -2.1036  1.4176 -1.8843
  793MOL0     H 6991   4.962   7.014   9.984 -2.2386  3.2964  1.5692
  793MOL0     H 6992   4.783   7.164   9.913 -1.1343 -1.6860  0.1966
  793MOL0     H 6993   4.736   7.059   9.789  0.4397 -1.0775 -0.5435
  793MOL0     H 6994   4.924   7.104   9.641  0.9652 -0.1826 -0.2409
  793MOL0     H 6995   5.020   7.155   9.781 -0.0574 -0.0711 -0.5329
  793MOL0     H 6996   4.803   7.316   9.644 -0.4733 -1.1059 -0.2232
  793MOL0     H 6997   4.895   7.377   9.777 -1.6429 -0.9118  0.7950
  793MOL0     H 6998   5.099   7.367   9.698  1.6012 -1.6030 -0.8239
  793MOL0     H 6999   5.065   7.277   9.548  0.7708  0.3599  0.8723
  793MOL0     H 7000   4.937   7.456   9.474 -1.4484 -1.2891  2.7303
  793MOL0     H 7001   4.964   7.559   9.615  0.0579  0.8305 -1.6487
  793MOL0     H 7002   5.127   7.606   9.419  3.4115  1.0372  1.1982
  793MOL0     H 7003   5.199   7.452   9.457  1.3776  1.5254 -0.7024
  793MOL0     H 7004   5.304   7.553   9.662  1.3885  3.2287 -0.0785
  793MOL0     H 7005   5.316   7.668   9.537 -0.5953  0.4305 -0.1647
  793MOL0     H 7006   5.126   7.577   9.870 -3.2095 -0.5323  0.0867
  793MOL0     H 7007   5.093   7.874  10.033  2.1684 -2.6927  0.9643
  793MOL0     H 7008   4.921   7.878   9.974 -3.2496 -5.2092  2.3723
  793MOL0     H 7009   4.868   7.657  10.004  0.4068  1.0112 -1.3272
  793MOL0     H 7010   5.027   7.611  10.056 -0.7365 -0.3516  0.5649
  793MOL0     H 7011   5.004   7.764  10.249  0.4211  0.0352 -0.9687
  793MOL0     H 7012   4.881   7.631  10.262  0.5987  0.1394  0.3600
  793MOL0     H 7013   4.815   7.913  10.174  1.4188 -0.4287  1.3239
  793MOL0     H 7014   4.776   7.845  10.335  1.1519  3.7447  0.6185
  793MOL0     H 7015   4.545   7.628   9.973  2.4836  0.6637  0.2502
  793MOL0     H 7016   4.371   7.747   9.843 -0.2246  1.7980 -0.5984
  793MOL0     H 7017   4.398   8.260   9.716  0.5200 -4.5854 -0.5180
  793MOL0     H 7018   4.305   8.385   9.519 -0.8210  1.6571 -0.0862
  793MOL0     H 7019   4.028   8.643   9.563 -1.8722 -0.8576 -2.3489
  793MOL0     H 7020   4.187   8.587   9.614  1.2156  2.7399 -1.1095
  793MOL0     H 7021   4.230   8.604   9.341  1.9340  0.0121  0.3745
  793MOL0     H 7022   4.068   8.680   9.351  0.4989 -1.6575  1.2312
  793MOL0     H 7023   4.234   8.864   9.366 -1.6488  2.4191  2.1608
  793MOL0     H 7024   4.156   8.837   9.528  0.5746  1.1633 -0.9033
  793MOL0     H 7025   4.323   8.737   9.631  0.1379 -2.1327  0.3645
  793MOL0     H 7026   4.396   8.879   9.537  0.1316 -0.7642 -3.5658
  793MOL0     H 7027   4.454   8.741   9.346  1.1153  0.7052 -0.2363
  793MOL0     H 7028   4.422   8.584   9.426  0.0748  0.0698 -0.1515
  793MOL0     H 7029   4.659   8.681   9.397  0.8202 -1.4333  0.6956
  793MOL0     H 7030   4.624   8.795   9.522 -1.4919  1.9662 -2.3674
  793MOL0     H 7031   4.551   8.603   9.658  0.1737  0.5004 -0.5059
  793MOL0     H 7032   4.722   8.604   9.650  0.1239 -0.9188  1.2635
  793MOL0     H 7033   4.648   8.371   9.604 -1.1894 -1.9055 -1.4046
  793MOL0     H 7034   4.566   8.431   9.465  1.8707  3.0730 -1.0665
  793MOL0     H 7035   3.915   8.330   9.659 -1.0924 -5.3327 -1.7952
  793MOL0     H 7036   3.989   8.193   9.837 -2.7831  2.6113 -3.2469
  793MOL0     H 7037   4.423   8.103  10.087  4.1439  0.7252  3.2689
  793MOL0     H 7038   4.614   7.985  10.203  0.1571  1.2269 -1.2724
  793MOL0     H 7039   5.027   6.808  10.050  0.5647 -0.6633  1.4053
  793MOL0     H 7040   5.151   6.576  10.087 -1.6232 -1.7451 -0.4804
  793MOL0     H 7041   5.315   6.229  10.006  1.6621  3.6388  0.1541
  793MOL0     H 7042   5.396   5.990   9.997 -0.2446 -0.2622 -0.5943
  793MOL0     H 7043   5.598   5.907   9.665  2.9732  1.8022  0.2935
  793MOL0     H 7044   5.580   5.737   9.730  2.5525 -0.9836  0.8644
  793MOL0     H 7045   5.827   5.909   9.744 -0.7474  0.3198  0.5830
  793MOL0     H 7046   5.784   5.785   9.612 -4.4163  0.8886  0.8471
  793MOL0     H 7047   5.789   5.600   9.782  3.3344 -1.8291  3.0017
  793MOL0     H 7048   5.825   5.717   9.905  1.0290  0.1987 -0.5547
  793MOL0     H 7049   6.020   5.580   9.797  1.8375  1.2304  3.0339
  793MOL0     H 7050   6.006   5.688   9.658  1.9693 -1.4869  0.8259
  793MOL0     H 7051   6.165   5.950   9.952  2.9876 -0.9929 -0.5707
  793MOL0     H 7052   5.705   6.083   9.729 -2.2014 -5.0047  0.3739
  793MOL0     H 7053   5.771   6.285   9.687 -0.7752 -0.4163 -2.6171
  793MOL0     H 7054   5.627   6.362   9.623  0.1420  1.2998  0.1447
  793MOL0     H 7055   5.723   6.442   9.757 -0.8703  1.0755 -0.8101
  794MOL0     O 7056   0.288   7.270   4.136 -0.0971  0.1721  0.3401
  794MOL0     C 7057   0.356   7.351   4.081  0.0949  0.0053 -0.8724
  794MOL0     O 7058   0.308   7.464   4.038  0.7205 -0.0741  0.1916
  794MOL0     C 7059   0.193   7.524   4.064  0.1185  0.7128  0.7818
  794MOL0     C 7060   0.201   7.661   4.078 -0.7304  0.1512  0.5563
  794MOL0     C 7061   0.086   7.739   4.122  0.2053 -0.2310  0.1314
  794MOL0     C 7062  -0.035   7.668   4.135 -0.5842  0.1047 -1.0537
  794MOL0     O 7063  -0.150   7.732   4.170  0.0163  0.3038 -0.2440
  794MOL0     C 7064  -0.190   7.838   4.086  0.2822  1.0123  0.4960
  794MOL0     C 7065  -0.328   7.874   4.105 -0.3773  0.9822  0.0487
  794MOL0     C 7066  -0.430   7.771   4.054 -0.0446 -0.1841 -0.0431
  794MOL0     C 7067  -0.575   7.823   4.034  0.4110 -0.1622 -0.6403
  794MOL0     C 7068  -0.632   7.782   3.895  0.0042  0.3221  0.7932
  794MOL0     C 7069  -0.658   7.640   3.878 -0.3260 -1.0762 -0.4283
  794MOL0     C 7070  -0.772   7.590   3.977  0.1714 -0.8919  0.9608
  794MOL0     C 7071  -0.915   7.645   3.926  0.2945  0.0018 -0.9571
  794MOL0     N 7072  -1.022   7.571   3.997  0.2914  0.3830  0.4131
  794MOL0     C 7073  -1.043   7.439   3.959  0.5341 -0.4230 -0.5128
  794MOL0     C 7074  -1.176   7.425   3.982  0.3121  1.0400  0.0872
  794MOL0     C 7075  -1.249   7.309   3.938 -0.1071  0.2174 -0.1765
  794MOL0     C 7076  -1.367   7.319   3.832  0.3913 -0.0261 -0.4612
  794MOL0     C 7077  -1.303   7.344   3.696  0.8426  0.3395 -0.0749
  794MOL0     C 7078  -1.414   7.339   3.592 -0.6758  0.4821  0.0713
  794MOL0     O 7079  -1.381   7.378   3.453  0.0342 -0.1355 -0.1115
  794MOL0     C 7080  -1.288   7.478   3.431 -0.5701  0.0158  0.6241
  794MOL0     C 7081  -1.156   7.445   3.435 -0.4026  0.0568 -0.8547
  794MOL0     C 7082  -1.059   7.531   3.398 -0.7769  0.0304  0.4898
  794MOL0     C 7083  -1.088   7.661   3.366 -0.8688  0.3831  0.5081
  794MOL0     C 7084  -0.983   7.757   3.335  0.8654  1.0188  0.3076
  794MOL0     O 7085  -0.852   7.732   3.356 -0.1463  0.7392  0.2022
  794MOL0     C 7086  -0.746   7.809   3.313  0.5328 -0.3915  0.1145
  794MOL0     C 7087  -0.623   7.813   3.393  0.2006 -0.2766  0.8203
  794MOL0     C 7088  -0.522   7.886   3.356 -0.0466 -0.1298  0.2554
  794MOL0     C 7089  -0.533   7.964   3.239 -1.3090 -1.2564 -0.9113
  794MOL0     O 7090  -0.441   8.050   3.189 -0.2859  0.1129 -0.2231
  794MOL0     C 7091  -0.305   8.050   3.225 -1.1360  0.1524 -0.4434
  794MOL0     C 7092  -0.221   8.101   3.101  0.2326  0.6971 -0.8340
  794MOL0     C 7093  -0.285   8.225   3.042 -0.4876  0.8947 -0.7466
  794MOL0     C 7094  -0.170   8.303   2.969  0.4142 -0.2211 -0.3250
  794MOL0     C 7095  -0.217   8.404   2.864  0.0690  0.2956 -1.1742
  794MOL0     C 7096  -0.128   8.527   2.847 -0.3584 -0.5725 -0.5277
  794MOL0     C 7097   0.018   8.519   2.820  0.5038  0.2637 -0.4547
  794MOL0     C 7098   0.055   8.505   2.676  1.1273  0.0461  0.5242
  794MOL0    Cl 7099   0.015   8.331   2.632 -0.4944  0.0635  0.3050
  794MOL0     C 7100  -0.651   7.976   3.170 -0.0516 -0.2592 -0.5105
  794MOL0     C 7101  -0.751   7.889   3.201 -0.2257  0.0683  0.4691
  794MOL0     O 7102  -1.026   7.861   3.296 -0.2867 -0.0892 -0.0364
  794MOL0     C 7103  -1.228   7.696   3.374  0.0424 -0.0783 -0.1573
  794MOL0     C 7104  -1.327   7.604   3.413 -0.4111 -0.3017  0.9684
  794MOL0     N 7105  -1.231   7.533   4.037  0.5040 -0.4409  0.1997
  794MOL0     N 7106  -1.137   7.628   4.042  0.0615 -0.0122 -0.5522
  794MOL0     C 7107  -0.047   7.524   4.104  0.0845 -0.2372  0.4012
  794MOL0     C 7108   0.071   7.455   4.076 -0.4817  0.0863  0.1616
  794MOL0     C 7109   0.485   7.312   4.021 -0.2567  0.8016  0.2502
  794MOL0     C 7110   0.532   7.377   3.911  0.4344  1.1217 -0.3846
  794MOL0     C 7111   0.653   7.353   3.851 -0.3256  0.7799  0.9627
  794MOL0     C 7112   0.744   7.266   3.906  1.0460  1.0447  1.0088
  794MOL0     O 7113   0.868   7.228   3.845 -0.0427  0.0147 -0.0300
  794MOL0     C 7114   0.982   7.240   3.935 -0.6715  0.3401 -0.1867
  794MOL0     C 7115   1.116   7.206   3.855  0.0129 -0.2490 -0.3473
  794MOL0     C 7116   1.130   7.066   3.803  0.3444  0.6853  0.1021
  794MOL0     C 7117   1.068   7.039   3.663 -1.0485  0.3240 -0.4941
  794MOL0     C 7118   1.127   6.915   3.622  0.8517 -0.5508  0.1191
  794MOL0     C 7119   1.175   6.811   3.585 -0.2007 -0.5710  1.2155
  794MOL0     C 7120   0.699   7.202   4.021  0.2478 -0.0176  1.2291
  794MOL0     C 7121   0.576   7.226   4.087  0.5755 -0.0311  0.3661
  794MOL0     C 7122   0.536   7.120   4.194  0.0003  0.1469  0.0644
  794MOL0     H 7123   0.299   7.708   4.078 -1.9714  2.9617 -0.2661
  794MOL0     H 7124   0.073   7.846   4.130 -1.9300 -0.4621  0.4047
  794MOL0     H 7125  -0.130   7.928   4.100 -0.1809  1.8444 -2.3310
  794MOL0     H 7126  -0.181   7.799   3.985 -3.0248 -2.0598  1.1836
  794MOL0     H 7127  -0.352   7.964   4.048 -3.8883  0.3036  0.2218
  794MOL0     H 7128  -0.355   7.895   4.209 -1.2063  1.9484 -0.3495
  794MOL0     H 7129  -0.424   7.679   4.114  0.7905  0.0948  0.3075
  794MOL0     H 7130  -0.387   7.746   3.957  0.3477 -3.0120  0.7550
  794MOL0     H 7131  -0.634   7.785   4.118  0.1727  3.8475  1.2315
  794MOL0     H 7132  -0.572   7.932   4.040  0.7294 -0.1574 -0.8459
  794MOL0     H 7133  -0.720   7.844   3.875  0.2570  0.4054 -0.1239
  794MOL0     H 7134  -0.575   7.827   3.813  1.0985 -0.8281  0.8957
  794MOL0     H 7135  -0.691   7.634   3.774  0.1226  0.2886 -0.6712
  794MOL0     H 7136  -0.568   7.578   3.886 -1.8503 -3.1252  4.7462
  794MOL0     H 7137  -0.751   7.623   4.079  1.8259  1.3271 -0.0082
  794MOL0     H 7138  -0.781   7.481   3.973 -0.9368 -0.7745 -2.0860
  794MOL0     H 7139  -0.908   7.750   3.958  3.3723  0.1338 -1.6681
  794MOL0     H 7140  -0.932   7.645   3.818  1.8790  1.7947 -1.2675
  794MOL0     H 7141  -0.962   7.377   3.923  0.8015 -0.2301 -0.2415
  794MOL0     H 7142  -1.183   7.229   3.902 -2.0071 -1.7469  0.4597
  794MOL0     H 7143  -1.294   7.285   4.034  0.0010  1.9393  0.3357
  794MOL0     H 7144  -1.402   7.216   3.822  0.3790 -0.3502  2.2195
  794MOL0     H 7145  -1.438   7.397   3.861  2.3749  1.0525  1.8979
  794MOL0     H 7146  -1.222   7.273   3.676  0.1195 -0.0708 -1.7214
  794MOL0     H 7147  -1.255   7.442   3.693  2.2649 -0.3241  0.0132
  794MOL0     H 7148  -1.497   7.406   3.616 -1.2458  0.1776 -0.9666
  794MOL0     H 7149  -1.467   7.243   3.585 -2.5819  1.6093 -3.1999
  794MOL0     H 7150  -1.137   7.340   3.456 -2.2319 -0.2746 -0.7057
  794MOL0     H 7151  -0.957   7.496   3.391  0.0709  2.5156 -0.3606
  794MOL0     H 7152  -0.608   7.774   3.493  0.0107  1.1621  1.4226
  794MOL0     H 7153  -0.431   7.893   3.415  2.5454 -0.2167 -3.3587
  794MOL0     H 7154  -0.291   8.112   3.315  0.7752  0.4034 -0.8730
  794MOL0     H 7155  -0.267   7.949   3.245 -0.3992  0.6426  0.7362
  794MOL0     H 7156  -0.120   8.130   3.132  1.5611 -2.1997 -2.0909
  794MOL0     H 7157  -0.208   8.027   3.022 -1.2057  3.1493 -3.5717
  794MOL0     H 7158  -0.375   8.213   2.981 -0.3767  0.0793 -0.7535
  794MOL0     H 7159  -0.304   8.277   3.136 -2.4623 -0.7375 -0.1546
  794MOL0     H 7160  -0.102   8.225   2.934 -1.1429 -2.4373  1.3041
  794MOL0     H 7161  -0.111   8.359   3.043 -1.5954  0.2835  0.9784
  794MOL0     H 7162  -0.313   8.452   2.888  0.0477 -0.3574  0.1441
  794MOL0     H 7163  -0.216   8.350   2.769 -2.7422 -2.2777  0.0827
  794MOL0     H 7164  -0.175   8.596   2.776 -1.6066 -0.4239  0.4029
  794MOL0     H 7165  -0.137   8.567   2.948  1.1533 -0.8018 -0.2861
  794MOL0     H 7166   0.065   8.438   2.876  1.4357  1.3361  0.3477
  794MOL0     H 7167   0.056   8.614   2.858  0.5752  1.1006 -2.5064
  794MOL0     H 7168   0.001   8.573   2.610  2.0602 -0.7118 -1.0919
  794MOL0     H 7169   0.163   8.522   2.669  1.0780 -0.2729 -2.0072
  794MOL0     H 7170  -0.653   8.046   3.087  3.0459 -1.4040 -1.6884
  794MOL0     H 7171  -0.843   7.891   3.144 -0.2104 -0.9346  0.3917
  794MOL0     H 7172  -1.263   7.798   3.360 -1.1571 -0.6686 -1.7830
  794MOL0     H 7173  -1.426   7.643   3.435 -0.5763 -0.1398 -0.0019
  794MOL0     H 7174  -0.144   7.475   4.111 -0.8398  1.6719  2.1072
  794MOL0     H 7175   0.070   7.346   4.080  3.2945 -0.1841 -1.3730
  794MOL0     H 7176   0.472   7.448   3.856 -0.1942  2.4125  1.8815
  794MOL0     H 7177   0.677   7.387   3.751  5.5909 -1.8200  1.0760
  794MOL0     H 7178   0.976   7.156   4.006 -2.6459  0.7287  0.1746
  794MOL0     H 7179   0.980   7.342   3.973  0.4696  0.9034 -1.5672
  794MOL0     H 7180   1.205   7.231   3.914 -2.0078  0.1866  2.7603
  794MOL0     H 7181   1.130   7.270   3.768  3.7683 -1.2740 -0.6854
  794MOL0     H 7182   1.087   6.992   3.872 -1.4848 -0.8396 -2.4852
  794MOL0     H 7183   1.237   7.042   3.801  0.2197 -0.1899  1.6959
  794MOL0     H 7184   0.959   7.041   3.661 -1.1338  0.8471  1.8230
  794MOL0     H 7185   1.107   7.123   3.605 -2.5488  0.5670 -1.1803
  794MOL0     H 7186   1.229   6.726   3.547  3.2090  0.5799  3.0517
  794MOL0     H 7187   0.763   7.121   4.054 -1.8424 -2.9378 -1.3742
  794MOL0     H 7188   0.436   7.081   4.173 -0.1690  0.9479 -0.7031
  794MOL0     H 7189   0.603   7.033   4.195 -0.4555 -0.3333 -2.4561
  794MOL0     H 7190   0.541   7.150   4.299  0.3925 -2.0228  0.7293
  795MOL0     O 7191   2.997  10.638   7.933 -0.3497  0.5449 -0.5952
  795MOL0     C 7192   2.950  10.707   8.018  0.1429 -0.2720 -0.5335
  795MOL0     O 7193   3.008  10.756   8.128  0.2608  0.1005 -0.3373
  795MOL0     C 7194   3.129  10.703   8.180  0.1852 -0.3079 -0.2316
  795MOL0     C 7195   3.135  10.569   8.207 -0.7747  0.4235 -0.3905
  795MOL0     C 7196   3.252  10.515   8.264 -0.2262  1.0347 -0.7393
  795MOL0     C 7197   3.366  10.591   8.303 -1.3403  0.4815 -0.5180
  795MOL0     O 7198   3.473  10.529   8.356  0.1690 -1.0777  0.1354
  795MOL0     C 7199   3.438  10.436   8.457  0.3122  0.4234 -0.7861
  795MOL0     C 7200   3.551  10.417   8.561 -0.1257  0.6110  0.2712
  795MOL0     C 7201   3.498  10.360   8.692  0.4293  0.0830 -0.4579
  795MOL0     C 7202   3.609  10.295   8.772 -1.0372 -0.8063  0.6983
  795MOL0     C 7203   3.543  10.243   8.903 -0.4878  0.0495 -0.2645
  795MOL0     C 7204   3.647  10.208   9.010  0.0831  0.5182  0.1374
  795MOL0     C 7205   3.594  10.217   9.154  0.3297 -0.4772 -1.4374
  795MOL0     C 7206   3.500  10.103   9.201 -0.2889 -0.1081  0.3376
  795MOL0     N 7207   3.356  10.131   9.175 -0.2334 -0.6717  0.6721
  795MOL0     C 7208   3.264  10.045   9.121 -0.0190  0.2562  0.0235
  795MOL0     C 7209   3.148  10.101   9.132 -0.7437  0.0373  0.4642
  795MOL0     C 7210   3.016  10.048   9.094  0.3161 -0.7083 -0.8558
  795MOL0     C 7211   2.986  10.100   8.949 -0.5087 -0.0666 -0.4799
  795MOL0     C 7212   2.875  10.029   8.887  0.2989 -0.7337 -1.0560
  795MOL0     C 7213   2.748  10.041   8.966  1.0524  0.4966  0.4931
  795MOL0     O 7214   2.730  10.176   9.007  0.3498  0.0560 -1.3466
  795MOL0     C 7215   2.597  10.207   9.030 -0.5380 -0.4455 -0.3743
  795MOL0     C 7216   2.509  10.124   9.095 -0.1258 -0.0408 -0.4907
  795MOL0     C 7217   2.378  10.163   9.127  0.2887 -0.4416 -0.6012
  795MOL0     C 7218   2.343  10.301   9.085 -0.2644  0.2369 -0.7648
  795MOL0     C 7219   2.204  10.340   9.084 -0.2634  0.3192 -0.2415
  795MOL0     O 7220   2.169  10.470   9.036  0.4910 -0.3278  0.2041
  795MOL0     C 7221   2.031  10.488   9.048 -0.0356  1.4594 -0.9811
  795MOL0     C 7222   1.975  10.561   9.157 -0.6252  0.3711  0.2145
  795MOL0     C 7223   1.840  10.589   9.157  0.7205 -0.7454  0.6538
  795MOL0     C 7224   1.760  10.560   9.038 -0.1419  0.0922  0.7914
  795MOL0     O 7225   1.629  10.586   9.017  0.3041 -0.9594 -0.1266
  795MOL0     C 7226   1.557  10.710   9.058 -0.1301  0.7679  0.0643
  795MOL0     C 7227   1.402  10.686   9.049  0.3817  0.6106  0.1657
  795MOL0     C 7228   1.355  10.650   8.907  0.6049 -0.2663 -0.0042
  795MOL0     C 7229   1.206  10.609   8.907  0.1622 -0.2559 -0.6977
  795MOL0     C 7230   1.146  10.556   8.782  0.0581  0.1022  0.7138
  795MOL0     C 7231   1.173  10.638   8.653 -0.6558  0.0804  0.9508
  795MOL0     C 7232   1.116  10.788   8.644 -0.1404  0.1898 -0.6046
  795MOL0     C 7233   0.978  10.808   8.699  0.6805  0.5877  0.0305
  795MOL0    Cl 7234   0.863  10.700   8.611  0.2566 -0.2659  0.0793
  795MOL0     C 7235   1.823  10.494   8.934 -0.8612 -0.5494  0.6052
  795MOL0     C 7236   1.956  10.457   8.936  0.1406 -0.2310 -0.3081
  795MOL0     O 7237   2.128  10.254   9.122 -0.2436  0.4399  0.0601
  795MOL0     C 7238   2.441  10.394   9.038 -0.6040  1.4714 -0.2208
  795MOL0     C 7239   2.572  10.342   9.016 -0.1947 -0.4713  0.6723
  795MOL0     N 7240   3.166  10.224   9.191  0.1559  0.4983 -0.1394
  795MOL0     N 7241   3.290  10.234   9.232  0.0317 -0.9089  0.2742
  795MOL0     C 7242   3.364  10.725   8.259 -0.6053 -0.3927  0.1391
  795MOL0     C 7243   3.246  10.777   8.201  0.5364 -0.7111  0.6047
  795MOL0     C 7244   2.811  10.755   7.998  1.3144  0.3653  0.0825
  795MOL0     C 7245   2.752  10.769   7.870  0.0203 -1.2755 -0.3377
  795MOL0     C 7246   2.619  10.815   7.854  0.2118 -0.1678 -0.6939
  795MOL0     C 7247   2.528  10.836   7.954 -0.4920  0.8378 -0.1353
  795MOL0     O 7248   2.410  10.896   7.919 -0.0655 -0.1362 -0.0558
  795MOL0     C 7249   2.324  10.943   8.018  0.1035  0.6049 -0.9009
  795MOL0     C 7250   2.248  10.826   8.099  0.4392 -0.4730 -0.0647
  795MOL0     C 7251   2.164  10.744   7.998  0.4662  0.1554  0.3618
  795MOL0     C 7252   2.232  10.624   7.926 -0.5182 -0.3053  0.7477
  795MOL0     C 7253   2.294  10.520   8.013 -0.1579  0.5112  0.0969
  795MOL0     C 7254   2.375  10.456   8.072 -0.0873 -0.4138  0.2001
  795MOL0     C 7255   2.570  10.807   8.086  0.3955  0.8525  0.0672
  795MOL0     C 7256   2.712  10.775   8.101  0.1560 -0.3247  0.1226
  795MOL0     C 7257   2.754  10.751   8.241 -0.7594 -0.7342 -0.4175
  795MOL0     H 7258   3.055  10.501   8.179 -0.1006  0.1507 -1.7662
  795MOL0     H 7259   3.268  10.408   8.273 -1.7405  0.1346 -5.6142
  795MOL0     H 7260   3.346  10.463   8.510  0.0156  0.6635 -1.4145
  795MOL0     H 7261   3.410  10.335   8.425 -0.0907  0.6526 -1.1589
  795MOL0     H 7262   3.619  10.500   8.583  1.9415 -0.3400 -1.9966
  795MOL0     H 7263   3.613  10.342   8.511 -1.1430  0.5540 -0.9614
  795MOL0     H 7264   3.415  10.291   8.675 -1.0275  1.9311 -1.2422
  795MOL0     H 7265   3.441  10.442   8.736  0.2378 -0.5022  0.4014
  795MOL0     H 7266   3.664  10.213   8.725  2.6578  0.4575  2.4477
  795MOL0     H 7267   3.687  10.368   8.793  2.8606 -3.8294 -1.7702
  795MOL0     H 7268   3.476  10.321   8.939  1.5332  1.4499  0.7018
  795MOL0     H 7269   3.495  10.151   8.870  0.5437 -1.1109  1.3246
  795MOL0     H 7270   3.687  10.107   8.997  0.2428  0.2247  2.4493
  795MOL0     H 7271   3.727  10.282   9.007 -0.8682  1.6772  1.6781
  795MOL0     H 7272   3.547  10.314   9.173  0.5108 -0.3949 -1.4161
  795MOL0     H 7273   3.683  10.208   9.216 -2.5939  1.9201  3.7487
  795MOL0     H 7274   3.537  10.006   9.166  1.4337 -0.4714  2.8577
  795MOL0     H 7275   3.506  10.086   9.309 -1.0001 -0.2948  0.3505
  795MOL0     H 7276   3.291   9.958   9.062  3.3299  1.5793 -0.6201
  795MOL0     H 7277   3.024   9.939   9.098  3.5499 -0.5593 -0.5605
  795MOL0     H 7278   2.937  10.079   9.164 -2.2033 -1.7739 -3.0499
  795MOL0     H 7279   2.984  10.209   8.946  2.9869  0.0932 -1.2901
  795MOL0     H 7280   3.077  10.101   8.889  0.8333  3.2739  1.3105
  795MOL0     H 7281   2.905   9.926   8.866 -2.5999 -1.8262 -0.3667
  795MOL0     H 7282   2.864  10.085   8.793  3.2537  2.2001  0.1390
  795MOL0     H 7283   2.739   9.970   9.048  0.5620  2.1457  1.9262
  795MOL0     H 7284   2.668  10.007   8.900  1.4776  0.1522  0.1531
  795MOL0     H 7285   2.543  10.027   9.130 -2.8131 -0.4123  1.3152
  795MOL0     H 7286   2.313  10.092   9.175  1.6351 -0.2853  1.5661
  795MOL0     H 7287   2.035  10.592   9.242 -1.1082  0.2891  0.5915
  795MOL0     H 7288   1.782  10.643   9.230 -0.7979  1.1298 -1.8020
  795MOL0     H 7289   1.584  10.727   9.163 -0.0069 -2.3377  0.6375
  795MOL0     H 7290   1.582  10.795   8.994 -2.8286  2.7233  1.4064
  795MOL0     H 7291   1.380  10.599   9.111  0.1191 -1.6767 -2.8722
  795MOL0     H 7292   1.345  10.767   9.094  0.6028  2.3583 -2.4605
  795MOL0     H 7293   1.370  10.729   8.832 -2.2868 -1.6868 -2.2845
  795MOL0     H 7294   1.409  10.563   8.868  0.0467 -0.0120 -1.3868
  795MOL0     H 7295   1.157  10.703   8.934  1.4851  0.0735  0.6607
  795MOL0     H 7296   1.181  10.538   8.986 -2.5740  1.3511  0.0051
  795MOL0     H 7297   1.039  10.549   8.805  0.2683 -2.0095  1.2334
  795MOL0     H 7298   1.198  10.463   8.759  1.3323  1.2087 -1.1726
  795MOL0     H 7299   1.282  10.645   8.641 -0.6442 -1.0250  0.3195
  795MOL0     H 7300   1.116  10.596   8.570 -1.7358  1.7418  0.8106
  795MOL0     H 7301   1.104  10.823   8.541 -1.6680  0.3861 -0.3726
  795MOL0     H 7302   1.195  10.850   8.689 -2.5205  4.5510 -1.9121
  795MOL0     H 7303   0.975  10.783   8.806  1.2425 -1.7564 -0.4319
  795MOL0     H 7304   0.966  10.916   8.704  1.2008  0.6095  1.2808
  795MOL0     H 7305   1.774  10.457   8.845  1.8849 -0.3715 -1.1133
  795MOL0     H 7306   2.007  10.416   8.849  1.2851  0.3745  0.0512
  795MOL0     H 7307   2.423  10.501   9.038  1.5136  1.8917  0.7003
  795MOL0     H 7308   2.654  10.413   9.008 -0.7209  0.0503 -0.3459
  795MOL0     H 7309   3.452  10.787   8.270  0.3516 -1.8628  1.2289
  795MOL0     H 7310   3.244  10.883   8.175 -2.1722  0.4683  4.6123
  795MOL0     H 7311   2.809  10.751   7.780  1.0167  0.7795 -0.1876
  795MOL0     H 7312   2.575  10.814   7.755  0.2044 -2.1168 -0.6932
  795MOL0     H 7313   2.246  11.002   7.968 -2.4944 -2.0980 -0.3388
  795MOL0     H 7314   2.376  11.006   8.091 -1.3756 -0.4888  1.1993
  795MOL0     H 7315   2.185  10.881   8.169  1.8567  0.6148  0.4145
  795MOL0     H 7316   2.313  10.762   8.160  1.1643 -1.0046 -1.3395
  795MOL0     H 7317   2.133  10.828   7.935 -3.4208 -0.5732  1.0217
  795MOL0     H 7318   2.073  10.719   8.054  1.8973 -1.3055  2.1740
  795MOL0     H 7319   2.161  10.569   7.864 -0.3254 -2.3967  2.2655
  795MOL0     H 7320   2.299  10.672   7.854 -3.7699 -1.5367 -3.5430
  795MOL0     H 7321   2.440  10.385   8.120 -1.2436 -4.1633 -3.1437
  795MOL0     H 7322   2.506  10.811   8.174  3.5825 -0.2568  2.6397
  795MOL0     H 7323   2.823  10.667   8.257 -0.4756  0.0348  3.0058
  795MOL0     H 7324   2.807  10.843   8.268 -1.7733  0.6811 -2.8528
  795MOL0     H 7325   2.669  10.717   8.301 -1.1878  4.9062  2.8326
  796MOL0     O 7326   0.380   7.835   7.267 -0.6688  0.5026  0.5094
  796MOL0     C 7327   0.360   7.901   7.373  0.1593  0.5977  1.1768
  796MOL0     O 7328   0.387   7.844   7.496 -0.9172  0.2495 -1.1888
  796MOL0     C 7329   0.419   7.712   7.509 -0.2916  0.1554  0.8417
  796MOL0     C 7330   0.324   7.630   7.562 -0.5142  0.1733 -0.8831
  796MOL0     C 7331   0.354   7.502   7.605  1.0282  0.2785  0.1579
  796MOL0     C 7332   0.489   7.463   7.597  0.5982  0.3901 -0.0689
  796MOL0     O 7333   0.514   7.348   7.663 -0.9052 -0.3675  0.5149
  796MOL0     C 7334   0.644   7.313   7.719  0.6508  0.2570  0.6315
  796MOL0     C 7335   0.714   7.203   7.641 -0.5138  0.0551  0.7527
  796MOL0     C 7336   0.648   7.062   7.629  0.0833 -0.5693  0.9669
  796MOL0     C 7337   0.494   7.047   7.632 -0.6897  1.5021 -0.3118
  796MOL0     C 7338   0.470   6.896   7.610  0.9115 -0.5486  0.9577
  796MOL0     C 7339   0.492   6.817   7.736  0.8362 -0.2758 -0.2794
  796MOL0     C 7340   0.380   6.855   7.835 -0.2015 -0.7676 -0.0631
  796MOL0     C 7341   0.330   6.732   7.907 -0.0961  0.1705  0.3919
  796MOL0     N 7342   0.220   6.768   8.000 -1.0410 -0.1375 -0.6231
  796MOL0     C 7343   0.096   6.733   7.979 -0.3455 -0.6584  0.1688
  796MOL0     C 7344   0.015   6.779   8.079 -0.5681  0.1694 -0.6084
  796MOL0     C 7345  -0.121   6.732   8.117 -0.4259 -0.6964  0.4151
  796MOL0     C 7346  -0.177   6.788   8.248 -0.1757  0.3505  0.3967
  796MOL0     C 7347  -0.319   6.740   8.264  0.4878  0.8119 -0.2955
  796MOL0     C 7348  -0.377   6.791   8.402 -1.3378 -0.2402 -0.2682
  796MOL0     O 7349  -0.303   6.765   8.521 -0.5374 -0.0145 -0.2023
  796MOL0     C 7350  -0.277   6.870   8.609 -0.6927  0.1358  0.7884
  796MOL0     C 7351  -0.342   6.988   8.627 -0.1186  0.2131  0.6281
  796MOL0     C 7352  -0.287   7.080   8.714 -0.3925  0.2066  1.1309
  796MOL0     C 7353  -0.179   7.055   8.796 -0.2130 -0.3555  1.0948
  796MOL0     C 7354  -0.117   7.151   8.898  0.9215  1.3726  0.1861
  796MOL0     O 7355  -0.194   7.251   8.944 -0.0411 -0.2913  0.2874
  796MOL0     C 7356  -0.161   7.338   9.033 -0.0694 -0.9734 -0.4591
  796MOL0     C 7357  -0.063   7.325   9.135 -0.3097 -0.8430  0.5677
  796MOL0     C 7358  -0.034   7.425   9.228 -0.0999  0.1415  0.1078
  796MOL0     C 7359  -0.124   7.543   9.227  0.7156 -0.3658  0.0179
  796MOL0     O 7360  -0.095   7.665   9.281 -0.2349  0.0756 -0.0463
  796MOL0     C 7361  -0.006   7.666   9.406 -0.1102 -0.3440 -0.1638
  796MOL0     C 7362  -0.065   7.584   9.527 -0.2669 -0.1819 -0.3021
  796MOL0     C 7363   0.033   7.544   9.645 -0.5432  0.5931 -0.7675
  796MOL0     C 7364   0.144   7.454   9.609 -0.8345 -0.0920  0.1221
  796MOL0     C 7365   0.089   7.310   9.569 -0.4107 -0.3454 -0.1172
  796MOL0     C 7366   0.190   7.190   9.573  0.7126  0.0709 -0.3832
  796MOL0     C 7367   0.300   7.203   9.471  0.8552  0.1651 -0.0867
  796MOL0     C 7368   0.374   7.065   9.424  0.1239  1.0155  0.3188
  796MOL0    Cl 7369   0.467   6.983   9.556  0.3748  0.2841  0.0506
  796MOL0     C 7370  -0.244   7.542   9.153  1.0269  0.0781 -0.5045
  796MOL0     C 7371  -0.259   7.447   9.052 -0.4939 -1.0578 -0.0346
  796MOL0     O 7372  -0.000   7.134   8.931  0.2806 -0.4446 -0.8354
  796MOL0     C 7373  -0.121   6.932   8.779 -0.1320  0.2974 -0.2944
  796MOL0     C 7374  -0.165   6.844   8.692 -0.0016  1.0891  0.1162
  796MOL0     N 7375   0.103   6.839   8.161 -0.4325 -0.4516 -0.2604
  796MOL0     N 7376   0.222   6.839   8.116  0.0665  0.0362  0.0013
  796MOL0     C 7377   0.583   7.538   7.539  1.1476 -0.1059 -1.6488
  796MOL0     C 7378   0.549   7.666   7.486 -1.1143  0.1203 -0.3560
  796MOL0     C 7379   0.322   8.040   7.366  0.6165  0.3181 -0.4698
  796MOL0     C 7380   0.296   8.104   7.487 -1.1922  0.2530  0.8583
  796MOL0     C 7381   0.279   8.237   7.495 -0.2863  0.4343  0.2794
  796MOL0     C 7382   0.288   8.317   7.374  0.1311 -0.2469  0.0908
  796MOL0     O 7383   0.265   8.454   7.388  0.1034 -0.3766 -0.3311
  796MOL0     C 7384   0.212   8.532   7.276  0.1315  0.1708 -0.1112
  796MOL0     C 7385   0.054   8.525   7.291 -0.3600 -0.3395 -0.4533
  796MOL0     C 7386  -0.010   8.627   7.387  0.3077  0.2501  0.4786
  796MOL0     C 7387  -0.168   8.638   7.388  0.0783 -0.2372  0.6151
  796MOL0     C 7388  -0.212   8.508   7.438 -0.5576  0.0007 -0.3577
  796MOL0     C 7389  -0.213   8.402   7.504  0.6562 -0.6478 -0.1447
  796MOL0     C 7390   0.293   8.252   7.250  0.7136  0.0319 -0.9982
  796MOL0     C 7391   0.311   8.116   7.244  0.9913  0.6503  0.1238
  796MOL0     C 7392   0.321   8.057   7.102 -0.5611 -0.4598  0.0355
  796MOL0     H 7393   0.228   7.674   7.587 -0.2605 -0.7154  1.9720
  796MOL0     H 7394   0.286   7.429   7.647  0.2979  0.5869 -0.4609
  796MOL0     H 7395   0.718   7.394   7.716  0.8706  0.0441 -2.1509
  796MOL0     H 7396   0.617   7.281   7.820 -1.2311  0.0709  0.1003
  796MOL0     H 7397   0.809   7.176   7.689 -0.0131 -0.9052 -0.7172
  796MOL0     H 7398   0.748   7.234   7.542  1.6892 -2.0070  0.7757
  796MOL0     H 7399   0.687   7.016   7.720 -1.6146  0.0119  2.0329
  796MOL0     H 7400   0.682   7.007   7.541  0.3341  1.4742 -0.2746
  796MOL0     H 7401   0.452   7.086   7.725 -1.2824  0.8977 -0.3137
  796MOL0     H 7402   0.447   7.099   7.549 -0.7684 -1.5167 -2.3300
  796MOL0     H 7403   0.372   6.890   7.560  1.9073 -2.1573 -0.9463
  796MOL0     H 7404   0.539   6.851   7.538 -1.1559 -0.3807 -1.2785
  796MOL0     H 7405   0.482   6.712   7.708 -0.4851  0.2076 -1.7608
  796MOL0     H 7406   0.593   6.837   7.772  1.1172  3.5210 -2.5966
  796MOL0     H 7407   0.298   6.909   7.786  0.9757  2.5987  1.3249
  796MOL0     H 7408   0.412   6.927   7.911  0.8187 -0.8809 -0.3710
  796MOL0     H 7409   0.298   6.662   7.829  2.0278  0.9100 -1.2431
  796MOL0     H 7410   0.409   6.688   7.967 -1.3140  3.0357  4.5909
  796MOL0     H 7411   0.053   6.673   7.899  0.7222 -2.5968  0.9792
  796MOL0     H 7412  -0.185   6.749   8.030 -0.0148  2.9614  0.7047
  796MOL0     H 7413  -0.114   6.624   8.135  1.8397 -0.5763  0.4201
  796MOL0     H 7414  -0.113   6.754   8.330 -1.7556 -1.4030  0.9833
  796MOL0     H 7415  -0.178   6.897   8.253 -3.6360  0.4818 -0.6419
  796MOL0     H 7416  -0.327   6.631   8.256 -1.2699  1.0065 -2.0360
  796MOL0     H 7417  -0.379   6.774   8.179  1.1505  2.7612 -0.0449
  796MOL0     H 7418  -0.476   6.746   8.414 -0.8976 -1.4341 -0.8999
  796MOL0     H 7419  -0.383   6.898   8.383  4.3219  0.6680  1.1834
  796MOL0     H 7420  -0.429   7.029   8.576  0.3341  2.0626  1.2627
  796MOL0     H 7421  -0.338   7.174   8.729 -1.5993 -0.5217  1.7423
  796MOL0     H 7422   0.012   7.248   9.143 -1.2009 -1.5872  2.5279
  796MOL0     H 7423   0.066   7.412   9.268  1.4678  1.7630 -2.9286
  796MOL0     H 7424   0.096   7.628   9.391  1.0755  1.2497  2.9926
  796MOL0     H 7425   0.007   7.768   9.444 -1.1783 -0.4136  0.4301
  796MOL0     H 7426  -0.148   7.645   9.565  0.1104  1.9248 -2.6202
  796MOL0     H 7427  -0.105   7.493   9.483  3.0778 -0.7666 -2.4586
  796MOL0     H 7428   0.051   7.639   9.695 -3.7463  0.9424 -0.0572
  796MOL0     H 7429  -0.025   7.486   9.717  3.2561  0.5978  2.6401
  796MOL0     H 7430   0.211   7.450   9.696 -0.4015 -3.4637 -0.2371
  796MOL0     H 7431   0.210   7.497   9.533 -0.0713 -0.5172  0.5278
  796MOL0     H 7432   0.054   7.326   9.467  0.2106 -0.3648 -0.3390
  796MOL0     H 7433   0.010   7.286   9.640 -0.1938 -1.2536 -0.1771
  796MOL0     H 7434   0.235   7.184   9.673  2.3366 -1.2895 -1.1557
  796MOL0     H 7435   0.144   7.091   9.561  2.0340 -0.2136 -4.2872
  796MOL0     H 7436   0.389   7.248   9.516  5.0141 -4.2131 -2.8792
  796MOL0     H 7437   0.267   7.262   9.384  0.0755  4.1673  2.6584
  796MOL0     H 7438   0.308   6.984   9.391  1.8987  0.1372 -1.3024
  796MOL0     H 7439   0.446   7.088   9.346  0.1932  2.0792  0.6871
  796MOL0     H 7440  -0.309   7.628   9.165  0.9545  0.1204 -1.1766
  796MOL0     H 7441  -0.344   7.442   8.985 -3.2359 -4.0205  3.2407
  796MOL0     H 7442  -0.030   6.921   8.837  2.2593  3.5538 -2.9602
  796MOL0     H 7443  -0.127   6.743   8.685  1.1101  1.4693  0.3830
  796MOL0     H 7444   0.683   7.495   7.543  0.2056 -2.4138  2.6584
  796MOL0     H 7445   0.634   7.724   7.450  1.7338 -1.6672  2.8194
  796MOL0     H 7446   0.306   8.043   7.576 -0.0194  1.0637  1.3074
  796MOL0     H 7447   0.266   8.293   7.587 -0.8679 -0.1329  0.5551
  796MOL0     H 7448   0.257   8.505   7.180  3.3247  1.2617  0.9506
  796MOL0     H 7449   0.243   8.637   7.286  0.6558  0.3419 -2.6778
  796MOL0     H 7450   0.032   8.426   7.331  1.4141  0.0708  1.7374
  796MOL0     H 7451   0.015   8.543   7.191 -0.1968  0.9017 -0.3097
  796MOL0     H 7452   0.025   8.731   7.382  0.0136  0.3262 -0.1314
  796MOL0     H 7453   0.012   8.588   7.487 -4.6167 -3.3751  0.5004
  796MOL0     H 7454  -0.201   8.717   7.455 -1.2478  1.1899 -1.5880
  796MOL0     H 7455  -0.196   8.657   7.284  3.6721 -1.4525 -0.7326
  796MOL0     H 7456  -0.216   8.309   7.556  1.9437 -0.0026  1.1714
  796MOL0     H 7457   0.291   8.296   7.151  1.0805  0.1103 -0.9692
  796MOL0     H 7458   0.307   8.133   7.024 -0.7067  2.5610  2.7733
  796MOL0     H 7459   0.420   8.019   7.074  0.2459  1.2436  0.3996
  796MOL0     H 7460   0.249   7.976   7.092 -0.7932 -1.2215  5.0438
  797MOL0     O 7461  10.303   1.893   0.195  0.6629  0.3288  0.5610
  797MOL0     C 7462  10.420   1.878   0.145  1.1042 -0.2556 -0.1651
  797MOL0     O 7463  10.496   1.983   0.105  0.2469 -0.1385  0.1592
  797MOL0     C 7464  10.456   2.112   0.124 -1.3041 -0.8294  0.8250
  797MOL0     C 7465  10.368   2.180   0.034 -0.0851 -0.0174 -0.1593
  797MOL0     C 7466  10.318   2.306   0.058  0.0916 -0.7529  0.7342
  797MOL0     C 7467  10.359   2.379   0.165 -0.6502 -0.0003 -0.5494
  797MOL0     O 7468  10.290   2.500   0.191 -0.7754  0.2095 -0.1968
  797MOL0     C 7469  10.294   2.569   0.316  0.2224  0.4823  0.2926
  797MOL0     C 7470  10.217   2.705   0.304 -0.4815 -0.3740 -0.0321
  797MOL0     C 7471  10.279   2.793   0.202  0.6457  0.4998 -0.3224
  797MOL0     C 7472  10.232   2.938   0.208  0.4675 -0.0689 -0.1459
  797MOL0     C 7473  10.286   3.010   0.327 -0.6648 -0.5714 -0.5811
  797MOL0     C 7474  10.291   3.165   0.306 -0.6648 -0.2135 -0.2304
  797MOL0     C 7475  10.362   3.224   0.423 -0.5233  0.2801  0.1956
  797MOL0     C 7476  10.287   3.227   0.558  0.2716 -0.2267 -0.1228
  797MOL0     N 7477  10.343   3.338   0.640  0.4766 -0.1392  0.3983
  797MOL0     C 7478  10.277   3.458   0.663 -0.5250  0.9374 -0.1306
  797MOL0     C 7479  10.367   3.532   0.724 -0.4673 -0.0826  0.2406
  797MOL0     C 7480  10.362   3.682   0.726  0.4226 -0.6499 -0.3369
  797MOL0     C 7481  10.325   3.733   0.580  0.1936 -0.9764 -0.4707
  797MOL0     C 7482  10.441   3.712   0.486  0.3045  0.2759  0.1492
  797MOL0     C 7483  10.398   3.748   0.337 -0.5724  0.1419 -0.2678
  797MOL0     O 7484  10.510   3.786   0.266  0.5448  0.2367  0.5622
  797MOL0     C 7485  10.561   3.913   0.277 -0.2208 -1.3816  1.1439
  797MOL0     C 7486  10.527   4.019   0.360  0.5288  0.4215  0.6546
  797MOL0     C 7487  10.601   4.137   0.372 -0.3106 -0.0378  0.2899
  797MOL0     C 7488  10.714   4.152   0.294 -0.1748 -0.0316  0.1806
  797MOL0     C 7489  10.790   4.282   0.294  0.2192  0.3664 -0.1663
  797MOL0     O 7490  10.747   4.382   0.378 -0.3696 -0.5122 -0.3192
  797MOL0     C 7491  10.822   4.506   0.379  0.3793 -0.3392  0.3120
  797MOL0     C 7492  10.966   4.515   0.378  1.0041 -0.0633 -0.2913
  797MOL0     C 7493  11.024   4.638   0.387 -0.1639 -0.3594  0.1896
  797MOL0     C 7494  10.964   4.762   0.372  0.2629 -0.5917  0.9893
  797MOL0     O 7495  11.025   4.886   0.352  0.8956  0.6772 -0.4775
  797MOL0     C 7496  10.990   4.992   0.440 -0.0166 -0.4533 -0.1772
  797MOL0     C 7497  11.023   5.129   0.362  0.4932 -0.2823 -0.3707
  797MOL0     C 7498  10.998   5.251   0.460  0.4573  0.2144 -0.7157
  797MOL0     C 7499  11.065   5.368   0.389 -0.1813 -0.7408  0.4532
  797MOL0     C 7500  11.024   5.496   0.457  0.3512 -0.2526 -0.6344
  797MOL0     C 7501  11.057   5.626   0.385  0.1959 -0.3675  0.8879
  797MOL0     C 7502  11.200   5.637   0.335  0.2742  1.4961  0.2953
  797MOL0     C 7503  11.241   5.783   0.292 -0.2644  0.4535 -0.0173
  797MOL0    Cl 7504  11.176   5.903   0.416 -0.9732 -0.2465  0.2059
  797MOL0     C 7505  10.822   4.752   0.348  0.1998 -0.0975  0.0570
  797MOL0     C 7506  10.757   4.628   0.361  0.8504 -0.5280 -0.2030
  797MOL0     O 7507  10.855   4.295   0.192 -0.5842  0.0347 -0.3613
  797MOL0     C 7508  10.754   4.044   0.211 -0.3801 -0.6880 -0.5161
  797MOL0     C 7509  10.679   3.923   0.207 -0.4128 -0.2395  0.0274
  797MOL0     N 7510  10.482   3.466   0.741 -0.2124  0.5241  0.2446
  797MOL0     N 7511  10.465   3.344   0.700  0.2958 -0.6588 -0.4699
  797MOL0     C 7512  10.460   2.321   0.250 -0.0191  0.3884 -0.0619
  797MOL0     C 7513  10.508   2.192   0.230 -0.1619  1.2754  0.2249
  797MOL0     C 7514  10.459   1.732   0.131 -0.1783 -0.4518  0.4597
  797MOL0     C 7515  10.367   1.626   0.172 -0.3472 -0.2999 -1.0487
  797MOL0     C 7516  10.395   1.492   0.167 -0.0687  0.4662  0.0486
  797MOL0     C 7517  10.517   1.441   0.119 -0.4182  0.4605  0.3784
  797MOL0     O 7518  10.540   1.301   0.116  1.1163  0.6287  0.0710
  797MOL0     C 7519  10.642   1.259   0.024  0.2437 -0.1799  0.3384
  797MOL0     C 7520  10.616   1.108  -0.006 -0.2787 -0.4916  0.0460
  797MOL0     C 7521  10.743   1.061  -0.087 -0.2011  1.2234 -0.3573
  797MOL0     C 7522  10.733   0.918  -0.139 -1.0938 -0.3958  0.0967
  797MOL0     C 7523  10.709   0.824  -0.024  0.7635 -0.4092  0.3633
  797MOL0     C 7524  10.689   0.760   0.077  0.9386 -0.0744 -0.1766
  797MOL0     C 7525  10.615   1.544   0.087 -0.9956  0.0849  0.1421
  797MOL0     C 7526  10.584   1.682   0.083  0.0328 -0.0240 -0.5844
  797MOL0     C 7527  10.686   1.780   0.041 -0.0457 -0.3835 -0.1130
  797MOL0     H 7528  10.337   2.139  -0.061  0.1094  0.1005 -0.2746
  797MOL0     H 7529  10.254   2.359  -0.012  2.0469 -0.4708 -0.9372
  797MOL0     H 7530  10.231   2.516   0.387 -0.9228  1.3256 -0.0691
  797MOL0     H 7531  10.392   2.591   0.360  2.4290 -1.9659 -2.8540
  797MOL0     H 7532  10.231   2.755   0.400 -0.7916 -0.2929 -0.0270
  797MOL0     H 7533  10.110   2.688   0.288 -1.2553  2.3578  1.7052
  797MOL0     H 7534  10.257   2.738   0.111  1.5658 -1.4540  0.5730
  797MOL0     H 7535  10.387   2.786   0.221  0.3410 -3.2601  0.7337
  797MOL0     H 7536  10.277   2.982   0.119 -0.5222 -0.8733 -1.0613
  797MOL0     H 7537  10.124   2.953   0.208  0.6415  1.3221 -0.3528
  797MOL0     H 7538  10.238   2.989   0.423 -1.6315 -0.2362 -0.9775
  797MOL0     H 7539  10.390   2.982   0.341 -0.4140  1.1107  1.3553
  797MOL0     H 7540  10.352   3.182   0.217 -0.1768 -3.6134 -0.6929
  797MOL0     H 7541  10.194   3.214   0.301  0.2013  1.7224  1.0498
  797MOL0     H 7542  10.391   3.327   0.399  0.4108 -0.2795 -1.2539
  797MOL0     H 7543  10.458   3.174   0.443  0.0880  1.3318 -0.0141
  797MOL0     H 7544  10.185   3.253   0.531 -0.3077 -1.2870  0.9528
  797MOL0     H 7545  10.286   3.134   0.615  0.3251 -0.2457 -0.1521
  797MOL0     H 7546  10.177   3.484   0.629 -1.0427 -3.2247 -2.4564
  797MOL0     H 7547  10.284   3.718   0.795  0.0231 -3.4698  0.8332
  797MOL0     H 7548  10.451   3.722   0.775 -0.7896  2.3075 -0.3388
  797MOL0     H 7549  10.235   3.690   0.535 -0.7666  0.8375 -0.3914
  797MOL0     H 7550  10.311   3.842   0.577  3.1114 -0.5377 -0.8451
  797MOL0     H 7551  10.481   3.610   0.480  1.8539  0.8531  0.1430
  797MOL0     H 7552  10.518   3.784   0.515  1.2241 -1.1089  1.2998
  797MOL0     H 7553  10.337   3.838   0.341  1.1753  1.3245  1.7417
  797MOL0     H 7554  10.347   3.669   0.279  2.0836 -2.0506  0.1696
  797MOL0     H 7555  10.446   4.002   0.430  1.5520 -0.6067  1.6540
  797MOL0     H 7556  10.560   4.214   0.437 -0.2097 -0.2345  0.5910
  797MOL0     H 7557  11.037   4.433   0.375  2.5601  1.2466 -0.6929
  797MOL0     H 7558  11.132   4.645   0.399  0.1956  0.0145 -2.6293
  797MOL0     H 7559  10.884   4.977   0.461 -0.1637  0.5498 -0.1862
  797MOL0     H 7560  11.038   4.995   0.539 -0.8566 -1.0693  0.2620
  797MOL0     H 7561  11.130   5.118   0.340  0.2648 -0.9399 -1.1962
  797MOL0     H 7562  10.965   5.146   0.271 -1.3617 -1.9304  0.4284
  797MOL0     H 7563  10.892   5.250   0.489  0.5749 -1.3204 -0.2102
  797MOL0     H 7564  11.056   5.233   0.552  0.7020  1.5540 -0.5941
  797MOL0     H 7565  11.028   5.366   0.286 -0.4497  0.4224  0.5108
  797MOL0     H 7566  11.174   5.366   0.382 -0.2322  0.0329 -1.1590
  797MOL0     H 7567  11.081   5.495   0.550  1.8819  1.1454 -1.5146
  797MOL0     H 7568  10.922   5.494   0.496  0.3399  1.7806 -0.4824
  797MOL0     H 7569  11.008   5.627   0.287  1.7128  0.6430  0.0886
  797MOL0     H 7570  11.014   5.707   0.443 -2.8226 -2.7068  2.2007
  797MOL0     H 7571  11.219   5.566   0.254 -2.3086 -0.0450  0.9245
  797MOL0     H 7572  11.265   5.612   0.419  0.0666  0.7346  0.2330
  797MOL0     H 7573  11.348   5.792   0.270 -0.2119  0.1780  0.1178
  797MOL0     H 7574  11.201   5.799   0.192 -3.2123 -0.3202  0.9349
  797MOL0     H 7575  10.758   4.840   0.341  4.2583  3.2004  0.3159
  797MOL0     H 7576  10.648   4.633   0.356  0.9196  0.4468 -1.5947
  797MOL0     H 7577  10.854   4.056   0.169  0.5469  1.4346  1.9949
  797MOL0     H 7578  10.705   3.847   0.134 -0.4072 -0.8301  0.6283
  797MOL0     H 7579  10.498   2.375   0.336 -2.1931  1.3355  0.3681
  797MOL0     H 7580  10.582   2.146   0.295 -0.5725 -2.8023 -1.8464
  797MOL0     H 7581  10.270   1.652   0.212 -0.5609 -3.9273  1.1914
  797MOL0     H 7582  10.309   1.433   0.197  0.5185  0.6669  2.2907
  797MOL0     H 7583  10.735   1.268   0.081 -0.4168  3.3220  1.1219
  797MOL0     H 7584  10.633   1.325  -0.063  2.0006  0.2715  0.4731
  797MOL0     H 7585  10.519   1.106  -0.055 -0.6018  0.7295  0.6073
  797MOL0     H 7586  10.616   1.062   0.093 -2.0684 -0.5406  0.0492
  797MOL0     H 7587  10.831   1.070  -0.023  0.3802 -1.6771 -0.5808
  797MOL0     H 7588  10.762   1.130  -0.169  1.3337 -0.3114 -1.3650
  797MOL0     H 7589  10.653   0.902  -0.211 -1.1867  1.7574 -0.3561
  797MOL0     H 7590  10.823   0.889  -0.193 -1.9570 -0.7405 -1.1891
  797MOL0     H 7591  10.660   0.708   0.166  3.9791 -1.0283  0.3767
  797MOL0     H 7592  10.709   1.513   0.043 -0.8910  2.7520 -1.7965
  797MOL0     H 7593  10.782   1.732   0.020  0.6218  0.2993  1.2491
  797MOL0     H 7594  10.661   1.849  -0.040 -1.0368 -0.3379  0.2213
  797MOL0     H 7595  10.707   1.846   0.126 -1.9555  1.1342 -0.7596
  798MOL0     O 7596   9.761   6.129   0.705  0.4212 -0.3940 -0.8580
  798MOL0     C 7597   9.856   6.161   0.779 -0.4462 -1.3918  0.3647
  798MOL0     O 7598   9.950   6.082   0.833 -0.3762 -0.4953  0.9094
  798MOL0     C 7599   9.935   5.946   0.820 -0.2776  0.8396 -0.1502
  798MOL0     C 7600   9.837   5.885   0.891  0.9453  0.8721  0.0133
  798MOL0     C 7601   9.829   5.735   0.892  0.2218 -0.9162 -0.6330
  798MOL0     C 7602   9.934   5.666   0.833  0.0953  0.0993  0.7239
  798MOL0     O 7603   9.925   5.530   0.840  0.4552  1.0324 -0.3153
  798MOL0     C 7604  10.042   5.452   0.856  0.9410 -0.4961  0.4160
  798MOL0     C 7605  10.039   5.373   0.730 -1.0362  0.3607  0.4685
  798MOL0     C 7606  10.172   5.304   0.707 -0.0802 -0.8936 -0.5899
  798MOL0     C 7607  10.179   5.195   0.824 -0.2031 -1.0451  0.3759
  798MOL0     C 7608  10.291   5.103   0.818  0.3637  1.2683  0.0716
  798MOL0     C 7609  10.255   4.974   0.900  0.3192  1.2405 -0.5028
  798MOL0     C 7610  10.357   4.859   0.884  0.2182 -0.5891  0.2543
  798MOL0     C 7611  10.481   4.869   0.980  0.6855 -0.0273 -0.3775
  798MOL0     N 7612  10.551   4.741   0.963  0.5094 -0.7199  0.8825
  798MOL0     C 7613  10.652   4.717   0.875 -0.8893 -0.5136 -0.1713
  798MOL0     C 7614  10.698   4.597   0.904 -0.4180  0.9173 -0.8148
  798MOL0     C 7615  10.802   4.515   0.839 -0.2875 -0.4282  0.4946
  798MOL0     C 7616  10.922   4.602   0.794  0.4695  0.7703 -0.5043
  798MOL0     C 7617  10.980   4.673   0.926 -0.1648 -0.0656  0.2417
  798MOL0     C 7618  11.128   4.694   0.913 -0.2889  0.4658 -0.2882
  798MOL0     O 7619  11.191   4.573   0.871 -0.2367  0.2435 -0.5985
  798MOL0     C 7620  11.207   4.476   0.976 -0.0729 -0.6830 -0.5410
  798MOL0     C 7621  11.269   4.512   1.092 -0.1167  0.1690 -0.2647
  798MOL0     C 7622  11.277   4.413   1.192  1.0602  0.8751  0.5932
  798MOL0     C 7623  11.208   4.288   1.181 -0.0564 -0.7322 -0.0391
  798MOL0     C 7624  11.212   4.184   1.289  1.8946  0.2687 -0.3351
  798MOL0     O 7625  11.159   4.053   1.276  0.1018  0.0832  0.7794
  798MOL0     C 7626  11.174   3.971   1.380 -1.0348  0.1198  0.2938
  798MOL0     C 7627  11.090   3.996   1.489 -0.2336  0.1623  0.0531
  798MOL0     C 7628  11.067   3.909   1.591  0.0723  0.4114  0.1332
  798MOL0     C 7629  11.152   3.797   1.602  1.4426 -0.5877 -0.7744
  798MOL0     O 7630  11.153   3.715   1.713  0.1512  0.6346 -0.0246
  798MOL0     C 7631  11.030   3.680   1.776  0.4282  0.0644 -0.3631
  798MOL0     C 7632  11.056   3.538   1.840  0.9571 -0.1999  0.0833
  798MOL0     C 7633  10.942   3.496   1.930 -1.0126 -0.2290 -0.4975
  798MOL0     C 7634  10.812   3.458   1.874  0.5413 -0.1128 -0.1255
  798MOL0     C 7635  10.720   3.389   1.970 -0.0442  0.7417 -0.1558
  798MOL0     C 7636  10.595   3.352   1.902  0.3337 -0.0387  0.5337
  798MOL0     C 7637  10.491   3.297   2.002 -0.4706  0.0368  0.1100
  798MOL0     C 7638  10.385   3.252   1.911  0.2056  0.3269 -0.3403
  798MOL0    Cl 7639  10.308   3.378   1.809 -0.1347  0.5515  0.3272
  798MOL0     C 7640  11.242   3.768   1.504  1.5258 -0.0419 -0.6991
  798MOL0     C 7641  11.249   3.854   1.396 -0.1867  0.5751  0.5823
  798MOL0     O 7642  11.261   4.227   1.393 -0.3483 -0.1213  0.5472
  798MOL0     C 7643  11.133   4.266   1.065  0.9463 -0.4411  0.1454
  798MOL0     C 7644  11.141   4.352   0.961 -0.0544 -0.3135 -0.1984
  798MOL0     N 7645  10.627   4.550   1.010 -0.5052  0.7722 -0.1899
  798MOL0     N 7646  10.537   4.633   1.042  0.2023  0.1224 -0.0123
  798MOL0     C 7647  10.043   5.735   0.773  0.1525  0.4900 -1.0886
  798MOL0     C 7648  10.033   5.871   0.767 -0.3059 -0.1760  0.1589
  798MOL0     C 7649   9.882   6.307   0.797  0.3728  0.3650  0.7564
  798MOL0     C 7650   9.945   6.352   0.907  1.0899  0.4200  0.6974
  798MOL0     C 7651   9.980   6.486   0.938 -0.1412 -0.6325  0.0493
  798MOL0     C 7652   9.938   6.584   0.846 -0.0819  0.2221 -0.5323
  798MOL0     O 7653   9.945   6.719   0.879  0.7347 -0.9250  0.2693
  798MOL0     C 7654  10.075   6.770   0.860  0.2452 -0.7680  0.6066
  798MOL0     C 7655  10.125   6.790   0.719 -0.9903  0.2693  0.1287
  798MOL0     C 7656  10.044   6.896   0.643 -0.5493  0.6138  0.0916
  798MOL0     C 7657  10.072   6.933   0.499 -0.1794 -1.2707  0.8192
  798MOL0     C 7658  10.027   6.832   0.405 -1.2170  0.4591 -1.0327
  798MOL0     C 7659   9.977   6.736   0.351 -0.0972  1.1256 -0.7133
  798MOL0     C 7660   9.860   6.550   0.738 -0.0093 -0.4153  0.0937
  798MOL0     C 7661   9.830   6.412   0.715  0.3287 -0.5650  0.5611
  798MOL0     C 7662   9.750   6.391   0.585  0.1197 -0.5054 -0.5409
  798MOL0     H 7663   9.756   5.926   0.950  0.8928 -1.1645  1.4494
  798MOL0     H 7664   9.749   5.685   0.946 -0.4783  0.3239 -0.4836
  798MOL0     H 7665  10.138   5.504   0.866 -0.3728  2.0040  1.0119
  798MOL0     H 7666  10.021   5.380   0.936 -4.4830 -1.4304 -1.3836
  798MOL0     H 7667  10.019   5.442   0.648  1.8815  1.2139  0.3844
  798MOL0     H 7668   9.950   5.310   0.722 -1.7450  1.6433 -4.0581
  798MOL0     H 7669  10.253   5.376   0.715 -2.5110  1.8865  1.6158
  798MOL0     H 7670  10.175   5.247   0.614 -0.9055  1.7798 -2.3622
  798MOL0     H 7671  10.195   5.248   0.918 -0.8180 -2.3844  1.2689
  798MOL0     H 7672  10.088   5.138   0.845  0.2379 -2.0361 -0.3520
  798MOL0     H 7673  10.303   5.072   0.714 -1.4122  0.5245  0.0420
  798MOL0     H 7674  10.383   5.143   0.860  0.9312 -1.9118  2.2580
  798MOL0     H 7675  10.243   4.993   1.007  0.3878  1.2925 -0.5040
  798MOL0     H 7676  10.166   4.924   0.862  1.4107 -1.4602  0.2635
  798MOL0     H 7677  10.390   4.838   0.781 -0.6228 -0.0227 -0.1435
  798MOL0     H 7678  10.316   4.764   0.918  0.9560 -1.4403 -1.1405
  798MOL0     H 7679  10.557   4.942   0.951 -0.3970  0.2429 -2.7706
  798MOL0     H 7680  10.453   4.853   1.085  1.0542 -4.0414 -0.7506
  798MOL0     H 7681  10.676   4.777   0.788 -2.1456  0.7872  0.3343
  798MOL0     H 7682  10.839   4.439   0.909  1.6651 -3.1602 -3.1203
  798MOL0     H 7683  10.768   4.468   0.746 -0.7438  0.1491  0.3639
  798MOL0     H 7684  11.000   4.540   0.749 -1.0682  1.2186 -4.1724
  798MOL0     H 7685  10.887   4.666   0.712  1.4416  0.9623 -0.7774
  798MOL0     H 7686  10.973   4.611   1.016  3.2050  2.5981  2.6118
  798MOL0     H 7687  10.927   4.764   0.956  1.7750  1.5346 -0.9103
  798MOL0     H 7688  11.156   4.723   1.015  0.3902 -2.6179  0.5096
  798MOL0     H 7689  11.158   4.766   0.837  2.3119 -2.6868 -2.5200
  798MOL0     H 7690  11.315   4.609   1.102 -0.1949  1.1788 -6.3946
  798MOL0     H 7691  11.337   4.428   1.281 -0.1511 -1.2601  1.8387
  798MOL0     H 7692  11.011   4.071   1.486  0.2343  0.9693  3.2284
  798MOL0     H 7693  11.010   3.944   1.676  2.0822 -1.0577  2.2106
  798MOL0     H 7694  11.010   3.755   1.853 -0.6165 -1.5519  1.0236
  798MOL0     H 7695  10.946   3.693   1.707  0.0210  0.3305  0.1670
  798MOL0     H 7696  11.066   3.460   1.764 -0.0983 -0.2724 -0.0002
  798MOL0     H 7697  11.158   3.542   1.877  1.0448  4.3477 -0.0359
  798MOL0     H 7698  10.975   3.410   1.988 -1.0808 -1.5008 -2.2798
  798MOL0     H 7699  10.928   3.576   2.004  1.3221  1.6060 -1.8618
  798MOL0     H 7700  10.827   3.382   1.796 -1.4340 -0.8023  0.1157
  798MOL0     H 7701  10.756   3.540   1.828 -1.1142 -1.5318 -0.7356
  798MOL0     H 7702  10.688   3.461   2.046  0.8016  1.2562 -0.2785
  798MOL0     H 7703  10.777   3.309   2.018  0.2882  0.2219 -1.3882
  798MOL0     H 7704  10.559   3.443   1.854  2.9419  0.1498 -1.2479
  798MOL0     H 7705  10.616   3.287   1.817 -2.2092  2.2938 -2.0750
  798MOL0     H 7706  10.463   3.370   2.079 -1.7781 -1.2077  0.8773
  798MOL0     H 7707  10.525   3.206   2.052  2.3352  0.8179 -0.1875
  798MOL0     H 7708  10.409   3.167   1.847 -1.5619 -0.7572  0.3643
  798MOL0     H 7709  10.307   3.219   1.980 -0.8167  0.2196 -1.5022
  798MOL0     H 7710  11.298   3.676   1.513  1.9030  0.3569  2.0956
  798MOL0     H 7711  11.315   3.820   1.316  0.3805  4.1791 -0.6553
  798MOL0     H 7712  11.087   4.169   1.048 -0.7658  0.3300  0.1477
  798MOL0     H 7713  11.121   4.318   0.860  2.5904 -0.6428 -0.6983
  798MOL0     H 7714  10.130   5.691   0.726 -0.1518 -0.2299 -1.0033
  798MOL0     H 7715  10.120   5.919   0.723 -0.1361 -0.7543 -0.1539
  798MOL0     H 7716   9.967   6.268   0.973  0.0745 -1.7057 -1.5127
  798MOL0     H 7717  10.020   6.510   1.036 -1.2471 -1.3344  0.6984
  798MOL0     H 7718  10.144   6.697   0.903 -0.7732 -1.4082  1.1886
  798MOL0     H 7719  10.085   6.862   0.918 -0.2448 -0.8706  0.8569
  798MOL0     H 7720  10.139   6.691   0.674  0.8710 -0.3378  1.8625
  798MOL0     H 7721  10.228   6.827   0.730 -1.9046  3.0422 -0.0930
  798MOL0     H 7722  10.059   6.984   0.706 -3.3484  1.6083 -0.4737
  798MOL0     H 7723   9.940   6.862   0.639 -0.6840  1.0587 -0.2482
  798MOL0     H 7724  10.022   7.026   0.472  1.8200  0.1100  1.5650
  798MOL0     H 7725  10.180   6.951   0.498 -0.1680 -1.3335  0.9599
  798MOL0     H 7726   9.916   6.658   0.310  0.0898  0.0095  1.0199
  798MOL0     H 7727   9.830   6.634   0.676  1.8390  2.0562  2.3107
  798MOL0     H 7728   9.643   6.376   0.601 -0.1829 -0.1921 -2.1271
  798MOL0     H 7729   9.762   6.473   0.514  0.9496 -0.3312 -0.2106
  798MOL0     H 7730   9.780   6.301   0.530 -0.1078 -0.3800 -0.8704
  799MOL0     O 7731   6.358  10.498   8.867  0.2122 -0.6231  0.3053
  799MOL0     C 7732   6.411  10.478   8.979  0.5448 -0.9838 -0.1416
  799MOL0     O 7733   6.536  10.528   9.015 -0.1921 -0.0170 -0.2954
  799MOL0     C 7734   6.588  10.647   8.963 -0.1705 -0.0438 -0.8650
  799MOL0     C 7735   6.721  10.652   8.916 -1.3047 -0.2206 -0.5408
  799MOL0     C 7736   6.779  10.769   8.871 -0.3288 -0.4180  0.0280
  799MOL0     C 7737   6.699  10.881   8.857  0.0725  0.1457 -0.3016
  799MOL0     O 7738   6.761  10.997   8.818  0.2731  0.7640 -1.4450
  799MOL0     C 7739   6.858  10.998   8.716 -0.9973  0.0614  0.2509
  799MOL0     C 7740   6.864  11.137   8.659  0.8141 -0.1502 -0.1022
  799MOL0     C 7741   6.929  11.246   8.750 -1.4944 -0.6828  0.3252
  799MOL0     C 7742   6.898  11.380   8.680 -0.8594 -0.5888 -0.0910
  799MOL0     C 7743   6.993  11.496   8.720 -0.2481  1.1908  0.6112
  799MOL0     C 7744   7.012  11.586   8.595  0.1144  0.1766  0.3815
  799MOL0     C 7745   6.871  11.632   8.550  0.5461 -0.2600  1.0924
  799MOL0     C 7746   6.876  11.757   8.455 -0.9853 -0.2229 -0.2067
  799MOL0     N 7747   6.760  11.842   8.472  0.3907  0.3568 -0.6304
  799MOL0     C 7748   6.721  11.943   8.383  0.3971 -0.7224 -0.7197
  799MOL0     C 7749   6.614  11.998   8.444  0.2264  1.0761  0.1086
  799MOL0     C 7750   6.543  12.115   8.404  1.2030 -1.4295 -0.0712
  799MOL0     C 7751   6.443  12.111   8.283 -0.0693 -0.2525  0.7822
  799MOL0     C 7752   6.290  12.087   8.318 -0.3482  0.0990  0.5058
  799MOL0     C 7753   6.224  12.027   8.191  0.3841  0.4735 -0.6908
  799MOL0     O 7754   6.249  12.101   8.072  1.0445 -0.1077  0.2380
  799MOL0     C 7755   6.167  12.067   7.962 -0.5836  0.8314 -1.1604
  799MOL0     C 7756   6.139  12.163   7.876  0.0182 -0.4793  0.4828
  799MOL0     C 7757   6.068  12.143   7.758 -1.0095 -0.1610  0.2434
  799MOL0     C 7758   6.022  12.011   7.723 -0.7864 -0.5695 -0.6983
  799MOL0     C 7759   5.941  12.000   7.599  1.3038  0.4312  0.4512
  799MOL0     O 7760   5.919  12.112   7.524  0.6267 -0.0729 -0.1678
  799MOL0     C 7761   5.837  12.109   7.414 -0.3388 -0.1461 -0.4496
  799MOL0     C 7762   5.722  12.171   7.414  0.2715 -1.0994 -0.7596
  799MOL0     C 7763   5.633  12.169   7.308 -0.3220  0.0018  0.5724
  799MOL0     C 7764   5.664  12.097   7.195 -0.2907  0.0056 -0.3985
  799MOL0     O 7765   5.570  12.095   7.092  0.2761  0.1555 -0.0086
  799MOL0     C 7766   5.487  11.979   7.087  0.9226 -0.2919 -0.3953
  799MOL0     C 7767   5.513  11.893   6.961  0.1940  0.3595 -0.0711
  799MOL0     C 7768   5.465  11.930   6.818 -0.2165  0.4487 -0.1075
  799MOL0     C 7769   5.306  11.938   6.800 -1.3978  0.1728  0.7016
  799MOL0     C 7770   5.278  11.971   6.654 -0.1540 -0.7166 -0.0117
  799MOL0     C 7771   5.311  11.864   6.530 -0.1114 -0.8160 -0.3218
  799MOL0     C 7772   5.236  11.914   6.399  0.3216 -1.3904  0.9508
  799MOL0     C 7773   5.283  11.861   6.265  0.2047  0.1819 -1.1026
  799MOL0    Cl 7774   5.441  11.907   6.219 -0.2075  0.5408  0.4036
  799MOL0     C 7775   5.797  12.034   7.190  0.3613  0.6120  0.3127
  799MOL0     C 7776   5.884  12.042   7.304 -0.2844 -0.4828 -0.5373
  799MOL0     O 7777   5.897  11.890   7.570  0.3900 -0.6081  1.0188
  799MOL0     C 7778   6.048  11.916   7.826 -0.7756 -0.6416 -0.7276
  799MOL0     C 7779   6.118  11.938   7.943 -0.3163  0.3057  0.4022
  799MOL0     N 7780   6.588  11.931   8.567 -0.1659 -0.8058  0.2211
  799MOL0     N 7781   6.672  11.836   8.576  0.3835 -0.4644  0.1548
  799MOL0     C 7782   6.564  10.871   8.889 -0.5814  0.8231  0.7145
  799MOL0     C 7783   6.505  10.756   8.949 -0.8153  0.3115  0.2574
  799MOL0     C 7784   6.349  10.392   9.080  1.0900 -0.1225  0.6343
  799MOL0     C 7785   6.290  10.273   9.029 -0.0535  0.5926  0.6952
  799MOL0     C 7786   6.230  10.182   9.117  0.2667  0.1552 -1.0285
  799MOL0     C 7787   6.207  10.208   9.253 -1.1663 -0.2066  0.3901
  799MOL0     O 7788   6.154  10.114   9.341  0.4426  0.1211  0.0265
  799MOL0     C 7789   6.087   9.999   9.283  0.0182 -0.7796  0.8851
  799MOL0     C 7790   5.996   9.930   9.387  0.1842  0.0198  0.0723
  799MOL0     C 7791   5.900  10.028   9.442  0.9308  1.0933  1.3202
  799MOL0     C 7792   5.821   9.969   9.556  0.3879  0.3601 -0.0721
  799MOL0     C 7793   5.898   9.956   9.679  0.7107 -0.9817 -1.3680
  799MOL0     C 7794   5.964   9.944   9.780 -0.4506  0.9399 -0.2462
  799MOL0     C 7795   6.262  10.326   9.294 -0.3794 -0.1485 -0.2965
  799MOL0     C 7796   6.332  10.421   9.214  0.3066  0.7804 -0.2301
  799MOL0     C 7797   6.394  10.541   9.280  0.4822  1.0416  0.2491
  799MOL0     H 7798   6.788  10.567   8.928 -0.4052  0.5722  0.1808
  799MOL0     H 7799   6.884  10.762   8.846 -0.4596 -1.7706 -0.2139
  799MOL0     H 7800   6.961  10.974   8.745 -0.2983 -2.3136 -3.5473
  799MOL0     H 7801   6.827  10.924   8.641  1.0091  1.2784 -1.9239
  799MOL0     H 7802   6.759  11.170   8.652  0.0198 -1.7666  2.6767
  799MOL0     H 7803   6.908  11.136   8.559 -0.5110 -0.8004 -0.7023
  799MOL0     H 7804   7.038  11.249   8.762 -1.7511 -1.4729  4.4816
  799MOL0     H 7805   6.900  11.241   8.856  3.3713  0.7098  1.9862
  799MOL0     H 7806   6.914  11.354   8.575  1.8088 -0.0396  0.1113
  799MOL0     H 7807   6.797  11.407   8.711 -0.9087  2.2678 -2.3161
  799MOL0     H 7808   6.943  11.561   8.793  0.2164  0.9343  1.1686
  799MOL0     H 7809   7.087  11.465   8.767  0.3304  0.7187 -0.8163
  799MOL0     H 7810   7.069  11.676   8.620  0.0777  0.5165 -0.6919
  799MOL0     H 7811   7.063  11.534   8.513  1.2253  1.1155  0.4493
  799MOL0     H 7812   6.796  11.651   8.626  0.5752 -4.3470  2.3726
  799MOL0     H 7813   6.828  11.558   8.482  0.9156  0.6150 -0.1396
  799MOL0     H 7814   6.966  11.812   8.484 -1.2002  0.1619 -0.2593
  799MOL0     H 7815   6.882  11.718   8.353 -0.6625 -0.3639 -0.1349
  799MOL0     H 7816   6.763  11.978   8.289 -1.1691 -0.9918 -1.5549
  799MOL0     H 7817   6.498  12.168   8.488  0.5579 -0.3261 -1.0839
  799MOL0     H 7818   6.620  12.179   8.360 -1.7155  1.0353 -2.0107
  799MOL0     H 7819   6.442  12.204   8.226 -1.1907 -1.1125 -0.7113
  799MOL0     H 7820   6.476  12.031   8.216 -0.0847  1.7793 -1.7974
  799MOL0     H 7821   6.237  12.181   8.336  0.4300  0.0311  3.9668
  799MOL0     H 7822   6.275  12.018   8.402 -1.1521 -2.4945 -1.6264
  799MOL0     H 7823   6.118  12.030   8.216  1.2087 -0.3973  4.0389
  799MOL0     H 7824   6.251  11.921   8.202 -1.1256  0.1371  0.0277
  799MOL0     H 7825   6.184  12.259   7.900  3.8768 -1.5620 -1.4991
  799MOL0     H 7826   6.056  12.224   7.687  0.2750 -0.9689 -0.9511
  799MOL0     H 7827   5.706  12.236   7.499  2.2274  1.2312 -2.0538
  799MOL0     H 7828   5.529  12.198   7.314 -1.8088 -4.4794  0.1536
  799MOL0     H 7829   5.492  11.915   7.176  0.2651 -0.9391 -0.8118
  799MOL0     H 7830   5.383  12.012   7.079 -0.1452 -3.5833 -1.7643
  799MOL0     H 7831   5.622  11.891   6.948  0.5004  2.6553  1.5644
  799MOL0     H 7832   5.478  11.790   6.976 -0.3753  0.6697  0.7975
  799MOL0     H 7833   5.530  12.011   6.786  1.7938 -0.7946  0.6727
  799MOL0     H 7834   5.494  11.853   6.746 -1.5207  1.9892 -2.4400
  799MOL0     H 7835   5.262  12.006   6.874  1.3376 -0.4255  3.0485
  799MOL0     H 7836   5.262  11.844   6.836  0.6450 -0.5177  1.5283
  799MOL0     H 7837   5.302  12.074   6.628 -1.3262 -0.0880  1.2584
  799MOL0     H 7838   5.169  11.973   6.652 -0.1778 -0.3539 -2.9995
  799MOL0     H 7839   5.417  11.862   6.504 -0.5756  2.3911 -3.1548
  799MOL0     H 7840   5.288  11.761   6.560 -0.2688 -0.0076  2.6774
  799MOL0     H 7841   5.240  12.023   6.403  0.7420 -1.3092 -0.8484
  799MOL0     H 7842   5.131  11.884   6.397 -0.1292  0.0442  1.9202
  799MOL0     H 7843   5.261  11.754   6.263 -2.1873  0.6248 -2.0608
  799MOL0     H 7844   5.217  11.900   6.187 -0.3278  2.9800  0.5753
  799MOL0     H 7845   5.824  11.970   7.107  1.8042 -0.5122  1.5834
  799MOL0     H 7846   5.973  11.984   7.328 -0.3822 -0.3378  0.2011
  799MOL0     H 7847   6.014  11.814   7.808 -1.8361 -0.6843  1.2200
  799MOL0     H 7848   6.145  11.852   8.003 -0.2191  0.0331 -0.0224
  799MOL0     H 7849   6.496  10.954   8.869 -0.6177  0.3455 -1.3917
  799MOL0     H 7850   6.399  10.753   8.971 -0.8407  2.0350  0.5096
  799MOL0     H 7851   6.292  10.251   8.923  0.5686  0.7382  0.6712
  799MOL0     H 7852   6.193  10.095   9.064 -0.6583  0.1247 -0.3540
  799MOL0     H 7853   6.158   9.929   9.237 -1.9041 -0.5348 -2.9291
  799MOL0     H 7854   6.016  10.020   9.202 -0.9212 -2.1972  1.2959
  799MOL0     H 7855   6.065   9.882   9.458  4.0065  0.4618 -3.0008
  799MOL0     H 7856   5.936   9.851   9.342  0.6873  0.5834 -1.6591
  799MOL0     H 7857   5.823  10.058   9.371 -0.7157 -1.7170  1.7670
  799MOL0     H 7858   5.960  10.107   9.489  1.6174  1.3391  0.0659
  799MOL0     H 7859   5.732  10.029   9.577  1.9802  3.3901 -1.3282
  799MOL0     H 7860   5.769   9.877   9.525  2.5677 -1.1607  0.5301
  799MOL0     H 7861   6.018   9.941   9.872 -1.0670  1.1224  0.1285
  799MOL0     H 7862   6.262  10.329   9.403  1.1391  2.3584 -0.2766
  799MOL0     H 7863   6.500  10.537   9.254  0.5878  1.6139  0.5617
  799MOL0     H 7864   6.348  10.639   9.261  0.1096  1.0569  1.1460
  799MOL0     H 7865   6.370  10.531   9.387  1.1584  0.9983  0.4035
  800MOL0     O 7866  10.629  11.413  10.400  0.0797 -0.5239  0.2841
  800MOL0     C 7867  10.658  11.309  10.343  1.2315  0.0920  0.0141
  800MOL0     O 7868  10.613  11.184  10.397 -0.4218 -0.2881  0.6129
  800MOL0     C 7869  10.520  11.188  10.498 -0.2688 -0.3708 -0.2666
  800MOL0     C 7870  10.568  11.132  10.615 -0.5386  0.3879 -0.1486
  800MOL0     C 7871  10.490  11.129  10.729  0.8047  0.1274  0.0578
  800MOL0     C 7872  10.360  11.187  10.728 -0.5084 -0.0705 -0.6466
  800MOL0     O 7873  10.271  11.180  10.832 -0.6212 -0.2982 -0.6047
  800MOL0     C 7874  10.260  11.301  10.910 -0.5166  0.4629 -0.2780
  800MOL0     C 7875  10.185  11.246  11.031 -0.0118 -0.5527  0.3293
  800MOL0     C 7876  10.129  11.350  11.124  0.5529 -0.8863 -0.0854
  800MOL0     C 7877  10.236  11.456  11.150  0.3314 -0.1112  0.7674
  800MOL0     C 7878  10.207  11.564  11.257  0.4556 -0.7464  0.1430
  800MOL0     C 7879  10.065  11.627  11.247  0.0054 -0.0067 -0.4891
  800MOL0     C 7880  10.043  11.763  11.330  0.3513 -0.5683  0.2167
  800MOL0     C 7881   9.892  11.804  11.354 -0.5654  0.1828  1.2709
  800MOL0     N 7882   9.870  11.906  11.458  0.1568 -0.0018  1.0779
  800MOL0     C 7883   9.915  12.041  11.465 -0.5107  0.2693 -1.4873
  800MOL0     C 7884   9.852  12.102  11.568  0.4088 -0.0046 -0.0441
  800MOL0     C 7885   9.899  12.235  11.621 -0.1844 -0.5032  0.4900
  800MOL0     C 7886   9.817  12.297  11.736  0.0017  1.4062  0.0881
  800MOL0     C 7887   9.858  12.442  11.765 -0.4311  0.5686  0.5236
  800MOL0     C 7888   9.841  12.546  11.648  0.7120  1.1364  0.4665
  800MOL0     O 7889   9.708  12.528  11.602 -0.0692  0.5220  0.1366
  800MOL0     C 7890   9.624  12.634  11.592 -0.2750  0.1172  1.2169
  800MOL0     C 7891   9.483  12.609  11.590 -0.5464 -0.1449 -0.2760
  800MOL0     C 7892   9.390  12.715  11.577 -0.4645 -0.0013  0.8279
  800MOL0     C 7893   9.438  12.849  11.554 -0.6927 -0.2489 -0.0870
  800MOL0     C 7894   9.351  12.965  11.528  0.8525  0.4727  0.3155
  800MOL0     O 7895   9.226  12.931  11.477 -0.4821 -0.4751  0.6342
  800MOL0     C 7896   9.123  13.018  11.473 -0.3541  0.2617 -0.6152
  800MOL0     C 7897   9.114  13.111  11.356  0.7300  0.0326 -0.4131
  800MOL0     C 7898   9.028  13.216  11.359  1.0921 -0.0692 -0.7708
  800MOL0     C 7899   8.952  13.242  11.476  0.0215 -1.0521  0.3575
  800MOL0     O 7900   8.879  13.361  11.480  0.8132  0.5167 -0.0590
  800MOL0     C 7901   8.736  13.354  11.509  0.2975 -0.2508  0.4745
  800MOL0     C 7902   8.667  13.249  11.415  0.5488 -0.6832 -1.4908
  800MOL0     C 7903   8.514  13.281  11.419  0.1435  0.0580 -1.0790
  800MOL0     C 7904   8.436  13.233  11.291  0.4240 -0.5844 -0.0877
  800MOL0     C 7905   8.285  13.236  11.308  1.2518  0.4651  0.1787
  800MOL0     C 7906   8.245  13.103  11.388  0.1793  0.0447 -0.0425
  800MOL0     C 7907   8.093  13.089  11.434 -0.4737 -0.0739 -0.3153
  800MOL0     C 7908   8.070  13.192  11.555 -0.4335 -0.2815  0.3300
  800MOL0    Cl 7909   7.893  13.179  11.607  0.1191 -0.0441  0.2289
  800MOL0     C 7910   8.952  13.148  11.583 -0.3714 -0.8121 -0.3076
  800MOL0     C 7911   9.042  13.043  11.591 -0.5247  0.2732  0.7707
  800MOL0     O 7912   9.393  13.076  11.552 -0.4433 -0.6189  0.4778
  800MOL0     C 7913   9.580  12.866  11.540 -0.1147  0.7497 -1.0212
  800MOL0     C 7914   9.678  12.760  11.557  0.0325 -0.4388  0.0273
  800MOL0     N 7915   9.763  12.009  11.623 -0.0415  0.4713 -1.1340
  800MOL0     N 7916   9.785  11.888  11.559  0.4903 -0.2038 -0.5037
  800MOL0     C 7917  10.328  11.260  10.617  0.3127 -0.8850 -0.6941
  800MOL0     C 7918  10.401  11.271  10.496 -0.4150  0.4351 -1.3785
  800MOL0     C 7919  10.730  11.312  10.224 -0.5734  0.1543  1.0098
  800MOL0     C 7920  10.732  11.193  10.145 -0.1767  0.1273  0.4784
  800MOL0     C 7921  10.810  11.182  10.035  0.5238  0.2718  0.1184
  800MOL0     C 7922  10.871  11.288   9.977 -1.4000 -0.4245  0.9288
  800MOL0     O 7923  10.949  11.263   9.859  0.3857 -0.3741 -0.0254
  800MOL0     C 7924  11.026  11.366   9.795  0.1469  0.0268  0.2485
  800MOL0     C 7925  11.097  11.308   9.672  0.8405  1.4553  0.3286
  800MOL0     C 7926  11.206  11.204   9.732  0.0127  0.5876 -0.7001
  800MOL0     C 7927  11.293  11.255   9.842  0.2653 -1.8292 -0.6137
  800MOL0     C 7928  11.407  11.159   9.878 -0.0452  0.4589 -0.3703
  800MOL0     C 7929  11.496  11.083   9.924 -0.3189  0.2285 -0.3223
  800MOL0     C 7930  10.876  11.410  10.047 -0.2711  0.5365  0.5518
  800MOL0     C 7931  10.798  11.422  10.164  0.2396 -0.2379  0.3935
  800MOL0     C 7932  10.817  11.550  10.243 -0.6202 -0.3031  0.1852
  800MOL0     H 7933  10.672  11.105  10.629  0.3434  3.2054 -0.6089
  800MOL0     H 7934  10.536  11.069  10.807  0.7393  0.0301  0.0212
  800MOL0     H 7935  10.362  11.331  10.935  0.1843 -3.0703  1.8283
  800MOL0     H 7936  10.195  11.377  10.866 -0.1088  0.8328 -0.2352
  800MOL0     H 7937  10.267  11.196  11.082  0.3534  2.2498  2.7583
  800MOL0     H 7938  10.112  11.168  11.007 -0.0745 -0.8449  1.4401
  800MOL0     H 7939  10.097  11.306  11.219  1.0710  2.0853  1.5895
  800MOL0     H 7940  10.030  11.388  11.097 -0.4843 -1.0841  3.0123
  800MOL0     H 7941  10.328  11.403  11.179 -0.8899 -2.6937  0.1907
  800MOL0     H 7942  10.251  11.504  11.053  2.4394 -1.8467  0.1393
  800MOL0     H 7943  10.211  11.524  11.359  2.0034 -0.5151  0.1947
  800MOL0     H 7944  10.288  11.638  11.251 -0.1592 -0.0006  0.8566
  800MOL0     H 7945  10.045  11.646  11.141  2.1227  1.2502 -0.7212
  800MOL0     H 7946   9.997  11.547  11.278 -1.4360  0.1637 -2.9427
  800MOL0     H 7947  10.081  11.847  11.272  0.7429 -1.4349 -0.8333
  800MOL0     H 7948  10.084  11.759  11.431  0.8145 -1.6828  0.0053
  800MOL0     H 7949   9.874  11.851  11.257 -0.0944  0.5548  1.3572
  800MOL0     H 7950   9.828  11.717  11.368 -3.4120  2.0288  0.4656
  800MOL0     H 7951   9.991  12.091  11.405  1.4667 -1.7934 -0.8300
  800MOL0     H 7952  10.005  12.233  11.648  0.3232 -1.1266 -1.3887
  800MOL0     H 7953   9.901  12.305  11.538  1.1232 -1.4019 -0.2727
  800MOL0     H 7954   9.711  12.304  11.708 -0.0769  1.0580  0.2852
  800MOL0     H 7955   9.829  12.238  11.827 -0.5170  2.8919  1.1654
  800MOL0     H 7956   9.963  12.445  11.796 -0.4525  0.6062  0.5940
  800MOL0     H 7957   9.803  12.473  11.855 -2.2361 -3.5198  1.0674
  800MOL0     H 7958   9.908  12.519  11.565  1.8895  0.3529  1.6333
  800MOL0     H 7959   9.877  12.649  11.660  1.1337  1.5113 -2.9451
  800MOL0     H 7960   9.460  12.503  11.601 -0.6095 -0.1166 -0.1277
  800MOL0     H 7961   9.284  12.698  11.565 -0.2449 -1.2240  0.4636
  800MOL0     H 7962   9.172  13.078  11.271  3.0859 -2.9267  2.1114
  800MOL0     H 7963   9.027  13.291  11.281  1.0987  3.7282  2.5402
  800MOL0     H 7964   8.707  13.334  11.612  0.1595 -3.2693 -0.0610
  800MOL0     H 7965   8.690  13.451  11.488 -0.4987 -0.3598  1.6195
  800MOL0     H 7966   8.706  13.264  11.314 -2.4368  0.3035 -2.5772
  800MOL0     H 7967   8.692  13.148  11.451 -2.3878 -1.3779 -1.1930
  800MOL0     H 7968   8.464  13.247  11.510 -1.1017 -0.4073 -1.9129
  800MOL0     H 7969   8.514  13.390  11.411  1.2009  0.2416  0.7776
  800MOL0     H 7970   8.473  13.136  11.258  1.0423  0.6720 -3.5011
  800MOL0     H 7971   8.466  13.308  11.217  3.2623  0.0297  1.5172
  800MOL0     H 7972   8.240  13.226  11.209  0.6742 -2.6942  0.6468
  800MOL0     H 7973   8.240  13.327  11.349  1.3056 -1.2482  4.6060
  800MOL0     H 7974   8.273  13.015  11.328 -0.4136 -1.1511  1.3635
  800MOL0     H 7975   8.321  13.097  11.467  3.2369  0.8887 -2.7054
  800MOL0     H 7976   8.073  12.989  11.474  0.8726 -0.4819 -0.6095
  800MOL0     H 7977   8.034  13.106  11.344  2.3278 -0.2901 -2.3019
  800MOL0     H 7978   8.143  13.170  11.634  2.4773  0.5472 -1.9648
  800MOL0     H 7979   8.090  13.293  11.519  1.9701 -1.2675 -1.3910
  800MOL0     H 7980   8.892  13.166  11.673  0.3109 -3.4481  0.7787
  800MOL0     H 7981   9.047  12.974  11.674 -1.0013  0.7820  1.2429
  800MOL0     H 7982   9.602  12.967  11.507  2.8253  0.2609 -0.7580
  800MOL0     H 7983   9.780  12.795  11.544 -0.0637 -0.0109  0.4053
  800MOL0     H 7984  10.233  11.313  10.624  0.1876 -1.3176  1.4738
  800MOL0     H 7985  10.363  11.325  10.410  2.8070 -0.9616 -3.8977
  800MOL0     H 7986  10.682  11.106  10.185 -3.3509  0.9785 -1.2573
  800MOL0     H 7987  10.796  11.082   9.995  2.3790 -0.1394  0.3770
  800MOL0     H 7988  11.102  11.409   9.861  1.2883 -2.1113  0.3824
  800MOL0     H 7989  10.960  11.443   9.755 -0.6317 -1.4064 -1.3382
  800MOL0     H 7990  11.140  11.380   9.602  1.1791  1.1876  0.2584
  800MOL0     H 7991  11.023  11.254   9.613  0.3679 -0.0755  2.2212
  800MOL0     H 7992  11.272  11.176   9.650 -0.1960 -1.0260 -0.3554
  800MOL0     H 7993  11.155  11.115   9.771  1.7477 -0.3002 -0.3577
  800MOL0     H 7994  11.332  11.354   9.818 -3.1612 -0.2857 -0.4611
  800MOL0     H 7995  11.231  11.263   9.932  2.2389  0.3849  0.6589
  800MOL0     H 7996  11.569  11.024   9.975 -0.7468  0.0523  0.0885
  800MOL0     H 7997  10.925  11.497  10.004 -1.8919  1.7310  1.0243
  800MOL0     H 7998  10.876  11.626  10.190  1.0410 -0.6720  1.4208
  800MOL0     H 7999  10.722  11.592  10.276 -0.2478 -0.5378  1.6274
  800MOL0     H 8000  10.873  11.534  10.336  2.4781  1.1393 -1.2806
  801MOL0     O 8001   5.801   2.722   9.943  0.4648 -0.5105  0.1912
  801MOL0     C 8002   5.875   2.816   9.968 -0.9785  0.0462 -0.0696
  801MOL0     O 8003   5.985   2.819  10.064  0.3199 -0.5274 -0.0644
  801MOL0     C 8004   5.995   2.715  10.157  0.5198  0.4407 -0.1124
  801MOL0     C 8005   6.039   2.749  10.281  0.4018 -0.3839  0.8078
  801MOL0     C 8006   6.045   2.650  10.384  0.3735  0.8631  0.3913
  801MOL0     C 8007   6.030   2.514  10.358  0.0145 -0.9844  0.4229
  801MOL0     O 8008   6.037   2.419  10.459 -0.4345  0.1520  0.3661
  801MOL0     C 8009   6.115   2.443  10.577  0.3776  0.4063  0.2949
  801MOL0     C 8010   6.148   2.311  10.647  1.0514  0.3131  0.4505
  801MOL0     C 8011   6.198   2.214  10.545 -0.8922  0.3033  0.1870
  801MOL0     C 8012   6.340   2.152  10.557  0.4893 -0.7387  0.5310
  801MOL0     C 8013   6.448   2.256  10.532  0.1416 -1.1419  0.7243
  801MOL0     C 8014   6.585   2.185  10.509 -0.0142  0.1463  0.6255
  801MOL0     C 8015   6.633   2.116  10.639 -0.6287  0.8281 -0.1978
  801MOL0     C 8016   6.786   2.102  10.651  0.1700 -0.6068 -0.1444
  801MOL0     N 8017   6.826   2.000  10.746  0.8305 -0.0191  0.3509
  801MOL0     C 8018   6.850   2.019  10.879  0.8215 -0.7336  0.5241
  801MOL0     C 8019   6.849   1.900  10.938 -1.6365  0.2548 -0.4495
  801MOL0     C 8020   6.848   1.875  11.089 -0.1380 -0.1885  0.1538
  801MOL0     C 8021   6.757   1.751  11.112  0.4076 -0.9485 -0.3487
  801MOL0     C 8022   6.610   1.791  11.121  0.2335  0.6894  0.3163
  801MOL0     C 8023   6.550   1.795  10.977 -0.3201  0.4282 -0.8147
  801MOL0     O 8024   6.419   1.840  10.998 -0.4301 -0.0738 -0.6459
  801MOL0     C 8025   6.328   1.810  10.899 -0.6460  0.0800  0.1546
  801MOL0     C 8026   6.199   1.828  10.932  0.3075 -0.9024  1.5289
  801MOL0     C 8027   6.096   1.807  10.840  0.0814 -0.0502 -0.3414
  801MOL0     C 8028   6.125   1.771  10.708 -0.0892  0.3617 -0.1451
  801MOL0     C 8029   6.019   1.752  10.616 -1.1946 -0.8171 -0.5020
  801MOL0     O 8030   6.060   1.726  10.488  0.8208 -0.5998  0.0572
  801MOL0     C 8031   5.979   1.659  10.397  1.1157  0.4886  0.7235
  801MOL0     C 8032   6.043   1.596  10.287  0.6293 -0.9275 -0.9264
  801MOL0     C 8033   5.973   1.527  10.190 -0.0407  0.9383 -0.1835
  801MOL0     C 8034   5.836   1.521  10.193  0.2278 -1.0665 -0.0240
  801MOL0     O 8035   5.762   1.470  10.092  0.2708 -0.4949 -0.9608
  801MOL0     C 8036   5.793   1.335  10.056  0.6399  1.0422 -0.9731
  801MOL0     C 8037   5.727   1.238  10.158 -0.2183 -0.0117 -0.1330
  801MOL0     C 8038   5.585   1.268  10.168  0.5106  0.2291  0.4355
  801MOL0     C 8039   5.496   1.158  10.235  0.0557  0.2535  0.3283
  801MOL0     C 8040   5.348   1.205  10.242  0.5697  0.5738 -0.3925
  801MOL0     C 8041   5.281   1.196  10.109 -0.4015  0.4401 -0.2624
  801MOL0     C 8042   5.148   1.270  10.109 -0.0674 -0.4730 -0.6165
  801MOL0     C 8043   5.062   1.208  10.015 -0.6465 -0.5755 -0.0788
  801MOL0    Cl 8044   4.920   1.317  10.012  0.0106  0.3928  0.3526
  801MOL0     C 8045   5.774   1.578  10.300 -0.7781 -0.0208  0.2954
  801MOL0     C 8046   5.842   1.647  10.400  0.3542 -0.5525 -0.5396
  801MOL0     O 8047   5.905   1.778  10.652  0.8774  0.0938 -0.5015
  801MOL0     C 8048   6.261   1.764  10.665  0.3898  0.7158  0.0921
  801MOL0     C 8049   6.359   1.789  10.760  0.3111  0.2567  0.5561
  801MOL0     N 8050   6.837   1.803  10.841  1.1004 -0.3561 -0.4024
  801MOL0     N 8051   6.818   1.861  10.725 -0.3722 -0.0261  0.7564
  801MOL0     C 8052   5.992   2.482  10.231  0.7647  0.0934  0.2945
  801MOL0     C 8053   5.970   2.578  10.134 -0.0501  0.0423  0.5752
  801MOL0     C 8054   5.845   2.942   9.900 -0.5688 -0.0941  0.2943
  801MOL0     C 8055   5.890   3.067   9.954 -0.8184 -0.1170 -0.3570
  801MOL0     C 8056   5.861   3.184   9.895 -0.3675 -0.9359  0.1907
  801MOL0     C 8057   5.783   3.202   9.782 -0.2396  1.4951  0.6520
  801MOL0     O 8058   5.760   3.317   9.721  0.3320 -0.0787 -0.0432
  801MOL0     C 8059   5.769   3.446   9.794  0.3154  0.8626  0.5132
  801MOL0     C 8060   5.676   3.478   9.909 -0.8002  0.3563 -0.2319
  801MOL0     C 8061   5.537   3.415   9.896 -0.0868  0.7677  0.4280
  801MOL0     C 8062   5.465   3.474   9.769  0.5903  0.1828 -0.4560
  801MOL0     C 8063   5.330   3.411   9.759  0.4821 -0.1705 -0.1570
  801MOL0     C 8064   5.229   3.345   9.760 -0.6377  0.1726 -0.9424
  801MOL0     C 8065   5.738   3.079   9.726  0.5259  0.5880  0.3777
  801MOL0     C 8066   5.770   2.945   9.775 -0.7734  0.7242 -0.1813
  801MOL0     C 8067   5.716   2.821   9.700 -0.8687 -0.2028  0.2983
  801MOL0     H 8068   6.048   2.853  10.309 -2.8602  0.6217 -1.3124
  801MOL0     H 8069   6.090   2.673  10.479  1.5087 -0.8789  0.3100
  801MOL0     H 8070   6.216   2.468  10.541 -0.4014 -0.7473 -3.0138
  801MOL0     H 8071   6.082   2.528  10.638 -0.2289  0.4977 -0.1575
  801MOL0     H 8072   6.051   2.269  10.675  0.6009  1.2374  0.3178
  801MOL0     H 8073   6.207   2.309  10.739  2.8700  0.3878 -0.6577
  801MOL0     H 8074   6.204   2.253  10.443 -0.0011 -1.6585 -0.5691
  801MOL0     H 8075   6.117   2.142  10.529 -1.4214  1.1560 -1.2284
  801MOL0     H 8076   6.349   2.115  10.659  0.4684  1.4327  1.3890
  801MOL0     H 8077   6.334   2.075  10.480 -2.2637  1.6773 -1.9425
  801MOL0     H 8078   6.433   2.308  10.437  2.3642  0.2759  1.0668
  801MOL0     H 8079   6.459   2.318  10.622  1.6992 -0.8911  0.3861
  801MOL0     H 8080   6.578   2.108  10.432  3.3606  0.2325  0.0614
  801MOL0     H 8081   6.661   2.259  10.479 -0.7511  0.3611 -0.7973
  801MOL0     H 8082   6.582   2.019  10.631 -3.2223  2.0463  0.5928
  801MOL0     H 8083   6.602   2.177  10.724  1.3556 -2.6633  3.3517
  801MOL0     H 8084   6.811   2.075  10.548  0.0789  1.0434 -0.6212
  801MOL0     H 8085   6.817   2.205  10.668 -0.7656 -0.2358 -0.5796
  801MOL0     H 8086   6.856   2.110  10.938  0.4754  2.2980 -3.6552
  801MOL0     H 8087   6.948   1.876  11.134 -1.2434  1.9201  2.8681
  801MOL0     H 8088   6.803   1.970  11.119  0.6580  2.0344 -4.7583
  801MOL0     H 8089   6.794   1.672  11.047  2.0745 -1.4840  1.1549
  801MOL0     H 8090   6.770   1.710  11.213 -2.9343 -1.5021 -0.0139
  801MOL0     H 8091   6.596   1.887  11.171 -0.4077  1.2307 -0.8612
  801MOL0     H 8092   6.547   1.724  11.181 -2.2810  2.3314 -0.3540
  801MOL0     H 8093   6.561   1.696  10.931 -2.6233 -1.3158  2.0309
  801MOL0     H 8094   6.602   1.863  10.909  0.2108  3.2754  2.2240
  801MOL0     H 8095   6.191   1.864  11.034  2.9678  3.1391  0.5279
  801MOL0     H 8096   5.992   1.812  10.873 -0.3528  1.3962 -1.8290
  801MOL0     H 8097   6.151   1.602  10.289  0.5544  0.8459  1.6995
  801MOL0     H 8098   6.031   1.482  10.110  0.7029 -1.7749  1.7744
  801MOL0     H 8099   5.749   1.329   9.955  2.1958 -0.0207 -1.6261
  801MOL0     H 8100   5.899   1.312  10.049  0.1807 -1.3052 -1.0120
  801MOL0     H 8101   5.742   1.141  10.110  2.3031 -1.9414  4.0597
  801MOL0     H 8102   5.771   1.241  10.258  0.8307 -0.0074 -0.5825
  801MOL0     H 8103   5.577   1.356  10.232 -0.4942 -2.1055  3.7718
  801MOL0     H 8104   5.553   1.289  10.065  0.9339 -1.0986  0.0144
  801MOL0     H 8105   5.514   1.145  10.342 -2.5226 -0.2523  0.7608
  801MOL0     H 8106   5.512   1.060  10.189  0.1308  0.0093  0.8643
  801MOL0     H 8107   5.346   1.309  10.277 -0.9833  0.1341  0.9348
  801MOL0     H 8108   5.286   1.150  10.313  0.9926  2.0408  1.1785
  801MOL0     H 8109   5.347   1.244  10.036 -2.2698  0.5756 -1.9456
  801MOL0     H 8110   5.278   1.089  10.085 -2.8715  0.7422 -1.6524
  801MOL0     H 8111   5.170   1.374  10.085  0.0666 -0.6154 -1.1132
  801MOL0     H 8112   5.107   1.272  10.211  0.6690  3.6181 -0.2111
  801MOL0     H 8113   5.123   1.193   9.925  2.4818 -2.4709  2.1458
  801MOL0     H 8114   5.038   1.107  10.051  0.9011 -0.8765  0.1590
  801MOL0     H 8115   5.665   1.572  10.301 -0.8801  1.3738 -0.3399
  801MOL0     H 8116   5.775   1.675  10.481 -3.4579 -2.6522 -2.6549
  801MOL0     H 8117   6.303   1.748  10.566 -0.5782 -2.2938  0.0625
  801MOL0     H 8118   6.466   1.782  10.744  0.5967  0.6988  2.0916
  801MOL0     H 8119   5.974   2.376  10.213 -1.1230 -0.4337  4.1621
  801MOL0     H 8120   5.935   2.546  10.036  0.2175  4.2292 -1.0757
  801MOL0     H 8121   5.934   3.081  10.052 -1.3498 -0.2273 -0.0992
  801MOL0     H 8122   5.900   3.269   9.949  0.2931 -0.4754 -0.9899
  801MOL0     H 8123   5.757   3.516   9.710 -2.1831 -1.0428 -0.8529
  801MOL0     H 8124   5.874   3.464   9.820 -0.6725  0.8831  5.5173
  801MOL0     H 8125   5.661   3.586   9.920 -3.4612  0.2992 -2.2074
  801MOL0     H 8126   5.715   3.442  10.005 -0.0886  3.7188  0.8807
  801MOL0     H 8127   5.480   3.419   9.989 -2.5740  0.3883 -0.9678
  801MOL0     H 8128   5.549   3.310   9.866  0.0825  1.2262 -1.2374
  801MOL0     H 8129   5.447   3.580   9.786  4.8960  1.5837 -2.9886
  801MOL0     H 8130   5.513   3.457   9.672  0.9613 -1.6530  0.0069
  801MOL0     H 8131   5.144   3.283   9.781 -0.5875 -0.5716 -2.8144
  801MOL0     H 8132   5.675   3.079   9.637  1.6809 -5.0453 -0.8404
  801MOL0     H 8133   5.797   2.752   9.673 -0.5782 -1.0451  3.0171
  801MOL0     H 8134   5.652   2.762   9.766 -1.8292 -1.3485 -1.5737
  801MOL0     H 8135   5.651   2.842   9.614 -0.3909 -0.9925 -0.2747
  802MOL0     O 8136   1.598   8.186   9.156  0.4828 -0.0704  0.1991
  802MOL0     C 8137   1.639   8.071   9.143 -0.0095 -0.7916  0.4024
  802MOL0     O 8138   1.761   8.040   9.097  0.1075  0.5463 -0.1197
  802MOL0     C 8139   1.839   8.146   9.082  0.4735 -0.0251 -0.4245
  802MOL0     C 8140   1.845   8.213   8.966  0.4771 -0.1480 -0.5719
  802MOL0     C 8141   1.936   8.321   8.942  0.2163  0.8443  0.8710
  802MOL0     C 8142   2.027   8.356   9.040 -0.0638  0.1078  0.4831
  802MOL0     O 8143   2.123   8.445   8.995  0.4130 -0.1684  0.3948
  802MOL0     C 8144   2.254   8.389   8.966 -0.8706 -0.0364 -0.1890
  802MOL0     C 8145   2.269   8.344   8.814 -0.4075  0.2179 -0.6418
  802MOL0     C 8146   2.331   8.455   8.731 -0.7760 -0.2531  0.7814
  802MOL0     C 8147   2.485   8.462   8.696  0.1252 -0.4334 -0.1702
  802MOL0     C 8148   2.546   8.358   8.603 -0.3091 -0.2645 -0.8542
  802MOL0     C 8149   2.460   8.312   8.481  0.5718  0.9140 -0.7208
  802MOL0     C 8150   2.448   8.433   8.386  0.2877  0.2940  0.6982
  802MOL0     C 8151   2.357   8.389   8.275 -0.3134 -0.4781  0.5140
  802MOL0     N 8152   2.416   8.286   8.181 -0.0698 -0.1885 -0.4894
  802MOL0     C 8153   2.427   8.154   8.198 -0.0526 -0.2515  0.6254
  802MOL0     C 8154   2.484   8.107   8.084 -0.5908 -0.4770  0.0698
  802MOL0     C 8155   2.490   7.969   8.021  0.6256 -0.2590 -0.2514
  802MOL0     C 8156   2.382   7.952   7.906 -0.9610 -0.9833 -0.5134
  802MOL0     C 8157   2.426   8.018   7.771 -0.1439  0.7238  0.6153
  802MOL0     C 8158   2.348   8.007   7.639  0.3864  0.3846  0.1369
  802MOL0     O 8159   2.352   7.874   7.580  0.3545  0.5349  0.9140
  802MOL0     C 8160   2.254   7.842   7.493 -0.4866 -0.1080 -0.1452
  802MOL0     C 8161   2.252   7.713   7.467 -0.0024 -0.7034  0.2153
  802MOL0     C 8162   2.178   7.655   7.366 -0.5126 -0.2845  0.4289
  802MOL0     C 8163   2.087   7.730   7.296 -0.0335  0.2868 -0.9132
  802MOL0     C 8164   1.994   7.660   7.195  0.0774 -0.9008 -0.9453
  802MOL0     O 8165   1.993   7.522   7.205  0.3810 -0.0395  0.2003
  802MOL0     C 8166   1.910   7.440   7.130 -0.0175  0.4261 -0.0708
  802MOL0     C 8167   1.923   7.308   7.174 -0.4227  0.2501 -0.6527
  802MOL0     C 8168   1.841   7.207   7.120  1.1664 -0.0977  0.0841
  802MOL0     C 8169   1.745   7.240   7.025  0.5379  0.8327  0.9606
  802MOL0     O 8170   1.647   7.147   6.981 -0.4176  0.6181 -0.8645
  802MOL0     C 8171   1.616   7.032   7.077 -0.3967 -0.8138  0.2458
  802MOL0     C 8172   1.495   6.982   7.018 -0.4068  1.4717  0.3443
  802MOL0     C 8173   1.442   6.861   7.106 -0.5263 -0.1175  1.0015
  802MOL0     C 8174   1.395   6.747   7.002 -0.1837 -0.7181 -1.5990
  802MOL0     C 8175   1.345   6.617   7.074  0.2811 -0.0378 -0.5412
  802MOL0     C 8176   1.439   6.544   7.170  0.0591  0.3500  0.5852
  802MOL0     C 8177   1.463   6.587   7.317  0.0735 -1.5404 -0.4329
  802MOL0     C 8178   1.535   6.470   7.389 -0.2520 -0.0534  0.6330
  802MOL0    Cl 8179   1.586   6.525   7.559 -0.0981  0.1502  0.0116
  802MOL0     C 8180   1.738   7.369   6.975  0.6650 -0.8918  0.9017
  802MOL0     C 8181   1.812   7.475   7.034  0.3851  0.2623  0.6535
  802MOL0     O 8182   1.934   7.731   7.117 -0.0300 -0.0893 -0.3826
  802MOL0     C 8183   2.078   7.871   7.323 -0.7262  0.8048  0.5494
  802MOL0     C 8184   2.165   7.922   7.422 -0.2220 -0.9339 -0.5241
  802MOL0     N 8185   2.534   8.216   8.015  0.4903 -0.0793 -0.3857
  802MOL0     N 8186   2.494   8.323   8.080  0.0004  0.0676  0.7170
  802MOL0     C 8187   2.029   8.291   9.169  0.2444 -0.6638  1.0008
  802MOL0     C 8188   1.926   8.199   9.184  0.0179  0.3430 -0.2698
  802MOL0     C 8189   1.556   7.950   9.181  0.3180 -0.1680 -1.3222
  802MOL0     C 8190   1.628   7.828   9.219 -0.2888 -0.5681 -0.3538
  802MOL0     C 8191   1.551   7.714   9.258 -0.2289  0.6742  1.0847
  802MOL0     C 8192   1.406   7.714   9.268 -0.9811  0.1541 -0.5639
  802MOL0     O 8193   1.322   7.623   9.310 -0.9478  0.1679  0.2401
  802MOL0     C 8194   1.364   7.484   9.315  0.0601 -0.4680 -0.2005
  802MOL0     C 8195   1.380   7.429   9.179 -0.3350 -1.3527  0.8702
  802MOL0     C 8196   1.275   7.451   9.073  0.4095 -0.2757 -0.0276
  802MOL0     C 8197   1.287   7.355   8.957  0.7481  0.4869 -0.1917
  802MOL0     C 8198   1.198   7.393   8.843 -0.4651 -0.0514  0.2766
  802MOL0     C 8199   1.126   7.404   8.742 -0.2783  0.2331 -0.5891
  802MOL0     C 8200   1.346   7.833   9.233  0.0893 -0.7618  0.9841
  802MOL0     C 8201   1.414   7.951   9.200  0.6839 -0.8284 -0.1946
  802MOL0     C 8202   1.338   8.080   9.192  0.0525 -0.3544  0.8956
  802MOL0     H 8203   1.777   8.167   8.896 -2.3252 -0.6358  2.2645
  802MOL0     H 8204   1.937   8.364   8.842 -1.0539 -0.3916  0.2850
  802MOL0     H 8205   2.341   8.441   9.006  0.5743 -2.1715 -0.4075
  802MOL0     H 8206   2.269   8.296   9.021  1.1990 -1.2162 -2.5633
  802MOL0     H 8207   2.168   8.319   8.781 -0.2567 -0.8650 -0.3325
  802MOL0     H 8208   2.323   8.250   8.799 -2.2403 -1.2211  1.1615
  802MOL0     H 8209   2.307   8.557   8.765  1.1194  1.1102 -1.6273
  802MOL0     H 8210   2.288   8.448   8.631 -1.1747 -3.7245  1.1050
  802MOL0     H 8211   2.504   8.553   8.638  1.8356 -1.5757 -1.5196
  802MOL0     H 8212   2.534   8.464   8.794  1.5035  0.8317 -0.8493
  802MOL0     H 8213   2.647   8.385   8.572  2.0880 -3.2775  3.2977
  802MOL0     H 8214   2.565   8.263   8.653  2.5228  0.6572  0.0315
  802MOL0     H 8215   2.506   8.227   8.429 -2.5444 -0.6718 -1.1414
  802MOL0     H 8216   2.364   8.277   8.520  1.5198  0.7046  1.5583
  802MOL0     H 8217   2.549   8.469   8.364  0.3903  0.1625  0.9490
  802MOL0     H 8218   2.397   8.517   8.434 -0.7390  1.9018 -2.8729
  802MOL0     H 8219   2.270   8.346   8.326  1.2117 -4.9942 -0.2169
  802MOL0     H 8220   2.329   8.477   8.216  2.5525 -0.2152 -0.5932
  802MOL0     H 8221   2.371   8.098   8.272 -0.8594  1.1336  1.1005
  802MOL0     H 8222   2.592   7.955   7.982  2.6837  2.1961  3.5587
  802MOL0     H 8223   2.480   7.898   8.103  1.7890  2.4964  2.4883
  802MOL0     H 8224   2.378   7.844   7.890 -0.5793 -0.8473 -1.6103
  802MOL0     H 8225   2.291   8.007   7.934  0.3044  2.3285 -2.3092
  802MOL0     H 8226   2.521   7.969   7.750 -1.3830 -2.5987  1.9930
  802MOL0     H 8227   2.435   8.122   7.802  0.4636  0.1945  2.2910
  802MOL0     H 8228   2.392   8.073   7.563 -2.1231  0.8696 -0.9698
  802MOL0     H 8229   2.248   8.044   7.661  0.0658 -0.3806 -0.0223
  802MOL0     H 8230   2.309   7.644   7.529  0.8456  0.4028  0.6911
  802MOL0     H 8231   2.194   7.548   7.356  1.9896 -0.0282  0.9447
  802MOL0     H 8232   2.002   7.292   7.247 -0.6394  2.5647  0.1709
  802MOL0     H 8233   1.861   7.105   7.149  0.7262 -0.1775  0.1143
  802MOL0     H 8234   1.693   6.955   7.086  1.1908  0.5831 -0.7456
  802MOL0     H 8235   1.586   7.051   7.181 -0.8830 -0.5810  0.0686
  802MOL0     H 8236   1.419   7.060   7.005 -3.0426 -0.5673  2.4092
  802MOL0     H 8237   1.534   6.954   6.919  3.8616  2.1070  1.6419
  802MOL0     H 8238   1.519   6.826   7.176  2.4115  1.7665 -1.0248
  802MOL0     H 8239   1.354   6.899   7.158 -0.9966 -0.8784  0.7742
  802MOL0     H 8240   1.482   6.721   6.941  0.6902  0.6573 -0.9845
  802MOL0     H 8241   1.312   6.771   6.935  0.0445 -1.4180 -2.1385
  802MOL0     H 8242   1.336   6.544   6.993 -1.2941 -1.2911  0.7039
  802MOL0     H 8243   1.246   6.634   7.117 -0.4183  0.7588 -2.3631
  802MOL0     H 8244   1.404   6.442   7.180 -2.1352  1.0130  0.1096
  802MOL0     H 8245   1.535   6.543   7.118  0.8330 -4.3645  1.6549
  802MOL0     H 8246   1.369   6.614   7.366  0.0209 -0.4293 -1.1013
  802MOL0     H 8247   1.533   6.671   7.326 -0.9826 -0.8414  2.3110
  802MOL0     H 8248   1.467   6.386   7.402  1.4009 -1.4690  0.5580
  802MOL0     H 8249   1.624   6.437   7.334 -0.0428  0.0923  0.8770
  802MOL0     H 8250   1.658   7.385   6.903 -0.4954 -2.9479  1.6162
  802MOL0     H 8251   1.781   7.575   7.007 -0.3218  0.7050  2.8503
  802MOL0     H 8252   2.013   7.931   7.260  0.5812 -1.2892 -3.0978
  802MOL0     H 8253   2.152   8.029   7.437  0.5531 -0.6012 -2.0385
  802MOL0     H 8254   2.104   8.313   9.244 -0.0079 -0.4209  1.1817
  802MOL0     H 8255   1.922   8.172   9.289  3.1832 -0.2081 -0.1897
  802MOL0     H 8256   1.735   7.813   9.216  0.0674  1.3177  0.9912
  802MOL0     H 8257   1.599   7.622   9.291 -0.8948 -0.7205 -1.5064
  802MOL0     H 8258   1.286   7.433   9.372  0.2159  1.2844  1.7235
  802MOL0     H 8259   1.456   7.455   9.368  2.1347  1.5793 -2.4180
  802MOL0     H 8260   1.393   7.322   9.198  0.0638 -1.9310 -2.1777
  802MOL0     H 8261   1.469   7.460   9.124 -3.2987  1.0944 -3.1190
  802MOL0     H 8262   1.293   7.553   9.039 -3.2002 -0.1149 -2.0432
  802MOL0     H 8263   1.182   7.450   9.130  0.3220 -1.3348 -0.1563
  802MOL0     H 8264   1.384   7.355   8.907  0.4871 -2.8467 -0.9090
  802MOL0     H 8265   1.256   7.251   8.974  0.1981  0.8753  1.3726
  802MOL0     H 8266   1.056   7.415   8.662  1.3807 -1.3622 -2.3796
  802MOL0     H 8267   1.238   7.846   9.232  0.3696  2.1047  0.2329
  802MOL0     H 8268   1.364   8.123   9.289  0.1186  2.8626 -0.4363
  802MOL0     H 8269   1.390   8.126   9.108 -1.3538 -2.0969 -1.0422
  802MOL0     H 8270   1.230   8.069   9.176  0.2830 -1.0617 -0.2714
  803MOL0     O 8271   6.366   5.638   2.947  0.8330  0.2285  0.0693
  803MOL0     C 8272   6.372   5.524   2.985  0.9090 -0.4094  0.1387
  803MOL0     O 8273   6.480   5.442   2.979  0.5315 -0.6812  0.2787
  803MOL0     C 8274   6.597   5.501   2.987 -0.2056 -0.6142 -0.8800
  803MOL0     C 8275   6.654   5.515   3.110 -0.8103  0.3440 -0.2745
  803MOL0     C 8276   6.781   5.563   3.122  0.0752  0.4043  0.4197
  803MOL0     C 8277   6.857   5.591   3.003  0.2073  0.4300  0.3769
  803MOL0     O 8278   6.989   5.631   3.017  0.2914 -0.4420 -1.0847
  803MOL0     C 8279   7.049   5.673   2.899  0.5366  0.0130 -0.9953
  803MOL0     C 8280   7.194   5.716   2.921 -0.5820 -0.5790 -1.0478
  803MOL0     C 8281   7.200   5.864   2.986  0.7979  0.0820 -0.8164
  803MOL0     C 8282   7.333   5.937   2.958  0.0122 -0.0851 -1.5229
  803MOL0     C 8283   7.450   5.879   3.039  0.4739 -0.4466 -0.7447
  803MOL0     C 8284   7.586   5.936   2.987  0.4668 -0.2151 -0.0030
  803MOL0     C 8285   7.701   5.848   3.046  0.5667 -0.1910 -0.1390
  803MOL0     C 8286   7.837   5.916   3.041 -0.6158 -0.6655  0.2446
  803MOL0     N 8287   7.948   5.818   3.042 -0.0293 -0.3331 -0.9960
  803MOL0     C 8288   8.020   5.780   3.154  0.3223  0.6268 -0.4265
  803MOL0     C 8289   8.102   5.685   3.107 -0.1002  0.4701  0.4117
  803MOL0     C 8290   8.195   5.602   3.195 -0.5546  0.1588 -0.5506
  803MOL0     C 8291   8.163   5.451   3.198  0.3227  0.7697 -0.4576
  803MOL0     C 8292   8.234   5.366   3.305 -0.2430 -0.4526 -0.9651
  803MOL0     C 8293   8.246   5.215   3.284  1.0927 -0.0215  0.0438
  803MOL0     O 8294   8.371   5.162   3.311  0.0820  0.4949 -1.3462
  803MOL0     C 8295   8.400   5.027   3.289  0.6227 -0.3103  0.6561
  803MOL0     C 8296   8.502   4.977   3.370  0.1894  0.4204  1.1050
  803MOL0     C 8297   8.537   4.844   3.359  0.1939  0.8544  0.1127
  803MOL0     C 8298   8.470   4.751   3.282 -0.1379 -0.4180  0.3184
  803MOL0     C 8299   8.532   4.619   3.255 -1.1971  0.1048  0.6583
  803MOL0     O 8300   8.548   4.573   3.124  0.2134  0.5375  0.2806
  803MOL0     C 8301   8.572   4.450   3.094 -0.3836  1.5120  0.1718
  803MOL0     C 8302   8.673   4.376   3.163 -0.1847  0.2816  0.7093
  803MOL0     C 8303   8.693   4.240   3.130  0.2714 -0.0141 -0.6697
  803MOL0     C 8304   8.623   4.174   3.032 -0.3970 -0.5158 -0.3224
  803MOL0     O 8305   8.634   4.041   3.000  0.0344  0.1797  1.1281
  803MOL0     C 8306   8.670   3.947   3.101  0.6633  0.9336  1.0042
  803MOL0     C 8307   8.584   3.821   3.077  0.3847  0.5706  0.9584
  803MOL0     C 8308   8.645   3.734   2.977 -0.3476 -0.1854 -0.3883
  803MOL0     C 8309   8.565   3.611   2.944  0.7128 -0.2970 -0.2853
  803MOL0     C 8310   8.556   3.527   3.075  0.6424 -0.0562 -0.3030
  803MOL0     C 8311   8.507   3.387   3.040 -0.3962  0.0361 -0.2329
  803MOL0     C 8312   8.360   3.356   3.079  0.3059 -0.3725  0.2951
  803MOL0     C 8313   8.313   3.241   2.997  0.5153  1.2271  0.3329
  803MOL0    Cl 8314   8.272   3.285   2.835 -1.0094 -0.1520 -0.1480
  803MOL0     C 8315   8.532   4.258   2.957 -0.6093 -0.4314  0.2722
  803MOL0     C 8316   8.499   4.395   2.990 -0.9273 -0.2550  0.6641
  803MOL0     O 8317   8.565   4.555   3.365 -0.3776  0.1980  0.7241
  803MOL0     C 8318   8.357   4.802   3.218  0.6749  0.3803  0.7511
  803MOL0     C 8319   8.322   4.929   3.218 -0.1450 -1.1124 -0.6212
  803MOL0     N 8320   8.100   5.672   2.969 -1.1219 -0.5382 -0.6870
  803MOL0     N 8321   8.013   5.755   2.938  0.2018 -1.0404  0.7855
  803MOL0     C 8322   6.788   5.574   2.879 -0.5112 -0.5465 -0.2567
  803MOL0     C 8323   6.660   5.528   2.872 -1.3045 -0.2817  0.0910
  803MOL0     C 8324   6.246   5.459   3.025 -0.0825 -0.8620 -0.1591
  803MOL0     C 8325   6.209   5.348   2.957 -0.7850  1.3834 -0.2317
  803MOL0     C 8326   6.096   5.268   2.998 -0.0422 -0.9783  0.7406
  803MOL0     C 8327   6.013   5.312   3.101 -0.8274 -0.3557  0.5863
  803MOL0     O 8328   5.886   5.265   3.110  0.8380 -0.3832 -0.3141
  803MOL0     C 8329   5.796   5.303   3.216 -0.6202  0.3795 -0.0740
  803MOL0     C 8330   5.684   5.196   3.220  0.6941 -0.3628  0.0050
  803MOL0     C 8331   5.579   5.219   3.104 -0.3737  0.6912 -0.3701
  803MOL0     C 8332   5.585   5.108   2.993 -0.0264  0.1549  0.0214
  803MOL0     C 8333   5.534   4.987   3.050 -0.0502 -0.9023 -0.4077
  803MOL0     C 8334   5.500   4.884   3.105 -0.4605 -0.4733 -1.0757
  803MOL0     C 8335   6.040   5.433   3.160 -0.4111  0.0714  0.0488
  803MOL0     C 8336   6.155   5.512   3.124 -0.8106  0.7253 -0.4383
  803MOL0     C 8337   6.197   5.639   3.184 -0.6451 -0.3717 -0.9401
  803MOL0     H 8338   6.594   5.486   3.195 -1.9956 -2.7060 -2.0152
  803MOL0     H 8339   6.827   5.591   3.216  2.5211  0.0725 -0.6093
  803MOL0     H 8340   7.050   5.598   2.820 -1.2777 -1.7988  0.5998
  803MOL0     H 8341   6.997   5.762   2.862  1.3580  0.0474 -2.1038
  803MOL0     H 8342   7.260   5.708   2.834 -1.2585 -0.3471 -1.5896
  803MOL0     H 8343   7.242   5.640   2.984 -1.9968 -1.1706 -0.6257
  803MOL0     H 8344   7.193   5.869   3.095 -0.8775  0.4156 -0.9157
  803MOL0     H 8345   7.120   5.922   2.939  1.7368  4.0944  2.0277
  803MOL0     H 8346   7.348   5.941   2.850 -1.7876  0.3935 -1.7765
  803MOL0     H 8347   7.331   6.038   2.999  0.3066 -0.6936  0.0712
  803MOL0     H 8348   7.436   5.899   3.145  2.8705 -1.2587 -0.2025
  803MOL0     H 8349   7.455   5.769   3.031 -0.7096 -0.5937  0.3760
  803MOL0     H 8350   7.590   5.943   2.878 -0.7461  0.8578  0.0014
  803MOL0     H 8351   7.598   6.034   3.033  1.3993 -0.8933  1.2828
  803MOL0     H 8352   7.692   5.754   2.991 -0.3150  1.3209 -2.7656
  803MOL0     H 8353   7.687   5.816   3.150  0.8691  2.0507  0.6475
  803MOL0     H 8354   7.835   5.958   2.941  0.3683  0.5793  0.7275
  803MOL0     H 8355   7.854   5.998   3.111 -0.8320 -1.1229  0.8407
  803MOL0     H 8356   8.007   5.824   3.252  1.1581  1.2993 -0.6077
  803MOL0     H 8357   8.297   5.610   3.156  0.0186 -0.3897  0.7867
  803MOL0     H 8358   8.201   5.652   3.292 -2.2662 -2.0715  0.8039
  803MOL0     H 8359   8.058   5.423   3.207  0.9832 -1.1098  3.2922
  803MOL0     H 8360   8.195   5.406   3.103  3.0290  0.0080  0.7095
  803MOL0     H 8361   8.174   5.367   3.396  1.7402 -2.0793  0.4415
  803MOL0     H 8362   8.335   5.404   3.321  0.1391 -1.0088 -1.9206
  803MOL0     H 8363   8.225   5.201   3.178 -2.2918  0.7409  0.5078
  803MOL0     H 8364   8.174   5.168   3.351  0.1984  1.8695  0.5037
  803MOL0     H 8365   8.559   5.051   3.425 -0.3133  0.0239  2.1843
  803MOL0     H 8366   8.639   4.820   3.390  0.9511  2.0467 -1.3239
  803MOL0     H 8367   8.725   4.408   3.253  2.3521  1.5529 -1.0835
  803MOL0     H 8368   8.754   4.187   3.202 -2.0396  3.0208  4.0456
  803MOL0     H 8369   8.772   3.906   3.104 -0.5529 -2.2674  3.0515
  803MOL0     H 8370   8.637   3.988   3.196  1.4173  2.5217  0.6111
  803MOL0     H 8371   8.586   3.771   3.174  2.6744  2.2274  1.8462
  803MOL0     H 8372   8.489   3.851   3.031  0.0420 -1.4979  0.1943
  803MOL0     H 8373   8.667   3.794   2.888  2.7828 -0.2053  0.2221
  803MOL0     H 8374   8.742   3.696   3.011  1.3654  1.5575 -2.9387
  803MOL0     H 8375   8.615   3.553   2.865 -1.5640 -1.3735 -1.0008
  803MOL0     H 8376   8.464   3.638   2.913  0.7529 -1.8101 -1.8559
  803MOL0     H 8377   8.482   3.574   3.140 -0.7456  0.0950 -1.9163
  803MOL0     H 8378   8.659   3.520   3.112  0.7937 -1.8086 -0.9457
  803MOL0     H 8379   8.503   3.375   2.932  1.6329 -1.4600 -0.2168
  803MOL0     H 8380   8.571   3.305   3.073  0.8113  0.5708 -1.1878
  803MOL0     H 8381   8.296   3.444   3.062 -0.7325 -1.6850 -3.5383
  803MOL0     H 8382   8.353   3.335   3.186  0.6592  1.9230  0.8406
  803MOL0     H 8383   8.389   3.162   2.994 -1.2148 -0.5176  0.0695
  803MOL0     H 8384   8.221   3.200   3.040  2.0906 -2.1995  0.7845
  803MOL0     H 8385   8.472   4.205   2.885  1.0536  0.2245 -1.7002
  803MOL0     H 8386   8.432   4.461   2.936 -0.1091 -2.0593 -2.8079
  803MOL0     H 8387   8.294   4.741   3.153  0.2906  1.9646 -0.4426
  803MOL0     H 8388   8.239   4.964   3.157 -2.9889 -5.9305 -0.0013
  803MOL0     H 8389   6.848   5.591   2.790  0.9654  0.6890  0.9128
  803MOL0     H 8390   6.602   5.516   2.782  0.2680  0.8067 -1.1282
  803MOL0     H 8391   6.253   5.333   2.859 -2.7664  1.5785 -1.2027
  803MOL0     H 8392   6.061   5.185   2.938  3.4564 -1.6986 -0.6008
  803MOL0     H 8393   5.761   5.406   3.209  3.6709  2.1079  0.4981
  803MOL0     H 8394   5.848   5.307   3.312 -1.4425  1.7336  0.3291
  803MOL0     H 8395   5.637   5.201   3.318  0.3724  1.2030 -0.2022
  803MOL0     H 8396   5.720   5.093   3.222 -0.7154 -0.9212 -1.4031
  803MOL0     H 8397   5.584   5.319   3.060  1.2826  0.1149 -1.5843
  803MOL0     H 8398   5.479   5.204   3.147 -0.2833  0.0134 -0.3850
  803MOL0     H 8399   5.522   5.138   2.909 -0.2576 -2.3470 -0.7912
  803MOL0     H 8400   5.688   5.082   2.966 -0.1028 -0.3517  0.2062
  803MOL0     H 8401   5.474   4.801   3.168 -0.3939  0.6146  0.4259
  803MOL0     H 8402   5.971   5.488   3.223  1.3480  3.2383 -0.5410
  803MOL0     H 8403   6.190   5.720   3.112  1.5474  4.3597  3.5187
  803MOL0     H 8404   6.128   5.660   3.267 -1.6214 -2.9944 -0.9830
  803MOL0     H 8405   6.300   5.627   3.217 -0.5988 -4.6183 -1.9686
  804MOL0     O 8406   3.606   9.552   0.301 -0.2842 -0.2177  0.1820
  804MOL0     C 8407   3.670   9.647   0.350 -0.4128 -0.4805 -0.4938
  804MOL0     O 8408   3.688   9.661   0.487  0.6632 -0.1936  1.3890
  804MOL0     C 8409   3.591   9.613   0.563 -0.0096 -1.9954  0.6209
  804MOL0     C 8410   3.456   9.650   0.568  0.0432 -0.1220  0.2901
  804MOL0     C 8411   3.372   9.592   0.668  0.5935 -0.1296  0.8508
  804MOL0     C 8412   3.410   9.492   0.759  0.1896  0.1401  0.5950
  804MOL0     O 8413   3.307   9.459   0.851 -0.0625 -0.0147  0.3880
  804MOL0     C 8414   3.342   9.447   0.988  0.3256 -0.0640 -0.8703
  804MOL0     C 8415   3.216   9.449   1.091  0.5860 -0.2836  1.0877
  804MOL0     C 8416   3.188   9.600   1.116 -0.6449  0.7096 -0.3054
  804MOL0     C 8417   3.063   9.634   1.207 -0.9957  0.2560  0.9091
  804MOL0     C 8418   3.074   9.779   1.253  0.8442  0.7834 -0.6194
  804MOL0     C 8419   2.982   9.800   1.379 -0.5682  0.0609  0.7211
  804MOL0     C 8420   2.932   9.942   1.373 -0.2346  0.1662  0.1568
  804MOL0     C 8421   2.875   9.981   1.514  0.7659 -0.3396 -0.2778
  804MOL0     N 8422   2.988   9.995   1.614 -0.8757  0.3742 -0.4809
  804MOL0     C 8423   3.005   9.924   1.731  0.5446 -0.0354  0.3415
  804MOL0     C 8424   3.081   9.996   1.812  0.2918  0.3303 -0.9418
  804MOL0     C 8425   3.119   9.938   1.936 -0.4195  0.6271 -0.0303
  804MOL0     C 8426   3.261   9.996   1.974 -0.1861 -0.0926 -0.3012
  804MOL0     C 8427   3.306   9.951   2.115 -0.4885  0.4276 -0.0478
  804MOL0     C 8428   3.458   9.931   2.129 -1.0769  0.5046 -0.0229
  804MOL0     O 8429   3.488   9.890   2.267  0.0314 -0.3216  1.0127
  804MOL0     C 8430   3.621   9.892   2.320  1.0937 -0.2164  0.5095
  804MOL0     C 8431   3.646   9.897   2.456  0.2075 -1.4060  0.0738
  804MOL0     C 8432   3.775   9.898   2.494  0.8311 -0.0214 -0.2446
  804MOL0     C 8433   3.888   9.892   2.414 -0.0515 -0.1284  0.7121
  804MOL0     C 8434   4.025   9.889   2.467 -0.1439 -0.4590  1.1940
  804MOL0     O 8435   4.111   9.855   2.373 -0.1139  0.3346 -0.2169
  804MOL0     C 8436   4.246   9.825   2.389 -0.5644  0.5738  0.3785
  804MOL0     C 8437   4.315   9.812   2.512 -1.5306  0.1742 -0.5025
  804MOL0     C 8438   4.445   9.774   2.527  0.2562  0.4910  0.1972
  804MOL0     C 8439   4.517   9.730   2.409  0.4403  0.4082  0.9414
  804MOL0     O 8440   4.648   9.691   2.409 -0.0436  0.6182 -0.4569
  804MOL0     C 8441   4.688   9.600   2.515 -0.9532 -0.0180  0.1746
  804MOL0     C 8442   4.831   9.562   2.494 -0.2359 -0.1060  0.9460
  804MOL0     C 8443   4.919   9.684   2.533  0.4652 -0.4710 -0.6307
  804MOL0     C 8444   4.952   9.685   2.683 -0.4662 -1.1198  0.3348
  804MOL0     C 8445   5.039   9.800   2.730  0.0933 -0.2624  0.2942
  804MOL0     C 8446   5.205   9.777   2.723  0.2627  0.2268 -0.1935
  804MOL0     C 8447   5.247   9.784   2.579  1.1460 -0.5307 -0.6690
  804MOL0     C 8448   5.396   9.777   2.551  0.8131  1.2541 -0.5869
  804MOL0    Cl 8449   5.439   9.802   2.386  0.1723 -0.3473  0.1581
  804MOL0     C 8450   4.452   9.755   2.284  0.7596  0.2131  0.9364
  804MOL0     C 8451   4.326   9.806   2.276  0.1417  0.4592 -0.1349
  804MOL0     O 8452   4.045   9.904   2.584 -0.6068  0.4408 -0.0836
  804MOL0     C 8453   3.863   9.874   2.278  0.1589 -0.3040 -0.3188
  804MOL0     C 8454   3.733   9.882   2.235  0.8456  1.0648  1.9361
  804MOL0     N 8455   3.121  10.115   1.762 -0.1352 -0.1626 -0.1504
  804MOL0     N 8456   3.059  10.113   1.644  0.2545  0.4052  0.0360
  804MOL0     C 8457   3.543   9.447   0.755  1.1699 -0.7716  0.6413
  804MOL0     C 8458   3.633   9.518   0.661  0.2071 -0.3623  0.1721
  804MOL0     C 8459   3.738   9.730   0.246 -0.6393 -0.2423 -0.0594
  804MOL0     C 8460   3.855   9.802   0.292  0.7240 -0.0374 -0.4744
  804MOL0     C 8461   3.948   9.875   0.210 -0.6314 -0.9244 -0.2451
  804MOL0     C 8462   3.907   9.876   0.073  0.3226  0.7279  0.5653
  804MOL0     O 8463   3.988   9.950  -0.014  0.4089  0.2329 -0.2803
  804MOL0     C 8464   4.006   9.917  -0.159 -0.4445  0.8074  0.1070
  804MOL0     C 8465   4.066   9.770  -0.168  0.7930 -0.7781  0.4860
  804MOL0     C 8466   4.220   9.787  -0.135 -0.4944  0.8485  0.5053
  804MOL0     C 8467   4.246   9.749   0.012  0.7115 -0.2404 -0.8763
  804MOL0     C 8468   4.381   9.755   0.044 -0.5927 -0.0493 -0.2404
  804MOL0     C 8469   4.497   9.763   0.066  0.6603 -0.4495 -0.3692
  804MOL0     C 8470   3.799   9.799   0.024 -0.8272  0.4845  0.3010
  804MOL0     C 8471   3.709   9.727   0.108  0.5293 -0.2982  1.0614
  804MOL0     C 8472   3.598   9.657   0.041  0.6896 -0.0281 -0.2583
  804MOL0     H 8473   3.413   9.711   0.490 -1.9015  0.9203  2.0700
  804MOL0     H 8474   3.268   9.620   0.680  0.8146  0.0512  2.6473
  804MOL0     H 8475   3.402   9.358   1.009  0.5875  0.6750  1.8348
  804MOL0     H 8476   3.393   9.538   1.020  3.1404 -2.4827  2.1618
  804MOL0     H 8477   3.241   9.390   1.179  1.6571 -5.8628 -2.4125
  804MOL0     H 8478   3.130   9.402   1.041  1.6569 -0.7305 -0.4037
  804MOL0     H 8479   3.199   9.658   1.024 -2.2108 -1.1100 -1.7326
  804MOL0     H 8480   3.271   9.639   1.175 -0.7162 -0.8928  0.8917
  804MOL0     H 8481   2.968   9.609   1.159 -0.9170 -0.1603  0.9660
  804MOL0     H 8482   3.077   9.563   1.288  1.5346  2.6820  2.7800
  804MOL0     H 8483   3.174   9.811   1.283 -0.2341  0.9680  3.3014
  804MOL0     H 8484   3.056   9.844   1.167  4.7156  1.6199 -0.9750
  804MOL0     H 8485   2.892   9.740   1.370  0.7443 -1.8061 -0.8204
  804MOL0     H 8486   3.052   9.787   1.463  1.6429  1.6623 -0.7558
  804MOL0     H 8487   2.854   9.955   1.297 -0.5646  1.2456  0.6581
  804MOL0     H 8488   3.007  10.018   1.347  0.1062 -0.6853 -1.4966
  804MOL0     H 8489   2.817  10.072   1.499 -0.6510 -1.3019 -0.8964
  804MOL0     H 8490   2.817   9.899   1.557  0.0704 -0.2433 -1.0101
  804MOL0     H 8491   2.967   9.822   1.741 -0.8482 -0.1133 -3.8863
  804MOL0     H 8492   3.050   9.974   2.013  0.0193  1.0888  0.1559
  804MOL0     H 8493   3.113   9.829   1.931  0.6342  0.4074  2.3789
  804MOL0     H 8494   3.346   9.978   1.907 -0.5161 -3.1449 -0.0581
  804MOL0     H 8495   3.252  10.105   1.980  2.3987  0.1536  0.4438
  804MOL0     H 8496   3.272   9.849   2.128  5.4514 -1.9760 -0.1448
  804MOL0     H 8497   3.263  10.017   2.191  1.4242  0.5417  1.0147
  804MOL0     H 8498   3.504  10.026   2.101 -0.7815  0.2611 -0.3693
  804MOL0     H 8499   3.493   9.854   2.060  1.3126  3.0385 -1.8683
  804MOL0     H 8500   3.571   9.874   2.532  1.2673  1.0097  1.9978
  804MOL0     H 8501   3.788   9.897   2.602 -2.3148 -0.6823  0.2264
  804MOL0     H 8502   4.263   9.840   2.603 -0.3501  1.0839 -0.0802
  804MOL0     H 8503   4.492   9.759   2.623  2.7300  1.0762 -0.8306
  804MOL0     H 8504   4.666   9.628   2.618  0.1189 -3.5564  1.5214
  804MOL0     H 8505   4.624   9.516   2.485 -0.1649 -0.0483 -1.5288
  804MOL0     H 8506   4.860   9.475   2.554 -1.5082 -0.1677  1.4936
  804MOL0     H 8507   4.852   9.543   2.389  2.6430 -0.6913  1.5401
  804MOL0     H 8508   5.012   9.672   2.476  1.9232  1.1563  1.2611
  804MOL0     H 8509   4.875   9.781   2.509 -1.9087 -0.9035  1.5501
  804MOL0     H 8510   5.022   9.604   2.710  0.8266  0.2805  1.3868
  804MOL0     H 8511   4.860   9.680   2.741  0.0414  3.7424  2.0679
  804MOL0     H 8512   5.007   9.815   2.834  0.2194  2.1607  0.0334
  804MOL0     H 8513   4.996   9.890   2.686 -0.6582  0.0101  1.5162
  804MOL0     H 8514   5.258   9.857   2.775  1.8377 -0.8327 -0.1013
  804MOL0     H 8515   5.228   9.684   2.776  3.5097  0.8141 -0.4150
  804MOL0     H 8516   5.205   9.870   2.528  0.1660 -1.0842 -0.8074
  804MOL0     H 8517   5.215   9.701   2.516  1.4171 -0.9871 -0.2113
  804MOL0     H 8518   5.452   9.854   2.606  3.1677 -0.0749 -0.9515
  804MOL0     H 8519   5.426   9.678   2.587  1.6020  2.3451  2.0194
  804MOL0     H 8520   4.506   9.746   2.190 -2.6653 -2.3451 -1.0254
  804MOL0     H 8521   4.283   9.820   2.177 -0.4479 -0.5342 -0.0367
  804MOL0     H 8522   3.936   9.870   2.198  1.4701  3.5907  0.4432
  804MOL0     H 8523   3.726   9.880   2.127  0.7261  1.2170  1.9397
  804MOL0     H 8524   3.566   9.376   0.833 -0.0110 -1.6715  0.2094
  804MOL0     H 8525   3.740   9.500   0.664  0.2175 -1.3296 -2.6811
  804MOL0     H 8526   3.890   9.800   0.395  1.9358 -0.1949 -0.8697
  804MOL0     H 8527   4.042   9.924   0.233 -1.0451  1.0916 -2.4129
  804MOL0     H 8528   4.072   9.993  -0.202 -0.5201  0.9599  0.2596
  804MOL0     H 8529   3.910   9.926  -0.210  0.2893 -0.4894 -1.6118
  804MOL0     H 8530   4.043   9.730  -0.266  1.6181 -2.9569  1.1166
  804MOL0     H 8531   4.018   9.699  -0.101 -2.3901 -1.3598 -2.2139
  804MOL0     H 8532   4.263   9.883  -0.164  3.2005 -0.7130  0.3187
  804MOL0     H 8533   4.282   9.714  -0.187 -1.7121  0.5101 -0.5329
  804MOL0     H 8534   4.194   9.820   0.077 -1.1765 -1.3520 -1.0927
  804MOL0     H 8535   4.217   9.644   0.024  1.0730 -0.3705 -1.1076
  804MOL0     H 8536   4.602   9.773   0.084  0.2692  1.9684  0.9545
  804MOL0     H 8537   3.776   9.806  -0.082  2.9491  0.3476 -0.6699
  804MOL0     H 8538   3.562   9.706  -0.050 -1.2534 -0.6729  0.1049
  804MOL0     H 8539   3.626   9.552   0.030  3.5210  0.4781  1.2901
  804MOL0     H 8540   3.506   9.662   0.101  0.1637  3.9474 -1.1388
  805MOL0     O 8541   7.510   6.475   7.363  0.7757  0.5468  0.3723
  805MOL0     C 8542   7.467   6.419   7.259 -1.1140 -0.1923 -0.2495
  805MOL0     O 8543   7.388   6.480   7.169 -0.1564 -0.6157 -0.3441
  805MOL0     C 8544   7.357   6.617   7.190 -0.5412  1.1386  0.1961
  805MOL0     C 8545   7.280   6.665   7.300  0.6416 -0.9705 -0.6250
  805MOL0     C 8546   7.232   6.798   7.317  0.2027 -0.7473  0.3932
  805MOL0     C 8547   7.274   6.893   7.225 -0.5444  0.2617  0.5301
  805MOL0     O 8548   7.237   7.025   7.225 -0.0719 -0.5840 -0.0739
  805MOL0     C 8549   7.129   7.073   7.308  0.7711  0.2006 -0.6469
  805MOL0     C 8550   7.094   7.219   7.302  0.0218 -0.6235 -0.8020
  805MOL0     C 8551   7.066   7.283   7.166 -0.3043 -0.4679  0.0590
  805MOL0     C 8552   7.174   7.387   7.113  0.0193  0.2254  0.3405
  805MOL0     C 8553   7.328   7.336   7.108  0.4697  0.6786  0.7547
  805MOL0     C 8554   7.354   7.261   6.978 -0.3035 -0.4720 -0.4885
  805MOL0     C 8555   7.504   7.251   6.950  0.9685  0.1508  0.5441
  805MOL0     C 8556   7.572   7.120   7.009 -0.2577  0.6722  0.4035
  805MOL0     N 8557   7.713   7.145   6.998  1.2264 -0.0159 -0.3827
  805MOL0     C 8558   7.805   7.108   6.903  1.1944 -0.4484  0.3493
  805MOL0     C 8559   7.916   7.186   6.938 -0.8489  1.3726  0.1463
  805MOL0     C 8560   8.054   7.154   6.875  0.0449 -0.5404  0.0701
  805MOL0     C 8561   8.087   7.213   6.735  0.0223 -0.3827 -0.8380
  805MOL0     C 8562   8.020   7.138   6.620 -0.5961 -0.0816 -0.3667
  805MOL0     C 8563   8.087   7.002   6.593  0.5641 -1.1710  0.4669
  805MOL0     O 8564   7.969   6.922   6.549 -0.5322 -0.2223 -0.4199
  805MOL0     C 8565   7.981   6.798   6.505 -0.5857 -0.2014  0.8208
  805MOL0     C 8566   8.095   6.716   6.498  0.0269 -0.4556 -0.0284
  805MOL0     C 8567   8.080   6.585   6.454 -0.0879  0.6693 -0.4697
  805MOL0     C 8568   7.965   6.529   6.417  1.1610 -0.5819 -0.4047
  805MOL0     C 8569   7.953   6.377   6.393 -0.9113 -0.3147  1.0406
  805MOL0     O 8570   7.840   6.322   6.351  0.9045 -0.1738 -0.9400
  805MOL0     C 8571   7.816   6.189   6.391  0.0710 -0.4991  0.3089
  805MOL0     C 8572   7.743   6.105   6.299 -1.5477  0.4081 -0.9416
  805MOL0     C 8573   7.707   5.979   6.342  0.4372  0.9745  0.1549
  805MOL0     C 8574   7.735   5.923   6.464 -0.1065  0.7782 -0.2572
  805MOL0     O 8575   7.701   5.792   6.507 -0.6495  0.0786  1.5917
  805MOL0     C 8576   7.663   5.696   6.399 -0.5302 -0.4128 -0.2375
  805MOL0     C 8577   7.718   5.557   6.445 -0.3556 -0.2312 -0.2375
  805MOL0     C 8578   7.652   5.458   6.349 -0.1513 -0.5534  0.3882
  805MOL0     C 8579   7.716   5.458   6.205 -0.2706 -0.1700 -0.0993
  805MOL0     C 8580   7.688   5.331   6.122 -0.1412 -0.0440  0.1086
  805MOL0     C 8581   7.734   5.330   5.972 -0.3831 -1.5717 -1.0154
  805MOL0     C 8582   7.786   5.198   5.923  0.3647 -0.2881 -0.0170
  805MOL0     C 8583   7.774   5.202   5.766  0.4172  0.2431 -0.7245
  805MOL0    Cl 8584   7.590   5.197   5.725 -0.1197 -0.2730  0.1923
  805MOL0     C 8585   7.791   6.004   6.556 -0.4838 -0.1255 -0.8010
  805MOL0     C 8586   7.827   6.131   6.517  0.2635 -0.5511  0.7067
  805MOL0     O 8587   8.052   6.316   6.425  0.1705  0.4768 -0.2184
  805MOL0     C 8588   7.849   6.608   6.433 -0.1945  0.5115 -0.2338
  805MOL0     C 8589   7.853   6.739   6.480 -0.0367  0.5042 -0.1113
  805MOL0     N 8590   7.891   7.261   7.052  0.7044  0.7160 -0.1285
  805MOL0     N 8591   7.767   7.233   7.085 -0.3546  0.0530 -0.6647
  805MOL0     C 8592   7.346   6.855   7.112  0.5828  0.5617  0.7107
  805MOL0     C 8593   7.382   6.719   7.095  0.6639 -0.5844 -0.1828
  805MOL0     C 8594   7.521   6.285   7.216 -0.2683  0.0019 -0.9014
  805MOL0     C 8595   7.438   6.213   7.129  1.0176  0.0690  1.0000
  805MOL0     C 8596   7.477   6.087   7.091 -0.5124 -1.1042 -0.2099
  805MOL0     C 8597   7.596   6.031   7.141 -0.0982 -0.1404 -0.0616
  805MOL0     O 8598   7.623   5.901   7.099  0.5459  0.2368  0.1637
  805MOL0     C 8599   7.575   5.838   6.976  0.0199  0.9098 -0.4519
  805MOL0     C 8600   7.692   5.841   6.868  0.2378  0.2368  0.8490
  805MOL0     C 8601   7.810   5.752   6.894  0.8828 -0.6846  0.1521
  805MOL0     C 8602   7.896   5.723   6.768 -0.0340 -0.0183 -0.2723
  805MOL0     C 8603   7.978   5.597   6.794  0.4308 -0.8003  0.0495
  805MOL0     C 8604   8.053   5.519   6.833 -0.1743  0.0789 -0.3367
  805MOL0     C 8605   7.685   6.121   7.210  1.2452  0.2931  0.2431
  805MOL0     C 8606   7.651   6.241   7.245 -0.4273 -0.0348  0.4563
  805MOL0     C 8607   7.761   6.306   7.321  0.6847 -0.6960 -0.5877
  805MOL0     H 8608   7.240   6.598   7.376  0.3285 -1.5267 -1.2586
  805MOL0     H 8609   7.179   6.835   7.405  3.1096  1.8751  1.2203
  805MOL0     H 8610   7.036   7.021   7.284 -0.8020  0.1894  4.3393
  805MOL0     H 8611   7.151   7.067   7.415 -1.7803  3.4582  0.2340
  805MOL0     H 8612   7.164   7.267   7.371 -0.4228 -0.7693 -0.2469
  805MOL0     H 8613   6.997   7.223   7.353  1.3874 -0.9367  1.9758
  805MOL0     H 8614   6.969   7.334   7.164  0.3652  0.8714 -2.6537
  805MOL0     H 8615   7.059   7.197   7.100 -2.2920  0.1032 -0.5504
  805MOL0     H 8616   7.143   7.435   7.020 -3.1573  3.2996  2.6840
  805MOL0     H 8617   7.165   7.476   7.177 -2.9868  2.2141 -2.4786
  805MOL0     H 8618   7.401   7.417   7.114  0.4992  0.5424  3.6030
  805MOL0     H 8619   7.333   7.273   7.197 -0.7863 -0.0753  0.3306
  805MOL0     H 8620   7.292   7.171   6.982 -5.1370  2.5322  0.3550
  805MOL0     H 8621   7.309   7.313   6.892 -2.6562 -0.4891  0.6503
  805MOL0     H 8622   7.565   7.333   6.989 -1.6737  1.1538  2.8781
  805MOL0     H 8623   7.517   7.258   6.841  0.6916 -1.9743  0.3453
  805MOL0     H 8624   7.549   7.104   7.114  1.3870 -0.0414  0.6817
  805MOL0     H 8625   7.558   7.033   6.943  0.8910  0.5630  0.2863
  805MOL0     H 8626   7.784   7.035   6.825 -2.5229 -2.1514  2.6158
  805MOL0     H 8627   8.126   7.194   6.946  0.0313  4.0288 -2.1073
  805MOL0     H 8628   8.074   7.046   6.872 -0.7415 -0.7429  1.4804
  805MOL0     H 8629   8.064   7.320   6.729 -0.0052 -0.3372 -0.0158
  805MOL0     H 8630   8.194   7.205   6.716 -0.1065 -2.7886 -0.8380
  805MOL0     H 8631   8.032   7.196   6.528  2.8662 -0.4294 -0.2572
  805MOL0     H 8632   7.915   7.121   6.644 -0.8156 -0.0745 -1.2720
  805MOL0     H 8633   8.134   6.953   6.679 -0.4775 -2.3719  0.3848
  805MOL0     H 8634   8.176   7.015   6.532  0.6723  1.1175  1.0199
  805MOL0     H 8635   8.193   6.742   6.537 -1.2581  2.1816  1.6720
  805MOL0     H 8636   8.167   6.520   6.455 -1.2307 -0.9336  1.2842
  805MOL0     H 8637   7.723   6.157   6.205 -1.5907  1.6616 -0.2557
  805MOL0     H 8638   7.647   5.922   6.271  0.3794 -0.3892  1.2519
  805MOL0     H 8639   7.555   5.687   6.390 -1.0250  0.1235  3.5256
  805MOL0     H 8640   7.704   5.731   6.304 -0.6383  1.0776  0.2350
  805MOL0     H 8641   7.827   5.560   6.452 -0.3781 -0.1218  0.0734
  805MOL0     H 8642   7.668   5.542   6.541 -1.7177  1.5409 -0.6231
  805MOL0     H 8643   7.668   5.356   6.387 -0.3069  0.2524  2.7986
  805MOL0     H 8644   7.545   5.477   6.334 -0.0662 -1.1642 -1.2112
  805MOL0     H 8645   7.826   5.459   6.208  0.0516  4.5905 -2.9740
  805MOL0     H 8646   7.709   5.550   6.145 -0.6906 -2.3625 -3.6777
  805MOL0     H 8647   7.581   5.311   6.122 -0.3035  0.7606 -0.0860
  805MOL0     H 8648   7.728   5.240   6.166 -1.0409 -0.8581 -0.7170
  805MOL0     H 8649   7.645   5.375   5.928  0.2383  4.0542  2.4297
  805MOL0     H 8650   7.817   5.401   5.967  0.3787 -2.3875 -0.3715
  805MOL0     H 8651   7.737   5.112   5.969 -1.1147  2.2234  3.6668
  805MOL0     H 8652   7.894   5.190   5.936  0.1167 -1.2130  1.9379
  805MOL0     H 8653   7.818   5.292   5.722  1.6039  2.2626  3.9891
  805MOL0     H 8654   7.834   5.116   5.733  0.1930 -0.9190  1.6728
  805MOL0     H 8655   7.830   5.978   6.654 -1.4506  5.8744  1.6447
  805MOL0     H 8656   7.881   6.198   6.584  0.4077 -1.2600  1.3170
  805MOL0     H 8657   7.758   6.552   6.415 -0.4027  1.2964 -1.8278
  805MOL0     H 8658   7.767   6.804   6.496  1.9556  2.8119  2.2703
  805MOL0     H 8659   7.360   6.923   7.029  1.6272  1.0199  1.2457
  805MOL0     H 8660   7.425   6.689   7.000  2.8532  0.1819  0.5047
  805MOL0     H 8661   7.343   6.256   7.098  0.4546 -0.4995  1.8942
  805MOL0     H 8662   7.414   6.039   7.017  2.3823 -1.4025 -2.6971
  805MOL0     H 8663   7.484   5.882   6.934 -0.2697 -0.6065 -1.5048
  805MOL0     H 8664   7.557   5.733   7.002 -0.6099  0.7524 -1.4601
  805MOL0     H 8665   7.721   5.944   6.846 -0.5123  1.1314  3.6911
  805MOL0     H 8666   7.639   5.840   6.772 -4.4971  3.0611  3.0588
  805MOL0     H 8667   7.770   5.659   6.935 -5.0811  0.4113 -2.1873
  805MOL0     H 8668   7.862   5.799   6.978  2.3047  1.9115 -2.0370
  805MOL0     H 8669   7.825   5.699   6.689  0.0418  0.3239 -0.4447
  805MOL0     H 8670   7.961   5.810   6.756 -0.6432  0.3188 -1.2875
  805MOL0     H 8671   8.123   5.442   6.858  1.4401  1.4858 -0.3284
  805MOL0     H 8672   7.780   6.071   7.224  1.8744  0.8129 -1.7836
  805MOL0     H 8673   7.719   6.344   7.415 -1.5090 -0.5782 -1.5670
  805MOL0     H 8674   7.842   6.239   7.352  0.3213 -0.3872  1.1578
  805MOL0     H 8675   7.806   6.382   7.256  0.4705  2.0994  2.2842
  806MOL0     O 8676   7.291   8.704   5.734 -0.6453 -0.4715 -0.0824
  806MOL0     C 8677   7.408   8.663   5.715  0.7487  0.0035  0.4972
  806MOL0     O 8678   7.520   8.705   5.785  0.3888  0.1071 -0.0543
  806MOL0     C 8679   7.524   8.812   5.868 -0.6964 -0.5237 -0.4076
  806MOL0     C 8680   7.555   8.792   6.002 -0.3861 -0.8213 -0.9369
  806MOL0     C 8681   7.550   8.901   6.090 -0.8793  0.3322 -0.4770
  806MOL0     C 8682   7.523   9.030   6.045 -0.2449 -0.6419  0.1181
  806MOL0     O 8683   7.547   9.138   6.137  0.2981  0.1329  0.1273
  806MOL0     C 8684   7.517   9.262   6.065  0.2812 -0.4099 -0.4683
  806MOL0     C 8685   7.526   9.366   6.177 -0.5584  0.1329  0.1734
  806MOL0     C 8686   7.667   9.418   6.230 -0.1980  0.3703  0.8832
  806MOL0     C 8687   7.652   9.535   6.321 -0.3259 -0.9455  0.9362
  806MOL0     C 8688   7.789   9.609   6.330  0.0204  0.7750 -0.0896
  806MOL0     C 8689   7.795   9.675   6.459 -0.2174 -0.2769  0.8517
  806MOL0     C 8690   7.676   9.752   6.499 -0.1059 -0.4468  0.5094
  806MOL0     C 8691   7.699   9.833   6.631  0.0655 -0.6946 -0.8143
  806MOL0     N 8692   7.632   9.963   6.623  0.2661 -0.4376 -0.1985
  806MOL0     C 8693   7.499   9.984   6.653 -0.6639  0.1480  0.2219
  806MOL0     C 8694   7.487  10.117   6.627 -0.7251 -0.3133  0.2650
  806MOL0     C 8695   7.351  10.180   6.646  0.5454  0.0170 -1.0791
  806MOL0     C 8696   7.341  10.320   6.692  0.1611  0.5104  0.8795
  806MOL0     C 8697   7.191  10.353   6.715  0.5043 -0.5077 -0.2699
  806MOL0     C 8698   7.146  10.343   6.869 -0.1189  0.6557 -0.0830
  806MOL0     O 8699   7.027  10.425   6.883  1.2096 -0.2780  0.3872
  806MOL0     C 8700   6.986  10.452   7.007  0.8172 -0.1419 -0.6563
  806MOL0     C 8701   6.871  10.533   7.019  0.1611  0.2112 -0.6823
  806MOL0     C 8702   6.817  10.558   7.141 -0.3655  0.0997 -0.1831
  806MOL0     C 8703   6.873  10.500   7.261  0.1584 -0.3681 -0.4188
  806MOL0     C 8704   6.813  10.536   7.393 -0.0976  0.2845  0.4156
  806MOL0     O 8705   6.700  10.605   7.385  0.0342 -0.8183  1.0747
  806MOL0     C 8706   6.647  10.652   7.498 -0.4835  0.2162  0.6185
  806MOL0     C 8707   6.701  10.760   7.563  0.4554 -0.1972  0.1311
  806MOL0     C 8708   6.653  10.805   7.682  0.3428 -0.1780 -0.0798
  806MOL0     C 8709   6.549  10.731   7.748 -0.8894  0.8171 -0.1972
  806MOL0     O 8710   6.503  10.757   7.875  0.1388 -0.1905  0.1454
  806MOL0     C 8711   6.556  10.859   7.956 -0.4154  0.2278 -0.1538
  806MOL0     C 8712   6.684  10.813   8.035 -0.3759  0.4107 -0.6308
  806MOL0     C 8713   6.738  10.922   8.122  0.2356  0.8503  0.5198
  806MOL0     C 8714   6.652  10.958   8.241 -0.0409  0.4753  0.6524
  806MOL0     C 8715   6.644  10.842   8.340 -0.5273  0.6302  0.0871
  806MOL0     C 8716   6.553  10.877   8.452 -0.5618 -0.0346  0.2755
  806MOL0     C 8717   6.528  10.753   8.550 -0.0728  0.1204  0.3870
  806MOL0     C 8718   6.452  10.632   8.493 -0.5353  1.2841  0.9464
  806MOL0    Cl 8719   6.345  10.670   8.345  0.2689  0.2420  0.2254
  806MOL0     C 8720   6.491  10.626   7.677  0.4018  0.1095 -0.4184
  806MOL0     C 8721   6.537  10.587   7.554  0.0440  0.3394 -0.2090
  806MOL0     O 8722   6.869  10.496   7.495 -1.3244 -0.5029  0.6782
  806MOL0     C 8723   6.985  10.426   7.250 -0.2817  0.0748  0.4027
  806MOL0     C 8724   7.046  10.405   7.123  1.2649 -0.0324  0.6982
  806MOL0     N 8725   7.601  10.169   6.568  0.1380 -0.1748  0.2181
  806MOL0     N 8726   7.692  10.070   6.567  0.2896 -0.7783 -0.8614
  806MOL0     C 8727   7.505   9.040   5.905 -0.4475 -0.9568  0.2899
  806MOL0     C 8728   7.502   8.935   5.818 -0.6647 -0.1177 -0.2346
  806MOL0     C 8729   7.421   8.542   5.619 -0.0021  0.2664 -0.9625
  806MOL0     C 8730   7.303   8.479   5.573 -0.8076  0.2259  0.4113
  806MOL0     C 8731   7.316   8.378   5.483  0.3930  0.6641  0.9604
  806MOL0     C 8732   7.433   8.335   5.427  0.2141  1.3932 -0.1760
  806MOL0     O 8733   7.447   8.241   5.319 -0.2655 -0.5065 -0.6381
  806MOL0     C 8734   7.344   8.151   5.298  0.5289  0.5381  0.8503
  806MOL0     C 8735   7.368   8.098   5.148  0.3864  0.0371  0.0409
  806MOL0     C 8736   7.370   8.215   5.043  0.6313 -0.2509  0.4184
  806MOL0     C 8737   7.232   8.275   5.019 -0.2481 -0.5214 -0.0984
  806MOL0     C 8738   7.162   8.170   4.949  0.0512 -0.1516  0.4640
  806MOL0     C 8739   7.111   8.090   4.879 -0.5597  0.1133 -0.0040
  806MOL0     C 8740   7.546   8.386   5.474 -0.4283 -0.6356 -0.3015
  806MOL0     C 8741   7.545   8.494   5.567 -0.7759  0.1123 -0.7282
  806MOL0     C 8742   7.678   8.557   5.604  0.4060  0.6228 -0.3628
  806MOL0     H 8743   7.564   8.687   6.026 -2.1424 -0.8517 -0.2191
  806MOL0     H 8744   7.589   8.891   6.191  1.2905  1.4140 -1.1359
  806MOL0     H 8745   7.580   9.297   5.983  1.6980  0.6360  0.9999
  806MOL0     H 8746   7.414   9.256   6.030 -0.1263 -1.6862  0.8445
  806MOL0     H 8747   7.479   9.330   6.269  4.2866 -1.7989  2.2637
  806MOL0     H 8748   7.475   9.456   6.140  0.6821  0.0711 -1.8659
  806MOL0     H 8749   7.730   9.441   6.143  0.8572 -0.9393  1.2550
  806MOL0     H 8750   7.724   9.333   6.270 -2.0495 -1.4809 -0.1683
  806MOL0     H 8751   7.575   9.606   6.293  0.8353 -0.3077 -0.8336
  806MOL0     H 8752   7.614   9.486   6.411 -0.8249 -1.5947  0.3880
  806MOL0     H 8753   7.872   9.539   6.312  0.6302  2.1067 -3.0970
  806MOL0     H 8754   7.801   9.672   6.242  0.4101 -1.1250 -1.4748
  806MOL0     H 8755   7.830   9.605   6.536  3.2852  0.5310  0.2031
  806MOL0     H 8756   7.871   9.754   6.450  4.1076 -4.0113  0.8837
  806MOL0     H 8757   7.584   9.693   6.500 -2.3127  2.7284  1.6439
  806MOL0     H 8758   7.662   9.818   6.413  0.4112 -4.0529 -2.6097
  806MOL0     H 8759   7.678   9.768   6.716 -4.5056 -2.2095 -2.8289
  806MOL0     H 8760   7.806   9.848   6.651  0.6094 -0.1234 -3.7292
  806MOL0     H 8761   7.420   9.922   6.695 -0.9820 -1.1574 -2.1531
  806MOL0     H 8762   7.292  10.172   6.554 -0.8834  0.6097 -0.2512
  806MOL0     H 8763   7.305  10.122   6.727  0.2195  3.0346  1.1009
  806MOL0     H 8764   7.408  10.339   6.777  3.1186  0.4123 -1.2853
  806MOL0     H 8765   7.377  10.378   6.606  0.7321  1.0215  1.4485
  806MOL0     H 8766   7.131  10.279   6.661  0.9692 -1.5230  0.5486
  806MOL0     H 8767   7.177  10.452   6.671  2.3528  0.7534  1.7401
  806MOL0     H 8768   7.227  10.377   6.935  3.1480 -2.1884 -2.3085
  806MOL0     H 8769   7.120  10.241   6.897  0.8908  0.6470  0.8911
  806MOL0     H 8770   6.801  10.565   6.943  0.8495  2.8014 -0.3405
  806MOL0     H 8771   6.729  10.622   7.132  1.3196  2.2723 -2.7927
  806MOL0     H 8772   6.786  10.808   7.517  1.8626 -1.2482  1.5048
  806MOL0     H 8773   6.693  10.893   7.732  1.9489  0.4940 -2.3398
  806MOL0     H 8774   6.570  10.953   7.900 -0.3132  0.6225  0.5213
  806MOL0     H 8775   6.480  10.876   8.033  0.3692 -0.3067  0.7616
  806MOL0     H 8776   6.670  10.727   8.101 -1.2018  0.5434 -0.6166
  806MOL0     H 8777   6.761  10.790   7.961 -0.7192  3.8736 -2.2607
  806MOL0     H 8778   6.842  10.902   8.149  0.2599 -0.8439 -0.6785
  806MOL0     H 8779   6.743  11.006   8.051  1.1985 -1.0835 -1.8385
  806MOL0     H 8780   6.556  10.987   8.199  0.2600 -2.1445 -2.1843
  806MOL0     H 8781   6.703  11.045   8.284 -0.7489 -0.4144  3.5416
  806MOL0     H 8782   6.746  10.825   8.375 -0.0337 -0.5774 -1.7893
  806MOL0     H 8783   6.598  10.754   8.294  0.1974  0.0407  0.4656
  806MOL0     H 8784   6.600  10.959   8.506 -0.3556  0.9844 -1.4077
  806MOL0     H 8785   6.457  10.917   8.416 -1.7693 -2.4891  0.5549
  806MOL0     H 8786   6.468  10.781   8.637  1.2712 -3.1701  2.5984
  806MOL0     H 8787   6.626  10.723   8.589 -0.0835  0.1400  0.4293
  806MOL0     H 8788   6.521  10.557   8.452 -1.7405  0.2152  0.7947
  806MOL0     H 8789   6.390  10.587   8.571 -1.1051 -3.0900 -1.6297
  806MOL0     H 8790   6.412  10.587   7.741  0.0390  2.7845  0.9395
  806MOL0     H 8791   6.481  10.514   7.498  1.4227 -1.7438  1.0078
  806MOL0     H 8792   7.018  10.371   7.338 -0.0666 -2.8650 -1.3729
  806MOL0     H 8793   7.126  10.332   7.120  0.4462 -0.9146 -0.6655
  806MOL0     H 8794   7.502   9.132   5.847 -0.9656 -1.6376 -0.8099
  806MOL0     H 8795   7.508   8.961   5.712  0.6416  1.3735  0.1648
  806MOL0     H 8796   7.206   8.511   5.612 -0.9564 -2.0093  2.1256
  806MOL0     H 8797   7.226   8.330   5.447  1.6246 -2.3329  1.5493
  806MOL0     H 8798   7.243   8.193   5.305  0.1767  0.0650 -0.9218
  806MOL0     H 8799   7.354   8.079   5.379  2.0800 -0.3213 -0.0705
  806MOL0     H 8800   7.288   8.024   5.136  0.0936 -0.7794  4.9533
  806MOL0     H 8801   7.467   8.051   5.144 -1.0538 -3.3376  0.3663
  806MOL0     H 8802   7.401   8.170   4.948  0.8524  1.3143 -0.2869
  806MOL0     H 8803   7.435   8.299   5.070  2.2725 -1.2560 -0.1943
  806MOL0     H 8804   7.181   8.311   5.108 -0.3201  2.3140 -1.1918
  806MOL0     H 8805   7.237   8.360   4.950  1.3000 -1.2728 -0.9625
  806MOL0     H 8806   7.048   8.018   4.831  1.6911 -1.3108 -1.0026
  806MOL0     H 8807   7.641   8.366   5.426 -1.5468  1.7383 -3.9121
  806MOL0     H 8808   7.668   8.660   5.569 -1.2324  0.4548 -0.4744
  806MOL0     H 8809   7.705   8.544   5.710 -2.3605 -3.5796  0.1003
  806MOL0     H 8810   7.756   8.505   5.548  0.7664  2.1178 -1.2854
  807MOL0     O 8811   2.713   6.270   8.520 -0.3305  0.5183  0.4139
  807MOL0     C 8812   2.809   6.311   8.582 -0.3347 -0.7818 -0.4760
  807MOL0     O 8813   2.917   6.367   8.528 -0.3381 -0.0990 -0.0880
  807MOL0     C 8814   2.917   6.424   8.402 -0.2394  1.1280  0.8919
  807MOL0     C 8815   3.046   6.442   8.345 -0.0666 -0.2507  0.0857
  807MOL0     C 8816   3.060   6.491   8.209 -1.1121 -0.8120 -0.2920
  807MOL0     C 8817   2.940   6.520   8.135 -0.2096 -0.1234  0.4551
  807MOL0     O 8818   2.944   6.582   8.016 -0.0079 -0.5071  0.3090
  807MOL0     C 8819   2.869   6.523   7.908 -0.7016 -0.1378  0.0059
  807MOL0     C 8820   2.918   6.580   7.774  0.1787  0.6466  0.5416
  807MOL0     C 8821   2.929   6.467   7.674 -0.6168  0.9199  1.0734
  807MOL0     C 8822   2.805   6.374   7.646  0.0450  0.2295 -0.6333
  807MOL0     C 8823   2.676   6.446   7.616 -1.1394 -0.3419  0.4233
  807MOL0     C 8824   2.552   6.356   7.629 -0.0136 -0.0320  0.5201
  807MOL0     C 8825   2.512   6.289   7.505  0.6695  0.2218  0.5129
  807MOL0     C 8826   2.500   6.379   7.374 -0.7223  0.4119 -1.0751
  807MOL0     N 8827   2.457   6.294   7.257  0.0907 -0.3033 -0.2015
  807MOL0     C 8828   2.493   6.163   7.221 -0.4505 -0.0004  0.1094
  807MOL0     C 8829   2.410   6.127   7.117 -0.6004 -0.9533 -0.4452
  807MOL0     C 8830   2.409   6.004   7.032  0.6985  0.6365 -1.1278
  807MOL0     C 8831   2.299   5.912   7.087 -0.4075 -0.1285  0.0950
  807MOL0     C 8832   2.283   5.776   7.022  0.6449  2.2829  0.0739
  807MOL0     C 8833   2.146   5.783   6.941  0.3527  0.4361  0.6320
  807MOL0     O 8834   2.143   5.671   6.858  0.0073  0.2417 -0.5358
  807MOL0     C 8835   2.071   5.679   6.740 -0.4277  0.3728  1.0797
  807MOL0     C 8836   1.946   5.735   6.714  0.6130  0.1728 -0.4911
  807MOL0     C 8837   1.867   5.711   6.596 -0.9389  0.3551  0.5708
  807MOL0     C 8838   1.930   5.640   6.492  0.1630  0.3540 -0.7388
  807MOL0     C 8839   1.856   5.605   6.370 -0.7959 -0.1886  0.0409
  807MOL0     O 8840   1.774   5.701   6.327 -0.0637  0.5925  0.1950
  807MOL0     C 8841   1.686   5.690   6.213  0.1847  1.1128 -0.1031
  807MOL0     C 8842   1.597   5.575   6.207 -1.6693  0.8446  0.6112
  807MOL0     C 8843   1.507   5.568   6.097 -0.2112  1.0176  0.1635
  807MOL0     C 8844   1.474   5.684   6.022 -0.2572  0.0134  0.4169
  807MOL0     O 8845   1.370   5.680   5.933  0.0453 -0.6837 -0.3623
  807MOL0     C 8846   1.284   5.790   5.960  1.3601 -0.4364 -0.4814
  807MOL0     C 8847   1.153   5.767   5.889 -0.0851 -0.1229  0.6433
  807MOL0     C 8848   1.089   5.627   5.908  0.1167 -1.0935 -0.9124
  807MOL0     C 8849   0.958   5.632   5.835  0.4671 -1.4206  0.5140
  807MOL0     C 8850   0.896   5.495   5.824 -0.9645 -0.6421 -0.6896
  807MOL0     C 8851   0.807   5.483   5.707 -0.5950  0.7052 -0.0817
  807MOL0     C 8852   0.721   5.355   5.693 -0.8293  0.4194  0.0306
  807MOL0     C 8853   0.717   5.297   5.549  0.6201  0.7447 -0.3316
  807MOL0    Cl 8854   0.681   5.120   5.557  0.2147 -0.0371 -0.2785
  807MOL0     C 8855   1.555   5.792   6.028 -0.2526  1.4109  0.3485
  807MOL0     C 8856   1.657   5.797   6.125 -0.2507  0.1939 -0.7966
  807MOL0     O 8857   1.877   5.502   6.314 -1.2815 -0.3415 -0.5729
  807MOL0     C 8858   2.066   5.588   6.506 -0.4518 -0.3429 -0.1875
  807MOL0     C 8859   2.126   5.612   6.631  0.3111  0.3371  0.4022
  807MOL0     N 8860   2.352   6.245   7.079  0.2264  0.3305 -1.2137
  807MOL0     N 8861   2.369   6.337   7.167  0.5471 -0.1654 -0.6323
  807MOL0     C 8862   2.812   6.496   8.197  0.5311  0.7063 -0.1304
  807MOL0     C 8863   2.800   6.448   8.329 -0.4690 -0.6289 -0.5725
  807MOL0     C 8864   2.811   6.296   8.735  0.0933  0.2744  0.9080
  807MOL0     C 8865   2.941   6.318   8.794  0.4963 -0.0231  0.3851
  807MOL0     C 8866   2.941   6.341   8.923  0.0310 -0.1917  0.7575
  807MOL0     C 8867   2.836   6.313   9.006  0.3175 -0.5532 -0.3887
  807MOL0     O 8868   2.851   6.327   9.143  0.2972  0.4295 -0.6549
  807MOL0     C 8869   2.798   6.217   9.219 -1.1495 -0.1778  0.0913
  807MOL0     C 8870   2.906   6.169   9.320 -0.4281  0.1971  1.0717
  807MOL0     C 8871   2.932   6.266   9.436  0.6494 -0.2758  0.8841
  807MOL0     C 8872   3.076   6.266   9.475  0.3545 -0.5978 -0.1113
  807MOL0     C 8873   3.155   6.338   9.379  0.7250 -0.2190 -0.0340
  807MOL0     C 8874   3.238   6.393   9.322  0.3643  0.9111  0.7504
  807MOL0     C 8875   2.714   6.275   8.949 -0.1368  0.4571 -0.5032
  807MOL0     C 8876   2.698   6.267   8.815  0.0255 -0.6942  0.6215
  807MOL0     C 8877   2.553   6.281   8.761  0.0786  0.3122  0.1058
  807MOL0     H 8878   3.141   6.419   8.391  0.8034 -0.2415 -1.6220
  807MOL0     H 8879   3.161   6.487   8.167 -0.6691 -1.2667  0.7863
  807MOL0     H 8880   2.874   6.414   7.906  2.5201 -0.1898  2.2608
  807MOL0     H 8881   2.762   6.543   7.917 -1.1197 -0.3657 -3.3152
  807MOL0     H 8882   3.023   6.605   7.791  0.0381  0.2987  2.0645
  807MOL0     H 8883   2.861   6.661   7.727 -0.7839 -0.2587  0.0971
  807MOL0     H 8884   3.013   6.404   7.702 -1.5914 -0.8963  0.0619
  807MOL0     H 8885   2.970   6.515   7.584  1.3597 -2.0324  0.2615
  807MOL0     H 8886   2.830   6.304   7.565  2.0155 -1.3979  1.2600
  807MOL0     H 8887   2.795   6.314   7.737  0.0942  0.3353 -0.5565
  807MOL0     H 8888   2.673   6.530   7.686 -2.1465  0.5453 -0.6504
  807MOL0     H 8889   2.689   6.491   7.517 -0.2107 -1.4753  0.0095
  807MOL0     H 8890   2.584   6.277   7.698  1.6862  0.7062  0.6223
  807MOL0     H 8891   2.467   6.407   7.675 -0.3522 -2.0317  2.3008
  807MOL0     H 8892   2.415   6.245   7.530 -0.0109  0.6741 -1.1939
  807MOL0     H 8893   2.584   6.212   7.474  0.4009  0.0530  0.3033
  807MOL0     H 8894   2.425   6.456   7.393  0.7984  1.5930  0.5449
  807MOL0     H 8895   2.593   6.433   7.350 -0.0307  1.0180  2.4668
  807MOL0     H 8896   2.567   6.093   7.258  0.8336 -0.1956 -2.5603
  807MOL0     H 8897   2.380   6.030   6.929 -2.1552 -0.5024 -0.6994
  807MOL0     H 8898   2.499   5.946   7.012  0.3566 -1.4112  2.4308
  807MOL0     H 8899   2.320   5.885   7.191  0.5649 -2.6230 -0.6781
  807MOL0     H 8900   2.212   5.978   7.084  0.2842  0.7619 -1.2082
  807MOL0     H 8901   2.279   5.684   7.081 -2.3944  2.0745 -0.2892
  807MOL0     H 8902   2.368   5.765   6.954  0.2114  0.1699 -0.2195
  807MOL0     H 8903   2.121   5.872   6.882  1.1262  0.4696  0.3375
  807MOL0     H 8904   2.068   5.790   7.017  2.4633  1.3289  2.8573
  807MOL0     H 8905   1.895   5.799   6.786  2.8765  0.8296  0.6338
  807MOL0     H 8906   1.770   5.757   6.578 -1.8326  0.0664  4.0317
  807MOL0     H 8907   1.608   5.496   6.281  1.5698  0.6773  0.0708
  807MOL0     H 8908   1.429   5.493   6.088  1.0400 -0.5031  1.2947
  807MOL0     H 8909   1.268   5.806   6.067 -3.6601  2.2997 -1.3361
  807MOL0     H 8910   1.323   5.886   5.925  0.0463 -0.0995 -1.0823
  807MOL0     H 8911   1.083   5.847   5.917 -0.3411 -0.3883  0.7712
  807MOL0     H 8912   1.174   5.772   5.782 -1.7520 -1.2211  0.2244
  807MOL0     H 8913   1.157   5.554   5.863  0.4092 -2.3524  1.4139
  807MOL0     H 8914   1.064   5.595   6.010  0.4031  1.8056  0.1604
  807MOL0     H 8915   0.962   5.692   5.744 -0.8867  1.4206  2.1782
  807MOL0     H 8916   0.891   5.700   5.888  0.5552 -1.2073  0.3581
  807MOL0     H 8917   0.830   5.477   5.909  2.0282 -1.2791  1.6387
  807MOL0     H 8918   0.968   5.413   5.821 -0.8587 -0.5390 -1.0776
  807MOL0     H 8919   0.747   5.574   5.707  1.5120  2.1960  1.9373
  807MOL0     H 8920   0.876   5.482   5.622  0.9748  1.4109  1.1335
  807MOL0     H 8921   0.618   5.358   5.727 -0.3653 -2.9020  2.2482
  807MOL0     H 8922   0.772   5.280   5.755 -1.3869 -1.1498 -1.3181
  807MOL0     H 8923   0.649   5.357   5.487  0.4383  2.1457  1.1564
  807MOL0     H 8924   0.812   5.302   5.495 -0.0944 -1.0028 -1.8539
  807MOL0     H 8925   1.531   5.870   5.956 -0.0576  1.5934  0.4793
  807MOL0     H 8926   1.725   5.882   6.119 -0.3449  0.2870 -0.5549
  807MOL0     H 8927   2.095   5.526   6.422  0.2329  1.2580 -1.1891
  807MOL0     H 8928   2.227   5.574   6.645  1.3738  1.5822 -2.8423
  807MOL0     H 8929   2.720   6.525   8.146  0.5976 -1.4527 -1.6501
  807MOL0     H 8930   2.701   6.465   8.371 -0.0423  1.7603 -0.4172
  807MOL0     H 8931   3.031   6.358   8.749 -0.1961  0.0087 -1.0356
  807MOL0     H 8932   3.028   6.373   8.980  1.2640  0.5481 -1.4317
  807MOL0     H 8933   2.768   6.132   9.157  0.5649 -3.1790  3.0416
  807MOL0     H 8934   2.704   6.234   9.273 -2.6680 -3.0671 -1.3953
  807MOL0     H 8935   2.998   6.155   9.263  0.0568  0.7923  1.6831
  807MOL0     H 8936   2.897   6.064   9.348  3.0665 -1.0569 -1.7006
  807MOL0     H 8937   2.866   6.245   9.521  0.7509 -3.5040  0.2821
  807MOL0     H 8938   2.903   6.362   9.392 -2.4643 -1.2046  0.6770
  807MOL0     H 8939   3.093   6.316   9.571  0.0106  2.1588 -1.4016
  807MOL0     H 8940   3.108   6.162   9.482  1.8904 -0.0312  2.2875
  807MOL0     H 8941   3.299   6.456   9.260 -0.9207  0.2394 -1.3114
  807MOL0     H 8942   2.631   6.262   9.017 -0.0692  1.3912 -0.2287
  807MOL0     H 8943   2.492   6.299   8.851 -0.1592 -1.2761  0.2949
  807MOL0     H 8944   2.545   6.371   8.700  3.2162  1.0156  0.5632
  807MOL0     H 8945   2.521   6.188   8.713 -0.2202  0.2987  0.3249
  808MOL0     O 8946   4.479   1.657   6.433  0.2526 -0.2639  0.4375
  808MOL0     C 8947   4.516   1.769   6.477  1.1111 -0.4489 -0.1271
  808MOL0     O 8948   4.494   1.814   6.607  0.6981 -0.9324 -0.3087
  808MOL0     C 8949   4.453   1.715   6.691  0.3383  0.4172  0.3669
  808MOL0     C 8950   4.533   1.679   6.801 -0.3888 -0.3489  1.0448
  808MOL0     C 8951   4.486   1.589   6.902 -0.5526 -0.6848 -0.1453
  808MOL0     C 8952   4.359   1.524   6.882 -0.6908 -0.0158 -0.7552
  808MOL0     O 8953   4.297   1.428   6.963 -0.6313 -0.1762  0.3467
  808MOL0     C 8954   4.354   1.382   7.090 -0.3371  0.5119 -0.0931
  808MOL0     C 8955   4.229   1.324   7.167  0.0168 -0.2224  0.2205
  808MOL0     C 8956   4.182   1.174   7.141  0.2723 -0.0838 -0.3243
  808MOL0     C 8957   4.066   1.128   7.235  0.0458  0.5000 -0.5010
  808MOL0     C 8958   3.930   1.211   7.237  0.1637  0.9082 -0.1023
  808MOL0     C 8959   3.870   1.209   7.086 -0.1258 -0.4698  0.0933
  808MOL0     C 8960   3.728   1.252   7.081  0.0711  1.3197 -0.4045
  808MOL0     C 8961   3.672   1.226   6.939  0.5666 -0.8821 -0.1042
  808MOL0     N 8962   3.519   1.212   6.961  0.1424 -0.1483  0.2292
  808MOL0     C 8963   3.449   1.258   7.067  0.0156 -1.3472 -0.0021
  808MOL0     C 8964   3.320   1.246   7.036  0.2039 -0.1905 -0.2038
  808MOL0     C 8965   3.219   1.279   7.132  0.0236 -0.4838 -0.0965
  808MOL0     C 8966   3.094   1.349   7.077 -0.0378 -0.3448  0.7138
  808MOL0     C 8967   2.985   1.382   7.191  0.3272  0.1067  0.4035
  808MOL0     C 8968   3.043   1.471   7.307  0.2342  0.8359  0.3043
  808MOL0     O 8969   3.111   1.589   7.266  0.0901  0.2086  0.0174
  808MOL0     C 8970   3.203   1.645   7.348  0.8263  0.0552  0.1392
  808MOL0     C 8971   3.210   1.630   7.489  0.6913 -0.1113 -0.3538
  808MOL0     C 8972   3.316   1.680   7.567 -0.7106  1.1945  0.3401
  808MOL0     C 8973   3.410   1.757   7.501 -0.5010  0.2691  1.2036
  808MOL0     C 8974   3.519   1.822   7.562 -0.1473  0.6456 -0.3077
  808MOL0     O 8975   3.627   1.870   7.481 -0.5824 -1.0265  0.5812
  808MOL0     C 8976   3.732   1.948   7.530 -0.4940 -0.0271  0.2411
  808MOL0     C 8977   3.810   2.014   7.433 -0.5072  0.3739  0.0427
  808MOL0     C 8978   3.930   2.081   7.466  0.2658  0.2239  0.1232
  808MOL0     C 8979   3.959   2.098   7.606 -0.0412 -0.6492  1.4450
  808MOL0     O 8980   4.078   2.149   7.649  1.0269  0.1562 -0.7166
  808MOL0     C 8981   4.161   2.226   7.554  0.6975  0.9075 -0.9536
  808MOL0     C 8982   4.297   2.279   7.618  0.7815  0.0151 -0.4517
  808MOL0     C 8983   4.377   2.153   7.670  0.0806 -0.3262 -0.3879
  808MOL0     C 8984   4.477   2.192   7.776 -0.4415 -0.1188 -0.3735
  808MOL0     C 8985   4.569   2.074   7.818  0.9561  0.3666 -0.3732
  808MOL0     C 8986   4.616   2.110   7.960  0.6742 -0.0180 -0.0244
  808MOL0     C 8987   4.752   2.040   7.994  0.6785  0.7250 -1.4701
  808MOL0     C 8988   4.756   1.881   7.993  0.4853 -0.4377 -1.2206
  808MOL0    Cl 8989   4.717   1.824   8.168  0.3103  0.0548  0.2660
  808MOL0     C 8990   3.864   2.052   7.704 -0.7522 -0.5064 -0.0118
  808MOL0     C 8991   3.764   1.968   7.661 -0.3782 -0.4222 -0.4985
  808MOL0     O 8992   3.521   1.805   7.683 -1.2811  0.1731  0.9218
  808MOL0     C 8993   3.401   1.767   7.355  0.7442 -0.2245  1.3752
  808MOL0     C 8994   3.298   1.712   7.280 -0.0364  0.6582 -0.2822
  808MOL0     N 8995   3.310   1.207   6.900  0.4296  0.4001  0.5192
  808MOL0     N 8996   3.428   1.178   6.859  0.1391  0.7790 -0.5582
  808MOL0     C 8997   4.286   1.556   6.769  0.1350  0.2416  0.2571
  808MOL0     C 8998   4.328   1.649   6.673 -0.4345  1.0089  0.4343
  808MOL0     C 8999   4.575   1.874   6.379  0.0519 -0.5438 -0.6505
  808MOL0     C 9000   4.602   2.007   6.424 -0.0050 -0.2117 -0.2950
  808MOL0     C 9001   4.650   2.103   6.335  1.0420 -0.5513 -0.0494
  808MOL0     C 9002   4.677   2.072   6.201 -0.1296  0.0174 -0.4191
  808MOL0     O 9003   4.752   2.164   6.126 -0.5633  0.5775  0.1113
  808MOL0     C 9004   4.756   2.136   5.984 -0.3895  0.1111 -0.4451
  808MOL0     C 9005   4.790   2.250   5.891  0.5736 -1.2186 -0.2285
  808MOL0     C 9006   4.915   2.222   5.816  0.0896  0.5410 -0.3830
  808MOL0     C 9007   4.919   2.291   5.681 -0.2071 -0.0684 -0.0237
  808MOL0     C 9008   4.942   2.440   5.691  0.0159  0.1316 -0.4376
  808MOL0     C 9009   4.944   2.562   5.697  0.2505  1.6639  0.5388
  808MOL0     C 9010   4.649   1.946   6.160 -0.4783  0.9821 -0.2584
  808MOL0     C 9011   4.600   1.843   6.248  0.8219 -1.2992  0.4661
  808MOL0     C 9012   4.552   1.725   6.172 -0.4534  0.3298  0.3708
  808MOL0     H 9013   4.623   1.740   6.805 -0.9740  1.3539 -4.0754
  808MOL0     H 9014   4.558   1.563   6.979  1.8800 -0.0632 -2.0850
  808MOL0     H 9015   4.437   1.310   7.080 -1.9925 -2.1065  3.2204
  808MOL0     H 9016   4.388   1.470   7.144 -2.9111  0.4641  1.7414
  808MOL0     H 9017   4.149   1.394   7.142  0.6900 -0.5713 -3.4915
  808MOL0     H 9018   4.266   1.318   7.270 -0.5479 -1.5137  0.3656
  808MOL0     H 9019   4.265   1.106   7.165 -1.9582 -3.0402 -0.4435
  808MOL0     H 9020   4.159   1.152   7.037 -1.9276 -2.2195  0.5001
  808MOL0     H 9021   4.026   1.029   7.211 -2.9339  1.5416 -0.2918
  808MOL0     H 9022   4.118   1.122   7.331  2.9149  2.8898 -1.7453
  808MOL0     H 9023   3.867   1.153   7.306  4.4221 -2.9106  1.0510
  808MOL0     H 9024   3.951   1.313   7.269  1.6622  0.1827  1.4144
  808MOL0     H 9025   3.928   1.268   7.014 -1.5046 -0.2072 -0.8380
  808MOL0     H 9026   3.876   1.107   7.048  1.9436  0.5733 -2.7490
  808MOL0     H 9027   3.724   1.358   7.110 -1.5139  1.2812 -0.4059
  808MOL0     H 9028   3.668   1.194   7.152 -0.4226  2.5111  0.1781
  808MOL0     H 9029   3.694   1.312   6.875  2.8778 -1.7794 -0.5978
  808MOL0     H 9030   3.714   1.139   6.889  1.0055 -1.5911  1.4351
  808MOL0     H 9031   3.490   1.306   7.156  1.1340 -2.2884  0.0053
  808MOL0     H 9032   3.195   1.184   7.181 -0.6885  0.3702  1.2417
  808MOL0     H 9033   3.262   1.348   7.204 -0.3834  1.7339 -1.8523
  808MOL0     H 9034   3.132   1.446   7.042 -1.8620  0.8246  1.8257
  808MOL0     H 9035   3.063   1.291   6.990  1.4977 -2.0354  1.2350
  808MOL0     H 9036   2.955   1.286   7.232 -2.7373 -0.0750 -1.9084
  808MOL0     H 9037   2.894   1.422   7.145  0.1875 -1.3569 -0.6914
  808MOL0     H 9038   3.096   1.396   7.367 -0.2918 -0.0290 -0.2869
  808MOL0     H 9039   2.952   1.499   7.360  1.3370  3.3521  1.0462
  808MOL0     H 9040   3.135   1.567   7.536  2.8538 -0.9094  2.2506
  808MOL0     H 9041   3.318   1.654   7.673  2.2616 -1.1597 -0.1646
  808MOL0     H 9042   3.764   1.999   7.336 -0.0209 -1.8316  0.0948
  808MOL0     H 9043   4.002   2.102   7.388  1.4189 -0.8421  0.8461
  808MOL0     H 9044   4.172   2.163   7.465 -0.5606 -0.2693 -0.3217
  808MOL0     H 9045   4.097   2.305   7.513 -0.0438  0.6250 -0.3815
  808MOL0     H 9046   4.355   2.327   7.538  0.9401  0.9480  0.2139
  808MOL0     H 9047   4.281   2.350   7.699  1.1818  0.8485 -1.0955
  808MOL0     H 9048   4.301   2.085   7.710  0.2655  0.1684  0.8652
  808MOL0     H 9049   4.433   2.099   7.593 -1.2351 -3.7655  0.8361
  808MOL0     H 9050   4.427   2.240   7.860 -0.8905  0.1465 -0.7866
  808MOL0     H 9051   4.547   2.263   7.732  1.7986 -0.3619  2.5071
  808MOL0     H 9052   4.656   2.050   7.757 -0.0711  1.7261 -2.5098
  808MOL0     H 9053   4.506   1.985   7.824  0.2187  0.7677 -1.6257
  808MOL0     H 9054   4.640   2.216   7.974  0.9530 -0.4166  3.6434
  808MOL0     H 9055   4.546   2.080   8.039 -1.8219  1.1808 -1.6545
  808MOL0     H 9056   4.776   2.066   8.097  2.7660 -4.0365 -0.4752
  808MOL0     H 9057   4.833   2.080   7.932  1.5003 -0.3814 -1.1514
  808MOL0     H 9058   4.688   1.834   7.921  1.5745 -2.9639 -0.7119
  808MOL0     H 9059   4.859   1.859   7.966  0.1448 -1.5853 -1.6426
  808MOL0     H 9060   3.882   2.067   7.810  0.4282  0.4997 -0.3276
  808MOL0     H 9061   3.701   1.927   7.740  1.4214  0.0822  1.2705
  808MOL0     H 9062   3.484   1.812   7.302 -0.2329  1.9426  1.5859
  808MOL0     H 9063   3.302   1.717   7.172  4.5499  1.0054 -0.2709
  808MOL0     H 9064   4.190   1.507   6.756  0.7565 -0.4893 -2.1447
  808MOL0     H 9065   4.261   1.683   6.595 -0.2026  2.7379  0.9665
  808MOL0     H 9066   4.591   2.049   6.524 -2.8010  0.1483 -0.6647
  808MOL0     H 9067   4.667   2.200   6.382 -0.7275  1.2802 -2.9016
  808MOL0     H 9068   4.655   2.105   5.956 -1.0825  3.2559 -1.7871
  808MOL0     H 9069   4.825   2.055   5.959  0.0416  1.5802 -4.6610
  808MOL0     H 9070   4.806   2.340   5.952  1.6002 -0.8121 -1.0681
  808MOL0     H 9071   4.719   2.266   5.809  0.0154  1.2875  0.6360
  808MOL0     H 9072   4.923   2.116   5.790 -1.5822 -0.6540  3.2570
  808MOL0     H 9073   5.002   2.238   5.881 -1.0747  1.1682  1.0906
  808MOL0     H 9074   4.994   2.244   5.616 -2.0458 -1.9229 -0.9338
  808MOL0     H 9075   4.825   2.279   5.625 -1.0681 -1.7072  1.6723
  808MOL0     H 9076   4.922   2.667   5.693 -2.9681  1.1401  1.6702
  808MOL0     H 9077   4.659   1.919   6.055 -0.5670  1.0968 -0.2967
  808MOL0     H 9078   4.553   1.625   6.216 -0.0242 -0.4364 -1.2977
  808MOL0     H 9079   4.451   1.747   6.138  0.6547 -0.0231 -3.7366
  808MOL0     H 9080   4.607   1.717   6.077 -1.2623 -0.8750 -0.0249
  809MOL0     O 9081   8.819   1.032   0.317  0.1078  0.0983 -0.4658
  809MOL0     C 9082   8.847   0.956   0.219  0.8090  0.0614 -0.9804
  809MOL0     O 9083   8.810   0.823   0.209  0.2219  0.3806 -0.4431
  809MOL0     C 9084   8.779   0.769   0.335 -0.1549 -0.5038  0.9849
  809MOL0     C 9085   8.864   0.781   0.443 -0.4708  0.7336  0.8911
  809MOL0     C 9086   8.831   0.734   0.561  0.7188  0.5557 -0.7672
  809MOL0     C 9087   8.720   0.645   0.583  0.2354 -0.4610 -0.9263
  809MOL0     O 9088   8.684   0.597   0.708  0.3370  0.0878  0.0453
  809MOL0     C 9089   8.607   0.691   0.780 -0.2006  0.0378  0.0316
  809MOL0     C 9090   8.545   0.611   0.899 -0.0697  0.0441  0.0707
  809MOL0     C 9091   8.442   0.697   0.967  0.1961 -0.7697  0.3338
  809MOL0     C 9092   8.387   0.609   1.085  0.6498 -0.2524 -0.2023
  809MOL0     C 9093   8.270   0.675   1.163  0.4001  0.7513 -1.0261
  809MOL0     C 9094   8.208   0.582   1.270 -0.3035 -0.0599  0.3522
  809MOL0     C 9095   8.212   0.429   1.247 -0.5513  0.6930 -0.5518
  809MOL0     C 9096   8.113   0.337   1.334 -0.5450 -0.0116 -0.6064
  809MOL0     N 9097   8.126   0.351   1.477 -0.9846  0.6951 -0.4661
  809MOL0     C 9098   8.037   0.297   1.567 -0.2735 -0.1373 -0.5704
  809MOL0     C 9099   8.095   0.328   1.688  0.2818  1.2261 -0.4182
  809MOL0     C 9100   8.035   0.304   1.819 -0.0700 -0.1696  0.2506
  809MOL0     C 9101   8.055   0.157   1.843  0.0427  0.6796 -0.8272
  809MOL0     C 9102   7.975   0.117   1.971  0.3418 -0.1105  1.0815
  809MOL0     C 9103   8.003  -0.029   2.027 -0.1149 -0.2497 -0.5729
  809MOL0     O 9104   7.964  -0.131   1.932  0.0996 -0.2832  0.0921
  809MOL0     C 9105   8.008  -0.261   1.937 -0.8558 -0.4863  0.4131
  809MOL0     C 9106   8.005  -0.344   1.826  0.2013 -1.4826 -0.0984
  809MOL0     C 9107   8.055  -0.475   1.826  0.8462  0.1009 -0.2817
  809MOL0     C 9108   8.090  -0.536   1.948  0.5033  0.2033  0.3079
  809MOL0     C 9109   8.132  -0.680   1.954 -0.3962  0.8279 -0.3497
  809MOL0     O 9110   8.102  -0.764   1.850 -0.3203 -0.1808  0.3190
  809MOL0     C 9111   8.162  -0.887   1.824  0.1539  0.0396  0.6050
  809MOL0     C 9112   8.165  -0.987   1.917  0.4000  0.8032 -0.3114
  809MOL0     C 9113   8.216  -1.120   1.879 -0.5060 -0.4473 -0.1814
  809MOL0     C 9114   8.258  -1.144   1.745 -0.3138  0.6820 -0.3476
  809MOL0     O 9115   8.315  -1.273   1.715 -0.0812 -0.8943 -0.6885
  809MOL0     C 9116   8.262  -1.339   1.600  0.1550 -0.1741  0.8319
  809MOL0     C 9117   8.109  -1.353   1.592 -1.2380 -0.5625  0.1670
  809MOL0     C 9118   8.065  -1.490   1.539 -0.0333 -0.1665 -0.0567
  809MOL0     C 9119   7.920  -1.500   1.502  0.0553  0.0319  0.1350
  809MOL0     C 9120   7.870  -1.639   1.448  0.1564 -1.4606 -0.8720
  809MOL0     C 9121   7.750  -1.603   1.376  0.5390  0.2503  0.2070
  809MOL0     C 9122   7.684  -1.726   1.302 -1.1556 -0.2922 -0.5458
  809MOL0     C 9123   7.558  -1.673   1.239 -0.0245 -0.8043 -0.1425
  809MOL0    Cl 9124   7.435  -1.628   1.372 -0.1640 -0.3630  0.2582
  809MOL0     C 9125   8.252  -1.040   1.661  0.7601  0.2149  0.0535
  809MOL0     C 9126   8.209  -0.907   1.698  0.7642 -0.2374  0.2787
  809MOL0     O 9127   8.208  -0.713   2.048 -0.3482 -0.3459  0.9282
  809MOL0     C 9128   8.077  -0.457   2.070 -0.0736  0.3687  0.4051
  809MOL0     C 9129   8.042  -0.321   2.058 -0.8776 -0.5183  0.4944
  809MOL0     N 9130   8.212   0.384   1.665 -0.0118  0.5897 -0.2766
  809MOL0     N 9131   8.233   0.407   1.540  1.0517 -0.6877 -0.1417
  809MOL0     C 9132   8.641   0.615   0.465 -0.4393 -0.6285 -0.3099
  809MOL0     C 9133   8.673   0.684   0.348 -0.4874  0.2856 -0.4705
  809MOL0     C 9134   8.913   1.021   0.100  0.0127 -0.1308  1.0313
  809MOL0     C 9135   8.881   1.151   0.054 -0.6188 -0.7748  0.5762
  809MOL0     C 9136   8.910   1.204  -0.072  1.2513 -0.2522 -0.5228
  809MOL0     C 9137   8.984   1.135  -0.157 -0.2383  0.6744 -0.2137
  809MOL0     O 9138   9.009   1.200  -0.277  0.1275  0.1241  0.0400
  809MOL0     C 9139   9.096   1.152  -0.384 -0.4189 -0.4041  0.3215
  809MOL0     C 9140   9.241   1.184  -0.357 -1.2752 -0.1024  1.1710
  809MOL0     C 9141   9.270   1.305  -0.446  0.5395 -0.1362 -1.1464
  809MOL0     C 9142   9.313   1.259  -0.585 -0.4794 -0.2620  0.2529
  809MOL0     C 9143   9.365   1.385  -0.639 -0.0008  0.6942 -0.3692
  809MOL0     C 9144   9.383   1.504  -0.663  0.3964  0.2012 -0.2758
  809MOL0     C 9145   9.030   1.007  -0.119 -0.0721  0.0567 -0.6018
  809MOL0     C 9146   8.996   0.953   0.010  0.1124 -0.1880 -0.5235
  809MOL0     C 9147   9.066   0.823   0.038 -0.0133 -0.2453  0.5236
  809MOL0     H 9148   8.950   0.845   0.428 -1.5794  1.8874 -1.0267
  809MOL0     H 9149   8.888   0.764   0.649  0.5926  0.7670 -0.7573
  809MOL0     H 9150   8.678   0.768   0.812  1.2844 -2.2460  2.6298
  809MOL0     H 9151   8.530   0.738   0.718  0.3728  1.0027  0.0329
  809MOL0     H 9152   8.635   0.590   0.958  0.8072  1.6945 -0.6235
  809MOL0     H 9153   8.498   0.516   0.869  0.4138  0.3525 -1.8522
  809MOL0     H 9154   8.361   0.727   0.899  0.2956 -1.9234 -0.3251
  809MOL0     H 9155   8.487   0.787   1.010  0.3032  0.2540 -1.8058
  809MOL0     H 9156   8.363   0.508   1.051  0.9633 -1.6688  3.3506
  809MOL0     H 9157   8.471   0.586   1.151 -1.0357 -1.5425  1.5894
  809MOL0     H 9158   8.287   0.777   1.199 -0.0171 -0.1833  2.0947
  809MOL0     H 9159   8.188   0.681   1.090  0.0087 -2.1010 -0.9037
  809MOL0     H 9160   8.253   0.609   1.366 -1.5123  1.0421  0.6351
  809MOL0     H 9161   8.104   0.603   1.294 -0.1719 -0.4195  1.2672
  809MOL0     H 9162   8.316   0.401   1.267 -1.0539 -0.1625  0.9730
  809MOL0     H 9163   8.192   0.394   1.146 -0.8102  1.6163 -0.8367
  809MOL0     H 9164   8.012   0.369   1.305  0.1797  2.5714 -0.5586
  809MOL0     H 9165   8.127   0.232   1.305 -0.5862  0.3313 -1.9558
  809MOL0     H 9166   7.942   0.249   1.548 -1.4656  1.6432  0.5007
  809MOL0     H 9167   8.084   0.371   1.890 -0.8060  0.9814 -0.3035
  809MOL0     H 9168   7.929   0.328   1.815 -0.0798 -0.0125  1.2694
  809MOL0     H 9169   8.037   0.075   1.773  2.1760 -3.4337  2.8644
  809MOL0     H 9170   8.161   0.147   1.868 -0.5463 -1.6754  1.0884
  809MOL0     H 9171   7.870   0.131   1.944  0.3345  1.0741  1.6542
  809MOL0     H 9172   7.990   0.189   2.052 -1.8411  0.1939  1.2744
  809MOL0     H 9173   7.959  -0.031   2.127  0.5901  0.4642 -0.2405
  809MOL0     H 9174   8.109  -0.053   2.040  0.4240  1.9051 -0.6631
  809MOL0     H 9175   7.989  -0.298   1.729  2.7376 -1.4269 -0.5594
  809MOL0     H 9176   8.052  -0.535   1.736 -0.2344  2.1680 -1.7206
  809MOL0     H 9177   8.130  -0.955   2.015  0.2842  3.5497 -1.1673
  809MOL0     H 9178   8.215  -1.203   1.949 -3.4718 -2.6126 -2.4950
  809MOL0     H 9179   8.293  -1.277   1.515  2.0566  1.6389  2.7135
  809MOL0     H 9180   8.298  -1.441   1.584  1.0223  0.1731  0.5184
  809MOL0     H 9181   8.062  -1.330   1.688 -2.3098  1.6733 -0.8203
  809MOL0     H 9182   8.069  -1.283   1.518  0.6932  0.3313 -0.0948
  809MOL0     H 9183   8.120  -1.500   1.445  2.1608 -0.5506  1.2198
  809MOL0     H 9184   8.078  -1.569   1.613 -2.8860 -0.2602  0.4660
  809MOL0     H 9185   7.896  -1.424   1.427 -0.8434 -2.3402 -2.1271
  809MOL0     H 9186   7.873  -1.467   1.596 -0.2228  0.1541 -0.0442
  809MOL0     H 9187   7.854  -1.707   1.532 -0.5742  0.9764  1.1126
  809MOL0     H 9188   7.943  -1.683   1.380  3.3051 -1.5088  2.2239
  809MOL0     H 9189   7.682  -1.558   1.449 -1.1945 -3.3349  1.0301
  809MOL0     H 9190   7.775  -1.531   1.298 -2.4736  0.4229 -0.7495
  809MOL0     H 9191   7.668  -1.807   1.373 -0.2993 -0.8324 -0.9490
  809MOL0     H 9192   7.748  -1.762   1.220 -1.8850 -0.1109 -1.2078
  809MOL0     H 9193   7.585  -1.582   1.187 -3.2829  1.9699  2.4898
  809MOL0     H 9194   7.511  -1.738   1.165 -3.3174  2.9264 -1.6683
  809MOL0     H 9195   8.291  -1.055   1.561 -2.5053  1.0154 -1.4584
  809MOL0     H 9196   8.203  -0.824   1.629 -0.8249 -0.0525  0.6072
  809MOL0     H 9197   8.098  -0.507   2.164  4.3797  4.0181  1.7217
  809MOL0     H 9198   8.040  -0.269   2.153  1.1480  1.0653 -0.2415
  809MOL0     H 9199   8.559   0.546   0.481 -0.7195 -0.3686 -0.6091
  809MOL0     H 9200   8.608   0.664   0.263 -1.6899  0.3885  0.3885
  809MOL0     H 9201   8.814   1.199   0.124 -1.0077 -2.3278  1.3042
  809MOL0     H 9202   8.878   1.301  -0.109  0.1947 -1.2679 -2.4958
  809MOL0     H 9203   9.065   1.204  -0.474 -1.5871 -0.0724  0.8967
  809MOL0     H 9204   9.088   1.045  -0.405 -1.5248 -0.4855  1.0726
  809MOL0     H 9205   9.311   1.103  -0.377 -0.7925  0.4858  0.3947
  809MOL0     H 9206   9.247   1.216  -0.252  3.1250 -2.6567  1.9549
  809MOL0     H 9207   9.359   1.355  -0.406  0.3813  0.3093 -1.3475
  809MOL0     H 9208   9.184   1.372  -0.444  2.8976  3.1109 -1.0914
  809MOL0     H 9209   9.399   1.192  -0.594  0.1600  0.3883  1.3158
  809MOL0     H 9210   9.224   1.230  -0.642 -2.3739  0.2222  2.8061
  809MOL0     H 9211   9.382   1.607  -0.693  2.7631 -0.2490 -2.2596
  809MOL0     H 9212   9.098   0.959  -0.189  0.4777  1.1867 -0.8605
  809MOL0     H 9213   9.026   0.769   0.125 -1.6698 -1.6263 -1.0135
  809MOL0     H 9214   9.045   0.756  -0.046  0.0106 -1.1551  1.2201
  809MOL0     H 9215   9.173   0.844   0.034  0.0011 -0.5242 -1.5980
  810MOL0     O 9216   1.454  10.416   9.474  0.6075  0.1400 -0.5046
  810MOL0     C 9217   1.488  10.343   9.379  0.0124 -0.4474 -0.3419
  810MOL0     O 9218   1.611  10.294   9.352  0.4007 -0.5829 -0.0706
  810MOL0     C 9219   1.718  10.297   9.434  0.3008  0.4227 -0.2211
  810MOL0     C 9220   1.834  10.249   9.370  0.8579  0.0043  0.5153
  810MOL0     C 9221   1.953  10.237   9.433 -0.3695  0.4725 -0.6669
  810MOL0     C 9222   1.964  10.270   9.573  0.5947  0.2951 -0.1594
  810MOL0     O 9223   2.081  10.253   9.638  0.0092  0.1443 -0.5011
  810MOL0     C 9224   2.161  10.138   9.595 -0.2248 -0.4479 -0.7179
  810MOL0     C 9225   2.283  10.204   9.524 -0.3407  0.3485 -0.3462
  810MOL0     C 9226   2.412  10.121   9.515 -0.6810 -0.0373 -0.0536
  810MOL0     C 9227   2.482  10.107   9.653  0.3880 -0.6899  0.2838
  810MOL0     C 9228   2.552   9.974   9.660 -0.5645 -0.1452  0.9899
  810MOL0     C 9229   2.645   9.956   9.539 -0.0541 -0.2977 -0.2200
  810MOL0     C 9230   2.744   9.847   9.570 -0.6899  1.1564  0.6348
  810MOL0     C 9231   2.821   9.808   9.440 -0.3706  0.1457 -0.8586
  810MOL0     N 9232   2.726   9.753   9.335 -0.5864 -0.0058  0.1057
  810MOL0     C 9233   2.596   9.711   9.351  0.1452 -0.5377 -0.1386
  810MOL0     C 9234   2.555   9.664   9.229 -0.4405  0.2804 -0.5843
  810MOL0     C 9235   2.411   9.635   9.183 -0.3316  0.3255  0.3744
  810MOL0     C 9236   2.360   9.534   9.280  0.0285  0.1781 -0.3257
  810MOL0     C 9237   2.214   9.490   9.244  0.4973  0.0315  0.2518
  810MOL0     C 9238   2.150   9.393   9.347  0.7696 -0.6417  0.2492
  810MOL0     O 9239   2.028   9.339   9.299  0.3449 -0.8988  0.2382
  810MOL0     C 9240   1.919   9.426   9.290 -0.2143  0.7931  0.3696
  810MOL0     C 9241   1.849   9.472   9.405  0.0791  0.4893 -0.0939
  810MOL0     C 9242   1.736   9.555   9.382 -0.2124 -0.4180 -1.0317
  810MOL0     C 9243   1.697   9.602   9.249 -0.7611 -0.1961 -0.9669
  810MOL0     C 9244   1.582   9.694   9.231  0.3545 -0.0256  0.1674
  810MOL0     O 9245   1.531   9.757   9.344  0.2490  0.0037 -0.4425
  810MOL0     C 9246   1.399   9.796   9.345 -0.1293 -0.2712 -0.2750
  810MOL0     C 9247   1.359   9.929   9.303 -0.8493  0.7939 -0.6278
  810MOL0     C 9248   1.220   9.966   9.303 -0.3782 -0.0412  0.3544
  810MOL0     C 9249   1.121   9.872   9.337 -0.8229  1.0999  0.1690
  810MOL0     O 9250   0.993   9.904   9.337 -0.2325 -0.3695  0.6434
  810MOL0     C 9251   0.926   9.878   9.212  0.2355  0.3544  0.7293
  810MOL0     C 9252   0.792   9.944   9.231  0.3151 -0.4915  0.5315
  810MOL0     C 9253   0.792  10.090   9.194  0.6855 -0.2194 -0.3099
  810MOL0     C 9254   0.651  10.141   9.196  1.0830  1.3416 -0.3252
  810MOL0     C 9255   0.650  10.294   9.166  0.0000  0.7192  1.0662
  810MOL0     C 9256   0.507  10.345   9.173 -0.2847  0.0452  0.2073
  810MOL0     C 9257   0.422  10.279   9.065 -0.5200  0.3802  1.5887
  810MOL0     C 9258   0.479  10.288   8.919 -0.0807 -0.2270 -0.0101
  810MOL0    Cl 9259   0.416  10.150   8.838 -0.2045  0.2621  0.2771
  810MOL0     C 9260   1.158   9.747   9.368 -0.4013  0.6677 -1.0543
  810MOL0     C 9261   1.300   9.699   9.373 -0.3326  0.0867  0.2260
  810MOL0     O 9262   1.531   9.701   9.117 -1.0459 -0.7765  0.0980
  810MOL0     C 9263   1.760   9.547   9.140  0.1158  0.1007  0.4190
  810MOL0     C 9264   1.868   9.461   9.164 -1.1079  0.2441  1.1082
  810MOL0     N 9265   2.659   9.669   9.146 -0.1750  0.0704  0.3153
  810MOL0     N 9266   2.758   9.721   9.210  0.5516  0.9587  0.1107
  810MOL0     C 9267   1.852  10.331   9.632 -0.1281 -1.0268  0.3203
  810MOL0     C 9268   1.731  10.339   9.568  0.4134 -0.0079  0.3301
  810MOL0     C 9269   1.400  10.336   9.257  1.0700  0.1020  0.1967
  810MOL0     C 9270   1.454  10.302   9.138 -0.1838 -0.1075 -0.1741
  810MOL0     C 9271   1.377  10.265   9.028 -0.1149 -0.0838  1.3664
  810MOL0     C 9272   1.242  10.242   9.046  0.7571  0.7098 -0.1860
  810MOL0     O 9273   1.154  10.199   8.949 -0.0836  0.2529 -0.1709
  810MOL0     C 9274   1.192  10.091   8.869 -0.1708 -0.7036  0.1112
  810MOL0     C 9275   1.128  10.099   8.726 -0.3200  0.2294 -0.2876
  810MOL0     C 9276   0.983  10.055   8.713  0.1999 -0.4803 -0.8785
  810MOL0     C 9277   0.884  10.130   8.806 -0.0572 -1.0172  0.3605
  810MOL0     C 9278   0.866  10.274   8.785  1.0999  0.4590 -0.5412
  810MOL0     C 9279   0.827  10.390   8.760  0.8018  0.1677  1.3468
  810MOL0     C 9280   1.188  10.291   9.163 -0.7223  0.4146 -0.5095
  810MOL0     C 9281   1.260  10.339   9.267  0.9296 -0.3725  0.4250
  810MOL0     C 9282   1.176  10.400   9.381  0.2989 -0.3547  0.0209
  810MOL0     H 9283   1.819  10.206   9.271 -4.2866  1.4704  0.3504
  810MOL0     H 9284   2.038  10.203   9.376  0.0261  1.6616 -0.8087
  810MOL0     H 9285   2.216  10.105   9.685  2.2234  1.9062 -1.2170
  810MOL0     H 9286   2.105  10.062   9.540 -0.7418  0.4597 -1.4698
  810MOL0     H 9287   2.316  10.295   9.575 -0.3481 -0.5819  1.3642
  810MOL0     H 9288   2.243  10.223   9.424 -3.0540 -3.5214 -0.2090
  810MOL0     H 9289   2.482  10.165   9.442  2.0651 -1.8206  1.3213
  810MOL0     H 9290   2.365  10.029   9.479 -0.2472  0.7023 -2.7380
  810MOL0     H 9291   2.545  10.188   9.692 -0.6761 -0.2013  1.0308
  810MOL0     H 9292   2.409  10.115   9.734 -0.6596 -2.2405 -0.4591
  810MOL0     H 9293   2.601   9.949   9.755 -1.1938 -1.6803  0.9263
  810MOL0     H 9294   2.472   9.900   9.658 -1.3575  0.6915  0.8665
  810MOL0     H 9295   2.585   9.954   9.448 -0.4936  1.6058 -0.0052
  810MOL0     H 9296   2.703  10.047   9.524  0.4672 -0.5903 -0.0174
  810MOL0     H 9297   2.705   9.751   9.603  2.0874 -1.2493 -2.3784
  810MOL0     H 9298   2.830   9.877   9.631  1.0343  0.3913 -1.3007
  810MOL0     H 9299   2.870   9.896   9.397 -1.7335  1.6927  0.6067
  810MOL0     H 9300   2.898   9.736   9.468 -2.4510 -1.6854  0.5325
  810MOL0     H 9301   2.539   9.724   9.442  1.9415  3.2599  0.6597
  810MOL0     H 9302   2.356   9.726   9.206 -0.7236  0.7508 -2.0487
  810MOL0     H 9303   2.407   9.604   9.079  0.8493  0.6170  0.2212
  810MOL0     H 9304   2.435   9.455   9.287  1.2999  1.1939 -1.8801
  810MOL0     H 9305   2.345   9.586   9.375 -2.8892 -3.6704  1.5829
  810MOL0     H 9306   2.211   9.433   9.151 -0.6545  0.4506  0.0148
  810MOL0     H 9307   2.144   9.571   9.221 -0.2839 -1.6421 -4.2197
  810MOL0     H 9308   2.137   9.456   9.435 -0.4678 -1.2825  0.5533
  810MOL0     H 9309   2.220   9.311   9.367  0.1846 -1.2324 -0.0768
  810MOL0     H 9310   1.884   9.446   9.504 -2.3547 -2.1081  0.1952
  810MOL0     H 9311   1.680   9.591   9.467  0.1355 -1.3572 -0.3824
  810MOL0     H 9312   1.435  10.001   9.273 -1.5371  3.0908  2.5715
  810MOL0     H 9313   1.188  10.066   9.274 -2.1007 -0.8357 -0.6198
  810MOL0     H 9314   0.987   9.924   9.134  1.0249 -1.1458  0.4318
  810MOL0     H 9315   0.912   9.771   9.199 -1.4247  0.3505  2.1761
  810MOL0     H 9316   0.713   9.894   9.174 -2.3431  0.3429  3.2226
  810MOL0     H 9317   0.764   9.933   9.336  3.9184  2.5174  2.0009
  810MOL0     H 9318   0.845  10.151   9.268 -0.5402  0.5610 -0.0448
  810MOL0     H 9319   0.838  10.107   9.096 -1.3032 -0.1089 -1.2648
  810MOL0     H 9320   0.605  10.130   9.295  2.8160  0.5353  0.4351
  810MOL0     H 9321   0.604  10.078   9.120  0.1427  1.9954 -0.2963
  810MOL0     H 9322   0.699  10.318   9.072  0.2190 -1.0063  0.7051
  810MOL0     H 9323   0.719  10.351   9.229 -0.1394  1.5129  0.5136
  810MOL0     H 9324   0.472  10.323   9.274 -1.2921  3.4770  0.7131
  810MOL0     H 9325   0.502  10.453   9.158 -0.6771  0.4754  2.9557
  810MOL0     H 9326   0.322  10.322   9.075 -0.8729 -0.6658  3.0076
  810MOL0     H 9327   0.408  10.172   9.083  1.5374 -0.9907 -3.4153
  810MOL0     H 9328   0.438  10.379   8.874 -0.2997 -0.0449  0.5543
  810MOL0     H 9329   0.586  10.299   8.900 -0.0292 -0.2177  0.2842
  810MOL0     H 9330   1.092   9.672   9.409 -2.8745  3.6344  0.8852
  810MOL0     H 9331   1.340   9.602   9.401  1.3157  0.9145  0.8464
  810MOL0     H 9332   1.730   9.573   9.039 -1.1971  0.0491  0.7756
  810MOL0     H 9333   1.917   9.405   9.085 -0.5899  0.9186  0.9404
  810MOL0     H 9334   1.856  10.361   9.736 -1.8304  0.7166 -0.0612
  810MOL0     H 9335   1.652  10.368   9.637  1.4952  0.9109  1.2194
  810MOL0     H 9336   1.562  10.295   9.125  0.0830  1.5812  0.7889
  810MOL0     H 9337   1.413  10.245   8.928 -2.4968  1.1726  0.1597
  810MOL0     H 9338   1.162   9.989   8.895  1.5970 -2.9669 -5.3440
  810MOL0     H 9339   1.300  10.076   8.859 -0.4243 -2.1192 -0.8468
  810MOL0     H 9340   1.179  10.034   8.655  0.2839  1.1209 -0.6883
  810MOL0     H 9341   1.150  10.198   8.685  0.4979 -0.1665 -0.8499
  810MOL0     H 9342   0.976   9.948   8.730  3.9535 -0.7615 -0.2991
  810MOL0     H 9343   0.963  10.070   8.606  1.8305 -4.3568 -1.8838
  810MOL0     H 9344   0.785  10.088   8.785 -1.3654  1.4183  1.2472
  810MOL0     H 9345   0.903  10.107   8.912  2.7949 -2.7773 -0.4351
  810MOL0     H 9346   0.789  10.489   8.747  1.7733  0.4003 -0.0109
  810MOL0     H 9347   1.081  10.309   9.171 -0.5721  1.9645 -1.4243
  810MOL0     H 9348   1.073  10.426   9.357  0.7242  2.3273  0.8510
  810MOL0     H 9349   1.181  10.324   9.460 -1.1152 -1.4355 -0.8683
  810MOL0     H 9350   1.213  10.495   9.419 -2.7422  0.7042  0.6043
  811MOL0     O 9351   1.772   6.813   9.792  0.7602 -0.4166  0.1410
  811MOL0     C 9352   1.876   6.746   9.797  0.2582  0.6237  1.0131
  811MOL0     O 9353   1.996   6.789   9.755 -0.1614  0.3332  0.0647
  811MOL0     C 9354   2.019   6.919   9.722 -1.5248  0.1027  0.5894
  811MOL0     C 9355   2.013   6.968   9.586  0.0159  0.2970 -0.7384
  811MOL0     C 9356   2.040   7.104   9.558 -0.1195 -0.3148  0.7692
  811MOL0     C 9357   2.078   7.189   9.662  0.3236 -0.1192 -0.0187
  811MOL0     O 9358   2.118   7.316   9.627  0.2363 -0.4036 -0.5173
  811MOL0     C 9359   2.130   7.420   9.720 -0.7534 -1.0173 -0.2231
  811MOL0     C 9360   2.106   7.558   9.654  0.4819  0.3929 -0.0298
  811MOL0     C 9361   2.214   7.613   9.550  0.2183 -0.4035 -0.3236
  811MOL0     C 9362   2.206   7.766   9.554 -0.4213  0.0279 -1.0014
  811MOL0     C 9363   2.334   7.831   9.505  0.5480 -0.2889  0.0654
  811MOL0     C 9364   2.466   7.805   9.591 -0.2831 -0.4060  0.6057
  811MOL0     C 9365   2.486   7.877   9.720  0.1983 -0.6965  0.3665
  811MOL0     C 9366   2.482   8.033   9.714  0.9367 -0.0277  0.5136
  811MOL0     N 9367   2.592   8.093   9.628 -0.5918  0.1098 -0.2500
  811MOL0     C 9368   2.726   8.055   9.624  0.0726  0.0851 -0.3599
  811MOL0     C 9369   2.784   8.116   9.517 -1.4969 -0.4551  0.1626
  811MOL0     C 9370   2.931   8.105   9.484  0.1072 -0.5432 -0.2737
  811MOL0     C 9371   3.009   8.216   9.553 -0.6673  0.3529  0.0988
  811MOL0     C 9372   3.164   8.177   9.535 -0.1977  0.7634 -0.0299
  811MOL0     C 9373   3.252   8.279   9.602  0.3706 -0.1279 -0.9793
  811MOL0     O 9374   3.384   8.276   9.544  0.2064 -0.2273 -0.3605
  811MOL0     C 9375   3.480   8.333   9.627  0.5076 -0.5715 -0.0580
  811MOL0     C 9376   3.502   8.279   9.753  0.5386  0.4817 -0.0437
  811MOL0     C 9377   3.598   8.336   9.837 -0.3913 -1.1376  0.3447
  811MOL0     C 9378   3.685   8.438   9.791 -0.8048  0.5730  0.7460
  811MOL0     C 9379   3.797   8.500   9.873  0.5019 -0.0763 -0.6781
  811MOL0     O 9380   3.883   8.568   9.801 -0.2624 -0.3990  1.1600
  811MOL0     C 9381   3.993   8.628   9.848 -0.7241  0.5592 -0.0531
  811MOL0     C 9382   4.101   8.561   9.919  0.5565 -0.2259  0.7019
  811MOL0     C 9383   4.208   8.636   9.969  0.1240  1.3907 -0.9668
  811MOL0     C 9384   4.221   8.773   9.941 -0.4484 -0.7493  0.4417
  811MOL0     O 9385   4.326   8.845   9.991 -0.0585  1.0435 -0.3509
  811MOL0     C 9386   4.454   8.784   9.958  0.6238  0.2600  0.3718
  811MOL0     C 9387   4.570   8.874   9.956  0.8909 -0.3315 -0.2720
  811MOL0     C 9388   4.574   8.967   9.834 -0.3606 -0.1760 -0.2281
  811MOL0     C 9389   4.509   9.096   9.860 -0.2510  0.0725  0.2029
  811MOL0     C 9390   4.542   9.203   9.741  0.4873 -0.1870  0.3110
  811MOL0     C 9391   4.460   9.331   9.761 -0.2116  0.4717  1.1360
  811MOL0     C 9392   4.469   9.403   9.635 -1.2312 -0.1856 -0.2783
  811MOL0     C 9393   4.379   9.527   9.659  0.5110 -0.2088  0.3453
  811MOL0    Cl 9394   4.341   9.596   9.494 -0.1604  0.3037  0.2603
  811MOL0     C 9395   4.121   8.834   9.861 -0.0557 -0.6266 -0.6352
  811MOL0     C 9396   4.006   8.768   9.828 -0.3842  0.2328 -0.0017
  811MOL0     O 9397   3.805   8.474   9.996  0.0236 -0.0381  0.1019
  811MOL0     C 9398   3.676   8.475   9.656  0.4616 -0.5772 -0.0139
  811MOL0     C 9399   3.569   8.428   9.580  0.2126  0.1526 -0.3609
  811MOL0     N 9400   2.682   8.177   9.454  0.6054 -0.5932  0.1541
  811MOL0     N 9401   2.560   8.159   9.512 -0.4568 -0.0533  0.3532
  811MOL0     C 9402   2.093   7.143   9.798  0.6113  0.3607  0.9686
  811MOL0     C 9403   2.063   7.010   9.821 -0.9381  0.3266 -0.9093
  811MOL0     C 9404   1.858   6.618   9.860 -0.1198  0.3991  0.0432
  811MOL0     C 9405   1.892   6.501   9.793 -0.8327 -0.8885  0.0312
  811MOL0     C 9406   1.868   6.380   9.843 -0.1362  1.7865  1.2721
  811MOL0     C 9407   1.804   6.363   9.971  0.2980 -0.4612  1.1474
  811MOL0     O 9408   1.771   6.248  10.031 -0.4012 -0.5770 -0.1508
  811MOL0     C 9409   1.735   6.129   9.950  0.2320 -0.4471  0.4368
  811MOL0     C 9410   1.661   6.018  10.038 -0.9124 -0.3038  0.5323
  811MOL0     C 9411   1.655   5.897   9.956 -0.3074 -0.4133 -0.3636
  811MOL0     C 9412   1.554   5.801  10.012  0.8822 -0.9490 -1.0351
  811MOL0     C 9413   1.574   5.759  10.146 -0.4950  1.1329  0.3397
  811MOL0     C 9414   1.598   5.739  10.264 -0.0249 -0.6518 -0.0404
  811MOL0     C 9415   1.771   6.476  10.036  0.1381 -0.2687 -0.3291
  811MOL0     C 9416   1.801   6.604   9.988  0.2210 -0.0278  0.4128
  811MOL0     C 9417   1.782   6.731  10.066 -0.2354 -0.0347 -0.4222
  811MOL0     H 9418   1.981   6.893   9.514  0.6756  0.0786 -0.8099
  811MOL0     H 9419   2.033   7.145   9.458  1.0132  2.8132  1.8642
  811MOL0     H 9420   2.068   7.401   9.808  1.0459 -3.9315  0.5896
  811MOL0     H 9421   2.236   7.418   9.746 -0.7360  2.8030  0.5196
  811MOL0     H 9422   2.097   7.641   9.724 -0.5709 -0.0662  0.4075
  811MOL0     H 9423   2.012   7.553   9.598 -0.3374  2.5874  1.0307
  811MOL0     H 9424   2.191   7.572   9.452  0.1380  0.1199 -0.5271
  811MOL0     H 9425   2.309   7.573   9.583  1.0183 -1.0427 -3.1602
  811MOL0     H 9426   2.131   7.806   9.485 -0.2047 -1.9344 -2.4741
  811MOL0     H 9427   2.197   7.799   9.657 -0.1311  1.2137 -1.3450
  811MOL0     H 9428   2.350   7.789   9.405 -2.4557 -1.5263 -0.0128
  811MOL0     H 9429   2.321   7.939   9.497  0.3133 -0.3162  0.0693
  811MOL0     H 9430   2.473   7.696   9.605  2.1938 -0.2025  1.4370
  811MOL0     H 9431   2.551   7.818   9.524 -1.9109 -1.4090 -1.7907
  811MOL0     H 9432   2.577   7.851   9.775  0.2304 -2.7732 -0.5998
  811MOL0     H 9433   2.406   7.862   9.793 -0.5775  0.1415 -0.2914
  811MOL0     H 9434   2.384   8.071   9.685  1.5873  1.0384 -0.3652
  811MOL0     H 9435   2.503   8.056   9.819  0.4116 -1.7741  1.0380
  811MOL0     H 9436   2.780   7.981   9.682  1.8371  0.1687 -1.8358
  811MOL0     H 9437   2.965   8.013   9.533 -0.3483  0.2642  1.6642
  811MOL0     H 9438   2.950   8.096   9.377  2.5223 -1.2693  0.1456
  811MOL0     H 9439   2.999   8.308   9.495  1.3982  0.6674  0.1622
  811MOL0     H 9440   2.973   8.233   9.654 -1.6070 -0.4290 -0.0979
  811MOL0     H 9441   3.174   8.174   9.427 -1.7070  2.5972 -0.2683
  811MOL0     H 9442   3.180   8.077   9.577 -1.4727 -0.4644 -2.3212
  811MOL0     H 9443   3.256   8.263   9.710 -0.8923  2.2537 -0.5253
  811MOL0     H 9444   3.201   8.375   9.594  1.5969  0.7154  0.6345
  811MOL0     H 9445   3.444   8.195   9.789 -0.0579  0.5030 -0.9203
  811MOL0     H 9446   3.597   8.303   9.940 -3.4496  3.1924  2.0220
  811MOL0     H 9447   4.098   8.454   9.936  0.7764  0.1079  3.2081
  811MOL0     H 9448   4.282   8.578  10.023 -2.5914  2.1877  4.2193
  811MOL0     H 9449   4.455   8.706  10.034 -4.4469  1.9213  2.5739
  811MOL0     H 9450   4.436   8.738   9.860 -2.8205  1.1765  0.4365
  811MOL0     H 9451   4.573   8.918  10.056  1.5016  3.0635 -1.6293
  811MOL0     H 9452   4.661   8.820   9.930  1.2976  0.4056 -0.4343
  811MOL0     H 9453   4.678   8.998   9.820 -0.1771 -1.1330 -1.1686
  811MOL0     H 9454   4.535   8.919   9.744 -2.3818 -0.7172  0.8705
  811MOL0     H 9455   4.546   9.137   9.955  3.1406  0.9385 -1.3482
  811MOL0     H 9456   4.402   9.075   9.855  0.1585 -1.9073 -1.8189
  811MOL0     H 9457   4.516   9.156   9.645  0.7923 -0.9697  0.6068
  811MOL0     H 9458   4.648   9.231   9.742 -0.0888  2.4676  3.0265
  811MOL0     H 9459   4.355   9.308   9.778  0.0358 -0.6368  1.2643
  811MOL0     H 9460   4.501   9.374   9.852  1.8486 -5.3832  3.4422
  811MOL0     H 9461   4.418   9.346   9.557 -1.1679 -1.0836  0.3219
  811MOL0     H 9462   4.573   9.422   9.604 -1.8552  1.7307 -1.3623
  811MOL0     H 9463   4.290   9.502   9.719  1.1200 -0.5477  1.1345
  811MOL0     H 9464   4.436   9.600   9.717  0.7635 -1.2306  1.4335
  811MOL0     H 9465   4.139   8.938   9.837  2.6721 -1.3822 -2.3091
  811MOL0     H 9466   3.940   8.828   9.766  0.6638  1.5800  0.1491
  811MOL0     H 9467   3.745   8.551   9.618  1.3412  0.0410  2.6300
  811MOL0     H 9468   3.555   8.448   9.474  0.7191  0.4453 -0.3763
  811MOL0     H 9469   2.123   7.214   9.874 -0.5156  0.4609  1.3472
  811MOL0     H 9470   2.070   6.972   9.923 -1.4356 -0.2187 -1.0740
  811MOL0     H 9471   1.930   6.505   9.691 -0.0333 -1.4757  0.2956
  811MOL0     H 9472   1.899   6.293   9.786 -2.4858  0.2553  2.1846
  811MOL0     H 9473   1.822   6.080   9.905 -2.0476 -1.2613 -3.5086
  811MOL0     H 9474   1.662   6.148   9.871  0.9362  2.0457  0.3123
  811MOL0     H 9475   1.562   6.052  10.070 -0.2883 -0.3442  2.6462
  811MOL0     H 9476   1.737   6.003  10.115  0.3058 -0.5785 -0.6929
  811MOL0     H 9477   1.754   5.852   9.959 -0.1227 -0.0198 -0.5683
  811MOL0     H 9478   1.633   5.907   9.849  2.0665 -0.9469 -0.9644
  811MOL0     H 9479   1.458   5.855  10.014  3.0530  3.3659 -1.0340
  811MOL0     H 9480   1.539   5.721   9.939  1.8716  0.3812 -2.7602
  811MOL0     H 9481   1.634   5.733  10.365  0.1637  0.6809 -0.0021
  811MOL0     H 9482   1.722   6.469  10.133 -3.4649  1.6092 -1.8411
  811MOL0     H 9483   1.860   6.806  10.053 -1.3643  1.4997  1.2350
  811MOL0     H 9484   1.682   6.770  10.043 -0.6145 -0.1703  0.8881
  811MOL0     H 9485   1.782   6.709  10.173  2.8513 -1.2757 -0.5711
  812MOL0     O 9486   3.144   7.691   7.594  0.0261  1.0322  0.4803
  812MOL0     C 9487   3.230   7.605   7.626  0.3951 -0.2073 -0.3557
  812MOL0     O 9488   3.361   7.601   7.592 -0.5282 -0.1496  0.2116
  812MOL0     C 9489   3.411   7.686   7.491 -0.6577  0.3331  0.1445
  812MOL0     C 9490   3.382   7.821   7.495 -0.5351 -0.6225  0.1547
  812MOL0     C 9491   3.444   7.919   7.406 -0.7171 -0.1576 -0.5849
  812MOL0     C 9492   3.529   7.875   7.306  0.6894  0.2774 -0.2989
  812MOL0     O 9493   3.588   7.943   7.206  0.2424 -0.6886 -0.5852
  812MOL0     C 9494   3.543   8.084   7.193 -0.7368  0.7048 -0.1591
  812MOL0     C 9495   3.558   8.136   7.051  0.2405  0.6299 -0.1375
  812MOL0     C 9496   3.465   8.052   6.955 -1.0184  0.6359 -0.4285
  812MOL0     C 9497   3.319   8.106   6.958 -0.7978  1.6273 -0.1910
  812MOL0     C 9498   3.230   8.025   6.865  0.5096 -0.3089  0.9391
  812MOL0     C 9499   3.282   8.034   6.720 -0.3675  0.3304 -0.0116
  812MOL0     C 9500   3.159   7.999   6.616 -0.4593  0.1396 -0.5365
  812MOL0     C 9501   3.211   8.005   6.475  1.0298 -0.1031 -0.9066
  812MOL0     N 9502   3.258   8.134   6.439 -0.2391  0.6683  0.7754
  812MOL0     C 9503   3.182   8.237   6.380 -0.9992 -0.5475 -0.4730
  812MOL0     C 9504   3.270   8.331   6.333  0.5588  0.4913 -0.2867
  812MOL0     C 9505   3.229   8.452   6.268 -0.4038 -1.7937  0.7531
  812MOL0     C 9506   3.315   8.483   6.143  0.1230 -0.1662 -0.0901
  812MOL0     C 9507   3.340   8.362   6.045  0.1755  0.2163 -0.3168
  812MOL0     C 9508   3.422   8.400   5.925 -0.3593  0.1507  0.3921
  812MOL0     O 9509   3.472   8.288   5.845 -1.2836  0.3597 -0.0834
  812MOL0     C 9510   3.578   8.208   5.895 -0.9007  0.3214 -0.2677
  812MOL0     C 9511   3.614   8.100   5.810 -0.1512 -0.0319  0.2619
  812MOL0     C 9512   3.681   7.999   5.862 -0.3792  0.5010  1.6158
  812MOL0     C 9513   3.722   7.998   5.999  0.6438  0.1031  1.0578
  812MOL0     C 9514   3.798   7.870   6.041  0.5543  0.4640 -0.9364
  812MOL0     O 9515   3.833   7.777   5.944 -0.0143  0.0742  0.5128
  812MOL0     C 9516   3.912   7.677   5.990  0.2130  1.0908 -0.8615
  812MOL0     C 9517   4.042   7.678   5.944 -0.2293  1.2227  0.3932
  812MOL0     C 9518   4.127   7.572   5.977  0.4381 -0.8451 -0.3393
  812MOL0     C 9519   4.071   7.459   6.043 -0.5143  1.1011 -0.1388
  812MOL0     O 9520   4.142   7.342   6.056  0.2943 -0.1466 -0.5752
  812MOL0     C 9521   4.232   7.318   5.941 -0.3849  0.0172 -0.5115
  812MOL0     C 9522   4.322   7.193   5.965 -0.6241  0.7795  0.0340
  812MOL0     C 9523   4.372   7.128   5.824 -0.3710 -0.1426  0.9276
  812MOL0     C 9524   4.448   6.994   5.837 -0.8432  0.8610 -0.7416
  812MOL0     C 9525   4.514   6.958   5.708  0.4244 -0.2555 -0.7483
  812MOL0     C 9526   4.643   7.039   5.691  0.0575  1.5701  0.2323
  812MOL0     C 9527   4.723   6.996   5.571 -0.2950  0.4453  0.6198
  812MOL0     C 9528   4.787   7.104   5.496 -0.0854 -1.1231 -0.2015
  812MOL0    Cl 9529   4.870   7.215   5.612  0.3511  0.2658 -0.0297
  812MOL0     C 9530   3.938   7.459   6.081 -0.6103 -0.5876 -0.7895
  812MOL0     C 9531   3.859   7.569   6.059  0.6727 -0.7502  0.7283
  812MOL0     O 9532   3.831   7.869   6.160 -0.7424 -0.5239  0.2422
  812MOL0     C 9533   3.701   8.112   6.082 -0.0255  0.8669  1.1693
  812MOL0     C 9534   3.635   8.216   6.024 -0.5963  0.2767 -0.2596
  812MOL0     N 9535   3.393   8.283   6.355  0.2103  0.3304 -0.3932
  812MOL0     N 9536   3.390   8.174   6.429  0.9385  0.3690  0.4981
  812MOL0     C 9537   3.561   7.738   7.302 -0.6508  0.2812 -0.0899
  812MOL0     C 9538   3.511   7.644   7.394 -0.1397 -0.0671 -0.8267
  812MOL0     C 9539   3.192   7.519   7.743 -0.0967  1.0614  0.2255
  812MOL0     C 9540   3.292   7.457   7.822  0.0296  0.3322 -0.1500
  812MOL0     C 9541   3.252   7.415   7.957 -0.8848  0.6198 -0.7918
  812MOL0     C 9542   3.127   7.386   7.987 -0.9678  0.6576 -0.1907
  812MOL0     O 9543   3.104   7.341   8.116  0.0710  0.6507  0.0415
  812MOL0     C 9544   2.999   7.248   8.153  0.1336 -0.0848  0.7007
  812MOL0     C 9545   2.998   7.125   8.068  0.5335 -0.3220  0.4901
  812MOL0     C 9546   2.898   7.012   8.124 -0.8866 -0.0930 -0.3114
  812MOL0     C 9547   2.899   6.883   8.050  0.0103  0.4050 -0.1837
  812MOL0     C 9548   2.879   6.889   7.904 -0.5830 -0.3764 -0.0188
  812MOL0     C 9549   2.858   6.909   7.785 -0.0358 -0.3401  0.3888
  812MOL0     C 9550   3.023   7.410   7.896 -0.3174 -0.5276 -0.0472
  812MOL0     C 9551   3.053   7.485   7.779 -0.1591 -0.8478  0.7796
  812MOL0     C 9552   2.932   7.517   7.697 -0.0194  0.2294 -0.6690
  812MOL0     H 9553   3.317   7.849   7.577  1.1383 -1.3718  1.8333
  812MOL0     H 9554   3.422   8.023   7.427 -0.0159 -0.0020 -0.5808
  812MOL0     H 9555   3.436   8.092   7.216 -0.5791  1.3230  0.3997
  812MOL0     H 9556   3.600   8.144   7.264 -1.0790 -0.8152  1.4538
  812MOL0     H 9557   3.664   8.134   7.025  0.1171  5.1758 -1.7797
  812MOL0     H 9558   3.535   8.243   7.042 -3.3273 -0.1829 -3.3796
  812MOL0     H 9559   3.477   7.944   6.966  1.1177  0.5413 -2.8231
  812MOL0     H 9560   3.495   8.066   6.851  1.1609 -2.4980 -0.3655
  812MOL0     H 9561   3.268   8.101   7.055 -0.8916 -0.7401 -0.2891
  812MOL0     H 9562   3.327   8.210   6.927 -0.5253  0.7487 -3.5094
  812MOL0     H 9563   3.228   7.921   6.899  0.3512 -0.8143 -0.5569
  812MOL0     H 9564   3.127   8.062   6.870 -0.2783 -2.1692 -0.3897
  812MOL0     H 9565   3.330   8.128   6.693  2.5173  0.1134  3.5679
  812MOL0     H 9566   3.355   7.954   6.710  0.9906  1.2806  1.6988
  812MOL0     H 9567   3.076   8.063   6.647 -0.7446 -0.3872 -0.1815
  812MOL0     H 9568   3.127   7.896   6.635  4.5641 -1.3440  1.6109
  812MOL0     H 9569   3.293   7.935   6.460  2.6500  1.8904 -1.8202
  812MOL0     H 9570   3.125   7.976   6.413 -2.1704  2.9494  1.6858
  812MOL0     H 9571   3.077   8.255   6.356 -0.4477  0.2958 -2.4301
  812MOL0     H 9572   3.125   8.445   6.234 -0.5796  2.6961 -0.1957
  812MOL0     H 9573   3.239   8.532   6.341  0.2576  0.9442 -2.1071
  812MOL0     H 9574   3.254   8.561   6.095 -1.0729 -0.5855  0.7069
  812MOL0     H 9575   3.408   8.531   6.174 -0.2105  1.0825 -0.9417
  812MOL0     H 9576   3.249   8.310   6.013  2.0841 -0.5426 -5.5284
  812MOL0     H 9577   3.398   8.289   6.103  2.1326 -0.2336 -2.6546
  812MOL0     H 9578   3.498   8.471   5.959 -0.0061 -0.9319  2.0072
  812MOL0     H 9579   3.354   8.457   5.861 -1.4414 -1.7376 -0.2283
  812MOL0     H 9580   3.575   8.089   5.710  0.9248  0.7610 -0.2650
  812MOL0     H 9581   3.704   7.917   5.794  4.8832  3.1646 -0.3970
  812MOL0     H 9582   4.095   7.763   5.900  4.0341  0.1269  2.8541
  812MOL0     H 9583   4.232   7.580   5.950  0.5089  3.1808  0.5473
  812MOL0     H 9584   4.168   7.291   5.856 -1.6537 -2.3133  1.0732
  812MOL0     H 9585   4.309   7.394   5.925  1.6575 -1.6484  0.9453
  812MOL0     H 9586   4.398   7.232   6.032  1.4464 -2.0054 -0.5049
  812MOL0     H 9587   4.259   7.121   6.018  0.3840 -1.4522 -1.6510
  812MOL0     H 9588   4.280   7.102   5.771 -1.1690 -0.3506  2.3712
  812MOL0     H 9589   4.431   7.202   5.768 -1.3295  0.0055  0.0923
  812MOL0     H 9590   4.382   6.912   5.867  1.4410 -0.1198  2.0118
  812MOL0     H 9591   4.522   6.999   5.917  2.1621 -1.8462 -3.1053
  812MOL0     H 9592   4.455   6.975   5.617 -0.3466  0.3395 -0.1490
  812MOL0     H 9593   4.536   6.851   5.711 -0.4851 -0.4868  3.5199
  812MOL0     H 9594   4.624   7.147   5.690  4.5642  2.5650  0.4738
  812MOL0     H 9595   4.689   7.011   5.786 -1.3794 -0.9396  0.2912
  812MOL0     H 9596   4.652   6.954   5.500  0.4368  2.6218 -1.5444
  812MOL0     H 9597   4.797   6.920   5.599 -1.1481 -0.3930  0.6495
  812MOL0     H 9598   4.852   7.059   5.420  1.1344 -0.3351  0.3410
  812MOL0     H 9599   4.716   7.160   5.434  1.8791 -0.1896 -1.7001
  812MOL0     H 9600   3.886   7.377   6.128 -0.5692 -2.7766 -4.2274
  812MOL0     H 9601   3.757   7.567   6.097  0.4491  1.5985  0.4294
  812MOL0     H 9602   3.747   8.123   6.179 -3.5271  2.3808  2.8157
  812MOL0     H 9603   3.621   8.303   6.087 -2.6480  0.5454 -0.9953
  812MOL0     H 9604   3.621   7.700   7.220  0.0953  0.6299  0.2797
  812MOL0     H 9605   3.531   7.537   7.392  0.5869  0.0681 -1.3291
  812MOL0     H 9606   3.400   7.463   7.817  0.0459  1.1546  0.9097
  812MOL0     H 9607   3.324   7.380   8.029 -1.3792  1.7000  0.2641
  812MOL0     H 9608   2.903   7.295   8.132  0.9012  2.2573  2.0727
  812MOL0     H 9609   3.016   7.220   8.257  0.3473  1.2690  1.0527
  812MOL0     H 9610   3.094   7.076   8.049  0.9268  0.5470  0.1503
  812MOL0     H 9611   2.946   7.137   7.972 -1.7304  3.3202  1.9306
  812MOL0     H 9612   2.793   7.044   8.126 -0.0714  2.8634  0.0699
  812MOL0     H 9613   2.911   6.985   8.229 -1.0288 -0.0717 -0.2884
  812MOL0     H 9614   2.997   6.835   8.062  0.6523  2.2001  2.9377
  812MOL0     H 9615   2.821   6.818   8.092 -0.0144  1.4946  1.5463
  812MOL0     H 9616   2.835   6.936   7.684 -0.7605  2.1831  1.1673
  812MOL0     H 9617   2.923   7.388   7.934 -1.2030  1.6478 -0.9316
  812MOL0     H 9618   2.850   7.508   7.768 -1.8085 -1.9965 -2.8695
  812MOL0     H 9619   2.925   7.622   7.664  1.7581  0.0214 -1.8689
  812MOL0     H 9620   2.900   7.454   7.613 -1.5343  1.9401 -1.4504
  813MOL0     O 9621   6.846   0.997   2.596  0.0015 -0.0327  0.0629
  813MOL0     C 9622   6.728   0.966   2.605 -0.3938 -0.0893 -0.7830
  813MOL0     O 9623   6.643   0.936   2.497 -0.5304 -0.0807 -0.2697
  813MOL0     C 9624   6.685   0.971   2.372 -0.0718 -0.1877  0.9501
  813MOL0     C 9625   6.605   1.047   2.282 -0.9927  1.3008  0.2987
  813MOL0     C 9626   6.655   1.086   2.154 -0.3963 -0.6381  0.5687
  813MOL0     C 9627   6.772   1.025   2.106 -1.0919  0.2179 -0.1467
  813MOL0     O 9628   6.835   1.043   1.979 -0.1221 -0.2601 -0.6214
  813MOL0     C 9629   6.759   1.106   1.871 -0.2177 -0.3654  0.0311
  813MOL0     C 9630   6.849   1.116   1.750  0.4097  0.0950  0.2220
  813MOL0     C 9631   6.911   0.978   1.707  0.6189  0.1542  0.4309
  813MOL0     C 9632   6.977   0.972   1.571  0.9428 -0.0346 -0.0349
  813MOL0     C 9633   7.023   0.831   1.537 -0.6968 -0.2301  0.9921
  813MOL0     C 9634   7.133   0.785   1.638 -0.2934 -0.3938  0.9134
  813MOL0     C 9635   7.215   0.656   1.583 -0.2922 -0.4081  0.0932
  813MOL0     C 9636   7.334   0.694   1.491 -0.5356  0.2092  0.1144
  813MOL0     N 9637   7.438   0.778   1.549  0.1626  0.4978 -0.6900
  813MOL0     C 9638   7.567   0.737   1.568 -0.1369 -0.4002  0.2350
  813MOL0     C 9639   7.637   0.849   1.577  0.5730  0.0900 -0.2627
  813MOL0     C 9640   7.786   0.855   1.605  0.1696 -0.4875 -0.0652
  813MOL0     C 9641   7.813   0.813   1.749  0.2724  0.1853  1.3870
  813MOL0     C 9642   7.953   0.746   1.767  1.4729  0.3088  0.1680
  813MOL0     C 9643   7.969   0.739   1.917 -0.7469 -0.0620 -0.6768
  813MOL0     O 9644   7.916   0.616   1.972 -0.2762 -0.2679  0.4221
  813MOL0     C 9645   7.961   0.578   2.099  0.6953 -0.0177  0.1384
  813MOL0     C 9646   7.899   0.454   2.145 -0.4738  0.2795  0.1133
  813MOL0     C 9647   7.938   0.395   2.271  0.4077 -0.1452  0.1045
  813MOL0     C 9648   8.019   0.472   2.364 -0.3536 -0.1770  0.3443
  813MOL0     C 9649   8.031   0.432   2.514  0.5698 -1.0621  0.5107
  813MOL0     O 9650   8.095   0.513   2.601  0.0039  0.6197  0.5145
  813MOL0     C 9651   8.082   0.495   2.732 -0.7526 -1.2919  0.1562
  813MOL0     C 9652   7.958   0.464   2.800 -0.6425 -0.5204  0.5085
  813MOL0     C 9653   7.959   0.452   2.942 -0.2852  0.0665  0.6238
  813MOL0     C 9654   8.074   0.459   3.014  0.7555  0.7067  0.1359
  813MOL0     O 9655   8.059   0.423   3.146 -0.9155  0.0437 -0.3614
  813MOL0     C 9656   8.170   0.413   3.235  0.1764 -0.6840 -0.2920
  813MOL0     C 9657   8.119   0.336   3.357  0.5841  0.0949  0.2698
  813MOL0     C 9658   8.083   0.193   3.323  0.8636  0.8044  0.1220
  813MOL0     C 9659   8.048   0.115   3.450 -0.0599  0.3322 -0.4721
  813MOL0     C 9660   7.991  -0.032   3.421 -1.0951 -0.4968 -0.1893
  813MOL0     C 9661   8.004  -0.122   3.548 -0.6116  0.3471  0.1980
  813MOL0     C 9662   8.154  -0.167   3.565  0.3532  0.3911 -1.0635
  813MOL0     C 9663   8.162  -0.296   3.642  1.0587 -0.6333  0.7268
  813MOL0    Cl 9664   8.334  -0.301   3.693 -0.1061 -0.2700  0.0307
  813MOL0     C 9665   8.196   0.487   2.946  0.8972  0.2694 -0.0058
  813MOL0     C 9666   8.205   0.504   2.811  0.3954 -0.3479 -0.8206
  813MOL0     O 9667   7.974   0.329   2.543 -0.4072 -0.0815 -0.1928
  813MOL0     C 9668   8.084   0.586   2.302 -0.8781 -0.3423  0.4677
  813MOL0     C 9669   8.065   0.637   2.172 -0.2594 -0.0849 -1.0009
  813MOL0     N 9670   7.550   0.950   1.541  0.2137  0.3185 -0.8649
  813MOL0     N 9671   7.425   0.912   1.535 -0.0247  0.0510 -0.0523
  813MOL0     C 9672   6.858   0.947   2.196  1.1849 -0.3829 -0.0050
  813MOL0     C 9673   6.812   0.926   2.327 -0.3621  0.6131 -0.0749
  813MOL0     C 9674   6.664   0.943   2.734  0.1686 -0.1338  1.2568
  813MOL0     C 9675   6.584   0.828   2.767  0.3839  0.2916  0.2144
  813MOL0     C 9676   6.551   0.794   2.899  0.6958 -0.6758  0.2085
  813MOL0     C 9677   6.569   0.888   3.005 -0.5580  0.0017 -0.4377
  813MOL0     O 9678   6.541   0.864   3.140  0.2575 -0.0320 -0.4731
  813MOL0     C 9679   6.456   0.755   3.163 -0.4370  0.2768 -1.0650
  813MOL0     C 9680   6.421   0.778   3.308  0.0067  0.3517  0.5065
  813MOL0     C 9681   6.513   0.713   3.418 -0.0866 -0.0999 -0.0838
  813MOL0     C 9682   6.649   0.786   3.410 -0.3404  0.4002 -0.0595
  813MOL0     C 9683   6.728   0.749   3.530 -0.6015 -0.6706  0.3272
  813MOL0     C 9684   6.789   0.734   3.634 -0.0380  0.1486  0.2715
  813MOL0     C 9685   6.630   1.010   2.975  0.6574  0.8295 -0.5085
  813MOL0     C 9686   6.675   1.036   2.839  0.6570 -0.4979 -0.8236
  813MOL0     C 9687   6.734   1.172   2.827 -0.0645 -0.2752 -0.0726
  813MOL0     H 9688   6.505   1.077   2.309 -1.6289 -0.5493  0.1648
  813MOL0     H 9689   6.604   1.148   2.080 -1.2641  1.0031  2.4564
  813MOL0     H 9690   6.677   1.038   1.850 -1.7170  1.3709  0.0622
  813MOL0     H 9691   6.721   1.201   1.910  0.2795  0.2084 -0.8450
  813MOL0     H 9692   6.944   1.164   1.773  0.3042  0.9519 -1.0236
  813MOL0     H 9693   6.811   1.177   1.667  1.1961 -0.0059 -0.2206
  813MOL0     H 9694   6.821   0.918   1.707 -0.5715  1.8176 -1.0642
  813MOL0     H 9695   6.976   0.954   1.792  0.1716  2.8722  1.6414
  813MOL0     H 9696   6.901   1.013   1.504  0.2814 -1.2804 -0.0628
  813MOL0     H 9697   7.058   1.046   1.563 -0.0038  0.8995 -1.3781
  813MOL0     H 9698   6.944   0.756   1.537  2.3564 -4.3120 -5.4617
  813MOL0     H 9699   7.062   0.823   1.435 -1.5427  0.0810  0.6419
  813MOL0     H 9700   7.197   0.873   1.649 -2.0723  0.9794  0.7460
  813MOL0     H 9701   7.099   0.774   1.742 -3.1529  1.4750  0.3060
  813MOL0     H 9702   7.149   0.582   1.536 -0.4534 -1.4066  1.8200
  813MOL0     H 9703   7.258   0.620   1.677 -0.3562  1.7382  1.0070
  813MOL0     H 9704   7.374   0.598   1.457  0.0347  1.6955 -3.9163
  813MOL0     H 9705   7.291   0.741   1.402  1.3435 -2.8419 -2.6360
  813MOL0     H 9706   7.617   0.642   1.582 -0.7852 -0.3565  3.5968
  813MOL0     H 9707   7.837   0.798   1.526  4.0947  3.2233 -0.5953
  813MOL0     H 9708   7.821   0.958   1.594 -0.4999 -0.0918  1.3449
  813MOL0     H 9709   7.807   0.908   1.803 -3.8586  1.5057 -0.9393
  813MOL0     H 9710   7.725   0.755   1.780 -0.1974  1.6285  2.8520
  813MOL0     H 9711   8.025   0.806   1.712 -0.6576  0.0021 -3.2903
  813MOL0     H 9712   7.955   0.646   1.722  0.9311  1.6696 -3.1231
  813MOL0     H 9713   7.931   0.826   1.972 -0.5360  1.2099 -2.4623
  813MOL0     H 9714   8.076   0.751   1.934 -1.2758  0.8198  2.8961
  813MOL0     H 9715   7.828   0.403   2.080  1.1141 -1.0740 -0.6477
  813MOL0     H 9716   7.900   0.296   2.296 -1.3500  0.5946  0.5044
  813MOL0     H 9717   7.867   0.451   2.743  1.0249  0.1140 -2.5306
  813MOL0     H 9718   7.866   0.414   2.985 -1.6762  0.4544 -1.8298
  813MOL0     H 9719   8.250   0.351   3.192  1.1934 -1.4423  2.4344
  813MOL0     H 9720   8.221   0.507   3.257 -0.5835 -0.4991  0.7369
  813MOL0     H 9721   8.199   0.335   3.432 -1.3812  0.0833  2.4510
  813MOL0     H 9722   8.040   0.383   3.416  1.4751  2.9446 -0.6599
  813MOL0     H 9723   8.000   0.190   3.251 -0.6372 -1.8420  1.7796
  813MOL0     H 9724   8.170   0.142   3.283 -2.5252 -1.9094 -4.9854
  813MOL0     H 9725   7.966   0.163   3.505  2.8790  0.3853  4.4584
  813MOL0     H 9726   8.136   0.106   3.514  0.4453  2.8629 -0.7006
  813MOL0     H 9727   8.041  -0.076   3.335 -2.2454  0.3313 -1.3317
  813MOL0     H 9728   7.895  -0.021   3.369 -0.0187 -1.3915 -2.5210
  813MOL0     H 9729   7.978  -0.062   3.636  0.0036 -1.3301  1.5873
  813MOL0     H 9730   7.939  -0.210   3.541 -0.3565  0.2597 -1.7536
  813MOL0     H 9731   8.213  -0.093   3.619  0.0359 -1.0400  1.4183
  813MOL0     H 9732   8.209  -0.182   3.472  1.3611  1.6928 -0.7005
  813MOL0     H 9733   8.103  -0.296   3.734  1.6040  1.7417  1.1504
  813MOL0     H 9734   8.122  -0.376   3.579 -0.5378  0.4849  0.2611
  813MOL0     H 9735   8.278   0.507   3.014 -1.8715  0.6119  3.4891
  813MOL0     H 9736   8.302   0.530   2.772  1.4559 -1.7447  0.7404
  813MOL0     H 9737   8.169   0.635   2.349  0.7747  0.4226 -2.9781
  813MOL0     H 9738   8.121   0.720   2.132 -0.0796 -1.5129 -3.9519
  813MOL0     H 9739   6.950   0.912   2.148  1.7680  2.1550 -0.8903
  813MOL0     H 9740   6.876   0.857   2.382  1.0625  1.2768 -0.8396
  813MOL0     H 9741   6.554   0.755   2.693  1.4993 -0.0843  0.1159
  813MOL0     H 9742   6.505   0.696   2.906  0.6508 -0.6047  1.1533
  813MOL0     H 9743   6.509   0.661   3.145  0.0279  0.6006 -1.4000
  813MOL0     H 9744   6.359   0.762   3.112  0.1837 -0.1164 -2.3448
  813MOL0     H 9745   6.319   0.743   3.321 -0.7968  1.6768 -1.7527
  813MOL0     H 9746   6.399   0.884   3.324 -2.0479 -0.2404  1.9242
  813MOL0     H 9747   6.533   0.606   3.405  0.7201 -0.0235  0.4465
  813MOL0     H 9748   6.459   0.728   3.511 -0.0006  1.3786 -0.2544
  813MOL0     H 9749   6.685   0.753   3.312  0.2108  2.1251 -0.4756
  813MOL0     H 9750   6.640   0.895   3.411  0.0751  0.5419  3.7861
  813MOL0     H 9751   6.860   0.728   3.714  2.9983 -1.9889 -2.3209
  813MOL0     H 9752   6.637   1.090   3.048  2.6009  0.5058 -0.3003
  813MOL0     H 9753   6.718   1.198   2.722 -0.0179 -0.8828 -0.2346
  813MOL0     H 9754   6.696   1.261   2.879  5.0645  3.9026 -2.5586
  813MOL0     H 9755   6.841   1.163   2.848  0.5732  0.8966 -2.5299
  814MOL0     O 9756   2.237   1.146   6.435 -0.4879  0.8640  0.2230
  814MOL0     C 9757   2.320   1.107   6.351 -0.3689 -0.0876  0.6470
  814MOL0     O 9758   2.341   0.973   6.319 -0.2857 -0.1003  0.2917
  814MOL0     C 9759   2.241   0.886   6.348  1.2406 -0.5110 -0.9636
  814MOL0     C 9760   2.109   0.913   6.308 -0.1398  0.8588 -0.0733
  814MOL0     C 9761   2.002   0.833   6.358  0.0136 -0.0870  0.2734
  814MOL0     C 9762   2.035   0.710   6.422  0.2666 -0.6561 -0.2081
  814MOL0     O 9763   1.922   0.637   6.457 -0.0819 -0.6440  0.4176
  814MOL0     C 9764   1.938   0.504   6.506 -0.0109 -0.2601  0.2279
  814MOL0     C 9765   1.805   0.458   6.569 -1.2454  0.1419  0.1549
  814MOL0     C 9766   1.769   0.553   6.685  0.4878  0.7404 -0.0073
  814MOL0     C 9767   1.646   0.511   6.769  0.2641 -0.2515 -0.1459
  814MOL0     C 9768   1.518   0.470   6.686 -0.4121  0.7061  0.7776
  814MOL0     C 9769   1.400   0.455   6.792  0.2714  0.8504 -1.3886
  814MOL0     C 9770   1.271   0.423   6.731  0.1545 -0.2235  0.3163
  814MOL0     C 9771   1.150   0.405   6.826 -0.0727 -0.4296 -0.2005
  814MOL0     N 9772   1.092   0.531   6.879  0.0579 -1.2143 -0.1841
  814MOL0     C 9773   1.039   0.629   6.798  0.1825  0.2152 -0.2889
  814MOL0     C 9774   0.990   0.720   6.880 -0.0156 -0.2029 -0.1966
  814MOL0     C 9775   0.924   0.854   6.845 -0.3234  0.4682  0.5160
  814MOL0     C 9776   0.771   0.855   6.864 -0.2197  0.0521  0.5448
  814MOL0     C 9777   0.718   0.988   6.902 -0.3077  0.7718  0.4451
  814MOL0     C 9778   0.708   1.083   6.785 -0.5694 -0.6027  0.1316
  814MOL0     O 9779   0.577   1.061   6.724 -0.4864 -0.3520 -0.1894
  814MOL0     C 9780   0.531   1.147   6.630 -0.6344 -0.4706  0.5532
  814MOL0     C 9781   0.602   1.256   6.582 -0.8019  0.2476 -0.7419
  814MOL0     C 9782   0.541   1.331   6.482 -0.5398 -0.6368  0.1984
  814MOL0     C 9783   0.422   1.301   6.417 -0.0785 -0.3079 -0.9576
  814MOL0     C 9784   0.366   1.384   6.306 -0.6879 -0.2502  0.6252
  814MOL0     O 9785   0.436   1.501   6.275 -0.6205  0.8486  0.9664
  814MOL0     C 9786   0.393   1.585   6.171 -0.6223  0.3488 -0.1706
  814MOL0     C 9787   0.255   1.614   6.130 -0.4500  0.2357 -0.1532
  814MOL0     C 9788   0.223   1.716   6.038  0.3530 -0.1614  0.4403
  814MOL0     C 9789   0.321   1.796   5.977 -0.3581  0.2582  0.4474
  814MOL0     O 9790   0.308   1.897   5.898  1.1713  0.0658  0.1893
  814MOL0     C 9791   0.195   1.890   5.802  0.0246 -0.3100 -0.0635
  814MOL0     C 9792   0.177   2.027   5.735  0.9904 -0.4692 -0.6175
  814MOL0     C 9793   0.286   2.054   5.631  0.0546  0.9356 -0.0825
  814MOL0     C 9794   0.232   2.149   5.530 -0.0635 -0.2703 -0.8322
  814MOL0     C 9795   0.337   2.198   5.441 -0.2197  0.0463  0.0494
  814MOL0     C 9796   0.291   2.312   5.351  0.7547 -0.7495  0.0251
  814MOL0     C 9797   0.384   2.332   5.237  0.1705 -0.5729  0.0754
  814MOL0     C 9798   0.341   2.459   5.160  0.6006 -0.4707  0.0714
  814MOL0    Cl 9799   0.168   2.458   5.113 -0.2806  0.3012  0.4538
  814MOL0     C 9800   0.453   1.764   6.012 -0.2574  0.2236  0.0453
  814MOL0     C 9801   0.491   1.663   6.112  0.3230  0.1001 -0.3311
  814MOL0     O 9802   0.249   1.356   6.270 -0.8108 -1.1271 -0.2449
  814MOL0     C 9803   0.357   1.185   6.450  0.6213 -0.5718 -0.1530
  814MOL0     C 9804   0.415   1.114   6.553 -0.7922  0.1026  0.1803
  814MOL0     N 9805   0.997   0.679   7.010  0.0615  0.3675 -0.1106
  814MOL0     N 9806   1.062   0.574   7.004 -0.2280  0.8063  0.1697
  814MOL0     C 9807   2.167   0.679   6.449 -0.1646 -0.6790 -0.2343
  814MOL0     C 9808   2.264   0.769   6.416  0.7528 -0.3767 -0.4920
  814MOL0     C 9809   2.397   1.211   6.280 -0.1002  0.0312  0.2264
  814MOL0     C 9810   2.426   1.189   6.137  0.5384  0.0286  0.2868
  814MOL0     C 9811   2.475   1.286   6.048  0.4967 -0.2417 -0.6190
  814MOL0     C 9812   2.494   1.411   6.096 -0.3766 -0.2795 -1.2471
  814MOL0     O 9813   2.516   1.523   6.013 -0.1907  0.0994 -0.3102
  814MOL0     C 9814   2.507   1.506   5.875  0.0973  0.4536  1.1107
  814MOL0     C 9815   2.544   1.643   5.819  0.7977  0.4772  0.1371
  814MOL0     C 9816   2.683   1.698   5.862  0.5118 -0.3363 -0.9825
  814MOL0     C 9817   2.702   1.824   5.768 -0.4175 -0.9164  0.6215
  814MOL0     C 9818   2.768   1.769   5.644  0.4650  0.1818  0.7505
  814MOL0     C 9819   2.805   1.715   5.542  0.1515 -0.1555 -0.1969
  814MOL0     C 9820   2.454   1.439   6.229  0.3564  0.2807  0.4342
  814MOL0     C 9821   2.414   1.344   6.326 -0.3091  0.7983  0.7763
  814MOL0     C 9822   2.380   1.380   6.466 -0.6216  0.4494  0.0552
  814MOL0     H 9823   2.091   1.008   6.258  1.4516  1.4803  0.4898
  814MOL0     H 9824   1.899   0.861   6.341  0.0631  0.0597  0.2172
  814MOL0     H 9825   1.970   0.428   6.434  0.1762  0.9256 -0.9715
  814MOL0     H 9826   2.013   0.517   6.586 -1.1737  4.3382  0.8311
  814MOL0     H 9827   1.825   0.355   6.601  0.0999  1.2703  3.3184
  814MOL0     H 9828   1.719   0.458   6.501  0.1159 -0.6018 -1.6363
  814MOL0     H 9829   1.769   0.657   6.651 -3.9986  1.1941  0.7813
  814MOL0     H 9830   1.851   0.533   6.755  2.4555  1.4590 -1.9877
  814MOL0     H 9831   1.674   0.437   6.844 -2.0138  0.4400  1.5221
  814MOL0     H 9832   1.602   0.593   6.827 -0.8309 -0.4504 -0.6606
  814MOL0     H 9833   1.517   0.555   6.617  3.4026 -0.8433 -1.4435
  814MOL0     H 9834   1.536   0.384   6.621 -1.1973  0.8120  0.4010
  814MOL0     H 9835   1.414   0.382   6.873 -2.6949 -0.2093 -1.7070
  814MOL0     H 9836   1.380   0.546   6.849 -3.7449 -1.1279  0.7550
  814MOL0     H 9837   1.279   0.329   6.677  4.5679  0.5669 -0.8104
  814MOL0     H 9838   1.259   0.505   6.659  3.1880  1.9031  1.9734
  814MOL0     H 9839   1.070   0.354   6.771 -0.1558  0.2128 -0.6934
  814MOL0     H 9840   1.179   0.340   6.908  1.8890  1.2028  0.4642
  814MOL0     H 9841   1.038   0.651   6.692 -0.8464  3.4420  0.2702
  814MOL0     H 9842   0.963   0.929   6.914 -2.1088  0.7324  1.3084
  814MOL0     H 9843   0.950   0.882   6.743 -2.4344  2.9514  0.5511
  814MOL0     H 9844   0.747   0.823   6.762  1.6103  1.2044 -0.3109
  814MOL0     H 9845   0.739   0.779   6.936  1.4300 -0.7808  0.4503
  814MOL0     H 9846   0.782   1.038   6.976 -1.6307  1.3013  1.2732
  814MOL0     H 9847   0.624   0.972   6.956 -1.3432  0.7869 -1.2832
  814MOL0     H 9848   0.792   1.073   6.716 -0.1774  2.1423  0.0996
  814MOL0     H 9849   0.716   1.185   6.823 -3.6944  1.3810 -3.7331
  814MOL0     H 9850   0.692   1.301   6.621  0.1408 -0.8017 -1.6138
  814MOL0     H 9851   0.599   1.410   6.435  1.8276 -1.8324  0.9431
  814MOL0     H 9852   0.173   1.579   6.193 -0.5898  1.7835  0.5730
  814MOL0     H 9853   0.118   1.735   6.019  1.2352  2.7428 -2.4041
  814MOL0     H 9854   0.223   1.811   5.731  2.3795  0.3355  0.0736
  814MOL0     H 9855   0.105   1.855   5.853  1.1437 -3.7907 -0.2404
  814MOL0     H 9856   0.079   2.018   5.688  0.3630  1.9061  0.1126
  814MOL0     H 9857   0.162   2.106   5.809 -3.0949 -1.6661  0.0965
  814MOL0     H 9858   0.380   2.096   5.670  1.7540 -1.5538 -1.1897
  814MOL0     H 9859   0.324   1.956   5.600  0.1289  0.9853 -0.1494
  814MOL0     H 9860   0.187   2.228   5.591 -0.0989 -0.2826 -0.8427
  814MOL0     H 9861   0.155   2.092   5.478 -1.9794  1.2229  0.2299
  814MOL0     H 9862   0.381   2.121   5.376 -0.0895  0.4674 -0.3752
  814MOL0     H 9863   0.417   2.236   5.504 -1.9279  0.1390  2.2605
  814MOL0     H 9864   0.190   2.294   5.313  0.4620  1.3615 -0.3368
  814MOL0     H 9865   0.293   2.400   5.417  0.8848 -1.4021  0.9150
  814MOL0     H 9866   0.374   2.239   5.180  0.7557 -0.4009 -0.3121
  814MOL0     H 9867   0.489   2.352   5.262  1.5420 -1.4004 -4.1853
  814MOL0     H 9868   0.347   2.538   5.236 -1.7907 -3.2424  3.5097
  814MOL0     H 9869   0.411   2.487   5.081 -0.5176  1.8852 -0.1797
  814MOL0     H 9870   0.542   1.810   5.970 -2.0000 -0.0217 -4.4092
  814MOL0     H 9871   0.596   1.661   6.142  1.1178 -0.6020 -2.8830
  814MOL0     H 9872   0.270   1.146   6.398  0.5846 -2.5998  1.3153
  814MOL0     H 9873   0.360   1.028   6.589 -1.4762  0.9168  1.1375
  814MOL0     H 9874   2.193   0.591   6.506  3.6986  1.1317  1.1716
  814MOL0     H 9875   2.370   0.753   6.433  0.3189 -2.0104  0.9316
  814MOL0     H 9876   2.384   1.098   6.096  1.5979 -1.5139  2.3749
  814MOL0     H 9877   2.489   1.269   5.942 -2.4114  0.4370 -1.1933
  814MOL0     H 9878   2.405   1.485   5.841  0.5653 -1.2818  0.6289
  814MOL0     H 9879   2.569   1.431   5.824 -2.2311  1.8589 -4.5075
  814MOL0     H 9880   2.471   1.719   5.848  3.0959  3.5005 -1.3856
  814MOL0     H 9881   2.540   1.642   5.709  2.6415  0.0784  0.0274
  814MOL0     H 9882   2.745   1.610   5.844  2.7139  0.4699  1.8664
  814MOL0     H 9883   2.696   1.720   5.968  3.3380  1.9716 -1.6593
  814MOL0     H 9884   2.604   1.870   5.758 -0.9506 -1.4086  2.9150
  814MOL0     H 9885   2.768   1.902   5.807 -1.7030  0.2221  0.6010
  814MOL0     H 9886   2.845   1.666   5.455  0.6476 -0.5338  0.2403
  814MOL0     H 9887   2.478   1.535   6.272  1.1791 -0.1984  1.0753
  814MOL0     H 9888   2.414   1.314   6.547  0.8145 -0.2550 -1.0795
  814MOL0     H 9889   2.434   1.471   6.495  2.2565 -0.7901 -1.0118
  814MOL0     H 9890   2.274   1.403   6.471 -1.2415 -2.2692  2.0819
  815MOL0     O 9891   0.412   3.363   4.656  0.7546 -0.3842 -0.0054
  815MOL0     C 9892   0.370   3.380   4.544 -0.0119  0.3995  0.5985
  815MOL0     O 9893   0.240   3.364   4.517  0.1472  0.5715 -0.0445
  815MOL0     C 9894   0.165   3.272   4.589 -0.1398 -0.7551  0.2260
  815MOL0     C 9895   0.052   3.332   4.652 -0.2880 -0.9591 -1.4959
  815MOL0     C 9896  -0.010   3.256   4.758  0.1414 -0.0216  1.1497
  815MOL0     C 9897   0.023   3.118   4.782 -1.0729  0.2016  0.4588
  815MOL0     O 9898  -0.042   3.039   4.876  0.6061 -0.5633  1.0409
  815MOL0     C 9899  -0.183   3.067   4.892 -0.4943  0.1697  1.7129
  815MOL0     C 9900  -0.246   2.971   4.982  0.0846  0.1572 -0.9692
  815MOL0     C 9901  -0.164   2.950   5.112 -0.2097  0.1839 -0.2015
  815MOL0     C 9902  -0.234   2.860   5.205 -0.3359  0.0068 -0.7284
  815MOL0     C 9903  -0.143   2.806   5.322 -0.9825 -0.3444 -0.5712
  815MOL0     C 9904  -0.206   2.698   5.409 -1.1006  0.3682  1.0198
  815MOL0     C 9905  -0.237   2.569   5.335 -0.0476  0.9354 -0.3357
  815MOL0     C 9906  -0.280   2.463   5.431  0.6903  0.2515 -0.8060
  815MOL0     N 9907  -0.268   2.333   5.364 -0.2434  0.6665  0.3951
  815MOL0     C 9908  -0.153   2.266   5.327 -0.4843  0.7634  0.3129
  815MOL0     C 9909  -0.200   2.147   5.277 -0.6225 -0.1891 -0.4968
  815MOL0     C 9910  -0.106   2.050   5.209 -0.6078 -1.0930  0.6355
  815MOL0     C 9911  -0.030   2.100   5.088  0.0638  0.0411 -0.0053
  815MOL0     C 9912   0.077   1.991   5.031 -0.8348 -0.1787 -0.4050
  815MOL0     C 9913   0.168   2.059   4.927  0.6688  0.3201 -1.4704
  815MOL0     O 9914   0.077   2.090   4.825 -0.1478 -0.1962 -0.1026
  815MOL0     C 9915   0.126   2.137   4.698 -0.4486  0.7544 -0.6856
  815MOL0     C 9916   0.040   2.115   4.590  0.4000 -0.2109 -0.5897
  815MOL0     C 9917   0.076   2.140   4.458 -0.5039 -0.0856  0.0084
  815MOL0     C 9918   0.201   2.178   4.439 -0.3297 -0.5303 -0.1060
  815MOL0     C 9919   0.261   2.207   4.312  0.1102 -0.1908 -1.2573
  815MOL0     O 9920   0.387   2.278   4.314  0.5815 -0.2087  0.2888
  815MOL0     C 9921   0.442   2.330   4.198 -1.0088 -0.0625 -0.4563
  815MOL0     C 9922   0.496   2.458   4.224 -1.3404  1.1276 -0.0231
  815MOL0     C 9923   0.550   2.536   4.113  0.5289 -0.2646  0.4973
  815MOL0     C 9924   0.540   2.489   3.980 -0.2324 -0.4065  0.5573
  815MOL0     O 9925   0.593   2.563   3.876 -0.8322 -0.2371  0.4158
  815MOL0     C 9926   0.492   2.596   3.779 -0.5306  0.8215 -0.0198
  815MOL0     C 9927   0.547   2.688   3.667  0.5067 -0.2087 -0.5735
  815MOL0     C 9928   0.559   2.832   3.716 -0.4772 -0.1428  0.5505
  815MOL0     C 9929   0.660   2.903   3.627 -0.3209 -0.6721 -0.1608
  815MOL0     C 9930   0.674   3.047   3.680  0.0948 -0.7683 -0.9183
  815MOL0     C 9931   0.559   3.141   3.645  0.8405  0.2084  0.6321
  815MOL0     C 9932   0.608   3.281   3.641 -0.2054 -0.7827  0.3939
  815MOL0     C 9933   0.697   3.332   3.751 -0.1599  0.2623 -0.4993
  815MOL0    Cl 9934   0.620   3.336   3.915  0.1752  0.1902  0.1919
  815MOL0     C 9935   0.486   2.363   3.962 -0.3561 -0.1391  0.6848
  815MOL0     C 9936   0.432   2.278   4.065 -0.2245 -0.2252  0.7206
  815MOL0     O 9937   0.184   2.202   4.214 -0.0492 -0.2795  0.5114
  815MOL0     C 9938   0.293   2.180   4.548  0.1336 -0.2547  0.1248
  815MOL0     C 9939   0.260   2.150   4.675  0.3149 -0.5905 -0.7038
  815MOL0     N 9940  -0.331   2.148   5.290  0.0885  0.5917  0.2124
  815MOL0     N 9941  -0.377   2.257   5.337 -0.3241  0.6700  0.1593
  815MOL0     C 9942   0.128   3.062   4.711  0.1927  0.3633 -0.0346
  815MOL0     C 9943   0.207   3.147   4.627  0.9229 -0.2732  0.4330
  815MOL0     C 9944   0.453   3.443   4.441 -0.8004 -0.1372  0.4361
  815MOL0     C 9945   0.554   3.375   4.379  0.0967 -0.2579  0.8291
  815MOL0     C 9946   0.636   3.446   4.278  1.2115 -0.3224 -0.5617
  815MOL0     C 9947   0.614   3.577   4.255 -1.4799  0.2306  0.3391
  815MOL0     O 9948   0.700   3.634   4.169 -0.1254  0.6418  0.5495
  815MOL0     C 9949   0.626   3.684   4.055 -0.4281 -0.2899 -0.2244
  815MOL0     C 9950   0.704   3.664   3.919 -0.0107 -0.8189 -0.6837
  815MOL0     C 9951   0.614   3.698   3.801 -0.2079 -0.9083 -0.5222
  815MOL0     C 9952   0.603   3.847   3.768 -0.8126 -0.1738  0.0674
  815MOL0     C 9953   0.496   3.863   3.667  0.5461  0.8684  0.1514
  815MOL0     C 9954   0.408   3.898   3.591 -0.9344 -0.7879  0.5084
  815MOL0     C 9955   0.528   3.654   4.334  0.2421 -0.4496  0.7653
  815MOL0     C 9956   0.435   3.584   4.416  0.2240 -0.7724  0.7158
  815MOL0     C 9957   0.336   3.676   4.502 -0.0418 -0.1944  0.2212
  815MOL0     H 9958   0.027   3.434   4.626 -0.0996 -0.0591  1.4584
  815MOL0     H 9959  -0.085   3.305   4.818  0.1546 -2.1162  3.0288
  815MOL0     H 9960  -0.194   3.165   4.938  0.9969  1.7120 -0.9329
  815MOL0     H 9961  -0.232   3.078   4.795  0.3917 -0.5141  1.1654
  815MOL0     H 9962  -0.241   2.877   4.926  1.2837  0.0248 -0.6845
  815MOL0     H 9963  -0.353   2.989   4.994 -0.0732 -0.5095 -1.3196
  815MOL0     H 9964  -0.148   3.048   5.158 -1.3692 -0.8298  2.6133
  815MOL0     H 9965  -0.062   2.916   5.091  0.1836  1.5308 -0.5810
  815MOL0     H 9966  -0.314   2.907   5.264  0.6906 -0.4057  1.0779
  815MOL0     H 9967  -0.283   2.778   5.152 -0.7020 -0.7420  0.7019
  815MOL0     H 9968  -0.048   2.778   5.275  1.6480  3.2141  2.0705
  815MOL0     H 9969  -0.107   2.887   5.386  0.6711  0.6433 -2.6361
  815MOL0     H 9970  -0.129   2.668   5.481 -0.0247 -2.2533 -1.0427
  815MOL0     H 9971  -0.293   2.744   5.457 -1.2338 -0.7315  1.8773
  815MOL0     H 9972  -0.152   2.532   5.276 -1.0041 -1.1100 -0.5271
  815MOL0     H 9973  -0.321   2.581   5.267 -0.9179 -2.3522 -0.0337
  815MOL0     H 9974  -0.226   2.464   5.526 -1.1738  2.6432  0.3485
  815MOL0     H 9975  -0.385   2.477   5.457  1.0201  0.0482  0.7043
  815MOL0     H 9976  -0.053   2.307   5.320 -0.8530  1.3715 -3.1834
  815MOL0     H 9977  -0.039   2.018   5.290 -1.1891 -1.7700  0.8590
  815MOL0     H 9978  -0.163   1.961   5.182  0.7697 -2.3799  1.7480
  815MOL0     H 9979  -0.111   2.128   5.020 -1.2901  1.2158  2.0089
  815MOL0     H 9980   0.031   2.186   5.114  1.2523 -0.6787 -0.3278
  815MOL0     H 9981   0.020   1.905   4.995 -0.1931 -0.6000 -0.4229
  815MOL0     H 9982   0.142   1.965   5.115 -2.3075  0.5620  1.0264
  815MOL0     H 9983   0.242   1.984   4.898 -0.4306 -1.4438 -0.0178
  815MOL0     H 9984   0.208   2.152   4.969  1.0658 -1.4458  2.5280
  815MOL0     H 9985  -0.063   2.086   4.613  0.9173  0.2178  2.9033
  815MOL0     H 9986   0.003   2.118   4.380  0.6752  1.0413 -1.4585
  815MOL0     H 9987   0.505   2.490   4.328 -1.0931 -0.8009  0.6007
  815MOL0     H 9988   0.607   2.624   4.142  0.9022 -0.3829  0.1368
  815MOL0     H 9989   0.459   2.505   3.728 -2.7257  0.1431  2.4045
  815MOL0     H 9990   0.407   2.631   3.837  0.5756  0.7890  1.6973
  815MOL0     H 9991   0.641   2.650   3.627  1.3215 -2.2383  2.8645
  815MOL0     H 9992   0.472   2.685   3.588 -0.1351  0.4959 -0.0006
  815MOL0     H 9993   0.458   2.872   3.733 -2.0100 -3.0485 -0.9052
  815MOL0     H 9994   0.608   2.830   3.814 -2.2363 -1.7555  1.4782
  815MOL0     H 9995   0.639   2.909   3.520 -2.0897 -1.5102  0.1209
  815MOL0     H 9996   0.761   2.863   3.642  0.4698  1.3974  0.3813
  815MOL0     H 9997   0.769   3.092   3.649  0.3713  0.7916  1.8803
  815MOL0     H 9998   0.676   3.041   3.789  1.2529 -1.4209 -0.9531
  815MOL0     H 9999   0.503   3.103   3.559 -0.8782 -0.4335  1.9772
  815MOL0     H10000   0.492   3.137   3.731  2.8701 -1.2205  2.2493
  815MOL0     H10001   0.517   3.341   3.630 -2.2942 -2.5053  5.2367
  815MOL0     H10002   0.677   3.298   3.558  0.2001  1.3651  1.1149
  815MOL0     H10003   0.795   3.284   3.747 -0.6937 -0.9273 -5.5078
  815MOL0     H10004   0.716   3.437   3.728 -1.1106 -0.0971 -3.2514
  815MOL0     H10005   0.466   2.332   3.860 -1.4612 -3.1374  1.6906
  815MOL0     H10006   0.388   2.181   4.047 -1.3968  0.2250  1.0967
  815MOL0     H10007   0.398   2.206   4.535  0.3291 -1.5712 -1.2204
  815MOL0     H10008   0.333   2.153   4.754 -1.0717 -0.8286  0.6311
  815MOL0     H10009   0.135   2.955   4.731  0.4782  0.0513 -1.6320
  815MOL0     H10010   0.301   3.099   4.600 -0.0570 -2.0248 -0.0195
  815MOL0     H10011   0.568   3.268   4.393  1.8021 -0.7581 -3.2339
  815MOL0     H10012   0.705   3.385   4.220  0.9892 -1.9247  0.8002
  815MOL0     H10013   0.603   3.789   4.076 -2.5484 -0.6747 -0.4033
  815MOL0     H10014   0.530   3.632   4.047 -1.4211  1.3344  0.6330
  815MOL0     H10015   0.724   3.557   3.924  0.0275 -0.7504  1.7074
  815MOL0     H10016   0.800   3.716   3.919 -0.0014 -0.7254  1.7304
  815MOL0     H10017   0.509   3.666   3.803 -0.4944 -0.0310  1.1811
  815MOL0     H10018   0.663   3.656   3.713  0.5209 -0.3005 -0.4153
  815MOL0     H10019   0.577   3.919   3.847 -1.3269  0.2639 -0.4893
  815MOL0     H10020   0.707   3.875   3.749 -1.1939  0.5083 -1.1616
  815MOL0     H10021   0.344   3.929   3.511 -1.4185  0.4709  1.3464
  815MOL0     H10022   0.523   3.759   4.308 -1.5494 -0.6325  0.2604
  815MOL0     H10023   0.229   3.668   4.481  0.0520 -1.5468  0.1523
  815MOL0     H10024   0.357   3.662   4.609  3.4955  1.0853 -0.1706
  815MOL0     H10025   0.357   3.781   4.483 -0.5309 -0.5446 -2.7188
  816MOL0     O10026   1.157   3.540   4.448  0.2564  0.5534  0.5165
  816MOL0     C10027   1.198   3.648   4.490  0.3900 -0.2659  0.5673
  816MOL0     O10028   1.337   3.677   4.509 -0.3676  0.3666 -0.1878
  816MOL0     C10029   1.408   3.561   4.521 -0.5793  0.3729  0.0348
  816MOL0     C10030   1.521   3.579   4.444  0.5282  1.2216  0.1004
  816MOL0     C10031   1.617   3.479   4.428 -0.1348  0.2641  0.3117
  816MOL0     C10032   1.611   3.369   4.521 -0.3073 -0.3824  0.7655
  816MOL0     O10033   1.709   3.275   4.523 -0.1237 -0.6256 -0.0924
  816MOL0     C10034   1.714   3.201   4.401  0.2373 -0.1587  0.0284
  816MOL0     C10035   1.816   3.100   4.437 -0.2606  0.7624 -0.1602
  816MOL0     C10036   1.820   2.979   4.334 -0.0199  0.8597 -0.0078
  816MOL0     C10037   1.752   2.859   4.394 -0.3052  0.8178  0.1096
  816MOL0     C10038   1.746   2.744   4.294 -0.6552  0.1156  0.3717
  816MOL0     C10039   1.612   2.666   4.282  0.7648  0.6929  0.1969
  816MOL0     C10040   1.510   2.773   4.229 -0.4552  0.1196 -0.2262
  816MOL0     C10041   1.364   2.717   4.205  0.2717 -0.7557  0.2155
  816MOL0     N10042   1.363   2.643   4.081  0.2353 -0.4028  0.3144
  816MOL0     C10043   1.384   2.708   3.959  0.3926 -0.1414  0.0779
  816MOL0     C10044   1.360   2.612   3.871  0.0036 -0.1056 -0.1458
  816MOL0     C10045   1.364   2.641   3.730  0.4903 -0.2140 -0.0708
  816MOL0     C10046   1.440   2.545   3.636 -0.1979 -0.1434 -0.1289
  816MOL0     C10047   1.383   2.396   3.630  0.1799  0.4167 -0.4288
  816MOL0     C10048   1.230   2.398   3.605  0.4288  0.5670  0.3116
  816MOL0     O10049   1.195   2.260   3.557  0.3721  0.0595  0.7203
  816MOL0     C10050   1.200   2.152   3.650  0.4125  0.7172  0.9555
  816MOL0     C10051   1.227   2.028   3.592  0.4266  0.2373 -0.6881
  816MOL0     C10052   1.264   1.919   3.667  0.7209 -0.4530  0.1040
  816MOL0     C10053   1.270   1.928   3.810 -0.5670  0.9054  0.3470
  816MOL0     C10054   1.327   1.815   3.894  0.1652  0.3905  0.2114
  816MOL0     O10055   1.402   1.726   3.826 -0.2322  0.0106 -0.0366
  816MOL0     C10056   1.464   1.623   3.897  1.1149  0.5049  1.0601
  816MOL0     C10057   1.556   1.647   3.999  0.0671  0.1834  0.3711
  816MOL0     C10058   1.642   1.544   4.029 -0.6075  1.5502  0.3983
  816MOL0     C10059   1.638   1.424   3.968  0.2979  0.1836 -0.9654
  816MOL0     O10060   1.732   1.330   4.019  0.1417 -0.7994  0.3437
  816MOL0     C10061   1.746   1.208   3.953  0.3404  0.6009 -0.9230
  816MOL0     C10062   1.850   1.108   4.015  0.8678  0.3898 -0.5973
  816MOL0     C10063   1.994   1.149   3.985  1.1128 -1.0901  0.5649
  816MOL0     C10064   2.105   1.084   4.069  0.5966  1.0433  0.1886
  816MOL0     C10065   2.235   1.133   3.996 -0.6528  0.2524  0.5628
  816MOL0     C10066   2.343   1.093   4.097 -0.5504  0.0124 -0.4343
  816MOL0     C10067   2.482   1.123   4.047  0.9452  0.2219 -0.1386
  816MOL0     C10068   2.593   1.077   4.146  0.3093  0.2415 -0.2430
  816MOL0    Cl10069   2.599   1.226   4.271  0.7583  0.0714 -0.0546
  816MOL0     C10070   1.531   1.404   3.873 -0.2618  0.1659 -0.2479
  816MOL0     C10071   1.449   1.505   3.834  0.7168  0.1237 -0.3651
  816MOL0     O10072   1.289   1.810   4.012 -0.1018 -0.4287 -0.0292
  816MOL0     C10073   1.224   2.050   3.864  0.7410 -1.8617 -0.1106
  816MOL0     C10074   1.198   2.167   3.793  0.1969  0.1967  0.4439
  816MOL0     N10075   1.316   2.498   3.938  0.4160  0.4475 -0.2439
  816MOL0     N10076   1.334   2.513   4.069  0.2052  0.3182  0.6255
  816MOL0     C10077   1.490   3.349   4.591 -0.9436 -0.1563  0.3206
  816MOL0     C10078   1.393   3.453   4.602 -0.8559  0.0096 -0.1022
  816MOL0     C10079   1.104   3.769   4.509  0.9315  0.9102 -0.0610
  816MOL0     C10080   1.165   3.893   4.514  0.0430  0.5045  0.3457
  816MOL0     C10081   1.087   4.010   4.528 -0.1840 -0.2380  0.7081
  816MOL0     C10082   0.948   4.006   4.549  0.6749 -0.0843  0.4593
  816MOL0     O10083   0.897   4.122   4.586  0.5136 -0.6936  0.5492
  816MOL0     C10084   0.802   4.124   4.696 -0.5945 -0.3105 -0.2560
  816MOL0     C10085   0.662   4.157   4.648  0.2839 -0.1308 -0.1098
  816MOL0     C10086   0.660   4.262   4.529  0.4288  0.2880 -0.2588
  816MOL0     C10087   0.713   4.406   4.564 -0.0124 -0.6518  0.8948
  816MOL0     C10088   0.613   4.480   4.638 -0.1313  0.4505  0.9657
  816MOL0     C10089   0.527   4.550   4.691 -0.1392 -0.1645  0.5800
  816MOL0     C10090   0.887   3.883   4.546  0.4129 -0.0699  0.5597
  816MOL0     C10091   0.958   3.762   4.530 -0.5159  0.3775  0.3794
  816MOL0     C10092   0.904   3.630   4.552  0.2281  0.8220  0.6714
  816MOL0     H10093   1.536   3.666   4.380  0.8694 -1.9319 -4.5436
  816MOL0     H10094   1.700   3.507   4.365 -1.5297  4.6322  0.0493
  816MOL0     H10095   1.621   3.147   4.377 -1.4079  1.3301  2.6626
  816MOL0     H10096   1.746   3.254   4.310 -1.9935 -0.3039 -0.9221
  816MOL0     H10097   1.794   3.060   4.537 -2.4445  2.6619  0.2042
  816MOL0     H10098   1.916   3.143   4.427 -0.6822  1.1836 -3.4314
  816MOL0     H10099   1.923   2.944   4.332 -0.5617 -0.8158 -0.7416
  816MOL0     H10100   1.786   3.004   4.233  1.7138  0.4580 -0.7210
  816MOL0     H10101   1.822   2.824   4.471 -0.8958 -1.3531 -0.2529
  816MOL0     H10102   1.655   2.878   4.440 -1.8453  0.7340 -2.8694
  816MOL0     H10103   1.791   2.768   4.197 -1.9854 -1.8628 -0.7999
  816MOL0     H10104   1.826   2.674   4.320 -1.7369 -1.2725  0.0860
  816MOL0     H10105   1.629   2.574   4.226  0.1125 -0.4139  1.7362
  816MOL0     H10106   1.581   2.624   4.378  3.3832 -0.3914  0.6379
  816MOL0     H10107   1.546   2.828   4.141 -1.2798  0.7456 -0.1765
  816MOL0     H10108   1.501   2.845   4.311  0.0777 -0.1089  0.0376
  816MOL0     H10109   1.323   2.648   4.279 -1.4302  0.2898  0.3043
  816MOL0     H10110   1.285   2.792   4.196  0.7791  0.1884  2.7064
  816MOL0     H10111   1.414   2.811   3.938 -0.6723  0.2977  0.6441
  816MOL0     H10112   1.258   2.647   3.703  0.3388  1.8045  0.7667
  816MOL0     H10113   1.405   2.740   3.707 -0.6987 -0.0861 -1.8511
  816MOL0     H10114   1.440   2.593   3.537 -4.6682  0.6979  0.0356
  816MOL0     H10115   1.542   2.547   3.674  0.7375  1.9424 -2.4577
  816MOL0     H10116   1.402   2.341   3.723 -0.4856 -1.6555 -1.4421
  816MOL0     H10117   1.426   2.347   3.543 -1.6310 -2.5371  0.1774
  816MOL0     H10118   1.199   2.468   3.526  2.0449 -1.7863 -2.6207
  816MOL0     H10119   1.173   2.417   3.696 -3.3916 -3.2045 -0.9507
  816MOL0     H10120   1.212   2.017   3.485 -1.8382 -1.1887 -0.3006
  816MOL0     H10121   1.276   1.820   3.625  0.6225  0.0451 -1.1382
  816MOL0     H10122   1.577   1.742   4.048 -1.9991  2.3159 -2.5136
  816MOL0     H10123   1.721   1.555   4.102  1.1268 -1.3582 -0.8740
  816MOL0     H10124   1.654   1.150   3.963  0.7070  0.3737  2.3123
  816MOL0     H10125   1.762   1.227   3.847 -0.9151  0.5862 -1.1276
  816MOL0     H10126   1.836   1.100   4.123 -4.2960  0.1382 -1.0421
  816MOL0     H10127   1.828   1.014   3.963  1.9469 -2.2259  3.3019
  816MOL0     H10128   2.014   1.120   3.881  1.2504  1.9078 -0.3489
  816MOL0     H10129   2.007   1.258   3.981  1.8895 -1.0035  3.5069
  816MOL0     H10130   2.099   0.975   4.063  0.5729  0.8709  2.4437
  816MOL0     H10131   2.087   1.122   4.170  1.4880  1.8486  0.0682
  816MOL0     H10132   2.235   1.237   3.964 -1.4476 -0.3032 -1.3625
  816MOL0     H10133   2.252   1.079   3.902 -0.5648 -2.0254  1.7995
  816MOL0     H10134   2.325   1.138   4.195 -2.5095 -3.3123  0.8810
  816MOL0     H10135   2.341   0.984   4.105  3.5496 -0.1711  0.5643
  816MOL0     H10136   2.493   1.228   4.020  2.4055 -0.0321 -0.6395
  816MOL0     H10137   2.486   1.066   3.953  0.1184  0.4250 -0.3064
  816MOL0     H10138   2.566   0.979   4.184 -0.4788  0.4358 -0.2920
  816MOL0     H10139   2.693   1.079   4.101 -0.5950  4.6991 -2.6661
  816MOL0     H10140   1.526   1.305   3.829 -0.1371 -0.6282  1.4346
  816MOL0     H10141   1.379   1.492   3.752 -0.0584 -2.7968  0.6415
  816MOL0     H10142   1.218   2.047   3.973 -0.7414  4.0691  0.3147
  816MOL0     H10143   1.180   2.258   3.850 -1.3971 -0.4170  0.9940
  816MOL0     H10144   1.481   3.263   4.657  1.8624  1.1021  2.5595
  816MOL0     H10145   1.311   3.427   4.668 -0.9799  0.9044  0.0992
  816MOL0     H10146   1.273   3.900   4.512  0.1986 -1.3010  0.5578
  816MOL0     H10147   1.134   4.107   4.541  1.6296 -0.8510 -0.8415
  816MOL0     H10148   0.841   4.207   4.755 -0.3419  0.2940 -1.2361
  816MOL0     H10149   0.804   4.036   4.761 -1.2939  0.0407  0.2605
  816MOL0     H10150   0.595   4.188   4.728 -1.4949 -2.4518 -0.5687
  816MOL0     H10151   0.608   4.067   4.615 -0.8890  0.4041  0.2762
  816MOL0     H10152   0.564   4.273   4.476 -0.3667  1.6381  1.3843
  816MOL0     H10153   0.720   4.220   4.448 -1.0521  1.2981 -1.9661
  816MOL0     H10154   0.800   4.388   4.629 -1.5106 -2.3726  2.5369
  816MOL0     H10155   0.747   4.464   4.478 -0.3391 -3.6729 -1.4686
  816MOL0     H10156   0.462   4.612   4.749 -2.5360 -0.7958 -1.2759
  816MOL0     H10157   0.786   3.882   4.587 -0.0431 -1.3479 -0.5386
  816MOL0     H10158   0.908   3.568   4.462  0.7596  3.5464 -1.3200
  816MOL0     H10159   0.955   3.579   4.634  1.3586 -1.1746 -1.1638
  816MOL0     H10160   0.796   3.641   4.567  0.4622  1.2859  2.1403
  817MOL0     O10161   3.226   6.996   5.985  0.4069  0.0120 -0.4438
  817MOL0     C10162   3.193   7.086   6.060  0.3323 -0.9313  0.4191
  817MOL0     O10163   3.129   7.196   6.023  0.5082 -0.6847  0.3649
  817MOL0     C10164   3.123   7.243   5.887  0.3446  0.3307  0.0504
  817MOL0     C10165   3.049   7.364   5.864  0.2830  0.7326  0.7919
  817MOL0     C10166   3.050   7.424   5.736 -0.1284  0.1776 -0.9253
  817MOL0     C10167   3.119   7.363   5.634 -0.3615  0.1278  0.7382
  817MOL0     O10168   3.101   7.414   5.503  0.5979 -0.5060 -0.8073
  817MOL0     C10169   3.098   7.318   5.401  0.4683  0.8180 -0.3942
  817MOL0     C10170   3.045   7.366   5.276 -0.1532 -0.2003  0.0528
  817MOL0     C10171   2.902   7.417   5.298 -0.0552 -0.0534  0.0668
  817MOL0     C10172   2.838   7.482   5.176 -0.4712 -0.2485  0.6719
  817MOL0     C10173   2.709   7.548   5.228  0.1511  0.3883 -0.4124
  817MOL0     C10174   2.660   7.643   5.130  0.7593 -0.3981  0.2612
  817MOL0     C10175   2.502   7.652   5.144  0.0760  0.3732 -0.0850
  817MOL0     C10176   2.459   7.733   5.263 -0.2588 -0.4316  0.6288
  817MOL0     N10177   2.317   7.772   5.238 -0.1316  0.6962 -0.0597
  817MOL0     C10178   2.208   7.689   5.260 -0.1985 -0.0192  0.3819
  817MOL0     C10179   2.104   7.745   5.194 -0.1900 -0.0252  0.3750
  817MOL0     C10180   1.975   7.666   5.179 -0.1214  0.5229  0.5985
  817MOL0     C10181   1.883   7.671   5.055  0.2126 -0.1147 -0.6622
  817MOL0     C10182   1.839   7.810   5.009  0.0754  1.7084 -0.1005
  817MOL0     C10183   1.780   7.814   4.878 -0.3927  0.5721 -0.3701
  817MOL0     O10184   1.642   7.761   4.879  0.1254 -0.4886  0.2811
  817MOL0     C10185   1.565   7.764   4.768 -1.0110 -0.1299  0.9247
  817MOL0     C10186   1.428   7.723   4.774 -0.8664  0.0453 -0.4897
  817MOL0     C10187   1.347   7.723   4.661 -0.1394 -0.2974  0.1182
  817MOL0     C10188   1.396   7.766   4.538 -0.0435  0.1707 -0.0296
  817MOL0     C10189   1.304   7.766   4.420  0.0333  0.6535  0.4710
  817MOL0     O10190   1.356   7.805   4.301  0.5286 -0.4831 -0.1966
  817MOL0     C10191   1.286   7.822   4.188 -0.0061  0.3554  0.2266
  817MOL0     C10192   1.171   7.902   4.193  0.5863  0.5371  1.0526
  817MOL0     C10193   1.095   7.917   4.072 -0.8057  0.1916 -0.7384
  817MOL0     C10194   1.129   7.846   3.953  0.4087 -1.4089 -0.1301
  817MOL0     O10195   1.055   7.874   3.848  0.4922  0.1228 -0.2941
  817MOL0     C10196   1.020   7.764   3.772  0.8516  0.1063  0.7014
  817MOL0     C10197   0.888   7.719   3.788 -0.4603  0.3161 -0.7282
  817MOL0     C10198   0.835   7.670   3.928  1.3222 -1.2501 -0.3194
  817MOL0     C10199   0.690   7.713   3.939 -0.5118  0.0512 -0.5939
  817MOL0     C10200   0.633   7.683   4.076 -0.6515  0.6010 -0.4612
  817MOL0     C10201   0.671   7.770   4.203  0.5066  0.2836  0.2229
  817MOL0     C10202   0.752   7.705   4.305  0.8420 -0.4404 -0.1657
  817MOL0     C10203   0.822   7.782   4.412  0.1945 -0.5204  0.3675
  817MOL0    Cl10204   0.708   7.899   4.481 -0.1527 -0.4648 -0.2663
  817MOL0     C10205   1.258   7.785   3.948  0.7943 -0.2085 -0.3595
  817MOL0     C10206   1.341   7.783   4.060  0.0128  0.1911 -0.6687
  817MOL0     O10207   1.187   7.736   4.441 -0.4221  0.3031  0.2174
  817MOL0     C10208   1.528   7.820   4.529  0.4769  0.3532 -0.1159
  817MOL0     C10209   1.615   7.812   4.643  0.4650 -0.1820  1.2348
  817MOL0     N10210   2.144   7.868   5.142 -0.1139  0.0677 -0.6149
  817MOL0     N10211   2.273   7.880   5.173 -0.1173  0.0356  0.4093
  817MOL0     C10212   3.195   7.250   5.650  1.1319 -0.0466 -0.5689
  817MOL0     C10213   3.195   7.196   5.779  0.1066 -0.4019 -0.7655
  817MOL0     C10214   3.223   7.070   6.204 -0.7098  0.0566  0.1496
  817MOL0     C10215   3.271   6.953   6.256 -0.0669  0.1466 -0.3910
  817MOL0     C10216   3.314   6.940   6.386 -1.2793  0.0665 -1.0120
  817MOL0     C10217   3.299   7.048   6.471  0.4491 -0.5679 -0.0269
  817MOL0     O10218   3.356   7.055   6.597  0.6085  0.3389 -0.0927
  817MOL0     C10219   3.292   6.983   6.710  0.3031 -1.1462 -0.1557
  817MOL0     C10220   3.381   6.867   6.735  0.0664 -0.5639  0.5299
  817MOL0     C10221   3.353   6.809   6.873 -0.6925 -1.1749 -1.1486
  817MOL0     C10222   3.482   6.840   6.965 -1.2529 -0.4115  0.2158
  817MOL0     C10223   3.538   6.974   6.979 -0.9512 -1.2456 -0.0603
  817MOL0     C10224   3.576   7.090   7.005  0.7110  1.1274 -0.1177
  817MOL0     C10225   3.247   7.170   6.428  0.4591 -0.4540  0.6132
  817MOL0     C10226   3.206   7.187   6.288 -0.3023 -0.2618 -0.4690
  817MOL0     C10227   3.135   7.311   6.251 -0.7300 -0.2967 -0.3039
  817MOL0     H10228   2.985   7.411   5.938  0.2701  3.3589 -0.7622
  817MOL0     H10229   2.977   7.503   5.722  0.6979  0.8050 -1.8777
  817MOL0     H10230   3.195   7.279   5.370 -0.1473  0.3279 -1.7379
  817MOL0     H10231   3.043   7.229   5.432  0.5273 -0.6174 -3.9763
  817MOL0     H10232   3.050   7.282   5.207  1.1619 -1.2341  1.3384
  817MOL0     H10233   3.106   7.441   5.225  0.8949 -2.2554 -1.8915
  817MOL0     H10234   2.914   7.495   5.374 -0.8401  3.9749 -3.5238
  817MOL0     H10235   2.837   7.336   5.331 -0.2760  0.7184  1.6226
  817MOL0     H10236   2.908   7.560   5.147  1.2700 -1.2339  2.0169
  817MOL0     H10237   2.806   7.404   5.106 -1.6116 -2.0329  3.0327
  817MOL0     H10238   2.627   7.478   5.246  0.7695 -0.0876  0.6058
  817MOL0     H10239   2.725   7.599   5.324 -1.1353 -4.1013  2.4745
  817MOL0     H10240   2.710   7.741   5.133 -0.8091  0.4388  0.3306
  817MOL0     H10241   2.672   7.616   5.025 -3.0553  0.6073 -0.5861
  817MOL0     H10242   2.461   7.551   5.145  1.4180 -0.3137 -3.2051
  817MOL0     H10243   2.473   7.697   5.049 -1.5296 -3.4439 -1.5858
  817MOL0     H10244   2.484   7.679   5.354  2.8874 -1.5769 -0.7883
  817MOL0     H10245   2.521   7.822   5.261  0.3326 -0.7055  3.3119
  817MOL0     H10246   2.219   7.592   5.308 -2.9034  0.6537  2.6297
  817MOL0     H10247   2.000   7.562   5.203  3.3127  1.5437  2.1485
  817MOL0     H10248   1.919   7.692   5.269 -1.2553  1.4716 -0.3625
  817MOL0     H10249   1.944   7.624   4.977  1.7606  2.3045 -1.0351
  817MOL0     H10250   1.788   7.617   5.063 -0.0127  0.3499 -0.1951
  817MOL0     H10251   1.924   7.879   5.010  1.1055  0.5621  2.9234
  817MOL0     H10252   1.773   7.847   5.088 -0.1052 -0.6261  0.9068
  817MOL0     H10253   1.838   7.767   4.798  0.5307  1.6233 -0.3433
  817MOL0     H10254   1.782   7.919   4.849  2.1119  0.3305 -1.3967
  817MOL0     H10255   1.383   7.677   4.862  0.6509 -0.6176 -0.0318
  817MOL0     H10256   1.242   7.706   4.685  0.8782 -1.4398  4.5340
  817MOL0     H10257   1.137   7.951   4.284 -0.0450  0.0322  1.0985
  817MOL0     H10258   1.010   7.983   4.083 -1.8171 -0.8287 -2.1277
  817MOL0     H10259   1.040   7.789   3.668 -0.3301  0.5933  0.5749
  817MOL0     H10260   1.082   7.674   3.781  1.4581  0.2880 -1.2672
  817MOL0     H10261   0.816   7.791   3.747 -2.8907 -1.1065  0.7647
  817MOL0     H10262   0.880   7.626   3.731 -0.8118 -0.2572  0.2403
  817MOL0     H10263   0.834   7.561   3.942 -3.3115 -1.0440  3.7873
  817MOL0     H10264   0.901   7.708   4.007  0.7192  4.1848 -2.0916
  817MOL0     H10265   0.629   7.667   3.862 -2.0833  0.2348  0.4858
  817MOL0     H10266   0.677   7.820   3.916 -1.6668 -0.4159 -2.2681
  817MOL0     H10267   0.660   7.578   4.088 -0.6535  0.6719  0.2448
  817MOL0     H10268   0.524   7.686   4.069 -0.7183  0.4015  0.4112
  817MOL0     H10269   0.726   7.856   4.164  0.4827 -0.3500 -1.2716
  817MOL0     H10270   0.576   7.785   4.256 -1.1885 -3.1501 -1.5171
  817MOL0     H10271   0.829   7.653   4.246 -0.4713  0.2344 -2.6217
  817MOL0     H10272   0.684   7.630   4.348 -0.2336  0.5168 -0.1523
  817MOL0     H10273   0.865   7.724   4.494 -0.9277 -0.5246  0.9770
  817MOL0     H10274   0.916   7.825   4.377 -0.1288  0.4823  0.6861
  817MOL0     H10275   1.285   7.733   3.856 -2.9411  0.2433 -1.9075
  817MOL0     H10276   1.425   7.715   4.062  1.3924  1.8146  1.2460
  817MOL0     H10277   1.574   7.843   4.434  0.4973 -0.8270 -0.4110
  817MOL0     H10278   1.710   7.860   4.623 -0.1417  0.8727  0.7477
  817MOL0     H10279   3.260   7.199   5.581  1.0311 -2.1764  0.8127
  817MOL0     H10280   3.270   7.118   5.792 -0.2860 -0.5970  0.5100
  817MOL0     H10281   3.283   6.864   6.194  2.8353 -0.4724  0.8909
  817MOL0     H10282   3.363   6.852   6.426  1.2260  1.5186 -0.6880
  817MOL0     H10283   3.191   6.945   6.693  0.2208 -1.8872  1.6998
  817MOL0     H10284   3.288   7.041   6.802  1.1645 -0.9520 -0.2328
  817MOL0     H10285   3.484   6.903   6.729  0.0259 -0.4833  0.3027
  817MOL0     H10286   3.373   6.804   6.647 -3.6883  2.3624 -1.5251
  817MOL0     H10287   3.329   6.702   6.867  0.5421 -1.5542  0.2326
  817MOL0     H10288   3.259   6.853   6.908  0.7938  2.6706 -1.4879
  817MOL0     H10289   3.454   6.813   7.067 -0.6079  0.2543  0.5749
  817MOL0     H10290   3.564   6.774   6.934 -0.6421  1.3546 -2.2154
  817MOL0     H10291   3.604   7.192   7.025  4.1006  0.5245 -1.2304
  817MOL0     H10292   3.228   7.242   6.506 -2.1806 -1.4171  0.9536
  817MOL0     H10293   3.192   7.385   6.194 -0.3362 -1.3203 -1.2836
  817MOL0     H10294   3.038   7.310   6.200 -0.1383  2.5771 -1.7116
  817MOL0     H10295   3.113   7.355   6.349  0.2574 -0.1747 -0.1327
  818MOL0     O10296   8.272   9.884   5.675  0.5475  0.0852  0.4100
  818MOL0     C10297   8.255   9.765   5.624 -0.7818 -0.0460 -0.3645
  818MOL0     O10298   8.291   9.735   5.489 -1.1223  1.4147 -0.5318
  818MOL0     C10299   8.330   9.831   5.402  0.3959  0.7424 -0.2318
  818MOL0     C10300   8.295   9.961   5.390  0.5178 -0.9840 -0.6213
  818MOL0     C10301   8.347  10.045   5.293  0.0428  0.8043  0.2456
  818MOL0     C10302   8.439  10.002   5.198 -0.3831  0.8748  0.3240
  818MOL0     O10303   8.476  10.082   5.086  0.0286  0.9825 -0.3640
  818MOL0     C10304   8.397  10.202   5.059  0.2080  0.2767 -0.0058
  818MOL0     C10305   8.451  10.317   5.137 -0.3717 -0.1272  0.0425
  818MOL0     C10306   8.349  10.439   5.114  0.1518  0.0761  0.7213
  818MOL0     C10307   8.378  10.521   4.977 -0.3514  0.4384 -0.5992
  818MOL0     C10308   8.250  10.602   4.940  0.1090  0.7165 -0.1501
  818MOL0     C10309   8.237  10.726   5.036  0.0626  0.9750 -0.1132
  818MOL0     C10310   8.128  10.832   4.994 -0.1148  0.0340  0.4784
  818MOL0     C10311   7.994  10.812   5.070  0.0210  0.5197 -0.8044
  818MOL0     N10312   7.875  10.868   5.014  0.9653 -0.5875 -0.5797
  818MOL0     C10313   7.812  10.837   4.890  0.1624 -0.9514  1.6893
  818MOL0     C10314   7.682  10.894   4.887 -1.0664 -0.3337 -0.3310
  818MOL0     C10315   7.580  10.895   4.781  0.1816  0.4633  0.5349
  818MOL0     C10316   7.602  11.009   4.683 -0.3871  0.1044 -0.7099
  818MOL0     C10317   7.483  11.020   4.587 -0.3128 -0.2219  1.2463
  818MOL0     C10318   7.522  11.110   4.457 -0.1567  0.6683  0.4908
  818MOL0     O10319   7.428  11.213   4.445  0.2468 -0.4339 -0.5381
  818MOL0     C10320   7.339  11.205   4.338  0.2689  0.4109  0.1469
  818MOL0     C10321   7.358  11.279   4.222  0.2614 -0.1170  0.5024
  818MOL0     C10322   7.261  11.254   4.113 -1.2821 -0.0358 -0.0685
  818MOL0     C10323   7.156  11.157   4.126  0.3543 -0.5894  0.2120
  818MOL0     C10324   7.051  11.139   4.017 -0.9566 -0.3381 -0.3580
  818MOL0     O10325   7.066  11.223   3.919 -0.1250  0.3154 -0.4140
  818MOL0     C10326   6.966  11.226   3.826  0.0094  0.1603  0.2501
  818MOL0     C10327   6.990  11.213   3.689  0.6439  0.3411 -0.4158
  818MOL0     C10328   6.881  11.207   3.598 -0.2087 -0.7876 -0.8939
  818MOL0     C10329   6.749  11.231   3.646 -0.2018  0.0522  0.6960
  818MOL0     O10330   6.658  11.235   3.545  0.6692 -0.0601  0.3629
  818MOL0     C10331   6.514  11.255   3.573  0.4545  1.6415 -0.4183
  818MOL0     C10332   6.470  11.408   3.586  0.1729 -0.5241  0.8724
  818MOL0     C10333   6.324  11.427   3.619  0.5569  0.4833 -0.0680
  818MOL0     C10334   6.274  11.376   3.754 -0.0819  0.2773 -0.5020
  818MOL0     C10335   6.122  11.413   3.770 -0.7428  0.1072  0.6439
  818MOL0     C10336   6.102  11.556   3.794  0.1216  0.7513 -0.3214
  818MOL0     C10337   5.973  11.584   3.866 -0.1107 -0.2035  0.3896
  818MOL0     C10338   5.972  11.549   4.014  0.5968  0.2453  0.3762
  818MOL0    Cl10339   5.807  11.561   4.085  0.1716 -0.4427 -0.8142
  818MOL0     C10340   6.723  11.268   3.781 -0.5742 -0.2105  0.6408
  818MOL0     C10341   6.828  11.266   3.863  0.7097  0.4962 -0.4513
  818MOL0     O10342   6.986  11.035   4.015  0.4051 -0.9458  0.3951
  818MOL0     C10343   7.158  11.077   4.243  0.2245  0.1404  1.1525
  818MOL0     C10344   7.246  11.101   4.344 -0.4860  0.0732 -0.1474
  818MOL0     N10345   7.685  10.980   5.005 -0.7504 -0.0186  0.6728
  818MOL0     N10346   7.797  10.959   5.077 -0.7363  0.1621  0.5923
  818MOL0     C10347   8.483   9.874   5.206 -0.7521 -0.5128 -0.6626
  818MOL0     C10348   8.432   9.788   5.311 -0.5752  0.0881  0.6667
  818MOL0     C10349   8.207   9.646   5.713 -1.0254 -0.0740  0.5487
  818MOL0     C10350   8.214   9.508   5.663 -0.5403  0.3974 -0.3618
  818MOL0     C10351   8.176   9.405   5.743  0.3798 -0.7284  0.2199
  818MOL0     C10352   8.108   9.426   5.860 -0.2757 -0.0041  0.5774
  818MOL0     O10353   8.028   9.318   5.899 -0.6575 -1.3398 -0.4707
  818MOL0     C10354   7.908   9.331   5.980 -0.0276  0.9145  1.4311
  818MOL0     C10355   7.886   9.185   6.022 -0.4018 -0.3718 -1.1189
  818MOL0     C10356   7.866   9.063   5.931  0.4554 -1.3776  0.2075
  818MOL0     C10357   7.985   8.997   5.872  0.3015  0.0542 -0.3352
  818MOL0     C10358   7.953   8.859   5.830  0.3261  0.3153  0.3300
  818MOL0     C10359   7.941   8.735   5.806  0.3608 -0.7892 -0.4397
  818MOL0     C10360   8.116   9.556   5.918  1.1335  0.1085 -1.0108
  818MOL0     C10361   8.171   9.657   5.849 -0.1575 -0.4208  0.0431
  818MOL0     C10362   8.184   9.790   5.925  0.0159  0.4441  0.6446
  818MOL0     H10363   8.230  10.011   5.461  1.8708 -0.5074  0.3276
  818MOL0     H10364   8.318  10.149   5.304 -0.0876  0.5983  2.0308
  818MOL0     H10365   8.401  10.239   4.956 -6.0322  2.5421  0.1735
  818MOL0     H10366   8.290  10.183   5.067 -0.1157  1.6486 -0.8019
  818MOL0     H10367   8.548  10.353   5.101 -1.1538  1.5436 -0.4967
  818MOL0     H10368   8.466  10.291   5.242  0.4453 -0.0991 -0.0630
  818MOL0     H10369   8.358  10.522   5.185 -0.5613 -0.3088  1.2801
  818MOL0     H10370   8.246  10.402   5.110  0.1904  0.1031 -0.8423
  818MOL0     H10371   8.462  10.588   4.996 -1.9316  2.2905  0.2643
  818MOL0     H10372   8.403  10.445   4.904 -1.6082 -1.7781  1.1370
  818MOL0     H10373   8.245  10.634   4.836 -1.1758 -0.9726 -0.6535
  818MOL0     H10374   8.161  10.539   4.949 -0.4895  1.5971  0.1965
  818MOL0     H10375   8.227  10.694   5.140  2.1676  0.3747 -0.0472
  818MOL0     H10376   8.332  10.779   5.025  1.0957 -0.9806 -1.0183
  818MOL0     H10377   8.113  10.818   4.886 -1.1937 -2.1563  0.8567
  818MOL0     H10378   8.158  10.937   5.005  0.0056  0.0268  0.2191
  818MOL0     H10379   7.991  10.705   5.092 -0.4235 -0.4971 -4.8761
  818MOL0     H10380   8.002  10.865   5.165  0.5565 -0.7365 -0.1229
  818MOL0     H10381   7.836  10.760   4.817  1.1586  1.7073 -1.0061
  818MOL0     H10382   7.591  10.799   4.729 -2.8443  1.4927 -2.3952
  818MOL0     H10383   7.476  10.894   4.814 -0.0359 -1.9517 -0.0420
  818MOL0     H10384   7.601  11.101   4.742  0.7908  0.0123 -0.5273
  818MOL0     H10385   7.696  11.002   4.627  1.2320 -3.2096  2.0599
  818MOL0     H10386   7.395  11.070   4.627 -2.0205  0.2840 -2.7062
  818MOL0     H10387   7.458  10.921   4.548 -0.0673 -0.0997  0.7641
  818MOL0     H10388   7.524  11.053   4.364  1.3481 -0.2026  1.0181
  818MOL0     H10389   7.624  11.146   4.469 -0.9106  3.1495 -0.0061
  818MOL0     H10390   7.432  11.358   4.212  0.8106 -0.7950 -1.2562
  818MOL0     H10391   7.276  11.316   4.025  0.3391  1.9826  1.5035
  818MOL0     H10392   7.089  11.189   3.653 -0.2111  0.2050 -2.8269
  818MOL0     H10393   6.915  11.173   3.501  0.6864 -1.4299 -0.3710
  818MOL0     H10394   6.447  11.190   3.515  1.7836 -2.1936  1.9859
  818MOL0     H10395   6.495  11.201   3.667  0.0677 -2.1208 -2.4379
  818MOL0     H10396   6.536  11.454   3.660  2.3863 -0.5118 -0.9935
  818MOL0     H10397   6.494  11.460   3.493 -2.0341 -1.6606 -0.4309
  818MOL0     H10398   6.298  11.534   3.619 -0.0275  0.3711  1.4518
  818MOL0     H10399   6.267  11.361   3.553  1.4345 -1.3782  0.9620
  818MOL0     H10400   6.334  11.417   3.836  2.3169 -0.3699 -1.8320
  818MOL0     H10401   6.304  11.271   3.757 -0.1977  0.2318 -0.8416
  818MOL0     H10402   6.078  11.351   3.849  0.2575  0.3280  1.3932
  818MOL0     H10403   6.068  11.386   3.679 -1.5904  0.1441  1.1341
  818MOL0     H10404   6.190  11.598   3.843 -0.4652  3.4102 -1.3787
  818MOL0     H10405   6.102  11.608   3.698  0.6396  0.3930 -0.5148
  818MOL0     H10406   5.886  11.536   3.820  0.4676 -0.6762 -0.2376
  818MOL0     H10407   5.962  11.692   3.860  4.0585  0.3010 -1.4287
  818MOL0     H10408   6.007  11.449   4.038  0.3699  0.2336  0.6648
  818MOL0     H10409   6.042  11.615   4.067 -0.7283 -1.6553  4.9750
  818MOL0     H10410   6.626  11.301   3.816  0.0580  1.6837  0.7408
  818MOL0     H10411   6.793  11.303   3.959 -4.9092 -0.9785 -1.5360
  818MOL0     H10412   7.093  10.991   4.250  1.9530 -1.8333 -3.2908
  818MOL0     H10413   7.256  11.041   4.433  1.9717 -0.2038 -0.5329
  818MOL0     H10414   8.573   9.848   5.152  2.1591  1.2923  2.8646
  818MOL0     H10415   8.468   9.686   5.317  4.1133  1.3328 -1.3306
  818MOL0     H10416   8.270   9.468   5.580  0.8523 -2.8885  1.9641
  818MOL0     H10417   8.183   9.301   5.711 -2.3060 -1.0031  0.3683
  818MOL0     H10418   7.820   9.372   5.930 -1.3233 -2.8251  0.3679
  818MOL0     H10419   7.915   9.401   6.064  1.3748  1.9054  0.5314
  818MOL0     H10420   7.801   9.190   6.090  1.2118 -2.9521  1.3514
  818MOL0     H10421   7.973   9.164   6.087  0.8198  2.8467 -1.5349
  818MOL0     H10422   7.803   9.089   5.846  2.3279 -2.2889 -1.5341
  818MOL0     H10423   7.807   8.993   5.992 -3.4888  0.3625 -1.2320
  818MOL0     H10424   8.019   9.064   5.792  0.0228  2.8498  1.7764
  818MOL0     H10425   8.058   8.990   5.953  2.2680  1.4850 -1.8782
  818MOL0     H10426   7.900   8.640   5.780 -4.1856  0.8536 -0.2224
  818MOL0     H10427   8.077   9.562   6.019  0.7107 -1.2461 -1.0716
  818MOL0     H10428   8.104   9.859   5.897 -0.5143 -0.7729 -1.0242
  818MOL0     H10429   8.177   9.769   6.032 -0.8845  0.9522  0.6952
  818MOL0     H10430   8.283   9.832   5.904  0.3243 -0.6718 -0.1932
  819MOL0     O10431   7.996   2.615   6.293  0.7581 -0.4703 -0.0294
  819MOL0     C10432   8.106   2.561   6.286 -0.6669 -0.3554 -0.3109
  819MOL0     O10433   8.189   2.550   6.398 -0.2570 -0.7994 -0.0910
  819MOL0     C10434   8.181   2.658   6.486 -0.1222  0.1011 -0.9919
  819MOL0     C10435   8.106   2.642   6.605  0.6818  1.1135  0.0075
  819MOL0     C10436   8.083   2.752   6.693 -0.5764 -0.2114  0.5923
  819MOL0     C10437   8.143   2.873   6.664  1.6204 -0.9335  0.1288
  819MOL0     O10438   8.150   2.980   6.748  0.7177  0.2479  0.4262
  819MOL0     C10439   8.037   2.982   6.848 -1.0196  0.0831 -0.3398
  819MOL0     C10440   8.035   3.121   6.906 -0.1651 -0.4607 -0.3156
  819MOL0     C10441   7.933   3.161   7.010  1.4674  0.1218  0.1218
  819MOL0     C10442   7.915   3.071   7.132  0.1162  0.1967 -0.3203
  819MOL0     C10443   7.778   3.084   7.194  1.0638  0.4989  0.2684
  819MOL0     C10444   7.766   2.981   7.309 -0.3565  0.4678  0.6277
  819MOL0     C10445   7.844   3.019   7.444 -0.4846 -0.3506  0.9710
  819MOL0     C10446   7.770   3.110   7.543 -0.0407  0.4585  0.2683
  819MOL0     N10447   7.743   3.243   7.482  0.7087 -0.2353 -0.0766
  819MOL0     C10448   7.833   3.347   7.475  0.6550  0.3301 -0.7280
  819MOL0     C10449   7.759   3.450   7.431 -0.1689 -0.4544  1.0329
  819MOL0     C10450   7.816   3.581   7.385  0.4595  0.8576  0.4680
  819MOL0     C10451   7.892   3.552   7.247  1.7755 -0.0107 -0.5915
  819MOL0     C10452   7.946   3.676   7.191 -0.5638  0.3036  0.0804
  819MOL0     C10453   7.986   3.669   7.045  0.6260  0.2617 -0.3465
  819MOL0     O10454   8.067   3.553   7.018 -0.0786  0.1649 -0.0588
  819MOL0     C10455   8.106   3.566   6.885 -0.1878 -0.6000  0.1236
  819MOL0     C10456   8.243   3.600   6.850  0.1086  1.3509  0.8753
  819MOL0     C10457   8.285   3.603   6.707 -0.0895 -0.6145 -0.4387
  819MOL0     C10458   8.189   3.577   6.612  0.7349 -0.6232 -1.0205
  819MOL0     C10459   8.226   3.596   6.471 -0.4880 -0.2637  0.1082
  819MOL0     O10460   8.363   3.600   6.444 -0.1696  0.1033  0.4826
  819MOL0     C10461   8.402   3.683   6.345 -0.4353 -0.6412 -0.1201
  819MOL0     C10462   8.390   3.639   6.211 -0.6877  0.2695  0.5472
  819MOL0     C10463   8.425   3.735   6.114  0.2746 -0.2415  0.9741
  819MOL0     C10464   8.482   3.859   6.147  0.4698  0.3915 -0.2372
  819MOL0     O10465   8.523   3.940   6.044 -0.3612  0.0850 -1.0236
  819MOL0     C10466   8.659   3.955   6.018  0.4681  0.4523 -0.5028
  819MOL0     C10467   8.703   3.999   5.868 -0.7569  0.7588 -0.4679
  819MOL0     C10468   8.676   4.138   5.836  0.6537 -0.3156  1.0098
  819MOL0     C10469   8.754   4.177   5.711  0.5132  0.5744 -1.2113
  819MOL0     C10470   8.711   4.312   5.676 -0.1423 -0.4552  1.0064
  819MOL0     C10471   8.776   4.360   5.541 -0.3817  0.5676  0.0824
  819MOL0     C10472   8.930   4.353   5.545  0.0654 -0.4802  0.3805
  819MOL0     C10473   8.987   4.443   5.435  0.0556  0.1285 -0.9278
  819MOL0    Cl10474   9.161   4.434   5.441 -0.1760 -0.2350 -0.1171
  819MOL0     C10475   8.496   3.892   6.276 -0.0628 -0.2688  0.4450
  819MOL0     C10476   8.448   3.807   6.376 -0.4988 -0.6222 -0.9961
  819MOL0     O10477   8.141   3.634   6.397  0.2841 -0.6811 -0.1692
  819MOL0     C10478   8.060   3.533   6.653  0.2801 -0.5419  0.5897
  819MOL0     C10479   8.013   3.537   6.783 -0.6994  0.1646 -0.1681
  819MOL0     N10480   7.628   3.405   7.405  0.1278 -1.0260 -0.7587
  819MOL0     N10481   7.623   3.282   7.432 -0.6759 -0.6139 -0.6824
  819MOL0     C10482   8.222   2.885   6.546 -0.8843 -0.6684 -0.1980
  819MOL0     C10483   8.229   2.783   6.459 -1.3162 -0.6563 -0.0947
  819MOL0     C10484   8.162   2.517   6.159 -0.1462  0.4460  0.3208
  819MOL0     C10485   8.299   2.541   6.132  0.4970  0.2498 -0.6782
  819MOL0     C10486   8.367   2.482   6.022 -0.0830 -0.0447  1.3454
  819MOL0     C10487   8.290   2.421   5.926 -1.0927  0.1955 -0.2108
  819MOL0     O10488   8.357   2.351   5.823  0.8354 -0.1247  0.1650
  819MOL0     C10489   8.304   2.363   5.690 -0.5729  0.1855 -0.5031
  819MOL0     C10490   8.381   2.480   5.630 -0.6600  0.1804 -0.5883
  819MOL0     C10491   8.363   2.512   5.476  0.4528  0.3585 -0.2758
  819MOL0     C10492   8.401   2.659   5.450  0.4413  0.2685 -0.2364
  819MOL0     C10493   8.434   2.679   5.311  0.4487 -0.3023 -0.0643
  819MOL0     C10494   8.471   2.682   5.195 -0.2331  1.4220 -1.2279
  819MOL0     C10495   8.157   2.394   5.950 -0.4619 -0.6336 -0.1510
  819MOL0     C10496   8.088   2.444   6.061  0.6349  0.8002  0.0445
  819MOL0     C10497   7.943   2.412   6.079  0.4130  0.2328 -0.2149
  819MOL0     H10498   8.077   2.540   6.629  0.5140  1.2423  0.3638
  819MOL0     H10499   8.010   2.741   6.773 -0.2271  0.5037  1.0180
  819MOL0     H10500   7.941   2.954   6.803 -0.6489 -1.2203 -0.3516
  819MOL0     H10501   8.069   2.915   6.929  1.6177  3.8164  2.0881
  819MOL0     H10502   8.004   3.187   6.824  1.1084 -0.3634 -0.7307
  819MOL0     H10503   8.139   3.142   6.933 -0.2127 -0.1976 -0.3313
  819MOL0     H10504   7.837   3.168   6.958  1.2264  2.4173  0.7471
  819MOL0     H10505   7.945   3.267   7.032 -0.2201  0.6807 -1.4025
  819MOL0     H10506   7.940   2.967   7.109  2.1944  0.5673  0.0596
  819MOL0     H10507   7.983   3.092   7.214  1.1812  1.7481 -1.5507
  819MOL0     H10508   7.774   3.188   7.228  3.8840  0.8934 -0.3558
  819MOL0     H10509   7.701   3.071   7.117  0.7150 -0.4899  0.7729
  819MOL0     H10510   7.660   2.964   7.331  0.1295 -1.2209  1.7890
  819MOL0     H10511   7.801   2.888   7.264  0.0444  0.8793  0.0741
  819MOL0     H10512   7.940   3.064   7.418 -0.5155  0.5126  2.2807
  819MOL0     H10513   7.862   2.920   7.487 -2.3433 -0.9450  0.4755
  819MOL0     H10514   7.673   3.075   7.577 -2.3118  3.9043 -2.0453
  819MOL0     H10515   7.830   3.120   7.634 -2.8798 -0.5279  2.3945
  819MOL0     H10516   7.937   3.340   7.507  0.6127 -4.4711 -0.9669
  819MOL0     H10517   7.739   3.653   7.357  0.0419  0.6330  1.0193
  819MOL0     H10518   7.878   3.622   7.465 -0.5626  2.4533  0.4814
  819MOL0     H10519   7.966   3.475   7.271  2.6846  0.6214 -1.3151
  819MOL0     H10520   7.825   3.510   7.172  0.1312 -0.4247  1.0258
  819MOL0     H10521   8.034   3.696   7.253  0.6078 -2.0047 -0.7233
  819MOL0     H10522   7.880   3.762   7.205  0.2452  1.6887 -3.5469
  819MOL0     H10523   8.053   3.754   7.032  0.7938  0.3451  0.9319
  819MOL0     H10524   7.895   3.676   6.984 -1.2697 -0.7718  2.1672
  819MOL0     H10525   8.318   3.601   6.928  0.7992  0.5633  0.2399
  819MOL0     H10526   8.386   3.642   6.694 -0.7978  1.6531  0.4674
  819MOL0     H10527   8.347   3.543   6.184  0.2545 -1.3743  4.2456
  819MOL0     H10528   8.420   3.714   6.008  2.8163 -0.0918  0.7566
  819MOL0     H10529   8.689   4.030   6.091  0.6865 -0.7076  0.6223
  819MOL0     H10530   8.715   3.863   6.034 -0.1899 -0.5147 -3.1187
  819MOL0     H10531   8.809   3.981   5.846 -1.7046  0.3643 -6.1578
  819MOL0     H10532   8.643   3.939   5.799  0.4452  0.2602 -1.1162
  819MOL0     H10533   8.570   4.138   5.813  0.2943  0.4121  2.5362
  819MOL0     H10534   8.708   4.204   5.918  1.5671 -1.5340  1.6759
  819MOL0     H10535   8.733   4.112   5.625  0.9533 -3.9277  1.7860
  819MOL0     H10536   8.860   4.180   5.737  0.2923  0.3715 -0.2810
  819MOL0     H10537   8.736   4.384   5.754  0.5134  2.2717 -1.5488
  819MOL0     H10538   8.602   4.322   5.670 -0.3711 -2.4264  1.3025
  819MOL0     H10539   8.738   4.303   5.456  1.0871 -1.9959  1.0147
  819MOL0     H10540   8.748   4.465   5.526 -1.0798  0.5691  1.2674
  819MOL0     H10541   8.960   4.250   5.526 -1.6524 -1.1034  0.8679
  819MOL0     H10542   8.973   4.377   5.642 -0.4346  1.5664  0.1459
  819MOL0     H10543   8.955   4.402   5.339  3.0317 -0.8748 -1.5652
  819MOL0     H10544   8.946   4.543   5.454  0.5493 -0.0815  1.4904
  819MOL0     H10545   8.549   3.983   6.303  1.8288 -0.7124 -1.4394
  819MOL0     H10546   8.451   3.827   6.482 -0.4201  1.0356 -1.2785
  819MOL0     H10547   7.999   3.500   6.570  0.7596 -3.9717  1.4356
  819MOL0     H10548   7.919   3.489   6.808 -0.1801 -3.5977 -4.1323
  819MOL0     H10549   8.278   2.976   6.531 -1.6246 -0.5455 -2.7514
  819MOL0     H10550   8.275   2.810   6.365 -1.1622 -0.9009 -0.0881
  819MOL0     H10551   8.360   2.597   6.202  1.1135  0.3864 -1.3101
  819MOL0     H10552   8.475   2.489   6.014 -0.2066  2.1391  0.7212
  819MOL0     H10553   8.197   2.383   5.683 -0.6004  0.7105  1.0468
  819MOL0     H10554   8.339   2.271   5.642  0.4951 -1.1491  2.6024
  819MOL0     H10555   8.485   2.466   5.663 -0.8138  1.2273  0.3834
  819MOL0     H10556   8.347   2.571   5.679  0.5577  0.4227 -0.1566
  819MOL0     H10557   8.261   2.492   5.443  0.5943 -1.5404  0.3613
  819MOL0     H10558   8.422   2.442   5.417  1.4497  0.8933  0.0701
  819MOL0     H10559   8.312   2.719   5.469  2.4516  2.6650  2.5240
  819MOL0     H10560   8.484   2.680   5.518  0.9195 -1.3570 -0.2601
  819MOL0     H10561   8.513   2.684   5.097  0.3804 -0.3188 -1.0293
  819MOL0     H10562   8.106   2.338   5.872 -0.4732  1.1087 -1.4597
  819MOL0     H10563   7.932   2.378   6.182 -1.5977  0.9348 -0.1463
  819MOL0     H10564   7.886   2.505   6.069 -1.9464 -0.8183  2.2280
  819MOL0     H10565   7.904   2.341   6.005  2.5375 -0.4446 -0.7601
  820MOL0     O10566   2.633   4.596   9.658  0.0138  0.1155  0.0573
  820MOL0     C10567   2.518   4.576   9.629  0.5548 -1.0094  0.5457
  820MOL0     O10568   2.439   4.680   9.569  0.0119 -0.5868  0.2051
  820MOL0     C10569   2.478   4.811   9.570 -0.4417  0.6321  0.3352
  820MOL0     C10570   2.521   4.878   9.450  0.4644  0.4583 -0.1714
  820MOL0     C10571   2.545   5.019   9.446  0.7273  0.2489 -1.0917
  820MOL0     C10572   2.536   5.094   9.565  0.4988  0.9938 -0.0480
  820MOL0     O10573   2.547   5.229   9.542 -0.4459  0.2451 -0.3871
  820MOL0     C10574   2.577   5.305   9.659  0.2913 -0.1295  0.1435
  820MOL0     C10575   2.569   5.448   9.617  0.3574  0.5816 -0.2073
  820MOL0     C10576   2.634   5.551   9.717 -0.9272  0.3166 -0.0726
  820MOL0     C10577   2.543   5.594   9.833 -0.2269 -1.4486 -0.2432
  820MOL0     C10578   2.604   5.716   9.905 -0.5597  0.4784 -0.0125
  820MOL0     C10579   2.503   5.792   9.978  0.5054 -1.0263 -0.2529
  820MOL0     C10580   2.419   5.717  10.078 -0.3802 -0.3456  0.7646
  820MOL0     C10581   2.492   5.651  10.193 -1.4146 -0.0311 -0.7122
  820MOL0     N10582   2.589   5.744  10.261 -0.1298  0.4061  0.0958
  820MOL0     C10583   2.543   5.858  10.329  0.9405  0.6366  1.1093
  820MOL0     C10584   2.639   5.941  10.361 -1.5629 -0.6243 -0.0771
  820MOL0     C10585   2.616   6.058  10.450 -1.1701 -0.5443 -0.2086
  820MOL0     C10586   2.752   6.105  10.521  0.4425  0.2605  1.0066
  820MOL0     C10587   2.759   6.246  10.586 -0.3331  0.0807 -0.1497
  820MOL0     C10588   2.694   6.264  10.718  1.0043  0.1224  0.0581
  820MOL0     O10589   2.564   6.217  10.692  0.2025 -1.0193 -0.3448
  820MOL0     C10590   2.458   6.245  10.774  0.2332 -0.5095 -1.0624
  820MOL0     C10591   2.461   6.319  10.894  0.3800 -0.6359 -0.3322
  820MOL0     C10592   2.345   6.331  10.980 -0.6189  0.0505  0.8279
  820MOL0     C10593   2.228   6.279  10.923 -0.1175 -0.1176 -0.6793
  820MOL0     C10594   2.113   6.273  11.021 -0.3281  0.1695 -0.1069
  820MOL0     O10595   2.042   6.158  11.015  0.3438  1.0359 -0.1362
  820MOL0     C10596   1.950   6.143  11.118 -0.0598  0.2049  0.1389
  820MOL0     C10597   1.824   6.213  11.105  0.0441 -0.5549 -0.2063
  820MOL0     C10598   1.730   6.208  11.212 -0.4255  0.6215 -0.4461
  820MOL0     C10599   1.761   6.143  11.330 -0.0351  0.9225  0.7826
  820MOL0     O10600   1.656   6.135  11.411  0.1646 -0.0078 -0.6200
  820MOL0     C10601   1.665   6.026  11.506 -0.2025 -0.7105 -0.2063
  820MOL0     C10602   1.528   5.988  11.553 -0.7868  0.3216 -0.7626
  820MOL0     C10603   1.476   6.090  11.656 -0.1312 -0.2898 -0.0717
  820MOL0     C10604   1.381   6.026  11.755 -0.3577 -0.4925 -0.6341
  820MOL0     C10605   1.356   6.124  11.874  0.2898 -0.1340 -0.4606
  820MOL0     C10606   1.238   6.228  11.843 -0.2856  0.7232 -0.5326
  820MOL0     C10607   1.094   6.175  11.869 -0.4175 -0.0438 -0.3891
  820MOL0     C10608   0.996   6.258  11.789  0.0076 -0.6679  0.2344
  820MOL0    Cl10609   1.017   6.212  11.620  0.1372  0.0059 -0.1635
  820MOL0     C10610   1.892   6.094  11.351 -0.1138  0.1593 -1.0321
  820MOL0     C10611   1.979   6.092  11.241 -0.0131 -0.2298  0.5275
  820MOL0     O10612   2.110   6.367  11.104 -0.1479  0.4016 -0.0121
  820MOL0     C10613   2.227   6.212  10.795 -0.2648  0.0662 -0.6251
  820MOL0     C10614   2.343   6.188  10.721 -0.1023 -0.1001  0.1888
  820MOL0     N10615   2.754   5.880  10.309 -0.4572  0.4978  0.6006
  820MOL0     N10616   2.725   5.757  10.256  0.9154 -0.2994  0.4123
  820MOL0     C10617   2.504   5.026   9.686  0.5031  0.4297 -0.3656
  820MOL0     C10618   2.467   4.886   9.682  0.0554  0.0675 -0.1330
  820MOL0     C10619   2.466   4.445   9.660 -0.2589 -0.1266  0.1028
  820MOL0     C10620   2.481   4.335   9.574 -0.0692  0.2572  0.5493
  820MOL0     C10621   2.421   4.212   9.585 -0.5203  0.2531 -0.4396
  820MOL0     C10622   2.318   4.200   9.681 -0.2301 -0.5637  0.2987
  820MOL0     O10623   2.263   4.080   9.706  0.1668 -0.3481 -0.3902
  820MOL0     C10624   2.271   3.970   9.614  0.7222  0.2457  1.1749
  820MOL0     C10625   2.135   3.882   9.634  0.2337 -0.5436  0.5568
  820MOL0     C10626   2.169   3.798   9.761 -0.3579  0.0781 -0.5326
  820MOL0     C10627   2.047   3.752   9.843 -0.3809 -0.4160 -0.1759
  820MOL0     C10628   1.954   3.869   9.868 -0.1050 -0.4236 -0.8875
  820MOL0     C10629   1.882   3.964   9.870  0.4798 -1.1606  0.5015
  820MOL0     C10630   2.281   4.315   9.757  0.1725  0.1946  0.4159
  820MOL0     C10631   2.358   4.436   9.749  0.0586 -0.9843  0.1288
  820MOL0     C10632   2.321   4.556   9.839 -0.2191  0.6085  0.3609
  820MOL0     H10633   2.512   4.820   9.359 -2.4931  0.6726 -0.1343
  820MOL0     H10634   2.578   5.073   9.358  0.3292  1.9837 -0.2246
  820MOL0     H10635   2.521   5.287   9.751  1.6498  0.1755  1.0562
  820MOL0     H10636   2.683   5.297   9.684  0.5528  2.3149  0.1242
  820MOL0     H10637   2.461   5.464   9.612  0.0144 -1.1042  0.9634
  820MOL0     H10638   2.613   5.462   9.517 -0.4339 -2.3639 -1.0598
  820MOL0     H10639   2.666   5.633   9.652  0.0053  0.3657  0.4184
  820MOL0     H10640   2.727   5.507   9.756 -1.2781  0.1796  0.6228
  820MOL0     H10641   2.447   5.614   9.785 -0.8416  3.3128  2.3368
  820MOL0     H10642   2.517   5.513   9.902 -3.4807 -0.1799  0.1895
  820MOL0     H10643   2.691   5.686   9.963  0.0558 -0.3866 -1.3232
  820MOL0     H10644   2.647   5.785   9.831  4.4383 -1.1522  0.9980
  820MOL0     H10645   2.550   5.879  10.026 -4.0552  0.4095  2.2356
  820MOL0     H10646   2.434   5.839   9.907  0.4589  1.6610  1.4071
  820MOL0     H10647   2.362   5.633  10.036  0.7633 -0.0613 -1.5059
  820MOL0     H10648   2.351   5.789  10.124 -3.2741 -0.4088 -2.9277
  820MOL0     H10649   2.411   5.620  10.260 -2.1637  1.9889 -0.6075
  820MOL0     H10650   2.551   5.562  10.172  0.2362  0.1711  2.4507
  820MOL0     H10651   2.436   5.871  10.344  0.2289  2.9626 -3.9350
  820MOL0     H10652   2.571   6.139  10.391  4.2864  2.5256 -0.8788
  820MOL0     H10653   2.550   6.024  10.530 -1.7272 -1.5464 -1.0805
  820MOL0     H10654   2.789   6.037  10.597 -0.7678  0.1453  1.5198
  820MOL0     H10655   2.828   6.098  10.443  0.6395  3.1643  0.8049
  820MOL0     H10656   2.711   6.310  10.512  0.9601 -1.4130 -2.3871
  820MOL0     H10657   2.861   6.281  10.602 -1.3660  3.0462  0.5497
  820MOL0     H10658   2.684   6.366  10.755 -2.4310 -0.6958  1.8028
  820MOL0     H10659   2.732   6.200  10.798 -0.2807 -1.8153 -0.7923
  820MOL0     H10660   2.564   6.338  10.922  0.8597 -2.8420 -0.4504
  820MOL0     H10661   2.350   6.385  11.074 -1.0650 -0.4687  1.1570
  820MOL0     H10662   1.805   6.271  11.015 -1.0358 -1.1779 -0.3935
  820MOL0     H10663   1.634   6.259  11.212 -1.0312 -0.4047  1.4660
  820MOL0     H10664   1.701   5.944  11.443 -1.0063 -1.5118  0.3615
  820MOL0     H10665   1.729   6.049  11.592 -0.5858 -0.7963  0.1055
  820MOL0     H10666   1.463   5.966  11.469 -0.7701 -1.7237 -0.2898
  820MOL0     H10667   1.537   5.892  11.605  0.9961  0.3847 -0.8847
  820MOL0     H10668   1.551   6.153  11.704  0.2140 -0.0594 -0.8991
  820MOL0     H10669   1.421   6.165  11.599  1.7578  3.0098  2.0995
  820MOL0     H10670   1.440   5.945  11.798  1.5659  2.5069  2.9177
  820MOL0     H10671   1.289   6.002  11.701 -0.2986  0.8351 -1.3620
  820MOL0     H10672   1.448   6.174  11.902 -1.1227  1.6280  1.3090
  820MOL0     H10673   1.320   6.067  11.960 -2.4941  2.9187  0.5917
  820MOL0     H10674   1.240   6.313  11.912 -1.5621 -1.2823  2.1520
  820MOL0     H10675   1.249   6.271  11.743 -0.7963  1.4031 -0.3053
  820MOL0     H10676   1.078   6.193  11.976  2.3630  0.3097  0.0445
  820MOL0     H10677   1.081   6.067  11.857 -1.3417  0.0406 -0.2281
  820MOL0     H10678   0.894   6.228  11.816  0.3968 -0.1867  2.4080
  820MOL0     H10679   1.006   6.366  11.801 -2.7791  0.3365 -4.1568
  820MOL0     H10680   1.909   6.051  11.449 -5.6833  0.2209  0.2940
  820MOL0     H10681   2.076   6.044  11.253  0.8112  0.5256 -2.2960
  820MOL0     H10682   2.136   6.159  10.770  0.9059 -1.5283 -1.7014
  820MOL0     H10683   2.337   6.122  10.636 -0.6150 -2.2656  1.8224
  820MOL0     H10684   2.515   5.080   9.779  1.4324  0.0558 -0.2522
  820MOL0     H10685   2.433   4.830   9.769 -0.5666 -1.1891 -1.1634
  820MOL0     H10686   2.525   4.360   9.478  0.6522 -0.1155  0.7801
  820MOL0     H10687   2.446   4.127   9.522  0.8370 -0.0507  0.4465
  820MOL0     H10688   2.364   3.914   9.627  2.0797  1.5364 -1.8507
  820MOL0     H10689   2.281   4.008   9.512  1.7044 -2.0743  0.3302
  820MOL0     H10690   2.134   3.796   9.566  0.0225 -1.3984  1.6187
  820MOL0     H10691   2.047   3.948   9.635  0.3131 -0.4454  0.9491
  820MOL0     H10692   2.235   3.859   9.823 -1.1200  1.0268 -0.6314
  820MOL0     H10693   2.228   3.714   9.724  2.1023  2.2056 -1.7084
  820MOL0     H10694   1.998   3.677   9.782  1.3309 -2.0413  0.3567
  820MOL0     H10695   2.088   3.700   9.931 -0.3408  1.0127  0.7016
  820MOL0     H10696   1.822   4.053   9.869  0.8861 -0.8688 -0.9105
  820MOL0     H10697   2.198   4.302   9.825  0.3065  4.4858  1.6786
  820MOL0     H10698   2.248   4.508   9.905  0.6559  0.5667  1.3323
  820MOL0     H10699   2.406   4.577   9.905 -0.0486 -4.6299  2.2665
  820MOL0     H10700   2.289   4.638   9.774  0.1651  1.7196  1.5377
  821MOL0     O10701   9.433   5.818   6.203  1.3140  0.5739  0.8335
  821MOL0     C10702   9.366   5.726   6.162  0.2477 -0.0855 -0.3125
  821MOL0     O10703   9.235   5.732   6.163  0.5325 -0.2278  0.4526
  821MOL0     C10704   9.177   5.835   6.233 -0.3070 -1.1370  0.1647
  821MOL0     C10705   9.190   5.840   6.372  0.0152  0.5733  0.1703
  821MOL0     C10706   9.137   5.945   6.445 -0.7555 -0.0565 -0.2606
  821MOL0     C10707   9.075   6.045   6.376  0.7808 -1.5715 -0.0366
  821MOL0     O10708   9.024   6.147   6.449 -0.4931 -0.1973  1.4475
  821MOL0     C10709   9.117   6.247   6.489  0.4939 -0.4470 -1.0448
  821MOL0     C10710   9.136   6.363   6.388 -0.3799  0.3040  0.1798
  821MOL0     C10711   9.285   6.380   6.336 -0.1280  0.0329  0.9222
  821MOL0     C10712   9.342   6.271   6.247  0.8270  0.1458  0.1320
  821MOL0     C10713   9.477   6.316   6.195  0.0082  0.2511  0.1216
  821MOL0     C10714   9.564   6.250   6.294  0.2056  0.0618  0.8469
  821MOL0     C10715   9.616   6.108   6.258 -0.5067 -0.1250  0.2694
  821MOL0     C10716   9.687   6.104   6.121  0.0528  0.1475  0.7691
  821MOL0     N10717   9.810   6.029   6.124  0.2023  0.5074  0.0898
  821MOL0     C10718   9.945   6.059   6.149 -0.0406 -0.8199 -1.4083
  821MOL0     C10719  10.004   5.931   6.150  0.2294 -0.2135 -0.7268
  821MOL0     C10720  10.145   5.886   6.199 -0.1824 -0.4842  0.6964
  821MOL0     C10721  10.251   5.969   6.130 -0.1365 -0.0555 -0.7622
  821MOL0     C10722  10.389   5.903   6.135  0.9149  0.1817 -0.3376
  821MOL0     C10723  10.427   5.837   6.005 -0.6702 -0.3259  0.0998
  821MOL0     O10724  10.480   5.918   5.902  0.2296  0.3444  0.0266
  821MOL0     C10725  10.488   5.867   5.768  0.4459  0.4727 -0.0104
  821MOL0     C10726  10.449   5.733   5.735  0.1237 -0.5776  0.8363
  821MOL0     C10727  10.462   5.687   5.599 -0.4613 -0.1550  0.0624
  821MOL0     C10728  10.522   5.772   5.504 -0.0762  0.4223 -0.3295
  821MOL0     C10729  10.538   5.722   5.365 -0.2144 -1.0457  0.3629
  821MOL0     O10730  10.487   5.593   5.340  0.1842 -0.6650  0.8207
  821MOL0     C10731  10.509   5.516   5.231 -0.3246  0.0527  0.5971
  821MOL0     C10732  10.634   5.512   5.165 -1.1884  0.2609  0.3759
  821MOL0     C10733  10.646   5.440   5.042  0.2322  0.0737  0.9898
  821MOL0     C10734  10.550   5.364   4.989 -0.3547  0.8663  0.9055
  821MOL0     O10735  10.565   5.279   4.881 -0.0244 -0.2729  0.0413
  821MOL0     C10736  10.477   5.308   4.770  0.0611  0.2151  0.1810
  821MOL0     C10737  10.555   5.395   4.681 -0.9496 -0.5693  0.2409
  821MOL0     C10738  10.486   5.452   4.558 -0.3963  0.3834  0.3479
  821MOL0     C10739  10.440   5.337   4.459 -0.8468 -0.4252 -0.8017
  821MOL0     C10740  10.319   5.374   4.369 -0.0400 -0.1291 -0.6194
  821MOL0     C10741  10.327   5.516   4.299  0.2583  0.2634 -0.0827
  821MOL0     C10742  10.230   5.525   4.181 -0.6236 -0.6889 -0.1954
  821MOL0     C10743  10.222   5.655   4.102  0.5373  1.0436  0.3624
  821MOL0    Cl10744  10.309   5.636   3.946 -0.0396  0.5920 -0.3966
  821MOL0     C10745  10.421   5.369   5.052 -0.4707  0.6315 -1.1472
  821MOL0     C10746  10.409   5.441   5.173 -0.1745 -0.2867  0.3649
  821MOL0     O10747  10.600   5.796   5.282  0.2950  0.4587  0.1184
  821MOL0     C10748  10.559   5.910   5.533  1.7204  1.1773 -0.9030
  821MOL0     C10749  10.546   5.947   5.669 -0.7752 -0.7897 -0.2881
  821MOL0     N10750   9.911   5.837   6.124  0.2477  0.3730 -0.2994
  821MOL0     N10751   9.798   5.900   6.097  0.2317  0.0739  0.2497
  821MOL0     C10752   9.066   6.041   6.234  0.3883 -0.0862  0.7033
  821MOL0     C10753   9.122   5.935   6.156 -0.1035  1.5025  1.2096
  821MOL0     C10754   9.437   5.620   6.067  1.1004 -0.7496 -1.3023
  821MOL0     C10755   9.578   5.616   6.057  0.5384 -0.1026  0.3043
  821MOL0     C10756   9.653   5.520   5.980  0.4675 -0.8999  0.2716
  821MOL0     C10757   9.586   5.429   5.901  0.7672 -0.7525  0.0903
  821MOL0     O10758   9.654   5.327   5.841 -0.9749 -0.0349  0.2011
  821MOL0     C10759   9.614   5.188   5.865 -0.3831  0.0679 -0.0395
  821MOL0     C10760   9.710   5.107   5.787  1.2792 -0.1331 -0.2303
  821MOL0     C10761   9.676   5.111   5.637  0.0578  0.0958  0.4576
  821MOL0     C10762   9.804   5.126   5.543 -0.3271  0.0947  0.1834
  821MOL0     C10763   9.906   5.025   5.563 -0.1749 -0.7249 -0.1875
  821MOL0     C10764   9.996   4.945   5.574  1.2483 -0.3759  0.1051
  821MOL0     C10765   9.444   5.430   5.903 -0.0782 -0.1725  0.9838
  821MOL0     C10766   9.377   5.524   5.985  1.4005 -0.0734  0.5688
  821MOL0     C10767   9.226   5.518   5.965 -1.1871  0.9152  0.1735
  821MOL0     H10768   9.242   5.758   6.421 -1.7224 -0.3493  0.5287
  821MOL0     H10769   9.168   5.953   6.548 -0.9372 -0.7624 -0.1444
  821MOL0     H10770   9.079   6.286   6.584  0.2955  0.9334 -1.6563
  821MOL0     H10771   9.215   6.208   6.516 -0.0761 -1.4387 -0.3604
  821MOL0     H10772   9.088   6.457   6.419 -0.5811  0.1103  0.4653
  821MOL0     H10773   9.074   6.341   6.301 -0.2085  4.9452 -1.3753
  821MOL0     H10774   9.353   6.392   6.421  1.6304 -0.9687 -0.2779
  821MOL0     H10775   9.293   6.472   6.278 -3.6783 -0.2720 -0.2713
  821MOL0     H10776   9.343   6.170   6.290 -2.0736  0.2458  0.6687
  821MOL0     H10777   9.277   6.257   6.160 -0.7138 -2.4338  1.5650
  821MOL0     H10778   9.504   6.277   6.096 -0.0494  1.3111 -0.3278
  821MOL0     H10779   9.495   6.423   6.182 -0.4367  0.5630  1.8326
  821MOL0     H10780   9.651   6.316   6.299 -0.6968  1.2295  2.1040
  821MOL0     H10781   9.523   6.244   6.396  0.9759  0.2612  1.1698
  821MOL0     H10782   9.526   6.045   6.260 -0.8306  0.0717 -2.9276
  821MOL0     H10783   9.677   6.083   6.345 -3.2091  1.6427  2.8512
  821MOL0     H10784   9.621   6.044   6.059  1.2736 -0.6576  0.2014
  821MOL0     H10785   9.703   6.202   6.075  0.7264 -0.6367 -0.7242
  821MOL0     H10786  10.005   6.141   6.188  1.4916 -1.1819 -2.9031
  821MOL0     H10787  10.147   5.910   6.306 -1.8739  2.9727  0.0598
  821MOL0     H10788  10.157   5.779   6.176 -2.5524 -1.1785  2.2948
  821MOL0     H10789  10.233   5.989   6.024 -1.4664 -0.6875 -0.6753
  821MOL0     H10790  10.250   6.068   6.176 -0.7464  0.2833 -1.4807
  821MOL0     H10791  10.383   5.842   6.226 -3.0873  3.4413  1.8956
  821MOL0     H10792  10.452   5.988   6.161  0.5506  0.7587 -1.3039
  821MOL0     H10793  10.347   5.772   5.970 -2.2792  1.4551  0.3471
  821MOL0     H10794  10.517   5.777   6.022  0.2524  1.4353  1.8381
  821MOL0     H10795  10.403   5.661   5.802 -1.4347  1.5239  2.1522
  821MOL0     H10796  10.434   5.584   5.581  4.4372 -1.1094 -4.7762
  821MOL0     H10797  10.718   5.575   5.192 -2.0959  1.6542  0.0574
  821MOL0     H10798  10.744   5.439   4.997 -0.5848  1.1701 -0.9315
  821MOL0     H10799  10.445   5.211   4.732  1.0950 -0.8827  1.9353
  821MOL0     H10800  10.387   5.358   4.808 -0.5961 -1.6335  1.1614
  821MOL0     H10801  10.595   5.485   4.728 -2.7798  1.4073 -1.7200
  821MOL0     H10802  10.637   5.333   4.642 -1.5649  0.6252 -3.3350
  821MOL0     H10803  10.392   5.496   4.592 -0.0466  2.2252 -0.9217
  821MOL0     H10804  10.550   5.530   4.516  2.5603  0.3654  4.2559
  821MOL0     H10805  10.413   5.248   4.517  2.4670 -2.3352 -1.8813
  821MOL0     H10806  10.522   5.305   4.393  0.6573 -0.7379  1.1204
  821MOL0     H10807  10.223   5.383   4.421 -0.1095  3.9064 -1.1018
  821MOL0     H10808  10.313   5.293   4.296  4.8147 -0.7367 -0.7042
  821MOL0     H10809  10.319   5.599   4.370  2.8911 -0.5806  1.3241
  821MOL0     H10810  10.423   5.530   4.247  0.6272 -1.7562 -0.0272
  821MOL0     H10811  10.132   5.516   4.230  0.6471 -1.0540  2.4238
  821MOL0     H10812  10.260   5.448   4.110  2.6526  0.1264  0.1666
  821MOL0     H10813  10.117   5.681   4.081 -0.7750 -2.3175  1.8980
  821MOL0     H10814  10.264   5.733   4.166  0.6776 -0.0206  1.5996
  821MOL0     H10815  10.350   5.301   5.004  1.4905 -1.1713 -1.6803
  821MOL0     H10816  10.306   5.436   5.209  0.0768  0.7963  1.2884
  821MOL0     H10817  10.602   5.971   5.454  2.3820  2.6029  0.4941
  821MOL0     H10818  10.577   6.048   5.695 -0.0474 -1.2100  0.5331
  821MOL0     H10819   9.009   6.117   6.182  0.5925  0.1211  0.7791
  821MOL0     H10820   9.120   5.935   6.048 -0.8391 -0.7456  1.1583
  821MOL0     H10821   9.621   5.695   6.117 -0.7007  2.9664 -2.5875
  821MOL0     H10822   9.760   5.509   5.990  0.4965 -0.9507 -0.1030
  821MOL0     H10823   9.509   5.173   5.837 -1.0793 -0.0257  2.3760
  821MOL0     H10824   9.629   5.166   5.971 -0.9325  3.6221  0.9147
  821MOL0     H10825   9.706   5.013   5.843 -4.1829 -0.3915 -0.5201
  821MOL0     H10826   9.802   5.158   5.818 -0.2932  0.3346  4.5157
  821MOL0     H10827   9.616   5.197   5.605 -0.1506  0.0526  0.7318
  821MOL0     H10828   9.632   5.015   5.606  3.0036 -0.2249 -3.4551
  821MOL0     H10829   9.785   5.109   5.437  1.1588 -2.0432  0.2044
  821MOL0     H10830   9.841   5.229   5.546  0.7822 -0.2993  1.0595
  821MOL0     H10831  10.086   4.888   5.588  0.6332 -1.2841  0.4272
  821MOL0     H10832   9.392   5.356   5.843  2.5007  0.5520 -2.4856
  821MOL0     H10833   9.199   5.440   5.893 -2.1768 -1.4945  2.9346
  821MOL0     H10834   9.172   5.488   6.055  0.1939 -0.7922  0.5017
  821MOL0     H10835   9.200   5.617   5.928 -3.5993 -0.4239 -2.0356
  822MOL0     O10836   5.374   3.405  11.289 -0.1350 -0.6100  0.1447
  822MOL0     C10837   5.482   3.461  11.313  0.5502 -0.3907 -1.0013
  822MOL0     O10838   5.508   3.592  11.282 -0.0865  0.0869  0.8940
  822MOL0     C10839   5.415   3.688  11.243  0.3298  0.7998  0.0789
  822MOL0     C10840   5.369   3.694  11.108 -1.1369 -0.1711  0.9176
  822MOL0     C10841   5.285   3.797  11.060 -1.5018 -0.4760  0.4829
  822MOL0     C10842   5.239   3.903  11.146  0.0332 -0.2571 -1.0810
  822MOL0     O10843   5.164   4.010  11.108  0.2046  0.9959 -0.8651
  822MOL0     C10844   5.114   4.020  10.972  0.1541  0.6717 -0.1747
  822MOL0     C10845   5.093   4.168  10.964  0.4661 -0.3317  0.8484
  822MOL0     C10846   5.049   4.201  10.829  0.7409  0.0680 -0.1177
  822MOL0     C10847   4.969   4.333  10.820 -0.1840  0.1273 -0.3617
  822MOL0     C10848   4.886   4.320  10.687  0.0330  0.4355  0.2926
  822MOL0     C10849   4.797   4.438  10.659  0.7090 -0.1727 -0.4532
  822MOL0     C10850   4.670   4.443  10.763 -0.7013 -0.0381  0.9912
  822MOL0     C10851   4.571   4.558  10.715 -0.2791  1.3069 -0.9751
  822MOL0     N10852   4.440   4.548  10.782  0.1874 -0.2577 -0.1869
  822MOL0     C10853   4.338   4.644  10.760 -0.2340  0.2330  0.2535
  822MOL0     C10854   4.240   4.612  10.843 -0.0884 -0.6446 -0.2575
  822MOL0     C10855   4.110   4.692  10.847 -0.1269 -0.6093  0.4899
  822MOL0     C10856   4.011   4.637  10.953 -0.0805  0.7357 -0.1822
  822MOL0     C10857   3.918   4.743  11.018  0.3281  0.1889  0.6415
  822MOL0     C10858   3.800   4.761  10.918  0.2251 -0.6329 -0.1236
  822MOL0     O10859   3.743   4.892  10.932 -0.5509 -0.8659  0.1262
  822MOL0     C10860   3.607   4.903  10.972 -0.1818  1.4810  0.8782
  822MOL0     C10861   3.587   5.001  11.062 -0.3923  0.4632 -0.1941
  822MOL0     C10862   3.469   5.042  11.104  1.1817 -0.8291 -0.2762
  822MOL0     C10863   3.356   4.983  11.040 -0.4328 -0.0199  1.5614
  822MOL0     C10864   3.220   5.027  11.068 -0.0232 -0.0443 -0.3042
  822MOL0     O10865   3.124   4.928  11.070  0.5736  0.3150  0.5029
  822MOL0     C10866   2.990   4.968  11.046 -0.3842 -0.0285  0.2352
  822MOL0     C10867   2.898   4.941  11.144 -0.8667  0.8550 -0.8608
  822MOL0     C10868   2.765   4.980  11.132 -0.2044  0.0681 -0.3239
  822MOL0     C10869   2.714   5.036  11.010 -0.1802  0.2420  0.0858
  822MOL0     O10870   2.584   5.063  10.971  0.2462 -0.6406 -0.3893
  822MOL0     C10871   2.485   5.008  11.055  0.0395  0.4176  0.7618
  822MOL0     C10872   2.356   5.019  10.977  0.3013  0.0311 -0.0423
  822MOL0     C10873   2.236   4.998  11.071  0.6343  0.1953 -0.3089
  822MOL0     C10874   2.094   5.024  11.013 -0.6539  0.4437 -0.1978
  822MOL0     C10875   1.984   5.014  11.115 -0.6926 -0.6186 -0.2060
  822MOL0     C10876   1.915   4.878  11.096  0.3497 -0.1207  0.2568
  822MOL0     C10877   1.829   4.846  11.221  0.0443 -0.7031 -0.0711
  822MOL0     C10878   1.739   4.732  11.177  0.2310 -0.1495  0.2532
  822MOL0    Cl10879   1.642   4.688  11.318 -0.1442  0.3247  0.5673
  822MOL0     C10880   2.813   5.072  10.920 -0.7943 -0.0869  0.0592
  822MOL0     C10881   2.943   5.035  10.930 -0.8189 -1.0465  0.3380
  822MOL0     O10882   3.200   5.142  11.056  0.2489 -0.4327 -0.0595
  822MOL0     C10883   3.365   4.890  10.940 -0.1989  1.1734  0.2921
  822MOL0     C10884   3.493   4.841  10.903 -0.2731  0.1224  0.1959
  822MOL0     N10885   4.295   4.523  10.932 -0.0613  0.0445 -0.1316
  822MOL0     N10886   4.408   4.483  10.892  0.3596  0.1615  0.0108
  822MOL0     C10887   5.284   3.888  11.280  0.5174  0.3956 -0.0616
  822MOL0     C10888   5.372   3.781  11.328 -0.1459 -1.2608 -0.2528
  822MOL0     C10889   5.593   3.386  11.368  1.2348 -0.0566 -0.6751
  822MOL0     C10890   5.685   3.461  11.447 -0.0901  0.4169 -0.0144
  822MOL0     C10891   5.788   3.404  11.514  0.1595  0.1619 -0.5392
  822MOL0     C10892   5.808   3.270  11.520  0.2896 -0.3020  0.2356
  822MOL0     O10893   5.910   3.211  11.595 -0.3413  0.2086  0.6022
  822MOL0     C10894   5.945   3.275  11.726  1.0656  0.4925  0.1277
  822MOL0     C10895   6.045   3.192  11.795 -0.3139  0.5311 -0.2296
  822MOL0     C10896   6.017   3.190  11.942  0.0754  0.5197  0.7834
  822MOL0     C10897   6.103   3.088  12.010  0.0562  0.5950  0.0056
  822MOL0     C10898   6.252   3.095  12.015 -0.3189  1.0475 -0.5334
  822MOL0     C10899   6.375   3.108  12.032  0.1585  0.1773 -0.0208
  822MOL0     C10900   5.717   3.186  11.452  0.6342 -1.2817 -0.2254
  822MOL0     C10901   5.611   3.243  11.369  0.1926 -0.2075  0.4631
  822MOL0     C10902   5.520   3.146  11.283 -0.2339 -0.1023 -0.6180
  822MOL0     H10903   5.403   3.614  11.043 -1.4573  1.0795 -0.8572
  822MOL0     H10904   5.260   3.783  10.955  3.4784  3.7720 -1.7567
  822MOL0     H10905   5.185   3.992  10.895 -0.5636  1.6577 -1.2152
  822MOL0     H10906   5.025   3.959  10.949 -0.1556  0.1433  2.1134
  822MOL0     H10907   5.191   4.213  10.984 -0.9001  4.5185 -1.6978
  822MOL0     H10908   5.015   4.195  11.036 -3.4193 -2.3669 -2.2026
  822MOL0     H10909   4.990   4.117  10.792 -3.3925  3.0315 -0.9253
  822MOL0     H10910   5.135   4.212  10.761 -0.4226  1.8421 -1.3923
  822MOL0     H10911   4.899   4.338  10.904 -1.1164  1.0664 -1.1669
  822MOL0     H10912   5.027   4.425  10.834 -1.2027  0.4868  1.8591
  822MOL0     H10913   4.959   4.323  10.604  0.8488  0.0191  0.9775
  822MOL0     H10914   4.841   4.220  10.682  0.6894  0.0081  2.2151
  822MOL0     H10915   4.855   4.527  10.686  3.1579 -1.5373 -0.8531
  822MOL0     H10916   4.754   4.431  10.559 -0.6198  0.4426  0.0487
  822MOL0     H10917   4.703   4.468  10.864  0.1233 -2.0859  1.2675
  822MOL0     H10918   4.615   4.349  10.770  0.0327 -0.3752  2.8659
  822MOL0     H10919   4.619   4.654  10.736  3.4199 -0.3731 -0.9878
  822MOL0     H10920   4.559   4.559  10.607 -1.2724  1.9095 -0.8684
  822MOL0     H10921   4.330   4.716  10.680  4.5945  2.3838  1.3714
  822MOL0     H10922   4.141   4.792  10.877 -0.3416 -0.8294  1.4599
  822MOL0     H10923   4.061   4.681  10.749  2.4923 -3.7508 -0.6539
  822MOL0     H10924   3.946   4.560  10.911  1.5926 -1.6022  1.2555
  822MOL0     H10925   4.056   4.578  11.033  0.9222 -2.4433 -2.8848
  822MOL0     H10926   3.955   4.845  11.035 -0.3205  0.1646  2.4206
  822MOL0     H10927   3.869   4.716  11.112 -2.3344 -0.2599 -0.7608
  822MOL0     H10928   3.715   4.692  10.932  0.9243 -0.9148  4.0572
  822MOL0     H10929   3.820   4.741  10.812 -0.1299 -0.2497 -0.2666
  822MOL0     H10930   3.670   5.051  11.111 -0.4807  1.1400 -0.7124
  822MOL0     H10931   3.460   5.111  11.188  0.9517 -1.8701  0.5882
  822MOL0     H10932   2.931   4.869  11.218  1.4770 -0.5623 -3.1169
  822MOL0     H10933   2.697   4.931  11.201 -0.3336  1.5257  0.6205
  822MOL0     H10934   2.499   4.900  11.057 -2.5009  0.0250  2.0175
  822MOL0     H10935   2.482   5.065  11.148  0.1531  0.9467  0.4456
  822MOL0     H10936   2.358   5.119  10.932 -0.1543 -0.4989 -1.2971
  822MOL0     H10937   2.357   4.957  10.887 -1.4314  0.9843 -0.7871
  822MOL0     H10938   2.248   4.900  11.118  1.1167 -0.2207 -1.2588
  822MOL0     H10939   2.248   5.074  11.148 -1.0861 -1.3195  1.5663
  822MOL0     H10940   2.075   4.960  10.926 -0.1595  0.6766 -0.4905
  822MOL0     H10941   2.100   5.123  10.965  2.1160  1.2316  1.5452
  822MOL0     H10942   1.909   5.093  11.108 -1.5096 -1.3284  0.3090
  822MOL0     H10943   2.029   5.019  11.214  0.2830 -1.3583 -0.5980
  822MOL0     H10944   1.849   4.887  11.009 -0.9707  0.2299  1.2626
  822MOL0     H10945   1.984   4.794  11.081 -2.0710 -2.0096 -0.8357
  822MOL0     H10946   1.774   4.928  11.268 -1.4141 -0.2332 -2.4317
  822MOL0     H10947   1.895   4.816  11.302  0.5651  3.5529  1.3486
  822MOL0     H10948   1.689   4.766  11.086  2.2269 -0.6706 -1.1127
  822MOL0     H10949   1.800   4.650  11.136 -0.1974 -0.6562  0.6242
  822MOL0     H10950   2.807   5.122  10.824  1.7422 -0.4278 -0.3506
  822MOL0     H10951   3.018   5.049  10.853 -2.5474 -0.0069 -1.2376
  822MOL0     H10952   3.275   4.847  10.896  0.3554  0.2217  0.0637
  822MOL0     H10953   3.509   4.749  10.848  0.8963 -0.6820  1.8055
  822MOL0     H10954   5.263   3.965  11.353 -1.6937  0.0465 -0.2824
  822MOL0     H10955   5.389   3.780  11.436 -1.0721  0.2201 -0.0571
  822MOL0     H10956   5.673   3.568  11.448 -1.5761  0.5557 -4.7815
  822MOL0     H10957   5.854   3.460  11.579  3.3470 -1.8289 -1.8360
  822MOL0     H10958   5.844   3.281  11.768  1.2098  0.2564  0.5207
  822MOL0     H10959   5.983   3.377  11.721 -0.6055  1.2003  0.8748
  822MOL0     H10960   6.149   3.225  11.790  0.4550 -1.1044  2.7371
  822MOL0     H10961   6.050   3.091  11.754 -0.3091  0.7413 -0.7598
  822MOL0     H10962   5.910   3.176  11.956 -0.2213  0.1637 -1.4217
  822MOL0     H10963   6.049   3.291  11.969 -0.1740 -0.4771  5.5352
  822MOL0     H10964   6.067   3.077  12.113 -0.9761 -2.6024 -0.5963
  822MOL0     H10965   6.083   2.999  11.950  0.8825  0.7121 -0.4663
  822MOL0     H10966   6.477   3.129  12.057  0.7493  2.5524 -3.6100
  822MOL0     H10967   5.725   3.079  11.465 -1.8462 -1.3441  1.6026
  822MOL0     H10968   5.418   3.144  11.322 -0.3430 -3.4826 -0.7420
  822MOL0     H10969   5.515   3.185  11.181  2.1542  2.5275  0.1632
  822MOL0     H10970   5.567   3.048  11.268 -0.4833 -0.4529  0.8070
  823MOL0     O10971   6.029   9.078   6.888 -0.1889 -0.2321  0.1095
  823MOL0     C10972   5.991   9.019   6.990 -0.1709  0.5993  0.2234
  823MOL0     O10973   6.045   9.029   7.114  0.5356 -0.7974 -0.1827
  823MOL0     C10974   6.154   9.121   7.120  0.0842 -0.1821 -0.3276
  823MOL0     C10975   6.127   9.256   7.159 -0.3825  0.4868  0.1316
  823MOL0     C10976   6.238   9.344   7.188 -0.4140  0.9286 -0.7357
  823MOL0     C10977   6.369   9.297   7.191 -0.2584  0.0089  0.2753
  823MOL0     O10978   6.463   9.392   7.217 -0.3568  0.4899  0.8453
  823MOL0     C10979   6.545   9.420   7.102 -0.3653 -0.5436 -0.9984
  823MOL0     C10980   6.479   9.522   7.013 -0.0155  0.4890  0.3912
  823MOL0     C10981   6.565   9.547   6.885  0.6169  0.3845 -0.3162
  823MOL0     C10982   6.523   9.676   6.811  0.3926 -0.0424 -0.8267
  823MOL0     C10983   6.630   9.722   6.706  0.9400  0.3432 -0.4894
  823MOL0     C10984   6.648   9.606   6.609  0.1136  0.4207  0.6263
  823MOL0     C10985   6.732   9.647   6.494  0.3362 -0.6749  0.0554
  823MOL0     C10986   6.728   9.531   6.391  0.7208  0.7414  0.5588
  823MOL0     N10987   6.828   9.543   6.281  0.6307 -0.4686  0.0096
  823MOL0     C10988   6.960   9.570   6.285 -0.2090 -0.0583  0.0471
  823MOL0     C10989   7.005   9.548   6.165 -0.7814 -0.4682  1.1474
  823MOL0     C10990   7.145   9.551   6.110  0.2042 -0.1801 -0.1162
  823MOL0     C10991   7.144   9.613   5.960  0.2476  0.5191 -0.8726
  823MOL0     C10992   7.288   9.659   5.924 -0.5589  0.4112  0.3009
  823MOL0     C10993   7.278   9.722   5.785  0.9481 -0.7936  0.2820
  823MOL0     O10994   7.386   9.799   5.741 -0.4547  0.4547 -0.4967
  823MOL0     C10995   7.374   9.855   5.617 -0.3888  0.7717  0.1705
  823MOL0     C10996   7.466   9.950   5.581  0.1826 -0.3502 -0.2551
  823MOL0     C10997   7.458  10.014   5.460 -0.1971 -0.0159  0.4067
  823MOL0     C10998   7.350   9.992   5.374 -0.7171  0.1532 -0.2212
  823MOL0     C10999   7.339  10.060   5.244  0.2368  1.0109  1.4153
  823MOL0     O11000   7.208  10.067   5.202  0.4932  0.1942  0.0013
  823MOL0     C11001   7.180  10.159   5.108  0.8391 -0.4155  0.2873
  823MOL0     C11002   7.195  10.129   4.973  0.0725  0.1302 -0.4553
  823MOL0     C11003   7.163  10.223   4.871 -0.2644 -0.7204 -0.3532
  823MOL0     C11004   7.123  10.344   4.901 -0.7695 -0.6904 -0.4514
  823MOL0     O11005   7.086  10.429   4.798 -0.2616  1.0220 -0.3508
  823MOL0     C11006   7.032  10.554   4.819  0.2809  1.2332 -0.6939
  823MOL0     C11007   7.096  10.645   4.719 -0.5302 -0.5912  0.4565
  823MOL0     C11008   7.049  10.629   4.578  0.7792 -0.7794  0.3909
  823MOL0     C11009   7.119  10.725   4.482 -0.4510 -0.0855 -0.1441
  823MOL0     C11010   7.065  10.713   4.339 -0.1899 -0.1770 -0.3363
  823MOL0     C11011   7.158  10.644   4.233 -0.2266  0.4611  0.2400
  823MOL0     C11012   7.064  10.579   4.119  0.1858  0.7461  0.1709
  823MOL0     C11013   7.154  10.525   4.011  0.1032 -0.5974  0.9188
  823MOL0    Cl11014   7.305  10.634   3.961  0.7001 -0.2745  0.4855
  823MOL0     C11015   7.124  10.386   5.045 -0.0136 -0.1366 -0.7173
  823MOL0     C11016   7.131  10.287   5.145  0.6270 -0.2336 -0.5132
  823MOL0     O11017   7.433  10.116   5.195 -0.1762  0.0036  0.7962
  823MOL0     C11018   7.240   9.914   5.418  0.6918  0.7492  0.1520
  823MOL0     C11019   7.258   9.845   5.538  0.8607 -0.0134  0.2483
  823MOL0     N11020   6.896   9.506   6.082 -1.1781  0.3134  0.3454
  823MOL0     N11021   6.788   9.510   6.152  0.0710  0.0962 -0.5500
  823MOL0     C11022   6.387   9.163   7.161 -0.8962  1.3926  0.3247
  823MOL0     C11023   6.282   9.080   7.125 -0.5454  0.6133  0.2629
  823MOL0     C11024   5.880   8.915   6.976  0.1608 -0.0860  0.0673
  823MOL0     C11025   5.830   8.872   6.850 -0.8607  0.0730  0.4116
  823MOL0     C11026   5.744   8.770   6.835  0.3070  1.6247  0.3177
  823MOL0     C11027   5.686   8.693   6.938 -0.1840 -0.1207  0.2358
  823MOL0     O11028   5.616   8.574   6.909  0.2845  0.9180  1.4124
  823MOL0     C11029   5.548   8.506   7.011 -0.2800  0.9145 -0.7859
  823MOL0     C11030   5.393   8.527   6.994 -0.4313  0.3533 -0.3890
  823MOL0     C11031   5.328   8.464   6.872  0.5861  0.0279 -0.4370
  823MOL0     C11032   5.178   8.494   6.879 -0.3285 -0.4998 -0.2343
  823MOL0     C11033   5.122   8.445   6.754 -0.0514 -0.9684  0.2340
  823MOL0     C11034   5.073   8.401   6.649  0.1727 -0.1417 -0.4082
  823MOL0     C11035   5.709   8.755   7.066  0.9885 -0.0525  0.0989
  823MOL0     C11036   5.809   8.859   7.088  0.1131  0.4947  0.4266
  823MOL0     C11037   5.808   8.923   7.227  0.3574  0.5399  1.3191
  823MOL0     H11038   6.021   9.279   7.155 -0.2194  1.2245 -0.1280
  823MOL0     H11039   6.223   9.445   7.224  2.2628  1.2941 -0.4643
  823MOL0     H11040   6.645   9.456   7.126 -0.1170  0.1097 -2.8625
  823MOL0     H11041   6.572   9.329   7.046  3.4069 -0.1014 -0.1696
  823MOL0     H11042   6.471   9.613   7.072 -0.8968 -0.9111  2.5840
  823MOL0     H11043   6.377   9.498   6.981  0.2573  1.2092 -1.0821
  823MOL0     H11044   6.576   9.458   6.823  1.6636 -2.2022  3.2250
  823MOL0     H11045   6.663   9.556   6.932  0.8136 -1.5803 -0.2886
  823MOL0     H11046   6.426   9.666   6.762  0.7245  0.7129 -1.6665
  823MOL0     H11047   6.503   9.752   6.887 -3.3593 -2.0517  0.4625
  823MOL0     H11048   6.602   9.812   6.650  1.4512 -0.0363 -1.3734
  823MOL0     H11049   6.723   9.741   6.760  1.1538  0.9845 -1.0557
  823MOL0     H11050   6.696   9.518   6.653  1.2675  1.9149  2.5524
  823MOL0     H11051   6.548   9.588   6.569 -0.6020 -0.1315  2.5604
  823MOL0     H11052   6.832   9.672   6.531  0.2422  0.6512 -0.5150
  823MOL0     H11053   6.695   9.739   6.448 -0.0376 -0.2812  1.1325
  823MOL0     H11054   6.741   9.432   6.435  0.5885  0.6796  0.4578
  823MOL0     H11055   6.624   9.532   6.357 -0.0839  0.3781  2.7952
  823MOL0     H11056   7.025   9.599   6.367  1.0977  0.8371 -1.2548
  823MOL0     H11057   7.203   9.601   6.188 -1.0702  1.3100 -0.0833
  823MOL0     H11058   7.192   9.453   6.103  1.4375  0.2664  1.3213
  823MOL0     H11059   7.100   9.553   5.880 -0.3933  0.6014 -0.5843
  823MOL0     H11060   7.086   9.705   5.970 -0.6392 -0.1975  0.9646
  823MOL0     H11061   7.358   9.575   5.926 -0.3449  0.5991  1.8814
  823MOL0     H11062   7.316   9.733   5.999 -0.2190  1.3817 -0.7472
  823MOL0     H11063   7.188   9.785   5.789  1.0845 -0.5898  0.1532
  823MOL0     H11064   7.260   9.644   5.710 -1.5601 -1.1625  1.1718
  823MOL0     H11065   7.550   9.984   5.641  0.9532 -1.4036 -0.7091
  823MOL0     H11066   7.529  10.093   5.438 -2.7932  1.6770 -2.6808
  823MOL0     H11067   7.232  10.031   4.942  1.9809  0.7240 -0.1594
  823MOL0     H11068   7.191  10.198   4.769  1.9859 -1.8060  0.4570
  823MOL0     H11069   6.925  10.553   4.797  0.7556  1.3508 -3.3528
  823MOL0     H11070   7.035  10.584   4.924  0.4715 -2.2071  0.4070
  823MOL0     H11071   7.086  10.751   4.743  1.5329  0.6679 -3.4176
  823MOL0     H11072   7.203  10.633   4.704 -0.2925  3.1601 -1.8647
  823MOL0     H11073   7.066  10.529   4.539 -0.5065 -0.6637 -0.5262
  823MOL0     H11074   6.940  10.644   4.575  0.9395  0.8577  1.3444
  823MOL0     H11075   7.225  10.701   4.486 -0.4042 -0.1865 -1.5139
  823MOL0     H11076   7.104  10.823   4.528  1.1062 -1.0180  2.5554
  823MOL0     H11077   7.031  10.811   4.304 -4.2889 -1.6570 -1.1171
  823MOL0     H11078   6.974  10.653   4.353 -1.5114  1.7015 -0.4956
  823MOL0     H11079   7.218  10.723   4.186  1.0354 -0.4463  0.2997
  823MOL0     H11080   7.229  10.571   4.272  1.2300  0.1110 -2.8228
  823MOL0     H11081   6.990  10.652   4.086 -2.2335 -1.0627  1.2981
  823MOL0     H11082   7.009  10.495   4.163 -0.3546  0.9374 -0.1302
  823MOL0     H11083   7.195  10.430   4.045 -0.2627 -1.1742 -0.1869
  823MOL0     H11084   7.088  10.515   3.924  2.6472  1.4996 -1.4703
  823MOL0     H11085   7.099  10.487   5.078 -0.4224 -0.9192  1.5345
  823MOL0     H11086   7.119  10.312   5.250 -0.3871 -2.8991  0.0848
  823MOL0     H11087   7.151   9.893   5.360 -0.9464  3.4720  1.4894
  823MOL0     H11088   7.169   9.795   5.574  0.2381  0.6319 -0.3653
  823MOL0     H11089   6.486   9.120   7.146 -1.5065  0.7836 -2.4466
  823MOL0     H11090   6.312   8.976   7.111 -0.7733  0.2945  1.8873
  823MOL0     H11091   5.874   8.917   6.762 -2.1076  1.7990  0.6425
  823MOL0     H11092   5.713   8.725   6.741 -0.3137  2.9017 -0.1117
  823MOL0     H11093   5.594   8.527   7.108  0.7776 -0.1428 -1.0284
  823MOL0     H11094   5.559   8.397   7.006 -0.5173  0.9428 -2.4695
  823MOL0     H11095   5.361   8.632   6.995 -1.0252  0.1720  0.0425
  823MOL0     H11096   5.350   8.483   7.084 -1.2672  1.7061 -0.0932
  823MOL0     H11097   5.339   8.358   6.847 -0.5051  0.7059 -4.6912
  823MOL0     H11098   5.368   8.504   6.778  0.9255 -1.0608 -0.7781
  823MOL0     H11099   5.137   8.450   6.970  1.0954  2.3696  1.9653
  823MOL0     H11100   5.153   8.601   6.875  1.7484  0.1910  2.6489
  823MOL0     H11101   5.043   8.364   6.553 -2.4462 -0.0444  0.3092
  823MOL0     H11102   5.667   8.714   7.157  0.3221 -2.7940 -1.3422
  823MOL0     H11103   5.900   8.899   7.282  1.2672  2.5889  0.7919
  823MOL0     H11104   5.796   9.031   7.211  3.9569  0.9822  0.7102
  823MOL0     H11105   5.723   8.893   7.288  0.2976 -0.1086  0.9259
  824MOL0     O11106  10.657   7.101   0.305 -0.0124  0.0598 -0.0994
  824MOL0     C11107  10.570   7.027   0.347  1.1126 -0.1674  0.0495
  824MOL0     O11108  10.483   7.053   0.446  0.3489 -0.2267 -0.7663
  824MOL0     C11109  10.499   7.158   0.520  0.6219  0.0258  0.5794
  824MOL0     C11110  10.552   7.151   0.651 -0.6452  0.8785  1.3343
  824MOL0     C11111  10.575   7.274   0.716 -0.4047 -0.0208 -0.0868
  824MOL0     C11112  10.528   7.401   0.666 -1.1640 -0.2288  0.9558
  824MOL0     O11113  10.554   7.521   0.722  0.1096  0.0916 -0.3698
  824MOL0     C11114  10.572   7.538   0.865  0.0881  0.1934  0.8519
  824MOL0     C11115  10.474   7.644   0.921 -0.0577 -0.1941 -0.4792
  824MOL0     C11116  10.470   7.775   0.830  0.2018 -0.0837 -0.6562
  824MOL0     C11117  10.593   7.854   0.845  0.0838  0.3909  0.4904
  824MOL0     C11118  10.640   7.928   0.717  0.1721 -0.4624 -0.3907
  824MOL0     C11119  10.772   8.001   0.729  0.5396 -0.0230 -0.1561
  824MOL0     C11120  10.745   8.137   0.795 -0.1166 -0.1655 -0.2195
  824MOL0     C11121  10.875   8.205   0.841  0.1701  0.3700 -0.0282
  824MOL0     N11122  10.872   8.318   0.927 -0.3778  0.1013 -0.6588
  824MOL0     C11123  10.964   8.365   1.012 -0.0770  0.4835  0.0908
  824MOL0     C11124  10.935   8.493   1.041 -1.1171  0.6631 -0.3376
  824MOL0     C11125  11.021   8.594   1.119  0.7139  0.6016 -0.4566
  824MOL0     C11126  11.047   8.723   1.035 -0.7204 -0.2830 -0.2394
  824MOL0     C11127  10.933   8.818   1.017  0.8687  0.7703  0.6007
  824MOL0     C11128  10.898   8.912   1.135  0.9309  0.3281  0.3098
  824MOL0     O11129  10.762   8.965   1.130 -0.6875  0.2395  0.7285
  824MOL0     C11130  10.761   9.092   1.186  0.1078  0.2396 -0.0888
  824MOL0     C11131  10.680   9.119   1.293 -0.4897  0.2570 -0.7494
  824MOL0     C11132  10.667   9.252   1.341 -0.0898 -0.1177  0.4135
  824MOL0     C11133  10.726   9.365   1.274  0.4292 -0.7614  0.4400
  824MOL0     C11134  10.727   9.499   1.333  0.5718 -0.1158  0.0939
  824MOL0     O11135  10.670   9.516   1.463 -0.1078 -0.2082  0.5152
  824MOL0     C11136  10.672   9.633   1.524  0.4838  0.1463  0.8196
  824MOL0     C11137  10.667   9.763   1.480 -0.5559  0.6306 -1.5802
  824MOL0     C11138  10.662   9.869   1.573 -0.5160  0.8359  0.1931
  824MOL0     C11139  10.657   9.847   1.713  0.4932 -0.1216  0.5429
  824MOL0     O11140  10.670   9.941   1.817  0.1992  0.2362  0.7362
  824MOL0     C11141  10.623  10.068   1.775 -0.1309 -0.2549 -0.2895
  824MOL0     C11142  10.745  10.161   1.752  0.2762 -0.4442 -1.0684
  824MOL0     C11143  10.814  10.218   1.876  0.4940  0.1555  0.4808
  824MOL0     C11144  10.728  10.318   1.964  1.2641  0.0616  0.0480
  824MOL0     C11145  10.632  10.399   1.890 -0.6895 -0.0476 -0.6816
  824MOL0     C11146  10.536  10.482   1.985 -0.5509  0.7900 -0.0297
  824MOL0     C11147  10.400  10.523   1.913  0.3646 -0.0607  0.7051
  824MOL0     C11148  10.279  10.539   2.006 -0.9848 -0.3308 -0.1554
  824MOL0    Cl11149  10.149  10.605   1.901 -0.0158  0.0480  0.1642
  824MOL0     C11150  10.643   9.720   1.754  0.8371  0.6934 -0.6460
  824MOL0     C11151  10.657   9.612   1.658  0.4957 -0.2208 -0.3291
  824MOL0     O11152  10.798   9.580   1.278 -0.7515 -0.6654 -0.0792
  824MOL0     C11153  10.804   9.330   1.164  0.2025  0.0389  0.8313
  824MOL0     C11154  10.826   9.195   1.128 -0.7165  0.3642  0.2579
  824MOL0     N11155  10.816   8.521   0.974 -0.1131 -0.4910  0.3792
  824MOL0     N11156  10.771   8.411   0.917 -0.1006 -0.6253  0.4513
  824MOL0     C11157  10.467   7.400   0.538  0.1298  0.1828 -0.3689
  824MOL0     C11158  10.459   7.282   0.463  0.4716  1.4953 -0.2864
  824MOL0     C11159  10.547   6.908   0.268  0.2968  0.0339  0.0881
  824MOL0     C11160  10.426   6.836   0.282 -0.0987 -0.5805 -0.3175
  824MOL0     C11161  10.391   6.728   0.206 -0.2238  0.0678  1.0696
  824MOL0     C11162  10.477   6.686   0.103  0.2774 -0.0051  0.1384
  824MOL0     O11163  10.427   6.596   0.016 -0.1609  0.6584 -0.0525
  824MOL0     C11164  10.506   6.490  -0.053 -0.5277  0.8328 -0.2030
  824MOL0     C11165  10.555   6.380   0.035 -0.2647  0.4580 -1.2754
  824MOL0     C11166  10.437   6.304   0.103  0.7448 -0.1688  0.4118
  824MOL0     C11167  10.411   6.184   0.009 -1.1290 -0.2343  0.5452
  824MOL0     C11168  10.319   6.087   0.067  0.9117  0.5500 -0.4116
  824MOL0     C11169  10.234   6.002   0.113 -0.7106 -0.4610  0.5303
  824MOL0     C11170  10.608   6.734   0.103 -0.0877 -0.8954  0.4824
  824MOL0     C11171  10.642   6.842   0.178 -0.0357 -0.3872  0.3623
  824MOL0     C11172  10.782   6.890   0.151  1.2791 -0.6586 -0.0311
  824MOL0     H11173  10.584   7.051   0.679  1.6581  0.4990 -2.0775
  824MOL0     H11174  10.622   7.270   0.814  1.4444  0.5159 -0.9009
  824MOL0     H11175  10.559   7.440   0.912 -2.5423  0.3896  0.7158
  824MOL0     H11176  10.675   7.572   0.875  0.5543 -1.5936  2.7888
  824MOL0     H11177  10.499   7.666   1.026  0.1833  1.1833 -0.8012
  824MOL0     H11178  10.370   7.616   0.908  0.1828 -0.2184 -2.6929
  824MOL0     H11179  10.381   7.833   0.857  2.2541  3.8877 -1.6376
  824MOL0     H11180  10.447   7.752   0.725 -0.2878  1.4463 -0.9028
  824MOL0     H11181  10.576   7.910   0.937 -1.4046 -2.3143  2.0112
  824MOL0     H11182  10.679   7.795   0.879  0.0981  0.9592  1.4658
  824MOL0     H11183  10.653   7.858   0.634 -1.2520  0.2873 -1.2980
  824MOL0     H11184  10.561   7.998   0.687  0.4349 -0.2610 -0.6079
  824MOL0     H11185  10.828   7.941   0.802 -3.2697 -0.9564  2.2960
  824MOL0     H11186  10.826   8.009   0.634  0.4092  1.1490 -0.1490
  824MOL0     H11187  10.677   8.119   0.878  0.1962 -0.2480  0.0197
  824MOL0     H11188  10.703   8.213   0.728 -1.0941 -1.3473 -0.9930
  824MOL0     H11189  10.938   8.127   0.886 -1.1801 -0.0510  1.2121
  824MOL0     H11190  10.945   8.237   0.764  1.3746 -0.6412  0.5930
  824MOL0     H11191  11.058   8.319   1.040 -0.7559 -1.9889 -1.3604
  824MOL0     H11192  10.968   8.631   1.207  1.5467  3.0671 -0.9225
  824MOL0     H11193  11.118   8.547   1.141  0.6695  1.1042  0.8892
  824MOL0     H11194  11.127   8.781   1.082 -0.1758 -1.8931  0.9224
  824MOL0     H11195  11.083   8.678   0.941 -3.3072  1.6898 -2.3382
  824MOL0     H11196  10.841   8.769   0.984  3.3445 -2.7090 -1.8455
  824MOL0     H11197  10.953   8.864   0.920  0.8389 -0.4324 -0.0064
  824MOL0     H11198  10.971   8.993   1.125  1.4034 -0.1538 -0.2821
  824MOL0     H11199  10.920   8.862   1.229  0.8572 -0.0362  0.1349
  824MOL0     H11200  10.610   9.046   1.331  1.6802 -0.5113  2.0716
  824MOL0     H11201  10.612   9.260   1.434  1.4973  0.8224  1.2993
  824MOL0     H11202  10.677   9.780   1.373 -0.3827  2.3436 -1.3177
  824MOL0     H11203  10.680   9.972   1.545 -1.8245  1.5803  1.9313
  824MOL0     H11204  10.542  10.066   1.702 -1.7151  2.4022  1.2267
  824MOL0     H11205  10.570  10.114   1.859  0.0413  1.0193 -0.8622
  824MOL0     H11206  10.823  10.110   1.695  0.3885  1.2481 -2.5410
  824MOL0     H11207  10.718  10.250   1.694 -1.6714  0.2906  0.8519
  824MOL0     H11208  10.821  10.128   1.937  0.5445  0.4870  0.9716
  824MOL0     H11209  10.916  10.252   1.858  0.1181  0.4631 -1.2649
  824MOL0     H11210  10.796  10.387   2.014  2.5291  0.3379 -1.9259
  824MOL0     H11211  10.679  10.265   2.046  1.5302  3.2748  2.4838
  824MOL0     H11212  10.570  10.349   1.815 -3.7482  0.8809  1.0649
  824MOL0     H11213  10.687  10.477   1.835 -3.4141  0.7389 -2.5161
  824MOL0     H11214  10.513  10.408   2.062  0.2396  0.5326 -0.0314
  824MOL0     H11215  10.583  10.570   2.031  3.4615 -0.6119 -1.0620
  824MOL0     H11216  10.377  10.442   1.843  1.0819  1.0695 -0.8932
  824MOL0     H11217  10.409  10.623   1.869  1.1302  0.5997  2.2695
  824MOL0     H11218  10.241  10.440   2.033 -0.0053 -1.7883 -3.6286
  824MOL0     H11219  10.303  10.597   2.096 -0.9152 -1.3891  0.5335
  824MOL0     H11220  10.622   9.697   1.858  2.2980 -1.0975 -0.6911
  824MOL0     H11221  10.652   9.509   1.690 -0.7527  0.9232  3.7636
  824MOL0     H11222  10.863   9.411   1.123  3.5764 -2.3344  0.5986
  824MOL0     H11223  10.869   9.166   1.032  0.9466  2.7575  0.1919
  824MOL0     H11224  10.432   7.491   0.491 -0.2751 -0.5454 -1.5017
  824MOL0     H11225  10.416   7.299   0.364  2.0952 -0.6898 -1.4620
  824MOL0     H11226  10.346   6.874   0.345 -0.3327  0.1791 -1.0539
  824MOL0     H11227  10.287   6.701   0.191 -0.5393  1.1957  1.1379
  824MOL0     H11228  10.590   6.534  -0.107 -0.1401  1.2213  0.6921
  824MOL0     H11229  10.450   6.434  -0.128  0.7786  0.6050 -1.0343
  824MOL0     H11230  10.619   6.435   0.105  1.7215 -3.3709  0.2015
  824MOL0     H11231  10.625   6.321  -0.024 -0.4538  0.3440 -1.3864
  824MOL0     H11232  10.345   6.364   0.110 -0.1177 -1.5719  1.5212
  824MOL0     H11233  10.471   6.278   0.203  3.7156  1.3972 -0.0588
  824MOL0     H11234  10.376   6.216  -0.089 -0.8188 -2.0012 -0.1895
  824MOL0     H11235  10.507   6.132  -0.004  0.1106  2.0610  0.0629
  824MOL0     H11236  10.172   5.923   0.151  0.1427 -0.8930  1.0577
  824MOL0     H11237  10.677   6.692   0.031 -0.8792 -0.8904 -0.3062
  824MOL0     H11238  10.837   6.844   0.233  0.8752  1.4975  1.5292
  824MOL0     H11239  10.812   6.859   0.050 -1.5254 -0.7941 -0.9414
  824MOL0     H11240  10.789   7.000   0.150 -2.5931 -0.2424  1.2687
  825MOL0     O11241   5.379   1.262   4.833 -0.0252 -0.1941 -0.9127
  825MOL0     C11242   5.432   1.235   4.939 -0.2822 -0.2004  0.0414
  825MOL0     O11243   5.383   1.285   5.062 -0.1223 -0.2434 -0.2601
  825MOL0     C11244   5.252   1.329   5.044 -0.4559 -0.0127 -0.6681
  825MOL0     C11245   5.238   1.461   5.054 -0.6571 -0.2197  0.0463
  825MOL0     C11246   5.119   1.528   5.027  0.9785 -0.1901 -0.2334
  825MOL0     C11247   5.001   1.451   4.997  0.9174  0.1638 -0.4391
  825MOL0     O11248   4.868   1.499   4.966 -0.0380 -0.2609  0.5130
  825MOL0     C11249   4.823   1.636   4.967 -0.2428  0.1903 -0.9410
  825MOL0     C11250   4.760   1.664   5.093 -0.2217 -0.1477 -0.5898
  825MOL0     C11251   4.759   1.822   5.117 -0.5846 -0.5054 -0.1143
  825MOL0     C11252   4.687   1.890   4.992  0.2742  0.1189 -0.2075
  825MOL0     C11253   4.690   2.038   4.994  0.8692  0.1056 -0.1983
  825MOL0     C11254   4.829   2.099   4.963  0.4091 -1.4663  0.0926
  825MOL0     C11255   4.845   2.244   5.000 -0.6318  0.6680 -0.5087
  825MOL0     C11256   4.843   2.276   5.151  0.6526 -0.5347 -0.0129
  825MOL0     N11257   4.919   2.186   5.236  0.4842 -0.3929 -0.2184
  825MOL0     C11258   4.867   2.065   5.285  0.1101 -0.2506  0.7621
  825MOL0     C11259   4.959   2.021   5.373 -0.9619 -0.3444 -0.7140
  825MOL0     C11260   4.955   1.890   5.453  0.6316 -0.2500  0.1745
  825MOL0     C11261   5.033   1.776   5.385  0.7869  0.3864 -0.0638
  825MOL0     C11262   5.039   1.653   5.476 -0.1658  0.7142 -0.5267
  825MOL0     C11263   5.123   1.542   5.415 -0.4461  0.6411 -0.8041
  825MOL0     O11264   5.255   1.598   5.387 -0.3561  0.4907 -0.8133
  825MOL0     C11265   5.371   1.518   5.392  0.6941 -0.2903  0.0342
  825MOL0     C11266   5.388   1.407   5.466  0.0426 -0.3243  0.1795
  825MOL0     C11267   5.508   1.335   5.460  0.1139 -0.6330 -0.3520
  825MOL0     C11268   5.619   1.378   5.378 -0.3748  0.4736  0.5123
  825MOL0     C11269   5.744   1.312   5.378 -0.3713  0.7646  0.6530
  825MOL0     O11270   5.768   1.211   5.471 -0.0970 -0.8483  0.7572
  825MOL0     C11271   5.876   1.134   5.456 -0.2419  0.9044 -0.3369
  825MOL0     C11272   5.863   0.994   5.461 -0.6732  1.3924 -0.0982
  825MOL0     C11273   5.980   0.917   5.443  0.8099  0.6097  0.8912
  825MOL0     C11274   6.105   0.960   5.416 -0.1476 -0.1010  0.2379
  825MOL0     O11275   6.206   0.873   5.380 -0.0115  1.3351 -1.1034
  825MOL0     C11276   6.328   0.922   5.324 -0.4163 -0.3918  0.0750
  825MOL0     C11277   6.418   0.810   5.276  0.5750 -1.2174  2.0232
  825MOL0     C11278   6.442   0.704   5.387 -0.6376 -0.0520  0.2314
  825MOL0     C11279   6.568   0.616   5.355  0.3597  0.3072 -0.8160
  825MOL0     C11280   6.594   0.509   5.460 -0.1477  0.0775  0.2141
  825MOL0     C11281   6.649   0.555   5.595 -0.1478  0.3011  0.2035
  825MOL0     C11282   6.799   0.572   5.574 -0.3817  0.1924 -0.4983
  825MOL0     C11283   6.862   0.613   5.700 -0.3756  0.0575  0.7740
  825MOL0    Cl11284   7.037   0.635   5.667  0.6913  0.2391 -0.0690
  825MOL0     C11285   6.122   1.098   5.425  0.6904 -0.1109  0.5810
  825MOL0     C11286   5.999   1.181   5.454 -0.5118  0.2346 -0.0462
  825MOL0     O11287   5.832   1.354   5.290  0.4234 -0.0355 -0.2319
  825MOL0     C11288   5.597   1.498   5.303 -0.6063 -0.5948 -0.8512
  825MOL0     C11289   5.477   1.565   5.308  1.3527  0.4562 -0.7179
  825MOL0     N11290   5.056   2.123   5.377 -0.1033  1.0395  0.4868
  825MOL0     N11291   5.035   2.211   5.292  0.0219 -0.5594  0.0692
  825MOL0     C11292   5.011   1.315   5.021 -1.3751  0.4163  0.7773
  825MOL0     C11293   5.140   1.257   5.042  0.2066 -0.0090  0.1792
  825MOL0     C11294   5.557   1.154   4.945 -0.3942  0.3234 -0.6241
  825MOL0     C11295   5.635   1.169   5.059  0.3938 -0.1078 -0.5958
  825MOL0     C11296   5.762   1.093   5.063  0.6240 -0.3431  0.6380
  825MOL0     C11297   5.800   1.013   4.953  0.1179  0.0946  0.6925
  825MOL0     O11298   5.933   0.965   4.950 -0.2329 -0.1684  0.4826
  825MOL0     C11299   5.964   0.905   5.071 -0.1770 -0.3873  0.5683
  825MOL0     C11300   6.075   0.803   5.059  0.5955 -0.7416  0.1770
  825MOL0     C11301   6.056   0.687   4.971  1.4170 -0.5325 -0.4277
  825MOL0     C11302   5.965   0.562   5.017 -0.0040 -0.4026 -0.5111
  825MOL0     C11303   5.970   0.541   5.159  0.1427  0.0776 -0.4796
  825MOL0     C11304   5.982   0.535   5.281  0.4928  0.4021  0.4409
  825MOL0     C11305   5.719   1.005   4.844 -0.5186 -1.1187 -0.7884
  825MOL0     C11306   5.597   1.065   4.837 -0.4073 -0.8467  0.6097
  825MOL0     C11307   5.517   1.036   4.714 -1.0067  0.6149  0.4067
  825MOL0     H11308   5.327   1.518   5.079 -1.0529 -0.9024  3.5200
  825MOL0     H11309   5.120   1.636   5.024  1.2198 -0.2139 -1.7358
  825MOL0     H11310   4.910   1.700   4.958  0.3815 -0.1064  1.9593
  825MOL0     H11311   4.741   1.641   4.895 -1.9724  0.6747  0.9680
  825MOL0     H11312   4.813   1.628   5.182  1.8821 -3.4009 -2.9315
  825MOL0     H11313   4.656   1.630   5.098 -0.1466 -1.3130 -4.1585
  825MOL0     H11314   4.861   1.861   5.112 -0.1318 -1.7291 -0.8692
  825MOL0     H11315   4.700   1.839   5.208 -0.3609 -2.5104  0.4477
  825MOL0     H11316   4.728   1.856   4.897  0.3627 -0.0490 -0.1094
  825MOL0     H11317   4.583   1.856   4.997  0.2573  0.1138 -0.5679
  825MOL0     H11318   4.610   2.065   4.924 -1.4396  0.7466  2.4804
  825MOL0     H11319   4.652   2.077   5.089  3.6326 -0.6988  1.3343
  825MOL0     H11320   4.907   2.054   5.026  0.0530 -0.2808  1.4540
  825MOL0     H11321   4.862   2.076   4.861 -0.5741  4.1707 -1.8450
  825MOL0     H11322   4.763   2.303   4.958 -0.9717  0.7091  0.2011
  825MOL0     H11323   4.933   2.271   4.941 -4.0509  0.5144 -6.5261
  825MOL0     H11324   4.881   2.378   5.162 -1.0916  0.2703 -0.9536
  825MOL0     H11325   4.736   2.279   5.176 -0.1342 -1.6017 -2.9170
  825MOL0     H11326   4.767   2.024   5.273  0.4144 -1.3013  1.6288
  825MOL0     H11327   4.987   1.912   5.555 -2.0208 -0.5462  1.1536
  825MOL0     H11328   4.855   1.846   5.467  0.5044 -0.3360 -0.9291
  825MOL0     H11329   4.988   1.743   5.290  3.0698 -2.8050 -0.1814
  825MOL0     H11330   5.132   1.820   5.374  0.0805  1.6686 -1.7575
  825MOL0     H11331   4.940   1.616   5.505 -0.5355  0.6779 -1.7564
  825MOL0     H11332   5.085   1.678   5.572  1.6772 -1.9474 -0.5844
  825MOL0     H11333   5.067   1.511   5.327  2.1085 -0.5109 -2.1283
  825MOL0     H11334   5.127   1.453   5.477 -0.0102  1.9039  1.0847
  825MOL0     H11335   5.303   1.364   5.518 -1.0870  1.3216 -0.2260
  825MOL0     H11336   5.511   1.240   5.513  1.0206 -1.2356 -1.4337
  825MOL0     H11337   5.767   0.944   5.462  0.3977 -0.7376  0.8747
  825MOL0     H11338   5.970   0.810   5.434  2.3803  0.5950 -2.0152
  825MOL0     H11339   6.299   0.988   5.242 -0.9873  0.4364  0.9280
  825MOL0     H11340   6.393   0.976   5.394  3.9900 -2.0948 -2.2876
  825MOL0     H11341   6.378   0.769   5.183  1.9534 -0.9662  1.2903
  825MOL0     H11342   6.514   0.853   5.247 -0.9257  0.4940 -0.8598
  825MOL0     H11343   6.446   0.759   5.481  1.8421 -4.0858  2.7824
  825MOL0     H11344   6.349   0.646   5.386 -0.4213 -0.5214 -2.5479
  825MOL0     H11345   6.660   0.674   5.339 -1.0251  2.3336 -2.0168
  825MOL0     H11346   6.552   0.562   5.261  2.0636 -0.7596 -0.5351
  825MOL0     H11347   6.655   0.433   5.410 -0.0106  0.4257 -0.1594
  825MOL0     H11348   6.506   0.449   5.486  1.1761  0.0984  6.0423
  825MOL0     H11349   6.605   0.644   5.640 -0.7693 -0.6706  1.5851
  825MOL0     H11350   6.649   0.480   5.675  1.3917  0.7076  0.6149
  825MOL0     H11351   6.813   0.647   5.495 -3.2181  0.3727 -0.9358
  825MOL0     H11352   6.840   0.475   5.545  1.4144  0.8351 -0.2274
  825MOL0     H11353   6.816   0.701   5.744 -1.4540 -0.1805  0.1609
  825MOL0     H11354   6.844   0.533   5.773 -0.5064 -0.7373 -0.1032
  825MOL0     H11355   6.219   1.146   5.423  1.7648 -2.1768  0.1875
  825MOL0     H11356   6.013   1.288   5.458  0.2692  0.1798 -0.9499
  825MOL0     H11357   5.680   1.540   5.249 -0.0463 -0.7001 -0.0887
  825MOL0     H11358   5.463   1.661   5.259  0.7046 -0.3713 -2.2229
  825MOL0     H11359   4.921   1.257   5.008 -0.3519 -0.8244 -1.3539
  825MOL0     H11360   5.149   1.150   5.059  0.5670  0.4394  3.6648
  825MOL0     H11361   5.616   1.234   5.144  2.4228  0.1589 -0.3002
  825MOL0     H11362   5.820   1.117   5.152 -0.8771  0.7399  1.3748
  825MOL0     H11363   5.873   0.856   5.106 -1.2516 -1.6474 -3.4689
  825MOL0     H11364   5.994   0.987   5.137  2.2053 -0.5101 -0.2519
  825MOL0     H11365   6.097   0.774   5.162 -0.9306 -1.1039  0.4147
  825MOL0     H11366   6.143   0.867   5.003 -2.2600  3.1655  0.7419
  825MOL0     H11367   6.159   0.653   4.960  1.7610 -0.2544  1.5422
  825MOL0     H11368   6.019   0.717   4.872 -0.2583 -1.6235 -0.1830
  825MOL0     H11369   5.860   0.571   4.986  0.4038 -0.3419 -1.9575
  825MOL0     H11370   5.993   0.472   4.961 -1.5623 -0.4721 -1.2402
  825MOL0     H11371   5.975   0.542   5.388 -3.2959  1.0210  0.2673
  825MOL0     H11372   5.757   0.945   4.762  2.7033 -0.7194  0.2616
  825MOL0     H11373   5.493   1.115   4.642 -1.9165 -0.2648 -0.2930
  825MOL0     H11374   5.578   0.974   4.648  1.7472  2.0756  1.4265
  825MOL0     H11375   5.429   0.980   4.746  0.5009 -1.4653  1.1432
  826MOL0     O11376   9.823   8.655   8.170  0.7599  0.0966  0.5070
  826MOL0     C11377   9.801   8.553   8.097  0.1520  0.1076  0.3067
  826MOL0     O11378   9.799   8.424   8.140 -0.2537  0.0734  0.1102
  826MOL0     C11379   9.839   8.388   8.270  0.1417 -0.3228 -0.5170
  826MOL0     C11380   9.755   8.424   8.380 -0.5465 -0.3149 -0.2570
  826MOL0     C11381   9.802   8.393   8.503  0.0326  0.6984  0.7537
  826MOL0     C11382   9.919   8.307   8.520 -0.6270  0.7032  0.0085
  826MOL0     O11383   9.985   8.270   8.642 -0.0434  0.4708 -0.0181
  826MOL0     C11384   9.983   8.377   8.735  0.2608  0.1537  0.6738
  826MOL0     C11385  10.052   8.510   8.699  1.2119  0.5339  0.2769
  826MOL0     C11386  10.061   8.591   8.828 -0.3257 -0.7293  0.0533
  826MOL0     C11387   9.939   8.689   8.840  0.6405  0.1867 -0.6554
  826MOL0     C11388   9.948   8.799   8.951  0.4362 -0.8208 -0.8804
  826MOL0     C11389   9.972   8.765   9.090 -1.4775  0.5779 -1.0335
  826MOL0     C11390   9.957   8.876   9.198 -0.3582 -0.5055 -0.3484
  826MOL0     C11391   9.989   8.815   9.332 -0.1077 -0.5537  0.3187
  826MOL0     N11392   9.983   8.913   9.435  0.4150  1.3635 -0.1501
  826MOL0     C11393  10.053   9.028   9.422 -0.4401 -1.0492  0.2938
  826MOL0     C11394  10.040   9.097   9.540 -0.5584 -0.0150 -0.3504
  826MOL0     C11395  10.104   9.230   9.575 -0.1474  0.9143 -0.0079
  826MOL0     C11396  10.013   9.348   9.568  0.3846  0.5369  0.6706
  826MOL0     C11397   9.916   9.365   9.691  1.0578  0.1441 -0.3997
  826MOL0     C11398   9.796   9.459   9.653 -0.0905 -1.4233 -0.6282
  826MOL0     O11399   9.742   9.521   9.776  0.5771  0.3510  0.6645
  826MOL0     C11400   9.614   9.568   9.767 -0.0531  0.1682  0.0069
  826MOL0     C11401   9.548   9.564   9.884 -0.5651 -0.0517  0.1432
  826MOL0     C11402   9.419   9.613   9.895 -0.0783  0.2706 -0.8512
  826MOL0     C11403   9.358   9.669   9.781  0.5358  1.7197 -0.5550
  826MOL0     C11404   9.230   9.732   9.793  0.5275 -0.5219 -0.3142
  826MOL0     O11405   9.145   9.737   9.685 -0.4351 -0.7933 -0.2859
  826MOL0     C11406   9.017   9.782   9.699 -0.0656 -0.6607 -0.8815
  826MOL0     C11407   8.917   9.717   9.635  0.3795 -0.3798  0.2302
  826MOL0     C11408   8.783   9.743   9.643 -0.3596  0.7975 -1.2035
  826MOL0     C11409   8.740   9.858   9.712 -0.5439 -0.7360 -0.6331
  826MOL0     O11410   8.608   9.894   9.728  0.8633  0.3977 -0.7625
  826MOL0     C11411   8.510   9.863   9.625  0.1941 -0.9786  0.1167
  826MOL0     C11412   8.524   9.990   9.537 -0.4243  0.5714 -0.6784
  826MOL0     C11413   8.406   9.997   9.445 -0.6171  0.7930 -0.4182
  826MOL0     C11414   8.408  10.129   9.370 -0.7069 -0.8423 -0.0710
  826MOL0     C11415   8.334  10.123   9.230  0.5721 -0.9504  0.5276
  826MOL0     C11416   8.425  10.062   9.135 -0.8741  0.0369  0.7723
  826MOL0     C11417   8.380  10.080   8.984 -0.6410  0.4658 -1.3120
  826MOL0     C11418   8.359   9.937   8.934 -0.2311 -0.3104  0.5589
  826MOL0    Cl11419   8.261   9.945   8.779 -0.6877  0.5915  0.1331
  826MOL0     C11420   8.834   9.934   9.780  0.4122  0.0397  0.8102
  826MOL0     C11421   8.968   9.892   9.776  0.6524  1.1237  0.9635
  826MOL0     O11422   9.199   9.765   9.910  0.1836 -0.2624  0.0909
  826MOL0     C11423   9.420   9.669   9.659  0.8269  0.1559  0.0595
  826MOL0     C11424   9.552   9.618   9.650 -0.3812  0.1713 -0.6081
  826MOL0     N11425   9.955   9.031   9.623  0.2101 -0.2962  0.6565
  826MOL0     N11426   9.925   8.919   9.561 -0.5222  0.6291 -0.2969
  826MOL0     C11427   9.985   8.266   8.407  0.4882  0.6301 -0.2091
  826MOL0     C11428   9.953   8.307   8.279  0.0008  0.2485  0.0148
  826MOL0     C11429   9.815   8.570   7.947  0.2616 -0.8394  0.2512
  826MOL0     C11430   9.877   8.474   7.862 -1.5587 -0.7524  0.4543
  826MOL0     C11431   9.855   8.478   7.721 -0.1064  0.1580 -0.3446
  826MOL0     C11432   9.792   8.590   7.671  0.4469  0.4461  0.2489
  826MOL0     O11433   9.773   8.601   7.543 -0.1466 -0.3477  0.4177
  826MOL0     C11434   9.899   8.602   7.461  0.2316  0.3833 -0.6863
  826MOL0     C11435   9.859   8.640   7.318  0.4663  0.2738 -0.4817
  826MOL0     C11436   9.818   8.788   7.307 -0.3952 -0.4396  0.4389
  826MOL0     C11437   9.778   8.812   7.158 -0.5990  0.3725 -0.0993
  826MOL0     C11438   9.656   8.737   7.145 -0.8130  1.0785  0.4921
  826MOL0     C11439   9.552   8.672   7.120 -0.6247 -0.3732  0.1000
  826MOL0     C11440   9.735   8.684   7.752 -0.0801 -0.2417  0.0402
  826MOL0     C11441   9.745   8.680   7.884 -0.2568  0.1152 -0.3304
  826MOL0     C11442   9.685   8.784   7.965  0.1286  0.6718 -0.1634
  826MOL0     H11443   9.661   8.477   8.372 -0.2119  0.5331  1.2023
  826MOL0     H11444   9.739   8.414   8.589 -0.7579 -2.7593  1.1270
  826MOL0     H11445   9.877   8.396   8.752  0.0183 -1.4024  1.0654
  826MOL0     H11446  10.017   8.334   8.830  0.0503  0.6446  0.9767
  826MOL0     H11447   9.996   8.565   8.623 -2.2927 -1.4558  1.1568
  826MOL0     H11448  10.148   8.484   8.653  2.0176  1.3894  1.4349
  826MOL0     H11449  10.144   8.656   8.800 -3.0820  2.7870 -0.7622
  826MOL0     H11450  10.089   8.528   8.912  0.3235 -0.6490 -0.0924
  826MOL0     H11451   9.926   8.741   8.745 -0.2640 -0.5519 -0.9537
  826MOL0     H11452   9.847   8.633   8.860  0.0433  1.9775  2.3914
  826MOL0     H11453  10.036   8.858   8.922  0.2127  0.4892  0.9204
  826MOL0     H11454   9.863   8.867   8.955  0.8546 -0.3139 -0.2290
  826MOL0     H11455   9.923   8.675   9.128  2.0603  0.5220  4.5365
  826MOL0     H11456  10.078   8.736   9.094 -0.8266  2.9350  0.8301
  826MOL0     H11457   9.859   8.925   9.197  0.2107  0.6638 -0.3376
  826MOL0     H11458  10.031   8.951   9.171 -2.4793  1.7585 -0.3116
  826MOL0     H11459   9.920   8.733   9.355  2.0039 -1.9797  1.9525
  826MOL0     H11460  10.087   8.767   9.338 -0.6650 -1.9857 -1.2736
  826MOL0     H11461  10.113   9.068   9.340  1.9732 -1.2071  1.8755
  826MOL0     H11462  10.139   9.222   9.678  1.2601 -1.0852 -0.5808
  826MOL0     H11463  10.195   9.233   9.514 -1.2743 -0.2042 -1.8246
  826MOL0     H11464  10.065   9.444   9.566  0.9984  0.1972 -0.9027
  826MOL0     H11465   9.958   9.336   9.474  1.3279  5.2661 -0.7462
  826MOL0     H11466   9.965   9.410   9.778 -0.8684  1.9135 -0.1354
  826MOL0     H11467   9.875   9.274   9.736 -1.6016  2.6465  2.7888
  826MOL0     H11468   9.720   9.400   9.602 -1.5634 -1.3834  1.3910
  826MOL0     H11469   9.838   9.544   9.599  1.8488 -1.7415  0.2837
  826MOL0     H11470   9.608   9.527   9.966 -2.1696 -1.9951  0.5293
  826MOL0     H11471   9.366   9.619   9.990  0.2100  1.7334 -0.7626
  826MOL0     H11472   8.950   9.639   9.568  3.7992  0.5543  0.6481
  826MOL0     H11473   8.721   9.686   9.576 -0.9081  0.1842 -0.2024
  826MOL0     H11474   8.531   9.769   9.573  1.5211 -0.3163 -0.5762
  826MOL0     H11475   8.418   9.851   9.683  0.3990 -0.2746  0.5941
  826MOL0     H11476   8.516  10.083   9.595 -3.2627 -1.3926  2.4451
  826MOL0     H11477   8.615   9.981   9.477  0.6714 -1.4303  1.1592
  826MOL0     H11478   8.419   9.916   9.373 -0.8738  0.0518  0.3548
  826MOL0     H11479   8.310   9.976   9.492 -1.0400 -0.8772 -1.9195
  826MOL0     H11480   8.512  10.153   9.344 -1.0261  0.0204 -0.5842
  826MOL0     H11481   8.366  10.208   9.432  1.8289  1.6554 -1.2883
  826MOL0     H11482   8.327  10.225   9.193  0.9434 -1.0367  0.2107
  826MOL0     H11483   8.234  10.079   9.235 -1.5112  3.1818 -0.1913
  826MOL0     H11484   8.521  10.115   9.137 -1.4799  1.2058 -0.1431
  826MOL0     H11485   8.448   9.956   9.153 -0.9618 -0.4477 -1.5387
  826MOL0     H11486   8.455  10.127   8.920 -0.7876 -1.7712 -3.2523
  826MOL0     H11487   8.290  10.142   8.976 -1.2784 -0.1016  0.7671
  826MOL0     H11488   8.454   9.888   8.911 -1.2952 -2.4815  0.5359
  826MOL0     H11489   8.301   9.881   9.008 -0.4506 -0.8733 -0.0298
  826MOL0     H11490   8.793  10.024   9.826  2.7414  3.0909 -2.4767
  826MOL0     H11491   9.048   9.956   9.811  0.3335  1.4279  1.1460
  826MOL0     H11492   9.370   9.706   9.570  0.7385 -0.5686 -0.2000
  826MOL0     H11493   9.604   9.621   9.555  1.8094 -2.7772  0.3311
  826MOL0     H11494  10.075   8.209   8.427 -2.5353 -4.8155 -0.1181
  826MOL0     H11495  10.012   8.276   8.193  1.7151  1.6311  0.6308
  826MOL0     H11496   9.922   8.385   7.905 -0.1868  0.0452  0.7503
  826MOL0     H11497   9.871   8.396   7.653 -0.9637 -0.2237 -0.0963
  826MOL0     H11498   9.946   8.504   7.467  2.8210  1.5983  0.2480
  826MOL0     H11499   9.979   8.662   7.504 -0.3854  1.0984 -0.5001
  826MOL0     H11500   9.788   8.565   7.283  0.9805  0.4192 -1.8852
  826MOL0     H11501   9.950   8.626   7.259  0.7769 -0.2325  0.0940
  826MOL0     H11502   9.905   8.850   7.333 -1.1194  0.7059  0.2340
  826MOL0     H11503   9.732   8.813   7.370 -0.0041  1.1709  0.3819
  826MOL0     H11504   9.752   8.917   7.145  0.5568  0.4952 -1.7109
  826MOL0     H11505   9.854   8.791   7.083 -0.0680 -0.9624  0.7747
  826MOL0     H11506   9.470   8.608   7.094 -0.2136 -0.0868 -2.0541
  826MOL0     H11507   9.684   8.768   7.706 -1.2458 -1.6715 -1.4211
  826MOL0     H11508   9.600   8.750   8.026  0.3375 -0.0870 -0.2904
  826MOL0     H11509   9.773   8.833   8.006  3.2132 -0.9124 -4.1640
  826MOL0     H11510   9.637   8.865   7.908 -0.0283 -0.8527 -2.3362
  827MOL0     O11511   1.789  11.276   7.695  0.3566 -0.3269 -0.6955
  827MOL0     C11512   1.786  11.211   7.801 -0.6673 -1.2468 -0.3341
  827MOL0     O11513   1.705  11.112   7.840 -0.0246 -1.0372 -0.4146
  827MOL0     C11514   1.570  11.102   7.800 -1.5782 -0.0004  0.6221
  827MOL0     C11515   1.502  11.209   7.741 -0.7733 -0.1165 -0.0287
  827MOL0     C11516   1.373  11.192   7.703  0.7439 -0.8305  0.7686
  827MOL0     C11517   1.299  11.076   7.730  0.1693 -0.5953 -0.1240
  827MOL0     O11518   1.172  11.067   7.689  0.3856  1.3944 -0.5980
  827MOL0     C11519   1.138  11.084   7.551 -0.2338 -0.3668 -0.0381
  827MOL0     C11520   1.004  11.021   7.505  0.4746  0.2360  0.1496
  827MOL0     C11521   0.880  11.113   7.534  0.4407 -0.2956  0.3485
  827MOL0     C11522   0.874  11.228   7.426  0.3223  0.0537  0.4169
  827MOL0     C11523   0.755  11.321   7.447  0.2721  0.2671 -0.1531
  827MOL0     C11524   0.724  11.386   7.319 -0.4023 -0.3379  0.5934
  827MOL0     C11525   0.627  11.318   7.219 -0.0464 -0.1531  0.1872
  827MOL0     C11526   0.589  11.405   7.091 -0.0740 -0.5609  0.2665
  827MOL0     N11527   0.512  11.528   7.126 -0.0076  0.0017 -0.2796
  827MOL0     C11528   0.375  11.546   7.149 -0.3085 -0.3109 -0.1065
  827MOL0     C11529   0.364  11.682   7.142  0.0959  0.0352 -0.3599
  827MOL0     C11530   0.238  11.759   7.127  0.1390 -1.0011  0.4252
  827MOL0     C11531   0.168  11.713   6.996 -0.0059 -0.3531  0.9014
  827MOL0     C11532   0.062  11.815   6.974  0.3084  0.7963 -0.0122
  827MOL0     C11533  -0.024  11.786   6.844  0.6896  0.4829 -0.2394
  827MOL0     O11534  -0.149  11.873   6.852 -0.1330 -0.2556  0.2280
  827MOL0     C11535  -0.138  12.004   6.832 -0.6358 -0.0259 -0.2843
  827MOL0     C11536  -0.022  12.084   6.797  0.2519 -0.5778 -1.3149
  827MOL0     C11537  -0.034  12.224   6.776  0.0065 -0.4829  0.0932
  827MOL0     C11538  -0.160  12.288   6.778 -0.6070  0.2266 -0.6995
  827MOL0     C11539  -0.166  12.430   6.756 -0.5962  0.2733  1.4613
  827MOL0     O11540  -0.050  12.501   6.755  0.3961 -0.0421  0.0242
  827MOL0     C11541  -0.036  12.632   6.720 -0.5480  0.6264  0.1688
  827MOL0     C11542  -0.123  12.710   6.645 -0.1007  0.5459  0.3082
  827MOL0     C11543  -0.092  12.833   6.604  0.8979  0.1975 -0.0662
  827MOL0     C11544   0.047  12.875   6.617 -0.1445  1.1148  0.5673
  827MOL0     O11545   0.097  13.000   6.573  0.0592  0.5986 -0.1513
  827MOL0     C11546   0.017  13.083   6.496 -0.6239  0.9146  0.3744
  827MOL0     C11547   0.106  13.202   6.457 -0.2048 -0.2940 -0.3536
  827MOL0     C11548   0.023  13.296   6.362  0.7403 -0.1166 -0.3127
  827MOL0     C11549   0.090  13.443   6.354  0.6347  0.4099  0.1660
  827MOL0     C11550  -0.002  13.553   6.300 -0.2685 -0.4709  0.2162
  827MOL0     C11551   0.071  13.688   6.278  0.1063  0.1091 -0.2684
  827MOL0     C11552   0.129  13.708   6.140  0.3420  1.5716  0.5325
  827MOL0     C11553   0.196  13.838   6.108  0.2234 -0.7656 -0.2416
  827MOL0    Cl11554   0.088  13.981   6.115 -0.3317 -0.3239  0.2341
  827MOL0     C11555   0.132  12.792   6.691 -1.5926  0.7291 -0.3750
  827MOL0     C11556   0.094  12.672   6.739 -0.3192 -0.5865  0.3439
  827MOL0     O11557  -0.282  12.476   6.741  0.2893 -0.3673  0.0897
  827MOL0     C11558  -0.278  12.198   6.812 -0.4037  0.2098  0.1655
  827MOL0     C11559  -0.264  12.060   6.844  0.2884 -0.3614 -0.4935
  827MOL0     N11560   0.488  11.746   7.128  1.3366 -0.3847  0.5567
  827MOL0     N11561   0.576  11.651   7.136 -0.0416 -0.2640 -0.1447
  827MOL0     C11562   1.356  10.983   7.812 -0.0111  0.2942 -0.2791
  827MOL0     C11563   1.495  10.995   7.842  0.2091  1.0085 -0.0116
  827MOL0     C11564   1.886  11.266   7.907 -0.2436  0.0966  0.8584
  827MOL0     C11565   1.948  11.173   7.988  0.5842 -0.0178 -0.2520
  827MOL0     C11566   2.048  11.215   8.081 -0.0564  0.7138  0.6112
  827MOL0     C11567   2.086  11.350   8.094  0.1870 -0.6600 -0.5214
  827MOL0     O11568   2.172  11.394   8.193 -0.0450 -0.1073  0.1491
  827MOL0     C11569   2.276  11.486   8.145 -0.4067  0.7042  0.2027
  827MOL0     C11570   2.380  11.517   8.259 -0.0558  0.3202  0.9804
  827MOL0     C11571   2.324  11.531   8.402  0.6068  0.5278 -0.1394
  827MOL0     C11572   2.441  11.575   8.498 -0.1502  0.5886 -0.8745
  827MOL0     C11573   2.387  11.644   8.611  0.3578 -0.0587 -0.0355
  827MOL0     C11574   2.347  11.704   8.704  0.9781 -0.2428 -1.4817
  827MOL0     C11575   2.025  11.442   8.008  0.1329  0.2235 -0.9518
  827MOL0     C11576   1.919  11.401   7.925  2.5417  0.7937  0.3922
  827MOL0     C11577   1.835  11.509   7.863  0.4711 -0.4581  0.1384
  827MOL0     H11578   1.549  11.306   7.725  0.0540 -0.6083 -0.6445
  827MOL0     H11579   1.321  11.269   7.646  0.5647 -1.8224 -0.4497
  827MOL0     H11580   1.147  11.192   7.537  1.3581 -0.1590  2.1916
  827MOL0     H11581   1.216  11.041   7.487  0.5898  1.3757 -0.2486
  827MOL0     H11582   0.995  10.924   7.555  1.6309 -1.1953 -2.2844
  827MOL0     H11583   1.012  11.001   7.398  3.3127  3.5223 -0.4325
  827MOL0     H11584   0.893  11.165   7.629  0.5186  1.3245 -0.5091
  827MOL0     H11585   0.793  11.046   7.535 -0.2232  0.4762 -1.5425
  827MOL0     H11586   0.977  11.265   7.422  0.7064 -1.0179 -0.3640
  827MOL0     H11587   0.860  11.179   7.329  2.5777 -0.3877  0.2489
  827MOL0     H11588   0.664  11.276   7.486 -3.4788  5.7363 -1.3653
  827MOL0     H11589   0.775  11.405   7.515 -3.3562  3.2618 -2.3565
  827MOL0     H11590   0.699  11.489   7.348  1.4191 -1.1285  6.3798
  827MOL0     H11591   0.819  11.397   7.264 -1.4138  1.1380 -0.9660
  827MOL0     H11592   0.536  11.310   7.278  0.7105 -0.4779  1.3550
  827MOL0     H11593   0.673  11.226   7.181  0.3723 -0.1408  0.6548
  827MOL0     H11594   0.675  11.438   7.032 -0.2647  2.0076  1.2921
  827MOL0     H11595   0.525  11.346   7.025 -0.2039  0.7378 -0.8387
  827MOL0     H11596   0.297  11.471   7.137 -0.4363 -0.5422  1.8784
  827MOL0     H11597   0.178  11.738   7.216  0.4381  2.0297  1.4760
  827MOL0     H11598   0.259  11.867   7.122 -1.7095 -0.6960 -3.2969
  827MOL0     H11599   0.233  11.728   6.909 -2.6197  4.4852 -0.6120
  827MOL0     H11600   0.121  11.614   7.001 -0.5794 -0.2906 -1.6951
  827MOL0     H11601   0.100  11.916   6.960  0.9268  0.5542 -0.1227
  827MOL0     H11602   0.001  11.809   7.064  0.6186 -0.6577  0.1222
  827MOL0     H11603  -0.050  11.680   6.849 -0.5107  0.8021  1.0403
  827MOL0     H11604   0.033  11.799   6.752  2.3497  1.8500  0.9080
  827MOL0     H11605   0.074  12.035   6.780  0.9106 -0.2714  1.0652
  827MOL0     H11606   0.052  12.283   6.744 -0.6858  0.5721  0.1427
  827MOL0     H11607  -0.222  12.682   6.610 -0.6895  1.9580  0.7752
  827MOL0     H11608  -0.165  12.893   6.552 -0.9220 -0.9336  1.0872
  827MOL0     H11609  -0.002  13.030   6.402  2.3586  1.9361 -0.9123
  827MOL0     H11610  -0.072  13.114   6.551  0.3660 -0.3551  2.8875
  827MOL0     H11611   0.138  13.257   6.547  2.1107 -4.2419  1.4880
  827MOL0     H11612   0.195  13.169   6.402  0.5485 -0.9660  1.2013
  827MOL0     H11613   0.013  13.248   6.265 -1.8434 -1.1189  0.3554
  827MOL0     H11614  -0.077  13.311   6.403  1.7665  0.5514  2.1436
  827MOL0     H11615   0.166  13.438   6.276 -0.1732 -2.6219 -0.5300
  827MOL0     H11616   0.137  13.465   6.451 -1.4274  2.6830  0.7823
  827MOL0     H11617  -0.085  13.565   6.370 -0.4464  1.2494 -0.2439
  827MOL0     H11618  -0.038  13.520   6.202 -1.5305 -0.2337  0.5849
  827MOL0     H11619  -0.015  13.755   6.288 -0.9230 -1.0800 -0.8567
  827MOL0     H11620   0.143  13.721   6.354  0.5741  0.5636 -0.8996
  827MOL0     H11621   0.047  13.691   6.069  0.4880 -0.3372  0.7851
  827MOL0     H11622   0.207  13.633   6.135 -0.2691  0.7204  2.5277
  827MOL0     H11623   0.283  13.857   6.172 -0.1071  2.2342 -0.5573
  827MOL0     H11624   0.230  13.830   6.005 -2.2180 -2.0340 -1.0303
  827MOL0     H11625   0.233  12.824   6.714 -0.6820 -2.5376  0.7479
  827MOL0     H11626   0.157  12.601   6.792 -0.3024 -0.0499  1.0599
  827MOL0     H11627  -0.379  12.236   6.825 -1.4305 -1.4905 -2.1474
  827MOL0     H11628  -0.343  11.994   6.881 -0.9844  1.7713  0.8162
  827MOL0     H11629   1.295  10.897   7.837  0.8050 -0.1311  0.3224
  827MOL0     H11630   1.538  10.916   7.902 -2.7002 -0.8437 -0.1398
  827MOL0     H11631   1.934  11.065   7.988  1.3669 -0.1610 -2.2992
  827MOL0     H11632   2.099  11.148   8.150  0.1077  1.0158  0.7837
  827MOL0     H11633   2.238  11.582   8.108 -0.1124 -0.0326 -2.2151
  827MOL0     H11634   2.321  11.428   8.064 -4.2748 -2.8429  0.3002
  827MOL0     H11635   2.429  11.607   8.222  0.5632 -0.9584 -1.5374
  827MOL0     H11636   2.454  11.437   8.252  1.0462  1.0859  2.9702
  827MOL0     H11637   2.286  11.433   8.434 -0.2264 -0.1464 -2.9328
  827MOL0     H11638   2.237  11.597   8.406  1.4565  1.6745  0.0514
  827MOL0     H11639   2.491  11.481   8.525 -0.9338 -0.2197 -2.1290
  827MOL0     H11640   2.505  11.646   8.445  0.9290 -1.1106 -1.9672
  827MOL0     H11641   2.294  11.772   8.767 -0.6525 -1.5629 -1.3553
  827MOL0     H11642   2.038  11.550   8.010 -0.4963  0.3166  1.7748
  827MOL0     H11643   1.878  11.524   7.763  1.8561 -1.2213  0.6034
  827MOL0     H11644   1.731  11.481   7.842  0.8437 -1.3610 -0.5476
  827MOL0     H11645   1.831  11.599   7.926  0.3910 -2.3456  3.0005
  828MOL0     O11646  11.281   8.727   9.728  0.5281 -0.1451 -1.0217
  828MOL0     C11647  11.340   8.656   9.650 -0.1199 -0.1693  0.1054
  828MOL0     O11648  11.369   8.686   9.523  0.3045  0.2124 -0.7874
  828MOL0     C11649  11.352   8.820   9.489 -0.5611 -0.7862 -0.0557
  828MOL0     C11650  11.277   8.861   9.374 -0.4318 -0.8351  0.1646
  828MOL0     C11651  11.257   8.999   9.336  0.6913  1.1724  0.3099
  828MOL0     C11652  11.302   9.090   9.422 -0.7735  0.4807 -0.2412
  828MOL0     O11653  11.269   9.225   9.407 -0.6770  0.3839 -0.0750
  828MOL0     C11654  11.256   9.264   9.273  0.4362  0.4532 -0.1685
  828MOL0     C11655  11.227   9.411   9.264  0.2728  0.5576  0.4928
  828MOL0     C11656  11.230   9.452   9.113 -1.0007  0.6455 -0.4772
  828MOL0     C11657  11.116   9.398   9.028 -0.2920 -0.2379  0.0207
  828MOL0     C11658  11.140   9.434   8.883 -0.1505 -0.6809 -1.4081
  828MOL0     C11659  11.249   9.354   8.812  0.3703  0.9394  0.4764
  828MOL0     C11660  11.273   9.202   8.846 -0.6401  0.0969 -0.7491
  828MOL0     C11661  11.146   9.117   8.836  0.0063  0.3137 -0.2654
  828MOL0     N11662  11.156   8.983   8.907  0.2985 -0.4451 -0.1836
  828MOL0     C11663  11.223   8.875   8.851  0.5352 -0.9717  0.2524
  828MOL0     C11664  11.220   8.777   8.948  0.1918  0.5496 -0.2785
  828MOL0     C11665  11.285   8.645   8.940  0.0700  0.4606  0.4198
  828MOL0     C11666  11.332   8.608   9.081 -0.0675 -0.1677 -0.3931
  828MOL0     C11667  11.396   8.466   9.096  0.4010  0.3322 -0.5489
  828MOL0     C11668  11.411   8.432   9.241 -0.2587 -0.5164 -0.2942
  828MOL0     O11669  11.412   8.288   9.273  1.0421  0.0604 -0.4016
  828MOL0     C11670  11.304   8.207   9.234  0.2855 -0.5855  0.0970
  828MOL0     C11671  11.329   8.071   9.247  0.3824  0.6178  0.1754
  828MOL0     C11672  11.224   7.986   9.198 -0.3056 -0.1277  0.1362
  828MOL0     C11673  11.089   8.034   9.169  0.3567  0.8604 -0.2639
  828MOL0     C11674  10.976   7.940   9.165  1.1359  0.4307  0.9088
  828MOL0     O11675  10.854   7.985   9.210 -0.0448 -0.2745 -0.0074
  828MOL0     C11676  10.753   7.892   9.208  0.8783  0.2146 -1.3837
  828MOL0     C11677  10.663   7.885   9.098 -0.6781  0.0542  0.7950
  828MOL0     C11678  10.553   7.804   9.104  0.2843  0.1681  0.8476
  828MOL0     C11679  10.531   7.718   9.210  0.1604 -0.1171 -0.1362
  828MOL0     O11680  10.420   7.634   9.237 -0.0665 -0.3592 -0.3659
  828MOL0     C11681  10.345   7.602   9.109 -0.0686 -0.3448 -0.6632
  828MOL0     C11682  10.402   7.507   9.018 -1.4845  0.0620  0.9323
  828MOL0     C11683  10.405   7.356   9.065  0.1751 -1.1034  0.2027
  828MOL0     C11684  10.488   7.261   8.981 -0.6599 -0.4985 -0.1341
  828MOL0     C11685  10.447   7.112   9.002  0.3308 -0.1166  0.6678
  828MOL0     C11686  10.515   7.049   9.130  0.2004  0.4135 -0.3627
  828MOL0     C11687  10.423   6.945   9.197 -0.6370 -1.2767  0.7671
  828MOL0     C11688  10.411   6.825   9.109  0.1755  0.7717 -0.4934
  828MOL0    Cl11689  10.553   6.783   9.000  0.2555 -0.0623 -0.0034
  828MOL0     C11690  10.624   7.716   9.318  0.7701  1.2465 -0.1016
  828MOL0     C11691  10.743   7.796   9.323  0.5756 -1.5818  0.2092
  828MOL0     O11692  11.003   7.824   9.127  0.0869 -0.5936  0.4367
  828MOL0     C11693  11.068   8.171   9.184 -0.0651 -0.3391  0.1384
  828MOL0     C11694  11.177   8.257   9.211  0.7522 -0.3110  0.2259
  828MOL0     N11695  11.151   8.837   9.053  0.3853 -0.5081  0.2574
  828MOL0     N11696  11.109   8.954   9.031  0.0554 -0.5170 -0.2939
  828MOL0     C11697  11.378   9.060   9.539  0.1714 -0.1708  0.5221
  828MOL0     C11698  11.406   8.929   9.567  0.3438  0.9207  0.2370
  828MOL0     C11699  11.363   8.512   9.703  0.0192  0.4066 -0.1836
  828MOL0     C11700  11.358   8.395   9.617 -0.2556 -0.6547  0.0726
  828MOL0     C11701  11.391   8.272   9.660  0.6165  0.0880 -0.2741
  828MOL0     C11702  11.435   8.256   9.790  0.2957  0.7682 -0.3169
  828MOL0     O11703  11.453   8.136   9.839  0.6330 -0.5712  0.1561
  828MOL0     C11704  11.505   8.038   9.754  1.5690 -0.3617 -0.3995
  828MOL0     C11705  11.464   7.904   9.801  0.3772 -0.5955 -0.5934
  828MOL0     C11706  11.502   7.876   9.942  0.6540 -0.1840  0.5362
  828MOL0     C11707  11.419   7.751   9.996 -0.4454 -0.8658  0.4727
  828MOL0     C11708  11.491   7.696  10.112 -0.1735 -0.5974 -0.9807
  828MOL0     C11709  11.540   7.641  10.213 -0.1631 -0.1305 -1.1101
  828MOL0     C11710  11.445   8.367   9.882 -0.7436  0.1951  0.0968
  828MOL0     C11711  11.397   8.489   9.841 -0.8788  0.0778  0.0045
  828MOL0     C11712  11.407   8.595   9.947  0.2603 -0.1810 -0.3800
  828MOL0     H11713  11.235   8.783   9.312  4.1953 -2.5457 -1.2518
  828MOL0     H11714  11.203   9.020   9.245 -1.3260  1.0440  1.4201
  828MOL0     H11715  11.342   9.240   9.211 -0.0896 -3.4255  0.3799
  828MOL0     H11716  11.164   9.222   9.231 -0.0722  2.8719 -1.7205
  828MOL0     H11717  11.295   9.477   9.317  0.4768  0.4547  0.3604
  828MOL0     H11718  11.126   9.430   9.302  0.1214  1.6171 -0.4038
  828MOL0     H11719  11.332   9.424   9.087 -1.1309  0.4466 -0.7857
  828MOL0     H11720  11.216   9.560   9.101 -1.3542  0.7990  1.0721
  828MOL0     H11721  11.111   9.290   9.040 -1.3786 -0.0322  1.7966
  828MOL0     H11722  11.014   9.432   9.052 -1.2108 -2.4075 -0.5387
  828MOL0     H11723  11.050   9.406   8.828  1.8278 -2.0686 -4.2195
  828MOL0     H11724  11.146   9.542   8.873  0.7142 -0.5595  0.1236
  828MOL0     H11725  11.232   9.360   8.704 -0.6687 -1.1788  0.4776
  828MOL0     H11726  11.340   9.407   8.843 -1.4707  2.2176  4.3585
  828MOL0     H11727  11.308   9.197   8.950  0.6127  2.9266 -0.9410
  828MOL0     H11728  11.348   9.164   8.777  1.2831 -1.3661  1.9645
  828MOL0     H11729  11.057   9.176   8.860 -0.4359  1.0848 -3.4610
  828MOL0     H11730  11.129   9.087   8.733 -5.7247 -1.6392  0.8825
  828MOL0     H11731  11.276   8.865   8.757  0.8431 -0.1091  0.3240
  828MOL0     H11732  11.206   8.577   8.908 -0.9943  0.1017  3.4638
  828MOL0     H11733  11.363   8.651   8.863 -0.1388 -2.2572 -0.1003
  828MOL0     H11734  11.412   8.675   9.113 -1.4889  1.0422  0.7321
  828MOL0     H11735  11.236   8.612   9.134 -0.2931  5.1196 -0.6763
  828MOL0     H11736  11.496   8.454   9.052 -0.0943 -1.4843 -1.2678
  828MOL0     H11737  11.337   8.396   9.037  0.1392 -1.3972  1.6180
  828MOL0     H11738  11.331   8.490   9.287  1.6386  0.4919  1.9514
  828MOL0     H11739  11.503   8.482   9.274  1.0045 -0.8310 -3.0620
  828MOL0     H11740  11.427   8.036   9.278  0.6700 -0.0057 -1.3461
  828MOL0     H11741  11.236   7.879   9.211  2.5673  0.1558  0.2704
  828MOL0     H11742  10.677   7.952   9.014 -2.6146 -0.2481  0.1761
  828MOL0     H11743  10.492   7.811   9.015  1.1010  0.4598  0.3030
  828MOL0     H11744  10.250   7.559   9.142  0.9715 -1.9957  0.3055
  828MOL0     H11745  10.329   7.699   9.061  3.7578  1.3732  1.1137
  828MOL0     H11746  10.338   7.520   8.931  2.5186  2.9381 -1.9512
  828MOL0     H11747  10.501   7.538   8.983  0.0252 -2.8021  2.3140
  828MOL0     H11748  10.453   7.373   9.162  1.1338  4.9125 -0.8933
  828MOL0     H11749  10.303   7.316   9.070 -0.4826  0.6145  2.2883
  828MOL0     H11750  10.596   7.267   8.995 -0.8890 -1.9838  3.2611
  828MOL0     H11751  10.462   7.272   8.875  1.8103  0.7327 -0.6789
  828MOL0     H11752  10.473   7.051   8.916  0.5424 -1.2449  1.5057
  828MOL0     H11753  10.338   7.106   9.002  0.3702 -0.8627  1.1215
  828MOL0     H11754  10.613   7.008   9.102  0.7568  1.1343  0.4469
  828MOL0     H11755  10.536   7.125   9.206 -1.0867 -0.4886  0.9427
  828MOL0     H11756  10.324   6.989   9.211 -0.0834 -0.3101  1.7972
  828MOL0     H11757  10.474   6.914   9.289 -0.2865  0.2264  1.1029
  828MOL0     H11758  10.390   6.740   9.175  0.4087  0.5511 -0.6986
  828MOL0     H11759  10.329   6.826   9.036  0.6979  1.0514 -1.0882
  828MOL0     H11760  10.604   7.646   9.399  0.1371  2.1922  0.5775
  828MOL0     H11761  10.821   7.799   9.398 -0.3815 -1.7222  1.2396
  828MOL0     H11762  10.982   8.233   9.161  0.0260  0.1912  1.1709
  828MOL0     H11763  11.161   8.364   9.217  1.6386 -0.2349  1.7278
  828MOL0     H11764  11.423   9.135   9.604  5.1415  0.0631 -2.6232
  828MOL0     H11765  11.468   8.896   9.649  1.5457 -3.1995 -2.0705
  828MOL0     H11766  11.346   8.418   9.512 -2.3817  0.7686  0.5710
  828MOL0     H11767  11.374   8.184   9.598  2.2023 -1.0922  0.8571
  828MOL0     H11768  11.614   8.034   9.763  1.6564  1.6706 -0.1039
  828MOL0     H11769  11.494   8.054   9.646  1.2923 -1.2840 -0.5147
  828MOL0     H11770  11.507   7.830   9.733  0.4990  0.6475 -1.9198
  828MOL0     H11771  11.356   7.893   9.794  0.2166  0.6581 -0.3736
  828MOL0     H11772  11.485   7.960  10.010  2.7219  1.1872 -0.5555
  828MOL0     H11773  11.609   7.856   9.946  0.9838 -0.0715 -3.4624
  828MOL0     H11774  11.326   7.792  10.038 -0.2890 -2.5210  2.5928
  828MOL0     H11775  11.389   7.685   9.914 -2.9740  1.6990 -0.8623
  828MOL0     H11776  11.566   7.595  10.306  2.8269  0.7094 -1.4241
  828MOL0     H11777  11.481   8.348   9.982  1.9438 -1.4712 -1.0945
  828MOL0     H11778  11.316   8.650   9.971  0.6122 -1.1276  3.7798
  828MOL0     H11779  11.440   8.568  10.047  0.4294 -0.6355 -0.5548
  828MOL0     H11780  11.486   8.666   9.921 -0.2959 -0.4085 -2.9468
  829MOL0     O11781   1.361   3.803  10.468  0.6871  0.0566  0.5668
  829MOL0     C11782   1.256   3.761  10.497  0.2932 -0.1944 -0.1983
  829MOL0     O11783   1.224   3.665  10.606 -0.8281 -0.6927  0.4100
  829MOL0     C11784   1.303   3.646  10.720  0.3418 -0.1617  0.6350
  829MOL0     C11785   1.398   3.744  10.770 -0.8568  0.4705 -0.5756
  829MOL0     C11786   1.471   3.723  10.892  0.4363  0.6468 -0.1584
  829MOL0     C11787   1.446   3.616  10.973  1.3386  0.4635  1.0487
  829MOL0     O11788   1.504   3.614  11.092  0.5083 -0.5036  0.2776
  829MOL0     C11789   1.510   3.488  11.165  0.0524  0.7219 -0.6006
  829MOL0     C11790   1.599   3.385  11.110 -0.5248 -0.6840  0.9385
  829MOL0     C11791   1.729   3.433  11.051  0.2699 -0.0285 -1.1517
  829MOL0     C11792   1.829   3.469  11.161  0.7190 -0.7276 -0.7690
  829MOL0     C11793   1.942   3.550  11.096  0.1681 -0.1119 -0.2457
  829MOL0     C11794   1.930   3.702  11.113 -0.2593 -0.3492 -0.3371
  829MOL0     C11795   1.805   3.769  11.047  0.4385 -0.4731  0.0380
  829MOL0     C11796   1.786   3.921  11.078 -0.8252 -0.4302 -0.1537
  829MOL0     N11797   1.660   3.975  11.038 -0.3786 -0.5522  0.1363
  829MOL0     C11798   1.638   4.074  10.948  0.6009 -0.5637  0.3526
  829MOL0     C11799   1.504   4.096  10.961  0.7890  0.1758  1.6531
  829MOL0     C11800   1.409   4.188  10.884  0.5282 -0.4451  0.2859
  829MOL0     C11801   1.434   4.338  10.895 -0.1479  0.6359 -0.0990
  829MOL0     C11802   1.432   4.383  11.040  0.0841 -0.1992  0.2376
  829MOL0     C11803   1.435   4.533  11.061 -0.1162  0.4993  0.3785
  829MOL0     O11804   1.411   4.607  10.945  0.4752  0.0862 -0.0738
  829MOL0     C11805   1.371   4.736  10.955  1.2172  0.1530 -0.4166
  829MOL0     C11806   1.372   4.809  11.073 -0.1757  0.1751 -0.1633
  829MOL0     C11807   1.338   4.948  11.072  0.2406 -0.5446 -0.4638
  829MOL0     C11808   1.277   5.010  10.959  0.3760  0.0439 -0.5777
  829MOL0     C11809   1.234   5.152  10.961 -0.4235  0.8609  1.1359
  829MOL0     O11810   1.145   5.186  10.858 -0.0825 -1.4733  0.0822
  829MOL0     C11811   1.097   5.320  10.850 -0.5548  0.0193 -0.0656
  829MOL0     C11812   0.998   5.326  10.758  1.0140 -0.5035 -0.6288
  829MOL0     C11813   0.929   5.445  10.729  0.3783 -0.8286 -0.8622
  829MOL0     C11814   0.955   5.559  10.812  1.6469  0.5633 -0.1346
  829MOL0     O11815   0.905   5.683  10.775  1.3622  0.6826 -0.2869
  829MOL0     C11816   0.765   5.690  10.788 -0.4607 -0.5353 -0.4521
  829MOL0     C11817   0.720   5.834  10.827 -0.2230 -0.0277  1.1721
  829MOL0     C11818   0.775   5.902  10.949  0.4000 -0.6631 -0.8921
  829MOL0     C11819   0.699   5.865  11.076  1.3743 -0.6581 -0.9849
  829MOL0     C11820   0.739   5.968  11.190  0.5616 -0.1169 -0.1235
  829MOL0     C11821   0.660   5.908  11.307  0.5176 -0.7514 -0.6345
  829MOL0     C11822   0.666   5.997  11.431 -0.5554  0.3006  0.1528
  829MOL0     C11823   0.786   5.945  11.508  0.0397  0.1419 -0.1178
  829MOL0    Cl11824   0.729   5.802  11.611 -0.2356 -0.5995 -0.1004
  829MOL0     C11825   1.060   5.548  10.908  0.3207  0.7252 -0.1004
  829MOL0     C11826   1.140   5.433  10.926  0.3165 -0.9129  0.6937
  829MOL0     O11827   1.265   5.213  11.059 -0.2224  0.1561 -0.2190
  829MOL0     C11828   1.267   4.925  10.853 -0.3813 -0.3601  0.5408
  829MOL0     C11829   1.316   4.791  10.853 -0.1320 -0.1788 -0.1105
  829MOL0     N11830   1.448   4.024  11.063  0.4612  0.4654  0.2667
  829MOL0     N11831   1.548   3.951  11.112  0.0052  0.6663  0.4181
  829MOL0     C11832   1.339   3.529  10.928 -0.4449 -0.8104 -0.4248
  829MOL0     C11833   1.276   3.535  10.801  0.6439  0.4057 -0.7338
  829MOL0     C11834   1.145   3.811  10.403  0.6140 -0.5344 -0.6095
  829MOL0     C11835   1.158   3.933  10.341  0.3626 -0.0741  0.3738
  829MOL0     C11836   1.052   3.979  10.264 -0.0981 -0.4743  0.4637
  829MOL0     C11837   0.941   3.893  10.232 -0.0744  0.2504  0.2963
  829MOL0     O11838   0.825   3.939  10.164 -0.1275  0.2467  1.0645
  829MOL0     C11839   0.852   4.031  10.060 -0.7571  0.1795  0.0398
  829MOL0     C11840   0.755   3.999   9.949 -0.4487 -0.1298  0.7261
  829MOL0     C11841   0.814   4.040   9.811 -0.9292 -0.5272  0.1998
  829MOL0     C11842   0.796   4.186   9.787  0.0539 -0.4896 -1.1202
  829MOL0     C11843   0.776   4.207   9.649  0.8653 -0.0675 -0.7321
  829MOL0     C11844   0.770   4.218   9.529  0.0617  0.5380  0.1694
  829MOL0     C11845   0.941   3.763  10.280 -1.2610 -0.0787  0.5648
  829MOL0     C11846   1.036   3.723  10.370  0.4080 -0.2299  0.3310
  829MOL0     C11847   1.020   3.580  10.414  0.3059 -0.7089  0.7042
  829MOL0     H11848   1.414   3.831  10.708  0.0220 -1.4714 -3.3120
  829MOL0     H11849   1.550   3.794  10.912 -0.3303  0.8827  2.2859
  829MOL0     H11850   1.561   3.521  11.256 -1.2938 -0.1750  0.5315
  829MOL0     H11851   1.417   3.438  11.193  1.3547 -1.8112 -0.5317
  829MOL0     H11852   1.547   3.327  11.033  2.0776 -1.4321 -0.3670
  829MOL0     H11853   1.635   3.303  11.172  1.7678  1.6821  2.9504
  829MOL0     H11854   1.707   3.526  10.997  1.0572  0.4314 -0.6924
  829MOL0     H11855   1.767   3.355  10.984 -0.2797  0.0867 -1.6113
  829MOL0     H11856   1.782   3.526  11.241 -1.6435  0.0802 -2.6067
  829MOL0     H11857   1.869   3.373  11.196 -1.0371 -1.5649 -0.9473
  829MOL0     H11858   2.029   3.500  11.140 -1.6006 -3.1127  0.1318
  829MOL0     H11859   1.947   3.522  10.990 -0.8569 -0.1527 -0.3007
  829MOL0     H11860   1.932   3.730  11.219  2.2883  0.1535 -0.4756
  829MOL0     H11861   2.022   3.736  11.065  2.2758 -4.4181  1.1042
  829MOL0     H11862   1.731   3.717  11.109 -0.8944  0.7432 -0.4861
  829MOL0     H11863   1.790   3.752  10.940  1.3246  0.5760 -0.2589
  829MOL0     H11864   1.794   3.937  11.186  2.2596  2.1465 -0.6075
  829MOL0     H11865   1.866   3.973  11.023  0.2836  1.3020  2.8540
  829MOL0     H11866   1.709   4.111  10.875 -1.3099  1.9306 -0.3865
  829MOL0     H11867   1.422   4.152  10.781  2.2788 -0.9272  0.6541
  829MOL0     H11868   1.305   4.165  10.912  0.1373 -1.6238 -1.8973
  829MOL0     H11869   1.533   4.366  10.856 -0.6364  2.3976 -0.1407
  829MOL0     H11870   1.364   4.390  10.829  1.6741  0.8064 -2.0338
  829MOL0     H11871   1.518   4.338  11.091 -0.5634 -1.0053  0.6372
  829MOL0     H11872   1.347   4.336  11.089  2.1079  0.7204  5.2028
  829MOL0     H11873   1.533   4.557  11.103  1.1902 -0.8578 -1.7369
  829MOL0     H11874   1.358   4.554  11.136  0.2125 -1.8634  1.4443
  829MOL0     H11875   1.391   4.771  11.172 -1.0742  2.2390  0.8576
  829MOL0     H11876   1.349   4.996  11.169 -1.2935 -2.8121  0.9299
  829MOL0     H11877   0.959   5.238  10.708 -1.4648  0.2578 -0.1943
  829MOL0     H11878   0.843   5.451  10.663 -0.1782  3.0685 -0.0084
  829MOL0     H11879   0.724   5.659  10.691  0.2409  0.5590 -1.1185
  829MOL0     H11880   0.734   5.623  10.868  1.1922  0.3236  0.9628
  829MOL0     H11881   0.758   5.902  10.750 -0.8583  1.1487  1.8619
  829MOL0     H11882   0.612   5.830  10.842 -0.1819  0.4700  1.6642
  829MOL0     H11883   0.882   5.879  10.959  0.0090 -2.0380  0.5586
  829MOL0     H11884   0.750   6.007  10.931 -0.2585 -0.3020  1.7086
  829MOL0     H11885   0.731   5.764  11.103  1.6227 -1.1124 -2.7983
  829MOL0     H11886   0.591   5.881  11.071  1.6519  1.9419 -0.0087
  829MOL0     H11887   0.727   6.074  11.164  0.6276  0.1496  0.8965
  829MOL0     H11888   0.845   5.944  11.198  0.8392  1.5824  2.1757
  829MOL0     H11889   0.554   5.901  11.282  0.7496 -0.9774 -1.6177
  829MOL0     H11890   0.700   5.808  11.319 -0.5868 -1.4972 -2.6164
  829MOL0     H11891   0.576   6.000  11.494 -0.1656 -1.1910  0.8262
  829MOL0     H11892   0.685   6.097  11.391  4.7199 -0.4234  0.1862
  829MOL0     H11893   0.866   5.906  11.444  2.6600  0.4496  2.7210
  829MOL0     H11894   0.819   6.024  11.576 -2.5927  1.2401 -0.0018
  829MOL0     H11895   1.074   5.644  10.956 -3.7203  1.6029 -0.2893
  829MOL0     H11896   1.219   5.435  11.001 -0.0056  2.2271  1.0594
  829MOL0     H11897   1.219   4.972  10.768 -1.4086  0.1877  1.3984
  829MOL0     H11898   1.316   4.732  10.762 -0.3629  0.4420 -0.5193
  829MOL0     H11899   1.328   3.440  10.989  1.5605 -0.8815 -0.1217
  829MOL0     H11900   1.202   3.460  10.776  0.4163 -0.0354  1.0925
  829MOL0     H11901   1.232   4.009  10.365  0.1354 -0.2180  1.6037
  829MOL0     H11902   1.046   4.083  10.234  2.4279 -0.4771 -0.2563
  829MOL0     H11903   0.946   4.003  10.012  0.1243 -0.4176  2.0226
  829MOL0     H11904   0.846   4.133  10.100 -2.8768 -0.0267  0.4120
  829MOL0     H11905   0.658   4.039   9.980 -0.1443 -0.9896  3.0736
  829MOL0     H11906   0.748   3.890   9.945 -1.2709 -0.0600 -2.7524
  829MOL0     H11907   0.760   3.987   9.732 -0.0472  1.0815 -1.5597
  829MOL0     H11908   0.920   4.012   9.804  0.0410  1.5896  3.9499
  829MOL0     H11909   0.715   4.226   9.850  0.4653  0.8400 -1.4065
  829MOL0     H11910   0.887   4.237   9.820  0.2531 -0.9787 -0.9056
  829MOL0     H11911   0.776   4.209   9.422  1.2914  2.4056  0.0180
  829MOL0     H11912   0.867   3.687  10.255 -0.7882 -0.3123 -0.1360
  829MOL0     H11913   0.997   3.570  10.521  3.5770  1.0662  1.7007
  829MOL0     H11914   0.942   3.528  10.358  1.5087 -2.4753  0.5978
  829MOL0     H11915   1.115   3.527  10.403 -0.5731 -2.3867  0.8825
  830MOL0     O11916  10.195   3.077   8.120 -1.0650  0.1466  0.3945
  830MOL0     C11917  10.107   3.046   8.041  0.5648 -0.5972 -0.3621
  830MOL0     O11918   9.975   3.023   8.091  0.2017  0.5836  0.4945
  830MOL0     C11919   9.960   3.050   8.225 -1.5323 -0.9120 -0.5338
  830MOL0     C11920   9.901   2.950   8.293 -0.3218  1.2692  1.2155
  830MOL0     C11921   9.858   2.965   8.430  0.3111  0.2166 -0.6472
  830MOL0     C11922   9.877   3.085   8.489  0.4320  0.2525  0.0034
  830MOL0     O11923   9.834   3.103   8.620  0.4769  0.2562  1.1005
  830MOL0     C11924   9.941   3.170   8.704  0.4773 -1.0086  0.5893
  830MOL0     C11925   9.896   3.154   8.857  0.6477  0.2237  1.0709
  830MOL0     C11926   9.751   3.105   8.890 -0.5488  0.1934  0.7967
  830MOL0     C11927   9.733   3.071   9.036  1.1425 -0.9785 -0.5572
  830MOL0     C11928   9.758   3.200   9.113 -0.7465 -0.1011  0.3901
  830MOL0     C11929   9.732   3.186   9.265  0.4223  0.0159  0.9261
  830MOL0     C11930   9.835   3.104   9.346 -0.8441 -1.2711  0.3253
  830MOL0     C11931   9.954   3.188   9.385 -0.5316  0.5307  0.7505
  830MOL0     N11932   9.907   3.306   9.466 -1.1857  0.1937  0.2867
  830MOL0     C11933   9.856   3.308   9.591 -0.8715  0.5869 -0.1498
  830MOL0     C11934   9.823   3.437   9.625  0.2100  0.9671 -0.1083
  830MOL0     C11935   9.741   3.492   9.748 -0.4901  1.1588 -0.4347
  830MOL0     C11936   9.664   3.617   9.711  0.1947  0.1635  0.0981
  830MOL0     C11937   9.528   3.635   9.794 -0.0550  0.3642 -0.3088
  830MOL0     C11938   9.570   3.652   9.938  0.2959 -0.5914  0.0229
  830MOL0     O11939   9.446   3.661  10.004 -1.0344  0.1928  0.2352
  830MOL0     C11940   9.458   3.686  10.136  0.2237  0.2309 -0.3095
  830MOL0     C11941   9.359   3.648  10.225  1.1855 -1.0256 -0.4213
  830MOL0     C11942   9.370   3.672  10.363  0.1421 -0.6128 -0.6823
  830MOL0     C11943   9.486   3.725  10.419  0.7271 -0.6270  0.2116
  830MOL0     C11944   9.503   3.736  10.570  0.5295 -0.0389  0.3900
  830MOL0     O11945   9.624   3.775  10.619 -0.0898  0.1263 -0.3266
  830MOL0     C11946   9.632   3.800  10.754  0.4471  0.8940 -0.1231
  830MOL0     C11947   9.592   3.918  10.810 -0.5706  0.2538  0.3792
  830MOL0     C11948   9.608   3.939  10.948  0.2420  0.1662 -1.2571
  830MOL0     C11949   9.672   3.843  11.036  0.3452 -0.4130 -0.1776
  830MOL0     O11950   9.686   3.867  11.173 -0.0655  0.3196  0.6092
  830MOL0     C11951   9.748   3.778  11.261 -0.2545 -0.1329  0.5206
  830MOL0     C11952   9.751   3.840  11.406 -0.5403 -0.2791  0.0508
  830MOL0     C11953   9.614   3.890  11.459  0.0616  1.0305 -0.1637
  830MOL0     C11954   9.569   3.811  11.588 -0.1732  0.0902 -0.2935
  830MOL0     C11955   9.425   3.844  11.646  0.4146 -0.1211  0.1758
  830MOL0     C11956   9.407   3.985  11.694 -0.1841 -1.0660  0.7625
  830MOL0     C11957   9.259   4.028  11.683 -0.1015  0.9501  0.6968
  830MOL0     C11958   9.222   4.176  11.679 -0.9966  0.3729 -0.9903
  830MOL0    Cl11959   9.156   4.223  11.528 -0.5926 -0.0226  0.0356
  830MOL0     C11960   9.691   3.719  10.972  0.0198 -0.4400 -1.2249
  830MOL0     C11961   9.679   3.694  10.841 -1.0564 -1.3424 -0.8039
  830MOL0     O11962   9.406   3.706  10.637  0.4224  0.3127 -0.2822
  830MOL0     C11963   9.590   3.759  10.334 -0.2404  1.1607  0.5108
  830MOL0     C11964   9.575   3.746  10.195 -0.1502 -0.0577 -0.5019
  830MOL0     N11965   9.840   3.506   9.505 -0.2638 -0.1356  0.2546
  830MOL0     N11966   9.898   3.432   9.419  0.2619  0.2653 -0.3122
  830MOL0     C11967   9.944   3.187   8.416  0.1682  0.0294  0.3861
  830MOL0     C11968   9.983   3.176   8.282  1.2423  0.4728  0.1656
  830MOL0     C11969  10.136   3.035   7.903  0.1003  0.1376 -0.4087
  830MOL0     C11970  10.221   3.134   7.844  0.0490  0.2259 -0.3642
  830MOL0     C11971  10.261   3.129   7.714 -0.0001  0.6031  0.5492
  830MOL0     C11972  10.193   3.041   7.632  0.6424 -0.2556  0.1617
  830MOL0     O11973  10.224   3.056   7.497 -0.1041 -0.5692 -0.6469
  830MOL0     C11974  10.194   2.957   7.395 -0.3809  0.2717 -0.6158
  830MOL0     C11975  10.290   2.971   7.280  0.3418 -0.3819  1.1327
  830MOL0     C11976  10.236   2.897   7.157  0.3927 -0.0701 -0.1423
  830MOL0     C11977  10.316   2.925   7.026  0.7416 -0.4761 -0.1140
  830MOL0     C11978  10.454   2.878   7.039  0.2065  0.2186 -0.4294
  830MOL0     C11979  10.560   2.816   7.028  0.0512 -0.0148 -0.8063
  830MOL0     C11980  10.109   2.942   7.686 -0.0737  0.9609  0.1187
  830MOL0     C11981  10.090   2.929   7.824  1.0273  0.3744  0.3755
  830MOL0     C11982   9.988   2.813   7.854  0.3738 -0.1725  0.6318
  830MOL0     H11983   9.889   2.856   8.239  0.2025  1.5705  0.5645
  830MOL0     H11984   9.801   2.884   8.475  1.1935  0.9062  1.9443
  830MOL0     H11985  10.040   3.125   8.694  0.4278 -0.8556 -0.7394
  830MOL0     H11986   9.962   3.277   8.695  0.0568 -0.6011  3.5016
  830MOL0     H11987   9.920   3.252   8.897  0.1495 -0.8288  4.2710
  830MOL0     H11988   9.960   3.079   8.905 -2.1453 -2.1981  1.3658
  830MOL0     H11989   9.742   3.016   8.827  1.2295  0.7659 -0.3368
  830MOL0     H11990   9.680   3.182   8.859 -0.0243 -0.3258 -1.8851
  830MOL0     H11991   9.631   3.031   9.040 -0.0821  1.3794 -3.7812
  830MOL0     H11992   9.804   2.993   9.066  2.0945  0.6312  1.6368
  830MOL0     H11993   9.866   3.217   9.104 -0.8025 -0.6677 -1.6766
  830MOL0     H11994   9.702   3.278   9.062  2.0694  0.7772 -1.6065
  830MOL0     H11995   9.703   3.279   9.315 -3.8772 -0.3896 -0.4260
  830MOL0     H11996   9.638   3.134   9.286 -0.6218  1.1949 -0.6099
  830MOL0     H11997   9.868   3.009   9.301  0.9678 -0.7944  0.5785
  830MOL0     H11998   9.785   3.078   9.439  0.0130 -0.8398  0.9130
  830MOL0     H11999  10.023   3.128   9.447 -2.6714 -2.4971  0.4061
  830MOL0     H12000  10.008   3.209   9.292  1.9968 -0.1730  1.9641
  830MOL0     H12001   9.851   3.229   9.665  2.4968  1.0512  0.7203
  830MOL0     H12002   9.683   3.408   9.788  2.4509 -2.2074 -2.6918
  830MOL0     H12003   9.806   3.519   9.831 -1.1944  2.2096 -0.1961
  830MOL0     H12004   9.722   3.709   9.725 -1.2286  0.8136  2.1350
  830MOL0     H12005   9.649   3.613   9.602 -0.0948  2.0046  0.0477
  830MOL0     H12006   9.472   3.543   9.773 -2.6902  2.1506 -1.7849
  830MOL0     H12007   9.467   3.723   9.769  0.3227  0.6035 -0.3973
  830MOL0     H12008   9.635   3.739   9.938 -1.3172  0.7695 -2.7417
  830MOL0     H12009   9.613   3.557   9.972  2.0547  0.2570  0.2337
  830MOL0     H12010   9.284   3.577  10.191  0.2409  0.3060 -1.2055
  830MOL0     H12011   9.280   3.662  10.424  0.0253  4.9767  0.5407
  830MOL0     H12012   9.551   4.002  10.755 -0.7350  0.0207  0.1449
  830MOL0     H12013   9.589   4.034  10.997  1.1488 -0.3938  0.2447
  830MOL0     H12014   9.682   3.691  11.264 -2.1921  1.2269 -0.3546
  830MOL0     H12015   9.847   3.741  11.231 -2.0486 -3.2119 -2.2871
  830MOL0     H12016   9.793   3.770  11.479 -0.2205  2.0076  2.1925
  830MOL0     H12017   9.811   3.931  11.412 -1.9709  0.8471 -1.7255
  830MOL0     H12018   9.609   3.998  11.475 -2.3941  0.9809 -0.3121
  830MOL0     H12019   9.548   3.861  11.378  2.9756  0.8349 -2.6453
  830MOL0     H12020   9.643   3.833  11.666  0.9029 -2.7260 -0.4056
  830MOL0     H12021   9.576   3.702  11.574  0.6902  0.1820 -0.6905
  830MOL0     H12022   9.395   3.771  11.721  1.7279 -0.2393  0.6019
  830MOL0     H12023   9.352   3.820  11.568  1.2097  0.1116 -0.6555
  830MOL0     H12024   9.447   3.993  11.795  2.2576  2.1770 -0.2607
  830MOL0     H12025   9.459   4.059  11.633 -0.9614 -0.7019  0.5302
  830MOL0     H12026   9.208   3.986  11.770 -2.6945 -1.0511 -1.6272
  830MOL0     H12027   9.205   3.982  11.600 -2.1565  0.4645  2.2188
  830MOL0     H12028   9.148   4.195  11.758  1.6530  2.4204  1.1859
  830MOL0     H12029   9.313   4.231  11.704 -0.3311 -1.7183  1.6614
  830MOL0     H12030   9.733   3.642  11.036 -0.6742 -0.1748 -0.4305
  830MOL0     H12031   9.705   3.595  10.805  0.1745 -0.6574 -1.8945
  830MOL0     H12032   9.685   3.797  10.369  1.5273 -0.9664 -1.6719
  830MOL0     H12033   9.665   3.781  10.145 -0.4901  1.5455 -0.0366
  830MOL0     H12034   9.963   3.281   8.465  0.8605 -0.4602  1.0768
  830MOL0     H12035  10.020   3.262   8.227  0.5532 -1.4744 -3.7395
  830MOL0     H12036  10.263   3.213   7.906  4.5020 -0.1319 -2.5315
  830MOL0     H12037  10.325   3.200   7.664 -0.1943  1.6426  1.7389
  830MOL0     H12038  10.087   2.962   7.373 -1.0103 -3.4388  0.8190
  830MOL0     H12039  10.205   2.861   7.447  0.4179  2.0344  2.7315
  830MOL0     H12040  10.384   2.921   7.305  1.5912  1.5963  0.6439
  830MOL0     H12041  10.316   3.075   7.254  3.0626 -1.5434 -1.3694
  830MOL0     H12042  10.135   2.937   7.144  0.7165  1.1822  0.9819
  830MOL0     H12043  10.237   2.788   7.169  0.7619 -0.0302  0.2061
  830MOL0     H12044  10.260   2.880   6.943  1.0110  2.0486 -1.7925
  830MOL0     H12045  10.320   3.033   7.011 -1.5577 -0.3594 -0.2060
  830MOL0     H12046  10.655   2.772   7.008 -0.4247 -0.4235 -2.3062
  830MOL0     H12047  10.062   2.861   7.631 -0.2337  0.4602  0.9733
  830MOL0     H12048  10.003   2.723   7.792  0.9826  0.5971 -0.3736
  830MOL0     H12049   9.990   2.775   7.957 -0.2066 -2.5441 -0.1633
  830MOL0     H12050   9.889   2.853   7.830  1.0983  0.7717 -0.9134
  831MOL0     O12051   3.280   2.477   3.890  0.9159 -0.0091  0.9332
  831MOL0     C12052   3.331   2.376   3.928 -0.1861 -1.3210  0.6005
  831MOL0     O12053   3.352   2.335   4.056  0.2004 -0.2916 -0.7038
  831MOL0     C12054   3.269   2.387   4.153  0.3016 -0.3543 -0.3657
  831MOL0     C12055   3.136   2.334   4.144  0.5814 -0.2259  0.0534
  831MOL0     C12056   3.048   2.376   4.242 -0.6989 -0.9294 -0.1133
  831MOL0     C12057   3.086   2.460   4.342 -0.2077 -0.1505 -0.1972
  831MOL0     O12058   2.994   2.503   4.441 -0.1948  0.1951 -0.6860
  831MOL0     C12059   2.880   2.428   4.465 -0.0030  0.2338  0.3730
  831MOL0     C12060   2.824   2.489   4.591  0.3415  1.0744  1.0146
  831MOL0     C12061   2.921   2.458   4.701  0.3452  0.1623 -0.0285
  831MOL0     C12062   2.871   2.509   4.830  0.2637 -0.6798 -0.2902
  831MOL0     C12063   2.980   2.480   4.938 -0.6506 -0.0080 -0.0549
  831MOL0     C12064   2.935   2.508   5.079  0.0717 -0.2891  0.3467
  831MOL0     C12065   3.044   2.488   5.190  0.6635 -1.1049  0.1008
  831MOL0     C12066   3.171   2.578   5.175 -0.5060 -0.1041  0.2053
  831MOL0     N12067   3.282   2.555   5.269  1.4228  0.0082  0.5410
  831MOL0     C12068   3.274   2.569   5.413  0.3450 -0.3646  0.1067
  831MOL0     C12069   3.408   2.549   5.448  1.0600  0.1281 -0.5450
  831MOL0     C12070   3.451   2.534   5.589  0.4143  1.2279 -0.0042
  831MOL0     C12071   3.363   2.437   5.672  0.3709  0.3670  0.4658
  831MOL0     C12072   3.418   2.394   5.804  0.1923 -0.1108 -0.5688
  831MOL0     C12073   3.395   2.515   5.907 -0.0398 -0.1946  0.0062
  831MOL0     O12074   3.440   2.476   6.034 -0.5150 -0.2243 -0.9971
  831MOL0     C12075   3.405   2.566   6.131 -0.0161 -0.1636 -0.5276
  831MOL0     C12076   3.290   2.551   6.207  0.6572  0.0425  0.4178
  831MOL0     C12077   3.256   2.646   6.303 -0.1068  0.3277  0.3586
  831MOL0     C12078   3.344   2.749   6.344 -0.6257  0.2181  0.2400
  831MOL0     C12079   3.326   2.854   6.448  0.3717  0.1355 -0.1080
  831MOL0     O12080   3.227   2.827   6.531  0.1463  0.7029 -1.0083
  831MOL0     C12081   3.176   2.915   6.630  0.9827  0.0813 -0.4358
  831MOL0     C12082   3.043   2.884   6.684  0.1239 -0.2737 -1.0449
  831MOL0     C12083   2.979   2.965   6.787  0.5298  0.0838 -0.3281
  831MOL0     C12084   3.049   3.078   6.831  0.5095  0.5322  0.3491
  831MOL0     O12085   3.004   3.182   6.903 -0.1464 -0.3884 -0.8226
  831MOL0     C12086   2.921   3.148   7.007 -0.5847  0.0042  0.3281
  831MOL0     C12087   2.944   3.020   7.083  0.0723 -0.1257 -0.0460
  831MOL0     C12088   2.890   3.016   7.222 -0.1492  0.1587 -0.0026
  831MOL0     C12089   2.743   3.001   7.221  0.1344 -0.0057 -0.3097
  831MOL0     C12090   2.697   3.020   7.369  0.7679  0.4743 -0.8370
  831MOL0     C12091   2.549   3.069   7.379  0.3147  0.2205  0.3860
  831MOL0     C12092   2.503   3.048   7.526  0.5398 -0.2169  0.3177
  831MOL0     C12093   2.404   3.165   7.572 -0.4753  0.2775 -0.0870
  831MOL0    Cl12094   2.261   3.195   7.465  0.2644 -0.4038  0.1567
  831MOL0     C12095   3.174   3.107   6.788 -0.1626 -0.5344  0.5167
  831MOL0     C12096   3.234   3.028   6.684  0.5294  0.7828  0.7512
  831MOL0     O12097   3.386   2.958   6.434 -0.3217  0.1473 -0.3117
  831MOL0     C12098   3.465   2.754   6.268  0.6907 -0.6299 -0.5672
  831MOL0     C12099   3.499   2.663   6.169  0.2993  0.0980  0.1351
  831MOL0     N12100   3.480   2.535   5.325  0.6146 -0.2298  0.1183
  831MOL0     N12101   3.410   2.547   5.216  0.0883  0.2156 -0.0090
  831MOL0     C12102   3.217   2.496   4.357  0.9994 -0.6686 -0.0365
  831MOL0     C12103   3.313   2.463   4.257 -0.0192 -0.2778 -0.5642
  831MOL0     C12104   3.401   2.307   3.819  0.4187 -0.0330  0.5914
  831MOL0     C12105   3.530   2.250   3.843  0.2147 -1.0861  0.3382
  831MOL0     C12106   3.606   2.190   3.737  0.2019  0.0806  0.1555
  831MOL0     C12107   3.555   2.189   3.611 -0.0723  0.4707  0.4722
  831MOL0     O12108   3.622   2.137   3.507  0.1241 -0.3602  0.3149
  831MOL0     C12109   3.689   2.244   3.434 -0.0789 -0.0038 -0.5636
  831MOL0     C12110   3.594   2.301   3.331  0.3288 -0.0263  0.2312
  831MOL0     C12111   3.535   2.194   3.244  1.0129  0.6916 -0.1899
  831MOL0     C12112   3.445   2.234   3.130  0.3099  0.3715 -0.3670
  831MOL0     C12113   3.318   2.295   3.183 -0.4409 -0.0642 -0.0802
  831MOL0     C12114   3.221   2.324   3.238  0.4115 -0.3531 -0.7639
  831MOL0     C12115   3.429   2.244   3.588  0.4199  0.0082 -0.1608
  831MOL0     C12116   3.350   2.296   3.686  0.1382  0.5038  0.1302
  831MOL0     C12117   3.211   2.335   3.640  0.4689  0.6776 -0.0667
  831MOL0     H12118   3.106   2.266   4.065 -0.3282  0.6832 -0.4119
  831MOL0     H12119   2.948   2.336   4.230 -0.8168 -0.7550  0.2891
  831MOL0     H12120   2.811   2.442   4.381  0.0334 -1.3200  0.0349
  831MOL0     H12121   2.893   2.319   4.473 -0.2693 -0.0139 -1.7769
  831MOL0     H12122   2.736   2.428   4.614  0.4342  0.6889  0.3785
  831MOL0     H12123   2.807   2.596   4.574  1.8645  1.5938  2.4385
  831MOL0     H12124   3.023   2.492   4.680  0.4632  1.6850  2.5021
  831MOL0     H12125   2.922   2.349   4.712 -2.0136  0.1956  0.9813
  831MOL0     H12126   2.863   2.618   4.832  1.2277 -0.6062  1.7110
  831MOL0     H12127   2.777   2.461   4.861  0.4915 -1.6670 -1.0728
  831MOL0     H12128   2.998   2.373   4.938 -2.3682 -0.3271 -0.5537
  831MOL0     H12129   3.073   2.535   4.920  1.7051 -3.2525  1.2743
  831MOL0     H12130   2.895   2.610   5.085  5.5538  2.1889  0.8729
  831MOL0     H12131   2.851   2.439   5.088 -2.0828  1.3768 -4.0170
  831MOL0     H12132   3.083   2.387   5.204  0.4219 -1.1875  0.1878
  831MOL0     H12133   2.994   2.515   5.283 -2.3513 -0.2814 -1.6270
  831MOL0     H12134   3.208   2.554   5.075 -0.6239 -4.7290  1.0459
  831MOL0     H12135   3.142   2.682   5.191  1.2725  0.8812 -2.3429
  831MOL0     H12136   3.186   2.586   5.475  2.7815  2.0066  3.2606
  831MOL0     H12137   3.552   2.495   5.598  0.1712  0.2400 -1.3706
  831MOL0     H12138   3.452   2.625   5.650  4.6089 -0.2427  2.5234
  831MOL0     H12139   3.261   2.467   5.696  0.8874 -0.3892  4.2641
  831MOL0     H12140   3.352   2.349   5.608 -0.6841 -0.8891  2.2791
  831MOL0     H12141   3.519   2.353   5.808  0.4490  0.5744  0.2415
  831MOL0     H12142   3.354   2.316   5.848  1.0379 -1.0152 -0.9115
  831MOL0     H12143   3.287   2.535   5.914 -0.2639 -1.8288  3.3545
  831MOL0     H12144   3.443   2.606   5.869 -0.9634  0.6966  0.8993
  831MOL0     H12145   3.233   2.459   6.202 -2.7224  1.8433  2.2594
  831MOL0     H12146   3.163   2.624   6.353 -2.0350  1.5068 -2.4848
  831MOL0     H12147   2.991   2.796   6.650 -2.2035  0.3966  0.5525
  831MOL0     H12148   2.874   2.940   6.794  0.5695 -1.8984 -4.1265
  831MOL0     H12149   2.925   3.232   7.077 -1.4082  0.3800 -0.0671
  831MOL0     H12150   2.815   3.139   6.982 -0.5470  1.4504 -0.4362
  831MOL0     H12151   2.901   2.935   7.028  2.9888 -1.2477 -0.8001
  831MOL0     H12152   3.051   3.004   7.068 -0.2011 -0.8554 -1.4419
  831MOL0     H12153   2.931   2.922   7.261 -1.7335 -0.7370 -0.4095
  831MOL0     H12154   2.920   3.106   7.277  1.6389  1.1766 -2.5057
  831MOL0     H12155   2.713   2.903   7.183 -0.4556  1.1688 -3.2033
  831MOL0     H12156   2.692   3.064   7.148  0.4178 -2.7844 -3.1303
  831MOL0     H12157   2.770   3.077   7.427  0.2032  0.8865 -0.5216
  831MOL0     H12158   2.701   2.919   7.411  0.8032  0.7586 -0.1446
  831MOL0     H12159   2.540   3.172   7.346 -1.8017 -1.2088 -4.2985
  831MOL0     H12160   2.485   3.017   7.308 -0.4179 -0.7311  1.6842
  831MOL0     H12161   2.589   3.030   7.592 -1.1318 -2.2412  2.1418
  831MOL0     H12162   2.448   2.954   7.535  3.3766 -2.1341 -0.8699
  831MOL0     H12163   2.363   3.141   7.670 -0.7866 -1.3750 -0.5962
  831MOL0     H12164   2.469   3.252   7.580 -0.3414  0.2399 -0.6757
  831MOL0     H12165   3.225   3.196   6.821  1.6612 -1.8481  1.4463
  831MOL0     H12166   3.338   3.047   6.657  0.5210  0.0247  0.1331
  831MOL0     H12167   3.538   2.829   6.296 -1.6536  1.0380  1.4747
  831MOL0     H12168   3.596   2.668   6.121 -0.3672  1.3906 -1.1652
  831MOL0     H12169   3.248   2.549   4.446 -1.6155  0.7238  0.1470
  831MOL0     H12170   3.411   2.508   4.264  0.5233 -1.5837  0.4998
  831MOL0     H12171   3.571   2.251   3.943 -0.6301  0.6815  0.7043
  831MOL0     H12172   3.697   2.132   3.754  0.2870 -0.2922 -1.4361
  831MOL0     H12173   3.787   2.213   3.395  0.3244  0.9960 -0.3848
  831MOL0     H12174   3.717   2.326   3.501 -3.1297  1.7937 -1.3103
  831MOL0     H12175   3.635   2.373   3.260 -3.2572  0.8006 -1.2256
  831MOL0     H12176   3.517   2.360   3.383  1.3344  2.9997 -1.4669
  831MOL0     H12177   3.483   2.120   3.306  0.5860  1.4424  0.3675
  831MOL0     H12178   3.622   2.141   3.205  0.8084 -1.5814  2.1342
  831MOL0     H12179   3.501   2.311   3.075  1.3995 -0.3078 -0.2443
  831MOL0     H12180   3.431   2.149   3.062  0.5134  0.5583 -0.6486
  831MOL0     H12181   3.137   2.364   3.292  1.2074  3.6965 -2.1331
  831MOL0     H12182   3.383   2.227   3.491 -2.7852 -1.4606  1.4828
  831MOL0     H12183   3.215   2.389   3.545  0.0545 -1.2940 -1.2722
  831MOL0     H12184   3.152   2.248   3.611  0.9188 -0.4684  2.2040
  831MOL0     H12185   3.155   2.402   3.705 -0.7725 -0.3151 -0.0938
  832MOL0     O12186   1.204   6.525   6.711 -1.2822 -0.4689 -0.4462
  832MOL0     C12187   1.230   6.409   6.680 -0.3926  0.4579  0.3371
  832MOL0     O12188   1.202   6.349   6.567 -0.4717 -0.4791  0.0553
  832MOL0     C12189   1.169   6.415   6.444 -0.0340 -0.0170  0.0885
  832MOL0     C12190   1.189   6.557   6.411  0.4245  0.3824 -0.0319
  832MOL0     C12191   1.163   6.608   6.288 -0.2439 -1.2193 -0.3280
  832MOL0     C12192   1.093   6.537   6.199 -0.0932 -0.1452  1.0489
  832MOL0     O12193   1.080   6.559   6.063  0.1676 -1.3879  0.3379
  832MOL0     C12194   1.121   6.692   6.014 -0.8216 -0.3058 -0.1798
  832MOL0     C12195   1.070   6.725   5.871 -0.0137 -0.1935  0.0586
  832MOL0     C12196   0.920   6.695   5.839 -0.2301 -0.5558  0.2288
  832MOL0     C12197   0.822   6.777   5.931  0.4362 -0.2254 -0.1934
  832MOL0     C12198   0.689   6.715   5.931  0.7760  0.2331  0.0012
  832MOL0     C12199   0.580   6.813   5.976  0.2022  0.2411 -0.0001
  832MOL0     C12200   0.440   6.742   5.960  0.9505  0.5292  0.3020
  832MOL0     C12201   0.399   6.722   5.814 -0.0032  0.5669 -0.3879
  832MOL0     N12202   0.257   6.763   5.788 -0.1847 -0.3031  0.0520
  832MOL0     C12203   0.174   6.688   5.706  0.4116 -0.7748  0.4376
  832MOL0     C12204   0.056   6.760   5.705  0.1808  1.0904 -0.0450
  832MOL0     C12205  -0.065   6.735   5.621  0.3223 -0.5103 -0.5813
  832MOL0     C12206  -0.058   6.643   5.502  0.7853  0.4624  0.1401
  832MOL0     C12207  -0.192   6.635   5.432  0.8928 -0.1736 -0.5664
  832MOL0     C12208  -0.232   6.492   5.411 -0.4143  0.1632  0.7921
  832MOL0     O12209  -0.156   6.423   5.301  0.4121  1.0700 -0.1537
  832MOL0     C12210  -0.199   6.302   5.260 -0.7597  0.9155  0.3977
  832MOL0     C12211  -0.190   6.187   5.332 -0.6747  0.5192  0.9219
  832MOL0     C12212  -0.226   6.061   5.279 -0.3519  0.4619  0.9239
  832MOL0     C12213  -0.293   6.049   5.162 -0.8088  0.5664 -0.3828
  832MOL0     C12214  -0.317   5.920   5.094  0.0671  0.4666  0.2707
  832MOL0     O12215  -0.396   5.926   4.989 -0.1780  0.2605 -0.1282
  832MOL0     C12216  -0.455   5.815   4.932  0.0025 -1.2056 -0.4615
  832MOL0     C12217  -0.586   5.768   4.958 -0.6976 -0.7379  0.0780
  832MOL0     C12218  -0.633   5.658   4.887 -1.0474  0.3334 -0.4653
  832MOL0     C12219  -0.551   5.587   4.791  0.2839 -0.2455 -0.5219
  832MOL0     O12220  -0.595   5.468   4.752 -0.6098 -0.1014  0.3504
  832MOL0     C12221  -0.543   5.425   4.623  1.7611 -0.5191 -0.3455
  832MOL0     C12222  -0.447   5.314   4.633  0.1656  0.4287 -0.9785
  832MOL0     C12223  -0.391   5.271   4.499  0.0053 -0.4419  0.0464
  832MOL0     C12224  -0.494   5.240   4.379  1.3186 -0.2688 -1.4390
  832MOL0     C12225  -0.602   5.135   4.433  0.2086  0.3893  0.0229
  832MOL0     C12226  -0.702   5.094   4.331 -0.3264 -0.6567  0.1257
  832MOL0     C12227  -0.793   4.990   4.395 -0.1289 -0.1099 -0.3662
  832MOL0     C12228  -0.875   4.879   4.310  0.2814  0.3513 -0.8586
  832MOL0    Cl12229  -1.000   4.944   4.200  0.3908  0.2697 -0.0801
  832MOL0     C12230  -0.424   5.640   4.762  0.1289 -0.2612 -0.6338
  832MOL0     C12231  -0.376   5.757   4.837 -0.0845  0.3245 -0.6052
  832MOL0     O12232  -0.275   5.817   5.154  0.3022  0.1593  0.4756
  832MOL0     C12233  -0.312   6.170   5.094 -0.3248 -0.1537  0.7704
  832MOL0     C12234  -0.269   6.297   5.139 -0.1880 -0.7810  0.0571
  832MOL0     N12235   0.066   6.855   5.801 -0.1655 -0.5094 -0.8401
  832MOL0     N12236   0.186   6.861   5.849  1.7675  0.1890 -1.0609
  832MOL0     C12237   1.057   6.409   6.231  0.3230 -0.3540  0.7424
  832MOL0     C12238   1.098   6.344   6.343 -0.8755  0.5761 -0.2889
  832MOL0     C12239   1.270   6.318   6.792  0.1793  0.3581  0.0344
  832MOL0     C12240   1.368   6.220   6.768  0.0205  1.2787  0.0037
  832MOL0     C12241   1.400   6.146   6.883 -0.1162  0.1210  1.3000
  832MOL0     C12242   1.338   6.151   7.009 -0.3167  0.6354  0.1924
  832MOL0     O12243   1.385   6.078   7.110  1.3488 -0.1538 -0.0695
  832MOL0     C12244   1.433   6.151   7.226 -0.0515 -0.8244 -0.4806
  832MOL0     C12245   1.526   6.072   7.322 -0.7158 -0.5962  1.6413
  832MOL0     C12246   1.463   5.968   7.402 -1.3726 -0.8320 -0.6674
  832MOL0     C12247   1.346   6.025   7.484  0.3741  1.1967  0.1045
  832MOL0     C12248   1.404   6.112   7.580  0.7930  0.2100  0.5163
  832MOL0     C12249   1.437   6.203   7.653  0.7143  0.4903  0.1123
  832MOL0     C12250   1.229   6.232   7.034  0.1440 -0.1845 -0.8080
  832MOL0     C12251   1.192   6.316   6.919 -0.3956  0.1082  0.8430
  832MOL0     C12252   1.064   6.393   6.933  0.4485 -0.3717  1.0798
  832MOL0     H12253   1.240   6.615   6.488 -2.7942  0.8475  1.9396
  832MOL0     H12254   1.189   6.710   6.263 -2.8490 -1.2390 -3.8905
  832MOL0     H12255   1.084   6.765   6.087 -1.9950 -0.0233 -1.0359
  832MOL0     H12256   1.231   6.693   6.017 -0.7532 -2.8616  1.6246
  832MOL0     H12257   1.134   6.683   5.793  0.3250 -0.8325  0.6605
  832MOL0     H12258   1.101   6.829   5.857  0.4922 -0.4036 -0.4335
  832MOL0     H12259   0.905   6.590   5.865  3.2318 -1.4330 -0.9106
  832MOL0     H12260   0.891   6.702   5.734 -0.7604  4.3425  0.4874
  832MOL0     H12261   0.864   6.781   6.032  3.1011 -1.9596 -1.1058
  832MOL0     H12262   0.822   6.878   5.891  3.1182 -0.9744 -2.4056
  832MOL0     H12263   0.660   6.672   5.835 -0.1811 -1.2387  0.9099
  832MOL0     H12264   0.684   6.625   5.993  0.4307 -1.1996 -2.0295
  832MOL0     H12265   0.605   6.830   6.081 -0.5636  0.3418  0.1738
  832MOL0     H12266   0.589   6.911   5.928 -1.2403  0.7743  0.7595
  832MOL0     H12267   0.370   6.816   6.002 -2.3834 -1.8255 -0.6501
  832MOL0     H12268   0.447   6.647   6.013  2.7566  1.6665  2.2314
  832MOL0     H12269   0.460   6.782   5.747  0.8615  0.1110 -0.0176
  832MOL0     H12270   0.413   6.615   5.794 -0.7193  0.8254 -2.5463
  832MOL0     H12271   0.191   6.597   5.650  3.4207  0.1483 -0.2925
  832MOL0     H12272  -0.146   6.712   5.691  1.5930  0.3552  1.2879
  832MOL0     H12273  -0.095   6.838   5.598 -0.5536  1.1322  5.8935
  832MOL0     H12274   0.013   6.687   5.431  0.4844  2.5142  1.0317
  832MOL0     H12275  -0.011   6.549   5.533  1.1911  1.0836  1.5096
  832MOL0     H12276  -0.176   6.685   5.337  2.0744  1.5598  0.4815
  832MOL0     H12277  -0.282   6.677   5.478 -0.1308  2.1910 -4.3467
  832MOL0     H12278  -0.337   6.495   5.379  0.1043  0.0801 -0.9776
  832MOL0     H12279  -0.223   6.431   5.501 -0.6217 -2.3004 -0.7679
  832MOL0     H12280  -0.151   6.178   5.433  3.5351 -0.7917 -0.6125
  832MOL0     H12281  -0.200   5.976   5.341 -0.8859 -2.4406 -2.5256
  832MOL0     H12282  -0.650   5.809   5.035 -0.2397 -3.0104  1.7794
  832MOL0     H12283  -0.731   5.613   4.904  0.0476 -2.0711 -0.1817
  832MOL0     H12284  -0.624   5.384   4.561  0.8065  0.7676 -0.0054
  832MOL0     H12285  -0.508   5.512   4.566  0.4630  3.6453  4.4648
  832MOL0     H12286  -0.366   5.350   4.697 -0.5844  3.1990 -1.4449
  832MOL0     H12287  -0.510   5.241   4.685  2.4373  0.2076  1.6947
  832MOL0     H12288  -0.329   5.346   4.451 -1.6680 -2.2148 -5.6431
  832MOL0     H12289  -0.327   5.182   4.508 -3.6325 -3.3219 -0.1680
  832MOL0     H12290  -0.431   5.206   4.296  1.0358  0.1614 -1.8396
  832MOL0     H12291  -0.563   5.313   4.336 -1.2309 -1.6291  0.1111
  832MOL0     H12292  -0.639   5.173   4.528 -1.2024 -0.0916 -0.3181
  832MOL0     H12293  -0.550   5.044   4.465 -0.9668  0.0469  1.0084
  832MOL0     H12294  -0.770   5.174   4.301  2.4425  0.2673 -4.8750
  832MOL0     H12295  -0.658   5.059   4.236 -0.9635  1.7181 -1.1282
  832MOL0     H12296  -0.862   5.050   4.455  1.7208  1.4341  0.2968
  832MOL0     H12297  -0.748   4.922   4.468 -0.5938 -2.6423 -2.3021
  832MOL0     H12298  -0.805   4.828   4.244 -1.0432  0.5321 -2.4819
  832MOL0     H12299  -0.907   4.802   4.381  2.0490 -2.3043 -2.7517
  832MOL0     H12300  -0.369   5.590   4.683  0.3079  1.5793 -1.7221
  832MOL0     H12301  -0.273   5.780   4.811  0.5288  0.4905  1.7365
  832MOL0     H12302  -0.357   6.168   4.995 -0.1825  3.1146  0.5519
  832MOL0     H12303  -0.275   6.386   5.077  0.8752 -0.2264  0.7101
  832MOL0     H12304   1.007   6.341   6.163  1.2874 -0.3882  0.0460
  832MOL0     H12305   1.072   6.239   6.355 -3.6504  0.7717 -3.3256
  832MOL0     H12306   1.432   6.221   6.681 -0.4079 -0.6008 -0.3763
  832MOL0     H12307   1.480   6.074   6.888 -2.2558 -2.5569 -0.0427
  832MOL0     H12308   1.350   6.198   7.279 -0.1598 -4.4178  2.9761
  832MOL0     H12309   1.498   6.231   7.189 -0.1694 -1.6329 -2.5891
  832MOL0     H12310   1.566   6.151   7.386 -0.0494  1.6242 -1.2968
  832MOL0     H12311   1.610   6.021   7.272 -0.2611  1.1696  0.5385
  832MOL0     H12312   1.540   5.909   7.452 -3.3215 -3.8360 -0.9366
  832MOL0     H12313   1.424   5.899   7.326  2.0505  0.9877 -4.4504
  832MOL0     H12314   1.259   6.067   7.433 -0.5060 -1.1233 -0.4460
  832MOL0     H12315   1.307   5.939   7.540  1.8815 -0.3393 -1.0777
  832MOL0     H12316   1.450   6.295   7.707  0.5991  2.6935 -3.2491
  832MOL0     H12317   1.182   6.234   7.132  1.0561  1.6325 -0.3592
  832MOL0     H12318   0.984   6.348   6.993 -1.7265  1.6534 -0.1570
  832MOL0     H12319   1.085   6.490   6.979  0.2596  0.2832 -0.1804
  832MOL0     H12320   1.025   6.418   6.834  3.9516 -0.6397 -0.5209
  833MOL0     O12321   6.203   1.105   9.092  0.3314 -0.0377  0.0035
  833MOL0     C12322   6.286   1.105   9.003  0.4610  0.2478 -2.1566
  833MOL0     O12323   6.305   1.189   8.902  0.5170 -0.3969  0.0538
  833MOL0     C12324   6.217   1.297   8.876  0.0441  0.1775  0.2381
  833MOL0     C12325   6.219   1.348   8.745 -0.5622  0.0199  0.7789
  833MOL0     C12326   6.140   1.462   8.721  0.1818  0.1232 -0.1092
  833MOL0     C12327   6.080   1.528   8.816  0.9334  0.6524 -0.9791
  833MOL0     O12328   5.998   1.637   8.787 -0.1725  0.0202  0.7294
  833MOL0     C12329   5.886   1.581   8.717 -0.4601 -0.1871  0.8154
  833MOL0     C12330   5.781   1.693   8.687  0.1491 -0.2618 -0.7221
  833MOL0     C12331   5.846   1.829   8.674 -0.5039  0.3454  0.0438
  833MOL0     C12332   5.733   1.920   8.606 -0.9009 -0.0528  0.0792
  833MOL0     C12333   5.768   2.070   8.665 -0.2069  0.5935 -0.8935
  833MOL0     C12334   5.659   2.166   8.603  0.3999 -0.8416 -0.7416
  833MOL0     C12335   5.721   2.318   8.615 -0.3369  0.3881 -0.2460
  833MOL0     C12336   5.700   2.409   8.507 -0.6224  0.3330 -0.7556
  833MOL0     N12337   5.725   2.549   8.533 -0.4470  0.0123 -0.1372
  833MOL0     C12338   5.800   2.640   8.465  0.7256 -0.6738  1.2605
  833MOL0     C12339   5.783   2.760   8.524 -0.4488  0.3465 -0.1811
  833MOL0     C12340   5.861   2.889   8.521 -0.6978 -0.3095 -0.3137
  833MOL0     C12341   5.817   3.001   8.425 -0.1258 -0.5461  0.0214
  833MOL0     C12342   5.898   3.025   8.290 -0.2257  0.3273 -0.1231
  833MOL0     C12343   6.028   3.093   8.320  0.2310 -0.2854 -0.6933
  833MOL0     O12344   6.127   3.082   8.208  0.4729 -0.1011 -0.7630
  833MOL0     C12345   6.247   3.149   8.219 -0.2067 -0.6044  1.0610
  833MOL0     C12346   6.349   3.112   8.132 -0.9669  0.3479  0.8726
  833MOL0     C12347   6.471   3.182   8.131  0.3789 -0.2584  0.7599
  833MOL0     C12348   6.499   3.278   8.233  0.0672  0.0853 -0.6443
  833MOL0     C12349   6.620   3.353   8.230 -0.1525 -1.0847  0.2808
  833MOL0     O12350   6.703   3.348   8.112  0.4742  0.1999  0.1496
  833MOL0     C12351   6.809   3.438   8.111  0.5440 -0.8520  0.2457
  833MOL0     C12352   6.945   3.394   8.101  0.4911 -1.1206  1.0511
  833MOL0     C12353   7.051   3.478   8.086  0.7633 -0.3858 -0.9943
  833MOL0     C12354   7.022   3.617   8.089  0.5481 -0.2666  0.7305
  833MOL0     O12355   7.109   3.726   8.088  1.0341 -0.3957 -0.2962
  833MOL0     C12356   7.243   3.703   8.034 -0.2365 -0.7203 -0.2868
  833MOL0     C12357   7.245   3.682   7.875  0.3553 -1.0977  0.1257
  833MOL0     C12358   7.374   3.714   7.804  0.4429 -0.2593 -0.7022
  833MOL0     C12359   7.486   3.629   7.864  0.5215  0.5660  0.3885
  833MOL0     C12360   7.608   3.626   7.764  0.1313  0.7114  0.2022
  833MOL0     C12361   7.743   3.584   7.826  0.3808 -0.5798  0.2761
  833MOL0     C12362   7.808   3.711   7.875 -0.9354 -0.7364  0.2218
  833MOL0     C12363   7.941   3.683   7.940  0.2209  0.5730 -0.1186
  833MOL0    Cl12364   8.055   3.602   7.833 -0.1469 -0.5948  0.1874
  833MOL0     C12365   6.886   3.666   8.111  0.1026 -1.3307  0.0969
  833MOL0     C12366   6.785   3.574   8.106 -0.1614 -0.2572  0.3699
  833MOL0     O12367   6.641   3.425   8.327  0.4011  0.3408 -0.1781
  833MOL0     C12368   6.400   3.305   8.329 -0.0775  0.5223 -0.0259
  833MOL0     C12369   6.281   3.246   8.315  0.7483 -0.0481  1.1128
  833MOL0     N12370   5.696   2.736   8.632 -1.0234  0.2052  0.1131
  833MOL0     N12371   5.662   2.617   8.626  0.1906 -0.0360 -0.1265
  833MOL0     C12372   6.089   1.492   8.948  0.9127  0.0352  0.3105
  833MOL0     C12373   6.148   1.371   8.977 -0.5921  0.5282 -0.0750
  833MOL0     C12374   6.396   1.004   9.018  0.0748  0.0448  0.4134
  833MOL0     C12375   6.468   0.975   8.900  0.1576 -0.1875  0.1091
  833MOL0     C12376   6.584   0.894   8.889  0.1482 -0.4016 -0.2261
  833MOL0     C12377   6.618   0.820   8.999 -0.1019  0.3601  0.3699
  833MOL0     O12378   6.719   0.735   8.977  0.6208  0.9898  0.2435
  833MOL0     C12379   6.742   0.635   9.082 -0.1342  0.2781 -0.6302
  833MOL0     C12380   6.848   0.537   9.019 -1.0189  0.0512 -0.8496
  833MOL0     C12381   6.784   0.425   8.939 -0.0190  0.1102  0.4053
  833MOL0     C12382   6.712   0.314   9.030 -0.7705 -1.1999  0.6371
  833MOL0     C12383   6.634   0.222   8.945  0.4032  0.1623  0.6850
  833MOL0     C12384   6.568   0.159   8.864 -0.5566 -0.1973  0.3109
  833MOL0     C12385   6.554   0.843   9.127 -0.5529  0.6269  0.3295
  833MOL0     C12386   6.443   0.934   9.135  0.1867 -0.1964 -0.5155
  833MOL0     C12387   6.377   0.950   9.278  0.0426  0.3204  0.2577
  833MOL0     H12388   6.272   1.309   8.660 -1.8875  1.6813 -0.8974
  833MOL0     H12389   6.130   1.504   8.622  1.6479  1.6787  0.3512
  833MOL0     H12390   5.920   1.543   8.620  0.2053  2.0643  0.1159
  833MOL0     H12391   5.836   1.494   8.761 -2.2420  0.9683  1.1692
  833MOL0     H12392   5.705   1.686   8.765 -1.8499  0.3256 -2.5089
  833MOL0     H12393   5.735   1.665   8.592  0.7286 -2.3281 -0.4382
  833MOL0     H12394   5.937   1.815   8.615  0.3493 -0.3310  1.4526
  833MOL0     H12395   5.879   1.869   8.771 -1.6274 -1.1004  1.0554
  833MOL0     H12396   5.738   1.908   8.497 -3.8590 -0.7279 -0.0415
  833MOL0     H12397   5.630   1.908   8.640 -0.2216  0.6966  2.5973
  833MOL0     H12398   5.774   2.067   8.774  3.2941 -1.8936 -1.0196
  833MOL0     H12399   5.869   2.092   8.631  0.4799  0.1271  0.7669
  833MOL0     H12400   5.659   2.151   8.495 -2.1473  2.0882 -1.2630
  833MOL0     H12401   5.562   2.146   8.649 -0.1817 -0.9828 -1.9999
  833MOL0     H12402   5.828   2.314   8.638 -0.6609  0.9701  1.4921
  833MOL0     H12403   5.659   2.354   8.698 -0.6127 -2.2929  0.8098
  833MOL0     H12404   5.756   2.361   8.427 -1.0645 -3.3743  0.9797
  833MOL0     H12405   5.593   2.402   8.486 -0.8944 -0.0113  0.6700
  833MOL0     H12406   5.870   2.628   8.383  1.3652  1.1427  1.4945
  833MOL0     H12407   5.860   2.929   8.623  0.0635 -2.1292  0.4622
  833MOL0     H12408   5.965   2.861   8.499 -0.8929  0.4570 -2.4521
  833MOL0     H12409   5.717   2.980   8.385 -0.0975  0.7143 -0.7416
  833MOL0     H12410   5.805   3.096   8.478  0.3012 -1.0364  1.0260
  833MOL0     H12411   5.836   3.076   8.215 -2.7758  1.8019  2.7896
  833MOL0     H12412   5.912   2.923   8.254 -4.4024 -0.8571  0.9903
  833MOL0     H12413   6.079   3.046   8.404 -1.9115 -0.4689  0.5563
  833MOL0     H12414   6.017   3.197   8.352  2.9685 -0.0885 -0.1350
  833MOL0     H12415   6.340   3.025   8.067  0.1837 -0.2757  1.5030
  833MOL0     H12416   6.539   3.156   8.051 -1.3574 -4.9241  0.5166
  833MOL0     H12417   6.961   3.287   8.107  1.9908 -0.8823  1.8978
  833MOL0     H12418   7.155   3.448   8.099  0.3771 -1.4558 -0.2037
  833MOL0     H12419   7.294   3.798   8.051  1.2626 -1.4601 -0.4512
  833MOL0     H12420   7.297   3.629   8.094  1.5981  0.2899 -0.6340
  833MOL0     H12421   7.212   3.580   7.853 -3.2778 -0.0707  0.0356
  833MOL0     H12422   7.173   3.750   7.828 -2.6568 -4.2447 -0.2233
  833MOL0     H12423   7.370   3.703   7.696  2.9797  1.2537 -1.0348
  833MOL0     H12424   7.409   3.817   7.813  0.8023 -0.5577  2.7842
  833MOL0     H12425   7.449   3.532   7.900 -1.4900  1.6812  1.5242
  833MOL0     H12426   7.520   3.681   7.954  0.5386 -2.5812  2.3710
  833MOL0     H12427   7.626   3.720   7.712  1.7481  0.6670  0.6408
  833MOL0     H12428   7.580   3.548   7.691 -1.5732  1.6517 -0.2097
  833MOL0     H12429   7.727   3.519   7.912 -0.2092 -1.6076 -0.5932
  833MOL0     H12430   7.800   3.547   7.741  2.1497  1.0544  0.6830
  833MOL0     H12431   7.733   3.754   7.942 -3.0735 -0.8196 -1.9743
  833MOL0     H12432   7.813   3.783   7.792 -4.4487 -0.0724  0.4272
  833MOL0     H12433   7.990   3.775   7.971 -0.0406  0.7605 -0.2564
  833MOL0     H12434   7.924   3.624   8.031 -0.3141  2.0197  0.7504
  833MOL0     H12435   6.868   3.773   8.103  2.0432 -1.0359 -0.6755
  833MOL0     H12436   6.682   3.607   8.092  0.3765  0.0994 -4.1337
  833MOL0     H12437   6.411   3.373   8.413 -3.0371 -0.1066  0.9827
  833MOL0     H12438   6.207   3.267   8.391  0.5741  0.6573  0.7518
  833MOL0     H12439   6.057   1.555   9.031  1.3508 -1.2014  1.4420
  833MOL0     H12440   6.147   1.343   9.082  1.9060 -0.6023 -0.2720
  833MOL0     H12441   6.436   1.015   8.805 -0.1406 -0.8556 -0.0699
  833MOL0     H12442   6.619   0.869   8.790 -2.7511 -1.0321 -1.1919
  833MOL0     H12443   6.651   0.585   9.119 -1.9076  1.7689 -2.7095
  833MOL0     H12444   6.794   0.675   9.169  0.2630  2.1976 -1.6987
  833MOL0     H12445   6.896   0.488   9.104 -0.5347 -1.8002 -2.1273
  833MOL0     H12446   6.923   0.603   8.973  0.6040 -0.4813  0.9082
  833MOL0     H12447   6.859   0.374   8.877  1.9333  1.8266  1.2314
  833MOL0     H12448   6.716   0.476   8.871  1.0485  3.0321  1.3891
  833MOL0     H12449   6.786   0.251   9.081 -1.0141 -1.8232  0.2335
  833MOL0     H12450   6.637   0.354   9.099  0.6992 -0.7381  2.0371
  833MOL0     H12451   6.518   0.099   8.790  1.0861 -2.2085  0.7294
  833MOL0     H12452   6.583   0.779   9.210  1.9267 -2.5847 -2.6756
  833MOL0     H12453   6.359   1.057   9.293  0.5043  0.8943 -2.6654
  833MOL0     H12454   6.281   0.900   9.288  0.8392 -1.2277  0.4613
  833MOL0     H12455   6.445   0.922   9.359  3.3573 -0.6212 -2.5995
  834MOL0     O12456   1.976   6.891   1.719  0.3706  0.1811 -0.4721
  834MOL0     C12457   2.003   6.831   1.622  0.0091  0.3769  0.9105
  834MOL0     O12458   1.919   6.795   1.525 -0.4858  0.4726  0.0466
  834MOL0     C12459   1.783   6.794   1.524  0.5376  0.0144 -0.4600
  834MOL0     C12460   1.717   6.778   1.393  1.5371  0.2796 -0.9973
  834MOL0     C12461   1.580   6.763   1.391  0.5890  0.3626  0.8120
  834MOL0     C12462   1.503   6.782   1.501 -0.4043  0.2224 -0.3971
  834MOL0     O12463   1.368   6.790   1.484  0.6238 -0.0421 -0.6307
  834MOL0     C12464   1.317   6.922   1.503 -0.7957  0.1455 -0.4662
  834MOL0     C12465   1.166   6.933   1.479 -0.3323 -0.2195  0.8585
  834MOL0     C12466   1.105   7.075   1.482  0.8719 -0.1803 -0.0032
  834MOL0     C12467   0.958   7.080   1.447  1.5018  0.7856  0.2213
  834MOL0     C12468   0.894   7.210   1.420  0.0010 -0.4154 -0.7830
  834MOL0     C12469   0.848   7.277   1.554 -0.6858  1.0315 -0.3768
  834MOL0     C12470   0.711   7.215   1.603 -0.7927 -0.0209 -0.3121
  834MOL0     C12471   0.652   7.273   1.735  0.1853 -0.2257  0.7450
  834MOL0     N12472   0.644   7.429   1.736  0.0337  1.1622  0.2262
  834MOL0     C12473   0.551   7.496   1.668  0.8937  0.6379  1.0631
  834MOL0     C12474   0.600   7.620   1.670 -0.2345  0.7019 -0.1320
  834MOL0     C12475   0.517   7.736   1.629 -1.2162  0.0671  0.9796
  834MOL0     C12476   0.509   7.748   1.469 -0.7798  0.9351  0.7588
  834MOL0     C12477   0.404   7.854   1.438 -0.4421 -0.3827 -0.4906
  834MOL0     C12478   0.260   7.835   1.499  0.2434 -0.5005  0.2389
  834MOL0     O12479   0.205   7.707   1.501 -0.5064 -0.8850  1.3010
  834MOL0     C12480   0.144   7.676   1.381  0.2500 -0.3325  1.3281
  834MOL0     C12481   0.184   7.558   1.323  0.1740 -0.2617  0.3078
  834MOL0     C12482   0.149   7.517   1.192 -0.6967  0.3829  1.3762
  834MOL0     C12483   0.044   7.581   1.130 -0.3612 -0.2215 -0.4328
  834MOL0     C12484  -0.014   7.516   1.006  0.5101 -0.5791  0.0347
  834MOL0     O12485   0.038   7.398   0.966  0.0310  0.2503  0.8197
  834MOL0     C12486  -0.004   7.343   0.853 -0.1081  0.2292 -0.7738
  834MOL0     C12487  -0.026   7.416   0.729 -0.4582 -0.4017  0.4767
  834MOL0     C12488  -0.094   7.355   0.621  0.6329  0.2474  0.9028
  834MOL0     C12489  -0.144   7.228   0.631 -0.5758 -0.7721 -0.1888
  834MOL0     O12490  -0.208   7.168   0.527 -0.2262 -0.4473 -0.0729
  834MOL0     C12491  -0.120   7.081   0.445  0.7485  0.7760 -0.5253
  834MOL0     C12492  -0.090   7.163   0.311  0.5459  0.8581 -0.8505
  834MOL0     C12493   0.041   7.106   0.231  0.7389  0.1380  0.4575
  834MOL0     C12494   0.026   6.953   0.179 -0.6195 -0.0449  0.3727
  834MOL0     C12495   0.072   6.929   0.038 -0.1374 -1.1526  0.2173
  834MOL0     C12496   0.056   6.786  -0.003  0.1879  0.1663  0.5378
  834MOL0     C12497  -0.079   6.707   0.022  1.0027  0.0865 -1.1740
  834MOL0     C12498  -0.045   6.559   0.069  0.6800 -1.1850 -0.7848
  834MOL0    Cl12499   0.023   6.463  -0.061 -0.0863  0.3428 -0.1597
  834MOL0     C12500  -0.125   7.155   0.749  1.1901 -0.2064 -0.8692
  834MOL0     C12501  -0.060   7.210   0.865  0.1684 -0.0948  0.2747
  834MOL0     O12502  -0.117   7.572   0.958 -0.4124  0.1593 -0.0823
  834MOL0     C12503  -0.007   7.705   1.184 -0.1322 -0.9234 -0.1940
  834MOL0     C12504   0.053   7.748   1.306  0.6721 -0.4275 -0.7016
  834MOL0     N12505   0.722   7.627   1.721  0.1563  0.5080 -0.5240
  834MOL0     N12506   0.747   7.511   1.756 -0.9521  0.1864  0.1786
  834MOL0     C12507   1.559   6.813   1.634  0.6870 -0.5848  0.5141
  834MOL0     C12508   1.701   6.825   1.636 -0.9074 -0.4589  0.2149
  834MOL0     C12509   2.147   6.812   1.593  0.3582 -0.1267  0.2623
  834MOL0     C12510   2.194   6.776   1.463  0.4699 -0.3054 -0.4547
  834MOL0     C12511   2.323   6.764   1.420 -0.1778  0.3750 -0.8694
  834MOL0     C12512   2.426   6.792   1.509  0.7416  0.8404  0.0222
  834MOL0     O12513   2.558   6.779   1.453 -0.2762 -0.8022  0.5864
  834MOL0     C12514   2.641   6.897   1.482  0.1809 -0.4998  0.6507
  834MOL0     C12515   2.780   6.870   1.459 -0.2587 -0.2810 -0.4205
  834MOL0     C12516   2.816   6.747   1.541  0.4058 -0.7491 -0.6953
  834MOL0     C12517   2.971   6.719   1.524 -0.7567  0.2437  0.3270
  834MOL0     C12518   2.998   6.596   1.592 -0.5851 -0.5336 -1.3358
  834MOL0     C12519   3.045   6.509   1.659 -1.0572 -0.7416 -0.5935
  834MOL0     C12520   2.389   6.810   1.646 -0.7008 -0.4438  0.4251
  834MOL0     C12521   2.255   6.814   1.690  0.1396 -0.7993 -0.1135
  834MOL0     C12522   2.223   6.828   1.833 -0.1487  0.6378 -0.1820
  834MOL0     H12523   1.783   6.771   1.307  0.1522 -0.6337 -2.0366
  834MOL0     H12524   1.542   6.722   1.298  3.0683 -3.2131  1.2161
  834MOL0     H12525   1.332   6.933   1.611 -0.8244  0.4613 -0.4949
  834MOL0     H12526   1.378   7.000   1.457 -0.8176  1.0541  0.9719
  834MOL0     H12527   1.109   6.878   1.555 -3.3409 -0.2833 -1.2292
  834MOL0     H12528   1.149   6.896   1.377 -0.5012  0.1368  0.7536
  834MOL0     H12529   1.162   7.114   1.397  0.3629 -1.4565 -0.9716
  834MOL0     H12530   1.129   7.121   1.578 -3.1993  2.4305  0.0002
  834MOL0     H12531   0.943   7.015   1.359 -4.0184 -0.2053  1.5330
  834MOL0     H12532   0.914   7.023   1.529  4.3919  0.5589  1.7382
  834MOL0     H12533   0.963   7.283   1.375 -0.4154 -1.2853 -2.9416
  834MOL0     H12534   0.806   7.194   1.357  0.5231  3.2145 -2.7102
  834MOL0     H12535   0.921   7.273   1.636 -0.7328  3.8109 -0.1102
  834MOL0     H12536   0.840   7.384   1.534  1.2531  1.9882  3.1047
  834MOL0     H12537   0.727   7.107   1.598 -0.3299  0.0990 -2.4696
  834MOL0     H12538   0.634   7.233   1.527 -4.4668 -3.1033  2.2773
  834MOL0     H12539   0.558   7.225   1.763  0.0277 -0.6420 -0.4581
  834MOL0     H12540   0.721   7.264   1.820  0.7422  0.1933  0.3467
  834MOL0     H12541   0.451   7.458   1.647  0.1558  3.9284 -2.6066
  834MOL0     H12542   0.424   7.750   1.685 -0.9112  1.7072  1.1359
  834MOL0     H12543   0.574   7.827   1.652 -0.1315  0.0609 -1.3715
  834MOL0     H12544   0.603   7.776   1.421 -0.3915 -2.3543 -0.6416
  834MOL0     H12545   0.486   7.654   1.419  0.8832  0.8242  0.1500
  834MOL0     H12546   0.379   7.863   1.332 -2.9420 -0.0690  0.0631
  834MOL0     H12547   0.441   7.952   1.472  0.7271 -1.0900  0.3330
  834MOL0     H12548   0.195   7.916   1.465  1.0125  0.3691  0.7809
  834MOL0     H12549   0.263   7.873   1.602  1.4762  0.9917 -0.3086
  834MOL0     H12550   0.250   7.502   1.389  0.2058 -0.6352 -0.0367
  834MOL0     H12551   0.199   7.429   1.152 -0.3454  0.5712  1.3916
  834MOL0     H12552   0.013   7.516   0.714  0.2555 -0.8871 -1.1436
  834MOL0     H12553  -0.114   7.409   0.529 -1.4972 -2.2919 -0.2761
  834MOL0     H12554  -0.026   7.046   0.489 -1.6972 -1.6616  3.4767
  834MOL0     H12555  -0.185   6.996   0.420 -0.4866  1.6053 -0.2189
  834MOL0     H12556  -0.172   7.157   0.239  0.3878  0.4134 -0.6380
  834MOL0     H12557  -0.076   7.269   0.334 -2.3562  0.8380  1.6220
  834MOL0     H12558   0.062   7.178   0.152  0.2680  0.6744  0.8069
  834MOL0     H12559   0.133   7.105   0.291  2.0270 -1.7504 -1.4131
  834MOL0     H12560  -0.072   6.915   0.211 -2.8334  3.3378 -1.7395
  834MOL0     H12561   0.112   6.910   0.230  0.1702 -0.0396 -0.9315
  834MOL0     H12562   0.176   6.963   0.032 -1.3470  2.9573 -0.3818
  834MOL0     H12563   0.011   6.988  -0.030  2.1347 -0.1918 -1.1190
  834MOL0     H12564   0.080   6.794  -0.109  2.0372  2.4267  1.0319
  834MOL0     H12565   0.131   6.731   0.055 -0.0884  0.0292  0.7727
  834MOL0     H12566  -0.131   6.699  -0.074  3.0843  0.3957 -2.3928
  834MOL0     H12567  -0.155   6.761   0.079 -1.8438 -1.6531 -3.1255
  834MOL0     H12568   0.008   6.551   0.163 -2.9143 -1.0206  1.4535
  834MOL0     H12569  -0.141   6.521   0.105  0.3357  1.6911  1.7815
  834MOL0     H12570  -0.160   7.053   0.745  1.0252 -0.1511 -0.8589
  834MOL0     H12571  -0.045   7.152   0.955 -1.5464 -2.5649 -0.9330
  834MOL0     H12572  -0.087   7.766   1.142  1.3644  1.7460  0.5401
  834MOL0     H12573   0.032   7.845   1.349  0.8858 -2.3718  4.5007
  834MOL0     H12574   1.505   6.836   1.725  0.6532  2.4746 -0.1768
  834MOL0     H12575   1.723   6.851   1.740 -1.2719  0.9487 -0.0421
  834MOL0     H12576   2.129   6.761   1.377  2.4761 -2.0564 -1.7832
  834MOL0     H12577   2.339   6.750   1.314 -2.3168  1.0850 -1.3529
  834MOL0     H12578   2.622   6.928   1.585 -1.7169 -3.3065  1.2521
  834MOL0     H12579   2.617   6.982   1.418  1.8288  1.8331  2.9075
  834MOL0     H12580   2.836   6.956   1.497 -1.1822 -0.4988  1.5868
  834MOL0     H12581   2.809   6.859   1.355  2.5521  1.8795  0.0241
  834MOL0     H12582   2.765   6.657   1.506  3.6145 -3.5281  1.1418
  834MOL0     H12583   2.789   6.767   1.645 -1.1009 -1.7707 -0.8568
  834MOL0     H12584   2.978   6.708   1.415 -1.3264 -1.7664  0.4365
  834MOL0     H12585   3.029   6.798   1.571  0.9333  0.0693 -1.3440
  834MOL0     H12586   3.091   6.432   1.718 -0.1749 -2.1395 -2.9862
  834MOL0     H12587   2.474   6.810   1.713  0.4941 -1.4602 -1.0096
  834MOL0     H12588   2.294   6.776   1.899 -1.6920  0.0504  1.1014
  834MOL0     H12589   2.215   6.930   1.872  3.5876  0.6912  0.8517
  834MOL0     H12590   2.137   6.766   1.859 -0.3514  0.5947 -0.9306
  835MOL0     O12591   9.405   3.166   6.706  0.3637  0.0101  0.6494
  835MOL0     C12592   9.497   3.248   6.729  0.2270  0.6034 -0.1806
  835MOL0     O12593   9.617   3.262   6.659 -0.4040  0.2957  0.0659
  835MOL0     C12594   9.666   3.156   6.585  0.1894 -0.2199  0.2917
  835MOL0     C12595   9.659   3.159   6.445 -0.4179 -0.1822 -0.4820
  835MOL0     C12596   9.701   3.041   6.370 -0.9707 -0.6269 -0.6269
  835MOL0     C12597   9.758   2.929   6.432  0.0633 -0.8193 -0.5807
  835MOL0     O12598   9.812   2.824   6.354  0.0054  0.3651  0.1877
  835MOL0     C12599   9.869   2.697   6.395  0.8856 -0.1609  0.2250
  835MOL0     C12600  10.003   2.701   6.445 -0.2802  0.5322 -0.6337
  835MOL0     C12601  10.111   2.762   6.351 -0.2061 -0.2790 -0.2395
  835MOL0     C12602  10.111   2.713   6.213 -0.2977 -0.2636  0.2142
  835MOL0     C12603  10.240   2.753   6.141 -0.5841  0.3052 -1.4470
  835MOL0     C12604  10.210   2.727   5.991  0.1839 -0.7258  0.6657
  835MOL0     C12605  10.336   2.751   5.896  0.8452 -0.4843 -0.1659
  835MOL0     C12606  10.312   2.718   5.741  0.3818 -0.0047  0.3192
  835MOL0     N12607  10.435   2.740   5.663  0.0175  0.8079 -0.0904
  835MOL0     C12608  10.441   2.723   5.526 -0.5471  0.7933 -0.2220
  835MOL0     C12609  10.560   2.770   5.499 -1.0235 -0.2382 -0.2904
  835MOL0     C12610  10.626   2.757   5.365 -0.2223  0.1533 -0.5063
  835MOL0     C12611  10.635   2.611   5.331 -0.2133 -0.0041  0.4097
  835MOL0     C12612  10.719   2.535   5.446 -0.3927  0.0068  1.2983
  835MOL0     C12613  10.859   2.486   5.387 -0.1270 -0.0136  0.2304
  835MOL0     O12614  10.965   2.589   5.396  0.1007 -0.2468  0.4149
  835MOL0     C12615  10.959   2.694   5.306  0.0219 -0.0991 -0.2098
  835MOL0     C12616  10.932   2.685   5.168  0.2472  0.4865  0.1279
  835MOL0     C12617  10.930   2.805   5.097  0.6730 -0.3359 -0.6405
  835MOL0     C12618  10.947   2.940   5.154 -0.7076  0.0275  0.0529
  835MOL0     C12619  10.941   3.060   5.075  0.4857  0.2971  0.0043
  835MOL0     O12620  10.961   3.181   5.138  0.6617  0.9382 -0.7456
  835MOL0     C12621  10.951   3.286   5.063  0.7446 -0.3530 -0.6079
  835MOL0     C12622  11.066   3.352   5.032  0.0071 -0.3206 -0.5181
  835MOL0     C12623  11.051   3.490   4.994  0.5034  0.1874 -0.4926
  835MOL0     C12624  10.928   3.545   4.958 -0.0445 -0.1541  0.2252
  835MOL0     O12625  10.927   3.673   4.918  0.1478 -0.6721  1.4285
  835MOL0     C12626  10.837   3.717   4.810 -0.9161  0.0183  0.6216
  835MOL0     C12627  10.717   3.792   4.869  0.0039  0.1856 -0.3547
  835MOL0     C12628  10.634   3.853   4.755 -0.2412 -0.1932 -0.8000
  835MOL0     C12629  10.499   3.905   4.818  1.4445 -0.6922  0.2835
  835MOL0     C12630  10.393   3.918   4.703  0.5557  0.1821  0.6444
  835MOL0     C12631  10.331   3.783   4.659  0.5050  0.6144  0.2424
  835MOL0     C12632  10.243   3.824   4.534  0.7928  0.3975 -0.5053
  835MOL0     C12633  10.167   3.702   4.468  0.3351 -0.4393 -0.1344
  835MOL0    Cl12634  10.063   3.628   4.589 -0.3704  0.0215  0.1159
  835MOL0     C12635  10.816   3.471   4.971 -0.0279  0.3503 -0.4235
  835MOL0     C12636  10.824   3.343   5.029 -0.1133 -0.9211 -1.1468
  835MOL0     O12637  10.934   3.033   4.949  0.1415  0.1055 -0.0067
  835MOL0     C12638  10.985   2.940   5.292 -0.3767 -0.3272  0.4966
  835MOL0     C12639  10.996   2.820   5.356  0.2309 -0.3286 -0.1708
  835MOL0     N12640  10.622   2.832   5.609 -0.3411 -0.3748  0.4461
  835MOL0     N12641  10.555   2.787   5.710  0.3488  0.9110 -1.3115
  835MOL0     C12642   9.759   2.934   6.567 -0.4950 -1.0029 -0.2172
  835MOL0     C12643   9.715   3.041   6.650  0.0692 -0.5888  0.7462
  835MOL0     C12644   9.470   3.350   6.834 -0.6535 -0.0278 -0.6062
  835MOL0     C12645   9.377   3.322   6.939  0.0963  0.4164  0.6639
  835MOL0     C12646   9.329   3.415   7.025 -0.5964 -0.8214 -0.2919
  835MOL0     C12647   9.388   3.539   7.044 -0.0555  0.8923 -0.2277
  835MOL0     O12648   9.369   3.623   7.146  0.0904 -0.0080  0.2290
  835MOL0     C12649   9.263   3.601   7.242 -1.3111  1.1318  0.0022
  835MOL0     C12650   9.325   3.523   7.365 -0.1827  0.4576 -0.6415
  835MOL0     C12651   9.214   3.488   7.474  0.2948 -0.3060  0.6425
  835MOL0     C12652   9.124   3.377   7.431  0.1352  0.2746 -1.0895
  835MOL0     C12653   9.013   3.368   7.528  0.0515  0.9916 -0.5170
  835MOL0     C12654   8.920   3.369   7.604 -0.5541 -0.2876  0.2885
  835MOL0     C12655   9.494   3.566   6.958 -0.0305  0.4891 -0.9604
  835MOL0     C12656   9.521   3.477   6.847 -0.2256  0.3648 -0.6049
  835MOL0     C12657   9.621   3.530   6.747  0.3244 -0.1820 -0.7123
  835MOL0     H12658   9.608   3.246   6.406 -1.3937  0.2949  1.7135
  835MOL0     H12659   9.696   3.051   6.262 -1.0019  0.7492 -0.5184
  835MOL0     H12660   9.810   2.659   6.479 -1.0768 -1.0751 -1.4845
  835MOL0     H12661   9.869   2.632   6.307  0.6642 -0.5758  0.5265
  835MOL0     H12662  10.023   2.596   6.469 -2.6506  0.2322  0.2267
  835MOL0     H12663  10.015   2.758   6.537  0.8151 -1.2225  0.3808
  835MOL0     H12664  10.210   2.755   6.397 -0.2480  0.1269 -0.0871
  835MOL0     H12665  10.093   2.869   6.338  0.6016  0.1722  1.9926
  835MOL0     H12666  10.102   2.604   6.218  0.0896 -0.4978 -2.5543
  835MOL0     H12667  10.019   2.747   6.164 -1.3046 -3.7824 -0.6634
  835MOL0     H12668  10.277   2.853   6.166 -2.3200  0.4064  1.1774
  835MOL0     H12669  10.324   2.690   6.174 -0.4518  0.3926 -1.6123
  835MOL0     H12670  10.187   2.621   5.982  1.9477 -1.0245 -1.0671
  835MOL0     H12671  10.126   2.791   5.962 -1.3159 -3.4485 -1.4428
  835MOL0     H12672  10.426   2.698   5.929  1.5815  0.4773 -0.5886
  835MOL0     H12673  10.357   2.857   5.909 -2.6317 -0.0543  4.3103
  835MOL0     H12674  10.291   2.611   5.740  2.0880 -0.3709 -1.3475
  835MOL0     H12675  10.237   2.770   5.682  0.1680  0.2509  0.8063
  835MOL0     H12676  10.367   2.695   5.451  0.3045 -1.5217 -0.2892
  835MOL0     H12677  10.555   2.802   5.295 -0.2319 -3.6801 -3.2783
  835MOL0     H12678  10.724   2.805   5.357 -0.5789  0.9829 -0.0099
  835MOL0     H12679  10.531   2.578   5.327 -0.3428  0.3556  0.8003
  835MOL0     H12680  10.676   2.592   5.231 -4.0804  1.2536 -1.6049
  835MOL0     H12681  10.651   2.459   5.485 -1.0677  1.5634  3.3006
  835MOL0     H12682  10.726   2.605   5.530  1.8361  0.8960  0.4487
  835MOL0     H12683  10.838   2.439   5.291 -1.7270 -0.3738  0.7282
  835MOL0     H12684  10.894   2.397   5.439  0.5430 -0.9047 -1.6545
  835MOL0     H12685  10.894   2.596   5.119 -2.9372 -0.2142  3.3962
  835MOL0     H12686  10.912   2.800   4.990  4.7756 -0.8688 -1.4501
  835MOL0     H12687  11.161   3.309   5.063  0.5973  0.8897 -0.5710
  835MOL0     H12688  11.141   3.551   4.998  2.2266 -2.0984  5.2978
  835MOL0     H12689  10.887   3.784   4.740 -0.1137 -0.4256  0.7635
  835MOL0     H12690  10.799   3.631   4.754  0.3133  1.9460 -3.5566
  835MOL0     H12691  10.649   3.729   4.927  3.4830 -1.9084  1.8394
  835MOL0     H12692  10.748   3.854   4.954 -3.3739 -2.5732  3.2737
  835MOL0     H12693  10.685   3.933   4.701  1.1043  0.5358  1.4634
  835MOL0     H12694  10.620   3.767   4.688 -2.7147 -2.4442  2.2641
  835MOL0     H12695  10.517   4.000   4.868 -2.5305  1.5018 -1.9355
  835MOL0     H12696  10.452   3.832   4.885 -5.7254  1.5347 -1.4500
  835MOL0     H12697  10.435   3.968   4.615 -1.3273 -0.4813 -0.6990
  835MOL0     H12698  10.305   3.974   4.736 -0.6731  0.1159 -2.1762
  835MOL0     H12699  10.392   3.704   4.614 -2.7542 -0.3365 -3.0038
  835MOL0     H12700  10.268   3.738   4.736 -0.6262 -1.1115 -1.6085
  835MOL0     H12701  10.296   3.872   4.452  1.4002 -0.6742 -0.7637
  835MOL0     H12702  10.167   3.892   4.573  1.1266  1.2306 -1.3021
  835MOL0     H12703  10.114   3.737   4.379  1.2578 -1.6445 -1.1893
  835MOL0     H12704  10.244   3.636   4.427  1.7267  2.0682 -1.8293
  835MOL0     H12705  10.720   3.512   4.943  0.5505  3.4305  1.6794
  835MOL0     H12706  10.734   3.292   5.060  0.2745 -0.7025  0.4064
  835MOL0     H12707  11.029   3.028   5.338 -2.0143  1.5698 -1.3386
  835MOL0     H12708  11.016   2.813   5.462  0.9879  2.4502 -0.0340
  835MOL0     H12709   9.785   2.845   6.623 -1.4338 -1.6860 -0.8418
  835MOL0     H12710   9.727   3.042   6.758 -0.2058  1.1798  0.7905
  835MOL0     H12711   9.322   3.229   6.933  1.4034 -0.3012 -1.3058
  835MOL0     H12712   9.238   3.384   7.074 -0.6765  1.7907  1.4521
  835MOL0     H12713   9.185   3.539   7.198  1.0235 -0.4756 -2.1330
  835MOL0     H12714   9.229   3.700   7.275  2.3895  3.2959 -1.9610
  835MOL0     H12715   9.411   3.573   7.410  1.9102 -1.8442 -1.8501
  835MOL0     H12716   9.366   3.424   7.342  2.0223  0.9028  1.0962
  835MOL0     H12717   9.146   3.574   7.481  2.2972  1.6824 -1.9975
  835MOL0     H12718   9.273   3.457   7.560  1.3834  1.0829  0.4387
  835MOL0     H12719   9.081   3.390   7.332 -0.2368  1.6903 -0.7704
  835MOL0     H12720   9.181   3.284   7.437 -0.8020 -0.2689 -0.4335
  835MOL0     H12721   8.833   3.383   7.665  0.2405 -2.9209  2.2044
  835MOL0     H12722   9.544   3.660   6.979  2.7040 -1.2117  0.6641
  835MOL0     H12723   9.709   3.464   6.751  0.7122  0.3699  1.5208
  835MOL0     H12724   9.573   3.544   6.650 -1.8400  1.8471  0.5472
  835MOL0     H12725   9.647   3.629   6.784 -0.9782 -0.3445  0.7773
  836MOL0     O12726   8.247   9.177   7.975  0.5805  0.5770 -0.2604
  836MOL0     C12727   8.286   9.224   8.080 -0.2200 -0.8651 -0.0342
  836MOL0     O12728   8.410   9.193   8.138  0.0024 -0.1075  0.3723
  836MOL0     C12729   8.452   9.058   8.151 -0.4896 -1.0258 -0.4041
  836MOL0     C12730   8.354   8.956   8.176 -0.2637  0.8725  0.8028
  836MOL0     C12731   8.397   8.822   8.189  1.0448 -0.8629  0.0387
  836MOL0     C12732   8.537   8.797   8.171  0.3164 -0.2080 -0.2091
  836MOL0     O12733   8.589   8.669   8.182  0.1471 -0.0118  0.0818
  836MOL0     C12734   8.525   8.566   8.262 -0.1891 -0.1015 -0.4330
  836MOL0     C12735   8.577   8.421   8.223 -1.2008  1.1496 -0.3125
  836MOL0     C12736   8.547   8.325   8.342  0.3122 -0.0511 -0.1450
  836MOL0     C12737   8.614   8.186   8.315 -1.4999 -0.2630 -1.2009
  836MOL0     C12738   8.605   8.066   8.414 -0.3836 -0.4624 -0.4009
  836MOL0     C12739   8.654   8.095   8.559  0.3192 -0.0758  0.7737
  836MOL0     C12740   8.771   8.186   8.581  0.8986 -0.2924 -0.6010
  836MOL0     C12741   8.790   8.190   8.738 -0.7493  0.6238 -0.4006
  836MOL0     N12742   8.710   8.288   8.804 -0.0939  0.5282 -0.2950
  836MOL0     C12743   8.730   8.428   8.801 -0.0547  0.0284  0.1071
  836MOL0     C12744   8.628   8.485   8.877  0.0895 -0.0885 -0.1993
  836MOL0     C12745   8.612   8.636   8.890 -0.8016 -1.0674  0.2273
  836MOL0     C12746   8.463   8.681   8.859  0.8327  0.3169 -0.3097
  836MOL0     C12747   8.408   8.657   8.721 -0.2096 -0.9624 -0.1656
  836MOL0     C12748   8.352   8.511   8.708  0.5027 -0.3093 -0.0593
  836MOL0     O12749   8.247   8.497   8.602 -0.6172  0.6847  0.2456
  836MOL0     C12750   8.233   8.379   8.537 -0.1984 -0.2194 -0.1830
  836MOL0     C12751   8.271   8.250   8.594 -0.2227 -0.4119  1.1653
  836MOL0     C12752   8.249   8.135   8.519  0.0574  0.2109  0.0686
  836MOL0     C12753   8.208   8.134   8.389 -0.3216 -0.5453  0.9020
  836MOL0     C12754   8.213   8.016   8.304 -0.1985  0.1845 -1.3402
  836MOL0     O12755   8.256   7.901   8.368  0.7862 -0.3690  0.4678
  836MOL0     C12756   8.291   7.790   8.303 -0.3917 -0.5281  0.4569
  836MOL0     C12757   8.202   7.730   8.204  0.6876 -0.1927  0.5113
  836MOL0     C12758   8.247   7.619   8.143  1.3718 -0.3829  0.3144
  836MOL0     C12759   8.369   7.560   8.168  0.3115  0.4748 -0.0105
  836MOL0     O12760   8.408   7.442   8.105  0.1376  0.4513  0.9015
  836MOL0     C12761   8.320   7.361   8.028 -0.7544  0.4989 -0.8443
  836MOL0     C12762   8.386   7.231   7.980 -0.0031  1.0175 -0.0951
  836MOL0     C12763   8.467   7.163   8.100 -0.2765 -0.2131 -0.1040
  836MOL0     C12764   8.525   7.021   8.062 -0.4604  0.1023 -0.5576
  836MOL0     C12765   8.677   7.033   8.033  0.6255 -0.1813 -0.5118
  836MOL0     C12766   8.719   6.893   7.989  0.6509 -0.1013 -0.6210
  836MOL0     C12767   8.872   6.901   7.965 -0.1688 -0.4711  0.0632
  836MOL0     C12768   8.938   6.767   7.982 -0.3191  0.2581 -0.3690
  836MOL0    Cl12769   9.101   6.783   8.054 -0.6588  0.0440  0.3141
  836MOL0     C12770   8.449   7.607   8.272  0.0310  0.4978  0.5441
  836MOL0     C12771   8.415   7.724   8.332 -0.3188 -0.2538  0.3502
  836MOL0     O12772   8.210   8.040   8.187  0.8907 -0.1834  0.1408
  836MOL0     C12773   8.170   8.265   8.345  0.2079  0.3936 -0.5616
  836MOL0     C12774   8.182   8.381   8.416 -0.0085 -0.1999  0.4368
  836MOL0     N12775   8.555   8.376   8.931  0.6709 -0.2708  0.0273
  836MOL0     N12776   8.601   8.271   8.879 -0.9537 -0.9227 -0.1652
  836MOL0     C12777   8.631   8.897   8.145 -0.0641 -0.5786  1.0653
  836MOL0     C12778   8.588   9.033   8.128 -0.2042 -0.2910 -0.4940
  836MOL0     C12779   8.199   9.321   8.154  0.3661  0.5722 -0.4620
  836MOL0     C12780   8.266   9.433   8.183 -0.1625 -0.0887 -0.9792
  836MOL0     C12781   8.203   9.535   8.257  0.2185 -0.1277  0.3431
  836MOL0     C12782   8.076   9.503   8.303  0.1873 -0.3654 -0.8742
  836MOL0     O12783   8.027   9.608   8.383 -0.7165  0.7490  0.0536
  836MOL0     C12784   7.936   9.566   8.493 -0.0725  0.3476  0.4397
  836MOL0     C12785   7.930   9.693   8.574  0.0789  0.2151  0.6374
  836MOL0     C12786   7.846   9.674   8.705  0.6327 -0.7833 -0.5402
  836MOL0     C12787   7.802   9.809   8.779  0.2347  0.5352  0.4788
  836MOL0     C12788   7.696   9.781   8.883 -0.4185  0.1589  0.9784
  836MOL0     C12789   7.617   9.763   8.977  0.3102  0.4279  0.5074
  836MOL0     C12790   8.009   9.379   8.283 -0.2516  0.1049 -0.7533
  836MOL0     C12791   8.074   9.286   8.206  0.5158  0.1906  0.3951
  836MOL0     C12792   7.987   9.163   8.179 -1.2123  0.3227  1.0585
  836MOL0     H12793   8.248   8.979   8.185 -1.3406 -1.3575 -3.5580
  836MOL0     H12794   8.335   8.734   8.204  0.5124 -0.3491  0.9591
  836MOL0     H12795   8.555   8.582   8.366  0.3863 -0.0685 -0.6024
  836MOL0     H12796   8.418   8.572   8.242  0.2338 -1.3018 -3.6036
  836MOL0     H12797   8.684   8.422   8.202 -0.7041  1.8094  1.9748
  836MOL0     H12798   8.530   8.382   8.133 -0.7311 -3.1971  1.0812
  836MOL0     H12799   8.440   8.310   8.360  0.2744  2.0558  1.8333
  836MOL0     H12800   8.575   8.365   8.440 -0.3017 -1.1922  0.5069
  836MOL0     H12801   8.569   8.156   8.220  1.5440 -2.5157 -2.0711
  836MOL0     H12802   8.721   8.210   8.313 -1.5832  0.0887 -2.6183
  836MOL0     H12803   8.502   8.029   8.407 -1.5994  2.7870 -1.6356
  836MOL0     H12804   8.674   7.995   8.368 -0.7271 -2.6444  2.1760
  836MOL0     H12805   8.574   8.140   8.618 -0.3515  2.2165 -1.7342
  836MOL0     H12806   8.695   8.000   8.595  2.4456  0.9337  1.1991
  836MOL0     H12807   8.770   8.284   8.534  3.5722 -0.3218 -0.8946
  836MOL0     H12808   8.859   8.141   8.534  3.6925  1.8552  2.0919
  836MOL0     H12809   8.764   8.093   8.783 -1.1705  0.5672 -0.7639
  836MOL0     H12810   8.895   8.205   8.766 -0.3574 -1.4668 -0.5473
  836MOL0     H12811   8.811   8.464   8.739  2.5380 -2.0655  2.0212
  836MOL0     H12812   8.643   8.665   8.990  1.7206  0.9011 -1.0199
  836MOL0     H12813   8.673   8.692   8.819 -0.0110 -0.4085  1.3961
  836MOL0     H12814   8.403   8.637   8.938  1.1966  0.6363  0.1511
  836MOL0     H12815   8.447   8.784   8.893 -1.2562  0.7211 -2.2580
  836MOL0     H12816   8.481   8.670   8.640 -1.5972 -0.6239 -1.3856
  836MOL0     H12817   8.322   8.721   8.702 -3.5342 -5.3476 -1.7245
  836MOL0     H12818   8.303   8.476   8.799 -3.3955  2.0784 -1.0130
  836MOL0     H12819   8.441   8.458   8.671  1.2227  0.5979  0.3125
  836MOL0     H12820   8.315   8.238   8.693 -3.5985  0.8789  3.0034
  836MOL0     H12821   8.285   8.040   8.558 -3.6375 -1.2583  0.2586
  836MOL0     H12822   8.114   7.772   8.157  0.5579 -4.0411 -3.2737
  836MOL0     H12823   8.178   7.577   8.070 -0.0055  1.8003  0.2634
  836MOL0     H12824   8.237   7.332   8.093  1.8490 -2.7568  1.3669
  836MOL0     H12825   8.291   7.432   7.950 -0.4927  1.4153 -0.1147
  836MOL0     H12826   8.309   7.160   7.947  1.0110  1.1356 -3.0599
  836MOL0     H12827   8.447   7.237   7.889 -1.7897 -2.8663 -1.7666
  836MOL0     H12828   8.553   7.228   8.120 -1.6860  1.7178 -0.0406
  836MOL0     H12829   8.413   7.159   8.195 -1.9292  0.3404 -0.9895
  836MOL0     H12830   8.469   6.983   7.976  0.1786 -2.8758  0.2180
  836MOL0     H12831   8.514   6.946   8.141  4.0196 -0.5505 -0.2816
  836MOL0     H12832   8.730   7.063   8.123 -1.3727 -3.1693  1.8818
  836MOL0     H12833   8.683   7.096   7.944  0.3065 -1.0122 -1.1401
  836MOL0     H12834   8.696   6.823   8.069  0.4590 -1.3009 -1.6960
  836MOL0     H12835   8.653   6.865   7.906  1.8046 -0.4546 -1.4521
  836MOL0     H12836   8.912   6.976   8.034  0.0149 -2.1262  1.8392
  836MOL0     H12837   8.902   6.944   7.869 -0.2080  0.6973  0.5661
  836MOL0     H12838   8.874   6.715   8.054  1.3557 -2.0111 -0.4296
  836MOL0     H12839   8.929   6.718   7.884 -0.5361 -1.2293  0.3607
  836MOL0     H12840   8.544   7.553   8.273 -2.9034 -5.6107 -1.1783
  836MOL0     H12841   8.483   7.780   8.396  1.2668  1.3007 -2.4967
  836MOL0     H12842   8.125   8.271   8.246 -2.3740 -1.6322  0.3722
  836MOL0     H12843   8.174   8.480   8.372  2.6179 -0.0864  0.0498
  836MOL0     H12844   8.735   8.868   8.138  0.0826  0.2566 -0.6843
  836MOL0     H12845   8.673   9.095   8.098 -2.0023  2.4932 -0.1915
  836MOL0     H12846   8.370   9.456   8.162 -0.2824  0.9904 -0.4437
  836MOL0     H12847   8.243   9.635   8.272 -0.1465 -0.2552  2.3067
  836MOL0     H12848   7.974   9.485   8.556  0.6651  1.7781  1.9312
  836MOL0     H12849   7.840   9.530   8.456 -1.5199  0.9222  3.2951
  836MOL0     H12850   7.879   9.769   8.514  2.3036  0.1588 -1.4624
  836MOL0     H12851   8.028   9.740   8.586 -0.6075  2.8278 -2.6651
  836MOL0     H12852   7.889   9.615   8.787 -2.1677  0.8827  2.3834
  836MOL0     H12853   7.746   9.642   8.675  0.3592  0.2904 -0.8268
  836MOL0     H12854   7.888   9.852   8.831 -0.1432  0.1714  1.4128
  836MOL0     H12855   7.789   9.895   8.713  0.9376  2.2972  2.5269
  836MOL0     H12856   7.542   9.757   9.054  0.4447  1.7514  0.7716
  836MOL0     H12857   7.908   9.363   8.319 -1.8905  3.0605 -3.4853
  836MOL0     H12858   7.910   9.154   8.256 -1.6335  0.3593  0.6458
  836MOL0     H12859   7.939   9.171   8.081  1.0171  1.0399 -0.0443
  836MOL0     H12860   8.050   9.074   8.188  0.5053  1.3280 -0.3822
  837MOL0     O12861   0.335   4.515   9.751 -0.4688  0.2290 -0.2240
  837MOL0     C12862   0.364   4.401   9.719  0.0469  0.3754 -0.6477
  837MOL0     O12863   0.363   4.294   9.808  0.1437  0.5076 -0.3395
  837MOL0     C12864   0.330   4.318   9.937 -0.1038  1.3202 -0.3142
  837MOL0     C12865   0.406   4.408  10.013  1.2124 -0.0592  0.6105
  837MOL0     C12866   0.393   4.418  10.146  0.2774  0.0711 -0.8622
  837MOL0     C12867   0.312   4.342  10.221  0.0213  1.1515  0.2953
  837MOL0     O12868   0.302   4.362  10.357  0.7173 -0.3144 -0.0050
  837MOL0     C12869   0.208   4.302  10.446 -0.2061  0.5158  0.1719
  837MOL0     C12870   0.203   4.374  10.569 -0.6616 -0.3475 -0.2353
  837MOL0     C12871   0.306   4.318  10.676 -0.0557  0.3420 -0.0295
  837MOL0     C12872   0.288   4.377  10.814 -0.9447  0.4825 -0.5242
  837MOL0     C12873   0.391   4.317  10.921 -0.4726 -0.5867 -0.2823
  837MOL0     C12874   0.378   4.177  10.957  1.1801 -0.0654  0.3311
  837MOL0     C12875   0.512   4.106  10.996  0.3580 -0.5271 -0.6337
  837MOL0     C12876   0.484   3.959  10.990  0.0443  0.0875 -0.5259
  837MOL0     N12877   0.577   3.890  11.072 -0.5604 -0.0011  0.4211
  837MOL0     C12878   0.685   3.816  11.032 -0.4345  0.4366 -0.5166
  837MOL0     C12879   0.723   3.749  11.147  0.2670 -0.0760  0.7498
  837MOL0     C12880   0.847   3.653  11.146 -0.1596  0.8073 -0.1588
  837MOL0     C12881   0.978   3.730  11.166 -0.5468 -0.4580  0.2185
  837MOL0     C12882   1.026   3.810  11.034  0.2288  0.0523 -0.0219
  837MOL0     C12883   1.149   3.897  11.057  0.0417 -0.1911  0.0030
  837MOL0     O12884   1.108   4.031  11.069 -0.7017 -0.0511 -1.2992
  837MOL0     C12885   1.074   4.082  11.186  0.1740 -0.4287  0.3487
  837MOL0     C12886   0.938   4.102  11.206 -0.1831 -0.7631  0.8507
  837MOL0     C12887   0.893   4.151  11.333 -0.1167 -0.6792 -0.1676
  837MOL0     C12888   0.987   4.176  11.444  1.0001 -0.1266  0.5282
  837MOL0     C12889   0.933   4.233  11.576  0.2275  0.0455 -0.9792
  837MOL0     O12890   0.999   4.217  11.690 -0.0018 -0.1109  0.0503
  837MOL0     C12891   0.966   4.276  11.803 -0.9100 -0.7533  0.6415
  837MOL0     C12892   0.831   4.312  11.847 -0.0686 -0.5071 -0.7503
  837MOL0     C12893   0.814   4.383  11.976  0.7432 -0.1666 -0.4300
  837MOL0     C12894   0.925   4.413  12.055  0.6213 -0.0111  0.3685
  837MOL0     O12895   0.902   4.482  12.176  0.0411  0.1072 -0.2056
  837MOL0     C12896   1.002   4.521  12.266 -0.3227 -0.6789  0.9007
  837MOL0     C12897   0.934   4.575  12.389  0.1809  0.2870  0.0017
  837MOL0     C12898   0.876   4.460  12.469 -0.3757  0.8743  0.0757
  837MOL0     C12899   0.863   4.494  12.612  0.0496  0.3317  0.0145
  837MOL0     C12900   0.996   4.489  12.691  0.4835 -0.0943 -0.2342
  837MOL0     C12901   0.967   4.498  12.835 -0.0159  0.1093  0.2642
  837MOL0     C12902   1.080   4.570  12.915 -0.5167  0.1027 -0.3220
  837MOL0     C12903   1.028   4.598  13.061  1.0243 -0.4170  0.0152
  837MOL0    Cl12904   0.915   4.734  13.066 -0.1118 -0.1726 -0.2191
  837MOL0     C12905   1.046   4.377  12.010 -0.3001  0.0178  0.6821
  837MOL0     C12906   1.065   4.316  11.884  0.0426  0.5545 -0.2198
  837MOL0     O12907   0.817   4.283  11.567 -0.3834  0.0852  0.1528
  837MOL0     C12908   1.114   4.133  11.424 -0.2749 -0.4665  0.5691
  837MOL0     C12909   1.153   4.079  11.298  0.3449  0.0539 -0.4626
  837MOL0     N12910   0.631   3.777  11.243  0.0817 -0.0727  0.3251
  837MOL0     N12911   0.548   3.869  11.200 -0.3280 -0.8493  0.7807
  837MOL0     C12912   0.233   4.249  10.151  0.0746 -0.6663 -0.4898
  837MOL0     C12913   0.248   4.229  10.017 -0.1450  0.3206  0.0979
  837MOL0     C12914   0.400   4.359   9.572 -0.5975 -0.0769  0.4593
  837MOL0     C12915   0.413   4.222   9.545 -0.5606 -0.5857 -1.0757
  837MOL0     C12916   0.421   4.172   9.419  0.4240 -0.6723 -0.1308
  837MOL0     C12917   0.421   4.256   9.315  1.0385 -0.3865 -0.4100
  837MOL0     O12918   0.456   4.195   9.202  0.7291 -0.0945  0.6877
  837MOL0     C12919   0.467   4.264   9.073 -0.1206 -0.2631  0.3030
  837MOL0     C12920   0.552   4.192   8.964  0.0796 -1.0259  0.8136
  837MOL0     C12921   0.703   4.187   8.975  0.7599  0.4975  0.4877
  837MOL0     C12922   0.749   4.149   9.116 -0.2107 -0.1323  0.0461
  837MOL0     C12923   0.895   4.124   9.109  0.3151  0.3985 -0.0459
  837MOL0     C12924   1.019   4.100   9.107  0.7943 -0.3843 -0.3901
  837MOL0     C12925   0.410   4.395   9.335  0.4219  0.3398 -0.6275
  837MOL0     C12926   0.391   4.451   9.461 -0.2506 -0.3609  0.1598
  837MOL0     C12927   0.365   4.599   9.460  0.5402 -1.1276  0.8266
  837MOL0     H12928   0.481   4.467   9.961  0.6624 -2.1511 -2.9134
  837MOL0     H12929   0.447   4.486  10.212 -1.4142  1.1822 -0.5395
  837MOL0     H12930   0.107   4.296  10.404 -0.3246  0.2221  0.4912
  837MOL0     H12931   0.243   4.204  10.479 -0.3987  0.3537 -0.0966
  837MOL0     H12932   0.102   4.379  10.610 -0.4088  0.9823  0.2887
  837MOL0     H12933   0.247   4.471  10.543  1.1579 -1.1889 -0.4700
  837MOL0     H12934   0.405   4.355  10.652  0.7885  1.8018  4.6677
  837MOL0     H12935   0.294   4.209  10.688  1.1030  0.3603  1.4670
  837MOL0     H12936   0.311   4.483  10.804 -1.3910  0.6214 -0.1002
  837MOL0     H12937   0.192   4.358  10.863 -0.1658 -2.5875  0.0172
  837MOL0     H12938   0.487   4.335  10.871 -0.9092  3.0837 -0.0717
  837MOL0     H12939   0.396   4.381  11.010 -1.2443  1.9961 -1.9626
  837MOL0     H12940   0.325   4.188  11.052  0.4680 -0.0071 -0.0660
  837MOL0     H12941   0.318   4.117  10.887  2.0630  1.1833 -1.5634
  837MOL0     H12942   0.527   4.140  11.099 -1.2339  1.5768 -1.0210
  837MOL0     H12943   0.597   4.139  10.935  0.4524 -0.2553 -0.3590
  837MOL0     H12944   0.385   3.945  11.036 -0.0287  0.3752 -0.5863
  837MOL0     H12945   0.476   3.930  10.885  2.5645 -1.2690 -0.3928
  837MOL0     H12946   0.728   3.801  10.933  0.7251 -0.5477  0.1144
  837MOL0     H12947   0.845   3.581  11.228 -1.8976  1.2177  0.2082
  837MOL0     H12948   0.846   3.598  11.051  1.0697 -1.1786  0.9122
  837MOL0     H12949   0.962   3.795  11.252  0.1919 -0.1571  0.1369
  837MOL0     H12950   1.055   3.659  11.198  1.1469  0.8324 -0.8156
  837MOL0     H12951   0.960   3.890  10.998  2.6628  2.2218  0.0460
  837MOL0     H12952   1.049   3.733  10.959 -1.9268 -1.1582  0.4818
  837MOL0     H12953   1.209   3.892  10.966  0.3921  0.1761  0.2110
  837MOL0     H12954   1.215   3.858  11.135  0.8142 -0.5941 -0.8325
  837MOL0     H12955   0.866   4.086  11.126 -0.9747 -0.4628  1.4984
  837MOL0     H12956   0.792   4.187  11.346 -0.9805 -3.1264  0.3735
  837MOL0     H12957   0.744   4.280  11.789 -1.3194  1.0020  0.2186
  837MOL0     H12958   0.712   4.405  12.006 -0.2480 -1.8437 -2.3398
  837MOL0     H12959   1.057   4.430  12.292 -1.1779 -2.0741 -1.8168
  837MOL0     H12960   1.073   4.594  12.225 -2.7467  2.0021  1.1991
  837MOL0     H12961   1.010   4.634  12.443 -0.6230  0.5944  0.8195
  837MOL0     H12962   0.866   4.651  12.350  1.4332  0.6808 -1.5518
  837MOL0     H12963   0.778   4.435  12.429 -1.9429  2.6579  2.4992
  837MOL0     H12964   0.948   4.378  12.463 -0.8720  0.4188  0.3540
  837MOL0     H12965   0.796   4.416  12.649 -1.3335  2.2385  1.7278
  837MOL0     H12966   0.803   4.585  12.620 -1.3256 -0.6730  1.7232
  837MOL0     H12967   1.054   4.576  12.658 -1.3118  2.7013  3.2432
  837MOL0     H12968   1.055   4.399  12.671 -2.8779 -2.5858  0.1016
  837MOL0     H12969   0.875   4.549  12.865 -0.9578 -2.9390  3.2486
  837MOL0     H12970   0.966   4.399  12.882 -1.4380  0.2053  0.4866
  837MOL0     H12971   1.118   4.661  12.868 -0.6814  0.2252 -0.2173
  837MOL0     H12972   1.167   4.504  12.908  1.2292  2.1570  0.9768
  837MOL0     H12973   0.970   4.521  13.112 -0.5429  0.4745 -0.3698
  837MOL0     H12974   1.113   4.626  13.123  1.6341 -0.6085 -0.7189
  837MOL0     H12975   1.128   4.404  12.076 -0.7035  0.3298  1.0619
  837MOL0     H12976   1.163   4.297  11.842 -0.6059  0.8404 -1.9637
  837MOL0     H12977   1.179   4.141  11.510 -1.0530 -0.8969  1.2191
  837MOL0     H12978   1.257   4.054  11.284  0.1678 -0.5460 -0.7481
  837MOL0     H12979   0.170   4.189  10.215 -0.8673 -0.1615 -0.9321
  837MOL0     H12980   0.198   4.147   9.968  0.8499 -0.4892  0.3949
  837MOL0     H12981   0.419   4.145   9.621 -0.0129 -0.3288 -0.8477
  837MOL0     H12982   0.437   4.064   9.412  0.3681 -0.6500 -0.6888
  837MOL0     H12983   0.515   4.362   9.080 -1.0817  0.5932 -3.1224
  837MOL0     H12984   0.368   4.278   9.028 -0.0415 -1.4842 -0.2881
  837MOL0     H12985   0.529   4.234   8.865  1.0557 -2.6702 -0.1639
  837MOL0     H12986   0.527   4.086   8.965 -1.2090 -0.7654 -0.0830
  837MOL0     H12987   0.739   4.288   8.952 -1.4112  0.4827 -4.0119
  837MOL0     H12988   0.739   4.120   8.896  2.0971 -0.7128  2.0441
  837MOL0     H12989   0.732   4.237   9.179  0.5924  0.4559 -0.5382
  837MOL0     H12990   0.698   4.066   9.166 -0.1145  0.5188  1.2751
  837MOL0     H12991   1.117   4.060   9.114  0.8179  0.0019  2.5533
  837MOL0     H12992   0.415   4.459   9.248  5.6606  1.1453 -0.0752
  837MOL0     H12993   0.266   4.622   9.500 -1.5514 -3.4332 -2.4884
  837MOL0     H12994   0.449   4.650   9.508  1.1108  1.8442 -2.8390
  837MOL0     H12995   0.360   4.637   9.357 -1.6174  1.1758  1.6696
  838MOL0     O12996   4.219   7.202  10.756 -0.1841  0.3130  0.7419
  838MOL0     C12997   4.180   7.226  10.642  0.0705 -0.6260 -0.6632
  838MOL0     O12998   4.210   7.153  10.538  0.9653 -0.2563  0.9862
  838MOL0     C12999   4.305   7.058  10.555 -0.2114 -0.4098 -0.4347
  838MOL0     C13000   4.268   6.928  10.539  0.6408 -0.2432 -0.2096
  838MOL0     C13001   4.365   6.829  10.552  0.1490  0.3327 -0.5123
  838MOL0     C13002   4.499   6.860  10.593 -0.3419 -0.4912  0.0927
  838MOL0     O13003   4.589   6.758  10.618  0.2940 -0.0893  0.3037
  838MOL0     C13004   4.724   6.790  10.661 -0.1672  1.0040 -0.5468
  838MOL0     C13005   4.770   6.656  10.720  0.7904 -0.4214 -0.5398
  838MOL0     C13006   4.913   6.634  10.743  0.2010  0.5090 -0.6186
  838MOL0     C13007   4.946   6.492  10.773  0.2151  0.7811 -1.1695
  838MOL0     C13008   4.955   6.461  10.926  0.6380 -1.3062  0.1471
  838MOL0     C13009   5.005   6.320  10.946  0.6412  0.2272  0.4918
  838MOL0     C13010   4.980   6.278  11.090  1.0863  0.6917  0.0023
  838MOL0     C13011   4.976   6.130  11.116  0.5920 -0.6405  0.8800
  838MOL0     N13012   5.106   6.061  11.115 -0.2277 -0.4553 -0.3667
  838MOL0     C13013   5.186   6.046  11.224 -0.0869 -0.4846 -0.8626
  838MOL0     C13014   5.303   5.997  11.169  0.5252  0.2064  0.4349
  838MOL0     C13015   5.433   5.972  11.233  0.8061  0.8020  0.4849
  838MOL0     C13016   5.456   5.818  11.272 -0.6062  0.4780  1.6183
  838MOL0     C13017   5.432   5.724  11.165 -0.8162 -0.1525 -0.3371
  838MOL0     C13018   5.437   5.580  11.220 -0.4051 -0.2292 -0.8586
  838MOL0     O13019   5.552   5.555  11.294 -0.9773 -0.0289 -0.2179
  838MOL0     C13020   5.671   5.512  11.231 -0.0561 -0.4434  0.8412
  838MOL0     C13021   5.782   5.470  11.314 -0.5789 -0.6642  0.5620
  838MOL0     C13022   5.902   5.429  11.262  0.3380 -0.2933 -0.4685
  838MOL0     C13023   5.918   5.426  11.123 -0.8073  0.1512 -0.0706
  838MOL0     C13024   6.048   5.375  11.060 -0.1345 -0.8960 -0.5880
  838MOL0     O13025   6.076   5.404  10.925  0.0262  0.4573  0.0749
  838MOL0     C13026   6.204   5.434  10.880  0.8387  1.1047 -0.3917
  838MOL0     C13027   6.306   5.462  10.967  0.8654 -0.3252 -0.2709
  838MOL0     C13028   6.421   5.506  10.918  0.4222  0.0478 -0.7528
  838MOL0     C13029   6.448   5.524  10.779  0.0065  0.3432  0.9234
  838MOL0     O13030   6.564   5.565  10.725  0.3798  0.8711  0.5290
  838MOL0     C13031   6.683   5.475  10.751  0.1686  0.6201 -1.6366
  838MOL0     C13032   6.804   5.510  10.663 -0.6757  0.3131 -0.2058
  838MOL0     C13033   6.814   5.424  10.535 -0.6088 -0.2335  0.1483
  838MOL0     C13034   6.753   5.492  10.409 -0.3440  1.4874  0.0696
  838MOL0     C13035   6.658   5.403  10.340 -0.2369 -0.1158  1.1193
  838MOL0     C13036   6.735   5.290  10.266 -0.2113 -0.5614 -0.4094
  838MOL0     C13037   6.663   5.159  10.235  1.2105 -0.8173 -0.4817
  838MOL0     C13038   6.513   5.180  10.198  0.6209  0.2432  0.2736
  838MOL0    Cl13039   6.440   5.018  10.188 -0.0140 -0.3307  0.0754
  838MOL0     C13040   6.339   5.499  10.695  0.7738  0.0566 -0.8412
  838MOL0     C13041   6.219   5.450  10.742  0.4819 -0.0589 -0.8494
  838MOL0     O13042   6.123   5.326  11.134 -0.4304  0.5147 -0.4898
  838MOL0     C13043   5.813   5.477  11.038  0.5895 -0.3837 -0.3032
  838MOL0     C13044   5.692   5.524  11.090  0.6662  0.6406 -0.8270
  838MOL0     N13045   5.285   5.985  11.033  0.7774 -0.2108  0.3395
  838MOL0     N13046   5.167   6.014  11.005  0.3224  0.0197  0.5058
  838MOL0     C13047   4.534   7.000  10.606 -0.3928 -0.1683 -0.1575
  838MOL0     C13048   4.437   7.090  10.587  0.0059 -1.4578  0.0108
  838MOL0     C13049   4.066   7.316  10.629 -0.4712 -0.0168 -0.1807
  838MOL0     C13050   3.956   7.301  10.704  0.6183 -1.4460 -0.6571
  838MOL0     C13051   3.839   7.347  10.661  0.3102 -0.1435  0.5473
  838MOL0     C13052   3.827   7.424  10.544  0.1793  0.6807 -0.4959
  838MOL0     O13053   3.712   7.460  10.485  1.0769  0.2210  0.9047
  838MOL0     C13054   3.578   7.430  10.545 -0.9328  0.2947  1.0360
  838MOL0     C13055   3.482   7.513  10.462  0.0681  0.6172  0.1463
  838MOL0     C13056   3.418   7.429  10.345  0.1114 -0.5176  0.6520
  838MOL0     C13057   3.523   7.395  10.249 -0.6220  0.8514 -0.1165
  838MOL0     C13058   3.468   7.319  10.131 -0.7034 -0.3339 -0.0728
  838MOL0     C13059   3.417   7.265  10.034 -0.1546  0.4114 -0.7161
  838MOL0     C13060   3.944   7.460  10.476  0.0718  0.8127  0.0275
  838MOL0     C13061   4.068   7.402  10.515  0.3335  0.2635  0.0808
  838MOL0     C13062   4.180   7.435  10.426 -0.7723  0.4116 -0.9224
  838MOL0     H13063   4.165   6.909  10.510  0.4367 -0.6530  0.7598
  838MOL0     H13064   4.338   6.723  10.549  3.2342 -0.5314 -1.9822
  838MOL0     H13065   4.786   6.823  10.578  2.9936 -1.1916  0.7700
  838MOL0     H13066   4.710   6.871  10.734 -1.4607 -1.3328  2.0039
  838MOL0     H13067   4.740   6.573  10.655  1.4672 -0.2083 -1.1423
  838MOL0     H13068   4.722   6.642  10.817 -0.7808 -2.4304 -1.5399
  838MOL0     H13069   4.954   6.699  10.820 -0.2287 -2.5537  2.4142
  838MOL0     H13070   4.959   6.672  10.651 -4.1254  0.8719 -2.9278
  838MOL0     H13071   4.886   6.415  10.724  2.3343 -2.0583  0.3481
  838MOL0     H13072   5.049   6.470  10.743  0.9012  1.0195  0.8700
  838MOL0     H13073   5.025   6.527  10.978 -0.6898  1.0072 -0.8496
  838MOL0     H13074   4.862   6.489  10.974  0.5097 -1.9571  0.2879
  838MOL0     H13075   4.952   6.250  10.882  0.5285  0.5955  0.1778
  838MOL0     H13076   5.112   6.324  10.925  0.7884  0.8055  1.2996
  838MOL0     H13077   4.880   6.310  11.120  0.3729 -1.7362  0.4517
  838MOL0     H13078   5.056   6.322  11.156  0.9437  2.3150 -0.8641
  838MOL0     H13079   4.922   6.112  11.209  2.1745 -1.6837  1.6190
  838MOL0     H13080   4.913   6.103  11.030 -0.0856  1.0148  0.8222
  838MOL0     H13081   5.165   6.060  11.329  1.3053 -0.2549 -0.5962
  838MOL0     H13082   5.511   5.992  11.159  1.3838  0.4803  0.9962
  838MOL0     H13083   5.442   6.032  11.323 -2.9355 -0.2077  1.7265
  838MOL0     H13084   5.563   5.821  11.296  0.1194  1.6753 -1.3699
  838MOL0     H13085   5.402   5.781  11.360 -1.2297 -0.0416  1.0202
  838MOL0     H13086   5.508   5.742  11.088 -0.0360  0.2378  0.5020
  838MOL0     H13087   5.332   5.728  11.121 -1.2343  0.9782  0.6492
  838MOL0     H13088   5.409   5.502  11.148  1.1989 -0.9684 -0.7127
  838MOL0     H13089   5.357   5.584  11.295  1.9228 -1.2311  1.8647
  838MOL0     H13090   5.763   5.475  11.421 -0.0114  0.8095  0.6167
  838MOL0     H13091   5.985   5.403  11.327  1.6217  1.8424 -1.1700
  838MOL0     H13092   6.284   5.475  11.073 -0.9288  1.2790 -0.7936
  838MOL0     H13093   6.505   5.550  10.971 -0.9477  2.3260 -0.3432
  838MOL0     H13094   6.727   5.473  10.851  2.9931  1.2548 -2.7744
  838MOL0     H13095   6.660   5.369  10.736  0.7077  0.2228  0.1256
  838MOL0     H13096   6.791   5.612  10.626  2.0982  0.5151 -0.8317
  838MOL0     H13097   6.897   5.505  10.721 -1.3087  2.6498  1.1902
  838MOL0     H13098   6.920   5.406  10.515 -0.7969 -1.1311 -0.0816
  838MOL0     H13099   6.770   5.326  10.555 -0.6938 -0.1945  0.1506
  838MOL0     H13100   6.832   5.520  10.339 -1.3927  4.0444 -0.1888
  838MOL0     H13101   6.705   5.584  10.444  0.3360  1.9475 -0.1783
  838MOL0     H13102   6.614   5.458  10.256  5.0904 -1.2697 -2.9561
  838MOL0     H13103   6.571   5.363  10.393 -2.0208 -0.1144 -1.5684
  838MOL0     H13104   6.772   5.329  10.170  2.0285  0.0354  0.6285
  838MOL0     H13105   6.825   5.265  10.321  0.3949 -2.7969 -2.2740
  838MOL0     H13106   6.672   5.091  10.321  1.2329 -0.2747 -0.0444
  838MOL0     H13107   6.716   5.102  10.159  1.4133 -1.1604 -0.0823
  838MOL0     H13108   6.459   5.243  10.270 -2.4748 -1.0624 -0.7426
  838MOL0     H13109   6.501   5.227  10.100 -0.5848  0.9391  0.7340
  838MOL0     H13110   6.358   5.524  10.591 -1.9055 -0.7173 -1.5923
  838MOL0     H13111   6.137   5.430  10.674 -3.8746  3.0237  2.8806
  838MOL0     H13112   5.821   5.477  10.929 -1.2655  0.4711 -0.4755
  838MOL0     H13113   5.611   5.544  11.020  0.5238 -0.8046 -1.1116
  838MOL0     H13114   4.636   7.036  10.620  0.2944  0.6789 -5.3871
  838MOL0     H13115   4.467   7.195  10.585 -1.5344 -0.9991 -2.2195
  838MOL0     H13116   3.958   7.245  10.797 -2.6138  1.9164  1.7983
  838MOL0     H13117   3.747   7.320  10.713  0.8992 -0.7283  1.2967
  838MOL0     H13118   3.574   7.465  10.649  0.6262  1.3050  0.7860
  838MOL0     H13119   3.576   7.321  10.541  0.9045  0.2353  0.7020
  838MOL0     H13120   3.536   7.599  10.420  0.0077 -0.5029 -2.4455
  838MOL0     H13121   3.400   7.556  10.520  0.6464  0.7533  0.8841
  838MOL0     H13122   3.333   7.475  10.293  0.6462 -1.0913 -0.7946
  838MOL0     H13123   3.377   7.341  10.395 -0.2035  0.2954  1.8834
  838MOL0     H13124   3.573   7.482  10.206  2.2995 -1.5090 -1.9575
  838MOL0     H13125   3.602   7.333  10.293 -1.9798 -2.9883 -2.5926
  838MOL0     H13126   3.367   7.217   9.952  1.0188 -0.7126 -0.8046
  838MOL0     H13127   3.939   7.543  10.407  0.6011  0.9228  0.1214
  838MOL0     H13128   4.179   7.541  10.399 -0.6240  0.6007 -0.2048
  838MOL0     H13129   4.279   7.416  10.468 -0.3365  2.0645 -1.1557
  838MOL0     H13130   4.171   7.372  10.337  0.3521  0.1366 -0.8488
  839MOL0     O13131   3.565   3.576   1.752 -0.8238 -0.6651  0.1975
  839MOL0     C13132   3.649   3.593   1.661 -0.6350  0.0232 -0.5602
  839MOL0     O13133   3.681   3.491   1.565 -0.4997  0.1242  0.1357
  839MOL0     C13134   3.608   3.373   1.568  0.2786  0.7569 -0.8372
  839MOL0     C13135   3.468   3.360   1.600  0.1197 -0.3087  0.2101
  839MOL0     C13136   3.412   3.238   1.610  0.3991 -0.3305  0.0908
  839MOL0     C13137   3.480   3.120   1.583  0.1641  0.4677  1.0368
  839MOL0     O13138   3.419   2.993   1.575 -0.0560 -0.6298 -0.4487
  839MOL0     C13139   3.294   2.977   1.635 -0.3223  0.2995  0.3855
  839MOL0     C13140   3.168   3.025   1.546 -0.2618  0.2199  0.2168
  839MOL0     C13141   3.043   3.058   1.623  0.4082 -0.1828 -0.3060
  839MOL0     C13142   2.978   2.924   1.654 -0.4062 -0.3648  0.2978
  839MOL0     C13143   2.897   2.931   1.780 -0.5384  0.3968 -0.5175
  839MOL0     C13144   2.814   2.803   1.815 -0.5298 -0.7006  0.6757
  839MOL0     C13145   2.810   2.775   1.970 -0.1143 -0.1303  0.7192
  839MOL0     C13146   2.747   2.891   2.057  0.9587 -0.5441 -0.6945
  839MOL0     N13147   2.608   2.936   2.012 -0.2705 -0.9178  0.5314
  839MOL0     C13148   2.542   3.041   2.076 -0.4397  0.1741 -0.6525
  839MOL0     C13149   2.422   3.044   2.017  0.0174  0.1156 -0.0538
  839MOL0     C13150   2.312   3.150   2.042  0.8382  0.6991 -0.5264
  839MOL0     C13151   2.268   3.236   1.923  0.2472  0.3641  0.2676
  839MOL0     C13152   2.128   3.298   1.954 -0.2520  1.0047 -0.4045
  839MOL0     C13153   2.078   3.390   1.853  0.1850  0.8814  0.0024
  839MOL0     O13154   1.969   3.472   1.894 -0.0605  0.7003  0.0852
  839MOL0     C13155   1.984   3.579   1.970  1.2776  0.2227  0.5187
  839MOL0     C13156   1.883   3.617   2.057 -0.0544 -0.2232  0.1050
  839MOL0     C13157   1.900   3.718   2.150 -0.8529  0.0935  1.4870
  839MOL0     C13158   2.032   3.773   2.166  0.3770 -0.1931 -0.7608
  839MOL0     C13159   2.055   3.885   2.260 -0.0202  0.2550  0.8189
  839MOL0     O13160   2.180   3.926   2.277  0.7861  0.2338 -0.0387
  839MOL0     C13161   2.207   4.039   2.345  0.0360  0.3851 -0.6220
  839MOL0     C13162   2.198   4.161   2.281 -0.6059  0.4098 -0.9116
  839MOL0     C13163   2.246   4.277   2.346 -0.5870  0.5990  0.1488
  839MOL0     C13164   2.301   4.270   2.478  0.3770 -0.4361 -0.2556
  839MOL0     O13165   2.341   4.395   2.530 -0.4140 -1.1428  0.2105
  839MOL0     C13166   2.350   4.425   2.673 -0.0749  0.6219  0.3616
  839MOL0     C13167   2.481   4.386   2.725 -0.5012  0.7656  0.2230
  839MOL0     C13168   2.502   4.438   2.873  0.7104  0.1906  0.6525
  839MOL0     C13169   2.652   4.408   2.912 -0.1952 -0.4633 -0.3489
  839MOL0     C13170   2.667   4.436   3.068  0.0369 -0.1992  0.1668
  839MOL0     C13171   2.656   4.570   3.119 -0.0181  0.6124 -0.4485
  839MOL0     C13172   2.673   4.555   3.271 -1.4438 -0.1369  0.2908
  839MOL0     C13173   2.768   4.665   3.335  0.3839 -0.4286 -0.9064
  839MOL0    Cl13174   2.760   4.642   3.524 -0.1716 -0.3353  0.2804
  839MOL0     C13175   2.294   4.145   2.546 -0.3973  0.0211 -0.1193
  839MOL0     C13176   2.256   4.028   2.476  0.8687 -0.0119 -0.2338
  839MOL0     O13177   1.968   3.931   2.310  0.5516  0.1698 -0.1008
  839MOL0     C13178   2.138   3.725   2.094  0.9366  0.1925  0.8205
  839MOL0     C13179   2.112   3.638   1.992 -0.3718 -0.8344  1.0466
  839MOL0     N13180   2.412   2.940   1.932  0.1372 -0.7601  0.0162
  839MOL0     N13181   2.517   2.872   1.924 -0.3339  0.0271  0.1952
  839MOL0     C13182   3.615   3.124   1.558  1.7080 -0.4108  0.4721
  839MOL0     C13183   3.677   3.250   1.549  0.5177  0.1102  0.0718
  839MOL0     C13184   3.723   3.719   1.651 -0.3300  0.3614  0.1233
  839MOL0     C13185   3.831   3.729   1.561  0.0551 -0.6597 -0.4624
  839MOL0     C13186   3.910   3.843   1.543 -0.3741  1.1057 -0.1876
  839MOL0     C13187   3.892   3.949   1.625 -0.5264 -0.7086  0.5246
  839MOL0     O13188   3.974   4.057   1.590 -0.4874  0.3098  0.0185
  839MOL0     C13189   4.023   4.130   1.703  0.1627  0.0742 -0.4469
  839MOL0     C13190   4.172   4.164   1.684 -0.8695 -0.0596 -0.6760
  839MOL0     C13191   4.232   4.223   1.809  0.2308  0.0840  0.2242
  839MOL0     C13192   4.390   4.235   1.803 -0.4555  0.1952 -0.5906
  839MOL0     C13193   4.446   4.317   1.911 -0.6323  0.2880  0.9311
  839MOL0     C13194   4.489   4.388   1.997 -1.5028 -0.0626  0.6527
  839MOL0     C13195   3.787   3.949   1.722  0.4594  0.0083 -0.4859
  839MOL0     C13196   3.695   3.838   1.732 -0.2190  0.3107 -0.0057
  839MOL0     C13197   3.584   3.850   1.840 -0.9565  1.3227 -0.3906
  839MOL0     H13198   3.409   3.451   1.603  1.2997  0.5303 -0.9463
  839MOL0     H13199   3.310   3.235   1.649  0.4708 -1.4341  0.2330
  839MOL0     H13200   3.278   2.868   1.639 -2.7900  0.4741 -2.0079
  839MOL0     H13201   3.293   3.025   1.733  2.2133 -1.2500  1.2890
  839MOL0     H13202   3.150   2.942   1.476  1.2058  1.1160 -1.3175
  839MOL0     H13203   3.200   3.114   1.492  0.2707 -0.2375 -0.2348
  839MOL0     H13204   2.967   3.106   1.561  0.4858  0.8756  0.3830
  839MOL0     H13205   3.062   3.124   1.709  2.2307  2.0027 -2.2565
  839MOL0     H13206   2.923   2.903   1.562  0.3557 -4.2951  0.5538
  839MOL0     H13207   3.048   2.845   1.681  0.8483 -0.3009 -2.4990
  839MOL0     H13208   2.977   2.950   1.852 -0.8490 -2.0160  0.5759
  839MOL0     H13209   2.820   3.009   1.775 -1.7256 -0.7388 -0.5494
  839MOL0     H13210   2.719   2.807   1.761  0.1720  0.4277 -0.5326
  839MOL0     H13211   2.865   2.716   1.774  2.5267  1.9475 -1.6263
  839MOL0     H13212   2.911   2.765   2.010 -0.0853 -3.0698  0.1830
  839MOL0     H13213   2.752   2.684   1.991 -1.3185 -0.1076 -2.0462
  839MOL0     H13214   2.741   2.860   2.162  1.4493 -0.9541 -0.7827
  839MOL0     H13215   2.819   2.973   2.051  1.8627 -1.3138 -0.5549
  839MOL0     H13216   2.570   3.119   2.146  1.3459  0.1592 -1.3043
  839MOL0     H13217   2.225   3.098   2.084  3.5246 -3.0808  0.8352
  839MOL0     H13218   2.354   3.215   2.120  1.5136 -0.6963  0.3208
  839MOL0     H13219   2.350   3.303   1.898  1.6574 -2.1921 -2.7117
  839MOL0     H13220   2.258   3.170   1.836 -0.8872  0.1288  0.5646
  839MOL0     H13221   2.135   3.344   2.053  1.0360 -0.8538  0.4308
  839MOL0     H13222   2.051   3.222   1.971  1.6209 -0.8832  0.0568
  839MOL0     H13223   2.035   3.326   1.776 -0.7585 -1.5846  2.4164
  839MOL0     H13224   2.158   3.450   1.807  0.1250 -0.0325 -1.3579
  839MOL0     H13225   1.787   3.567   2.062 -0.1520 -0.0454  0.0174
  839MOL0     H13226   1.825   3.753   2.220 -1.8722 -1.4101  1.2041
  839MOL0     H13227   2.167   4.185   2.180 -1.8685 -2.0502 -1.1745
  839MOL0     H13228   2.254   4.377   2.305 -2.2806  0.0932 -1.5720
  839MOL0     H13229   2.318   4.528   2.690  1.3230  0.7549  2.5366
  839MOL0     H13230   2.266   4.366   2.710  0.9741 -3.5504 -3.1298
  839MOL0     H13231   2.497   4.278   2.718 -1.8075  0.6547 -1.3503
  839MOL0     H13232   2.560   4.435   2.666  0.7986  1.3731  2.3284
  839MOL0     H13233   2.482   4.545   2.882 -2.1335 -0.2570  0.7471
  839MOL0     H13234   2.427   4.391   2.937 -0.5672  1.4121  0.1088
  839MOL0     H13235   2.711   4.479   2.853 -1.9050  1.0081 -0.3858
  839MOL0     H13236   2.680   4.304   2.892 -0.8700 -0.8220  0.5105
  839MOL0     H13237   2.758   4.385   3.099 -1.0357 -2.1529  0.2870
  839MOL0     H13238   2.581   4.380   3.106 -0.0366  1.5170  2.7929
  839MOL0     H13239   2.727   4.641   3.076 -0.9108  1.2526 -0.8824
  839MOL0     H13240   2.556   4.603   3.089 -1.3799 -1.1428  1.8008
  839MOL0     H13241   2.716   4.462   3.311  0.9810  1.4029  1.5153
  839MOL0     H13242   2.574   4.561   3.316 -0.9290 -3.0859  2.1246
  839MOL0     H13243   2.865   4.645   3.290 -0.3091  0.6803 -3.0384
  839MOL0     H13244   2.735   4.767   3.312 -0.4753 -0.9540 -2.0728
  839MOL0     H13245   2.314   4.136   2.652 -0.5230 -1.4741 -0.1978
  839MOL0     H13246   2.251   3.935   2.531  0.7139  1.9379  3.3075
  839MOL0     H13247   2.239   3.759   2.114 -0.1171  1.7868  4.1696
  839MOL0     H13248   2.187   3.599   1.924 -0.9161 -4.1158  2.1421
  839MOL0     H13249   3.666   3.030   1.542  2.4398  0.0430  0.1148
  839MOL0     H13250   3.784   3.240   1.530  0.7483  3.3378 -0.8652
  839MOL0     H13251   3.840   3.652   1.485 -1.2816  1.4192 -2.9003
  839MOL0     H13252   3.995   3.839   1.476  0.7442 -1.1004  1.2542
  839MOL0     H13253   4.011   4.067   1.791 -1.5134  1.2702  0.2286
  839MOL0     H13254   3.971   4.224   1.721  2.3378  1.7519 -2.3960
  839MOL0     H13255   4.187   4.233   1.600 -1.3307 -0.3975 -1.0389
  839MOL0     H13256   4.222   4.068   1.667  0.3283  0.1907  1.0828
  839MOL0     H13257   4.217   4.165   1.900 -0.6719 -0.6322 -0.3633
  839MOL0     H13258   4.192   4.324   1.825  1.4468  0.6479 -0.1794
  839MOL0     H13259   4.438   4.137   1.799 -0.7533 -0.0520  1.1245
  839MOL0     H13260   4.405   4.280   1.704 -0.9271  2.5088  0.3171
  839MOL0     H13261   4.536   4.432   2.083  0.0932 -1.8110  0.7482
  839MOL0     H13262   3.774   4.039   1.780  0.1008 -1.0459  1.1420
  839MOL0     H13263   3.580   3.945   1.894  0.2018  0.3146  1.5934
  839MOL0     H13264   3.485   3.828   1.799 -0.7841 -0.2769 -0.0077
  839MOL0     H13265   3.603   3.777   1.919  0.2518  1.8857 -0.1311
  840MOL0     O13266   6.460   2.357   8.940 -0.5874 -0.2278  0.1992
  840MOL0     C13267   6.577   2.384   8.949  0.5950 -0.5713 -0.5349
  840MOL0     O13268   6.674   2.355   8.852 -0.9934 -0.0951 -0.7124
  840MOL0     C13269   6.655   2.302   8.729 -0.4604 -0.2265 -0.8912
  840MOL0     C13270   6.743   2.205   8.676  0.3247  0.0203 -0.4419
  840MOL0     C13271   6.706   2.143   8.551 -0.3208 -0.0792 -0.7905
  840MOL0     C13272   6.595   2.188   8.475 -0.2106 -0.3913 -0.4784
  840MOL0     O13273   6.560   2.156   8.343  0.0641  0.0991 -0.1338
  840MOL0     C13274   6.620   2.029   8.290  1.0572 -1.8368  0.1617
  840MOL0     C13275   6.560   2.000   8.158 -0.8453  0.2350  0.9209
  840MOL0     C13276   6.641   1.880   8.088  0.6070  0.6268  0.2722
  840MOL0     C13277   6.594   1.738   8.124 -0.5977  0.1101  0.0718
  840MOL0     C13278   6.708   1.640   8.090 -0.5582  0.1241  1.0614
  840MOL0     C13279   6.681   1.494   8.157 -0.3800 -0.0296  0.4000
  840MOL0     C13280   6.797   1.391   8.134  0.5850 -0.2286 -0.4495
  840MOL0     C13281   6.928   1.442   8.192  0.3321 -0.0704  0.1372
  840MOL0     N13282   7.039   1.347   8.185  0.2954 -0.8466  0.2886
  840MOL0     C13283   7.046   1.222   8.235  1.1537 -0.0566  0.5209
  840MOL0     C13284   7.174   1.194   8.209 -0.3815  0.1734  0.1948
  840MOL0     C13285   7.242   1.069   8.268 -0.0646  0.0913 -0.1984
  840MOL0     C13286   7.264   1.054   8.426 -0.2122 -0.2069  0.1151
  840MOL0     C13287   7.416   1.063   8.472 -0.1112 -0.4664 -0.0521
  840MOL0     C13288   7.444   1.016   8.619  0.9483 -0.2367  0.0292
  840MOL0     O13289   7.371   0.888   8.652  0.3255 -0.7003  0.3929
  840MOL0     C13290   7.369   0.858   8.788  0.2336 -0.1760 -0.4079
  840MOL0     C13291   7.478   0.881   8.873  0.1994  0.0039  0.2140
  840MOL0     C13292   7.487   0.836   8.999  0.7218 -0.3806 -1.1831
  840MOL0     C13293   7.380   0.781   9.060 -0.3199  0.2703 -0.0918
  840MOL0     C13294   7.394   0.725   9.200 -1.0546 -1.5219 -0.6831
  840MOL0     O13295   7.500   0.767   9.270  0.4573  0.2839 -0.3993
  840MOL0     C13296   7.515   0.741   9.403  0.2655 -0.2719 -0.7862
  840MOL0     C13297   7.523   0.844   9.500 -0.3852  0.4846 -0.5766
  840MOL0     C13298   7.545   0.812   9.636  1.1469  0.5637 -0.1016
  840MOL0     C13299   7.548   0.678   9.683 -0.3400 -0.5062 -0.4629
  840MOL0     O13300   7.560   0.674   9.822 -1.5578 -0.2162  0.4730
  840MOL0     C13301   7.534   0.553   9.894 -0.6365 -0.0324 -0.0098
  840MOL0     C13302   7.537   0.581  10.039 -0.9470  1.0532  0.1819
  840MOL0     C13303   7.668   0.649  10.099  0.2822 -0.8260  0.0208
  840MOL0     C13304   7.653   0.699  10.241 -0.0085  0.2531 -0.6679
  840MOL0     C13305   7.782   0.771  10.281  0.3329 -0.4053 -0.3748
  840MOL0     C13306   7.747   0.804  10.427  0.2012 -0.2669  0.3074
  840MOL0     C13307   7.860   0.889  10.486  0.9079 -0.0768 -0.4362
  840MOL0     C13308   7.834   0.919  10.640 -0.5149  0.5162 -0.6732
  840MOL0    Cl13309   7.670   0.982  10.667  0.8232 -0.2798 -0.0477
  840MOL0     C13310   7.537   0.575   9.587  0.9450  0.2173 -1.1439
  840MOL0     C13311   7.520   0.612   9.453  0.5606 -0.3261 -0.4494
  840MOL0     O13312   7.311   0.644   9.237 -0.2638  0.3470  0.7132
  840MOL0     C13313   7.261   0.757   8.980 -0.0244  1.3481 -0.0048
  840MOL0     C13314   7.259   0.787   8.842 -0.3873 -0.3138  0.1000
  840MOL0     N13315   7.234   1.299   8.150 -0.5172 -0.2175 -0.3758
  840MOL0     N13316   7.149   1.385   8.118  0.8674  0.0580  0.6799
  840MOL0     C13317   6.514   2.290   8.525 -0.3821 -0.2635  0.5411
  840MOL0     C13318   6.543   2.345   8.651  0.0675  0.3905  0.6031
  840MOL0     C13319   6.631   2.430   9.082  0.2693  0.0719 -0.0109
  840MOL0     C13320   6.767   2.391   9.118 -0.0982 -0.5048 -0.6570
  840MOL0     C13321   6.813   2.432   9.241 -1.2605  1.2227 -0.9702
  840MOL0     C13322   6.737   2.491   9.337 -0.2176  1.2050  0.1486
  840MOL0     O13323   6.776   2.514   9.468 -0.4443 -0.4048 -0.1116
  840MOL0     C13324   6.917   2.499   9.517 -0.2969  0.0487  0.7366
  840MOL0     C13325   6.998   2.622   9.538  0.0945 -0.0068 -0.4113
  840MOL0     C13326   7.145   2.596   9.583 -0.0370  0.3947 -0.2709
  840MOL0     C13327   7.168   2.587   9.727  0.8651 -0.0397  0.1817
  840MOL0     C13328   7.297   2.529   9.762 -0.5533  0.6534 -0.2191
  840MOL0     C13329   7.406   2.469   9.769  0.1147  0.1923 -0.0797
  840MOL0     C13330   6.608   2.534   9.303  0.6454 -0.1063  0.2773
  840MOL0     C13331   6.554   2.505   9.174 -0.0800 -0.8833 -0.4903
  840MOL0     C13332   6.425   2.583   9.135 -0.5409  0.8599 -0.0646
  840MOL0     H13333   6.836   2.180   8.727  1.7828 -0.7610 -3.2789
  840MOL0     H13334   6.769   2.072   8.498 -0.3982  0.2973 -1.4010
  840MOL0     H13335   6.729   2.034   8.288  1.1500 -2.1168  2.0443
  840MOL0     H13336   6.581   1.951   8.357 -2.8542  0.2652  0.6450
  840MOL0     H13337   6.576   2.085   8.092  1.1412  0.8508  2.1293
  840MOL0     H13338   6.457   1.964   8.170  0.1169 -2.8193  0.9510
  840MOL0     H13339   6.747   1.886   8.115  0.9205 -3.4110  0.5998
  840MOL0     H13340   6.643   1.896   7.979 -1.7686  0.2596  0.1376
  840MOL0     H13341   6.571   1.736   8.231 -0.0524  1.1400  0.2182
  840MOL0     H13342   6.508   1.702   8.068 -0.1016 -1.5176  0.2904
  840MOL0     H13343   6.722   1.628   7.982  2.6982  1.0011  1.2780
  840MOL0     H13344   6.801   1.682   8.131  0.4488 -2.1631  1.2652
  840MOL0     H13345   6.654   1.499   8.263 -3.4058  0.9406 -0.2939
  840MOL0     H13346   6.593   1.450   8.108 -0.0691 -1.6780  1.2320
  840MOL0     H13347   6.815   1.378   8.027  0.8896  1.2430 -0.5979
  840MOL0     H13348   6.784   1.298   8.190 -1.8209 -0.1035 -0.7178
  840MOL0     H13349   6.960   1.540   8.154  0.5559  0.4721  1.6574
  840MOL0     H13350   6.915   1.458   8.299 -1.2825  1.7896 -0.2723
  840MOL0     H13351   6.970   1.171   8.294  1.3591 -2.7637 -1.3615
  840MOL0     H13352   7.172   0.989   8.244 -0.4076  0.3258  0.0152
  840MOL0     H13353   7.330   1.040   8.210  0.8353 -0.9666  1.5983
  840MOL0     H13354   7.203   1.134   8.470 -0.3722 -0.6755  0.7537
  840MOL0     H13355   7.211   0.965   8.460  0.2629 -1.1907 -1.5808
  840MOL0     H13356   7.447   1.168   8.479  0.3497 -0.6362  0.6461
  840MOL0     H13357   7.488   1.021   8.401 -0.3576 -1.1987  0.1208
  840MOL0     H13358   7.406   1.099   8.679  1.7324  0.7316 -0.7644
  840MOL0     H13359   7.549   1.012   8.649  0.1317 -3.2294  3.0970
  840MOL0     H13360   7.571   0.920   8.832  1.6335 -0.3606  2.8805
  840MOL0     H13361   7.586   0.834   9.044 -0.4113  2.2249  1.7675
  840MOL0     H13362   7.515   0.946   9.463 -0.9194  0.4466 -0.5785
  840MOL0     H13363   7.543   0.895   9.706 -1.7435  0.5495 -0.0440
  840MOL0     H13364   7.443   0.502   9.863  0.3925 -3.6318  2.3011
  840MOL0     H13365   7.620   0.495   9.860  1.0010  3.0219 -1.4777
  840MOL0     H13366   7.446   0.635  10.067 -0.5469  0.8685  1.9598
  840MOL0     H13367   7.528   0.493  10.103 -2.4597  1.9569  1.2709
  840MOL0     H13368   7.744   0.571  10.095 -1.2323 -2.3586 -3.8419
  840MOL0     H13369   7.696   0.731  10.032  0.2809  0.5613  1.6303
  840MOL0     H13370   7.643   0.610  10.303  2.6360  0.1442 -0.2571
  840MOL0     H13371   7.561   0.756  10.259  1.1973  1.6314  1.5562
  840MOL0     H13372   7.796   0.862  10.222  4.1282  0.8971  2.1441
  840MOL0     H13373   7.874   0.713  10.269  0.6873  0.1932 -0.6327
  840MOL0     H13374   7.655   0.864  10.437 -0.2062 -0.5326 -1.5745
  840MOL0     H13375   7.745   0.704  10.470 -5.0780 -2.0577 -3.1809
  840MOL0     H13376   7.847   0.980  10.426 -1.0129 -1.1442 -1.7490
  840MOL0     H13377   7.960   0.844  10.486  0.8760 -0.1699  0.7934
  840MOL0     H13378   7.833   0.828  10.702  2.5232  0.5937 -0.3193
  840MOL0     H13379   7.919   0.984  10.663  0.5577 -0.1189 -2.6198
  840MOL0     H13380   7.537   0.470   9.617 -3.6449  1.4689  5.5388
  840MOL0     H13381   7.523   0.537   9.375  1.7843 -2.5055  1.5602
  840MOL0     H13382   7.180   0.704   9.028  2.1170 -1.8877  0.3994
  840MOL0     H13383   7.164   0.779   8.790 -1.2901  0.9072  1.4886
  840MOL0     H13384   6.437   2.327   8.459  1.0955  0.7650 -0.6438
  840MOL0     H13385   6.470   2.415   8.691  0.3016  0.5600  0.7367
  840MOL0     H13386   6.832   2.331   9.055  0.6989 -0.6746  0.2986
  840MOL0     H13387   6.918   2.410   9.256 -1.2277  1.3854 -0.9569
  840MOL0     H13388   6.977   2.434   9.453  0.3975 -0.1061  1.5267
  840MOL0     H13389   6.918   2.442   9.611  2.0150 -1.5065 -0.1420
  840MOL0     H13390   6.959   2.694   9.611  1.9018  1.3069 -0.6800
  840MOL0     H13391   6.993   2.674   9.442  0.4037  0.6020 -0.1050
  840MOL0     H13392   7.204   2.680   9.544  1.8538 -0.4864  0.5457
  840MOL0     H13393   7.181   2.505   9.533  1.1853  1.9619 -2.4286
  840MOL0     H13394   7.155   2.686   9.772  0.1271  0.1656 -0.4748
  840MOL0     H13395   7.093   2.523   9.775 -1.5763  2.5843  0.1187
  840MOL0     H13396   7.486   2.417   9.820 -1.5312 -0.2535  2.2391
  840MOL0     H13397   6.564   2.595   9.382  2.4889  1.0612  0.4593
  840MOL0     H13398   6.459   2.686   9.125 -0.1175  0.7384  0.0882
  840MOL0     H13399   6.382   2.557   9.038 -0.9605  1.1930  0.0282
  840MOL0     H13400   6.354   2.572   9.218  0.6205 -1.5721  0.7159
  841MOL0     O13401   2.661   5.856   2.486 -0.8261  0.2329 -0.4126
  841MOL0     C13402   2.597   5.762   2.451 -0.1106  0.0611 -0.8195
  841MOL0     O13403   2.593   5.708   2.317 -0.0296  0.0724 -0.6091
  841MOL0     C13404   2.663   5.750   2.204 -0.6805 -0.7640 -0.2708
  841MOL0     C13405   2.599   5.740   2.076  0.1055  0.1367  0.5354
  841MOL0     C13406   2.677   5.774   1.969  0.7527  0.0630  0.0546
  841MOL0     C13407   2.813   5.820   1.971  1.2019 -0.1344  0.3259
  841MOL0     O13408   2.895   5.874   1.861  0.7559 -0.0908 -0.3193
  841MOL0     C13409   2.820   5.910   1.744  0.2907 -1.0587 -0.6799
  841MOL0     C13410   2.792   5.790   1.644  0.2725  1.2437 -0.1852
  841MOL0     C13411   2.917   5.757   1.550  0.6158  0.3022  0.2736
  841MOL0     C13412   2.870   5.668   1.436 -0.0155 -0.7446 -0.0249
  841MOL0     C13413   2.793   5.760   1.337  0.1083  0.0023  0.3666
  841MOL0     C13414   2.749   5.687   1.214 -0.7459 -0.1155 -0.0078
  841MOL0     C13415   2.710   5.786   1.103 -0.2170  0.0578  0.2411
  841MOL0     C13416   2.818   5.857   1.025 -0.1524  0.7802  0.0881
  841MOL0     N13417   2.758   5.963   0.941 -0.4882  0.3247 -0.9231
  841MOL0     C13418   2.661   5.937   0.848  1.2229  0.7798  0.0699
  841MOL0     C13419   2.614   6.057   0.810  0.0889  0.1221  0.3371
  841MOL0     C13420   2.513   6.079   0.698 -1.1509  0.5198  0.0507
  841MOL0     C13421   2.529   6.215   0.628 -0.5976 -0.7141 -0.4966
  841MOL0     C13422   2.479   6.219   0.480 -0.8531  0.8501  0.5193
  841MOL0     C13423   2.547   6.321   0.390  0.5648 -0.7023  0.9232
  841MOL0     O13424   2.469   6.439   0.417  0.3333 -0.8454  0.2118
  841MOL0     C13425   2.514   6.558   0.373  0.1974  0.0915  0.2581
  841MOL0     C13426   2.528   6.667   0.457 -0.7838 -0.1836 -0.4655
  841MOL0     C13427   2.579   6.791   0.417 -0.0907  0.7610  0.1505
  841MOL0     C13428   2.600   6.815   0.277  1.4711  0.2972 -0.8761
  841MOL0     C13429   2.620   6.948   0.215 -0.7723 -0.5753  0.9525
  841MOL0     O13430   2.646   6.956   0.073 -0.3904  0.7661  0.2891
  841MOL0     C13431   2.643   7.079   0.017 -0.9205  0.2052 -0.8432
  841MOL0     C13432   2.536   7.170   0.032 -0.0219  0.3673 -0.5411
  841MOL0     C13433   2.523   7.291  -0.036  0.3310 -0.0465  0.5124
  841MOL0     C13434   2.639   7.339  -0.107  1.0891  0.6464  0.6324
  841MOL0     O13435   2.632   7.453  -0.183 -0.2574 -0.0611 -1.0819
  841MOL0     C13436   2.562   7.572  -0.132 -0.2643  0.1238 -0.3176
  841MOL0     C13437   2.420   7.589  -0.210 -0.1252  0.0076 -0.0099
  841MOL0     C13438   2.450   7.643  -0.350 -0.2671 -0.3787 -0.0915
  841MOL0     C13439   2.317   7.649  -0.429  0.5598 -0.5601  0.4367
  841MOL0     C13440   2.315   7.729  -0.557  0.0073 -0.3577  0.2927
  841MOL0     C13441   2.407   7.663  -0.673 -0.2008 -0.5427  0.1064
  841MOL0     C13442   2.421   7.759  -0.788  0.2673  0.8203  0.6716
  841MOL0     C13443   2.525   7.710  -0.892  0.6722  0.2830  0.3354
  841MOL0    Cl13444   2.672   7.671  -0.803  0.1728 -0.2687  0.0959
  841MOL0     C13445   2.748   7.249  -0.116  0.3303  0.2948 -0.8159
  841MOL0     C13446   2.745   7.124  -0.060  0.6157 -0.3539 -0.1582
  841MOL0     O13447   2.618   7.035   0.297 -0.2294 -0.1279  0.1047
  841MOL0     C13448   2.593   6.703   0.194  0.3059  0.4549  0.2161
  841MOL0     C13449   2.550   6.578   0.246  0.5294 -0.8472  0.6719
  841MOL0     N13450   2.675   6.156   0.883  0.3771  0.3143 -0.3001
  841MOL0     N13451   2.763   6.099   0.962 -0.0217  0.4013  0.1582
  841MOL0     C13452   2.871   5.825   2.096  0.7003  0.9017 -0.8408
  841MOL0     C13453   2.795   5.797   2.215 -1.1223 -0.3614  0.4618
  841MOL0     C13454   2.502   5.710   2.549  0.7372 -0.7503  0.1759
  841MOL0     C13455   2.534   5.697   2.680  0.5099  0.6134  0.1235
  841MOL0     C13456   2.431   5.665   2.767 -0.4622 -0.0557  0.4605
  841MOL0     C13457   2.302   5.649   2.742  0.1868 -0.4002 -0.0599
  841MOL0     O13458   2.207   5.619   2.838  0.4870 -0.0682  0.2495
  841MOL0     C13459   2.135   5.491   2.819 -0.2815  1.1041 -0.5895
  841MOL0     C13460   2.008   5.483   2.892  0.6711  0.2396 -0.4531
  841MOL0     C13461   2.044   5.462   3.045 -0.4921  0.2995 -0.2040
  841MOL0     C13462   1.924   5.444   3.150 -0.7379  0.0974 -0.1394
  841MOL0     C13463   1.855   5.567   3.179  0.7679 -0.2138 -0.3003
  841MOL0     C13464   1.783   5.663   3.208  0.3005 -0.2276 -0.2239
  841MOL0     C13465   2.267   5.656   2.608 -0.2836 -0.3159 -0.5777
  841MOL0     C13466   2.360   5.688   2.506 -0.3387 -0.6680  0.1102
  841MOL0     C13467   2.302   5.707   2.365 -0.2293 -0.4715 -0.0451
  841MOL0     H13468   2.492   5.725   2.067  0.4846 -1.8406 -1.2679
  841MOL0     H13469   2.611   5.779   1.883 -2.3188 -0.0888  2.2440
  841MOL0     H13470   2.720   5.943   1.774  0.3829 -0.6016 -0.8655
  841MOL0     H13471   2.877   5.990   1.696  1.2347 -1.1866  0.1906
  841MOL0     H13472   2.701   5.808   1.586  1.5920  1.8725 -2.1635
  841MOL0     H13473   2.762   5.700   1.698 -4.8330  1.8792 -1.5108
  841MOL0     H13474   2.999   5.701   1.596 -1.0376 -1.8850  0.7322
  841MOL0     H13475   2.958   5.851   1.512  1.4663 -0.1691 -0.0061
  841MOL0     H13476   2.953   5.615   1.389  0.0374 -1.0181  0.3720
  841MOL0     H13477   2.794   5.596   1.469 -4.7039  4.6172  2.5188
  841MOL0     H13478   2.705   5.804   1.385 -1.2523 -0.3282 -1.6954
  841MOL0     H13479   2.862   5.836   1.299  0.2002 -1.5417 -2.8616
  841MOL0     H13480   2.836   5.624   1.194  0.0908 -0.1673  3.2185
  841MOL0     H13481   2.661   5.627   1.238 -2.1859  2.5957  1.9861
  841MOL0     H13482   2.644   5.868   1.134 -3.3577 -2.6755  1.4876
  841MOL0     H13483   2.651   5.730   1.029  1.3361 -0.3875 -0.7175
  841MOL0     H13484   2.896   5.898   1.090  0.5362  1.4285 -1.1246
  841MOL0     H13485   2.863   5.781   0.961 -4.3043 -0.0534 -2.1705
  841MOL0     H13486   2.653   5.838   0.804  0.4530  0.5253  0.7459
  841MOL0     H13487   2.519   5.989   0.637  0.3059 -0.6847  1.8424
  841MOL0     H13488   2.414   6.071   0.743 -1.7806  0.0034 -1.3785
  841MOL0     H13489   2.482   6.296   0.683  1.7169 -0.8614  1.9375
  841MOL0     H13490   2.636   6.236   0.637 -0.4368 -1.9015  0.7417
  841MOL0     H13491   2.373   6.249   0.482 -1.0719  0.4044 -1.9389
  841MOL0     H13492   2.488   6.120   0.434  0.2988 -0.3917  3.2144
  841MOL0     H13493   2.529   6.287   0.287 -0.1823 -3.6571  1.9375
  841MOL0     H13494   2.656   6.334   0.397  0.8607  0.6587 -3.1841
  841MOL0     H13495   2.508   6.649   0.562 -1.6584  0.1609 -0.5668
  841MOL0     H13496   2.595   6.875   0.483  2.6579 -0.0016  0.6117
  841MOL0     H13497   2.455   7.137   0.096  0.1597  1.2723  0.1768
  841MOL0     H13498   2.438   7.356  -0.021 -0.5512 -0.8714 -0.7221
  841MOL0     H13499   2.550   7.566  -0.024  2.2177  1.0868  0.0737
  841MOL0     H13500   2.634   7.654  -0.137  0.8784 -0.3170  4.2812
  841MOL0     H13501   2.370   7.494  -0.227 -2.7377  1.6330 -2.2759
  841MOL0     H13502   2.361   7.666  -0.159  0.4929  1.5440 -1.5056
  841MOL0     H13503   2.484   7.745  -0.331 -4.4706  1.0628  0.9263
  841MOL0     H13504   2.522   7.577  -0.398 -0.7100  0.2427 -1.6655
  841MOL0     H13505   2.239   7.697  -0.368  0.6553 -1.1449  1.0333
  841MOL0     H13506   2.277   7.555  -0.466  1.6734 -0.6736 -0.5329
  841MOL0     H13507   2.349   7.832  -0.542  3.3894 -1.1446 -0.9543
  841MOL0     H13508   2.211   7.731  -0.591  0.5801  1.5752 -1.5244
  841MOL0     H13509   2.506   7.634  -0.638 -1.4588 -1.8017  2.8544
  841MOL0     H13510   2.361   7.573  -0.713 -0.9728 -1.5469  3.0098
  841MOL0     H13511   2.457   7.854  -0.749 -0.0112  1.0405  0.3980
  841MOL0     H13512   2.330   7.774  -0.847  0.0648 -5.9130 -1.6729
  841MOL0     H13513   2.490   7.613  -0.928  1.8266 -1.4539  3.4632
  841MOL0     H13514   2.548   7.774  -0.977  1.1403 -0.2391  0.0650
  841MOL0     H13515   2.810   7.279  -0.200 -3.0301 -0.1948 -3.7278
  841MOL0     H13516   2.821   7.051  -0.086  1.1843 -0.0738  0.6545
  841MOL0     H13517   2.605   6.707   0.086 -0.1303 -0.9193  0.1030
  841MOL0     H13518   2.538   6.500   0.172  0.4278  0.3039 -0.5795
  841MOL0     H13519   2.970   5.856   2.128  0.3399 -2.8064  5.6145
  841MOL0     H13520   2.844   5.817   2.310  0.8639 -0.1917 -0.5408
  841MOL0     H13521   2.636   5.710   2.714  0.6405 -3.6505  2.0170
  841MOL0     H13522   2.453   5.669   2.873 -1.5755 -0.7089  0.7423
  841MOL0     H13523   2.197   5.413   2.864 -0.5267  1.0289 -0.3778
  841MOL0     H13524   2.127   5.481   2.710 -2.3223 -1.2892 -0.2954
  841MOL0     H13525   1.956   5.397   2.850 -0.5613  0.8920 -0.3139
  841MOL0     H13526   1.953   5.574   2.867  0.6560  0.3383 -0.0717
  841MOL0     H13527   2.100   5.552   3.075 -0.5391  0.3063 -0.1364
  841MOL0     H13528   2.113   5.377   3.051 -2.9205 -1.6672  2.9364
  841MOL0     H13529   1.858   5.366   3.109 -4.0276  2.1159  0.9408
  841MOL0     H13530   1.956   5.389   3.239 -0.8012 -1.0137 -0.7742
  841MOL0     H13531   1.716   5.746   3.220 -1.6480 -1.7679  0.0350
  841MOL0     H13532   2.160   5.651   2.588  0.0087  1.7748 -3.1829
  841MOL0     H13533   2.235   5.627   2.331  1.0409 -0.6196 -2.3888
  841MOL0     H13534   2.238   5.796   2.370 -1.7731 -1.5990  2.4478
  841MOL0     H13535   2.370   5.712   2.279 -0.1092 -1.4591 -0.0214
  842MOL0     O13536   0.968   7.224   3.156 -0.3873 -0.6976  1.0925
  842MOL0     C13537   0.889   7.260   3.237 -0.2296 -0.1072 -1.1634
  842MOL0     O13538   0.811   7.178   3.312 -0.8502  0.6013  0.1893
  842MOL0     C13539   0.789   7.046   3.308 -0.0725  0.8670 -0.5203
  842MOL0     C13540   0.665   7.003   3.260 -0.5730  0.7397  0.7467
  842MOL0     C13541   0.639   6.861   3.269 -0.1955  0.0531 -0.4666
  842MOL0     C13542   0.739   6.765   3.300  0.2084  1.0988  0.1835
  842MOL0     O13543   0.717   6.629   3.316 -0.4332 -0.2755  0.0784
  842MOL0     C13544   0.592   6.566   3.278  0.1764  0.2864 -0.3328
  842MOL0     C13545   0.474   6.566   3.373  0.0667  1.1518  0.2468
  842MOL0     C13546   0.372   6.482   3.306  0.1875 -0.1908  0.1997
  842MOL0     C13547   0.229   6.490   3.359  0.3961 -0.6189 -1.2027
  842MOL0     C13548   0.147   6.611   3.300  0.1641  0.4550  0.6199
  842MOL0     C13549   0.006   6.589   3.332  0.6697  0.5577 -0.7426
  842MOL0     C13550  -0.068   6.489   3.243  0.4951  0.2556  0.4623
  842MOL0     C13551  -0.023   6.499   3.096 -0.0362  0.4115  0.5172
  842MOL0     N13552  -0.070   6.396   3.007 -0.5661  0.3462 -1.1794
  842MOL0     C13553   0.003   6.319   2.923  0.2140  0.0541 -0.1635
  842MOL0     C13554  -0.085   6.236   2.867 -0.9642  0.7993  0.0538
  842MOL0     C13555  -0.051   6.122   2.785  0.2579  0.5832 -0.2504
  842MOL0     C13556  -0.177   6.082   2.695 -0.1689  0.1117  0.1914
  842MOL0     C13557  -0.139   5.969   2.595  0.9978  0.5605  0.3462
  842MOL0     C13558  -0.018   6.005   2.501  0.4471 -0.2293  0.2783
  842MOL0     O13559  -0.038   6.125   2.427  1.4500 -0.4209  0.6902
  842MOL0     C13560  -0.038   6.122   2.290 -0.4793  0.9183 -0.4776
  842MOL0     C13561  -0.153   6.094   2.219 -0.3078 -0.2827 -0.5682
  842MOL0     C13562  -0.155   6.117   2.083 -0.2161 -0.1324 -0.1479
  842MOL0     C13563  -0.029   6.138   2.014  0.1050  0.4798 -1.0782
  842MOL0     C13564  -0.033   6.153   1.867 -0.2478  0.2260 -0.5743
  842MOL0     O13565  -0.160   6.147   1.799 -0.1677 -0.4348 -0.9363
  842MOL0     C13566  -0.138   6.159   1.666 -0.2997  0.6296  0.2622
  842MOL0     C13567  -0.086   6.288   1.614  0.1463  1.3523 -0.5060
  842MOL0     C13568  -0.070   6.301   1.475 -0.8651  1.0763 -0.3358
  842MOL0     C13569  -0.116   6.201   1.388 -0.6094  0.5740  0.9712
  842MOL0     O13570  -0.098   6.228   1.253 -0.4923  0.0516  1.0274
  842MOL0     C13571  -0.017   6.119   1.192 -0.5468  0.3949 -0.1259
  842MOL0     C13572  -0.095   6.029   1.101 -1.4248  0.9881 -0.5846
  842MOL0     C13573  -0.209   6.099   1.015 -0.1107  0.4354  1.3105
  842MOL0     C13574  -0.317   6.001   0.964 -0.6166 -0.2935 -0.3668
  842MOL0     C13575  -0.433   6.073   0.893 -0.4392  0.1511  0.6346
  842MOL0     C13576  -0.402   6.181   0.789 -0.7465  0.2304  0.1665
  842MOL0     C13577  -0.526   6.247   0.720  0.3770  0.6132  1.2276
  842MOL0     C13578  -0.482   6.338   0.600 -0.3780  0.1291  0.0043
  842MOL0    Cl13579  -0.423   6.493   0.683 -0.4456  0.3192  0.1290
  842MOL0     C13580  -0.175   6.085   1.436  0.4031 -1.1683  0.3128
  842MOL0     C13581  -0.180   6.058   1.576  1.0212 -0.5135 -0.1592
  842MOL0     O13582   0.081   6.163   1.813 -0.3795  0.1711 -0.1663
  842MOL0     C13583   0.088   6.150   2.092  0.2450  0.3511 -0.1299
  842MOL0     C13584   0.080   6.150   2.232 -0.3563 -0.0817 -0.0614
  842MOL0     N13585  -0.211   6.270   2.928  0.3343 -0.1079  0.9610
  842MOL0     N13586  -0.203   6.378   2.993  0.8687 -0.3583 -0.1677
  842MOL0     C13587   0.861   6.818   3.341 -0.2347 -0.2803 -0.1898
  842MOL0     C13588   0.887   6.950   3.332 -0.4740 -0.9589  0.3060
  842MOL0     C13589   0.901   7.404   3.286  0.1388  1.0925 -0.1764
  842MOL0     C13590   0.947   7.489   3.184 -0.4973  0.2633  0.0369
  842MOL0     C13591   0.988   7.621   3.221  0.6574 -0.1311 -0.2062
  842MOL0     C13592   0.978   7.665   3.354  1.3490 -0.0448 -0.5312
  842MOL0     O13593   1.002   7.792   3.412 -0.1207  0.6630  0.1563
  842MOL0     C13594   0.898   7.889   3.413  0.1983  0.6055 -0.0107
  842MOL0     C13595   0.929   7.991   3.307 -0.3694  0.8121 -0.5741
  842MOL0     C13596   0.829   8.110   3.314 -0.7779  0.5082  0.8231
  842MOL0     C13597   0.837   8.181   3.175 -0.1233  0.6484 -0.0900
  842MOL0     C13598   0.965   8.237   3.130  0.2345 -0.3709  0.6526
  842MOL0     C13599   1.066   8.282   3.081 -0.9072 -0.5707 -0.8162
  842MOL0     C13600   0.937   7.571   3.444  0.7885 -0.5147  0.2915
  842MOL0     C13601   0.891   7.439   3.423 -0.2487  0.0056 -0.1015
  842MOL0     C13602   0.861   7.350   3.534 -0.5503  0.1484  0.1583
  842MOL0     H13603   0.600   7.085   3.232 -1.0982  0.5830  1.4887
  842MOL0     H13604   0.541   6.818   3.248  0.8213 -2.7581  0.0037
  842MOL0     H13605   0.566   6.594   3.176  0.7849 -0.7525 -0.7961
  842MOL0     H13606   0.616   6.459   3.277 -0.7923  0.0619 -0.9560
  842MOL0     H13607   0.437   6.668   3.378 -2.2040  0.4216 -0.4078
  842MOL0     H13608   0.496   6.528   3.473 -1.9162 -2.1802 -0.4287
  842MOL0     H13609   0.393   6.375   3.301 -2.0299 -0.6772 -4.6985
  842MOL0     H13610   0.372   6.504   3.199  1.9919  0.1682  0.2373
  842MOL0     H13611   0.176   6.396   3.339 -2.9865 -0.0405  3.4500
  842MOL0     H13612   0.240   6.509   3.467 -1.6835  0.8823 -1.2027
  842MOL0     H13613   0.169   6.706   3.348  2.2279  0.9458 -1.1233
  842MOL0     H13614   0.176   6.634   3.197  1.2160 -1.6417  0.3840
  842MOL0     H13615  -0.011   6.550   3.433  1.0390 -3.6842 -2.1081
  842MOL0     H13616  -0.048   6.684   3.337 -0.4496  0.0478 -2.2560
  842MOL0     H13617  -0.172   6.516   3.260  0.2435 -1.6430  2.3703
  842MOL0     H13618  -0.054   6.384   3.270 -1.4419 -0.4670 -1.1066
  842MOL0     H13619  -0.053   6.597   3.059 -0.0301 -1.0744 -4.0484
  842MOL0     H13620   0.086   6.489   3.084 -0.2576  0.9563 -2.9738
  842MOL0     H13621   0.111   6.323   2.916  0.5186 -0.4124  2.9446
  842MOL0     H13622   0.038   6.162   2.734  0.4809  3.5083  2.1211
  842MOL0     H13623  -0.008   6.039   2.842  3.2506  2.2924  0.2101
  842MOL0     H13624  -0.268   6.060   2.751  0.3898 -4.9586 -0.4111
  842MOL0     H13625  -0.197   6.171   2.634 -1.5424 -0.7998 -0.7596
  842MOL0     H13626  -0.220   5.944   2.526 -1.2763  1.9185  2.3911
  842MOL0     H13627  -0.120   5.886   2.664  0.7222  0.0607 -0.1668
  842MOL0     H13628  -0.019   5.920   2.432 -3.5910 -0.8785  0.8840
  842MOL0     H13629   0.070   6.013   2.566  1.9921  0.7393 -1.8027
  842MOL0     H13630  -0.247   6.074   2.268 -0.6222 -1.0775 -1.4612
  842MOL0     H13631  -0.245   6.101   2.026 -1.9927  0.7822  2.2378
  842MOL0     H13632  -0.043   6.363   1.679 -1.5904  1.0957  1.0220
  842MOL0     H13633  -0.038   6.392   1.425 -0.7359  1.7959  1.0101
  842MOL0     H13634   0.072   6.158   1.142  1.2105 -1.7434  1.1594
  842MOL0     H13635   0.028   6.054   1.268 -3.8910 -0.7101  1.0880
  842MOL0     H13636  -0.024   5.968   1.044 -2.0554 -0.5331  0.2162
  842MOL0     H13637  -0.139   5.959   1.173 -0.8626  0.8861 -0.3318
  842MOL0     H13638  -0.262   6.172   1.077  0.2950  0.1004  2.0573
  842MOL0     H13639  -0.168   6.152   0.928  0.5521 -0.0070  1.3469
  842MOL0     H13640  -0.372   5.936   1.032 -0.5640 -3.0556 -2.8101
  842MOL0     H13641  -0.265   5.935   0.894 -1.9482 -0.2557 -1.4266
  842MOL0     H13642  -0.499   6.118   0.968 -4.2576 -1.0796 -1.6652
  842MOL0     H13643  -0.481   5.988   0.843 -0.4184 -0.7514  2.1023
  842MOL0     H13644  -0.341   6.261   0.832  0.5218 -0.1257 -0.9081
  842MOL0     H13645  -0.340   6.132   0.713 -0.9661 -1.4014  0.9755
  842MOL0     H13646  -0.586   6.296   0.797  0.3579  1.8805  0.4439
  842MOL0     H13647  -0.568   6.158   0.672  2.8493  0.6363 -1.2868
  842MOL0     H13648  -0.418   6.282   0.531 -0.3237  2.1012 -1.6395
  842MOL0     H13649  -0.569   6.367   0.540  0.2383 -0.0690 -1.0248
  842MOL0     H13650  -0.227   6.013   1.372  4.2448 -2.5877 -1.5287
  842MOL0     H13651  -0.212   5.960   1.609  3.2175 -1.1176  0.3012
  842MOL0     H13652   0.182   6.160   2.039  0.7487  1.9921  1.0057
  842MOL0     H13653   0.162   6.158   2.303  1.0859  1.1788 -1.7764
  842MOL0     H13654   0.937   6.753   3.382 -0.4166 -2.6707 -3.2066
  842MOL0     H13655   0.986   6.990   3.351  0.4240 -1.9463 -1.9508
  842MOL0     H13656   0.946   7.463   3.079 -1.5757  2.3317 -0.5189
  842MOL0     H13657   1.003   7.698   3.145 -0.8281 -3.5486 -4.3495
  842MOL0     H13658   0.913   7.932   3.513  0.9014  0.1097  0.1018
  842MOL0     H13659   0.798   7.848   3.401  1.0036 -0.8625 -2.2919
  842MOL0     H13660   0.926   7.940   3.210 -1.1390 -2.1490  0.8907
  842MOL0     H13661   1.029   8.028   3.332 -1.4833  2.4902  1.8296
  842MOL0     H13662   0.861   8.161   3.405  1.1357 -2.0864  1.7576
  842MOL0     H13663   0.726   8.074   3.325 -0.7989  1.2441  3.9568
  842MOL0     H13664   0.786   8.125   3.095  2.6158  1.9015 -2.9519
  842MOL0     H13665   0.779   8.274   3.179  0.4034  1.0842 -1.7071
  842MOL0     H13666   1.154   8.328   3.040 -0.0817 -0.5623  0.8620
  842MOL0     H13667   0.926   7.604   3.547  2.1835  1.8116 -0.2315
  842MOL0     H13668   0.898   7.248   3.518 -1.7524 -0.2041 -0.4856
  842MOL0     H13669   0.901   7.400   3.623  0.8242  2.9323 -1.8910
  842MOL0     H13670   0.752   7.348   3.540 -0.5366  0.5331  0.5669
  843MOL0     O13671   3.358   1.227   4.716  0.3018  0.6307 -0.0738
  843MOL0     C13672   3.337   1.106   4.716  0.0431 -1.2110 -0.5173
  843MOL0     O13673   3.415   1.010   4.780 -0.1943  0.8431  0.5374
  843MOL0     C13674   3.539   1.033   4.830  0.2255  0.5338  0.8042
  843MOL0     C13675   3.653   0.994   4.762 -0.4065  0.2343  0.0430
  843MOL0     C13676   3.779   0.987   4.826 -0.5117  0.0320  0.1522
  843MOL0     C13677   3.781   1.027   4.962 -0.2475  0.4920 -0.6645
  843MOL0     O13678   3.898   1.020   5.030  0.0130 -0.3999  0.3825
  843MOL0     C13679   3.988   1.127   4.982 -0.2676  0.2190 -0.1336
  843MOL0     C13680   4.114   1.137   5.072  0.1750  0.0109 -0.0316
  843MOL0     C13681   4.237   1.198   5.012 -0.8590  0.4958  0.1209
  843MOL0     C13682   4.289   1.089   4.908 -0.1797 -0.1066  0.3909
  843MOL0     C13683   4.435   1.128   4.889 -0.1867  0.2423 -0.3251
  843MOL0     C13684   4.466   1.255   4.815 -0.6545 -0.1484  0.3527
  843MOL0     C13685   4.598   1.249   4.738 -0.0160  1.8662  0.1474
  843MOL0     C13686   4.588   1.136   4.634 -0.8213 -0.0895  0.1118
  843MOL0     N13687   4.598   1.173   4.489  0.8041 -0.4507  0.7919
  843MOL0     C13688   4.515   1.268   4.432 -0.8436 -0.1762 -0.0722
  843MOL0     C13689   4.514   1.231   4.299 -0.3582  0.0440 -0.3358
  843MOL0     C13690   4.431   1.305   4.202  0.6426 -0.0572 -0.2049
  843MOL0     C13691   4.453   1.456   4.195 -0.0945 -0.0072 -0.3258
  843MOL0     C13692   4.338   1.545   4.151  0.1352 -0.4263  1.0123
  843MOL0     C13693   4.220   1.551   4.254  0.1082  0.0460 -0.2325
  843MOL0     O13694   4.134   1.440   4.223 -0.6768 -0.3764 -0.7654
  843MOL0     C13695   4.021   1.476   4.153 -0.3288  0.4831 -1.4064
  843MOL0     C13696   3.937   1.584   4.184 -0.4280  0.3188  0.1632
  843MOL0     C13697   3.815   1.599   4.121  0.0571  0.8224  0.6021
  843MOL0     C13698   3.773   1.518   4.010 -1.1762  0.4941 -0.6759
  843MOL0     C13699   3.631   1.502   3.961  0.0186 -0.9147 -0.5725
  843MOL0     O13700   3.594   1.400   3.883  0.9384  0.4542  0.0724
  843MOL0     C13701   3.469   1.389   3.819  0.4830  0.0125  0.0016
  843MOL0     C13702   3.349   1.407   3.883  1.1887  0.6355 -0.3064
  843MOL0     C13703   3.226   1.400   3.807 -0.1259  0.0821 -0.5685
  843MOL0     C13704   3.231   1.373   3.671 -1.0432  0.8375  0.2056
  843MOL0     O13705   3.105   1.374   3.612 -0.1332 -0.1420 -0.0966
  843MOL0     C13706   3.115   1.394   3.472  0.3713 -0.0362  0.3917
  843MOL0     C13707   2.980   1.431   3.414  0.1520 -1.0461  0.3989
  843MOL0     C13708   2.917   1.543   3.498  0.5940 -0.3761 -0.0466
  843MOL0     C13709   2.800   1.596   3.410 -0.4249  0.1489 -0.1527
  843MOL0     C13710   2.734   1.708   3.486  0.2211 -0.4665  0.1400
  843MOL0     C13711   2.615   1.764   3.405 -1.0363 -0.1194 -0.3667
  843MOL0     C13712   2.664   1.851   3.289 -1.0856  0.3556  0.7952
  843MOL0     C13713   2.544   1.944   3.254 -0.0618  0.9007  1.0313
  843MOL0    Cl13714   2.588   2.064   3.129 -0.2101  0.1092  0.1186
  843MOL0     C13715   3.356   1.341   3.605  0.7708 -1.5224  0.2965
  843MOL0     C13716   3.472   1.352   3.682  0.5609 -0.0613 -0.2890
  843MOL0     O13717   3.561   1.588   4.001  0.5577 -0.0175 -0.1147
  843MOL0     C13718   3.862   1.415   3.980 -0.3284 -0.3209 -0.3455
  843MOL0     C13719   3.982   1.394   4.044  1.0289 -0.8217  0.2572
  843MOL0     N13720   4.610   1.136   4.276  0.7317  0.1358  0.3075
  843MOL0     N13721   4.648   1.097   4.393 -0.1892 -0.3476  0.5504
  843MOL0     C13722   3.661   1.072   5.037  0.6135 -0.1894  0.5790
  843MOL0     C13723   3.539   1.059   4.967  0.5105  0.2587 -0.2608
  843MOL0     C13724   3.214   1.043   4.654  0.2072 -0.0478  0.7612
  843MOL0     C13725   3.204   0.907   4.643  0.0970 -0.4044 -0.2189
  843MOL0     C13726   3.099   0.851   4.582 -0.1939 -0.1137 -0.6663
  843MOL0     C13727   2.996   0.919   4.526 -1.5985 -0.2776 -0.7031
  843MOL0     O13728   2.910   0.852   4.451  1.2104  0.4430 -1.0044
  843MOL0     C13729   2.877   0.920   4.322 -0.0914  0.4065 -0.6370
  843MOL0     C13730   2.833   0.798   4.238  0.4779 -0.3163  0.1390
  843MOL0     C13731   2.947   0.709   4.205 -0.9900  0.0737 -0.1392
  843MOL0     C13732   2.911   0.563   4.216  0.4554  0.4281 -0.7052
  843MOL0     C13733   2.788   0.525   4.140 -0.6059  0.1358 -0.8074
  843MOL0     C13734   2.704   0.490   4.059 -0.2496  0.6570  0.2418
  843MOL0     C13735   2.989   1.059   4.550  0.6561  0.0581 -0.1899
  843MOL0     C13736   3.096   1.123   4.604  0.6532 -0.6651 -0.1213
  843MOL0     C13737   3.092   1.282   4.605  0.2851 -0.2664  0.1761
  843MOL0     H13738   3.650   0.969   4.657 -0.8117  3.6490 -0.8697
  843MOL0     H13739   3.871   0.958   4.776 -0.3982 -0.2434  0.5176
  843MOL0     H13740   4.028   1.098   4.885 -0.2286 -0.9415  0.2089
  843MOL0     H13741   3.940   1.226   4.982 -0.8094 -0.0159  1.1159
  843MOL0     H13742   4.138   1.039   5.115  0.4942  0.3500  0.5906
  843MOL0     H13743   4.084   1.186   5.166 -0.4152  1.9728 -1.1814
  843MOL0     H13744   4.314   1.214   5.087  3.2185  1.9525 -3.9536
  843MOL0     H13745   4.228   1.294   4.960  0.6018 -0.1667 -1.4361
  843MOL0     H13746   4.301   0.987   4.946  2.5836 -1.0873 -2.6044
  843MOL0     H13747   4.237   1.078   4.813 -1.7685  2.8773  0.7911
  843MOL0     H13748   4.480   1.129   4.989  1.3767 -0.1756 -0.9903
  843MOL0     H13749   4.477   1.038   4.843 -2.3322 -1.2918  0.5569
  843MOL0     H13750   4.383   1.274   4.747 -1.7368  0.2798  1.7344
  843MOL0     H13751   4.471   1.334   4.891 -1.8509  1.9515 -1.6415
  843MOL0     H13752   4.684   1.218   4.798  0.9166  0.2589 -1.8702
  843MOL0     H13753   4.622   1.343   4.687  0.7803  2.3125  1.3231
  843MOL0     H13754   4.669   1.070   4.667 -2.7661 -2.0071  1.2846
  843MOL0     H13755   4.500   1.072   4.640  1.2626 -3.0794  1.5612
  843MOL0     H13756   4.461   1.350   4.477  2.0859  1.4684  0.6920
  843MOL0     H13757   4.457   1.266   4.103  0.5966 -1.1477  0.2031
  843MOL0     H13758   4.322   1.297   4.215  0.5821 -1.0059 -1.1082
  843MOL0     H13759   4.490   1.490   4.292  2.3626 -1.6374 -0.6147
  843MOL0     H13760   4.535   1.476   4.126  1.1859 -1.7147  0.6325
  843MOL0     H13761   4.304   1.528   4.049  1.0267 -1.3914  0.8582
  843MOL0     H13762   4.389   1.641   4.138 -3.2791  1.2645 -1.4531
  843MOL0     H13763   4.181   1.652   4.236  0.9108  0.6607  1.3018
  843MOL0     H13764   4.262   1.557   4.355  0.9395  2.5610 -0.6396
  843MOL0     H13765   3.951   1.640   4.276  0.7386  1.7245 -0.8249
  843MOL0     H13766   3.738   1.670   4.147 -0.5110  0.2771  0.4315
  843MOL0     H13767   3.340   1.450   3.983 -0.0819  0.4601 -0.3295
  843MOL0     H13768   3.135   1.402   3.865  0.5079  2.4478  0.4702
  843MOL0     H13769   3.190   1.468   3.445 -1.5683  1.7460 -0.3547
  843MOL0     H13770   3.147   1.300   3.425  1.2665  1.1970 -1.6107
  843MOL0     H13771   2.995   1.479   3.317 -0.5407  2.3787  1.8721
  843MOL0     H13772   2.921   1.340   3.396  0.8922 -1.0594 -2.5968
  843MOL0     H13773   2.878   1.492   3.587 -0.6973  0.2780 -0.2228
  843MOL0     H13774   2.987   1.623   3.524  3.0222 -1.2854 -3.2086
  843MOL0     H13775   2.735   1.509   3.398 -3.6968  1.7426  3.5301
  843MOL0     H13776   2.838   1.651   3.323  1.3582  0.3434  0.7019
  843MOL0     H13777   2.805   1.788   3.508  0.7495 -0.2242 -2.1897
  843MOL0     H13778   2.699   1.666   3.581  1.1280 -0.0998  0.6504
  843MOL0     H13779   2.548   1.683   3.375 -1.2568 -1.4253  3.1872
  843MOL0     H13780   2.559   1.822   3.479 -0.6436 -1.1032  0.7366
  843MOL0     H13781   2.676   1.794   3.196 -0.5191  3.2284 -1.0360
  843MOL0     H13782   2.747   1.918   3.317  0.9569  0.6043 -4.5681
  843MOL0     H13783   2.469   1.870   3.222  1.7857  0.1446 -1.9755
  843MOL0     H13784   2.509   2.000   3.341 -2.7823 -3.0689  2.8311
  843MOL0     H13785   3.360   1.314   3.500 -1.2211  1.5704 -0.7207
  843MOL0     H13786   3.566   1.327   3.634  1.3194 -0.9149  1.5237
  843MOL0     H13787   3.845   1.350   3.895  0.7930  1.1441 -1.7336
  843MOL0     H13788   4.044   1.313   4.008  1.9596 -0.9687  2.0449
  843MOL0     H13789   3.666   1.101   5.141  3.0026 -1.9303  1.0306
  843MOL0     H13790   3.447   1.061   5.025  0.0902 -1.4557 -0.8085
  843MOL0     H13791   3.282   0.843   4.683 -0.6316 -1.6940 -0.7843
  843MOL0     H13792   3.109   0.744   4.566  1.2855 -0.2324  0.7863
  843MOL0     H13793   2.971   0.959   4.283 -0.2648  1.1506 -0.3367
  843MOL0     H13794   2.809   1.003   4.343 -0.9197 -0.8624  2.3095
  843MOL0     H13795   2.796   0.833   4.141  0.8174  0.1008  0.1570
  843MOL0     H13796   2.754   0.742   4.288 -0.2347 -0.6487 -1.3149
  843MOL0     H13797   3.040   0.739   4.254 -1.2176  2.7663 -1.1918
  843MOL0     H13798   2.964   0.718   4.097 -1.5753 -0.9848 -0.3365
  843MOL0     H13799   2.987   0.492   4.184  1.8398  2.3652 -1.8941
  843MOL0     H13800   2.885   0.542   4.321  0.1441  1.4396 -0.5740
  843MOL0     H13801   2.626   0.444   4.002 -1.5712  1.1168  1.6050
  843MOL0     H13802   2.901   1.115   4.523  0.6684  0.7444  1.0885
  843MOL0     H13803   3.013   1.328   4.546  3.4608  5.2580 -0.4408
  843MOL0     H13804   3.075   1.311   4.709 -0.2013 -0.1045  0.0548
  843MOL0     H13805   3.180   1.331   4.563 -0.3054  0.7197  0.0592
  844MOL0     O13806   5.829   1.543   1.565  0.8211  0.2628  0.3958
  844MOL0     C13807   5.916   1.490   1.639 -0.1374  0.5303 -0.4730
  844MOL0     O13808   6.052   1.470   1.604  0.6252  0.2128  0.0750
  844MOL0     C13809   6.094   1.540   1.493  0.9525  0.1047  0.3587
  844MOL0     C13810   6.076   1.497   1.358  0.6965 -0.1835 -0.4123
  844MOL0     C13811   6.128   1.569   1.252 -0.2778 -0.0678  0.4407
  844MOL0     C13812   6.194   1.694   1.273  1.0967 -0.5497 -0.4291
  844MOL0     O13813   6.249   1.790   1.183  0.1712  0.3963 -0.9589
  844MOL0     C13814   6.270   1.757   1.047 -0.5924 -0.3844  0.1090
  844MOL0     C13815   6.403   1.694   1.041  0.1481  0.1593  0.6575
  844MOL0     C13816   6.381   1.538   1.005  0.2806 -0.4559  0.7099
  844MOL0     C13817   6.344   1.528   0.853 -1.2364  0.3779  0.1362
  844MOL0     C13818   6.349   1.383   0.812 -0.8341 -0.0846  0.4350
  844MOL0     C13819   6.214   1.318   0.865  0.1400 -0.1714 -0.3463
  844MOL0     C13820   6.197   1.183   0.815 -0.7370  0.3098  0.4617
  844MOL0     C13821   6.273   1.084   0.904 -0.4228  0.9918  0.3041
  844MOL0     N13822   6.179   1.063   1.016  0.6653  0.6082  0.3339
  844MOL0     C13823   6.059   0.998   1.006  0.1923  0.1305 -0.3975
  844MOL0     C13824   5.986   1.019   1.124  0.2314  1.0854  0.2702
  844MOL0     C13825   5.847   0.972   1.173  0.3603 -0.4879 -0.0909
  844MOL0     C13826   5.743   0.997   1.056  0.5860 -0.5978  0.8153
  844MOL0     C13827   5.744   1.138   1.001  0.0394 -0.7107  0.9521
  844MOL0     C13828   5.705   1.245   1.102  0.2822  0.9225 -0.5079
  844MOL0     O13829   5.750   1.364   1.054 -0.7872 -0.1180 -0.2078
  844MOL0     C13830   5.754   1.485   1.113  0.9788 -0.3588 -0.7112
  844MOL0     C13831   5.669   1.510   1.218  0.2052 -0.2370 -0.4042
  844MOL0     C13832   5.678   1.639   1.285 -0.0383 -0.2420  0.3942
  844MOL0     C13833   5.766   1.743   1.236  0.1598 -0.3598 -0.4537
  844MOL0     C13834   5.771   1.870   1.311 -0.0394  0.1814  0.2984
  844MOL0     O13835   5.850   1.968   1.250  0.5745  0.6220 -0.0145
  844MOL0     C13836   5.859   2.089   1.308  0.4418 -0.6862  0.7165
  844MOL0     C13837   5.954   2.115   1.401 -0.3565 -0.5022  0.5910
  844MOL0     C13838   5.962   2.242   1.456 -0.0685 -1.0968  0.0617
  844MOL0     C13839   5.874   2.349   1.418  0.1574 -1.0376 -0.5273
  844MOL0     O13840   5.903   2.469   1.472  0.5194  0.1985  0.3987
  844MOL0     C13841   5.864   2.590   1.391 -0.4531 -0.0703  0.6650
  844MOL0     C13842   5.902   2.705   1.471  0.2837 -0.4010  0.0934
  844MOL0     C13843   5.812   2.826   1.456  0.1131  0.5754 -0.1497
  844MOL0     C13844   5.827   2.898   1.317  0.3049 -0.5132 -0.2041
  844MOL0     C13845   5.760   3.033   1.318 -0.7027 -0.6510  0.0488
  844MOL0     C13846   5.847   3.140   1.394  0.2917  0.8542  0.8608
  844MOL0     C13847   5.775   3.273   1.428 -0.8947 -0.4241  0.5510
  844MOL0     C13848   5.736   3.347   1.296  0.0213  0.7175  0.2122
  844MOL0    Cl13849   5.880   3.367   1.190  0.2316 -0.1211  0.1221
  844MOL0     C13850   5.789   2.324   1.303  0.8851  0.0516 -0.6900
  844MOL0     C13851   5.792   2.194   1.245  0.4797  0.2331 -0.2081
  844MOL0     O13852   5.710   1.880   1.415  0.8489 -0.1450  0.7056
  844MOL0     C13853   5.851   1.707   1.126 -0.0676 -1.0899 -0.2426
  844MOL0     C13854   5.845   1.577   1.067 -0.4163 -0.2466  1.0073
  844MOL0     N13855   6.069   1.097   1.190 -0.3914 -0.6707  0.3169
  844MOL0     N13856   6.186   1.120   1.138  0.3104  0.3992 -0.4753
  844MOL0     C13857   6.214   1.737   1.409 -0.2432  1.1969  0.1016
  844MOL0     C13858   6.161   1.669   1.510  0.4142  0.6202 -0.2108
  844MOL0     C13859   5.875   1.442   1.779  0.3682  1.2371  0.5325
  844MOL0     C13860   5.966   1.431   1.888  1.2464  0.0700  0.3123
  844MOL0     C13861   5.925   1.396   2.019  0.4360  0.0661 -0.7922
  844MOL0     C13862   5.794   1.357   2.046 -0.2296  0.0742  1.0608
  844MOL0     O13863   5.741   1.290   2.153 -0.1376  0.3304 -0.4902
  844MOL0     C13864   5.800   1.281   2.292 -0.3001  0.0585  1.0507
  844MOL0     C13865   5.703   1.270   2.414  0.8373 -1.0830  0.1630
  844MOL0     C13866   5.570   1.211   2.374 -0.1608 -0.2997 -0.5774
  844MOL0     C13867   5.457   1.223   2.474  0.3534 -0.7270  0.4047
  844MOL0     C13868   5.356   1.128   2.440  0.2318 -0.1433 -0.0559
  844MOL0     C13869   5.286   1.039   2.405  0.3954  0.8580 -0.0029
  844MOL0     C13870   5.714   1.357   1.941  0.7127 -0.1274  0.6249
  844MOL0     C13871   5.750   1.402   1.818  0.4072  0.6612  0.0002
  844MOL0     C13872   5.634   1.403   1.716 -0.9752 -0.0877 -0.7913
  844MOL0     H13873   6.014   1.408   1.350  2.2658 -1.5046  1.1049
  844MOL0     H13874   6.103   1.524   1.157 -0.2601 -2.0869  1.3503
  844MOL0     H13875   6.189   1.718   0.986 -0.3347  0.3113 -0.6909
  844MOL0     H13876   6.277   1.850   0.990  1.4922 -0.9760 -0.7031
  844MOL0     H13877   6.443   1.690   1.142 -1.6155 -2.4652  1.3443
  844MOL0     H13878   6.464   1.748   0.968 -0.3752 -1.1755 -0.8161
  844MOL0     H13879   6.314   1.497   1.080 -0.1697  0.5334  0.8611
  844MOL0     H13880   6.471   1.476   1.012  0.8265  0.1614 -0.5278
  844MOL0     H13881   6.254   1.586   0.828  0.5031  3.3628  0.2730
  844MOL0     H13882   6.421   1.581   0.796 -1.6783  1.1731  0.2528
  844MOL0     H13883   6.335   1.394   0.704 -1.6495  0.7570  0.6059
  844MOL0     H13884   6.440   1.333   0.846  0.5771  1.6873 -0.6022
  844MOL0     H13885   6.209   1.318   0.974  4.0812 -1.6157 -0.0074
  844MOL0     H13886   6.132   1.380   0.828 -1.7253 -2.2802  0.0662
  844MOL0     H13887   6.236   1.177   0.713 -0.3890  0.5166  0.5805
  844MOL0     H13888   6.091   1.158   0.800 -0.6786  0.2622  0.1171
  844MOL0     H13889   6.289   0.993   0.845 -2.7517  1.7944 -1.7572
  844MOL0     H13890   6.370   1.126   0.930  0.1217  0.0376 -0.1651
  844MOL0     H13891   6.023   0.963   0.909 -0.1519 -0.8983  0.0921
  844MOL0     H13892   5.852   0.867   1.204  0.5949  0.3842  3.2024
  844MOL0     H13893   5.829   1.027   1.266  2.3726  0.9583 -0.4908
  844MOL0     H13894   5.775   0.933   0.974  2.5165 -1.0332  1.8443
  844MOL0     H13895   5.643   0.968   1.090  0.6278 -1.3375  0.3226
  844MOL0     H13896   5.668   1.136   0.921 -1.4629 -0.1088  2.3105
  844MOL0     H13897   5.842   1.167   0.963  0.1183  0.0359  1.7102
  844MOL0     H13898   5.751   1.221   1.199 -1.4532 -0.8507 -0.0446
  844MOL0     H13899   5.597   1.257   1.115  0.0491 -2.1218  1.4742
  844MOL0     H13900   5.596   1.431   1.236  1.3882 -1.2398  0.0913
  844MOL0     H13901   5.607   1.654   1.365  0.6488  2.1958  0.6262
  844MOL0     H13902   6.036   2.045   1.415  2.2116  1.2051 -3.9189
  844MOL0     H13903   6.040   2.262   1.530  1.2475 -0.9578 -1.3073
  844MOL0     H13904   5.910   2.595   1.292 -2.5710  0.0649 -0.3695
  844MOL0     H13905   5.756   2.586   1.375 -1.2198  2.4555  4.1711
  844MOL0     H13906   5.886   2.675   1.575 -1.7821  2.4520  0.7252
  844MOL0     H13907   6.006   2.736   1.461 -0.1115  0.4695 -1.9044
  844MOL0     H13908   5.707   2.804   1.475  0.4828  1.0961  3.0685
  844MOL0     H13909   5.860   2.884   1.536  2.9271 -2.1634  0.3673
  844MOL0     H13910   5.797   2.837   1.232  0.1537  2.4235 -2.3977
  844MOL0     H13911   5.936   2.909   1.311  0.1372  4.2654  1.4589
  844MOL0     H13912   5.664   3.037   1.371  0.5454  1.9624  2.3939
  844MOL0     H13913   5.744   3.074   1.218 -3.1335  1.4133  1.1680
  844MOL0     H13914   5.870   3.099   1.492  0.9309  1.4158  0.9547
  844MOL0     H13915   5.941   3.141   1.336  0.5428 -5.3859  0.4524
  844MOL0     H13916   5.854   3.323   1.485  0.6363 -2.9586  0.7826
  844MOL0     H13917   5.685   3.254   1.487 -2.2485  1.2574 -0.8549
  844MOL0     H13918   5.654   3.298   1.243 -1.3058  2.1694  0.8268
  844MOL0     H13919   5.709   3.448   1.328  0.9659  0.9463  0.3188
  844MOL0     H13920   5.743   2.404   1.246  0.7142  0.9063  0.6022
  844MOL0     H13921   5.748   2.187   1.146  1.0205 -2.7996 -0.3351
  844MOL0     H13922   5.914   1.787   1.090 -3.8726  2.6190  0.6493
  844MOL0     H13923   5.912   1.563   0.983 -0.7892  2.1199  0.2457
  844MOL0     H13924   6.259   1.835   1.424  0.1453  1.0837 -0.3275
  844MOL0     H13925   6.168   1.699   1.614 -1.5972 -1.4487  0.6066
  844MOL0     H13926   6.073   1.441   1.873  0.5909  6.1598 -3.7852
  844MOL0     H13927   6.007   1.398   2.090  0.7006 -2.5588 -0.9151
  844MOL0     H13928   5.852   1.375   2.313  1.2051 -0.9817  2.1266
  844MOL0     H13929   5.867   1.195   2.284 -2.2952 -1.4124 -1.9493
  844MOL0     H13930   5.690   1.374   2.443  0.1614 -0.5042 -2.0162
  844MOL0     H13931   5.747   1.223   2.503  1.6889 -1.8005 -0.6098
  844MOL0     H13932   5.584   1.110   2.335 -0.2460 -2.0650  3.4975
  844MOL0     H13933   5.545   1.259   2.279  0.8076 -1.9108 -1.7017
  844MOL0     H13934   5.485   1.201   2.577  3.2930 -0.9881 -0.3730
  844MOL0     H13935   5.415   1.324   2.471 -1.3213 -1.3983  0.1709
  844MOL0     H13936   5.225   0.952   2.391  2.2695 -0.3665 -0.9874
  844MOL0     H13937   5.614   1.318   1.959  0.1148  0.3193 -1.4326
  844MOL0     H13938   5.536   1.360   1.738 -0.9313 -0.1686 -0.7504
  844MOL0     H13939   5.617   1.510   1.701  2.5021  0.7252  0.1945
  844MOL0     H13940   5.660   1.352   1.623 -0.7706 -0.1606 -0.6942
  845MOL0     O13941   0.079   1.328   4.145  0.3026  0.2896 -0.0149
  845MOL0     C13942   0.130   1.237   4.081  1.1669 -0.4922 -0.3250
  845MOL0     O13943   0.074   1.175   3.972 -0.4262  0.0228  0.1814
  845MOL0     C13944  -0.045   1.235   3.915  0.9484 -0.1832 -0.8297
  845MOL0     C13945  -0.148   1.145   3.879  0.6979  0.4145  0.8875
  845MOL0     C13946  -0.269   1.190   3.816 -0.2050  1.0487 -0.7329
  845MOL0     C13947  -0.277   1.319   3.781  0.7457 -0.5919 -0.1263
  845MOL0     O13948  -0.405   1.362   3.740 -0.5668 -0.1653 -0.0227
  845MOL0     C13949  -0.414   1.401   3.600 -0.3210  0.8422 -0.0123
  845MOL0     C13950  -0.558   1.440   3.557  0.7157 -0.6490 -0.7209
  845MOL0     C13951  -0.615   1.539   3.661  0.4766 -0.3839 -0.4571
  845MOL0     C13952  -0.768   1.580   3.632  0.2820 -0.4119 -0.4988
  845MOL0     C13953  -0.813   1.650   3.759  0.9124 -0.4975 -0.0044
  845MOL0     C13954  -0.951   1.723   3.743 -1.2526  0.8329  0.0323
  845MOL0     C13955  -1.010   1.772   3.877 -0.2726 -0.2108  0.6664
  845MOL0     C13956  -1.134   1.865   3.858  0.7354  1.0115 -0.1818
  845MOL0     N13957  -1.154   1.984   3.948  0.9205  0.7616 -0.1468
  845MOL0     C13958  -1.079   2.093   3.932 -0.3651  0.2405  0.4645
  845MOL0     C13959  -1.112   2.174   4.030 -0.1031  0.7198 -0.1143
  845MOL0     C13960  -1.050   2.308   4.051  0.2344 -0.8125 -0.0067
  845MOL0     C13961  -1.141   2.424   4.016 -0.0540  0.3590 -0.1819
  845MOL0     C13962  -1.063   2.534   3.958  0.0385 -0.8250  0.4452
  845MOL0     C13963  -1.139   2.658   3.910 -0.3295 -0.6865 -0.5374
  845MOL0     O13964  -1.195   2.632   3.781  0.4254 -0.5141 -0.8298
  845MOL0     C13965  -1.252   2.733   3.714 -1.1855  0.4573 -1.1310
  845MOL0     C13966  -1.303   2.689   3.585  0.1200  0.6481  0.2607
  845MOL0     C13967  -1.356   2.780   3.495  1.2615 -0.6561 -0.3341
  845MOL0     C13968  -1.382   2.920   3.535  0.2689 -1.0111  0.4617
  845MOL0     C13969  -1.434   3.027   3.437 -0.2295 -0.3212 -0.6255
  845MOL0     O13970  -1.406   2.999   3.310  0.5817  0.2310  0.2594
  845MOL0     C13971  -1.455   3.064   3.199 -0.3646  0.2543  0.0995
  845MOL0     C13972  -1.556   3.165   3.211  0.4751 -0.5399  0.8313
  845MOL0     C13973  -1.590   3.230   3.092  1.1118  0.0055 -0.3743
  845MOL0     C13974  -1.537   3.195   2.965  0.5134  0.4335 -0.8824
  845MOL0     O13975  -1.577   3.260   2.848 -0.0263  0.0575  0.9289
  845MOL0     C13976  -1.625   3.395   2.853  0.6019  0.1339 -0.3961
  845MOL0     C13977  -1.688   3.436   2.713 -0.9889 -1.2182 -0.3690
  845MOL0     C13978  -1.699   3.593   2.675  0.0377 -0.1012 -0.1321
  845MOL0     C13979  -1.823   3.616   2.581  0.1802 -0.3138 -0.5141
  845MOL0     C13980  -1.862   3.767   2.596 -0.3184  0.2449  0.0332
  845MOL0     C13981  -1.761   3.872   2.539 -0.3428 -0.1426 -0.7331
  845MOL0     C13982  -1.806   4.013   2.549  0.2133 -0.2722 -0.5808
  845MOL0     C13983  -1.741   4.116   2.460 -1.0012  0.1582 -0.2564
  845MOL0    Cl13984  -1.789   4.279   2.514 -0.1793  0.2034 -0.2359
  845MOL0     C13985  -1.446   3.094   2.966 -0.5378  0.6990 -1.1107
  845MOL0     C13986  -1.395   3.035   3.078 -0.5607 -0.2800  0.8366
  845MOL0     O13987  -1.501   3.122   3.482  0.2221 -0.3090 -0.6360
  845MOL0     C13988  -1.344   2.951   3.664  1.1447  0.4490  0.3474
  845MOL0     C13989  -1.273   2.862   3.755  0.1515 -0.9814  0.4457
  845MOL0     N13990  -1.215   2.112   4.102 -0.8820  0.3236  0.0548
  845MOL0     N13991  -1.243   2.000   4.049  0.3834 -0.2148 -0.2025
  845MOL0     C13992  -0.180   1.406   3.811 -0.5108 -0.3035  0.1284
  845MOL0     C13993  -0.070   1.365   3.885 -0.0309  0.2975 -0.2916
  845MOL0     C13994   0.255   1.188   4.138  0.1081  0.1857  0.1056
  845MOL0     C13995   0.286   1.052   4.142 -0.0642 -0.0470  0.5804
  845MOL0     C13996   0.398   1.002   4.206  0.8303 -0.3119 -0.5942
  845MOL0     C13997   0.496   1.078   4.267 -0.8238 -0.0002  0.5148
  845MOL0     O13998   0.601   1.007   4.315  0.3968  0.1905  0.8688
  845MOL0     C13999   0.694   1.069   4.402  0.0288  0.4429 -1.0020
  845MOL0     C14000   0.831   1.005   4.399 -0.0457  0.8330 -0.6458
  845MOL0     C14001   0.831   0.852   4.425 -0.2463  0.9457 -0.3936
  845MOL0     C14002   0.973   0.808   4.385  0.7288  0.0144  0.0151
  845MOL0     C14003   0.977   0.767   4.246  0.1973  0.6850 -0.8559
  845MOL0     C14004   0.953   0.754   4.134  0.1867  0.3623  0.8103
  845MOL0     C14005   0.476   1.216   4.259  0.5219  0.4918  0.3756
  845MOL0     C14006   0.363   1.273   4.188 -0.3066  0.0777  0.4753
  845MOL0     C14007   0.358   1.425   4.180 -0.2713  0.4482 -0.1006
  845MOL0     H14008  -0.137   1.039   3.898 -1.4431 -0.3958 -1.7205
  845MOL0     H14009  -0.348   1.118   3.799  3.9321 -3.4218 -4.2752
  845MOL0     H14010  -0.353   1.492   3.600 -1.0703  1.4350  2.2944
  845MOL0     H14011  -0.369   1.315   3.550 -1.0026 -0.0300  0.8280
  845MOL0     H14012  -0.618   1.349   3.544  0.9285 -1.0656  0.9552
  845MOL0     H14013  -0.552   1.498   3.464 -0.1330  1.7331  0.6278
  845MOL0     H14014  -0.559   1.633   3.666  1.5877 -1.0290 -0.4130
  845MOL0     H14015  -0.613   1.495   3.761  0.8075  1.0117  0.1675
  845MOL0     H14016  -0.758   1.640   3.541  0.7148 -1.9469 -1.4917
  845MOL0     H14017  -0.841   1.501   3.611 -1.1807  0.8857 -0.4417
  845MOL0     H14018  -0.824   1.587   3.848  4.6548  2.3929  2.8190
  845MOL0     H14019  -0.740   1.723   3.794 -1.6609  1.2656  2.1312
  845MOL0     H14020  -0.934   1.812   3.682  0.5056  0.8380  0.4972
  845MOL0     H14021  -1.017   1.646   3.701  2.1158 -0.3145 -3.7839
  845MOL0     H14022  -0.937   1.827   3.936 -0.5694  0.0625  0.7837
  845MOL0     H14023  -1.047   1.689   3.939 -3.5834 -1.0664 -2.1272
  845MOL0     H14024  -1.150   1.896   3.755  2.0452 -1.6004 -1.2758
  845MOL0     H14025  -1.214   1.803   3.899  1.8141  0.3734  1.0558
  845MOL0     H14026  -1.017   2.125   3.849 -1.7310  4.2459  0.7609
  845MOL0     H14027  -1.018   2.322   4.155  0.0788 -0.5132  0.0017
  845MOL0     H14028  -0.960   2.325   3.992 -0.4971 -1.4639 -1.3587
  845MOL0     H14029  -1.217   2.392   3.944  0.1888  0.1113 -0.3320
  845MOL0     H14030  -1.201   2.460   4.100  1.2977  3.0998 -0.2706
  845MOL0     H14031  -1.018   2.486   3.871  0.6309 -1.2928  1.0004
  845MOL0     H14032  -0.991   2.560   4.036  0.1040  0.3960  0.0125
  845MOL0     H14033  -1.067   2.740   3.901 -3.1282  2.0342  0.0311
  845MOL0     H14034  -1.210   2.699   3.983  0.1407  0.8306 -0.9071
  845MOL0     H14035  -1.285   2.593   3.539 -2.3788  1.1426 -1.9274
  845MOL0     H14036  -1.393   2.745   3.399  0.2838  0.6513 -0.4807
  845MOL0     H14037  -1.604   3.208   3.299  4.3896 -0.2221  3.0587
  845MOL0     H14038  -1.675   3.297   3.089 -1.1116 -2.0905  4.4664
  845MOL0     H14039  -1.696   3.411   2.935  0.9266  0.0790 -0.0998
  845MOL0     H14040  -1.533   3.452   2.874  0.7845 -0.3624  0.1711
  845MOL0     H14041  -1.638   3.376   2.636 -0.0319  0.8791 -1.4548
  845MOL0     H14042  -1.790   3.399   2.703 -3.0618  3.0232  2.3153
  845MOL0     H14043  -1.710   3.651   2.767 -3.6784  0.4767 -0.8133
  845MOL0     H14044  -1.598   3.625   2.645  0.3281  2.8475  3.3703
  845MOL0     H14045  -1.901   3.546   2.612  1.1185 -0.4106  1.7727
  845MOL0     H14046  -1.812   3.586   2.476  0.1482  0.3128 -0.7013
  845MOL0     H14047  -1.873   3.783   2.703 -1.4041 -5.8787  1.2264
  845MOL0     H14048  -1.954   3.786   2.540 -3.7743 -1.8866  4.3679
  845MOL0     H14049  -1.657   3.861   2.570 -0.2220  3.2879  0.5009
  845MOL0     H14050  -1.752   3.849   2.433  1.2022 -1.2686 -0.3970
  845MOL0     H14051  -1.807   4.044   2.654  0.8325  1.9737 -1.1985
  845MOL0     H14052  -1.914   4.027   2.539 -0.0239 -0.7384  0.9758
  845MOL0     H14053  -1.634   4.100   2.472 -1.2579 -2.0469 -0.6092
  845MOL0     H14054  -1.763   4.096   2.355 -1.8857 -0.2150 -0.0069
  845MOL0     H14055  -1.404   3.084   2.867 -1.5064 -1.2288 -1.3725
  845MOL0     H14056  -1.319   2.958   3.083  0.9776  1.2700  2.4318
  845MOL0     H14057  -1.372   3.051   3.697 -1.1556 -0.1136  0.2497
  845MOL0     H14058  -1.231   2.904   3.846 -0.9800  0.9489  0.1131
  845MOL0     H14059  -0.194   1.511   3.788  2.0957  0.0861 -0.0065
  845MOL0     H14060   0.011   1.434   3.909 -0.1687  1.0333 -1.8267
  845MOL0     H14061   0.212   0.981   4.108  0.5462 -0.2731 -0.3139
  845MOL0     H14062   0.428   0.899   4.223  0.0348 -0.1406  2.4228
  845MOL0     H14063   0.660   1.075   4.506 -1.5244  0.3424 -1.4825
  845MOL0     H14064   0.701   1.177   4.387 -0.7612  1.2265  3.0628
  845MOL0     H14065   0.886   1.051   4.481  0.3997  0.3025 -0.6392
  845MOL0     H14066   0.867   1.021   4.297  0.7969 -0.3771 -0.5583
  845MOL0     H14067   0.754   0.807   4.361  0.7303 -2.0459  0.3755
  845MOL0     H14068   0.811   0.830   4.530  1.8898  0.0949 -0.1113
  845MOL0     H14069   1.050   0.882   4.406  1.6997 -0.6042 -1.2651
  845MOL0     H14070   0.994   0.721   4.448  2.8660  0.1540 -0.4357
  845MOL0     H14071   0.910   0.721   4.041  1.9823 -2.9093  0.9969
  845MOL0     H14072   0.555   1.279   4.298 -0.2453  0.5883  1.8303
  845MOL0     H14073   0.456   1.474   4.177  1.2278 -1.9194  3.6516
  845MOL0     H14074   0.308   1.451   4.086  0.3060 -1.5054 -0.9967
  845MOL0     H14075   0.299   1.457   4.266 -1.0803 -0.0622 -0.4622
  846MOL0     O14076   7.420   0.100   6.692 -0.9134 -0.7680 -0.2654
  846MOL0     C14077   7.464   0.127   6.585 -1.0864 -0.4423 -0.0741
  846MOL0     O14078   7.594   0.192   6.574  0.1496  0.8195  0.2026
  846MOL0     C14079   7.696   0.178   6.670  0.8633 -0.0236 -1.4077
  846MOL0     C14080   7.736   0.046   6.698 -0.1219  0.2640 -0.1789
  846MOL0     C14081   7.855   0.032   6.778 -0.3416 -0.1729  0.1303
  846MOL0     C14082   7.935   0.139   6.833 -1.0873  0.7739  1.3023
  846MOL0     O14083   8.050   0.126   6.905 -0.0077  0.1835 -0.5275
  846MOL0     C14084   8.097  -0.002   6.950  1.2405 -0.6609  0.5225
  846MOL0     C14085   8.232   0.004   6.994  0.1468 -0.1341 -0.0033
  846MOL0     C14086   8.326   0.036   6.886  0.1968  0.3801  0.4964
  846MOL0     C14087   8.471   0.015   6.930  0.8862 -0.4392 -1.2233
  846MOL0     C14088   8.498  -0.130   6.971  0.6300 -0.7512 -0.2618
  846MOL0     C14089   8.641  -0.150   6.979 -0.5789  0.3838  0.1003
  846MOL0     C14090   8.684  -0.290   7.026  0.8383 -0.1070  0.5807
  846MOL0     C14091   8.829  -0.319   6.969  0.2361  1.3547 -0.3720
  846MOL0     N14092   8.921  -0.218   7.007 -0.3614  0.1179  0.9137
  846MOL0     C14093   8.996  -0.229   7.114 -0.9610  1.1387  0.1584
  846MOL0     C14094   9.094  -0.143   7.093  0.5531 -0.4715 -0.2578
  846MOL0     C14095   9.205  -0.113   7.193  0.2570 -0.6662 -0.4173
  846MOL0     C14096   9.290   0.008   7.151 -0.5675 -0.1074 -0.5237
  846MOL0     C14097   9.210   0.137   7.154  0.4967 -0.2198 -0.2543
  846MOL0     C14098   9.184   0.202   7.293  0.3211 -0.5003 -0.1895
  846MOL0     O14099   9.306   0.241   7.348 -0.0602  0.2975 -0.2293
  846MOL0     C14100   9.292   0.362   7.421 -0.3664 -1.7662 -0.4000
  846MOL0     C14101   9.173   0.440   7.454 -0.3196  0.4347  0.2532
  846MOL0     C14102   9.171   0.559   7.531  0.0262 -0.0959  0.5912
  846MOL0     C14103   9.287   0.603   7.580  0.5553  0.2545 -0.5728
  846MOL0     C14104   9.289   0.732   7.649  0.1415  0.7106  0.1218
  846MOL0     O14105   9.190   0.759   7.739  0.5140 -0.6958 -0.2854
  846MOL0     C14106   9.193   0.882   7.796  0.2168  0.1502 -0.9411
  846MOL0     C14107   9.140   0.991   7.730  0.1027 -0.5458 -1.2371
  846MOL0     C14108   9.145   1.121   7.789  0.0869 -0.2554 -0.3083
  846MOL0     C14109   9.194   1.137   7.925 -0.3633  0.1339 -0.1229
  846MOL0     O14110   9.205   1.255   7.986  0.0011 -0.1850  0.2788
  846MOL0     C14111   9.154   1.271   8.121  0.3626  0.1041 -0.3183
  846MOL0     C14112   9.116   1.414   8.160 -0.3555  0.0718 -0.4894
  846MOL0     C14113   9.082   1.483   8.033 -0.5006 -0.2125 -0.2485
  846MOL0     C14114   9.034   1.623   8.065  0.2638  0.6550  0.8571
  846MOL0     C14115   8.957   1.686   7.939 -0.6339 -0.3331  0.9003
  846MOL0     C14116   9.051   1.780   7.852 -0.2473  0.0397 -0.2642
  846MOL0     C14117   8.994   1.805   7.710  0.7155  0.5240 -0.2251
  846MOL0     C14118   8.844   1.872   7.713 -0.0806  0.8016  0.0797
  846MOL0    Cl14119   8.850   2.041   7.774  0.1935  0.1873 -0.2211
  846MOL0     C14120   9.237   1.025   7.992 -0.6066 -0.6668  0.3989
  846MOL0     C14121   9.234   0.898   7.927 -0.1921  0.6780  0.4398
  846MOL0     O14122   9.378   0.806   7.617 -0.9816  0.2658  0.0505
  846MOL0     C14123   9.408   0.544   7.541  1.3607 -0.0843  0.1796
  846MOL0     C14124   9.409   0.426   7.470 -1.0217  1.5840 -0.0600
  846MOL0     N14125   9.090  -0.093   6.966  0.1755 -0.3603 -0.8521
  846MOL0     N14126   8.979  -0.126   6.918  0.5791  0.6551  0.1251
  846MOL0     C14127   7.887   0.266   6.797  0.3224  0.9443 -0.3530
  846MOL0     C14128   7.770   0.288   6.716  0.6344 -0.7212  0.2971
  846MOL0     C14129   7.399   0.077   6.464  0.1555 -0.0382  0.1324
  846MOL0     C14130   7.261   0.050   6.483  1.2008  0.2357  1.8611
  846MOL0     C14131   7.184   0.004   6.374  0.3916  0.1484  0.6717
  846MOL0     C14132   7.238  -0.013   6.253 -0.0583 -0.2487  1.0708
  846MOL0     O14133   7.177  -0.062   6.137 -0.2380 -0.7400 -0.7646
  846MOL0     C14134   7.065  -0.154   6.162  0.1731 -0.4979  0.0358
  846MOL0     C14135   7.021  -0.210   6.027 -0.0767 -0.0803 -0.7552
  846MOL0     C14136   6.963  -0.109   5.920 -0.4981  0.6501  0.2308
  846MOL0     C14137   6.907  -0.163   5.787 -0.6848  0.3075 -0.4161
  846MOL0     C14138   7.012  -0.242   5.713  0.2280  0.4049  0.0702
  846MOL0     C14139   7.099  -0.297   5.648  0.4860 -0.3364  0.0747
  846MOL0     C14140   7.377   0.013   6.233  1.2460  0.0166  0.8339
  846MOL0     C14141   7.460   0.052   6.339  0.1037  0.3746  0.4804
  846MOL0     C14142   7.608   0.063   6.314  0.6606  0.2355  0.1904
  846MOL0     H14143   7.695  -0.038   6.643 -0.4328  0.6570 -0.5549
  846MOL0     H14144   7.886  -0.067   6.810  0.7112 -0.4916 -1.7143
  846MOL0     H14145   8.028  -0.037   7.026  0.4856  0.5535  0.4183
  846MOL0     H14146   8.102  -0.084   6.878 -1.0827 -1.6942  1.4504
  846MOL0     H14147   8.251  -0.097   7.032 -1.0999 -0.6328 -0.6616
  846MOL0     H14148   8.240   0.078   7.073  0.3477 -0.0502 -0.1015
  846MOL0     H14149   8.311   0.141   6.863  0.9229  1.3978  4.0913
  846MOL0     H14150   8.301  -0.033   6.805  4.1330 -0.4360 -0.2359
  846MOL0     H14151   8.538   0.051   6.851 -1.2182 -0.0085 -2.9194
  846MOL0     H14152   8.478   0.079   7.018  1.8200 -0.9342 -0.9272
  846MOL0     H14153   8.472  -0.159   7.073  2.2121  0.0695  0.3938
  846MOL0     H14154   8.451  -0.202   6.902 -0.1786 -1.6839  1.2141
  846MOL0     H14155   8.683  -0.138   6.879 -1.1890 -4.6324 -1.0053
  846MOL0     H14156   8.681  -0.074   7.046  2.1800 -0.2189 -0.7340
  846MOL0     H14157   8.607  -0.350   6.977 -1.0516  1.3845  1.6057
  846MOL0     H14158   8.678  -0.314   7.133 -1.7754 -1.6978  0.1823
  846MOL0     H14159   8.860  -0.422   6.988 -3.3767 -0.3796 -2.6836
  846MOL0     H14160   8.826  -0.313   6.860  2.3155 -1.6304 -0.7258
  846MOL0     H14161   9.003  -0.303   7.194  2.4709 -0.9537 -1.7967
  846MOL0     H14162   9.165  -0.094   7.294  6.3850 -1.7212  2.6963
  846MOL0     H14163   9.269  -0.196   7.224  1.2470  0.5729  1.0383
  846MOL0     H14164   9.376   0.015   7.218 -2.7071  0.7407  2.3335
  846MOL0     H14165   9.340  -0.005   7.055  0.2802  1.7838 -0.3781
  846MOL0     H14166   9.111   0.125   7.108  0.8936  0.9610 -1.4724
  846MOL0     H14167   9.252   0.216   7.092  1.1512  0.4859  1.0612
  846MOL0     H14168   9.129   0.135   7.358  0.5970  0.6479  1.2694
  846MOL0     H14169   9.127   0.293   7.273 -0.0278 -1.1337 -2.4143
  846MOL0     H14170   9.075   0.405   7.423  0.0464  1.2926 -2.1033
  846MOL0     H14171   9.074   0.599   7.559  0.5736  0.5520  1.6079
  846MOL0     H14172   9.119   0.955   7.630 -4.0519 -3.0667  0.3018
  846MOL0     H14173   9.115   1.197   7.718  2.8078  0.4457 -0.8395
  846MOL0     H14174   9.075   1.195   8.132  1.4362 -0.7756  1.7937
  846MOL0     H14175   9.241   1.252   8.184  0.6985  0.6333 -0.6200
  846MOL0     H14176   9.037   1.406   8.235  0.1174  1.2311  0.1588
  846MOL0     H14177   9.205   1.461   8.203 -1.4249 -0.4973  2.5883
  846MOL0     H14178   9.174   1.498   7.975  1.2499 -2.6918  1.6461
  846MOL0     H14179   9.022   1.427   7.961  0.7823  3.5030 -4.6549
  846MOL0     H14180   9.108   1.699   8.090 -1.3368  2.1460  1.2525
  846MOL0     H14181   8.971   1.618   8.154 -1.8883 -2.3052 -0.6394
  846MOL0     H14182   8.885   1.751   7.989 -1.8960 -1.0443  0.0651
  846MOL0     H14183   8.914   1.607   7.877 -0.0656 -0.7427  1.0263
  846MOL0     H14184   9.060   1.879   7.898 -3.5700  0.8634 -1.0782
  846MOL0     H14185   9.149   1.733   7.862 -0.1585  0.5805  2.0404
  846MOL0     H14186   8.985   1.709   7.658  1.6187  0.8348 -0.9892
  846MOL0     H14187   9.066   1.870   7.659  0.3805  0.6763 -0.5098
  846MOL0     H14188   8.798   1.873   7.614 -0.8519 -0.9363  0.3745
  846MOL0     H14189   8.773   1.814   7.773 -0.2350 -1.4511 -2.0793
  846MOL0     H14190   9.284   1.031   8.089  5.5443 -0.4959 -2.1236
  846MOL0     H14191   9.274   0.808   7.972 -1.1801 -0.4188 -0.8098
  846MOL0     H14192   9.494   0.605   7.569  0.1353  1.1293  1.4567
  846MOL0     H14193   9.502   0.375   7.447 -2.5824 -1.4287 -0.1020
  846MOL0     H14194   7.947   0.353   6.822 -0.2390  1.4296 -0.6689
  846MOL0     H14195   7.736   0.384   6.678 -4.5742 -2.0430  0.9071
  846MOL0     H14196   7.213   0.083   6.574 -0.2241 -0.6352  1.4531
  846MOL0     H14197   7.079  -0.020   6.389  0.5858 -2.4058 -1.3481
  846MOL0     H14198   6.978  -0.109   6.209  2.3907  1.9286  2.1622
  846MOL0     H14199   7.107  -0.233   6.226 -1.9723 -0.6203  1.3985
  846MOL0     H14200   6.954  -0.295   6.042  0.1091 -0.2727 -1.0185
  846MOL0     H14201   7.115  -0.246   5.986  0.5637  1.3646 -0.6257
  846MOL0     H14202   7.035  -0.029   5.904  1.2139 -0.8435  0.1348
  846MOL0     H14203   6.870  -0.075   5.966 -1.2617 -0.1925 -0.6456
  846MOL0     H14204   6.834  -0.238   5.818  0.8889 -1.1477 -0.0221
  846MOL0     H14205   6.862  -0.084   5.726 -0.5434  3.0046  2.7244
  846MOL0     H14206   7.164  -0.349   5.580  1.8713 -0.4256  1.4020
  846MOL0     H14207   7.430  -0.002   6.139 -0.0908  0.6666 -0.0426
  846MOL0     H14208   7.631  -0.008   6.235 -0.9609 -2.5098  2.0011
  846MOL0     H14209   7.641   0.165   6.291 -0.3232 -0.4856 -6.4016
  846MOL0     H14210   7.650   0.016   6.403 -2.0089 -1.7249  0.5460
  847MOL0     O14211   8.620  10.164   6.274  0.0622 -0.1559 -0.0015
  847MOL0     C14212   8.616  10.044   6.263 -0.9765 -0.2659  0.6651
  847MOL0     O14213   8.559   9.981   6.158  0.9177  0.8295 -0.2360
  847MOL0     C14214   8.505  10.060   6.060 -0.2870  0.5500 -0.1933
  847MOL0     C14215   8.365  10.070   6.047  0.3884  0.1475  0.3685
  847MOL0     C14216   8.305  10.135   5.941  0.3132 -0.2938 -0.0089
  847MOL0     C14217   8.390  10.203   5.844 -0.2283  1.0195 -1.1089
  847MOL0     O14218   8.333  10.281   5.748  1.8991 -0.1796 -0.3514
  847MOL0     C14219   8.342  10.422   5.776  0.2306  1.1548  1.1621
  847MOL0     C14220   8.358  10.491   5.642 -0.0549 -0.3291 -1.3781
  847MOL0     C14221   8.216  10.509   5.577 -0.2772  0.9149 -0.6208
  847MOL0     C14222   8.211  10.544   5.424 -0.5996 -0.9099  0.0351
  847MOL0     C14223   8.079  10.604   5.387 -0.7917  0.0492  0.5013
  847MOL0     C14224   7.955  10.515   5.412 -0.6750 -0.3002  0.1748
  847MOL0     C14225   7.929  10.400   5.309 -0.3807 -0.3592 -0.7595
  847MOL0     C14226   7.908  10.443   5.166 -0.3416 -0.2406 -0.0004
  847MOL0     N14227   7.884  10.325   5.085  0.8265 -0.2861 -0.3491
  847MOL0     C14228   7.775  10.244   5.107  0.3484  0.6140  0.6746
  847MOL0     C14229   7.781  10.155   5.000  0.7412  0.0156 -0.3844
  847MOL0     C14230   7.689  10.038   4.969  0.1610 -0.4058 -0.4081
  847MOL0     C14231   7.706   9.921   5.067  0.4300 -0.2148  0.3039
  847MOL0     C14232   7.587   9.832   5.055 -0.0169 -0.2608  0.4759
  847MOL0     C14233   7.563   9.751   5.181 -0.5652 -0.2219 -0.1712
  847MOL0     O14234   7.447   9.664   5.173 -0.8097 -1.2132  0.4190
  847MOL0     C14235   7.423   9.583   5.277  0.3799  0.1931 -0.2874
  847MOL0     C14236   7.501   9.580   5.397  0.4934 -0.3128  0.2658
  847MOL0     C14237   7.473   9.493   5.505  0.6131 -0.2103  0.5302
  847MOL0     C14238   7.359   9.416   5.497  0.0224  0.2943  0.8272
  847MOL0     C14239   7.306   9.339   5.616 -0.0513  0.3615 -0.2995
  847MOL0     O14240   7.212   9.246   5.593  0.0671  0.0229  0.9367
  847MOL0     C14241   7.168   9.192   5.711  0.1401  0.3086 -0.5381
  847MOL0     C14242   7.216   9.066   5.747  0.1903 -0.1724 -0.1668
  847MOL0     C14243   7.188   9.011   5.867  0.3004 -0.1332 -0.6151
  847MOL0     C14244   7.100   9.083   5.949 -0.4141  0.1163 -0.3675
  847MOL0     O14245   7.056   9.037   6.074 -0.5460 -0.6502  0.3492
  847MOL0     C14246   7.156   8.987   6.162  0.1970 -1.2241  0.3772
  847MOL0     C14247   7.133   9.056   6.305 -1.2768 -0.2859 -0.1483
  847MOL0     C14248   7.197   9.196   6.310 -0.1712 -0.3868 -0.9055
  847MOL0     C14249   7.181   9.250   6.451 -1.1417  0.5206  0.8846
  847MOL0     C14250   7.261   9.379   6.478  0.1793 -0.1473 -0.6836
  847MOL0     C14251   7.248   9.424   6.626 -0.0062  0.1335 -0.5179
  847MOL0     C14252   7.120   9.484   6.656 -0.4344 -0.6543 -0.5637
  847MOL0     C14253   7.106   9.496   6.802  0.7545  0.3638  0.0542
  847MOL0    Cl14254   6.941   9.547   6.834  0.2445 -0.2143  0.2487
  847MOL0     C14255   7.045   9.210   5.913 -0.3189  0.2165 -0.3749
  847MOL0     C14256   7.078   9.265   5.788 -0.8745 -0.0964 -0.5380
  847MOL0     O14257   7.375   9.357   5.723 -0.4768  0.3559  0.2199
  847MOL0     C14258   7.286   9.404   5.377 -0.2282  0.2870 -0.7350
  847MOL0     C14259   7.325   9.485   5.269 -1.1497 -0.3437 -0.5020
  847MOL0     N14260   7.895  10.186   4.924 -0.1803 -0.7888 -0.2319
  847MOL0     N14261   7.947  10.289   4.972 -0.8168  0.4862 -0.3606
  847MOL0     C14262   8.522  10.185   5.854 -1.1529  0.0509  1.1075
  847MOL0     C14263   8.584  10.108   5.950 -0.1991 -0.7050 -0.2318
  847MOL0     C14264   8.679   9.965   6.368 -0.2410  0.0323  0.2994
  847MOL0     C14265   8.686   9.826   6.345  0.5335  0.8898 -0.1782
  847MOL0     C14266   8.755   9.741   6.444 -0.4773 -1.3616 -0.1582
  847MOL0     C14267   8.788   9.788   6.564  0.2325 -0.9298 -0.8675
  847MOL0     O14268   8.844   9.708   6.659  0.3435 -0.3117  0.5495
  847MOL0     C14269   8.733   9.646   6.739 -1.0734 -0.4103  0.1706
  847MOL0     C14270   8.802   9.616   6.882  0.3499  0.5846  1.1716
  847MOL0     C14271   8.843   9.744   6.956  1.0651  0.6694  0.6968
  847MOL0     C14272   8.873   9.730   7.102 -0.2632 -1.0015  0.2493
  847MOL0     C14273   9.005   9.675   7.128  0.2307  0.0466 -0.4080
  847MOL0     C14274   9.107   9.619   7.149  0.0137  1.0116  0.3534
  847MOL0     C14275   8.780   9.923   6.588 -0.3479 -0.5908  0.0447
  847MOL0     C14276   8.725  10.016   6.496 -0.0000 -0.3783  0.4688
  847MOL0     C14277   8.735  10.161   6.523 -0.6747 -0.0238 -0.6671
  847MOL0     H14278   8.307  10.024   6.127  0.9977  1.4470  1.6046
  847MOL0     H14279   8.198  10.119   5.933  0.4671 -1.6510  0.3724
  847MOL0     H14280   8.261  10.457   5.839  1.1334  4.0903  0.8562
  847MOL0     H14281   8.434  10.439   5.834 -0.0883 -2.3941  2.9895
  847MOL0     H14282   8.414  10.437   5.565  3.0816  0.7197  0.0227
  847MOL0     H14283   8.401  10.587   5.670  0.5936 -1.2672  1.0811
  847MOL0     H14284   8.175  10.591   5.637  2.4849  0.1752  2.5946
  847MOL0     H14285   8.163  10.414   5.584  0.6907  0.3261 -1.0651
  847MOL0     H14286   8.282  10.623   5.400 -2.2676  0.4450 -0.6905
  847MOL0     H14287   8.238  10.459   5.361 -1.0804 -0.7091 -0.4485
  847MOL0     H14288   8.056  10.688   5.453 -0.2686  1.5813 -1.1560
  847MOL0     H14289   8.082  10.658   5.291  1.1550 -0.4401  0.2496
  847MOL0     H14290   7.957  10.458   5.506 -1.0611 -3.5716 -1.6305
  847MOL0     H14291   7.862  10.573   5.405 -0.3637  0.0713 -1.2135
  847MOL0     H14292   7.841  10.346   5.346 -0.3739  2.6452  4.6179
  847MOL0     H14293   8.010  10.328   5.322  1.8940  1.8986 -1.4683
  847MOL0     H14294   7.833  10.522   5.155 -0.6872 -0.3796  1.2415
  847MOL0     H14295   8.001  10.492   5.135 -0.5808  1.1938  1.3852
  847MOL0     H14296   7.697  10.241   5.182  0.1104 -1.5765  0.4040
  847MOL0     H14297   7.588  10.079   4.967  0.4916  0.4395 -0.0117
  847MOL0     H14298   7.705   9.996   4.869 -2.4021  0.7373 -1.3700
  847MOL0     H14299   7.801   9.869   5.053 -0.5229 -1.2737 -3.6898
  847MOL0     H14300   7.711   9.965   5.167  3.2026 -2.1791  1.1678
  847MOL0     H14301   7.606   9.774   4.965 -3.3775  2.6565 -2.4294
  847MOL0     H14302   7.490   9.877   5.029 -0.4638 -0.5156  1.6360
  847MOL0     H14303   7.547   9.824   5.261 -0.6566  0.4876 -0.8259
  847MOL0     H14304   7.655   9.699   5.208  1.2345  0.8545 -3.6916
  847MOL0     H14305   7.585   9.648   5.410 -2.7190  3.5640  3.8828
  847MOL0     H14306   7.539   9.511   5.590  0.7263  0.7251  0.2622
  847MOL0     H14307   7.286   9.020   5.678  3.3503 -0.5945  3.0358
  847MOL0     H14308   7.225   8.914   5.897 -1.7854 -1.1706 -1.1678
  847MOL0     H14309   7.147   8.878   6.160 -3.3957 -1.0203 -1.0731
  847MOL0     H14310   7.251   9.020   6.119 -0.4957 -0.2077 -0.3988
  847MOL0     H14311   7.031   9.046   6.345 -1.0199 -0.1926  0.5538
  847MOL0     H14312   7.196   9.003   6.377 -0.2328  0.5315 -0.4444
  847MOL0     H14313   7.304   9.180   6.292  0.0663 -0.9787  0.8134
  847MOL0     H14314   7.151   9.272   6.247  1.7676  1.9337  0.2968
  847MOL0     H14315   7.203   9.177   6.530 -1.1184 -1.9904 -1.3314
  847MOL0     H14316   7.074   9.275   6.456 -0.8512  2.0920  0.0577
  847MOL0     H14317   7.226   9.457   6.409  2.1792  2.0150  0.6137
  847MOL0     H14318   7.367   9.360   6.459  1.0352  1.3267  2.0640
  847MOL0     H14319   7.272   9.343   6.696  2.7175  1.1553 -0.1628
  847MOL0     H14320   7.329   9.496   6.640  0.2836 -0.3487  0.4001
  847MOL0     H14321   7.038   9.421   6.620 -0.6354  0.2869 -1.8168
  847MOL0     H14322   7.130   9.585   6.616  0.1500 -0.0951  0.8828
  847MOL0     H14323   7.119   9.400   6.852  0.2073 -0.7965 -1.9146
  847MOL0     H14324   7.181   9.563   6.844  2.9039 -1.5006 -0.6279
  847MOL0     H14325   6.989   9.270   5.984 -0.1325  2.3555 -1.9481
  847MOL0     H14326   7.028   9.352   5.748 -3.2848 -1.6217 -1.0433
  847MOL0     H14327   7.207   9.331   5.366 -0.5564  0.6311 -0.7014
  847MOL0     H14328   7.265   9.485   5.178 -2.0250  1.5668  0.0383
  847MOL0     H14329   8.589  10.216   5.775  2.1871 -2.4895  2.6852
  847MOL0     H14330   8.691  10.098   5.961 -0.0990  0.8545  0.4025
  847MOL0     H14331   8.663   9.782   6.249 -1.6365 -2.1688  1.5688
  847MOL0     H14332   8.770   9.638   6.410 -2.2033 -0.9255 -2.5208
  847MOL0     H14333   8.712   9.557   6.679  0.9474 -1.0815  0.3785
  847MOL0     H14334   8.646   9.712   6.741 -0.0118  1.0575  0.3494
  847MOL0     H14335   8.892   9.554   6.870 -0.3845  0.0001 -2.2131
  847MOL0     H14336   8.724   9.568   6.941 -2.1889  2.6779 -0.2319
  847MOL0     H14337   8.766   9.820   6.941 -1.9401 -2.5685 -2.2734
  847MOL0     H14338   8.935   9.771   6.904  0.6160  5.3221  1.9204
  847MOL0     H14339   8.874   9.833   7.138  2.3858 -1.7102  2.5699
  847MOL0     H14340   8.799   9.683   7.167 -1.1587  0.6723  0.4898
  847MOL0     H14341   9.189   9.550   7.152 -0.8834 -0.2093 -1.3770
  847MOL0     H14342   8.823   9.950   6.684  1.1002 -0.7311 -0.5361
  847MOL0     H14343   8.796  10.195   6.438  0.6573  3.3515  1.4288
  847MOL0     H14344   8.641  10.216   6.536  0.0285  0.6509  2.4694
  847MOL0     H14345   8.788  10.182   6.616 -1.2036  0.7476 -0.5296
  848MOL0     O14346   0.776   6.765   5.005 -1.3035  0.3026 -0.2954
  848MOL0     C14347   0.679   6.696   4.988 -0.3116 -0.0768  0.4593
  848MOL0     O14348   0.566   6.680   5.077  0.9677  0.7729  0.5741
  848MOL0     C14349   0.545   6.771   5.182  0.3202  0.2764 -0.6311
  848MOL0     C14350   0.412   6.781   5.238 -0.0987 -0.5519 -0.2936
  848MOL0     C14351   0.390   6.860   5.361 -0.3441  0.4983  0.2138
  848MOL0     C14352   0.493   6.932   5.422  0.1139 -0.2542 -0.0676
  848MOL0     O14353   0.488   7.014   5.532  0.0265  0.3873  0.2321
  848MOL0     C14354   0.378   7.023   5.618  0.1250  0.3207 -0.4192
  848MOL0     C14355   0.303   7.155   5.601  0.3462  0.1361 -0.5709
  848MOL0     C14356   0.241   7.159   5.464  0.3599 -0.1376  0.2132
  848MOL0     C14357   0.192   7.306   5.442  0.0999  0.5109  0.5768
  848MOL0     C14358   0.132   7.324   5.312  0.5519 -0.3331  0.6549
  848MOL0     C14359   0.102   7.476   5.297 -0.3503 -0.1211 -0.0631
  848MOL0     C14360  -0.041   7.527   5.328 -0.1298 -0.1448 -0.2115
  848MOL0     C14361  -0.143   7.469   5.222 -0.6663 -0.1920  0.0713
  848MOL0     N14362  -0.282   7.523   5.236 -0.4591 -0.4394  0.0754
  848MOL0     C14363  -0.370   7.467   5.321  1.0192  0.8329 -0.4946
  848MOL0     C14364  -0.464   7.565   5.344 -0.3336  0.0960 -0.0795
  848MOL0     C14365  -0.596   7.568   5.424 -0.2070  0.4626  0.2728
  848MOL0     C14366  -0.590   7.457   5.527 -0.2599 -0.1562 -1.1196
  848MOL0     C14367  -0.718   7.444   5.610  1.2937 -0.2855 -0.5381
  848MOL0     C14368  -0.777   7.577   5.673 -0.5502  0.6120  0.4112
  848MOL0     O14369  -0.877   7.543   5.769  0.7209  0.2016  0.7552
  848MOL0     C14370  -0.971   7.633   5.802 -0.6461  0.1596  0.7498
  848MOL0     C14371  -0.964   7.771   5.763 -0.9304  0.1474 -0.6046
  848MOL0     C14372  -1.072   7.847   5.799  0.1452 -0.5715  0.4066
  848MOL0     C14373  -1.178   7.802   5.871 -0.6026  0.0689 -1.3064
  848MOL0     C14374  -1.283   7.892   5.922 -0.6495  0.2694 -0.7002
  848MOL0     O14375  -1.352   7.848   6.033 -0.2876 -0.1458  0.9925
  848MOL0     C14376  -1.458   7.927   6.071  0.3088  0.9283 -0.0866
  848MOL0     C14377  -1.481   7.953   6.204 -0.5168 -0.1240  0.6883
  848MOL0     C14378  -1.588   8.044   6.226 -0.3745 -0.2051  0.1954
  848MOL0     C14379  -1.679   8.092   6.130  0.0078  0.8355 -0.4607
  848MOL0     O14380  -1.785   8.171   6.168  0.4802 -0.8296 -0.1464
  848MOL0     C14381  -1.780   8.249   6.291 -0.2244 -1.2018 -1.3269
  848MOL0     C14382  -1.916   8.287   6.339  0.4018 -0.6419  0.6729
  848MOL0     C14383  -1.981   8.405   6.247 -0.4004  0.1171 -0.0061
  848MOL0     C14384  -2.120   8.422   6.301 -0.2779  0.0032 -0.8841
  848MOL0     C14385  -2.208   8.500   6.203 -0.0762 -0.3746 -0.1374
  848MOL0     C14386  -2.278   8.394   6.105  0.1167 -0.3711  0.4851
  848MOL0     C14387  -2.340   8.461   5.977 -1.0094  0.4387 -0.6728
  848MOL0     C14388  -2.425   8.359   5.904  0.3364 -0.1612  0.0572
  848MOL0    Cl14389  -2.490   8.440   5.762 -0.3414  0.3294 -0.3976
  848MOL0     C14390  -1.668   8.042   6.010 -0.7800  1.2914  0.4938
  848MOL0     C14391  -1.557   7.960   5.982 -0.7167  0.3132  0.2455
  848MOL0     O14392  -1.302   8.008   5.870  0.0869  0.1075  1.1656
  848MOL0     C14393  -1.174   7.671   5.914 -0.6121 -0.0551  0.2289
  848MOL0     C14394  -1.072   7.585   5.886  0.6527 -0.0025  0.6148
  848MOL0     N14395  -0.414   7.680   5.282 -0.3139  0.9011  0.3228
  848MOL0     N14396  -0.301   7.651   5.228  0.0736 -0.9385  0.4386
  848MOL0     C14397   0.620   6.924   5.367  0.4715 -0.3279  0.8289
  848MOL0     C14398   0.644   6.839   5.254  0.6663  0.0078  0.5112
  848MOL0     C14399   0.664   6.630   4.862  0.0283 -0.3853  0.6741
  848MOL0     C14400   0.538   6.630   4.812  0.4713  0.7473  0.4579
  848MOL0     C14401   0.502   6.540   4.709  0.0887  0.1090 -0.1413
  848MOL0     C14402   0.596   6.478   4.626  0.7726  0.4584  0.1591
  848MOL0     O14403   0.559   6.419   4.513 -0.5454 -0.3682  0.2369
  848MOL0     C14404   0.656   6.362   4.418 -0.1256 -0.1127  0.4465
  848MOL0     C14405   0.585   6.270   4.323 -0.4335 -0.3269 -0.1584
  848MOL0     C14406   0.678   6.165   4.258 -0.0381 -0.2416  1.1631
  848MOL0     C14407   0.783   6.231   4.179  0.0179  0.4266  0.3246
  848MOL0     C14408   0.851   6.140   4.084  0.5305 -0.1059 -0.6133
  848MOL0     C14409   0.910   6.072   4.003  0.7708 -0.1989 -0.2178
  848MOL0     C14410   0.733   6.488   4.674 -0.1235 -0.9781  0.7463
  848MOL0     C14411   0.758   6.541   4.797 -1.0110 -0.8534 -0.1947
  848MOL0     C14412   0.891   6.526   4.869  0.6017 -0.1695 -0.7094
  848MOL0     H14413   0.333   6.729   5.186 -1.2582  2.0226 -1.2796
  848MOL0     H14414   0.286   6.867   5.392 -1.7757 -5.6073 -1.7766
  848MOL0     H14415   0.309   6.939   5.607 -1.2300  1.6090 -2.3567
  848MOL0     H14416   0.413   7.017   5.722 -1.6488  0.4570  0.2317
  848MOL0     H14417   0.379   7.232   5.612  2.0599 -1.8129  2.4730
  848MOL0     H14418   0.217   7.175   5.666 -0.6695  1.3503 -2.1654
  848MOL0     H14419   0.161   7.085   5.451  0.2148 -0.0084  0.3659
  848MOL0     H14420   0.325   7.142   5.395  1.9623 -3.1765  2.6695
  848MOL0     H14421   0.113   7.330   5.515 -0.6602 -1.7882  0.5687
  848MOL0     H14422   0.281   7.370   5.452  1.0693 -0.5690 -0.7519
  848MOL0     H14423   0.209   7.294   5.240 -0.5570 -1.0490 -0.2671
  848MOL0     H14424   0.040   7.269   5.296 -0.9017  2.4008 -1.1997
  848MOL0     H14425   0.167   7.534   5.363  3.1055 -0.0852 -3.1619
  848MOL0     H14426   0.120   7.504   5.192 -0.7546 -0.5798 -0.2592
  848MOL0     H14427  -0.052   7.635   5.339  0.5258 -0.2364  1.7946
  848MOL0     H14428  -0.068   7.487   5.426 -1.2092 -1.4301 -0.9835
  848MOL0     H14429  -0.101   7.493   5.124  1.6908  2.1573  1.5312
  848MOL0     H14430  -0.147   7.360   5.236  2.2029 -0.3534  0.2667
  848MOL0     H14431  -0.376   7.371   5.371 -0.8513  0.5305 -1.2176
  848MOL0     H14432  -0.600   7.667   5.470  0.1449  1.2021 -1.2201
  848MOL0     H14433  -0.672   7.558   5.345  2.0950 -1.0632 -1.9270
  848MOL0     H14434  -0.566   7.366   5.470  0.5528  1.5315 -3.6202
  848MOL0     H14435  -0.514   7.471   5.604 -1.5926 -1.4905  0.5264
  848MOL0     H14436  -0.693   7.371   5.688  4.1140  0.3748 -0.7004
  848MOL0     H14437  -0.804   7.412   5.551 -0.6698  0.4252  1.7448
  848MOL0     H14438  -0.826   7.636   5.594 -3.5344 -2.7844 -0.5285
  848MOL0     H14439  -0.701   7.643   5.717 -0.0663  1.3153 -1.3906
  848MOL0     H14440  -0.880   7.815   5.710  0.6041  2.7775  3.4823
  848MOL0     H14441  -1.083   7.952   5.773  1.3479 -0.2775  1.0275
  848MOL0     H14442  -1.414   7.912   6.279  1.0672 -0.3449 -0.7795
  848MOL0     H14443  -1.596   8.058   6.334  0.1219  0.0066  0.2070
  848MOL0     H14444  -1.745   8.176   6.364  1.3052 -0.5942 -1.4088
  848MOL0     H14445  -1.711   8.333   6.279 -1.3809  0.2327  1.4215
  848MOL0     H14446  -1.973   8.195   6.354 -0.0337 -0.5971 -0.6012
  848MOL0     H14447  -1.925   8.321   6.442 -0.9006  2.4728 -0.3386
  848MOL0     H14448  -1.932   8.502   6.254 -1.5837  0.9426 -2.2411
  848MOL0     H14449  -1.998   8.381   6.142 -5.2954 -0.3808  0.6528
  848MOL0     H14450  -2.104   8.480   6.393 -2.1150 -0.8147  0.0139
  848MOL0     H14451  -2.172   8.331   6.331 -0.2867 -0.3612 -1.9716
  848MOL0     H14452  -2.147   8.576   6.153 -0.3762 -0.9217 -1.3865
  848MOL0     H14453  -2.278   8.565   6.257 -0.8521 -1.2619 -0.0546
  848MOL0     H14454  -2.202   8.322   6.074  0.3915  0.2303 -0.2839
  848MOL0     H14455  -2.362   8.342   6.151 -0.8986 -0.7979 -1.7075
  848MOL0     H14456  -2.268   8.502   5.906 -2.4558  0.5063 -2.1740
  848MOL0     H14457  -2.402   8.544   6.013 -0.8495  0.0407  0.5689
  848MOL0     H14458  -2.363   8.278   5.865 -1.1783 -0.3990 -2.0608
  848MOL0     H14459  -2.499   8.300   5.960 -0.8878 -2.3063 -3.4694
  848MOL0     H14460  -1.742   8.060   5.932 -0.7404  0.0372  0.1454
  848MOL0     H14461  -1.546   7.946   5.875 -3.0081  5.6493 -1.0040
  848MOL0     H14462  -1.255   7.645   5.982 -2.3742  2.8575 -0.5941
  848MOL0     H14463  -1.088   7.487   5.929 -0.0530  0.5534  1.6616
  848MOL0     H14464   0.713   6.952   5.415  1.9156 -3.0490 -0.1136
  848MOL0     H14465   0.747   6.829   5.221  0.0767 -2.8915 -0.7405
  848MOL0     H14466   0.454   6.673   4.866  0.7632 -1.8187  3.2260
  848MOL0     H14467   0.397   6.543   4.683  0.0181  2.5979  0.1662
  848MOL0     H14468   0.723   6.296   4.473  1.7969  0.8384 -0.6549
  848MOL0     H14469   0.710   6.448   4.378  1.2869 -1.0225  0.3236
  848MOL0     H14470   0.533   6.338   4.254  1.2582  1.1893  0.0101
  848MOL0     H14471   0.511   6.216   4.384  1.0281 -2.7622 -0.4087
  848MOL0     H14472   0.633   6.088   4.195  0.9908  0.6840 -0.8187
  848MOL0     H14473   0.733   6.117   4.339  2.6129  2.0088  0.8727
  848MOL0     H14474   0.754   6.317   4.118  1.7903  0.9372  0.1246
  848MOL0     H14475   0.855   6.255   4.258 -1.0645 -1.3667  1.9515
  848MOL0     H14476   0.936   5.998   3.931  2.9863  1.0407 -0.7728
  848MOL0     H14477   0.806   6.444   4.607  0.3523  1.5711 -0.5373
  848MOL0     H14478   0.885   6.526   4.979 -0.6052 -1.3793 -0.7481
  848MOL0     H14479   0.942   6.438   4.830  1.7847 -0.5635  1.5192
  848MOL0     H14480   0.954   6.608   4.834  1.1422 -0.2710 -0.0062
  849MOL0     O14481   8.389   4.763   2.234 -0.0158 -0.6627  0.0136
  849MOL0     C14482   8.416   4.852   2.315  0.6268  0.7810 -0.5095
  849MOL0     O14483   8.346   4.876   2.430  1.2132  0.0982 -1.1088
  849MOL0     C14484   8.246   4.779   2.465 -0.1409  0.1870 -0.7187
  849MOL0     C14485   8.248   4.640   2.448  0.2445 -0.7201 -0.8139
  849MOL0     C14486   8.148   4.561   2.484 -0.6579  0.2739 -0.7482
  849MOL0     C14487   8.033   4.612   2.550 -0.5990  0.0130  0.3201
  849MOL0     O14488   7.922   4.540   2.587  0.1809  0.1891 -0.2766
  849MOL0     C14489   7.940   4.421   2.676 -0.2145  0.6056 -0.2204
  849MOL0     C14490   7.832   4.325   2.655  0.7784  0.5920 -0.0390
  849MOL0     C14491   7.865   4.191   2.737 -0.5336  1.2321 -0.1273
  849MOL0     C14492   7.744   4.100   2.724  0.9550  0.5738  0.3476
  849MOL0     C14493   7.640   4.130   2.816  0.1888 -1.1667 -0.1862
  849MOL0     C14494   7.665   4.094   2.964 -0.1449 -1.0226 -0.1911
  849MOL0     C14495   7.698   3.948   2.997  0.2503  1.1579  0.2232
  849MOL0     C14496   7.560   3.872   2.992  0.1945 -1.0681 -0.6202
  849MOL0     N14497   7.450   3.926   3.068  0.6020 -0.1172 -0.7126
  849MOL0     C14498   7.438   3.945   3.202  0.0839  0.3439  0.1331
  849MOL0     C14499   7.322   4.010   3.228 -0.1775  0.3261 -0.0793
  849MOL0     C14500   7.255   4.025   3.368  0.7007  0.2827 -0.1273
  849MOL0     C14501   7.353   4.101   3.460 -0.2042 -0.2656  0.6339
  849MOL0     C14502   7.278   4.163   3.587 -0.0537  0.1652  0.6029
  849MOL0     C14503   7.354   4.257   3.690 -0.2094  0.3239 -0.8636
  849MOL0     O14504   7.444   4.161   3.749  0.0686  0.1094  0.6677
  849MOL0     C14505   7.485   4.196   3.874  0.2903 -0.0444  0.3792
  849MOL0     C14506   7.412   4.177   3.986  0.9175  0.2474 -0.6418
  849MOL0     C14507   7.466   4.207   4.112  0.9827 -0.6828  0.1749
  849MOL0     C14508   7.594   4.272   4.123 -0.0467 -0.0963  0.7777
  849MOL0     C14509   7.649   4.308   4.250  0.6662  0.1319  0.1648
  849MOL0     O14510   7.776   4.358   4.251 -0.2312  0.4254  0.2558
  849MOL0     C14511   7.842   4.374   4.373  0.0434  0.7807  0.2151
  849MOL0     C14512   7.835   4.269   4.472 -0.7386 -1.4612 -0.5945
  849MOL0     C14513   7.927   4.291   4.588 -0.1165  0.8095 -0.5337
  849MOL0     C14514   7.992   4.416   4.599 -0.7496 -0.4894 -0.0586
  849MOL0     O14515   8.070   4.428   4.712 -0.2385 -0.4647  0.2499
  849MOL0     C14516   8.210   4.471   4.691 -0.4207 -0.6803 -0.7435
  849MOL0     C14517   8.302   4.478   4.813  0.1190 -1.6874 -1.1530
  849MOL0     C14518   8.411   4.588   4.805 -0.1051 -0.0756 -0.5089
  849MOL0     C14519   8.364   4.732   4.840 -0.1810 -0.4497  0.2977
  849MOL0     C14520   8.473   4.819   4.799  0.3669 -0.3121 -0.7337
  849MOL0     C14521   8.445   4.971   4.814  0.1215  0.6284  0.2884
  849MOL0     C14522   8.566   5.055   4.772 -0.6733  1.0417 -0.1734
  849MOL0     C14523   8.520   5.194   4.737 -1.2392 -0.5041  0.1395
  849MOL0    Cl14524   8.434   5.200   4.585  0.6495  0.4145  0.4068
  849MOL0     C14525   7.979   4.527   4.507 -1.6984  0.3856 -0.4544
  849MOL0     C14526   7.909   4.495   4.393 -0.2710  0.4069  0.7062
  849MOL0     O14527   7.570   4.289   4.350  0.8425 -0.2080  0.9258
  849MOL0     C14528   7.656   4.301   3.996 -0.1733  0.9425 -0.3756
  849MOL0     C14529   7.607   4.254   3.878 -0.0011 -0.0808  0.4586
  849MOL0     N14530   7.262   4.021   3.106 -0.2998 -0.8455 -0.3327
  849MOL0     N14531   7.333   3.966   3.011  0.1641 -0.2902 -0.6752
  849MOL0     C14532   8.030   4.755   2.565  0.6073 -0.2264  0.2426
  849MOL0     C14533   8.135   4.828   2.522 -0.0306 -0.1494 -0.8373
  849MOL0     C14534   8.510   4.962   2.277 -0.5475  0.0882  0.1970
  849MOL0     C14535   8.578   5.023   2.379  0.6437  0.5065  0.0266
  849MOL0     C14536   8.663   5.135   2.362 -0.1738 -0.6138 -0.5185
  849MOL0     C14537   8.698   5.173   2.230  0.5902  0.6594  0.0605
  849MOL0     O14538   8.808   5.245   2.199  0.4009  0.0602 -0.0980
  849MOL0     C14539   8.875   5.304   2.310  0.4486  0.1162  0.2250
  849MOL0     C14540   9.009   5.381   2.260  0.4151  1.2404 -1.6670
  849MOL0     C14541   8.996   5.471   2.146 -0.7384 -0.8451  0.2354
  849MOL0     C14542   8.949   5.617   2.175  0.6951  0.0495 -1.0770
  849MOL0     C14543   9.024   5.680   2.285 -0.2870 -1.0125 -0.0333
  849MOL0     C14544   9.098   5.744   2.352  0.6459  0.1146 -0.0326
  849MOL0     C14545   8.622   5.113   2.124 -0.5816 -0.9206  0.0321
  849MOL0     C14546   8.526   5.013   2.148 -0.6324 -0.2493  0.4649
  849MOL0     C14547   8.452   4.961   2.025  0.5553 -0.0771 -0.6968
  849MOL0     H14548   8.334   4.597   2.396  0.9655 -2.5412  1.6856
  849MOL0     H14549   8.161   4.455   2.470  4.2163 -0.1191  3.5575
  849MOL0     H14550   8.039   4.379   2.662  1.2925  4.2016 -1.6476
  849MOL0     H14551   7.935   4.464   2.777 -0.0453 -0.1596  0.1184
  849MOL0     H14552   7.830   4.305   2.548 -0.1369  2.5800 -0.4485
  849MOL0     H14553   7.731   4.364   2.673 -0.4562 -1.9011 -1.0878
  849MOL0     H14554   7.884   4.215   2.842  1.1322  0.0665 -0.1272
  849MOL0     H14555   7.941   4.127   2.692 -3.4633 -1.7888 -1.2134
  849MOL0     H14556   7.705   4.106   2.622 -0.2612 -0.3014  0.7387
  849MOL0     H14557   7.777   4.000   2.752  0.9139  0.6777  0.7825
  849MOL0     H14558   7.624   4.238   2.805 -0.4646 -1.0993  1.2185
  849MOL0     H14559   7.554   4.082   2.769 -2.3573  2.2611  0.5555
  849MOL0     H14560   7.755   4.149   2.995  0.1566 -2.4212  1.5598
  849MOL0     H14561   7.579   4.128   3.022  0.9792  0.2806  0.7749
  849MOL0     H14562   7.756   3.937   3.089  5.0686  2.6384 -2.3073
  849MOL0     H14563   7.750   3.890   2.920 -0.6379  1.6431 -0.7654
  849MOL0     H14564   7.526   3.874   2.888  0.8110  0.3594 -0.8222
  849MOL0     H14565   7.577   3.770   3.026  4.0333 -0.3428  0.0522
  849MOL0     H14566   7.510   3.909   3.275 -0.5023 -2.2694 -0.4696
  849MOL0     H14567   7.158   4.076   3.364 -0.3969 -1.7321 -1.1079
  849MOL0     H14568   7.233   3.925   3.408  0.1850  1.1248  1.8298
  849MOL0     H14569   7.450   4.058   3.488  1.3877  1.9222 -1.0947
  849MOL0     H14570   7.391   4.189   3.407 -1.5301  0.0779  0.2260
  849MOL0     H14571   7.224   4.075   3.624 -1.5525 -0.7853 -3.3735
  849MOL0     H14572   7.198   4.224   3.543 -0.7365  0.7101  2.4908
  849MOL0     H14573   7.282   4.309   3.754  1.1362  3.8254 -1.9362
  849MOL0     H14574   7.412   4.342   3.653  1.8108 -1.1293 -1.2082
  849MOL0     H14575   7.314   4.132   3.983  0.6909  0.7063 -0.2471
  849MOL0     H14576   7.409   4.186   4.202  2.1988 -1.2685  0.8441
  849MOL0     H14577   7.762   4.189   4.477 -3.7025  1.0992  2.9255
  849MOL0     H14578   7.929   4.217   4.667  0.8333  0.1630 -1.1560
  849MOL0     H14579   8.251   4.401   4.617 -1.8428 -2.5488  0.1651
  849MOL0     H14580   8.209   4.572   4.648 -2.3427 -0.1746  0.3835
  849MOL0     H14581   8.241   4.493   4.903  2.1387 -3.1922  0.5724
  849MOL0     H14582   8.351   4.385   4.840  1.0938 -0.4270  1.7926
  849MOL0     H14583   8.484   4.567   4.884  0.0069  3.4219  0.5158
  849MOL0     H14584   8.469   4.587   4.712 -2.5086  1.9321 -2.1457
  849MOL0     H14585   8.346   4.728   4.948 -0.5477 -3.1471  0.2135
  849MOL0     H14586   8.270   4.761   4.793  1.0205  2.6772 -0.4325
  849MOL0     H14587   8.496   4.814   4.692  3.4232  0.9200 -0.2577
  849MOL0     H14588   8.558   4.795   4.864 -0.2819  0.6933  0.5131
  849MOL0     H14589   8.365   4.992   4.742  3.3323  1.3922 -3.3724
  849MOL0     H14590   8.411   5.001   4.914  0.1954 -2.8852  1.5025
  849MOL0     H14591   8.623   5.013   4.688  0.3947 -1.3581  1.6384
  849MOL0     H14592   8.629   5.040   4.860 -2.4705 -1.0739  0.8433
  849MOL0     H14593   8.450   5.229   4.814  0.7792  1.4013  1.2181
  849MOL0     H14594   8.602   5.261   4.711 -1.9214 -1.2334 -4.9301
  849MOL0     H14595   8.035   4.617   4.531  1.2376 -1.8069  1.4970
  849MOL0     H14596   7.905   4.564   4.310  1.5474  2.1829  2.0025
  849MOL0     H14597   7.750   4.352   3.985 -0.7906  2.5688  1.2691
  849MOL0     H14598   7.667   4.259   3.788  0.0235 -2.0446  0.3266
  849MOL0     H14599   7.951   4.817   2.605 -0.4512 -0.2335 -1.7331
  849MOL0     H14600   8.130   4.937   2.527  2.4941  0.0154 -0.6227
  849MOL0     H14601   8.555   4.979   2.476 -1.2074  2.3693  0.5181
  849MOL0     H14602   8.713   5.184   2.446 -0.9628  1.5869 -1.2529
  849MOL0     H14603   8.909   5.211   2.358  1.7180 -0.4107 -1.5718
  849MOL0     H14604   8.807   5.374   2.359 -1.5907 -0.6361 -1.3708
  849MOL0     H14605   9.076   5.301   2.225 -0.4025 -0.4318  0.3261
  849MOL0     H14606   9.047   5.431   2.350 -2.7311  0.6718  0.0948
  849MOL0     H14607   8.923   5.432   2.075 -1.3830  2.4301 -1.0814
  849MOL0     H14608   9.092   5.473   2.093 -1.9747  2.2226 -2.2438
  849MOL0     H14609   8.976   5.677   2.088 -0.7321  3.0908  0.4067
  849MOL0     H14610   8.843   5.625   2.202  1.6021  2.6339  2.4899
  849MOL0     H14611   9.168   5.801   2.409 -1.4317  2.9462 -0.1044
  849MOL0     H14612   8.651   5.137   2.022 -2.8322  1.8553 -0.0574
  849MOL0     H14613   8.351   4.920   2.036  1.3118 -1.7563  0.5217
  849MOL0     H14614   8.453   5.041   1.950 -3.4286  0.0818 -0.7733
  849MOL0     H14615   8.522   4.881   2.000  1.4365  0.0537  1.1741
  850MOL0     O14616   3.671   5.404   0.010 -0.4915 -1.1202 -0.0591
  850MOL0     C14617   3.599   5.345   0.092 -0.2849  0.3724 -0.2481
  850MOL0     O14618   3.618   5.215   0.139  0.3097 -0.6736 -0.6540
  850MOL0     C14619   3.719   5.141   0.071  0.8430 -0.2439 -0.1375
  850MOL0     C14620   3.692   5.054  -0.043 -0.0495  0.0457 -0.0798
  850MOL0     C14621   3.796   4.974  -0.102 -0.8860 -0.2416  0.5869
  850MOL0     C14622   3.924   4.976  -0.047 -0.6760  0.2404  0.6105
  850MOL0     O14623   4.022   4.899  -0.093 -0.4871 -0.5624  0.3721
  850MOL0     C14624   4.148   4.961  -0.103  0.1120 -0.1584  0.8835
  850MOL0     C14625   4.215   4.897  -0.229  0.6834  0.8085 -1.3053
  850MOL0     C14626   4.288   4.776  -0.175  0.5037  0.4215  0.1280
  850MOL0     C14627   4.408   4.721  -0.268  0.4544  0.8482  0.8998
  850MOL0     C14628   4.471   4.598  -0.207 -0.1007  0.0975  0.3804
  850MOL0     C14629   4.377   4.473  -0.225 -0.2944 -0.9250 -0.7502
  850MOL0     C14630   4.442   4.348  -0.159 -1.2929 -0.3939  1.0612
  850MOL0     C14631   4.369   4.212  -0.167 -0.2482  0.2180  0.0673
  850MOL0     N14632   4.462   4.103  -0.190 -0.3122  0.4783 -0.3065
  850MOL0     C14633   4.501   4.053  -0.315  0.5034 -0.2067 -0.0275
  850MOL0     C14634   4.571   3.939  -0.299 -0.6599  0.2206  1.1747
  850MOL0     C14635   4.626   3.853  -0.405 -0.0988  0.4831 -0.4235
  850MOL0     C14636   4.558   3.715  -0.403  0.2832 -0.0152 -0.8473
  850MOL0     C14637   4.596   3.609  -0.507  0.0345 -0.6379  0.5295
  850MOL0     C14638   4.731   3.551  -0.479  0.3133 -0.2156 -1.1048
  850MOL0     O14639   4.778   3.500  -0.601 -1.0333  0.2831  0.1554
  850MOL0     C14640   4.860   3.392  -0.583 -0.1445 -0.3030  0.6983
  850MOL0     C14641   4.972   3.409  -0.502  0.4646  1.0154  0.1692
  850MOL0     C14642   5.061   3.306  -0.482  0.5175 -0.3400  0.1683
  850MOL0     C14643   5.044   3.178  -0.540  0.2142 -0.0989  0.1723
  850MOL0     C14644   5.131   3.064  -0.493 -0.3201  0.7602  0.0491
  850MOL0     O14645   5.095   2.936  -0.535 -0.5136  0.1959 -0.1826
  850MOL0     C14646   5.182   2.822  -0.522 -0.5167 -0.2117  0.9098
  850MOL0     C14647   5.130   2.693  -0.505 -0.3786  0.1604  0.3037
  850MOL0     C14648   5.213   2.581  -0.522  0.2204  0.6539  0.2274
  850MOL0     C14649   5.345   2.592  -0.571  0.4259 -0.4447 -0.3082
  850MOL0     O14650   5.411   2.476  -0.609 -0.5065 -0.0066 -1.3123
  850MOL0     C14651   5.544   2.490  -0.647 -0.1282  0.0657  0.2178
  850MOL0     C14652   5.613   2.354  -0.610  0.0804 -0.6594  0.0602
  850MOL0     C14653   5.621   2.262  -0.732  0.3612 -0.6024  0.3761
  850MOL0     C14654   5.738   2.275  -0.836  1.2280 -0.4295  0.0896
  850MOL0     C14655   5.782   2.139  -0.893 -0.1922 -0.2206  0.1621
  850MOL0     C14656   5.662   2.069  -0.962 -0.3395 -0.3970  0.5681
  850MOL0     C14657   5.722   2.021  -1.107  0.3478 -0.5099 -0.3993
  850MOL0     C14658   5.631   1.916  -1.181  0.5647  1.3866 -0.0820
  850MOL0    Cl14659   5.482   1.995  -1.193  0.0998  0.8125 -0.1125
  850MOL0     C14660   5.397   2.725  -0.581 -0.2415 -0.2813 -0.6725
  850MOL0     C14661   5.313   2.837  -0.563  0.4557 -0.0001 -0.0783
  850MOL0     O14662   5.228   3.095  -0.424 -0.0159  0.2095 -0.3211
  850MOL0     C14663   4.939   3.166  -0.628  0.9722 -0.8083  0.1138
  850MOL0     C14664   4.850   3.272  -0.651  0.4905  0.0444 -0.5377
  850MOL0     N14665   4.575   3.907  -0.162  0.4496 -0.5145  0.3774
  850MOL0     N14666   4.499   4.001  -0.096  0.0219  0.4154  0.9617
  850MOL0     C14667   3.940   5.037   0.078  0.2604 -0.4947 -0.2304
  850MOL0     C14668   3.841   5.123   0.128  0.7646  0.0020  0.3384
  850MOL0     C14669   3.495   5.420   0.164  0.4978 -0.7249 -1.1288
  850MOL0     C14670   3.376   5.353   0.189  0.0505  0.5281 -0.4037
  850MOL0     C14671   3.268   5.406   0.257 -0.7028 -0.2095 -0.3465
  850MOL0     C14672   3.274   5.542   0.300  0.7967  1.0331  0.3152
  850MOL0     O14673   3.174   5.608   0.350 -0.8255  0.2532 -0.1159
  850MOL0     C14674   3.129   5.726   0.287 -0.7713 -0.3839  0.8745
  850MOL0     C14675   2.983   5.706   0.250  0.2773  1.2891  0.7458
  850MOL0     C14676   2.964   5.614   0.118 -0.9961 -0.4429 -0.6410
  850MOL0     C14677   2.856   5.684   0.037 -0.2204  0.5005 -0.3715
  850MOL0     C14678   2.719   5.665   0.081  0.1422 -0.3589 -0.4685
  850MOL0     C14679   2.605   5.642   0.105  0.4291 -0.0033  0.2433
  850MOL0     C14680   3.394   5.613   0.289  0.2418 -0.8130 -0.6476
  850MOL0     C14681   3.502   5.555   0.220 -0.0710 -0.3417 -0.1278
  850MOL0     C14682   3.635   5.636   0.213  0.5204 -0.3099 -0.3407
  850MOL0     H14683   3.593   5.055  -0.088  0.3456 -1.3548 -1.0726
  850MOL0     H14684   3.788   4.923  -0.197 -0.8568  0.2477  0.3191
  850MOL0     H14685   4.143   5.067  -0.130 -0.4403 -0.7447 -1.5710
  850MOL0     H14686   4.211   4.944  -0.016  1.7193  0.2109 -0.1629
  850MOL0     H14687   4.294   4.961  -0.271  1.0681  0.3965 -1.2182
  850MOL0     H14688   4.138   4.883  -0.306 -0.6669  2.6107 -0.3659
  850MOL0     H14689   4.214   4.697  -0.159  1.5401 -1.3703 -3.0518
  850MOL0     H14690   4.336   4.793  -0.078 -0.8713 -0.5710  1.0220
  850MOL0     H14691   4.362   4.724  -0.367 -1.2890  0.9801  1.6883
  850MOL0     H14692   4.477   4.806  -0.269 -0.3733  1.6058 -1.8708
  850MOL0     H14693   4.575   4.580  -0.237 -0.2167 -4.3081  1.8276
  850MOL0     H14694   4.470   4.609  -0.098  0.0920 -0.2049  0.4124
  850MOL0     H14695   4.284   4.496  -0.173  0.5160 -1.1935  0.8629
  850MOL0     H14696   4.363   4.458  -0.333  0.4005 -1.8141 -0.7273
  850MOL0     H14697   4.467   4.365  -0.054  3.4739 -1.0790  0.2412
  850MOL0     H14698   4.535   4.337  -0.215 -0.2531  3.2627  1.7954
  850MOL0     H14699   4.316   4.202  -0.072 -1.8623  2.0710 -0.5684
  850MOL0     H14700   4.310   4.218  -0.259  0.2267  2.8004 -0.1374
  850MOL0     H14701   4.468   4.095  -0.409 -0.1796  0.7016  0.5930
  850MOL0     H14702   4.604   3.906  -0.498  1.0293  4.4850  1.3622
  850MOL0     H14703   4.734   3.843  -0.390  0.0639  2.6349  0.2381
  850MOL0     H14704   4.556   3.665  -0.306 -2.0174 -1.4287 -1.5520
  850MOL0     H14705   4.454   3.735  -0.428  0.3884 -0.9846 -2.1679
  850MOL0     H14706   4.604   3.660  -0.603  3.1697 -0.8125  0.5934
  850MOL0     H14707   4.528   3.523  -0.501  1.3430 -1.8160 -0.7215
  850MOL0     H14708   4.709   3.481  -0.398 -0.1629 -1.1838 -2.0529
  850MOL0     H14709   4.795   3.633  -0.446  1.4469 -0.7040 -2.0171
  850MOL0     H14710   4.993   3.506  -0.458  4.1118  0.8403 -0.8836
  850MOL0     H14711   5.145   3.334  -0.419  1.0298 -2.1657  0.3723
  850MOL0     H14712   5.027   2.693  -0.472 -0.2390  1.4239  0.8025
  850MOL0     H14713   5.171   2.481  -0.519  2.7576 -0.4874  2.1075
  850MOL0     H14714   5.550   2.518  -0.752 -0.4317  0.1994  0.2344
  850MOL0     H14715   5.592   2.564  -0.582  4.9100 -2.5396 -0.0876
  850MOL0     H14716   5.709   2.368  -0.561  0.6014  3.8973 -1.8015
  850MOL0     H14717   5.548   2.299  -0.542 -1.6353 -1.1146 -1.8294
  850MOL0     H14718   5.626   2.160  -0.692 -0.1369 -1.5151 -1.7586
  850MOL0     H14719   5.535   2.280  -0.796  2.1234  3.5052 -1.1875
  850MOL0     H14720   5.826   2.322  -0.790  0.7878 -0.9061  1.4594
  850MOL0     H14721   5.712   2.340  -0.921 -1.8929 -1.8358 -0.1725
  850MOL0     H14722   5.832   2.081  -0.815  0.9127 -0.4179 -0.6590
  850MOL0     H14723   5.866   2.152  -0.962 -1.0825 -2.1015 -1.3733
  850MOL0     H14724   5.620   1.989  -0.900 -3.6139 -0.0545 -0.9921
  850MOL0     H14725   5.574   2.131  -0.979 -1.4830 -1.9259  0.7366
  850MOL0     H14726   5.820   1.973  -1.100  1.1008  1.0880  0.6448
  850MOL0     H14727   5.743   2.113  -1.162  2.6462  0.6962  2.2331
  850MOL0     H14728   5.672   1.869  -1.271  2.2431 -0.9608  1.7763
  850MOL0     H14729   5.623   1.830  -1.114  1.6446  1.0035 -0.4209
  850MOL0     H14730   5.484   2.731  -0.645  0.4520 -0.2992  0.2456
  850MOL0     H14731   5.354   2.932  -0.596  0.3036  0.7658  1.8420
  850MOL0     H14732   4.923   3.075  -0.685  0.4510 -0.5420 -0.1704
  850MOL0     H14733   4.771   3.263  -0.725 -0.0833  2.6826 -0.3494
  850MOL0     H14734   4.028   5.027   0.140  3.4637 -0.4322 -4.2884
  850MOL0     H14735   3.859   5.164   0.227 -2.5830 -1.4709  1.7027
  850MOL0     H14736   3.383   5.248   0.160  1.9227  0.9310 -1.6075
  850MOL0     H14737   3.179   5.346   0.272  1.1584 -3.9948 -2.8485
  850MOL0     H14738   3.188   5.742   0.196  0.7021 -1.9222  1.4952
  850MOL0     H14739   3.160   5.815   0.342 -1.5003  0.7371 -0.4558
  850MOL0     H14740   2.941   5.807   0.238  1.3461  2.0167  2.6752
  850MOL0     H14741   2.926   5.663   0.333  0.2675  1.3703  0.7824
  850MOL0     H14742   2.921   5.521   0.157 -0.3851 -0.1342  0.8590
  850MOL0     H14743   3.055   5.600   0.059 -1.1495 -1.3874 -0.6732
  850MOL0     H14744   2.875   5.792   0.036  0.5467  0.3768  0.0777
  850MOL0     H14745   2.860   5.642  -0.063  4.0398  1.2786 -0.7434
  850MOL0     H14746   2.498   5.634   0.111  0.1905  1.3473 -1.4578
  850MOL0     H14747   3.403   5.717   0.320  1.2932 -1.0379 -0.1721
  850MOL0     H14748   3.662   5.676   0.115  0.1022  1.0082  0.0625
  850MOL0     H14749   3.648   5.714   0.289  3.0663  0.4312 -1.4319
  850MOL0     H14750   3.721   5.574   0.239  0.1410 -0.1168  1.5126
  851MOL0     O14751   2.835   3.602   1.569  0.5542  0.5880 -0.9106
  851MOL0     C14752   2.850   3.704   1.504  1.1363 -0.5262 -0.7259
  851MOL0     O14753   2.913   3.717   1.391  0.4425  0.0185  0.1261
  851MOL0     C14754   3.021   3.639   1.344  0.2563  0.1655  0.3188
  851MOL0     C14755   3.048   3.650   1.209 -0.3580 -0.4780 -0.4559
  851MOL0     C14756   3.145   3.576   1.150  0.4376  0.0053  1.1610
  851MOL0     C14757   3.212   3.474   1.216 -0.5176  0.2419  0.6049
  851MOL0     O14758   3.292   3.393   1.145  0.3552  0.3693  0.0711
  851MOL0     C14759   3.355   3.275   1.206  0.2095  0.3545 -0.0526
  851MOL0     C14760   3.471   3.234   1.120 -1.0241 -0.4341  0.8725
  851MOL0     C14761   3.582   3.339   1.089  0.0508 -0.0145 -0.5497
  851MOL0     C14762   3.696   3.336   1.194  0.5833 -0.5923  0.2104
  851MOL0     C14763   3.825   3.407   1.133  0.2952  0.0316  0.0246
  851MOL0     C14764   3.945   3.394   1.239  1.8152  0.3066 -1.0632
  851MOL0     C14765   4.075   3.472   1.192  0.6870 -0.8746  0.1008
  851MOL0     C14766   4.153   3.400   1.086  0.0595 -0.4298 -0.2531
  851MOL0     N14767   4.227   3.488   0.992 -0.7942 -0.5403  0.3169
  851MOL0     C14768   4.186   3.618   0.966  0.1850  0.5745  0.1631
  851MOL0     C14769   4.259   3.667   0.868  0.7271  0.1544 -0.8052
  851MOL0     C14770   4.260   3.807   0.813  0.1432  0.3817  0.1022
  851MOL0     C14771   4.297   3.924   0.909  0.4504 -0.2247 -0.6058
  851MOL0     C14772   4.205   4.041   0.892  0.1297  0.6335  0.4223
  851MOL0     C14773   4.078   4.040   0.970 -1.1367  0.8354  0.2579
  851MOL0     O14774   3.998   4.159   0.934 -0.0002  0.6692 -0.4670
  851MOL0     C14775   3.904   4.176   1.022  0.4897 -1.5038  0.8449
  851MOL0     C14776   3.943   4.207   1.155  0.4406  0.9439  0.3875
  851MOL0     C14777   3.836   4.239   1.252 -0.3118  0.9045 -0.3935
  851MOL0     C14778   3.701   4.242   1.212  0.3946 -0.4190 -0.3752
  851MOL0     C14779   3.593   4.274   1.308  0.7787 -0.9368 -0.1840
  851MOL0     O14780   3.643   4.322   1.431 -0.1445  0.0145 -0.3536
  851MOL0     C14781   3.554   4.368   1.523 -0.8918 -0.5984 -0.0844
  851MOL0     C14782   3.581   4.341   1.664 -0.0694 -0.5867 -0.5645
  851MOL0     C14783   3.502   4.398   1.759  0.1692 -0.6282 -0.1971
  851MOL0     C14784   3.393   4.484   1.731 -0.5362 -0.1626  0.1661
  851MOL0     O14785   3.330   4.532   1.838  0.5656  0.2408 -0.4511
  851MOL0     C14786   3.201   4.602   1.822  0.0666  0.0552 -0.0612
  851MOL0     C14787   3.145   4.600   1.971  0.6108 -0.8868  0.4129
  851MOL0     C14788   3.227   4.700   2.058 -0.8346 -0.7672 -0.1818
  851MOL0     C14789   3.181   4.677   2.202  0.5537 -0.7258 -1.0163
  851MOL0     C14790   3.029   4.695   2.223  0.0365  0.9359  0.7904
  851MOL0     C14791   3.006   4.838   2.239  0.2403  0.3000 -0.0634
  851MOL0     C14792   2.861   4.860   2.277  1.3138 -0.7164  0.0269
  851MOL0     C14793   2.776   4.873   2.150 -0.0162  0.0428 -0.4119
  851MOL0    Cl14794   2.831   5.008   2.037  0.0103 -0.0058  0.0233
  851MOL0     C14795   3.365   4.507   1.598 -0.2986 -0.0461  0.1766
  851MOL0     C14796   3.436   4.442   1.493 -0.7605 -0.6095  0.2071
  851MOL0     O14797   3.472   4.256   1.273 -0.7476 -0.8220 -0.5661
  851MOL0     C14798   3.671   4.212   1.077 -0.6783 -0.2978 -1.0353
  851MOL0     C14799   3.775   4.184   0.988 -0.3773 -0.1888  0.0249
  851MOL0     N14800   4.325   3.552   0.820 -0.1754 -1.2241 -0.5579
  851MOL0     N14801   4.306   3.444   0.889 -0.5180 -0.3990  0.5227
  851MOL0     C14802   3.181   3.461   1.348 -0.7678  0.3438 -0.1386
  851MOL0     C14803   3.073   3.531   1.408 -0.3864 -0.3944  0.6255
  851MOL0     C14804   2.759   3.818   1.543  0.2650  0.3852  0.6952
  851MOL0     C14805   2.648   3.844   1.452  0.0429 -0.4038 -0.3467
  851MOL0     C14806   2.564   3.949   1.492  0.8813 -0.7827  0.1664
  851MOL0     C14807   2.573   4.015   1.615  0.0716  0.1380  0.0254
  851MOL0     O14808   2.488   4.108   1.659  0.5289 -0.0548 -0.2380
  851MOL0     C14809   2.465   4.114   1.800  1.2453 -0.3927  0.2403
  851MOL0     C14810   2.317   4.161   1.839 -0.6769 -0.7195 -0.2139
  851MOL0     C14811   2.213   4.052   1.826  0.9145 -0.0059 -0.6187
  851MOL0     C14812   2.067   4.094   1.857 -0.8004 -0.3428  0.4491
  851MOL0     C14813   1.975   3.983   1.868 -0.4967  0.1355  0.1031
  851MOL0     C14814   1.889   3.896   1.876  0.8547  0.1105  0.0484
  851MOL0     C14815   2.683   3.981   1.697 -0.1183 -0.5768  0.6337
  851MOL0     C14816   2.777   3.885   1.665  0.5193  0.3188  0.2784
  851MOL0     C14817   2.890   3.851   1.763  0.1560 -0.0096 -0.0848
  851MOL0     H14818   3.013   3.737   1.154 -0.8640  0.3646  1.1380
  851MOL0     H14819   3.161   3.602   1.046 -2.3207  0.7045  0.8440
  851MOL0     H14820   3.398   3.301   1.303  3.8493  2.0554 -1.9470
  851MOL0     H14821   3.274   3.205   1.228 -3.2924  4.4522  1.6664
  851MOL0     H14822   3.422   3.208   1.026 -1.4068  0.9365  0.6619
  851MOL0     H14823   3.518   3.143   1.157 -2.1447 -1.5331 -0.2957
  851MOL0     H14824   3.545   3.441   1.077 -2.5883 -0.4345  2.5664
  851MOL0     H14825   3.628   3.298   0.999  1.5880 -0.7233  0.5119
  851MOL0     H14826   3.670   3.375   1.293 -1.4805  0.9987 -0.8869
  851MOL0     H14827   3.714   3.231   1.222  3.5459 -0.1259  0.3544
  851MOL0     H14828   3.850   3.358   1.038  1.9327  1.2001 -0.1770
  851MOL0     H14829   3.799   3.511   1.110  1.3691  0.4733  0.7314
  851MOL0     H14830   3.907   3.439   1.331 -3.4756  1.9469 -3.6324
  851MOL0     H14831   3.965   3.287   1.247 -0.4837 -0.0656  0.6803
  851MOL0     H14832   4.138   3.503   1.276  1.1747  0.6033 -0.7624
  851MOL0     H14833   4.031   3.568   1.161  0.5240 -0.5126  1.3802
  851MOL0     H14834   4.214   3.332   1.146  1.0533  1.4763  1.0301
  851MOL0     H14835   4.073   3.341   1.040 -0.8983 -1.7928  2.9202
  851MOL0     H14836   4.115   3.682   1.018  0.9964 -0.2817  2.4252
  851MOL0     H14837   4.322   3.809   0.723  2.5497  2.7444  1.6670
  851MOL0     H14838   4.158   3.825   0.778 -0.3372 -0.2539  1.1400
  851MOL0     H14839   4.290   3.897   1.014 -3.7041 -2.7340 -1.2903
  851MOL0     H14840   4.399   3.953   0.881  0.1136  1.4200 -0.2350
  851MOL0     H14841   4.189   4.044   0.784  0.9821  1.6875  0.3046
  851MOL0     H14842   4.265   4.130   0.912  0.1633  0.9463 -0.9880
  851MOL0     H14843   4.099   4.031   1.077 -0.5595 -2.2855 -0.0308
  851MOL0     H14844   4.019   3.952   0.942  0.1614 -0.0514  0.2067
  851MOL0     H14845   4.047   4.202   1.185  0.4668  4.1039  1.2249
  851MOL0     H14846   3.866   4.274   1.350  1.5444  2.3652 -1.4116
  851MOL0     H14847   3.666   4.280   1.692 -0.2320 -0.2719  0.6435
  851MOL0     H14848   3.530   4.404   1.863 -4.0104  2.8638  0.9887
  851MOL0     H14849   3.219   4.701   1.780  3.8166  0.1273  1.3133
  851MOL0     H14850   3.142   4.529   1.765  0.2660 -1.9773  2.1613
  851MOL0     H14851   3.043   4.629   1.947  0.1077  0.6593  3.7373
  851MOL0     H14852   3.148   4.495   2.000 -1.3143 -0.4200  2.5463
  851MOL0     H14853   3.335   4.685   2.047 -0.4483  1.9380 -1.0621
  851MOL0     H14854   3.210   4.808   2.046  3.9161  0.0325 -2.1134
  851MOL0     H14855   3.248   4.735   2.268 -1.4199  3.4012 -2.2965
  851MOL0     H14856   3.214   4.575   2.222 -1.7644 -1.2402  0.5043
  851MOL0     H14857   3.001   4.650   2.318 -0.0813 -3.8409 -1.2423
  851MOL0     H14858   2.967   4.645   2.148  3.1495  0.7732 -1.9157
  851MOL0     H14859   3.064   4.862   2.328 -1.7217 -1.5320  1.8176
  851MOL0     H14860   3.038   4.900   2.154  2.0288  1.0092  1.0855
  851MOL0     H14861   2.841   4.955   2.329 -2.6291 -0.3356 -1.8507
  851MOL0     H14862   2.822   4.789   2.351  2.4939 -1.7341 -0.2957
  851MOL0     H14863   2.790   4.783   2.088  1.2395 -0.1877  0.1802
  851MOL0     H14864   2.673   4.884   2.185 -1.0932 -0.1924 -3.2213
  851MOL0     H14865   3.289   4.577   1.563 -2.4018 -2.7916 -1.2090
  851MOL0     H14866   3.411   4.467   1.391  2.1734  2.5493  0.0855
  851MOL0     H14867   3.569   4.231   1.043 -0.6420 -0.9848 -1.5523
  851MOL0     H14868   3.756   4.160   0.884 -0.1916 -1.3898  0.2583
  851MOL0     H14869   3.221   3.379   1.407  1.2243  1.4458  0.1431
  851MOL0     H14870   3.045   3.501   1.509  3.1558 -2.3975  1.1870
  851MOL0     H14871   2.624   3.797   1.357 -0.0910 -0.9631 -0.0407
  851MOL0     H14872   2.476   3.973   1.433 -1.2980 -2.9794  2.2830
  851MOL0     H14873   2.546   4.177   1.838  0.2211  0.3847  1.2095
  851MOL0     H14874   2.474   4.011   1.838  2.3913 -1.3218 -2.3530
  851MOL0     H14875   2.289   4.240   1.769  1.5013 -0.3647 -0.7410
  851MOL0     H14876   2.330   4.220   1.930  0.7201 -2.8640  1.0688
  851MOL0     H14877   2.230   3.968   1.893  0.1941  2.2344  2.6242
  851MOL0     H14878   2.212   4.013   1.724 -2.4447 -2.7287  0.2656
  851MOL0     H14879   2.060   4.168   1.938  0.7909 -1.1471  1.3616
  851MOL0     H14880   2.033   4.136   1.762  0.1224 -1.9797 -0.6331
  851MOL0     H14881   1.822   3.815   1.892  0.1627  0.7216  0.3246
  851MOL0     H14882   2.698   4.030   1.792 -2.3871 -0.6025  1.0651
  851MOL0     H14883   2.871   3.751   1.804 -0.5281  0.7800  1.6379
  851MOL0     H14884   2.986   3.830   1.715 -0.5401 -1.4527 -0.8893
  851MOL0     H14885   2.909   3.924   1.842  2.2997  1.6678 -2.0121
  852MOL0     O14886  10.403  11.181   0.191  0.5222  0.4199  0.2389
  852MOL0     C14887  10.496  11.118   0.243  0.7018 -1.0178 -0.2589
  852MOL0     O14888  10.590  11.179   0.324 -1.1024  0.3677 -0.0326
  852MOL0     C14889  10.571  11.306   0.371  0.3068 -0.5244  0.3362
  852MOL0     C14890  10.480  11.332   0.472  0.5773 -0.4070 -0.6118
  852MOL0     C14891  10.454  11.462   0.518  0.3565  0.4817 -0.2543
  852MOL0     C14892  10.534  11.573   0.473 -0.2442  0.1838 -0.7826
  852MOL0     O14893  10.522  11.703   0.532 -0.2835  0.0471  0.6206
  852MOL0     C14894  10.451  11.717   0.658 -0.0400  0.2133 -0.3948
  852MOL0     C14895  10.531  11.687   0.789  0.7144  0.0385  0.5672
  852MOL0     C14896  10.461  11.752   0.904  0.2478  0.2719  0.1603
  852MOL0     C14897  10.518  11.686   1.032  0.8272  0.1509 -0.5247
  852MOL0     C14898  10.473  11.758   1.163 -0.4180 -0.4272  0.9297
  852MOL0     C14899  10.477  11.676   1.299 -0.2338  0.3054 -0.5971
  852MOL0     C14900  10.435  11.770   1.412  0.1177  0.7515  0.6229
  852MOL0     C14901  10.528  11.883   1.443 -0.0128 -1.5459 -0.1161
  852MOL0     N14902  10.503  11.950   1.579  0.7897 -0.1951  0.3404
  852MOL0     C14903  10.493  11.887   1.701 -0.3588 -0.5071 -0.2243
  852MOL0     C14904  10.474  11.992   1.784  0.2418 -0.9103 -0.5941
  852MOL0     C14905  10.468  11.985   1.930  1.3486  0.2475  0.4144
  852MOL0     C14906  10.317  11.975   1.964 -0.7904 -0.2556 -2.0478
  852MOL0     C14907  10.298  11.932   2.114  0.0879 -0.4086 -0.1539
  852MOL0     C14908  10.166  11.982   2.155  0.1538  0.3386 -0.0599
  852MOL0     O14909  10.150  11.929   2.285 -0.6337 -0.4084  0.4833
  852MOL0     C14910  10.046  11.966   2.376  0.5308 -0.3898 -0.3926
  852MOL0     C14911   9.936  12.040   2.337  0.0009  0.1669  0.4773
  852MOL0     C14912   9.833  12.070   2.423  0.3685 -0.6667  0.8784
  852MOL0     C14913   9.832  12.014   2.555  0.0237  0.4128 -0.6919
  852MOL0     C14914   9.723  12.047   2.643 -0.8715  0.0601 -0.1487
  852MOL0     O14915   9.615  12.126   2.604  0.0458 -1.3695 -0.0677
  852MOL0     C14916   9.496  12.127   2.681 -0.0743  0.3245  0.4407
  852MOL0     C14917   9.457  12.024   2.759  0.2675 -0.3213  0.2846
  852MOL0     C14918   9.331  12.034   2.817 -0.2221 -0.6541  0.1015
  852MOL0     C14919   9.241  12.138   2.814  0.6957  0.1526 -0.2789
  852MOL0     O14920   9.117  12.144   2.878  0.1244  0.2148  0.2087
  852MOL0     C14921   9.057  12.012   2.907  0.7877 -0.9852  0.8090
  852MOL0     C14922   8.907  12.037   2.933 -0.3565  0.0757 -0.6901
  852MOL0     C14923   8.846  11.917   2.991  0.3824 -0.4271  1.1528
  852MOL0     C14924   8.693  11.919   2.958  0.7902 -0.0227 -0.1193
  852MOL0     C14925   8.622  11.785   3.004  0.5736 -0.1395 -0.4483
  852MOL0     C14926   8.465  11.788   2.997 -0.2384  0.7772 -0.2258
  852MOL0     C14927   8.401  11.662   3.017 -1.6008  0.7152  0.5056
  852MOL0     C14928   8.448  11.571   3.135 -0.6933 -0.0671  0.4173
  852MOL0    Cl14929   8.316  11.470   3.159  0.5660 -0.4625 -0.1223
  852MOL0     C14930   9.280  12.234   2.728  0.7679  0.3601  0.1384
  852MOL0     C14931   9.410  12.232   2.671 -0.2348  0.7017 -0.3780
  852MOL0     O14932   9.742  11.999   2.757 -0.0395 -0.0767 -0.0422
  852MOL0     C14933   9.936  11.932   2.591 -1.4146 -0.0403  0.3726
  852MOL0     C14934  10.041  11.915   2.500  0.1628  1.0083 -0.9585
  852MOL0     N14935  10.484  12.112   1.715  0.5205 -1.0284  0.5779
  852MOL0     N14936  10.482  12.087   1.586  0.1493 -0.1639 -0.0289
  852MOL0     C14937  10.621  11.544   0.368  0.6607 -0.7329 -0.4661
  852MOL0     C14938  10.644  11.413   0.322 -0.2638  0.4763 -0.1014
  852MOL0     C14939  10.498  10.972   0.227  0.2428 -1.0089 -0.4433
  852MOL0     C14940  10.574  10.906   0.324  0.4189 -0.1137 -0.4945
  852MOL0     C14941  10.588  10.761   0.315  0.1336 -1.0881 -0.9152
  852MOL0     C14942  10.529  10.688   0.216  2.0146  1.2770 -0.2652
  852MOL0     O14943  10.548  10.552   0.209 -0.9985 -0.1129  0.4913
  852MOL0     C14944  10.495  10.464   0.305 -1.3484  0.4535 -0.7509
  852MOL0     C14945  10.346  10.442   0.305 -0.0648 -0.6756  0.3204
  852MOL0     C14946  10.298  10.329   0.400  0.9249  0.2161 -0.7166
  852MOL0     C14947  10.271  10.364   0.544  0.2750  0.5473  0.1763
  852MOL0     C14948  10.149  10.442   0.534 -0.5355 -0.1252  0.7374
  852MOL0     C14949  10.063  10.526   0.515  1.1835 -0.3515 -0.1279
  852MOL0     C14950  10.457  10.755   0.115  0.7717 -0.6639  0.6799
  852MOL0     C14951  10.443  10.896   0.115  0.5266 -0.3343  0.0412
  852MOL0     C14952  10.358  10.956   0.003  0.4266  0.7518  0.6760
  852MOL0     H14953  10.429  11.246   0.513  1.7045 -0.3475  1.0539
  852MOL0     H14954  10.365  11.479   0.576  0.8707  1.5536  0.2356
  852MOL0     H14955  10.421  11.822   0.672 -2.1469 -0.5584  1.6003
  852MOL0     H14956  10.358  11.660   0.655  0.2411 -0.4302  1.6218
  852MOL0     H14957  10.635  11.722   0.786  0.7011  0.0818  0.6006
  852MOL0     H14958  10.538  11.580   0.807 -1.9816 -0.7378 -2.0969
  852MOL0     H14959  10.352  11.738   0.902  0.0683  1.5498 -1.1345
  852MOL0     H14960  10.496  11.855   0.909 -1.0714  0.8497 -1.4617
  852MOL0     H14961  10.461  11.593   1.027  1.1031 -0.0428 -0.0774
  852MOL0     H14962  10.627  11.670   1.028  0.6654 -0.8193 -2.1722
  852MOL0     H14963  10.512  11.860   1.167 -0.6855 -0.3537  2.6266
  852MOL0     H14964  10.366  11.780   1.150 -0.6114  0.8528  3.7828
  852MOL0     H14965  10.407  11.593   1.289  0.4321 -0.7298  2.4251
  852MOL0     H14966  10.583  11.652   1.313 -0.2321  0.9235  0.5029
  852MOL0     H14967  10.432  11.698   1.494  1.4767 -0.2284 -0.1387
  852MOL0     H14968  10.337  11.813   1.391  1.6107  2.0555 -5.8911
  852MOL0     H14969  10.635  11.863   1.455  0.1312  0.4330  2.8328
  852MOL0     H14970  10.496  11.949   1.362 -0.5041 -2.6559 -0.8479
  852MOL0     H14971  10.491  11.782   1.731  2.1095 -0.3894  0.5155
  852MOL0     H14972  10.520  11.892   1.957  2.0534  0.7987  0.9876
  852MOL0     H14973  10.513  12.072   1.977 -0.1193  1.3808 -0.2083
  852MOL0     H14974  10.269  12.072   1.950 -2.9042 -0.0596  3.8155
  852MOL0     H14975  10.272  11.894   1.906 -1.1918  0.2653 -2.4627
  852MOL0     H14976  10.384  11.975   2.168  1.4382 -2.1157 -0.8514
  852MOL0     H14977  10.304  11.823   2.120  1.5348 -0.3653 -0.4980
  852MOL0     H14978  10.093  11.957   2.076 -1.2608 -0.1933  1.3544
  852MOL0     H14979  10.170  12.091   2.153 -2.2571  0.5880  2.4222
  852MOL0     H14980   9.947  12.094   2.244  0.1430 -0.1328  0.3214
  852MOL0     H14981   9.762  12.153   2.414  0.2345 -0.9135 -0.5408
  852MOL0     H14982   9.512  11.931   2.762  0.9981  0.0821 -0.2420
  852MOL0     H14983   9.308  11.953   2.885 -0.0812  0.9989  2.2524
  852MOL0     H14984   9.055  11.962   2.810  2.3455  2.6210 -1.2976
  852MOL0     H14985   9.103  11.955   2.988 -0.9632 -0.7280  2.0349
  852MOL0     H14986   8.882  12.124   2.994  0.5537 -0.2138  0.1251
  852MOL0     H14987   8.864  12.051   2.833 -1.4051 -0.4145 -0.3185
  852MOL0     H14988   8.899  11.827   2.958 -1.7027 -1.8437  1.4517
  852MOL0     H14989   8.869  11.921   3.098  0.6245  2.4614  1.0630
  852MOL0     H14990   8.681  11.918   2.849  1.1064  0.7187 -0.1627
  852MOL0     H14991   8.651  12.012   2.997  1.3021  0.6609 -1.1464
  852MOL0     H14992   8.637  11.770   3.111  0.4812 -4.1890 -0.8343
  852MOL0     H14993   8.675  11.704   2.952  3.0338  0.7480  0.5276
  852MOL0     H14994   8.424  11.866   3.061 -3.1189  0.9912 -2.1787
  852MOL0     H14995   8.434  11.827   2.900 -1.4075  3.6994  1.2029
  852MOL0     H14996   8.431  11.598   2.934  0.9083 -3.0893  3.9692
  852MOL0     H14997   8.293  11.676   3.013 -1.8873 -1.4596 -1.4397
  852MOL0     H14998   8.535  11.508   3.113 -0.4532  0.9853 -1.9731
  852MOL0     H14999   8.468  11.654   3.203  0.6645  0.1118 -0.1672
  852MOL0     H15000   9.224  12.323   2.702  1.0978  1.3490  2.5273
  852MOL0     H15001   9.428  12.303   2.591 -3.0852 -0.1533 -1.9231
  852MOL0     H15002   9.939  11.872   2.682 -3.1958 -2.7107 -1.1932
  852MOL0     H15003  10.120  11.848   2.533 -2.4837 -1.2714  1.3145
  852MOL0     H15004  10.679  11.628   0.331  2.2399 -1.8041 -0.5365
  852MOL0     H15005  10.715  11.392   0.242 -1.2117 -1.0116 -0.5870
  852MOL0     H15006  10.618  10.963   0.405  0.4868  0.4113 -0.8879
  852MOL0     H15007  10.648  10.698   0.380 -3.1723 -2.2332  1.2580
  852MOL0     H15008  10.527  10.494   0.406 -1.9936 -1.6675  0.1481
  852MOL0     H15009  10.537  10.365   0.281  3.2485  2.1704 -0.8055
  852MOL0     H15010  10.302  10.423   0.206 -1.1682 -4.3394  1.3332
  852MOL0     H15011  10.307  10.534   0.349  0.2680 -0.1944 -0.3797
  852MOL0     H15012  10.378  10.256   0.411 -0.8700 -1.7847 -0.2674
  852MOL0     H15013  10.223  10.269   0.347  0.4442  0.8798 -0.8112
  852MOL0     H15014  10.253  10.270   0.598  0.2624 -1.4451 -3.0278
  852MOL0     H15015  10.361  10.415   0.579 -0.3114  2.7335 -1.2689
  852MOL0     H15016   9.994  10.601   0.480  2.0078 -0.3818 -1.8935
  852MOL0     H15017  10.424  10.690   0.035  0.0563  1.0439 -0.4754
  852MOL0     H15018  10.265  10.996   0.045  0.5194  0.2359  1.3945
  852MOL0     H15019  10.411  11.032  -0.054 -0.5644 -0.4139 -1.9832
  852MOL0     H15020  10.334  10.873  -0.064  1.3979  3.2158 -3.0133
  853MOL0     O15021   6.561   8.441   0.533  0.2539  0.2219  0.0938
  853MOL0     C15022   6.625   8.344   0.499  0.3216  0.1427 -0.2477
  853MOL0     O15023   6.578   8.217   0.463 -0.3225  0.4995  0.2154
  853MOL0     C15024   6.448   8.186   0.495 -0.6162 -0.0380  1.2355
  853MOL0     C15025   6.371   8.122   0.401 -0.3058  0.1901  0.7583
  853MOL0     C15026   6.233   8.101   0.424  0.6648 -0.6166  0.6118
  853MOL0     C15027   6.169   8.134   0.543  0.7383 -0.6725 -0.7820
  853MOL0     O15028   6.038   8.095   0.548  0.4411  0.0524 -0.0609
  853MOL0     C15029   5.951   8.179   0.622 -0.3237 -0.1823  0.4024
  853MOL0     C15030   5.821   8.209   0.565 -0.6390 -0.1995  0.5019
  853MOL0     C15031   5.743   8.084   0.509  0.5318 -0.4292 -0.6977
  853MOL0     C15032   5.672   8.126   0.378 -0.1804 -0.5888  0.5185
  853MOL0     C15033   5.594   8.011   0.306  0.5477 -0.9946 -1.0984
  853MOL0     C15034   5.697   7.903   0.267  0.3823 -0.6621  0.3446
  853MOL0     C15035   5.646   7.801   0.170 -0.0034  0.6006 -0.8507
  853MOL0     C15036   5.753   7.708   0.115 -0.4783  0.2646 -0.3366
  853MOL0     N15037   5.832   7.757  -0.004  0.0406  0.1949 -0.1942
  853MOL0     C15038   5.927   7.854   0.003 -0.4724 -0.0239  0.6609
  853MOL0     C15039   5.977   7.852  -0.128  0.1727  0.9082  0.1733
  853MOL0     C15040   6.113   7.920  -0.164  0.2636  1.0478 -0.2074
  853MOL0     C15041   6.140   8.051  -0.116  0.2612 -0.3041 -0.6449
  853MOL0     C15042   6.283   8.097  -0.145 -0.5678  0.2496  0.5659
  853MOL0     C15043   6.389   8.008  -0.073  0.2692 -0.4968  0.6706
  853MOL0     O15044   6.421   7.884  -0.143  0.2680 -0.7493  0.3522
  853MOL0     C15045   6.500   7.879  -0.253  0.1493 -1.1943 -0.1524
  853MOL0     C15046   6.481   7.767  -0.334 -0.6451  0.5384  0.2658
  853MOL0     C15047   6.569   7.737  -0.438 -0.3264 -0.1503 -0.5299
  853MOL0     C15048   6.679   7.823  -0.470 -0.7214 -0.2024 -0.8256
  853MOL0     C15049   6.790   7.798  -0.562  0.1548  0.4030  0.1161
  853MOL0     O15050   6.845   7.900  -0.640  1.0828  0.6195 -0.0204
  853MOL0     C15051   6.942   7.865  -0.719 -0.3055  0.2201  0.3827
  853MOL0     C15052   7.081   7.908  -0.705 -0.2400 -0.7398 -0.8239
  853MOL0     C15053   7.181   7.858  -0.798 -0.0824 -0.1795  0.7443
  853MOL0     C15054   7.158   7.754  -0.884  0.2558 -0.7888  0.5221
  853MOL0     O15055   7.251   7.739  -0.979 -0.0865  0.4559 -0.0064
  853MOL0     C15056   7.213   7.666  -1.100 -0.5629  0.1920 -0.6632
  853MOL0     C15057   7.316   7.686  -1.201  0.1561  0.2005 -0.8431
  853MOL0     C15058   7.286   7.599  -1.328  0.1801 -0.0189 -0.3515
  853MOL0     C15059   7.380   7.632  -1.455  1.4679  0.2201  0.4724
  853MOL0     C15060   7.532   7.612  -1.424  0.1865  0.6510  0.5099
  853MOL0     C15061   7.597   7.606  -1.563 -0.2887 -0.9355 -0.4267
  853MOL0     C15062   7.746   7.594  -1.565  0.7894 -0.1483 -0.0049
  853MOL0     C15063   7.804   7.457  -1.523  1.2713  0.5786 -0.7409
  853MOL0    Cl15064   7.714   7.317  -1.592  0.3104  0.0738  0.1614
  853MOL0     C15065   7.017   7.719  -0.894 -0.9406 -0.3882  0.0981
  853MOL0     C15066   6.916   7.775  -0.818  0.6558  1.4821  0.6249
  853MOL0     O15067   6.828   7.680  -0.556  0.6428  0.9441 -0.5436
  853MOL0     C15068   6.691   7.944  -0.395  0.1597 -0.1943 -0.5643
  853MOL0     C15069   6.601   7.969  -0.287 -0.0305 -0.7188  0.7597
  853MOL0     N15070   5.900   7.772  -0.212  0.7843  0.2865  0.2489
  853MOL0     N15071   5.812   7.717  -0.127 -0.1628 -0.3475  0.6495
  853MOL0     C15072   6.254   8.174   0.645  0.1688 -0.7735  0.2406
  853MOL0     C15073   6.391   8.208   0.628  0.2854 -0.2699  1.6113
  853MOL0     C15074   6.772   8.354   0.521  0.1760  0.6080  0.0018
  853MOL0     C15075   6.827   8.437   0.619 -0.5580  0.5011  0.6111
  853MOL0     C15076   6.960   8.417   0.662  0.4681 -0.0493 -0.5688
  853MOL0     C15077   7.047   8.320   0.597  0.7833  0.6660  0.8983
  853MOL0     O15078   7.181   8.298   0.625 -0.5405 -0.7958 -0.9237
  853MOL0     C15079   7.237   8.367   0.734  0.1333  0.0599  0.1622
  853MOL0     C15080   7.372   8.305   0.775 -0.5973  0.7175 -0.5531
  853MOL0     C15081   7.462   8.404   0.847  0.4339 -0.8679  0.5813
  853MOL0     C15082   7.612   8.376   0.823  0.2687 -1.1105  0.1090
  853MOL0     C15083   7.704   8.420   0.933 -0.1382  0.4459 -0.3462
  853MOL0     C15084   7.776   8.449   1.029  0.4190  0.4632 -0.0879
  853MOL0     C15085   6.996   8.241   0.500  0.0140  0.0714 -0.2501
  853MOL0     C15086   6.859   8.263   0.458 -0.0562 -0.1784  0.1719
  853MOL0     C15087   6.828   8.187   0.329  0.3839  0.8929 -0.9052
  853MOL0     H15088   6.431   8.117   0.311 -2.3558  1.7334 -0.8134
  853MOL0     H15089   6.179   8.054   0.343  0.3217  0.8349 -0.0350
  853MOL0     H15090   5.927   8.136   0.720 -0.1372  2.3942  1.6648
  853MOL0     H15091   5.997   8.276   0.641 -0.7394 -0.1398  1.2477
  853MOL0     H15092   5.843   8.295   0.501  2.6015 -0.9517  0.4502
  853MOL0     H15093   5.760   8.258   0.642 -2.9100  0.1985 -1.4384
  853MOL0     H15094   5.686   8.042   0.594  4.8526 -3.7948  0.9052
  853MOL0     H15095   5.814   8.003   0.489  1.5145 -0.8061  3.3125
  853MOL0     H15096   5.596   8.200   0.405 -0.2407  0.9813 -3.3942
  853MOL0     H15097   5.733   8.184   0.308 -0.5970 -1.2295 -0.3880
  853MOL0     H15098   5.541   7.969   0.392  0.7079 -0.6533 -0.8282
  853MOL0     H15099   5.527   8.050   0.230 -3.0799 -1.8736  1.3872
  853MOL0     H15100   5.778   7.959   0.218 -0.5305  1.0804  0.7435
  853MOL0     H15101   5.742   7.850   0.351  1.4237 -0.7077 -0.2292
  853MOL0     H15102   5.587   7.840   0.087  0.7173  0.1275 -1.6079
  853MOL0     H15103   5.579   7.738   0.229 -0.0612  0.7369 -0.7711
  853MOL0     H15104   5.831   7.691   0.188 -1.4640  2.0002  1.2077
  853MOL0     H15105   5.702   7.613   0.098 -1.2518  0.4107  1.0688
  853MOL0     H15106   5.970   7.908   0.087  0.6206 -1.6166  1.1878
  853MOL0     H15107   6.191   7.858  -0.121  0.5419 -0.3144 -2.5209
  853MOL0     H15108   6.124   7.908  -0.272 -0.8554  1.1229 -0.3504
  853MOL0     H15109   6.074   8.127  -0.159  0.9271  0.4338 -0.3964
  853MOL0     H15110   6.122   8.059  -0.008  0.8549 -0.6701 -0.5138
  853MOL0     H15111   6.292   8.202  -0.116  1.8674  0.3987 -0.4507
  853MOL0     H15112   6.307   8.107  -0.251  1.4239  0.7083  1.0212
  853MOL0     H15113   6.363   7.994   0.032  1.6943 -3.6353  0.7050
  853MOL0     H15114   6.481   8.067  -0.072 -0.1092  0.1527  2.6244
  853MOL0     H15115   6.398   7.703  -0.304 -2.7667  3.4555  1.1269
  853MOL0     H15116   6.555   7.649  -0.500 -0.1881 -1.6652  1.4783
  853MOL0     H15117   7.118   7.977  -0.630 -0.8693 -2.5080  1.2065
  853MOL0     H15118   7.284   7.891  -0.782 -0.0754 -0.2018  0.7451
  853MOL0     H15119   7.205   7.558  -1.085 -0.7692  0.2473 -0.3755
  853MOL0     H15120   7.121   7.716  -1.133 -0.4732  2.3861  1.9987
  853MOL0     H15121   7.304   7.787  -1.242  1.7065  0.7018 -0.1324
  853MOL0     H15122   7.419   7.670  -1.167 -0.7356 -2.9839  0.7330
  853MOL0     H15123   7.279   7.493  -1.299  0.0741  0.1304  0.1930
  853MOL0     H15124   7.181   7.621  -1.352  0.3468 -1.7730 -3.0144
  853MOL0     H15125   7.361   7.734  -1.488 -1.9316 -0.0089  1.2923
  853MOL0     H15126   7.359   7.575  -1.546  2.9198  3.6175 -2.1759
  853MOL0     H15127   7.557   7.519  -1.372  4.8575  3.0263  3.1981
  853MOL0     H15128   7.589   7.691  -1.373  3.4777 -1.2239  0.0334
  853MOL0     H15129   7.551   7.529  -1.626 -0.2316 -2.2870  1.1025
  853MOL0     H15130   7.579   7.704  -1.608  2.5508  0.4929  1.3018
  853MOL0     H15131   7.791   7.666  -1.496  0.8666  0.4603 -0.6769
  853MOL0     H15132   7.779   7.600  -1.669  0.7587 -0.3531 -0.0255
  853MOL0     H15133   7.909   7.458  -1.555  0.8818  0.8443 -2.0907
  853MOL0     H15134   7.793   7.444  -1.415 -0.6384  4.0409 -0.3646
  853MOL0     H15135   6.992   7.643  -0.967  2.1633 -2.2942  0.8446
  853MOL0     H15136   6.817   7.734  -0.836  0.6263  1.8881 -0.1556
  853MOL0     H15137   6.760   8.026  -0.408  3.0136 -1.2811  4.9355
  853MOL0     H15138   6.628   8.057  -0.229  0.2275  0.3233 -0.8444
  853MOL0     H15139   6.216   8.203   0.743  0.7688 -0.3203  0.3413
  853MOL0     H15140   6.453   8.261   0.699 -0.9859 -0.1993  2.6917
  853MOL0     H15141   6.761   8.501   0.676  0.0101 -1.1528  3.2740
  853MOL0     H15142   6.996   8.463   0.753 -0.1167  1.3461 -1.0148
  853MOL0     H15143   7.169   8.352   0.818 -0.2968  1.4117  0.0786
  853MOL0     H15144   7.237   8.477   0.728 -2.4690  0.1404  0.6732
  853MOL0     H15145   7.410   8.248   0.690  1.6450  0.8170  0.3270
  853MOL0     H15146   7.358   8.232   0.855 -1.8717  4.3675  2.9066
  853MOL0     H15147   7.437   8.396   0.953  1.6987 -3.0658  0.7588
  853MOL0     H15148   7.444   8.507   0.813 -1.9814 -1.1225  0.9275
  853MOL0     H15149   7.616   8.269   0.804  0.5105 -0.9484 -0.7792
  853MOL0     H15150   7.638   8.426   0.729 -0.1639 -3.2772 -1.2151
  853MOL0     H15151   7.817   8.492   1.118 -0.7968  1.1462  0.1579
  853MOL0     H15152   7.064   8.176   0.445  1.5465  0.5751  0.9578
  853MOL0     H15153   6.921   8.173   0.272 -0.8024  3.0689 -3.5862
  853MOL0     H15154   6.783   8.095   0.368 -1.4334  1.7685 -0.8374
  853MOL0     H15155   6.751   8.226   0.262 -0.7587  0.1309 -0.0755
  854MOL0     O15156   1.261   9.854  11.101 -0.0024  0.0359  0.7246
  854MOL0     C15157   1.183   9.765  11.087 -0.4909  0.0629 -1.4192
  854MOL0     O15158   1.085   9.738  11.190 -1.0008 -0.2566  0.3119
  854MOL0     C15159   1.118   9.762  11.320 -0.9151  0.8095 -0.4545
  854MOL0     C15160   1.237   9.711  11.374  0.2065 -0.0977 -1.2009
  854MOL0     C15161   1.270   9.733  11.502  0.6000 -0.6400 -0.3162
  854MOL0     C15162   1.195   9.823  11.583 -0.2651 -1.1628  0.4557
  854MOL0     O15163   1.241   9.848  11.712  0.6271  0.0118  0.3342
  854MOL0     C15164   1.215   9.976  11.782 -0.9708  0.6343  0.8521
  854MOL0     C15165   1.244   9.962  11.930 -0.5202 -0.0596  0.6287
  854MOL0     C15166   1.394   9.979  11.942 -0.0133  0.4346 -1.0041
  854MOL0     C15167   1.428   9.960  12.090 -0.7844 -0.4180 -0.4650
  854MOL0     C15168   1.571   9.983  12.135  0.3092 -0.3347  0.0937
  854MOL0     C15169   1.582  10.042  12.276 -0.1391 -0.3218 -0.2116
  854MOL0     C15170   1.557   9.919  12.373 -0.0196  0.1473 -0.4108
  854MOL0     C15171   1.492   9.959  12.509 -0.0780 -0.2026 -0.2052
  854MOL0     N15172   1.577  10.056  12.570 -0.5801  0.7552 -0.6204
  854MOL0     C15173   1.541  10.191  12.565 -0.9571  0.5130 -0.5560
  854MOL0     C15174   1.639  10.258  12.640 -0.1686  0.9621  0.7135
  854MOL0     C15175   1.635  10.401  12.695 -0.4649  1.1081 -0.0814
  854MOL0     C15176   1.747  10.431  12.793 -0.6932 -1.0387 -0.1358
  854MOL0     C15177   1.729  10.572  12.863 -0.0079 -0.2570  0.8797
  854MOL0     C15178   1.851  10.608  12.947  0.2426 -0.3952  0.3912
  854MOL0     O15179   1.820  10.729  13.021  1.0959  0.1289 -0.2176
  854MOL0     C15180   1.851  10.729  13.150  0.5583  0.6909 -0.3213
  854MOL0     C15181   1.772  10.645  13.237  1.1640  1.0121 -0.0106
  854MOL0     C15182   1.798  10.621  13.370 -0.1539  0.3979 -0.0637
  854MOL0     C15183   1.900  10.706  13.434  0.4958 -0.2925 -0.5354
  854MOL0     C15184   1.932  10.716  13.575 -0.1530  0.2103 -0.8272
  854MOL0     O15185   1.996  10.821  13.619 -0.3637 -0.2350  0.0221
  854MOL0     C15186   2.034  10.837  13.753  0.4572 -0.0888  0.8793
  854MOL0     C15187   1.943  10.890  13.855 -0.7451  0.0063  0.1520
  854MOL0     C15188   1.983  10.896  13.988 -0.3100  0.3519  0.6652
  854MOL0     C15189   2.119  10.859  14.021  1.1312  0.6834 -0.8636
  854MOL0     O15190   2.160  10.846  14.156 -0.0198 -0.1636  0.5239
  854MOL0     C15191   2.158  10.964  14.224  0.1767  0.0445 -0.3840
  854MOL0     C15192   2.113  10.950  14.370 -0.5187  0.2897  0.9645
  854MOL0     C15193   2.132  11.080  14.447  0.2943  0.0005 -0.7615
  854MOL0     C15194   2.155  11.056  14.596 -0.0884 -1.6710 -0.4777
  854MOL0     C15195   2.169  11.186  14.676  0.1953 -0.6602  1.2372
  854MOL0     C15196   2.213  11.147  14.821 -0.1658  0.8394  0.4726
  854MOL0     C15197   2.230  11.275  14.905  0.1691 -0.7405  0.1570
  854MOL0     C15198   2.291  11.242  15.051  0.1873 -0.7987  0.1203
  854MOL0    Cl15199   2.331  11.385  15.143 -0.0666  0.0029  0.4747
  854MOL0     C15200   2.204  10.818  13.925 -0.4057 -0.4689 -0.3163
  854MOL0     C15201   2.164  10.809  13.798  0.1103  0.1405 -0.1639
  854MOL0     O15202   1.913  10.610  13.638 -0.3060  0.0868  0.1833
  854MOL0     C15203   1.966  10.803  13.348 -0.7257 -0.9003  0.1157
  854MOL0     C15204   1.952  10.810  13.216  0.6682 -0.6231  1.1081
  854MOL0     N15205   1.727  10.162  12.697 -0.3094 -0.3056  0.4737
  854MOL0     N15206   1.695  10.052  12.637 -0.0532  0.7531  0.5301
  854MOL0     C15207   1.074   9.871  11.536  0.0972 -1.2498  1.5918
  854MOL0     C15208   1.031   9.844  11.399 -0.2395 -1.0620  0.2852
  854MOL0     C15209   1.191   9.677  10.969  0.2148 -0.4339  0.2347
  854MOL0     C15210   1.068   9.627  10.926  0.4766 -0.2105  0.0362
  854MOL0     C15211   1.053   9.547  10.811 -0.4444  0.2679 -0.1336
  854MOL0     C15212   1.166   9.517  10.743 -0.0230  0.9215 -0.0540
  854MOL0     O15213   1.133   9.450  10.631  0.7504 -0.1513 -0.0090
  854MOL0     C15214   1.238   9.391  10.548  0.3623  0.2658  0.2856
  854MOL0     C15215   1.190   9.261  10.484  1.1655  1.0414  0.0505
  854MOL0     C15216   1.315   9.213  10.398 -0.0851 -0.4052  0.0428
  854MOL0     C15217   1.306   9.069  10.339  0.3345 -0.1247 -0.1454
  854MOL0     C15218   1.180   9.046  10.265  0.1951 -0.3207  0.0008
  854MOL0     C15219   1.069   9.015  10.214  0.5077  0.0065  0.3913
  854MOL0     C15220   1.298   9.569  10.780 -0.1696  0.2987  0.7568
  854MOL0     C15221   1.314   9.648  10.896  1.0786  0.4659 -1.1894
  854MOL0     C15222   1.436   9.700  10.949 -1.3466 -0.2124 -0.9371
  854MOL0     H15223   1.312   9.663  11.311  0.9647  2.3311 -2.2471
  854MOL0     H15224   1.353   9.675  11.541 -0.0728 -0.6287  1.1926
  854MOL0     H15225   1.278  10.043  11.723 -0.3110 -1.4389 -0.9285
  854MOL0     H15226   1.108   9.994  11.771 -0.8245  0.8336 -0.3780
  854MOL0     H15227   1.203   9.869  11.970 -0.5350  0.0482  0.8645
  854MOL0     H15228   1.190  10.040  11.984  0.2621  0.0629  1.2620
  854MOL0     H15229   1.433  10.075  11.906 -1.0349  0.5913 -1.7115
  854MOL0     H15230   1.455   9.905  11.889 -2.0272  1.0012 -4.3988
  854MOL0     H15231   1.365  10.036  12.137  0.9102  0.2880  0.7474
  854MOL0     H15232   1.384   9.865  12.121 -3.0251 -0.2247 -2.7148
  854MOL0     H15233   1.634   9.895  12.122  2.7341  0.8315  2.7038
  854MOL0     H15234   1.628  10.049  12.068  0.9498 -1.1644 -0.1851
  854MOL0     H15235   1.682  10.085  12.288  0.3510 -0.9994 -1.6521
  854MOL0     H15236   1.504  10.117  12.288 -0.3104 -0.8454  2.8616
  854MOL0     H15237   1.655   9.873  12.389  0.5066  1.0460 -0.9431
  854MOL0     H15238   1.486   9.850  12.326  1.8225 -2.5054  0.4581
  854MOL0     H15239   1.394  10.005  12.493  0.1186 -0.3839 -2.2522
  854MOL0     H15240   1.465   9.874  12.572  1.4442 -0.0378  0.6986
  854MOL0     H15241   1.448  10.223  12.520 -2.6398 -3.6925 -0.5577
  854MOL0     H15242   1.652  10.461  12.605 -1.4137  0.5757 -0.6312
  854MOL0     H15243   1.531  10.419  12.723 -0.3057 -0.2129  1.4826
  854MOL0     H15244   1.748  10.349  12.866  0.4487 -0.5164  0.4655
  854MOL0     H15245   1.838  10.445  12.735 -0.3416  1.0905  0.8397
  854MOL0     H15246   1.633  10.579  12.915  0.4520  4.1845  1.4989
  854MOL0     H15247   1.729  10.653  12.790  1.7919  0.7656  1.9622
  854MOL0     H15248   1.934  10.630  12.879 -0.4220  0.0119 -0.3067
  854MOL0     H15249   1.872  10.523  13.011 -3.2930 -1.4091  0.4431
  854MOL0     H15250   1.683  10.601  13.193  2.4089 -2.2030  0.4357
  854MOL0     H15251   1.735  10.545  13.415  2.3205 -2.0475 -0.3902
  854MOL0     H15252   1.846  10.927  13.823 -0.7760 -2.8056 -3.8430
  854MOL0     H15253   1.924  10.934  14.071 -0.1726  4.2696 -0.8135
  854MOL0     H15254   2.255  11.014  14.222  0.3478 -0.2670 -0.0379
  854MOL0     H15255   2.084  11.028  14.175 -2.3042 -1.9046  0.5687
  854MOL0     H15256   2.009  10.917  14.378 -0.7732  0.2994 -1.5553
  854MOL0     H15257   2.175  10.869  14.411  3.5991  1.6377 -1.8926
  854MOL0     H15258   2.226  11.127  14.417 -1.0804  3.1466 -0.5678
  854MOL0     H15259   2.058  11.157  14.426 -0.2904 -0.5263 -0.6810
  854MOL0     H15260   2.240  10.991  14.620 -0.2273 -0.4507  4.3165
  854MOL0     H15261   2.063  11.007  14.629  0.1667 -2.4033 -0.8161
  854MOL0     H15262   2.080  11.250  14.675 -0.8357 -2.0521  0.7189
  854MOL0     H15263   2.246  11.249  14.631 -0.2255  0.2336  1.7413
  854MOL0     H15264   2.152  11.071  14.870  1.3058  0.2692  1.5269
  854MOL0     H15265   2.302  11.083  14.821 -1.0553 -0.4896 -1.9176
  854MOL0     H15266   2.132  11.321  14.921  1.8863  2.5504  2.2090
  854MOL0     H15267   2.295  11.345  14.852  0.4784 -2.4370 -1.8291
  854MOL0     H15268   2.221  11.175  15.101 -0.5785  0.1701  0.3706
  854MOL0     H15269   2.386  11.189  15.034 -0.3557 -1.3908 -1.2253
  854MOL0     H15270   2.302  10.778  13.948 -0.1229 -0.1115 -0.8545
  854MOL0     H15271   2.240  10.771  13.730 -1.2808  1.9886 -2.9064
  854MOL0     H15272   2.036  10.878  13.383 -1.2730  0.5479 -1.7284
  854MOL0     H15273   2.016  10.861  13.145 -1.3418 -4.4345 -4.0089
  854MOL0     H15274   1.019   9.939  11.601 -2.1648  0.3603 -1.7238
  854MOL0     H15275   0.945   9.902  11.366  1.1699  2.1491  1.8573
  854MOL0     H15276   0.982   9.664  10.982  2.1101 -0.2171  2.6959
  854MOL0     H15277   0.956   9.511  10.776  1.3174 -2.2817 -2.9252
  854MOL0     H15278   1.317   9.370  10.621  1.5199 -1.6211 -1.4061
  854MOL0     H15279   1.267   9.468  10.476 -0.1412  1.0781  0.9379
  854MOL0     H15280   1.099   9.268  10.424  1.7481  1.7391 -0.7795
  854MOL0     H15281   1.171   9.190  10.564  1.5310 -1.1572 -1.6989
  854MOL0     H15282   1.401   9.213  10.466 -0.7367  0.3634  0.9005
  854MOL0     H15283   1.340   9.278  10.314  1.7410 -2.7852 -1.3907
  854MOL0     H15284   1.397   9.066  10.279  1.9068  3.4305  1.7407
  854MOL0     H15285   1.319   8.991  10.414  2.5698  1.6580  1.4689
  854MOL0     H15286   0.980   8.980  10.166  0.9154  0.5516 -0.8031
  854MOL0     H15287   1.386   9.547  10.720  0.7159 -2.4181  2.8722
  854MOL0     H15288   1.460   9.804  10.927  2.1192 -1.1626 -2.2518
  854MOL0     H15289   1.428   9.682  11.057  0.2107 -1.4340 -0.9963
  854MOL0     H15290   1.520   9.650  10.899  1.6531  4.8575 -1.6635
  855MOL0     O15291   2.825   8.310   0.568 -0.3537 -0.0783  0.7436
  855MOL0     C15292   2.850   8.213   0.636 -0.8662 -0.4672 -0.5260
  855MOL0     O15293   2.801   8.083   0.621  0.7188 -0.1875 -0.3155
  855MOL0     C15294   2.726   8.058   0.506 -0.6014 -1.3196 -0.1445
  855MOL0     C15295   2.615   8.140   0.471 -0.3594 -0.3010  0.6236
  855MOL0     C15296   2.532   8.111   0.365  0.5024  0.4529 -0.2489
  855MOL0     C15297   2.559   8.002   0.293 -0.6684 -0.0962  0.7663
  855MOL0     O15298   2.485   7.978   0.177  0.7407 -0.1255  0.4123
  855MOL0     C15299   2.547   8.023   0.053  0.2371  0.8762 -0.8025
  855MOL0     C15300   2.640   7.914   0.002 -0.2334 -0.0076  0.5798
  855MOL0     C15301   2.693   7.968  -0.132 -0.0310 -0.0157 -1.3129
  855MOL0     C15302   2.821   7.896  -0.197 -0.2160 -0.1256  0.4781
  855MOL0     C15303   2.822   7.931  -0.341  0.6142 -0.8602  0.5897
  855MOL0     C15304   2.920   7.838  -0.439  1.2385 -0.1609  0.7911
  855MOL0     C15305   2.913   7.869  -0.593  0.3617 -0.0007  0.3399
  855MOL0     C15306   2.998   7.773  -0.677  0.3792 -0.2630  0.2357
  855MOL0     N15307   3.111   7.837  -0.753 -0.5683 -0.1228 -0.1789
  855MOL0     C15308   3.222   7.898  -0.696  1.2824  0.0426 -0.7778
  855MOL0     C15309   3.294   7.941  -0.802 -0.8993  0.1524 -0.9966
  855MOL0     C15310   3.429   8.005  -0.797  0.6119  0.1546 -0.8278
  855MOL0     C15311   3.400   8.152  -0.852 -0.8341  1.3420  0.3416
  855MOL0     C15312   3.529   8.241  -0.848 -0.8198 -0.2212 -0.1964
  855MOL0     C15313   3.580   8.267  -0.703 -0.8039  0.4073  0.3256
  855MOL0     O15314   3.664   8.393  -0.694  0.9838  0.4712  0.1337
  855MOL0     C15315   3.791   8.403  -0.760 -0.1612 -0.1964 -0.2465
  855MOL0     C15316   3.854   8.526  -0.742  0.3582 -0.3553  0.7192
  855MOL0     C15317   3.993   8.552  -0.785 -0.2006  0.5942 -0.5216
  855MOL0     C15318   4.066   8.440  -0.839  1.0871 -0.1658 -0.6201
  855MOL0     C15319   4.217   8.454  -0.861 -0.3011 -1.6053 -0.2469
  855MOL0     O15320   4.278   8.352  -0.931 -0.3012 -0.2294  0.6111
  855MOL0     C15321   4.406   8.371  -0.979  0.2806 -0.2638 -0.0063
  855MOL0     C15322   4.492   8.489  -0.964  0.3894  1.0897 -0.1129
  855MOL0     C15323   4.621   8.486  -1.023 -0.2105  0.0748 -0.4931
  855MOL0     C15324   4.657   8.383  -1.104 -0.1142 -0.2541  0.9833
  855MOL0     O15325   4.781   8.390  -1.161 -0.3463  0.4918  0.0756
  855MOL0     C15326   4.847   8.267  -1.211  0.0503 -0.2025 -0.7452
  855MOL0     C15327   4.992   8.302  -1.249  0.3830 -0.0455 -0.2931
  855MOL0     C15328   5.063   8.172  -1.276 -0.3387  1.0914 -0.3210
  855MOL0     C15329   5.184   8.179  -1.363  0.7060  0.6875  0.6049
  855MOL0     C15330   5.310   8.192  -1.257  0.1505  0.1845  0.5472
  855MOL0     C15331   5.452   8.187  -1.310  1.2425 -0.4992 -0.6932
  855MOL0     C15332   5.497   8.045  -1.336 -0.6806  0.0932  0.3855
  855MOL0     C15333   5.641   8.049  -1.374 -0.2695  0.7300  0.5445
  855MOL0    Cl15334   5.647   8.095  -1.554  0.1915  0.2521 -0.2596
  855MOL0     C15335   4.582   8.260  -1.113  0.4420 -0.4262  0.2342
  855MOL0     C15336   4.454   8.264  -1.048  0.8972 -0.3691  0.6047
  855MOL0     O15337   4.264   8.546  -0.793 -0.0525 -0.1955  0.1144
  855MOL0     C15338   4.005   8.315  -0.852 -0.1111 -0.0404  0.9505
  855MOL0     C15339   3.869   8.302  -0.822  0.2856  0.0203 -0.4344
  855MOL0     N15340   3.230   7.893  -0.917 -0.0289 -0.3581 -0.1104
  855MOL0     N15341   3.120   7.830  -0.884  1.3682  0.9741 -0.4772
  855MOL0     C15342   2.661   7.908   0.326 -0.1664 -0.7111  1.1555
  855MOL0     C15343   2.749   7.933   0.441  0.4754 -0.9980 -0.6657
  855MOL0     C15344   2.905   8.229   0.769 -0.4009  0.1837 -0.6588
  855MOL0     C15345   2.891   8.125   0.864  0.5836  0.4973 -0.3065
  855MOL0     C15346   2.916   8.141   0.995  0.4138 -0.2662  0.0078
  855MOL0     C15347   2.971   8.267   1.032  0.0147  0.4427  0.1434
  855MOL0     O15348   2.993   8.272   1.161 -0.4890  0.2635 -1.0672
  855MOL0     C15349   3.058   8.386   1.216  0.1704 -0.7139 -0.6780
  855MOL0     C15350   3.076   8.360   1.365 -0.1429  0.0235 -0.4345
  855MOL0     C15351   3.150   8.468   1.459  0.2580 -0.6289  0.0150
  855MOL0     C15352   3.200   8.402   1.591 -0.0659 -1.1217  0.4642
  855MOL0     C15353   3.318   8.465   1.653 -0.0946 -0.0277  0.6180
  855MOL0     C15354   3.417   8.510   1.709 -0.0681  1.1150  0.6527
  855MOL0     C15355   2.992   8.375   0.948 -0.1933  0.5617  0.2479
  855MOL0     C15356   2.959   8.352   0.812 -0.0087 -0.0997 -0.1113
  855MOL0     C15357   2.997   8.465   0.725  1.4495 -0.4398  0.1797
  855MOL0     H15358   2.606   8.235   0.522  0.1355 -0.6341  1.3506
  855MOL0     H15359   2.463   8.185   0.327  0.6781  0.4700 -0.5417
  855MOL0     H15360   2.470   8.042  -0.023 -0.1965  2.1317 -0.0866
  855MOL0     H15361   2.593   8.121   0.069  2.3941 -0.2524  0.3786
  855MOL0     H15362   2.578   7.824  -0.001 -0.0234 -0.5106  4.7326
  855MOL0     H15363   2.724   7.899   0.071  2.7099  2.1858 -2.2538
  855MOL0     H15364   2.724   8.072  -0.118 -0.9880  0.3950 -2.0884
  855MOL0     H15365   2.613   7.964  -0.207 -1.3158 -0.8292  0.0561
  855MOL0     H15366   2.915   7.924  -0.150 -1.1863  0.3516  2.2164
  855MOL0     H15367   2.804   7.788  -0.194 -0.2962 -0.2385 -1.8916
  855MOL0     H15368   2.720   7.917  -0.379 -0.2093  3.5331  0.6646
  855MOL0     H15369   2.836   8.039  -0.355  2.1998 -1.0009  0.9720
  855MOL0     H15370   3.027   7.848  -0.417  0.8653  2.9129  1.6974
  855MOL0     H15371   2.892   7.734  -0.423  0.3680 -0.2284 -1.0286
  855MOL0     H15372   2.943   7.971  -0.620 -1.1525  0.2925 -0.3706
  855MOL0     H15373   2.811   7.866  -0.633  1.0475  1.2032 -1.6661
  855MOL0     H15374   3.046   7.696  -0.617 -2.3699 -2.4051 -0.1214
  855MOL0     H15375   2.941   7.714  -0.749  2.4905 -2.9480  0.6332
  855MOL0     H15376   3.244   7.883  -0.591 -1.1937 -0.7978 -0.3105
  855MOL0     H15377   3.479   7.995  -0.701  2.3526  1.0260 -1.6041
  855MOL0     H15378   3.490   7.949  -0.868  1.2970  1.5130 -1.3545
  855MOL0     H15379   3.373   8.168  -0.957  0.6905 -0.5553 -0.4212
  855MOL0     H15380   3.325   8.197  -0.787  0.4896  1.8239  1.5870
  855MOL0     H15381   3.498   8.332  -0.900 -2.0768 -1.0786 -1.0089
  855MOL0     H15382   3.599   8.188  -0.913  2.1950  2.9532  0.2041
  855MOL0     H15383   3.631   8.178  -0.665 -3.4036 -1.1895  0.2849
  855MOL0     H15384   3.497   8.278  -0.633  0.0376  1.0194  1.2617
  855MOL0     H15385   3.803   8.607  -0.690  3.2681  0.9310  1.7859
  855MOL0     H15386   4.039   8.649  -0.768 -1.7323  0.7170  4.7554
  855MOL0     H15387   4.476   8.577  -0.904  2.4877  0.9311  0.7592
  855MOL0     H15388   4.691   8.568  -1.008 -0.1317  0.6439 -3.4871
  855MOL0     H15389   4.862   8.189  -1.135  1.0906 -0.0114 -0.7391
  855MOL0     H15390   4.786   8.218  -1.287 -1.3795 -2.0339  1.4349
  855MOL0     H15391   5.003   8.383  -1.323  3.1377  0.5099  0.6305
  855MOL0     H15392   5.033   8.355  -1.163  1.4788  0.1876 -0.9409
  855MOL0     H15393   5.089   8.114  -1.187 -2.2244 -0.5118 -0.7342
  855MOL0     H15394   4.994   8.101  -1.322  1.1783 -0.4427 -0.3521
  855MOL0     H15395   5.172   8.269  -1.424  0.3813 -1.3339 -2.5739
  855MOL0     H15396   5.199   8.091  -1.427 -1.0754 -0.1876  1.3263
  855MOL0     H15397   5.308   8.114  -1.180  1.3239 -1.1517 -0.7093
  855MOL0     H15398   5.304   8.287  -1.205 -1.0966  0.2016  0.4038
  855MOL0     H15399   5.464   8.248  -1.400 -0.4500  1.7544  0.5110
  855MOL0     H15400   5.514   8.232  -1.232 -0.2741  0.3802  0.0465
  855MOL0     H15401   5.443   8.003  -1.421 -0.5633 -2.1762  1.3679
  855MOL0     H15402   5.479   7.977  -1.252  4.9050 -1.7209  0.5189
  855MOL0     H15403   5.695   8.129  -1.323 -0.1474  0.3635  1.0042
  855MOL0     H15404   5.683   7.948  -1.363 -1.8981  0.1984  2.4751
  855MOL0     H15405   4.612   8.169  -1.164  2.4903 -0.0049  0.5960
  855MOL0     H15406   4.391   8.175  -1.045  0.9548 -0.4812 -0.7363
  855MOL0     H15407   4.067   8.232  -0.884 -2.4929 -0.0571 -4.7684
  855MOL0     H15408   3.828   8.203  -0.843 -0.2664  0.2131 -0.2828
  855MOL0     H15409   2.668   7.818   0.266 -0.8915 -1.6772  2.4622
  855MOL0     H15410   2.819   7.854   0.467 -1.3244 -1.9847  1.5386
  855MOL0     H15411   2.839   8.032   0.843  0.8143  0.3129 -0.0660
  855MOL0     H15412   2.898   8.062   1.068 -2.0381  0.8357  0.7059
  855MOL0     H15413   2.994   8.474   1.203  1.2011  1.1929  4.5686
  855MOL0     H15414   3.158   8.399   1.175  0.0051 -1.0552 -1.1979
  855MOL0     H15415   3.128   8.264   1.371 -0.7257 -0.2190  1.3609
  855MOL0     H15416   2.978   8.340   1.410  0.3188 -1.8459 -0.1939
  855MOL0     H15417   3.065   8.537   1.469 -2.5603 -3.7144 -0.8642
  855MOL0     H15418   3.229   8.521   1.406 -1.7345  1.3102 -1.1735
  855MOL0     H15419   3.118   8.399   1.662 -0.6085  0.6276 -0.0341
  855MOL0     H15420   3.233   8.299   1.578  0.3658 -1.0446  0.9102
  855MOL0     H15421   3.506   8.517   1.768 -0.7718 -0.9448  2.0633
  855MOL0     H15422   3.031   8.464   0.997  0.7924 -1.4776  3.4849
  855MOL0     H15423   2.909   8.523   0.695  2.6855  0.9689 -0.8801
  855MOL0     H15424   3.057   8.532   0.787  1.6923 -0.4021 -0.0975
  855MOL0     H15425   3.045   8.436   0.632 -0.6426  0.5702 -1.3070
  856MOL0     O15426   8.849   2.150   4.418  0.2298 -0.3554  0.6276
  856MOL0     C15427   8.940   2.200   4.481 -0.3212 -0.2237  0.0261
  856MOL0     O15428   8.954   2.195   4.619 -0.4871  0.6959  0.3126
  856MOL0     C15429   8.906   2.089   4.686  0.6660  0.0972  0.0629
  856MOL0     C15430   8.984   1.974   4.696 -0.0739 -0.0978 -0.6578
  856MOL0     C15431   8.934   1.861   4.760  0.0662  0.5703  0.2429
  856MOL0     C15432   8.803   1.859   4.815 -0.2446  1.3843  1.3819
  856MOL0     O15433   8.750   1.744   4.875 -0.1923  0.0928  0.1901
  856MOL0     C15434   8.679   1.654   4.798  0.9917 -0.6924  1.0442
  856MOL0     C15435   8.528   1.661   4.814 -0.1304 -0.6221  0.4538
  856MOL0     C15436   8.488   1.649   4.964  0.0512  0.8758  0.5254
  856MOL0     C15437   8.495   1.508   5.032  0.5380 -0.2367 -0.1766
  856MOL0     C15438   8.406   1.405   4.959 -1.0061 -1.0063  0.1227
  856MOL0     C15439   8.266   1.425   4.976  0.6646 -0.2583 -0.0564
  856MOL0     C15440   8.180   1.358   4.868 -0.2017 -0.2842 -0.1559
  856MOL0     C15441   8.028   1.347   4.917 -0.2071  0.9503  0.5735
  856MOL0     N15442   7.952   1.286   4.796 -0.4340 -1.5923  0.0362
  856MOL0     C15443   7.976   1.160   4.748 -0.9357 -0.1173 -0.1230
  856MOL0     C15444   7.928   1.172   4.622 -0.9459  0.8102  0.6216
  856MOL0     C15445   7.922   1.069   4.512  0.4506  0.2310  0.2776
  856MOL0     C15446   8.046   1.055   4.437 -0.8438  0.3521  0.5818
  856MOL0     C15447   8.057   1.157   4.326  0.5327 -0.1517 -1.1323
  856MOL0     C15448   8.188   1.138   4.246  0.0745 -0.7678  0.7873
  856MOL0     O15449   8.301   1.177   4.327  0.2947 -0.5827  0.3020
  856MOL0     C15450   8.314   1.312   4.350  0.3453 -0.6816  0.4704
  856MOL0     C15451   8.273   1.373   4.468 -0.5438  0.2402 -0.5526
  856MOL0     C15452   8.298   1.506   4.499  0.0596  0.0963  0.3187
  856MOL0     C15453   8.375   1.583   4.415  0.5456 -0.4413  1.2122
  856MOL0     C15454   8.382   1.735   4.446  0.3621  0.7181  0.2209
  856MOL0     O15455   8.331   1.796   4.561 -0.5859 -0.1174  1.0800
  856MOL0     C15456   8.332   1.929   4.584  0.1632  0.9288  0.0804
  856MOL0     C15457   8.297   1.966   4.712  0.2786  0.0349 -0.4715
  856MOL0     C15458   8.293   2.107   4.751 -1.7448  0.6930  0.0394
  856MOL0     C15459   8.338   2.205   4.655  0.8229  0.2875 -0.7578
  856MOL0     O15460   8.326   2.334   4.703  0.0465  0.3135 -0.1732
  856MOL0     C15461   8.437   2.413   4.674 -0.7933  0.3558  1.2740
  856MOL0     C15462   8.454   2.540   4.765  0.1373  0.2512  0.4951
  856MOL0     C15463   8.589   2.612   4.739 -0.4466  0.8219 -0.7957
  856MOL0     C15464   8.702   2.530   4.698  0.1290 -0.0182  0.1737
  856MOL0     C15465   8.843   2.596   4.699  0.1770  0.6517  0.6865
  856MOL0     C15466   8.857   2.720   4.598 -1.1214 -0.0673  0.1727
  856MOL0     C15467   8.871   2.667   4.457  0.0020  1.0435  0.0311
  856MOL0     C15468   8.919   2.777   4.356 -0.0613  0.0939  0.1988
  856MOL0    Cl15469   8.790   2.903   4.317  0.3793  0.1710  0.2794
  856MOL0     C15470   8.367   2.165   4.528 -0.3500  0.7297  0.8712
  856MOL0     C15471   8.361   2.031   4.494 -0.0313  0.0945 -0.0684
  856MOL0     O15472   8.440   1.796   4.357 -0.0127  0.8636  0.5616
  856MOL0     C15473   8.408   1.522   4.288  0.5116 -0.3207 -0.2929
  856MOL0     C15474   8.387   1.387   4.262 -0.8409  0.6099 -0.6473
  856MOL0     N15475   7.890   1.299   4.583 -0.4305  0.0899  0.0735
  856MOL0     N15476   7.922   1.372   4.688  0.0065  1.2923 -0.1061
  856MOL0     C15477   8.722   1.972   4.803  0.3230 -0.0094  0.4384
  856MOL0     C15478   8.776   2.091   4.739  0.7430  1.4757  0.9156
  856MOL0     C15479   9.036   2.292   4.411 -0.8597  0.4587 -0.7689
  856MOL0     C15480   9.120   2.376   4.492  0.5196 -0.2906  0.3826
  856MOL0     C15481   9.214   2.463   4.446  0.4275 -0.8744 -0.3435
  856MOL0     C15482   9.231   2.480   4.308  0.0597 -0.4109 -0.9941
  856MOL0     O15483   9.319   2.561   4.255 -0.1673 -1.1027  0.4205
  856MOL0     C15484   9.268   2.645   4.152  0.0915 -0.9170  0.0057
  856MOL0     C15485   9.252   2.790   4.211  0.9262 -0.4842  0.6059
  856MOL0     C15486   9.166   2.876   4.109 -0.3636  0.4747  0.1026
  856MOL0     C15487   9.267   2.924   3.996 -0.5887  0.2370  0.1211
  856MOL0     C15488   9.366   3.018   4.040  0.2403  0.1375  0.7245
  856MOL0     C15489   9.439   3.100   4.077 -0.1618  0.4363 -0.5255
  856MOL0     C15490   9.151   2.395   4.225 -0.0815  0.1821 -0.7145
  856MOL0     C15491   9.059   2.298   4.272 -0.0214 -0.2279  0.7672
  856MOL0     C15492   8.987   2.230   4.167  0.7413  0.1868  0.1925
  856MOL0     H15493   9.084   1.980   4.655  0.3215 -0.3890  0.2583
  856MOL0     H15494   8.985   1.766   4.765 -2.7826 -1.1683 -0.9476
  856MOL0     H15495   8.696   1.684   4.694 -1.0676 -2.8039  0.0251
  856MOL0     H15496   8.721   1.553   4.799  2.3684 -0.1506  1.9243
  856MOL0     H15497   8.480   1.584   4.752  0.9577 -0.5666 -0.5076
  856MOL0     H15498   8.482   1.753   4.778  1.1916 -0.1330 -0.0526
  856MOL0     H15499   8.394   1.702   4.980 -2.4691 -2.8122 -0.7352
  856MOL0     H15500   8.569   1.709   5.006  3.8387 -0.2745 -4.1593
  856MOL0     H15501   8.600   1.493   5.058  0.6993  2.0202  0.7321
  856MOL0     H15502   8.445   1.515   5.129  2.6000 -1.8639  1.0981
  856MOL0     H15503   8.453   1.397   4.861 -2.4935 -3.7009 -0.4820
  856MOL0     H15504   8.416   1.306   5.005 -2.6405 -2.0274 -1.5498
  856MOL0     H15505   8.232   1.379   5.070 -2.8580 -0.0592 -1.0871
  856MOL0     H15506   8.240   1.531   4.983 -0.6093 -0.4247 -1.6655
  856MOL0     H15507   8.216   1.256   4.847  1.0613  0.0715  0.1843
  856MOL0     H15508   8.193   1.405   4.770  0.7754  4.2134  1.8970
  856MOL0     H15509   8.010   1.289   5.008 -2.5051 -0.4692 -0.7053
  856MOL0     H15510   7.992   1.450   4.932  1.7352  2.2289 -2.4523
  856MOL0     H15511   8.010   1.074   4.805 -1.2316  0.5560  1.1039
  856MOL0     H15512   7.900   0.974   4.560 -1.2424 -0.3605 -1.5323
  856MOL0     H15513   7.852   1.098   4.434  2.1934 -1.7651 -2.2031
  856MOL0     H15514   8.133   1.062   4.503  0.6443 -1.2188 -1.0992
  856MOL0     H15515   8.051   0.957   4.390  1.0678  0.0544  1.3237
  856MOL0     H15516   8.059   1.261   4.359  0.4930 -0.5258  0.1079
  856MOL0     H15517   7.966   1.151   4.265  0.3081 -0.6259 -0.7489
  856MOL0     H15518   8.179   1.210   4.164 -3.2934 -1.6080  0.2498
  856MOL0     H15519   8.198   1.038   4.202 -2.4217 -0.6374 -0.2146
  856MOL0     H15520   8.236   1.308   4.547  1.2056 -0.7218 -0.4694
  856MOL0     H15521   8.275   1.567   4.586 -3.0516 -0.3221 -0.0908
  856MOL0     H15522   8.283   1.888   4.787 -0.5956  1.5719  1.0407
  856MOL0     H15523   8.276   2.119   4.857 -2.7108 -1.9697  0.2425
  856MOL0     H15524   8.524   2.354   4.704  1.7413  3.3405  0.3257
  856MOL0     H15525   8.442   2.439   4.568  1.2676 -0.9007  1.0077
  856MOL0     H15526   8.366   2.603   4.746 -4.3893 -4.8629  1.9438
  856MOL0     H15527   8.449   2.508   4.870 -0.1636 -0.7581  0.1863
  856MOL0     H15528   8.585   2.694   4.667  1.3067 -0.4921 -2.5148
  856MOL0     H15529   8.618   2.675   4.824  0.3027 -2.4066  1.5472
  856MOL0     H15530   8.674   2.511   4.593 -3.8969  3.3053  0.3900
  856MOL0     H15531   8.702   2.436   4.754 -0.9172 -0.4843 -0.5508
  856MOL0     H15532   8.921   2.522   4.678  0.0996  1.3545 -2.7190
  856MOL0     H15533   8.850   2.637   4.800  0.8933 -1.3976  1.5047
  856MOL0     H15534   8.774   2.791   4.598 -2.5861 -1.5934  3.2801
  856MOL0     H15535   8.947   2.773   4.631 -1.6198  1.9956 -1.5721
  856MOL0     H15536   8.773   2.630   4.428 -0.0504  0.9126  0.3726
  856MOL0     H15537   8.945   2.587   4.447  1.2828  2.2868 -0.9226
  856MOL0     H15538   9.004   2.831   4.399 -0.8409  1.8726 -0.3971
  856MOL0     H15539   8.936   2.725   4.261  2.2834  0.7191  0.2100
  856MOL0     H15540   8.416   2.232   4.457  1.1920 -2.6363 -1.5164
  856MOL0     H15541   8.384   2.010   4.390  0.7353  0.2740  0.0601
  856MOL0     H15542   8.469   1.577   4.217  3.0598  2.4423  3.6165
  856MOL0     H15543   8.415   1.341   4.167  1.6214  2.5358 -0.9499
  856MOL0     H15544   8.626   1.978   4.852 -1.7973  2.5514 -3.5162
  856MOL0     H15545   8.713   2.174   4.710  0.3660  0.4326 -1.4679
  856MOL0     H15546   9.101   2.379   4.599 -1.6272 -1.2422  0.0705
  856MOL0     H15547   9.273   2.511   4.524 -3.5601  2.7634  0.8357
  856MOL0     H15548   9.169   2.612   4.121 -2.2875 -1.0247  6.2677
  856MOL0     H15549   9.343   2.644   4.072 -1.5083  2.3228 -1.7833
  856MOL0     H15550   9.354   2.825   4.227  0.7503  2.3327 -3.0126
  856MOL0     H15551   9.198   2.782   4.306  1.0405 -1.0963  0.6244
  856MOL0     H15552   9.116   2.958   4.161 -0.4043  1.8897 -2.0621
  856MOL0     H15553   9.086   2.812   4.070 -0.7396  0.9089  0.1628
  856MOL0     H15554   9.316   2.842   3.942 -3.4952 -0.1235 -2.2435
  856MOL0     H15555   9.206   2.971   3.918 -0.0952 -1.7701 -1.5458
  856MOL0     H15556   9.481   3.182   4.132 -0.0280  0.2878 -0.4020
  856MOL0     H15557   9.176   2.399   4.120 -0.1704 -0.3164 -0.7578
  856MOL0     H15558   9.025   2.258   4.068  3.3201  1.4837  1.4613
  856MOL0     H15559   8.996   2.122   4.183 -1.2346  0.4007  4.0962
  856MOL0     H15560   8.881   2.256   4.172  0.6746 -0.0202 -0.0778
  857MOL0     O15561  11.106   0.455   4.336  0.0705 -0.3251  0.3384
  857MOL0     C15562  11.001   0.451   4.402 -0.6634  0.2849  0.8011
  857MOL0     O15563  10.983   0.519   4.516 -0.4672  0.1781 -0.4638
  857MOL0     C15564  11.089   0.602   4.572 -0.0080 -0.1245 -1.0286
  857MOL0     C15565  11.098   0.589   4.708 -0.1590  0.1419 -0.3007
  857MOL0     C15566  11.173   0.694   4.777  0.5960  1.2852  1.1110
  857MOL0     C15567  11.263   0.768   4.710  0.3962 -0.2129 -0.3012
  857MOL0     O15568  11.359   0.833   4.787 -0.5829 -0.1206 -0.1297
  857MOL0     C15569  11.500   0.793   4.774  0.5915  0.7707 -0.2881
  857MOL0     C15570  11.592   0.807   4.893 -0.6934 -0.2697  0.5729
  857MOL0     C15571  11.743   0.748   4.888 -0.1633 -0.2391  0.5169
  857MOL0     C15572  11.839   0.777   5.013  0.6108 -0.4055 -0.0564
  857MOL0     C15573  11.905   0.916   5.005 -0.6882  0.5550 -0.4768
  857MOL0     C15574  11.988   0.932   5.130 -0.0564  0.6266 -0.9765
  857MOL0     C15575  12.024   1.082   5.150 -0.3003  0.0078  0.6306
  857MOL0     C15576  12.079   1.115   5.296 -0.5001  0.9934 -0.3591
  857MOL0     N15577  12.165   1.241   5.280  0.4015 -0.2070 -0.1268
  857MOL0     C15578  12.302   1.249   5.276 -0.0399  0.3561  0.0015
  857MOL0     C15579  12.334   1.378   5.301  0.0595  0.2694 -0.6752
  857MOL0     C15580  12.466   1.449   5.343 -0.5682 -0.3319  1.1897
  857MOL0     C15581  12.588   1.392   5.253  0.3442 -0.3919  0.2651
  857MOL0     C15582  12.572   1.406   5.104 -0.1472 -0.3270  0.3990
  857MOL0     C15583  12.675   1.331   5.013  0.0259 -0.2050 -0.0921
  857MOL0     O15584  12.665   1.188   5.017 -0.3491 -0.7612  0.8260
  857MOL0     C15585  12.545   1.135   4.974 -0.4881  0.2821  0.3832
  857MOL0     C15586  12.471   1.180   4.859  0.7412 -0.9779 -0.3631
  857MOL0     C15587  12.363   1.092   4.820  1.0829 -0.1214 -0.6365
  857MOL0     C15588  12.333   0.969   4.886  0.4202 -0.4510 -0.5898
  857MOL0     C15589  12.225   0.874   4.835 -0.3717  0.2485  0.3112
  857MOL0     O15590  12.175   0.910   4.715  0.1209  0.6246 -0.5376
  857MOL0     C15591  12.067   0.841   4.665 -0.4956 -0.2193  0.8478
  857MOL0     C15592  11.968   0.920   4.604 -0.2822 -0.0434  0.7922
  857MOL0     C15593  11.859   0.858   4.540 -0.1759 -0.9040  0.7030
  857MOL0     C15594  11.846   0.720   4.539 -0.9129  0.2702  0.2818
  857MOL0     O15595  11.750   0.629   4.483 -0.3035  0.0807  0.0664
  857MOL0     C15596  11.648   0.693   4.417 -0.5051 -0.1240 -0.2121
  857MOL0     C15597  11.703   0.704   4.274 -0.8054  0.1452  0.3159
  857MOL0     C15598  11.603   0.783   4.178  0.1387 -0.3533 -0.5381
  857MOL0     C15599  11.460   0.718   4.186 -0.8915 -0.5392  0.9888
  857MOL0     C15600  11.372   0.790   4.087 -0.4424 -0.7973 -0.0458
  857MOL0     C15601  11.238   0.714   4.052 -0.9804  0.6142 -0.3117
  857MOL0     C15602  11.131   0.808   3.988 -0.5356  0.7855  0.5470
  857MOL0     C15603  10.993   0.751   3.967 -0.1673  0.5667 -0.2376
  857MOL0    Cl15604  10.992   0.624   3.853 -0.2236  0.2017  0.2054
  857MOL0     C15605  11.946   0.642   4.599  0.8252  0.0128 -0.1556
  857MOL0     C15606  12.054   0.704   4.659  0.8035  0.6885 -0.2252
  857MOL0     O15607  12.201   0.772   4.905 -0.1231 -0.9508  0.3522
  857MOL0     C15608  12.404   0.939   5.002  0.3799 -0.4773 -0.0312
  857MOL0     C15609  12.502   1.028   5.052 -0.7958  0.3904 -0.0459
  857MOL0     N15610  12.215   1.446   5.304  0.0203  0.5500 -0.8432
  857MOL0     N15611  12.115   1.362   5.297 -0.2259  0.3287 -0.3742
  857MOL0     C15612  11.261   0.768   4.569  0.7598  0.2166  0.0309
  857MOL0     C15613  11.156   0.700   4.496  0.9503 -0.6235  0.5056
  857MOL0     C15614  10.890   0.364   4.355 -0.0574  0.8754  0.8427
  857MOL0     C15615  10.804   0.317   4.461  0.3481  0.4920 -0.1938
  857MOL0     C15616  10.713   0.218   4.432 -0.3487  1.2172 -0.0442
  857MOL0     C15617  10.701   0.170   4.306  0.0286  0.8104  1.0583
  857MOL0     O15618  10.624   0.060   4.271  0.8983  0.0420  0.5898
  857MOL0     C15619  10.691  -0.060   4.283 -0.0420 -0.7898  0.5826
  857MOL0     C15620  10.650  -0.132   4.417 -0.2020  0.0857  0.3166
  857MOL0     C15621  10.507  -0.173   4.403  0.3481 -0.1256  0.0117
  857MOL0     C15622  10.401  -0.081   4.453 -0.4904  0.4262 -0.0769
  857MOL0     C15623  10.268  -0.119   4.410  0.3671  0.3897 -1.4686
  857MOL0     C15624  10.163  -0.154   4.364  0.8770  0.4979 -0.4972
  857MOL0     C15625  10.768   0.230   4.200  0.4607 -0.0987 -0.3853
  857MOL0     C15626  10.867   0.324   4.221 -0.2480  0.2505 -0.3796
  857MOL0     C15627  10.949   0.365   4.097 -0.6036  0.3136 -0.1237
  857MOL0     H15628  11.036   0.513   4.754  3.4645 -3.8477 -1.3488
  857MOL0     H15629  11.182   0.690   4.885 -1.1914  0.3283  1.2548
  857MOL0     H15630  11.492   0.684   4.766  1.9125  0.2501  3.5743
  857MOL0     H15631  11.554   0.832   4.687 -2.6000  1.2485 -2.2102
  857MOL0     H15632  11.541   0.758   4.975 -0.0725  1.2491  1.9246
  857MOL0     H15633  11.604   0.911   4.924  1.0712 -0.7755  1.7847
  857MOL0     H15634  11.788   0.796   4.801  0.7515 -0.1564  1.0267
  857MOL0     H15635  11.747   0.641   4.865 -1.5745  0.3187 -3.0435
  857MOL0     H15636  11.772   0.775   5.099 -0.5680  2.3391 -0.8167
  857MOL0     H15637  11.917   0.702   5.026  2.5743  1.8200  1.8134
  857MOL0     H15638  11.969   0.907   4.917 -2.5410  0.2624 -1.8558
  857MOL0     H15639  11.832   0.997   4.993 -0.6653  0.7771  0.7046
  857MOL0     H15640  11.923   0.903   5.213  2.3106  1.3975  1.2865
  857MOL0     H15641  12.075   0.865   5.136 -1.0817 -0.7405 -1.0761
  857MOL0     H15642  11.938   1.142   5.121 -1.0246 -1.3736 -0.1792
  857MOL0     H15643  12.107   1.105   5.082 -0.6634  0.3024  0.2833
  857MOL0     H15644  11.996   1.124   5.366  0.2715  0.1931  0.6969
  857MOL0     H15645  12.141   1.029   5.323  0.9251  1.4912 -1.8056
  857MOL0     H15646  12.376   1.172   5.258 -1.0042 -0.5587 -0.1191
  857MOL0     H15647  12.467   1.558   5.330  1.8716  0.1748  4.4043
  857MOL0     H15648  12.482   1.426   5.448 -1.7952 -2.6291  0.9515
  857MOL0     H15649  12.683   1.439   5.280  0.7721 -0.5609 -0.9201
  857MOL0     H15650  12.593   1.285   5.276 -0.0329 -0.9945 -2.2125
  857MOL0     H15651  12.582   1.514   5.094  3.6080 -0.6236 -0.3246
  857MOL0     H15652  12.474   1.387   5.060  1.2124  0.5508 -3.3465
  857MOL0     H15653  12.770   1.375   5.045  1.0818 -2.3420 -0.1508
  857MOL0     H15654  12.661   1.368   4.911  0.4696  0.1188 -0.0400
  857MOL0     H15655  12.505   1.264   4.798  0.6710 -2.2289 -2.2258
  857MOL0     H15656  12.308   1.115   4.730 -2.0330  1.2904  1.4402
  857MOL0     H15657  11.978   1.028   4.603 -0.6096  0.1050 -3.4727
  857MOL0     H15658  11.787   0.923   4.490  2.7413  1.8084 -0.3298
  857MOL0     H15659  11.557   0.633   4.430 -0.7674  0.8348  3.0707
  857MOL0     H15660  11.612   0.787   4.459  2.3051  1.0639 -0.2472
  857MOL0     H15661  11.803   0.747   4.272 -0.6910 -0.0683 -2.3708
  857MOL0     H15662  11.709   0.605   4.229 -3.6242 -0.0692  0.2309
  857MOL0     H15663  11.600   0.880   4.227  1.6000 -1.6220  2.2655
  857MOL0     H15664  11.637   0.791   4.074 -0.5154  2.9895 -0.6156
  857MOL0     H15665  11.411   0.721   4.284  1.5008  2.3626  2.2791
  857MOL0     H15666  11.467   0.611   4.167 -1.5221 -0.6428  1.3054
  857MOL0     H15667  11.428   0.803   3.994 -0.9626 -1.5544 -0.4845
  857MOL0     H15668  11.364   0.893   4.122 -1.3128 -1.1439  0.8294
  857MOL0     H15669  11.272   0.625   4.000  0.3650  1.1714 -0.4381
  857MOL0     H15670  11.194   0.675   4.144 -1.2476 -0.1406 -0.7565
  857MOL0     H15671  11.177   0.824   3.891 -3.0920 -0.4643 -0.9730
  857MOL0     H15672  11.126   0.899   4.049  1.7816  1.8468 -0.6943
  857MOL0     H15673  10.942   0.721   4.059 -2.6637  3.1423 -0.6264
  857MOL0     H15674  10.920   0.828   3.939 -0.1656  1.3524  1.7353
  857MOL0     H15675  11.939   0.534   4.598 -3.5448  0.0742  1.9934
  857MOL0     H15676  12.128   0.643   4.709 -0.0698 -1.3997 -1.3153
  857MOL0     H15677  12.376   0.855   5.064 -0.2680 -0.7844 -0.7300
  857MOL0     H15678  12.568   1.017   5.137  0.4247  3.5744 -0.4067
  857MOL0     H15679  11.339   0.825   4.519  2.8109 -2.0231  0.4851
  857MOL0     H15680  11.140   0.713   4.389  1.6549 -2.2139  0.1852
  857MOL0     H15681  10.814   0.353   4.563  1.5734 -2.9752  1.0701
  857MOL0     H15682  10.655   0.157   4.500 -0.7899 -0.7901 -2.1178
  857MOL0     H15683  10.800  -0.051   4.278 -0.0927  0.8415  1.5537
  857MOL0     H15684  10.671  -0.128   4.200  3.1835  0.1830 -1.1420
  857MOL0     H15685  10.657  -0.073   4.509 -0.6490  0.1241  0.3261
  857MOL0     H15686  10.711  -0.222   4.429  1.8389  1.0865 -1.7563
  857MOL0     H15687  10.499  -0.272   4.450 -0.1829 -0.8434 -1.5141
  857MOL0     H15688  10.494  -0.194   4.297  1.6452 -1.3302  0.0562
  857MOL0     H15689  10.402  -0.081   4.563 -2.3038 -1.3476  0.0162
  857MOL0     H15690  10.419   0.014   4.402  2.7702  1.9062  3.3091
  857MOL0     H15691  10.076  -0.201   4.324  0.5086  1.9869 -1.4976
  857MOL0     H15692  10.745   0.196   4.100 -0.1890 -4.7353  1.0805
  857MOL0     H15693  10.914   0.458   4.050 -3.6086  0.1067  1.5107
  857MOL0     H15694  11.055   0.375   4.124 -0.2781 -3.9395  0.7230
  857MOL0     H15695  10.948   0.285   4.023 -0.4971 -1.7891  2.0347
  858MOL0     O15696   5.154   5.638   7.115  0.4919  0.5485  0.1087
  858MOL0     C15697   5.226   5.542   7.123  0.7515  0.9405 -0.1326
  858MOL0     O15698   5.264   5.477   7.011  0.3355  0.0217  0.2423
  858MOL0     C15699   5.315   5.554   6.913  0.7159  0.0834  0.1184
  858MOL0     C15700   5.256   5.567   6.788  0.1064 -1.4017  1.4439
  858MOL0     C15701   5.301   5.661   6.695  0.1925 -0.0000  0.7809
  858MOL0     C15702   5.400   5.755   6.722  1.0332  0.2780  0.8780
  858MOL0     O15703   5.454   5.854   6.635  0.3736  0.1304 -0.5821
  858MOL0     C15704   5.458   5.829   6.495  0.6780  0.5682  0.6675
  858MOL0     C15705   5.588   5.868   6.443  0.1082  0.5178  0.3309
  858MOL0     C15706   5.621   5.807   6.306 -0.1804  0.6771 -0.9343
  858MOL0     C15707   5.747   5.874   6.256 -0.0825  0.2975 -0.8306
  858MOL0     C15708   5.782   5.820   6.123  1.0156  0.2416 -0.5612
  858MOL0     C15709   5.937   5.848   6.106  0.3145 -0.0777  0.2696
  858MOL0     C15710   5.977   5.853   5.961 -0.1095  0.3509  0.4305
  858MOL0     C15711   5.948   5.988   5.872 -0.1965  0.7688 -0.0532
  858MOL0     N15712   6.002   6.112   5.939  0.8272 -0.0667  0.3711
  858MOL0     C15713   5.969   6.177   6.051  0.5011 -0.3828  0.1966
  858MOL0     C15714   6.050   6.288   6.068 -0.1588 -0.3133 -0.0807
  858MOL0     C15715   6.035   6.388   6.181  0.0986 -0.2683 -0.0905
  858MOL0     C15716   6.025   6.327   6.323  0.6390  0.6408  0.4331
  858MOL0     C15717   6.154   6.271   6.383 -0.0764 -0.3477 -0.0744
  858MOL0     C15718   6.130   6.204   6.520  0.8311 -0.7811 -1.1095
  858MOL0     O15719   6.020   6.113   6.526 -0.1094 -0.9088  0.3493
  858MOL0     C15720   6.043   5.976   6.507 -0.7418 -0.0268  0.1143
  858MOL0     C15721   6.150   5.925   6.425 -0.3068 -0.3438 -0.3615
  858MOL0     C15722   6.156   5.788   6.397  0.1523 -0.8862 -0.6203
  858MOL0     C15723   6.053   5.706   6.431  0.3571 -0.6293 -0.1429
  858MOL0     C15724   6.060   5.567   6.384  0.2968 -0.0894 -0.1533
  858MOL0     O15725   6.169   5.534   6.317 -0.4895 -0.0742 -0.0567
  858MOL0     C15726   6.173   5.423   6.232  0.1369 -0.8070  0.4206
  858MOL0     C15727   6.254   5.436   6.119  0.3486 -0.9880 -0.1622
  858MOL0     C15728   6.284   5.325   6.045  0.5606 -0.1842  0.8765
  858MOL0     C15729   6.248   5.198   6.093  0.0294 -0.4344  0.0838
  858MOL0     O15730   6.299   5.107   6.011  1.1065 -0.3625  0.7740
  858MOL0     C15731   6.261   4.969   6.049 -0.4446 -0.2379 -0.0730
  858MOL0     C15732   6.287   4.877   5.924 -0.2064 -0.7244 -0.5432
  858MOL0     C15733   6.229   4.747   5.947 -0.3083  0.8389 -0.1669
  858MOL0     C15734   6.085   4.730   5.927 -0.3897  0.1938 -0.2032
  858MOL0     C15735   6.027   4.741   5.787 -0.3900 -0.2099  0.4731
  858MOL0     C15736   6.106   4.682   5.669  0.6454 -0.5718 -0.2521
  858MOL0     C15737   6.085   4.533   5.661  0.7557  0.6357 -0.4528
  858MOL0     C15738   6.113   4.497   5.515  0.8528  0.6216 -0.6241
  858MOL0    Cl15739   6.056   4.336   5.477 -0.2510 -0.4713  0.2185
  858MOL0     C15740   6.171   5.181   6.214  0.0443  0.3880 -0.3118
  858MOL0     C15741   6.139   5.298   6.287  0.8973 -0.7248 -0.0004
  858MOL0     O15742   5.973   5.489   6.433 -0.8761  0.0228  0.2989
  858MOL0     C15743   5.955   5.747   6.523  0.1362  0.1347  0.3288
  858MOL0     C15744   5.948   5.888   6.557  0.1088 -0.0436 -1.0886
  858MOL0     N15745   6.135   6.300   5.960 -0.0670 -0.7068 -0.5956
  858MOL0     N15746   6.100   6.191   5.887  0.7857 -0.5476 -0.9437
  858MOL0     C15747   5.457   5.747   6.853 -0.4308  0.5343  0.3103
  858MOL0     C15748   5.418   5.643   6.953  0.2592  0.3848 -0.7992
  858MOL0     C15749   5.252   5.480   7.263  0.2595 -0.4912 -0.1512
  858MOL0     C15750   5.315   5.359   7.272 -0.1655  0.6852  0.6306
  858MOL0     C15751   5.338   5.293   7.394 -0.2456 -0.3061  0.0915
  858MOL0     C15752   5.301   5.357   7.511  0.0121 -0.6460  0.2589
  858MOL0     O15753   5.338   5.294   7.629 -0.3553  0.2936  0.3922
  858MOL0     C15754   5.230   5.270   7.709  0.7800  0.7072 -1.1123
  858MOL0     C15755   5.149   5.150   7.654 -0.5827  1.6995  0.3468
  858MOL0     C15756   5.043   5.105   7.754  0.1267  1.1809  0.3144
  858MOL0     C15757   5.074   4.973   7.826  0.6244  0.7822  0.8825
  858MOL0     C15758   4.958   4.930   7.912 -0.4966 -0.4444  0.2397
  858MOL0     C15759   4.869   4.920   7.994 -0.1330  0.1399  0.2421
  858MOL0     C15760   5.244   5.489   7.510 -0.0659 -0.3060 -0.0349
  858MOL0     C15761   5.210   5.541   7.382  0.7944 -0.2152  0.7150
  858MOL0     C15762   5.127   5.662   7.390 -0.2727 -0.7824  1.0313
  858MOL0     H15763   5.169   5.508   6.764 -2.2451  2.6880 -1.3161
  858MOL0     H15764   5.269   5.679   6.592  0.6226 -1.4907  0.3541
  858MOL0     H15765   5.435   5.726   6.465 -0.6434  1.8342 -3.4080
  858MOL0     H15766   5.382   5.894   6.450 -1.1841 -0.8881  1.5645
  858MOL0     H15767   5.657   5.840   6.522 -0.0836 -0.2801  0.2214
  858MOL0     H15768   5.578   5.976   6.428 -5.2021 -0.0150 -2.4849
  858MOL0     H15769   5.549   5.832   6.228  3.2706  0.6726 -4.4454
  858MOL0     H15770   5.642   5.699   6.306  1.4382  0.9124 -2.8733
  858MOL0     H15771   5.728   5.981   6.265  2.4291  0.6851  1.0767
  858MOL0     H15772   5.827   5.855   6.329  0.3528  4.7792  0.1041
  858MOL0     H15773   5.756   5.714   6.117 -1.5262  0.6591  1.2939
  858MOL0     H15774   5.716   5.870   6.051  0.9172  0.9717  0.0176
  858MOL0     H15775   5.968   5.939   6.159  0.3129  0.7601 -1.1270
  858MOL0     H15776   6.000   5.766   6.141 -0.4297 -1.2818 -1.0772
  858MOL0     H15777   5.931   5.766   5.913 -2.2242  0.1236  2.6654
  858MOL0     H15778   6.085   5.839   5.958  0.2261  2.6618  0.4294
  858MOL0     H15779   6.001   5.965   5.780 -0.3854 -1.1900  0.2790
  858MOL0     H15780   5.840   5.993   5.853 -0.4477 -1.7850  0.3130
  858MOL0     H15781   5.888   6.142   6.115 -1.2128  2.0959 -0.4746
  858MOL0     H15782   6.118   6.458   6.194  0.9815 -1.5000  1.2880
  858MOL0     H15783   5.943   6.441   6.156 -1.7791 -2.2153  2.1832
  858MOL0     H15784   6.001   6.412   6.388  0.5692  0.6117  0.4446
  858MOL0     H15785   5.944   6.254   6.325  3.2024 -2.8403 -3.7126
  858MOL0     H15786   6.227   6.353   6.393 -2.7252  2.2298 -0.5024
  858MOL0     H15787   6.192   6.202   6.307  1.0856  0.2968 -0.1071
  858MOL0     H15788   6.104   6.286   6.588  0.5896  1.8002 -4.0621
  858MOL0     H15789   6.211   6.144   6.560 -1.9218 -4.2018 -0.1575
  858MOL0     H15790   6.228   5.994   6.397  0.3139 -1.2701 -0.9841
  858MOL0     H15791   6.233   5.761   6.326 -0.6453  1.5557 -2.5577
  858MOL0     H15792   6.287   5.539   6.108  0.2729 -0.9699 -0.2202
  858MOL0     H15793   6.340   5.331   5.953 -0.6253 -0.8451  0.0899
  858MOL0     H15794   6.327   4.941   6.131  3.1623  3.5278 -1.3301
  858MOL0     H15795   6.153   4.972   6.070 -0.4383 -0.0820 -0.0637
  858MOL0     H15796   6.253   4.915   5.828  2.1330  1.7161 -0.5211
  858MOL0     H15797   6.395   4.870   5.906 -0.2706 -1.0286 -0.8096
  858MOL0     H15798   6.277   4.672   5.884 -1.6316 -2.2910  2.2478
  858MOL0     H15799   6.267   4.711   6.043  1.4824 -1.0157 -1.4866
  858MOL0     H15800   6.027   4.796   5.993 -1.0502 -0.4558 -0.1179
  858MOL0     H15801   6.065   4.629   5.965  1.6230 -1.2442 -2.6437
  858MOL0     H15802   6.025   4.849   5.765  1.5567 -0.3570 -0.7465
  858MOL0     H15803   5.929   4.694   5.788  0.2910 -1.7186  2.1743
  858MOL0     H15804   6.068   4.723   5.575  1.0178 -2.2624 -1.1760
  858MOL0     H15805   6.212   4.711   5.662 -0.0788  2.8794  0.8710
  858MOL0     H15806   5.987   4.502   5.699  0.5458  3.3403  1.4930
  858MOL0     H15807   6.159   4.486   5.727 -0.8300 -2.1879 -0.5110
  858MOL0     H15808   6.055   4.562   5.449 -0.0029 -0.3171 -0.8212
  858MOL0     H15809   6.220   4.492   5.491  0.8568  0.2340 -0.5348
  858MOL0     H15810   6.149   5.085   6.260  2.1548  0.2924  0.6269
  858MOL0     H15811   6.097   5.290   6.386 -0.3335  1.3886 -0.2947
  858MOL0     H15812   5.875   5.679   6.553 -2.1411  3.1455  1.5960
  858MOL0     H15813   5.870   5.931   6.618 -1.1345  1.5616 -3.6218
  858MOL0     H15814   5.531   5.817   6.892  2.1316 -1.7988 -0.0147
  858MOL0     H15815   5.476   5.630   7.044 -0.8426  0.7393 -0.0350
  858MOL0     H15816   5.354   5.309   7.184 -2.9601  0.9888 -0.8733
  858MOL0     H15817   5.381   5.193   7.390  0.4985  0.0614 -1.6756
  858MOL0     H15818   5.155   5.350   7.709  0.1777  0.1511 -0.5634
  858MOL0     H15819   5.247   5.257   7.817 -0.7153 -1.7043 -1.0989
  858MOL0     H15820   5.207   5.059   7.631 -1.2514  1.2783  0.2899
  858MOL0     H15821   5.097   5.185   7.565 -0.7137 -3.0132 -1.7745
  858MOL0     H15822   4.946   5.097   7.705  0.4168 -2.2806  0.0820
  858MOL0     H15823   5.039   5.165   7.846  1.6547 -0.2386  1.3570
  858MOL0     H15824   5.095   4.889   7.758 -1.7313 -0.2308  1.2962
  858MOL0     H15825   5.163   4.985   7.889  0.7250 -0.5774  1.0370
  858MOL0     H15826   4.789   4.915   8.065 -0.9801  2.0878 -0.5105
  858MOL0     H15827   5.218   5.548   7.597 -0.6772 -2.6963  1.4878
  858MOL0     H15828   5.028   5.636   7.349 -0.1796  0.2997  0.0623
  858MOL0     H15829   5.117   5.707   7.489  2.4915  0.4551  0.8284
  858MOL0     H15830   5.166   5.739   7.323  0.8740 -2.4299 -0.3097
  859MOL0     O15831   5.108   1.666   0.727 -0.3759 -0.3714  0.3369
  859MOL0     C15832   5.140   1.766   0.669 -0.6303 -0.3687 -0.6678
  859MOL0     O15833   5.078   1.821   0.562 -0.1353 -0.4970  0.2995
  859MOL0     C15834   4.972   1.763   0.505  0.9273 -0.7966 -0.5967
  859MOL0     C15835   4.939   1.809   0.379 -0.1607  0.4407  0.3587
  859MOL0     C15836   4.833   1.748   0.304 -0.2337 -0.4798 -0.4058
  859MOL0     C15837   4.761   1.646   0.361  0.3837 -0.5139  1.0203
  859MOL0     O15838   4.656   1.603   0.286 -0.5791 -0.3949  0.3055
  859MOL0     C15839   4.618   1.465   0.287  0.7080 -0.8065 -0.2007
  859MOL0     C15840   4.715   1.355   0.251  0.3182  0.0702  0.0038
  859MOL0     C15841   4.741   1.348   0.101 -0.3945  1.0394  0.5938
  859MOL0     C15842   4.830   1.225   0.055 -0.2133 -0.0959  0.5720
  859MOL0     C15843   4.861   1.211  -0.092  0.1554  0.2346 -0.6865
  859MOL0     C15844   4.732   1.189  -0.175  0.0192  0.6413 -0.3524
  859MOL0     C15845   4.749   1.134  -0.312  0.6286 -0.0399 -0.3759
  859MOL0     C15846   4.820   0.996  -0.311 -0.0482  0.8004  0.6615
  859MOL0     N15847   4.730   0.894  -0.243 -0.3356 -0.4862  0.0409
  859MOL0     C15848   4.764   0.829  -0.133 -0.6706  0.3534  0.0209
  859MOL0     C15849   4.656   0.747  -0.110  0.0194 -0.6519 -1.0818
  859MOL0     C15850   4.636   0.642   0.001 -0.6316  0.5967  0.2671
  859MOL0     C15851   4.736   0.527  -0.028 -0.7836 -0.4089 -0.2013
  859MOL0     C15852   4.682   0.457  -0.153 -1.0172  0.0833 -0.4694
  859MOL0     C15853   4.754   0.319  -0.168  0.1135  0.4232  1.1452
  859MOL0     O15854   4.665   0.234  -0.252  0.0768 -0.2824  0.7551
  859MOL0     C15855   4.719   0.118  -0.296 -0.7023 -0.1158 -0.3615
  859MOL0     C15856   4.863   0.079  -0.294 -0.1497 -0.2500  0.0181
  859MOL0     C15857   4.896  -0.038  -0.361 -0.3313 -0.7333  0.2176
  859MOL0     C15858   4.798  -0.125  -0.425 -1.0596  0.6905 -0.3255
  859MOL0     C15859   4.832  -0.246  -0.505 -0.9355 -0.2281 -0.1474
  859MOL0     O15860   4.729  -0.285  -0.589  0.0658  0.5562 -0.1436
  859MOL0     C15861   4.716  -0.391  -0.672 -0.1202  0.8621 -0.1309
  859MOL0     C15862   4.587  -0.415  -0.729 -0.0151 -0.6101  0.5485
  859MOL0     C15863   4.570  -0.518  -0.821  0.3053 -0.0489  0.4519
  859MOL0     C15864   4.673  -0.604  -0.856 -0.7864 -0.5310 -0.0602
  859MOL0     O15865   4.675  -0.718  -0.929 -0.7981 -0.0503 -0.3300
  859MOL0     C15866   4.550  -0.747  -0.993  0.6444  0.6174 -0.1711
  859MOL0     C15867   4.570  -0.865  -1.087  0.1396  0.5138 -0.7321
  859MOL0     C15868   4.436  -0.909  -1.151  0.0983 -0.2221 -0.7465
  859MOL0     C15869   4.431  -1.056  -1.188  0.0560  1.0941  0.0713
  859MOL0     C15870   4.322  -1.077  -1.288  0.4074  1.2465 -0.0286
  859MOL0     C15871   4.305  -1.214  -1.342 -0.3575 -0.0789  0.2533
  859MOL0     C15872   4.266  -1.310  -1.235 -0.0496 -0.3845  0.1434
  859MOL0     C15873   4.233  -1.450  -1.292  0.4535  0.8816  0.0422
  859MOL0    Cl15874   4.389  -1.554  -1.287 -0.3411  0.3858  0.0296
  859MOL0     C15875   4.805  -0.574  -0.798  0.2415  0.3006  0.4046
  859MOL0     C15876   4.826  -0.470  -0.713  0.3325  0.2472 -0.5682
  859MOL0     O15877   4.945  -0.295  -0.501 -0.3174 -0.1321  1.0608
  859MOL0     C15878   4.664  -0.079  -0.424 -0.5669  0.4577  0.1342
  859MOL0     C15879   4.624   0.027  -0.346 -0.5802 -1.2378 -0.6629
  859MOL0     N15880   4.557   0.768  -0.198  0.5516 -0.1632  0.1737
  859MOL0     N15881   4.608   0.865  -0.271  0.6151  0.1087  0.5781
  859MOL0     C15882   4.785   1.608   0.488 -0.4583 -0.4136 -0.9795
  859MOL0     C15883   4.888   1.666   0.556 -0.5907  0.6184  0.0608
  859MOL0     C15884   5.261   1.822   0.732 -0.1413 -0.2799  0.3013
  859MOL0     C15885   5.278   1.817   0.868  0.3820 -0.7686  0.1832
  859MOL0     C15886   5.376   1.895   0.930  0.0936 -0.9288 -0.6367
  859MOL0     C15887   5.463   1.977   0.864 -0.0944 -0.3240  0.0133
  859MOL0     O15888   5.570   2.033   0.940  0.4583 -0.6326 -0.2158
  859MOL0     C15889   5.694   1.959   0.939 -0.4554 -0.5862 -0.4945
  859MOL0     C15890   5.813   2.056   0.911 -0.5084  0.2706 -0.5471
  859MOL0     C15891   5.914   1.963   0.833 -0.4469  0.0577  0.5331
  859MOL0     C15892   6.049   2.031   0.828 -0.1265  0.2113  0.7284
  859MOL0     C15893   6.145   1.966   0.737  0.4617 -0.0431 -0.7323
  859MOL0     C15894   6.230   1.912   0.665 -0.1398 -0.9974  0.2376
  859MOL0     C15895   5.456   1.984   0.725  0.2561 -0.4562  0.0106
  859MOL0     C15896   5.351   1.906   0.657 -0.1196  0.9233 -0.1987
  859MOL0     C15897   5.329   1.947   0.505  0.2082 -0.2401  0.1603
  859MOL0     H15898   5.000   1.893   0.348 -0.8891  0.3230 -1.5485
  859MOL0     H15899   4.800   1.793   0.211  1.9395  0.0768 -0.9581
  859MOL0     H15900   4.559   1.449   0.377  1.0698  2.9220  0.8525
  859MOL0     H15901   4.544   1.446   0.209  1.1652 -0.8803 -0.6253
  859MOL0     H15902   4.668   1.261   0.281 -0.0326  0.5694  1.0615
  859MOL0     H15903   4.800   1.381   0.315  0.1084  1.0640 -0.1019
  859MOL0     H15904   4.805   1.428   0.063  0.9671 -0.3108 -0.0395
  859MOL0     H15905   4.652   1.341   0.037  2.1460  1.2553 -3.3050
  859MOL0     H15906   4.932   1.247   0.088  0.7872 -1.7752 -1.1961
  859MOL0     H15907   4.789   1.131   0.091 -3.5933  1.8988  2.5089
  859MOL0     H15908   4.907   1.302  -0.132  1.3056  1.4485  2.9853
  859MOL0     H15909   4.923   1.121  -0.099 -3.7215 -3.2492  3.7086
  859MOL0     H15910   4.660   1.126  -0.121  2.0768  0.1914  2.0323
  859MOL0     H15911   4.689   1.289  -0.188 -0.2341  0.2870 -2.4817
  859MOL0     H15912   4.813   1.207  -0.363  2.5321  0.5133  2.5177
  859MOL0     H15913   4.652   1.130  -0.361  0.4084 -2.7397  0.0806
  859MOL0     H15914   4.841   0.968  -0.414 -0.5886 -1.8035  1.1747
  859MOL0     H15915   4.921   1.006  -0.270  0.9240  1.0576 -1.6578
  859MOL0     H15916   4.863   0.835  -0.090 -0.6319  1.7143 -0.2171
  859MOL0     H15917   4.653   0.672   0.105 -0.0526  0.2302  0.2877
  859MOL0     H15918   4.530   0.618  -0.002 -1.3337  3.3129  0.3971
  859MOL0     H15919   4.841   0.556  -0.034 -0.9702  0.8199  1.5496
  859MOL0     H15920   4.748   0.468   0.063  3.8199 -2.3128 -1.7369
  859MOL0     H15921   4.717   0.518  -0.237  0.1606  3.0541  1.9839
  859MOL0     H15922   4.574   0.444  -0.146 -1.0759  1.2605  2.2282
  859MOL0     H15923   4.768   0.263  -0.075 -0.6469 -1.8867 -0.0418
  859MOL0     H15924   4.857   0.338  -0.198 -0.0121  0.1877  0.5547
  859MOL0     H15925   4.940   0.136  -0.243 -0.6061  0.6773 -0.2986
  859MOL0     H15926   4.999  -0.073  -0.358 -0.5244 -1.4623 -0.8539
  859MOL0     H15927   4.498  -0.353  -0.724 -0.7806 -1.8097  3.2978
  859MOL0     H15928   4.468  -0.535  -0.852  1.1111 -3.3301 -0.7971
  859MOL0     H15929   4.475  -0.763  -0.916  0.1120  1.6144 -0.4693
  859MOL0     H15930   4.518  -0.659  -1.049 -2.0987  1.0308  1.8512
  859MOL0     H15931   4.650  -0.851  -1.161  3.4654 -2.5915  1.9071
  859MOL0     H15932   4.616  -0.943  -1.026 -0.1431 -0.1057 -1.2999
  859MOL0     H15933   4.365  -0.896  -1.069  1.2226 -3.4509  0.9235
  859MOL0     H15934   4.417  -0.849  -1.240 -0.8650 -0.3409 -0.6241
  859MOL0     H15935   4.420  -1.118  -1.098  3.0129  3.2706  2.1540
  859MOL0     H15936   4.520  -1.104  -1.230 -1.2806 -3.2447  1.6276
  859MOL0     H15937   4.330  -1.011  -1.375  2.4198 -0.7272 -1.4787
  859MOL0     H15938   4.223  -1.057  -1.246 -0.8701 -1.0804 -1.7396
  859MOL0     H15939   4.216  -1.209  -1.404  0.1022 -0.3581 -0.4445
  859MOL0     H15940   4.385  -1.241  -1.412 -1.7868 -1.1750 -1.0258
  859MOL0     H15941   4.179  -1.265  -1.187 -0.6040  1.7266 -2.6063
  859MOL0     H15942   4.347  -1.315  -1.161  1.6702  0.7080 -1.5506
  859MOL0     H15943   4.147  -1.505  -1.252 -1.1230  0.1805 -3.7972
  859MOL0     H15944   4.211  -1.439  -1.399 -0.7811  5.3824  0.5818
  859MOL0     H15945   4.881  -0.644  -0.833 -2.6652 -2.6841 -0.4166
  859MOL0     H15946   4.931  -0.458  -0.689  0.3779  2.0533 -1.5286
  859MOL0     H15947   4.596  -0.154  -0.463 -2.2319  0.6719  2.4144
  859MOL0     H15948   4.519   0.051  -0.333 -0.4567 -1.2715  0.4697
  859MOL0     H15949   4.733   1.524   0.534  1.9594 -1.1679  0.5841
  859MOL0     H15950   4.903   1.630   0.657  1.9482  2.5069  0.4709
  859MOL0     H15951   5.207   1.763   0.930 -0.1375 -1.1793 -0.7377
  859MOL0     H15952   5.368   1.902   1.038 -1.3604 -0.7899 -0.7382
  859MOL0     H15953   5.681   1.880   0.865 -1.7341 -0.4687 -0.4129
  859MOL0     H15954   5.704   1.920   1.041 -0.7651  0.7169  0.0500
  859MOL0     H15955   5.853   2.090   1.007 -1.5475  3.6565 -1.1753
  859MOL0     H15956   5.791   2.150   0.859 -0.7809  0.2488 -0.4743
  859MOL0     H15957   5.875   1.951   0.732 -1.2574 -0.9435  0.9553
  859MOL0     H15958   5.932   1.869   0.886  1.9660  0.1891  0.0819
  859MOL0     H15959   6.045   2.139   0.808  2.4777  0.2947  0.3667
  859MOL0     H15960   6.087   2.024   0.930 -0.3071 -3.7528  0.6859
  859MOL0     H15961   6.294   1.892   0.582  0.8778  1.6294  0.2674
  859MOL0     H15962   5.521   2.051   0.671  0.4441 -0.5403  0.1336
  859MOL0     H15963   5.421   2.000   0.478  0.9990 -2.3490 -1.6017
  859MOL0     H15964   5.320   1.865   0.433  0.0892  0.7358 -0.9543
  859MOL0     H15965   5.239   2.006   0.487 -2.2375 -3.5170  0.6088
  860MOL0     O15966   4.485   8.140   2.063 -0.8895 -0.0485 -0.1459
  860MOL0     C15967   4.386   8.208   2.058  0.3379  0.8214 -0.3748
  860MOL0     O15968   4.262   8.155   2.031  0.0519 -0.4586 -0.7250
  860MOL0     C15969   4.251   8.019   2.045  0.2837  0.5460  0.6312
  860MOL0     C15970   4.195   7.973   2.159  0.6918  0.3145 -1.1678
  860MOL0     C15971   4.161   7.830   2.167 -0.8277  0.7390 -1.2582
  860MOL0     C15972   4.202   7.739   2.070 -0.6039  0.6149  0.7993
  860MOL0     O15973   4.179   7.603   2.090 -0.3176 -0.5126  1.0098
  860MOL0     C15974   4.292   7.510   2.061  0.3748 -1.0935  0.0607
  860MOL0     C15975   4.268   7.400   2.157  0.4077  0.5839  0.1234
  860MOL0     C15976   4.137   7.334   2.130  0.3128  2.0727 -0.4194
  860MOL0     C15977   4.133   7.205   2.222 -1.1710 -0.9851 -1.2260
  860MOL0     C15978   3.991   7.146   2.235  0.2320 -0.0531  0.4881
  860MOL0     C15979   3.983   7.027   2.326  0.0638 -0.3371  0.3309
  860MOL0     C15980   4.018   7.073   2.473  0.3907 -0.1780  0.1427
  860MOL0     C15981   3.922   7.000   2.572  0.0970  0.3911  0.5005
  860MOL0     N15982   3.925   6.853   2.589  0.2274  0.2748 -0.0417
  860MOL0     C15983   4.024   6.765   2.568 -0.2625  1.0850 -0.2409
  860MOL0     C15984   3.977   6.642   2.597 -0.2219 -0.2649 -0.1324
  860MOL0     C15985   4.042   6.506   2.605 -0.3545  0.4007  0.1104
  860MOL0     C15986   4.014   6.433   2.738 -0.0010  0.0640  0.4609
  860MOL0     C15987   4.122   6.327   2.774 -0.2044 -0.8738 -0.6719
  860MOL0     C15988   4.262   6.379   2.808 -0.0027 -0.1268 -0.5609
  860MOL0     O15989   4.234   6.502   2.888  0.2538 -0.3920  0.8885
  860MOL0     C15990   4.281   6.494   3.012  0.6137 -0.5038  0.1196
  860MOL0     C15991   4.194   6.467   3.116  0.1457  0.1627 -0.6606
  860MOL0     C15992   4.246   6.450   3.245  0.1154 -0.1378  0.3269
  860MOL0     C15993   4.374   6.484   3.277 -0.8376  0.1658 -0.2726
  860MOL0     C15994   4.411   6.505   3.418 -0.2042  0.3431  0.2104
  860MOL0     O15995   4.342   6.444   3.520  0.2671 -0.3487 -0.0765
  860MOL0     C15996   4.391   6.446   3.642  0.5211  0.7005  0.0378
  860MOL0     C15997   4.324   6.496   3.749  0.3618  0.7070 -0.1245
  860MOL0     C15998   4.380   6.483   3.871  0.5904 -0.0590 -0.4874
  860MOL0     C15999   4.508   6.419   3.885  0.7823 -0.0501 -1.7318
  860MOL0     O16000   4.565   6.400   4.006 -0.4359 -0.4854 -0.1089
  860MOL0     C16001   4.650   6.508   4.058  0.1252  0.1641 -0.6824
  860MOL0     C16002   4.691   6.453   4.198  0.1363 -0.6016  0.0943
  860MOL0     C16003   4.744   6.573   4.275 -0.2662  0.1937  0.4297
  860MOL0     C16004   4.770   6.527   4.412  0.3660 -0.2851  0.0314
  860MOL0     C16005   4.827   6.639   4.494 -0.0058  0.4781 -0.0643
  860MOL0     C16006   4.874   6.585   4.625 -0.5140 -0.0636  0.6379
  860MOL0     C16007   4.921   6.710   4.705  0.1782 -0.2463 -0.8736
  860MOL0     C16008   4.949   6.670   4.840 -0.2486  0.8417  0.6331
  860MOL0    Cl16009   4.998   6.827   4.921  0.1293 -0.0768 -0.6464
  860MOL0     C16010   4.568   6.357   3.782  1.2868  0.4461  0.9007
  860MOL0     C16011   4.501   6.369   3.661  0.0116  0.1220 -0.2454
  860MOL0     O16012   4.517   6.564   3.427  0.4584  0.0611 -0.5083
  860MOL0     C16013   4.456   6.526   3.167  0.1681  0.6826  0.8815
  860MOL0     C16014   4.402   6.537   3.032  0.5039 -0.5601  0.2124
  860MOL0     N16015   3.839   6.659   2.627 -0.0443  0.4851 -0.0576
  860MOL0     N16016   3.813   6.786   2.619 -0.6998  0.0914 -0.5429
  860MOL0     C16017   4.272   7.786   1.959 -0.4149 -0.0185  0.0068
  860MOL0     C16018   4.300   7.925   1.951  0.1980 -0.6057  0.1300
  860MOL0     C16019   4.413   8.355   2.056 -0.0121 -0.4190  1.2575
  860MOL0     C16020   4.498   8.409   2.156 -0.2307  0.7145  0.1570
  860MOL0     C16021   4.539   8.539   2.141 -0.1054 -0.5904 -0.0209
  860MOL0     C16022   4.484   8.624   2.047  0.1285 -0.0566  1.1015
  860MOL0     O16023   4.530   8.751   2.022  0.2713  0.7493 -0.9092
  860MOL0     C16024   4.627   8.795   2.120 -0.2867 -0.0596 -0.8957
  860MOL0     C16025   4.687   8.923   2.089  0.4057 -0.5000 -0.1044
  860MOL0     C16026   4.690   9.017   2.207 -0.3173 -0.1952  0.7069
  860MOL0     C16027   4.730   9.166   2.183  0.3550 -0.0618  0.3100
  860MOL0     C16028   4.628   9.234   2.105  0.5675 -0.9308  0.0599
  860MOL0     C16029   4.557   9.290   2.023  0.2447 -0.2207  0.6895
  860MOL0     C16030   4.382   8.573   1.965  0.7159 -0.0983 -0.2816
  860MOL0     C16031   4.342   8.440   1.954 -0.0625 -0.1409 -0.0367
  860MOL0     C16032   4.224   8.398   1.863 -0.5128 -0.4718 -0.9315
  860MOL0     H16033   4.171   8.045   2.237 -0.7365  1.8091 -2.9141
  860MOL0     H16034   4.101   7.794   2.251  1.8724 -1.3152 -0.0656
  860MOL0     H16035   4.279   7.482   1.956 -0.0073 -1.5499  0.2245
  860MOL0     H16036   4.391   7.553   2.082 -0.5425 -0.0492  2.5608
  860MOL0     H16037   4.276   7.437   2.260  4.0908 -0.7266  0.4446
  860MOL0     H16038   4.352   7.331   2.147  1.6388  2.1994 -1.6064
  860MOL0     H16039   4.146   7.292   2.029  0.7834 -3.3526  1.5440
  860MOL0     H16040   4.045   7.391   2.142 -1.2766  0.1867 -2.6678
  860MOL0     H16041   4.188   7.126   2.170 -2.6574 -2.1559 -1.0912
  860MOL0     H16042   4.175   7.236   2.318  0.4390  0.2293 -2.2764
  860MOL0     H16043   3.923   7.220   2.277  1.7296  2.0716 -0.6619
  860MOL0     H16044   3.960   7.120   2.134  0.2915  3.2678 -0.4851
  860MOL0     H16045   3.884   6.981   2.321  0.5202 -1.2376 -1.0103
  860MOL0     H16046   4.055   6.950   2.297  1.5066  0.4790  1.6132
  860MOL0     H16047   4.009   7.181   2.482 -0.7471  0.0251 -2.5354
  860MOL0     H16048   4.124   7.051   2.489  1.0939  0.9138 -2.4479
  860MOL0     H16049   3.935   7.055   2.665 -1.3389 -1.2292  1.7321
  860MOL0     H16050   3.825   7.041   2.541 -0.3442  0.4372  1.8740
  860MOL0     H16051   4.128   6.777   2.538 -0.2847  0.3097 -0.6403
  860MOL0     H16052   4.000   6.442   2.527  0.2348  1.8401 -1.4833
  860MOL0     H16053   4.148   6.513   2.577 -0.8248 -0.6453 -2.1804
  860MOL0     H16054   4.003   6.508   2.818  1.1657  0.8033 -0.0402
  860MOL0     H16055   3.915   6.389   2.735  0.3945 -0.9135  1.2712
  860MOL0     H16056   4.127   6.256   2.691 -4.0641  0.3139 -2.1956
  860MOL0     H16057   4.074   6.266   2.851 -1.6235 -1.0777 -1.6754
  860MOL0     H16058   4.318   6.403   2.718 -1.0021 -0.6789 -1.3571
  860MOL0     H16059   4.319   6.309   2.869  1.5227  1.2943 -0.2888
  860MOL0     H16060   4.093   6.433   3.093  0.7340 -2.2728  0.0894
  860MOL0     H16061   4.183   6.390   3.309 -3.0929  2.7648  0.1570
  860MOL0     H16062   4.229   6.548   3.737 -0.2795  0.0418  1.7468
  860MOL0     H16063   4.322   6.520   3.955  2.0822 -3.0495  2.0655
  860MOL0     H16064   4.732   6.523   3.987  1.5591 -2.9967  0.1211
  860MOL0     H16065   4.597   6.602   4.076 -0.9913 -0.1893 -1.9768
  860MOL0     H16066   4.597   6.418   4.240 -2.2948 -1.4982 -5.2673
  860MOL0     H16067   4.754   6.364   4.190 -1.1124 -1.4967 -0.0769
  860MOL0     H16068   4.830   6.623   4.229 -1.7666  4.2342  1.5443
  860MOL0     H16069   4.669   6.653   4.273 -0.9171 -0.4093  0.8409
  860MOL0     H16070   4.842   6.446   4.400  1.2253  0.7345 -2.2634
  860MOL0     H16071   4.679   6.495   4.464 -0.2277  2.1620  0.6097
  860MOL0     H16072   4.739   6.701   4.510 -1.9880 -2.5184  1.5140
  860MOL0     H16073   4.906   6.700   4.448  0.2660 -0.4143 -0.7965
  860MOL0     H16074   4.793   6.531   4.674 -2.0256  2.8943  1.6219
  860MOL0     H16075   4.954   6.512   4.612 -0.5782  0.0850 -0.7745
  860MOL0     H16076   4.837   6.779   4.693 -2.0685 -2.8145 -0.8876
  860MOL0     H16077   5.016   6.745   4.662  1.4713 -0.7590  1.3879
  860MOL0     H16078   4.859   6.626   4.885 -0.7140 -1.1294 -1.9408
  860MOL0     H16079   5.040   6.609   4.846 -0.3993  0.7574  2.8920
  860MOL0     H16080   4.653   6.291   3.794  0.9656 -0.1361  0.0860
  860MOL0     H16081   4.545   6.330   3.569  2.6097 -1.7447  1.6519
  860MOL0     H16082   4.552   6.577   3.173  1.6760 -1.8724  0.0027
  860MOL0     H16083   4.452   6.595   2.955  0.5666  2.1331  2.1122
  860MOL0     H16084   4.297   7.714   1.881 -0.3631 -1.1075  0.9950
  860MOL0     H16085   4.362   7.969   1.873  1.0528 -0.5506  0.8281
  860MOL0     H16086   4.536   8.353   2.241 -1.2265 -0.0028  0.1425
  860MOL0     H16087   4.611   8.572   2.215  0.0423 -0.5781 -0.1684
  860MOL0     H16088   4.717   8.735   2.137  1.1090  2.2549  0.4870
  860MOL0     H16089   4.582   8.787   2.219  4.3008 -4.0326  1.2752
  860MOL0     H16090   4.627   8.969   2.010  2.2762  2.2568 -0.0441
  860MOL0     H16091   4.784   8.916   2.040  1.2286  1.2573  1.1654
  860MOL0     H16092   4.769   8.977   2.271  0.4806 -1.9079 -1.2559
  860MOL0     H16093   4.593   9.001   2.256  0.1905 -1.0537  1.4727
  860MOL0     H16094   4.745   9.210   2.282  0.2374 -2.4064  1.4465
  860MOL0     H16095   4.830   9.158   2.140  0.5083 -3.6532  1.0217
  860MOL0     H16096   4.489   9.321   1.946 -2.0861 -0.3555  2.5879
  860MOL0     H16097   4.327   8.643   1.903 -1.0888 -0.1134  1.2395
  860MOL0     H16098   4.130   8.397   1.920 -2.3895  1.4968 -3.7094
  860MOL0     H16099   4.206   8.480   1.793  1.8940  1.9705  1.0849
  860MOL0     H16100   4.233   8.297   1.823  0.5794 -1.1706  0.9544
  861MOL0     O16101   8.930   7.845   5.982  0.7002  0.4836 -0.4263
  861MOL0     C16102   9.048   7.836   5.944 -0.1076  0.3186  0.3690
  861MOL0     O16103   9.088   7.833   5.810 -0.2828 -0.3442  0.1931
  861MOL0     C16104   8.999   7.893   5.724 -0.3738 -0.5810  0.0430
  861MOL0     C16105   8.945   7.813   5.626  0.1281 -0.5453  0.2105
  861MOL0     C16106   8.852   7.859   5.533  0.8115  0.6407  0.4553
  861MOL0     C16107   8.836   7.991   5.515  0.4949 -1.0247 -0.3287
  861MOL0     O16108   8.766   8.045   5.411  0.9873 -0.0058  0.0568
  861MOL0     C16109   8.819   8.152   5.333 -0.5631  0.5659 -0.1400
  861MOL0     C16110   8.873   8.085   5.200 -1.1933 -1.3144  0.3074
  861MOL0     C16111   8.988   8.191   5.152 -0.3039 -0.2930  0.8401
  861MOL0     C16112   8.926   8.325   5.093  0.1010  0.7990 -0.1256
  861MOL0     C16113   9.042   8.398   5.016  0.5765 -1.1242 -0.0401
  861MOL0     C16114   9.088   8.523   5.082 -1.5723  0.2048  0.0766
  861MOL0     C16115   9.227   8.575   5.028 -0.0794  0.4173  0.0164
  861MOL0     C16116   9.233   8.621   4.882  0.8420  0.3229  0.0554
  861MOL0     N16117   9.165   8.753   4.866  0.8885  0.5643 -0.0751
  861MOL0     C16118   9.225   8.867   4.897 -0.6300 -0.5457 -0.5749
  861MOL0     C16119   9.146   8.968   4.841 -0.4810 -1.0036  0.0884
  861MOL0     C16120   9.169   9.123   4.843  1.2142 -0.2571 -0.9260
  861MOL0     C16121   9.106   9.189   4.971 -0.5099  0.0529 -0.0134
  861MOL0     C16122   9.126   9.101   5.101  0.2901 -0.3064 -0.0043
  861MOL0     C16123   9.081   9.188   5.214  0.1713  0.2664 -0.0587
  861MOL0     O16124   9.121   9.114   5.340  0.6179 -0.5940 -0.4015
  861MOL0     C16125   9.049   9.004   5.368  0.5060  0.7589 -0.9709
  861MOL0     C16126   9.113   8.879   5.383 -0.5678 -1.2412  0.6667
  861MOL0     C16127   9.039   8.763   5.406 -0.8165  0.1361  0.5106
  861MOL0     C16128   8.906   8.774   5.423 -0.6443 -0.5297 -0.0709
  861MOL0     C16129   8.835   8.643   5.465 -0.1562 -0.2034  0.5795
  861MOL0     O16130   8.715   8.666   5.520 -0.0833 -0.5018 -0.1111
  861MOL0     C16131   8.641   8.571   5.588  0.5046 -0.2038 -0.2693
  861MOL0     C16132   8.520   8.606   5.632  1.0941 -0.2302 -0.7151
  861MOL0     C16133   8.434   8.520   5.710  1.1405 -0.3159 -0.4235
  861MOL0     C16134   8.464   8.390   5.751 -0.2015  0.0924  0.3858
  861MOL0     O16135   8.384   8.305   5.817 -0.2796 -0.4906  0.7332
  861MOL0     C16136   8.253   8.352   5.847  0.1191 -0.0774  0.4436
  861MOL0     C16137   8.177   8.234   5.920  0.4287  0.0094 -0.0714
  861MOL0     C16138   8.026   8.240   5.929  0.6192  0.5582  0.2125
  861MOL0     C16139   7.979   8.373   5.983  0.4273 -0.0295  0.0079
  861MOL0     C16140   7.835   8.385   5.965  0.4658 -0.5428 -0.0888
  861MOL0     C16141   7.748   8.286   6.040  0.4735  0.5276  0.2709
  861MOL0     C16142   7.772   8.269   6.186 -0.5050  0.3285 -0.6719
  861MOL0     C16143   7.745   8.400   6.269  0.1443  0.4214  0.2239
  861MOL0    Cl16144   7.565   8.409   6.265 -0.1523  0.2406  0.3955
  861MOL0     C16145   8.587   8.348   5.696  0.1406 -0.9332  0.4681
  861MOL0     C16146   8.670   8.442   5.622  0.4011  0.0481  0.2124
  861MOL0     O16147   8.887   8.536   5.447  0.1945  0.7730  0.3505
  861MOL0     C16148   8.839   8.897   5.397 -0.4953  0.2632  0.0491
  861MOL0     C16149   8.910   9.007   5.368 -0.4045  0.2497 -0.1396
  861MOL0     N16150   9.032   8.905   4.790 -0.0388  0.1321  0.6973
  861MOL0     N16151   9.044   8.777   4.798 -0.5355 -0.0055 -0.3405
  861MOL0     C16152   8.883   8.077   5.614 -0.1089 -0.4874 -0.7391
  861MOL0     C16153   8.961   8.027   5.724  0.7019  0.8479 -0.0259
  861MOL0     C16154   9.147   7.808   6.045 -0.2347  0.5615 -0.8276
  861MOL0     C16155   9.143   7.684   6.114 -0.5697  0.4450  0.4506
  861MOL0     C16156   9.246   7.654   6.195 -0.1754  0.6408 -0.6491
  861MOL0     C16157   9.358   7.733   6.225 -0.3712  0.0189  0.0680
  861MOL0     O16158   9.449   7.688   6.315 -0.1494 -0.1367  0.2652
  861MOL0     C16159   9.580   7.728   6.289  0.2722 -0.2521  0.6365
  861MOL0     C16160   9.674   7.643   6.375  2.1827 -0.6427 -0.4834
  861MOL0     C16161   9.823   7.672   6.350  0.3794  0.3026 -0.0551
  861MOL0     C16162   9.887   7.737   6.469 -0.6355  0.4429  1.0937
  861MOL0     C16163   9.835   7.864   6.502  0.7418 -0.1703  0.8387
  861MOL0     C16164   9.775   7.957   6.558 -0.3218  0.7887  0.5175
  861MOL0     C16165   9.352   7.866   6.161 -0.2864  0.3394 -0.3708
  861MOL0     C16166   9.253   7.901   6.073  0.7725  0.2386  0.0430
  861MOL0     C16167   9.259   8.039   6.008  0.0139  0.8314 -0.3356
  861MOL0     H16168   8.959   7.705   5.628 -3.7996 -1.2308  1.9801
  861MOL0     H16169   8.803   7.790   5.466  0.8101 -1.1006  2.1407
  861MOL0     H16170   8.735   8.221   5.331 -4.2843 -3.5017 -0.1874
  861MOL0     H16171   8.902   8.200   5.387  0.0490 -0.1790 -0.3863
  861MOL0     H16172   8.786   8.075   5.135 -1.9500 -0.1725  1.1142
  861MOL0     H16173   8.918   7.988   5.223  1.0312 -0.2776  0.6326
  861MOL0     H16174   9.029   8.141   5.063  0.6166  4.2503 -1.6093
  861MOL0     H16175   9.055   8.220   5.233 -1.6744 -0.5075  2.0917
  861MOL0     H16176   8.861   8.284   5.015  0.0123  1.1453 -0.2316
  861MOL0     H16177   8.885   8.392   5.169 -0.1888  3.3512 -2.3862
  861MOL0     H16178   9.128   8.335   4.995  0.3803 -1.3066 -0.3158
  861MOL0     H16179   9.007   8.416   4.914 -2.8012 -1.5991  0.9166
  861MOL0     H16180   9.014   8.604   5.082 -0.0677  1.6392  0.7511
  861MOL0     H16181   9.106   8.496   5.187  1.1528  2.7673  0.4226
  861MOL0     H16182   9.304   8.501   5.053 -0.0440  0.7410  0.9101
  861MOL0     H16183   9.247   8.660   5.094  2.1417  1.7077 -2.1672
  861MOL0     H16184   9.333   8.620   4.840  1.5635 -2.1314  1.6041
  861MOL0     H16185   9.184   8.557   4.808  0.4291  1.3937 -0.6119
  861MOL0     H16186   9.320   8.894   4.942  0.5012 -3.1397 -1.2729
  861MOL0     H16187   9.278   9.132   4.843  1.1642  0.8086  0.5205
  861MOL0     H16188   9.127   9.162   4.750 -2.0971 -3.1238 -0.8867
  861MOL0     H16189   9.161   9.282   4.986  1.1732 -0.6711 -1.3531
  861MOL0     H16190   9.000   9.201   4.949 -0.7840  0.6823  1.5693
  861MOL0     H16191   9.231   9.072   5.110  0.9141  1.3672 -1.3665
  861MOL0     H16192   9.050   9.023   5.088 -0.0399  0.1673 -1.0529
  861MOL0     H16193   8.975   9.211   5.197 -0.6715  0.1829  4.1062
  861MOL0     H16194   9.138   9.281   5.208  1.7625 -0.7602 -2.3706
  861MOL0     H16195   9.213   8.866   5.341 -1.7432 -0.5619 -2.6294
  861MOL0     H16196   9.093   8.677   5.445 -0.7179 -1.2031 -2.3417
  861MOL0     H16197   8.485   8.709   5.633  1.0788 -0.0773  3.8442
  861MOL0     H16198   8.347   8.568   5.753  0.7619  0.1337 -1.6533
  861MOL0     H16199   8.264   8.444   5.904 -0.7538 -0.3815  1.1271
  861MOL0     H16200   8.218   8.364   5.744  1.3823  0.7724  0.0953
  861MOL0     H16201   8.200   8.138   5.874  0.2268  0.5031 -1.2474
  861MOL0     H16202   8.202   8.237   6.026 -2.3013  2.7962  0.6593
  861MOL0     H16203   7.979   8.225   5.832 -2.2229 -0.2064  1.6080
  861MOL0     H16204   7.982   8.156   5.982  1.8761 -0.5561 -0.4533
  861MOL0     H16205   8.021   8.458   5.929 -0.5705  0.7984  0.5139
  861MOL0     H16206   8.004   8.380   6.090  2.5642 -2.3728 -0.2333
  861MOL0     H16207   7.803   8.385   5.860  0.5793  1.0930 -0.1399
  861MOL0     H16208   7.818   8.488   5.996 -1.9429 -0.4594 -1.4889
  861MOL0     H16209   7.647   8.330   6.036  0.2232 -0.1062 -1.5087
  861MOL0     H16210   7.752   8.187   5.994  1.7331  0.1935  1.0607
  861MOL0     H16211   7.876   8.234   6.194 -0.7393  0.0752  3.3965
  861MOL0     H16212   7.704   8.193   6.225 -2.4004  2.4918  0.4750
  861MOL0     H16213   7.780   8.387   6.372 -1.3003 -1.3298  0.5535
  861MOL0     H16214   7.792   8.488   6.223  3.0335 -0.8653  0.4965
  861MOL0     H16215   8.627   8.248   5.702  0.5895 -1.0627 -2.6719
  861MOL0     H16216   8.769   8.404   5.598  2.6080  3.8993  2.1414
  861MOL0     H16217   8.731   8.899   5.390 -0.3950  0.5057 -3.4716
  861MOL0     H16218   8.852   9.095   5.344  0.3314  0.2591 -2.0586
  861MOL0     H16219   8.878   8.185   5.600  0.2961 -0.5613 -1.4940
  861MOL0     H16220   8.994   8.095   5.801  1.5514  0.5199 -0.0906
  861MOL0     H16221   9.067   7.608   6.104  0.8817 -1.0809  0.6373
  861MOL0     H16222   9.253   7.558   6.245 -3.0800  1.0977  0.8561
  861MOL0     H16223   9.589   7.836   6.304 -2.0809  0.7042 -3.3121
  861MOL0     H16224   9.593   7.697   6.185 -3.3256 -0.4500  0.1166
  861MOL0     H16225   9.656   7.538   6.350  1.8613 -1.1128  1.5522
  861MOL0     H16226   9.657   7.660   6.481  0.8868 -0.6501 -0.6748
  861MOL0     H16227   9.824   7.740   6.264 -4.5454  1.0627  0.1941
  861MOL0     H16228   9.872   7.579   6.320  1.7471  0.6053  1.1231
  861MOL0     H16229   9.880   7.670   6.556  1.0816 -1.2358  0.0225
  861MOL0     H16230   9.994   7.751   6.453 -0.9018 -0.1706 -1.6870
  861MOL0     H16231   9.716   8.035   6.601 -0.6887  0.2474  1.0237
  861MOL0     H16232   9.424   7.943   6.189  1.2679 -0.9547 -0.6468
  861MOL0     H16233   9.315   8.110   6.069  0.3671 -0.7508  1.2863
  861MOL0     H16234   9.318   8.045   5.916  2.3456  0.0790  1.0162
  861MOL0     H16235   9.156   8.070   5.987  0.3791  0.8920 -2.2589
  862MOL0     O16236   6.393   6.475   7.100  0.0674 -0.4697  0.3173
  862MOL0     C16237   6.372   6.401   7.198  0.2687  0.4890  0.9139
  862MOL0     O16238   6.280   6.420   7.293 -0.4665 -0.5368  0.3527
  862MOL0     C16239   6.200   6.527   7.282 -0.0166  0.9915  0.6098
  862MOL0     C16240   6.062   6.519   7.255  0.6996 -1.4265  0.6612
  862MOL0     C16241   5.976   6.634   7.267 -0.2915 -0.0782  0.2322
  862MOL0     C16242   6.031   6.771   7.284  0.7775  0.4925  0.2940
  862MOL0     O16243   5.934   6.871   7.298 -0.0234  0.3997  0.3292
  862MOL0     C16244   6.002   6.994   7.327 -0.5436 -0.7034 -0.1328
  862MOL0     C16245   5.901   7.103   7.328 -0.2418 -0.7354 -0.0537
  862MOL0     C16246   5.916   7.226   7.418  0.0570 -0.4811  0.1148
  862MOL0     C16247   5.846   7.222   7.550  0.2359 -0.4659  0.6268
  862MOL0     C16248   5.867   7.327   7.649 -0.5888  0.6450  0.2186
  862MOL0     C16249   5.900   7.274   7.785  0.1434 -0.6971  0.2218
  862MOL0     C16250   5.860   7.374   7.902  0.0217 -0.5315  0.5221
  862MOL0     C16251   5.934   7.509   7.902  0.1538 -0.0423 -0.1167
  862MOL0     N16252   5.917   7.557   8.041 -0.0893  0.1216  1.0792
  862MOL0     C16253   5.836   7.659   8.079 -0.2434  0.0609 -0.3235
  862MOL0     C16254   5.854   7.668   8.209  0.3578 -0.0220  0.6507
  862MOL0     C16255   5.753   7.723   8.311 -0.2658 -0.8071  0.4986
  862MOL0     C16256   5.617   7.659   8.294  0.1291 -0.0712 -0.3326
  862MOL0     C16257   5.630   7.514   8.345  0.3293  0.0098  1.4279
  862MOL0     C16258   5.683   7.489   8.486 -0.0453 -0.5076  0.6742
  862MOL0     O16259   5.638   7.365   8.528  0.6416 -0.4361 -0.5579
  862MOL0     C16260   5.679   7.241   8.486  1.2452 -0.4670  0.2718
  862MOL0     C16261   5.782   7.214   8.401 -0.4143  0.0224  0.6871
  862MOL0     C16262   5.821   7.080   8.370 -0.0581  0.1976  0.4149
  862MOL0     C16263   5.759   6.977   8.442  0.8489 -0.2505  0.0982
  862MOL0     C16264   5.824   6.842   8.424 -0.0627 -0.4255  1.4878
  862MOL0     O16265   5.901   6.826   8.302 -0.1989 -0.2375 -0.0184
  862MOL0     C16266   5.970   6.716   8.283 -0.3050 -0.2778  1.3055
  862MOL0     C16267   5.922   6.621   8.183  1.2665 -0.4288 -0.0660
  862MOL0     C16268   5.990   6.512   8.156  1.0775 -0.6771  0.2944
  862MOL0     C16269   6.100   6.488   8.236  0.4179  0.4710  0.2804
  862MOL0     O16270   6.164   6.367   8.225  0.1031 -0.3901  0.1641
  862MOL0     C16271   6.304   6.363   8.246 -0.0198 -0.1995  0.1335
  862MOL0     C16272   6.387   6.295   8.127  0.3931  0.5519 -0.0357
  862MOL0     C16273   6.401   6.382   8.007 -1.2551 -0.5109 -0.3119
  862MOL0     C16274   6.497   6.334   7.895  0.6457 -0.2946  0.5307
  862MOL0     C16275   6.437   6.214   7.812 -0.0555 -0.0961 -0.1210
  862MOL0     C16276   6.291   6.227   7.784  1.2012  1.3086 -0.0376
  862MOL0     C16277   6.245   6.345   7.702  0.5013  0.4628 -0.4274
  862MOL0     C16278   6.088   6.357   7.701  0.4494 -0.2103  0.2445
  862MOL0    Cl16279   6.021   6.419   7.852  0.2180  0.0386  0.2159
  862MOL0     C16280   6.136   6.569   8.344 -0.7057 -0.2066 -0.2070
  862MOL0     C16281   6.074   6.688   8.360 -0.2488 -0.2115 -1.2834
  862MOL0     O16282   5.814   6.754   8.513 -0.0124 -0.0967  0.4529
  862MOL0     C16283   5.652   7.005   8.532  0.1903  1.1788  0.0648
  862MOL0     C16284   5.617   7.140   8.544  0.1232 -0.1520 -1.2718
  862MOL0     N16285   5.960   7.587   8.245  0.2478  0.1012  0.5946
  862MOL0     N16286   5.995   7.516   8.142  0.2005  0.4677 -0.5017
  862MOL0     C16287   6.167   6.772   7.311  0.0549  0.2593  0.1209
  862MOL0     C16288   6.248   6.655   7.309 -0.1395 -1.0225 -0.7682
  862MOL0     C16289   6.468   6.284   7.205 -0.1573  0.1363 -0.2379
  862MOL0     C16290   6.440   6.183   7.301  0.1692 -0.2254  0.4121
  862MOL0     C16291   6.532   6.078   7.330 -0.5165 -0.4819  0.3907
  862MOL0     C16292   6.639   6.062   7.251 -1.0611 -0.6527  0.3175
  862MOL0     O16293   6.722   5.952   7.262  0.2713 -0.6057 -0.3950
  862MOL0     C16294   6.854   5.947   7.196  0.5155  0.8125 -0.2619
  862MOL0     C16295   6.940   5.840   7.259  0.1847 -0.7860  0.5262
  862MOL0     C16296   7.082   5.896   7.259  1.2395  0.4624 -0.0348
  862MOL0     C16297   7.176   5.819   7.358  0.7313  0.7392  1.8140
  862MOL0     C16298   7.156   5.844   7.499 -0.0084 -0.0027 -0.1405
  862MOL0     C16299   7.140   5.863   7.620 -0.3908 -1.0286  0.0972
  862MOL0     C16300   6.660   6.151   7.142 -0.2171  0.3473  0.6712
  862MOL0     C16301   6.569   6.257   7.109 -0.0082  0.0750 -0.1656
  862MOL0     C16302   6.607   6.349   6.988  0.7156  0.3127 -0.8310
  862MOL0     H16303   6.020   6.426   7.217  1.0976 -1.7020  0.8797
  862MOL0     H16304   5.869   6.622   7.254 -0.2470 -1.4238  0.9484
  862MOL0     H16305   6.046   6.990   7.427  0.8815 -2.4559 -0.7562
  862MOL0     H16306   6.086   7.021   7.262  0.2566  0.1511  1.2046
  862MOL0     H16307   5.807   7.054   7.355 -0.9364  0.8509  0.5381
  862MOL0     H16308   5.890   7.156   7.233 -0.1842 -2.6578 -1.1793
  862MOL0     H16309   5.871   7.311   7.366 -0.5886 -1.3598 -0.7838
  862MOL0     H16310   6.017   7.259   7.445 -0.7317  0.3326  2.2878
  862MOL0     H16311   5.741   7.240   7.526  0.4492  1.9955  1.3595
  862MOL0     H16312   5.861   7.119   7.585 -2.1207 -0.2561  2.4975
  862MOL0     H16313   5.948   7.391   7.610  1.1214 -0.4715  1.7860
  862MOL0     H16314   5.770   7.377   7.659 -1.8528 -1.6815  0.2648
  862MOL0     H16315   5.850   7.178   7.802  1.3858 -1.3350  0.3974
  862MOL0     H16316   6.004   7.244   7.798  0.3293  0.2449  1.0296
  862MOL0     H16317   5.890   7.316   7.990 -0.6641  2.4763  2.9295
  862MOL0     H16318   5.753   7.396   7.904  0.0694 -0.0664 -0.7865
  862MOL0     H16319   6.040   7.491   7.878  0.5864  1.0230  0.9401
  862MOL0     H16320   5.894   7.580   7.829 -0.2319 -1.0161 -0.8713
  862MOL0     H16321   5.745   7.686   8.027 -0.3887  0.6276  0.2082
  862MOL0     H16322   5.793   7.720   8.412  1.9089 -2.3707 -0.3586
  862MOL0     H16323   5.741   7.828   8.280 -2.8814 -0.7642  1.3836
  862MOL0     H16324   5.545   7.716   8.353 -1.4550 -2.2179 -0.0496
  862MOL0     H16325   5.579   7.664   8.192  0.3032  2.2452 -0.3257
  862MOL0     H16326   5.703   7.459   8.285  0.5048 -0.0258  1.6710
  862MOL0     H16327   5.540   7.452   8.338  2.4918 -3.1913 -0.5930
  862MOL0     H16328   5.648   7.563   8.558  0.2910  0.6986 -0.3523
  862MOL0     H16329   5.792   7.503   8.480 -0.2128  0.3253 -1.0157
  862MOL0     H16330   5.827   7.298   8.350 -0.3342 -0.5391 -0.1904
  862MOL0     H16331   5.917   7.075   8.320  2.7187 -1.9912  5.2797
  862MOL0     H16332   5.826   6.631   8.133  1.7410 -0.5329 -1.0004
  862MOL0     H16333   5.936   6.442   8.092  1.5080  1.0560 -2.1278
  862MOL0     H16334   6.354   6.457   8.270 -0.1546  0.5370 -2.2800
  862MOL0     H16335   6.319   6.301   8.335 -0.4698  0.7109  0.8598
  862MOL0     H16336   6.487   6.285   8.171  0.8136 -1.1570 -1.2828
  862MOL0     H16337   6.350   6.197   8.097  0.5043 -0.4728  2.8530
  862MOL0     H16338   6.303   6.408   7.966 -0.6893  1.5635 -0.4323
  862MOL0     H16339   6.451   6.476   8.030  0.3527 -1.0662 -1.3604
  862MOL0     H16340   6.597   6.317   7.936  1.2080  1.8565  0.2010
  862MOL0     H16341   6.500   6.415   7.822 -0.9648  0.6152  1.4094
  862MOL0     H16342   6.444   6.130   7.882 -1.2315 -0.2056 -0.1135
  862MOL0     H16343   6.493   6.192   7.721  1.6179 -1.0326  1.0719
  862MOL0     H16344   6.241   6.148   7.728  0.6493  2.8469 -1.8192
  862MOL0     H16345   6.252   6.236   7.886  1.9165 -1.1660  0.5109
  862MOL0     H16346   6.267   6.327   7.597  0.6708 -2.7184  0.0524
  862MOL0     H16347   6.288   6.436   7.744  2.8684 -1.4830  1.7157
  862MOL0     H16348   6.065   6.422   7.616 -1.5960 -0.7970  0.3011
  862MOL0     H16349   6.048   6.256   7.685 -0.4206  0.0098  0.9706
  862MOL0     H16350   6.212   6.541   8.416 -1.2777  0.4740  0.6941
  862MOL0     H16351   6.085   6.770   8.430  3.6450  0.3860 -2.3677
  862MOL0     H16352   5.612   6.920   8.585  1.6107 -0.5667 -1.4956
  862MOL0     H16353   5.535   7.157   8.613  0.4809  2.8797 -1.4731
  862MOL0     H16354   6.219   6.864   7.336  1.8299 -0.5841 -0.2712
  862MOL0     H16355   6.350   6.658   7.346  0.3094 -2.6304 -1.7892
  862MOL0     H16356   6.353   6.197   7.365  0.7214 -1.8575  1.5857
  862MOL0     H16357   6.511   6.012   7.414  0.4183  1.4940  2.2870
  862MOL0     H16358   6.900   6.046   7.192  0.4341  0.8118 -1.3844
  862MOL0     H16359   6.831   5.913   7.095 -2.8090 -1.2335  1.0181
  862MOL0     H16360   6.938   5.742   7.209 -0.1888 -0.0906 -0.8770
  862MOL0     H16361   6.914   5.829   7.364  0.8702  2.0467  1.0645
  862MOL0     H16362   7.088   6.001   7.287 -7.2532  2.2020 -2.0568
  862MOL0     H16363   7.119   5.897   7.157 -0.1619 -1.3929 -0.6230
  862MOL0     H16364   7.169   5.712   7.338  1.4286  1.1341 -1.0817
  862MOL0     H16365   7.272   5.851   7.317 -1.3899  4.9021 -0.6834
  862MOL0     H16366   7.148   5.885   7.725  0.5934  2.3125 -0.5658
  862MOL0     H16367   6.743   6.139   7.072 -0.0721  2.6577  0.3754
  862MOL0     H16368   6.606   6.451   7.026 -0.0816  0.2684 -0.7176
  862MOL0     H16369   6.710   6.326   6.958  1.0346 -1.5011  1.3401
  862MOL0     H16370   6.532   6.323   6.913  0.1272 -3.3956  0.7911
  863MOL0     O16371   8.026  11.312  10.834 -0.6514 -0.5100 -0.1106
  863MOL0     C16372   7.969  11.339  10.941 -0.5121  0.3181  0.1393
  863MOL0     O16373   7.870  11.264  10.999  0.1056  0.7276 -0.0232
  863MOL0     C16374   7.780  11.214  10.911  0.8722  0.6588 -0.1819
  863MOL0     C16375   7.652  11.226  10.972 -0.7916 -0.8382  0.1294
  863MOL0     C16376   7.534  11.196  10.908  0.1188  0.5112  0.1036
  863MOL0     C16377   7.535  11.140  10.778 -0.4348  0.4042  0.7893
  863MOL0     O16378   7.427  11.108  10.707 -0.2543  0.1253  0.0723
  863MOL0     C16379   7.302  11.103  10.779  0.4637  1.3336 -0.0167
  863MOL0     C16380   7.225  10.970  10.740 -0.2268  0.2163  0.0424
  863MOL0     C16381   7.189  10.965  10.595  0.7519 -0.0492  0.0176
  863MOL0     C16382   7.113  10.835  10.577  0.8585 -0.5840  0.2117
  863MOL0     C16383   7.210  10.714  10.571  0.3563  0.4281 -0.1752
  863MOL0     C16384   7.134  10.588  10.634 -0.3957 -0.7356 -0.5918
  863MOL0     C16385   7.184  10.456  10.563 -0.3391  0.1892 -1.1907
  863MOL0     C16386   7.312  10.402  10.631 -0.4327  0.2243 -0.6197
  863MOL0     N16387   7.325  10.264  10.588 -0.4888  0.7169  0.4301
  863MOL0     C16388   7.300  10.214  10.455 -0.1733  0.4921  0.0869
  863MOL0     C16389   7.310  10.083  10.465  0.8983 -0.4994  0.5354
  863MOL0     C16390   7.283   9.981  10.351 -0.0020  0.2311  0.7080
  863MOL0     C16391   7.143   9.974  10.293  0.5834  0.0276 -0.1965
  863MOL0     C16392   7.067   9.887  10.407  0.2663 -0.1248 -0.8942
  863MOL0     C16393   6.916   9.828  10.385  0.0140 -0.4084  1.1432
  863MOL0     O16394   6.839   9.927  10.311 -0.9845  0.1283  0.4882
  863MOL0     C16395   6.716   9.889  10.272  0.2117 -0.0201  0.7963
  863MOL0     C16396   6.641   9.975  10.185  0.2075  0.5113 -0.1082
  863MOL0     C16397   6.513   9.932  10.134 -0.5341 -0.1643 -0.1679
  863MOL0     C16398   6.454   9.814  10.175  0.4078 -0.1905 -0.4980
  863MOL0     C16399   6.313   9.778  10.136 -0.6034 -0.4409 -0.1611
  863MOL0     O16400   6.242   9.688  10.206  0.0739  0.5317  0.4084
  863MOL0     C16401   6.109   9.670  10.211 -1.0326  0.3717 -0.5088
  863MOL0     C16402   6.004   9.755  10.172 -0.6245 -0.1495 -0.7819
  863MOL0     C16403   5.869   9.733  10.183  0.2464 -0.1979  1.0407
  863MOL0     C16404   5.831   9.614  10.234  0.3328  0.1098 -0.9682
  863MOL0     O16405   5.696   9.566  10.245 -0.0509  0.6913  0.6514
  863MOL0     C16406   5.604   9.628  10.154  1.0018  1.1785 -0.1765
  863MOL0     C16407   5.466   9.564  10.135  0.3649 -0.1718  0.1257
  863MOL0     C16408   5.354   9.666  10.165  0.8994  0.1189  0.5653
  863MOL0     C16409   5.217   9.620  10.122 -0.2615 -0.0040  0.6528
  863MOL0     C16410   5.100   9.704  10.138  0.3133 -0.0143 -0.1314
  863MOL0     C16411   5.093   9.777  10.277 -0.5862  1.3985  0.5285
  863MOL0     C16412   5.106   9.691  10.397 -0.2837  0.0645  1.0241
  863MOL0     C16413   4.983   9.603  10.408  0.6295 -0.0225  0.7805
  863MOL0    Cl16414   4.831   9.690  10.448  0.0932 -0.5894  0.0369
  863MOL0     C16415   5.937   9.523  10.272 -0.0032 -0.2783 -0.8098
  863MOL0     C16416   6.071   9.553  10.269  0.8066 -0.0885  0.1202
  863MOL0     O16417   6.267   9.850  10.050  0.0762  0.1738  0.5612
  863MOL0     C16418   6.534   9.728  10.249  0.4869  0.3205  0.5022
  863MOL0     C16419   6.653   9.761  10.295 -0.2765  0.6481  0.1916
  863MOL0     N16420   7.349  10.059  10.598 -0.4346 -0.3227  0.1197
  863MOL0     N16421   7.356  10.162  10.670 -0.3548 -0.4937 -0.9936
  863MOL0     C16422   7.654  11.153  10.711 -0.3872 -0.0666  0.1508
  863MOL0     C16423   7.781  11.186  10.773  1.1489 -1.0530 -0.2060
  863MOL0     C16424   8.037  11.443  11.037  0.4944 -0.0464  0.4086
  863MOL0     C16425   7.999  11.444  11.174 -0.2593  0.1519  0.3771
  863MOL0     C16426   8.066  11.523  11.264 -0.3360  1.3195 -0.4784
  863MOL0     C16427   8.171  11.608  11.232  0.0255 -1.2082 -0.0997
  863MOL0     O16428   8.226  11.704  11.321  0.1176 -0.0752  0.1174
  863MOL0     C16429   8.226  11.681  11.465  0.9921 -0.2453 -0.6859
  863MOL0     C16430   8.319  11.778  11.539 -0.7285 -0.2326  0.1359
  863MOL0     C16431   8.270  11.921  11.552  0.9688  0.4099 -0.1002
  863MOL0     C16432   8.361  12.019  11.623  0.0582 -0.2411  0.2516
  863MOL0     C16433   8.368  12.002  11.769  0.3087  0.0754  0.0943
  863MOL0     C16434   8.354  11.976  11.880 -0.4482  0.0267 -0.3838
  863MOL0     C16435   8.195  11.613  11.091 -0.3234  0.3661  0.1347
  863MOL0     C16436   8.137  11.534  10.991  0.8046 -0.9009  0.2344
  863MOL0     C16437   8.188  11.555  10.844  1.3633 -0.9689 -0.6660
  863MOL0     H16438   7.652  11.265  11.073 -1.2622  3.1500 -1.2296
  863MOL0     H16439   7.452  11.202  10.979  0.0648  0.3314  0.0569
  863MOL0     H16440   7.306  11.108  10.889 -0.8247  2.2799  0.0093
  863MOL0     H16441   7.237  11.187  10.753 -1.0801 -0.3188 -1.7187
  863MOL0     H16442   7.124  10.971  10.782 -3.5258 -0.0294 -6.5930
  863MOL0     H16443   7.285  10.890  10.784  0.0735  0.9158  0.9429
  863MOL0     H16444   7.275  10.985  10.531  0.8254  1.1092  0.4626
  863MOL0     H16445   7.122  11.051  10.586  2.5871  1.6260  1.4482
  863MOL0     H16446   7.053  10.807  10.664  2.1486 -1.5048  0.8386
  863MOL0     H16447   7.045  10.832  10.491 -1.9911 -4.0295  2.3227
  863MOL0     H16448   7.234  10.690  10.467 -0.5506 -2.5331  0.2253
  863MOL0     H16449   7.308  10.724  10.620  0.7379  1.0585 -1.0310
  863MOL0     H16450   7.138  10.590  10.743  2.0081 -2.7717 -0.5563
  863MOL0     H16451   7.029  10.602  10.606 -0.6548 -1.8069 -0.2259
  863MOL0     H16452   7.193  10.470  10.455  1.3167 -3.5026 -1.6790
  863MOL0     H16453   7.099  10.390  10.583 -0.7751  1.1298  0.2835
  863MOL0     H16454   7.402  10.460  10.608 -0.0768  0.1026  0.4195
  863MOL0     H16455   7.295  10.402  10.739 -1.2746 -5.0836 -0.5229
  863MOL0     H16456   7.254  10.260  10.368 -0.2568 -0.7630 -0.5499
  863MOL0     H16457   7.333  10.022  10.263  0.1273 -2.9694 -0.8686
  863MOL0     H16458   7.326   9.883  10.375 -0.5897 -0.6085 -1.3739
  863MOL0     H16459   7.101  10.073  10.273  1.3827  0.2655 -0.7323
  863MOL0     H16460   7.152   9.910  10.204 -1.8599  0.4251 -0.8097
  863MOL0     H16461   7.061   9.952  10.494  3.5942  0.0223 -0.6546
  863MOL0     H16462   7.121   9.798  10.441  0.1010  0.0019 -0.2764
  863MOL0     H16463   6.887   9.817  10.490  3.2603 -0.4502  2.1458
  863MOL0     H16464   6.913   9.734  10.328 -1.0639  0.2573  0.0642
  863MOL0     H16465   6.684  10.071  10.158  0.5597 -0.0135 -1.4900
  863MOL0     H16466   6.461  10.013  10.084 -0.3798 -1.2469 -2.1659
  863MOL0     H16467   6.023   9.854  10.132  4.3215 -0.9528 -1.1265
  863MOL0     H16468   5.815   9.821  10.149  2.2101  0.1534 -1.4912
  863MOL0     H16469   5.594   9.734  10.179  2.2355  1.4576 -0.7763
  863MOL0     H16470   5.653   9.621  10.056 -0.3186  0.8376 -0.8273
  863MOL0     H16471   5.466   9.514  10.038 -0.8356  1.6637 -0.9045
  863MOL0     H16472   5.455   9.479  10.203 -0.1724 -2.5339 -2.7321
  863MOL0     H16473   5.355   9.687  10.273  0.7729  3.8061 -0.0208
  863MOL0     H16474   5.373   9.760  10.113 -2.2469  0.8760  0.5831
  863MOL0     H16475   5.202   9.531  10.183 -0.6091 -0.7374 -0.4859
  863MOL0     H16476   5.226   9.596  10.015  0.7547  0.3386  0.6435
  863MOL0     H16477   5.005   9.652  10.122 -0.2414  1.6846 -3.3415
  863MOL0     H16478   5.115   9.774  10.055  0.3733 -0.0023 -0.1100
  863MOL0     H16479   5.178   9.844  10.287  1.4817 -0.7099 -1.4401
  863MOL0     H16480   5.001   9.835  10.281 -0.0443  2.4381 -1.0323
  863MOL0     H16481   5.125   9.755  10.484 -0.0246  0.1741  0.8871
  863MOL0     H16482   5.191   9.622  10.399 -1.9851 -2.2703 -0.9200
  863MOL0     H16483   4.972   9.536  10.322  2.5273  0.4888  0.0891
  863MOL0     H16484   5.015   9.542  10.493  1.9759  1.0790  1.1034
  863MOL0     H16485   5.904   9.422  10.297 -0.7702  0.1291 -0.1223
  863MOL0     H16486   6.145   9.478  10.298  0.4038  0.2685  2.1999
  863MOL0     H16487   6.494   9.631  10.273 -1.9089  1.3448  0.9410
  863MOL0     H16488   6.706   9.682  10.348  0.0603 -0.6367 -1.9463
  863MOL0     H16489   7.653  11.123  10.606  0.0555 -3.8332  1.0499
  863MOL0     H16490   7.877  11.172  10.724  0.3075 -0.8666 -2.0042
  863MOL0     H16491   7.923  11.382  11.220 -1.7602  3.2503  2.4529
  863MOL0     H16492   8.035  11.532  11.368  0.4440  3.0987 -0.3681
  863MOL0     H16493   8.266  11.581  11.483  1.7912  0.1938  0.0746
  863MOL0     H16494   8.122  11.692  11.498  0.3957 -1.5776 -2.0369
  863MOL0     H16495   8.412  11.771  11.482  0.1599  0.1910  1.5006
  863MOL0     H16496   8.329  11.737  11.640 -1.6806  1.3224  0.9008
  863MOL0     H16497   8.174  11.914  11.605  1.0635 -2.7691 -0.1181
  863MOL0     H16498   8.241  11.968  11.458 -0.9027 -0.3426  0.0490
  863MOL0     H16499   8.463  12.006  11.586 -0.2716  4.1716 -3.0535
  863MOL0     H16500   8.332  12.120  11.594 -3.5765 -0.6654  1.8098
  863MOL0     H16501   8.331  11.971  11.985  0.9188  1.3187  0.0194
  863MOL0     H16502   8.273  11.677  11.050  0.5901 -1.0575 -0.4161
  863MOL0     H16503   8.222  11.657  10.831 -2.6931  0.8330  1.0702
  863MOL0     H16504   8.264  11.483  10.811  0.5490 -1.2621 -1.9526
  863MOL0     H16505   8.097  11.555  10.783 -0.0042 -1.1524  1.2510
  864MOL0     O16506   5.298   7.710  10.187 -0.1545  0.2789 -0.1963
  864MOL0     C16507   5.409   7.673  10.196  0.8178 -0.3270  0.2897
  864MOL0     O16508   5.501   7.644  10.100 -0.0045 -1.2299  0.5736
  864MOL0     C16509   5.506   7.691   9.963  0.1086 -0.0165  0.4837
  864MOL0     C16510   5.434   7.800   9.908 -0.0185 -0.2293  0.2906
  864MOL0     C16511   5.448   7.837   9.782 -0.4609 -0.1939 -0.1765
  864MOL0     C16512   5.542   7.771   9.701 -0.3047  0.0300 -0.0786
  864MOL0     O16513   5.533   7.809   9.567  1.0370  0.2963  0.3763
  864MOL0     C16514   5.636   7.764   9.477 -0.2030 -0.1841  0.4400
  864MOL0     C16515   5.620   7.827   9.328 -0.5731  0.1689  0.1238
  864MOL0     C16516   5.486   7.786   9.275 -0.6564 -0.0195  0.1797
  864MOL0     C16517   5.497   7.671   9.176  0.3929 -0.4990  0.3107
  864MOL0     C16518   5.375   7.584   9.180  0.1248 -0.2359  2.2004
  864MOL0     C16519   5.405   7.467   9.087  0.0570  0.0474  0.3847
  864MOL0     C16520   5.293   7.357   9.118 -0.4287  0.8104  0.0432
  864MOL0     C16521   5.155   7.389   9.071  0.6828  0.5645 -0.8130
  864MOL0     N16522   5.064   7.274   9.086 -0.2917  0.1635  0.1701
  864MOL0     C16523   5.097   7.140   9.062 -0.0356 -0.3161  0.6508
  864MOL0     C16524   5.006   7.073   9.134 -0.5379 -0.0227  0.8829
  864MOL0     C16525   4.999   6.924   9.127  0.1107  1.1717  0.6336
  864MOL0     C16526   5.093   6.866   9.240  0.0134  0.3069 -0.5029
  864MOL0     C16527   5.031   6.731   9.285  0.2323  1.1140  0.5646
  864MOL0     C16528   4.989   6.635   9.173 -1.1165 -0.7083  0.4582
  864MOL0     O16529   5.106   6.586   9.104 -0.6974 -0.4925  0.4129
  864MOL0     C16530   5.093   6.503   8.995  0.4094 -0.1677 -1.1447
  864MOL0     C16531   4.969   6.456   8.954 -0.5532 -0.0469  0.4864
  864MOL0     C16532   4.978   6.358   8.848  1.5365 -0.0271  0.5127
  864MOL0     C16533   5.096   6.318   8.789  0.5660  0.3173 -0.2761
  864MOL0     C16534   5.085   6.218   8.673  0.3173 -0.5116  0.2983
  864MOL0     O16535   5.208   6.183   8.622 -0.6537 -0.0473 -0.0538
  864MOL0     C16536   5.213   6.130   8.489 -0.0261 -0.0751 -0.4286
  864MOL0     C16537   5.305   6.188   8.396 -0.2873  0.6432  0.9624
  864MOL0     C16538   5.326   6.126   8.266  0.6472  0.4286 -0.3812
  864MOL0     C16539   5.245   6.019   8.227 -0.0559  0.0415 -0.4519
  864MOL0     O16540   5.277   5.938   8.117 -0.4058  0.0183  0.8796
  864MOL0     C16541   5.378   5.980   8.023 -0.2877 -0.4733 -0.1237
  864MOL0     C16542   5.321   6.090   7.930  0.5081 -0.1830  0.4568
  864MOL0     C16543   5.448   6.128   7.847  0.4826  0.0185  0.1423
  864MOL0     C16544   5.411   6.224   7.736  1.0502 -0.8880  0.2931
  864MOL0     C16545   5.459   6.367   7.761  0.5132  0.7706 -0.5079
  864MOL0     C16546   5.403   6.457   7.646  0.2104 -0.1591  0.5153
  864MOL0     C16547   5.465   6.602   7.643 -0.5681 -0.2923 -0.2717
  864MOL0     C16548   5.587   6.618   7.565  0.6709 -0.8352  1.7307
  864MOL0    Cl16549   5.723   6.533   7.660 -0.2000 -0.0757  0.0666
  864MOL0     C16550   5.177   5.958   8.326  0.1944 -0.2349 -0.2583
  864MOL0     C16551   5.159   6.007   8.459  0.5004 -0.6701 -1.3470
  864MOL0     O16552   4.977   6.191   8.616 -0.4058  0.3259 -0.0414
  864MOL0     C16553   5.219   6.367   8.843 -1.0288  0.0965  0.2780
  864MOL0     C16554   5.215   6.458   8.947  0.5045 -0.4798  0.9669
  864MOL0     N16555   4.916   7.159   9.201  0.6382 -0.8353  0.5697
  864MOL0     N16556   4.947   7.277   9.148  0.3828 -1.1883 -1.3132
  864MOL0     C16557   5.613   7.658   9.749  0.2636 -0.5937 -0.6309
  864MOL0     C16558   5.592   7.614   9.880 -0.8745 -0.2695 -0.6367
  864MOL0     C16559   5.456   7.641  10.332 -0.0109  0.3002  1.1585
  864MOL0     C16560   5.566   7.556  10.341 -1.0559  0.9505 -0.3414
  864MOL0     C16561   5.628   7.524  10.471  0.2863 -0.6459  0.1456
  864MOL0     C16562   5.573   7.585  10.581 -0.2673 -0.0489 -0.4114
  864MOL0     O16563   5.632   7.582  10.706 -0.5729 -0.3172  0.1057
  864MOL0     C16564   5.753   7.515  10.728  0.2117  0.7093  0.1936
  864MOL0     C16565   5.793   7.546  10.866  0.5400  1.3149 -0.7211
  864MOL0     C16566   5.823   7.698  10.875  0.7906 -0.6126 -0.0217
  864MOL0     C16567   5.887   7.743  11.007 -0.5983 -0.3819 -0.1271
  864MOL0     C16568   6.029   7.698  11.012 -0.0401  0.6509 -0.4244
  864MOL0     C16569   6.148   7.670  11.026  1.1624 -0.0217  0.8800
  864MOL0     C16570   5.453   7.650  10.571  1.1002  0.3942 -1.1614
  864MOL0     C16571   5.391   7.678  10.452 -0.4431 -0.0528  0.0857
  864MOL0     C16572   5.265   7.759  10.459  1.0673  0.2059  0.4715
  864MOL0     H16573   5.360   7.860   9.959  0.0006 -0.3061  0.4091
  864MOL0     H16574   5.395   7.920   9.737 -0.6504 -0.8398 -1.1623
  864MOL0     H16575   5.735   7.794   9.514  3.2491 -6.3145 -2.3607
  864MOL0     H16576   5.636   7.655   9.468  2.4406 -0.1336 -1.5803
  864MOL0     H16577   5.702   7.783   9.271  1.1600  1.8098  1.2541
  864MOL0     H16578   5.641   7.934   9.323  1.3412 -0.0935  1.3842
  864MOL0     H16579   5.433   7.872   9.234  0.9666  0.7370 -0.4277
  864MOL0     H16580   5.422   7.747   9.355  1.0478  0.2993  1.7713
  864MOL0     H16581   5.518   7.713   9.077 -2.2361  1.4459  0.4804
  864MOL0     H16582   5.588   7.613   9.194 -0.3705 -2.3306 -1.3748
  864MOL0     H16583   5.344   7.557   9.281 -2.6771  1.3679  1.8583
  864MOL0     H16584   5.287   7.636   9.142  1.9302  2.3615  1.2838
  864MOL0     H16585   5.404   7.495   8.981 -2.3968  0.5875  0.4878
  864MOL0     H16586   5.500   7.420   9.113 -0.1144 -1.1737 -1.0332
  864MOL0     H16587   5.307   7.327   9.222  0.8033 -2.1138 -0.8552
  864MOL0     H16588   5.324   7.264   9.070  0.1026  1.1065 -0.1957
  864MOL0     H16589   5.113   7.470   9.132  0.6055 -1.3131  1.8005
  864MOL0     H16590   5.170   7.425   8.969 -1.1921  4.2850  0.0306
  864MOL0     H16591   5.180   7.110   8.998  0.7470  0.4747  1.2677
  864MOL0     H16592   4.895   6.892   9.140  0.6786 -1.6113 -0.9478
  864MOL0     H16593   5.029   6.873   9.035 -1.7515  4.0650 -1.7897
  864MOL0     H16594   5.196   6.857   9.204  0.5043 -2.3323  1.2925
  864MOL0     H16595   5.085   6.935   9.325  0.8979 -0.8824  0.5963
  864MOL0     H16596   4.929   6.749   9.322 -1.9032 -1.4468 -3.3881
  864MOL0     H16597   5.082   6.666   9.357 -0.7417 -1.4591 -0.9607
  864MOL0     H16598   4.920   6.688   9.107 -0.1531  3.2366  2.2798
  864MOL0     H16599   4.926   6.553   9.210 -2.7671 -0.6622 -2.0284
  864MOL0     H16600   4.868   6.479   8.985 -0.3084  0.2082  1.1083
  864MOL0     H16601   4.882   6.318   8.818  1.3004  2.1438 -1.9568
  864MOL0     H16602   5.363   6.276   8.423 -0.9081  2.6420 -3.3677
  864MOL0     H16603   5.404   6.165   8.202  2.6837 -2.4749  0.1271
  864MOL0     H16604   5.472   6.012   8.069  0.7753  1.8900 -3.5297
  864MOL0     H16605   5.407   5.901   7.952  0.4747 -0.6106  0.3241
  864MOL0     H16606   5.246   6.041   7.867  2.5077  0.7670 -2.9196
  864MOL0     H16607   5.289   6.175   7.992  1.2371  0.1014  0.4495
  864MOL0     H16608   5.524   6.173   7.911 -1.3103  0.2039  2.2542
  864MOL0     H16609   5.486   6.038   7.799  1.6573  0.8070 -0.4582
  864MOL0     H16610   5.305   6.222   7.708  1.5877 -0.1475 -2.0071
  864MOL0     H16611   5.458   6.194   7.642 -0.1628  0.5195 -0.8145
  864MOL0     H16612   5.568   6.361   7.765  0.4484 -1.2518 -0.7908
  864MOL0     H16613   5.425   6.394   7.862 -0.8212 -1.0078 -0.4342
  864MOL0     H16614   5.416   6.413   7.547  0.3998 -1.4003  1.0676
  864MOL0     H16615   5.299   6.462   7.679  0.2324  1.4666  0.4127
  864MOL0     H16616   5.482   6.639   7.745  0.6224  3.8358 -1.7880
  864MOL0     H16617   5.384   6.656   7.594 -2.0376 -1.6951  0.4880
  864MOL0     H16618   5.566   6.582   7.464 -4.4181  0.2331  2.1591
  864MOL0     H16619   5.612   6.724   7.560  1.9740 -1.1719 -0.3188
  864MOL0     H16620   5.129   5.862   8.309 -1.9590  1.1122 -2.3215
  864MOL0     H16621   5.096   5.954   8.530  0.5475 -1.0055 -1.5564
  864MOL0     H16622   5.313   6.335   8.801 -2.2594 -0.3784 -2.2848
  864MOL0     H16623   5.308   6.491   8.992 -0.3460 -1.3643  3.5642
  864MOL0     H16624   5.680   7.603   9.685  2.9046  0.5970  0.9324
  864MOL0     H16625   5.639   7.528   9.927 -3.5677 -0.4221  2.0755
  864MOL0     H16626   5.617   7.508  10.258  0.7434  2.0141  0.1015
  864MOL0     H16627   5.716   7.462  10.483  1.7723  1.6048  1.5265
  864MOL0     H16628   5.821   7.557  10.654  1.2346  1.3357  1.4569
  864MOL0     H16629   5.749   7.406  10.717 -0.1663  0.5077  1.9939
  864MOL0     H16630   5.883   7.491  10.894 -0.5587 -0.0625  0.1995
  864MOL0     H16631   5.721   7.517  10.942 -0.5833  2.4549 -1.3122
  864MOL0     H16632   5.731   7.755  10.863  0.6677 -0.9135 -0.5318
  864MOL0     H16633   5.889   7.726  10.792 -0.8773  1.7150 -0.6806
  864MOL0     H16634   5.882   7.851  11.022  1.9607 -0.4167  1.5560
  864MOL0     H16635   5.837   7.698  11.093  1.3750 -0.0796  1.2538
  864MOL0     H16636   6.255   7.662  11.014  1.3675 -1.7962  3.2407
  864MOL0     H16637   5.410   7.688  10.664 -1.8022 -2.4895 -1.1500
  864MOL0     H16638   5.184   7.699  10.416  1.5542 -1.2203  1.4372
  864MOL0     H16639   5.224   7.776  10.559  0.8065  2.0969  0.0736
  864MOL0     H16640   5.285   7.856  10.413 -4.5015  1.1426 -0.6903
  865MOL0     O16641   0.192   4.491   8.466 -0.3576  0.9142 -0.1233
  865MOL0     C16642   0.116   4.422   8.523  0.0560  0.2211  0.3911
  865MOL0     O16643  -0.017   4.449   8.531  0.0717 -0.0406  0.3114
  865MOL0     C16644  -0.055   4.575   8.516  0.2137 -1.7292  0.1971
  865MOL0     C16645  -0.071   4.662   8.624 -0.1087  1.0098 -0.4806
  865MOL0     C16646  -0.110   4.798   8.603  0.4034  0.8151 -0.3725
  865MOL0     C16647  -0.119   4.853   8.474  0.5434  0.8000  0.1871
  865MOL0     O16648  -0.144   4.985   8.442 -0.4603  0.2518 -0.2013
  865MOL0     C16649  -0.053   5.081   8.492 -0.5496  0.8525 -0.9401
  865MOL0     C16650  -0.072   5.208   8.422  0.1035 -0.6761  0.2927
  865MOL0     C16651   0.024   5.322   8.466 -0.0671  0.0504 -0.2890
  865MOL0     C16652   0.172   5.301   8.431 -0.3960 -0.4332  0.1244
  865MOL0     C16653   0.237   5.443   8.453 -0.4604  0.5206 -0.5984
  865MOL0     C16654   0.386   5.442   8.438  0.1220  0.4519 -0.5117
  865MOL0     C16655   0.468   5.576   8.472  0.1066 -0.1307  0.2930
  865MOL0     C16656   0.591   5.607   8.390 -0.1981 -0.1633 -0.4169
  865MOL0     N16657   0.705   5.513   8.425  0.4633  0.4673  0.6061
  865MOL0     C16658   0.705   5.377   8.418 -0.1100 -0.0332 -0.7994
  865MOL0     C16659   0.827   5.345   8.467 -0.3134  0.0337 -0.1296
  865MOL0     C16660   0.884   5.204   8.461  0.8482 -0.7353 -0.0820
  865MOL0     C16661   0.929   5.144   8.329 -0.6675 -0.0084  0.2570
  865MOL0     C16662   0.983   5.001   8.339  0.3524 -0.3896 -0.4009
  865MOL0     C16663   0.882   4.895   8.327  0.0002 -0.3275 -0.0237
  865MOL0     O16664   0.941   4.758   8.330 -0.3370  0.7167  0.4885
  865MOL0     C16665   0.875   4.650   8.276 -1.6101 -0.7453  0.9531
  865MOL0     C16666   0.940   4.527   8.275  0.1324  0.1922 -0.5977
  865MOL0     C16667   0.891   4.414   8.210 -0.0917  1.0112 -0.0937
  865MOL0     C16668   0.778   4.423   8.132  0.2191  0.8023 -0.3919
  865MOL0     C16669   0.707   4.309   8.060 -0.6849 -0.1577 -0.4666
  865MOL0     O16670   0.754   4.180   8.095  0.4022  0.3081 -0.3538
  865MOL0     C16671   0.707   4.064   8.051 -0.0835 -0.6951 -0.8669
  865MOL0     C16672   0.622   3.982   8.125  0.2988 -0.3650  1.3362
  865MOL0     C16673   0.578   3.859   8.077 -0.7263 -0.5369  0.0662
  865MOL0     C16674   0.618   3.822   7.941 -0.1916 -0.6632 -1.2731
  865MOL0     O16675   0.568   3.703   7.906  0.0821 -0.1250 -0.0288
  865MOL0     C16676   0.610   3.632   7.785 -0.0362  0.0294  0.1930
  865MOL0     C16677   0.493   3.536   7.750 -0.4652 -0.2351 -0.4322
  865MOL0     C16678   0.367   3.616   7.697  0.2605  0.4266 -0.0515
  865MOL0     C16679   0.252   3.523   7.661 -0.3374  0.4533  0.4069
  865MOL0     C16680   0.140   3.618   7.603 -0.3574  0.0273  0.3376
  865MOL0     C16681   0.005   3.544   7.567 -0.4032  0.2591 -0.7720
  865MOL0     C16682   0.024   3.438   7.448 -0.0465 -0.5646 -0.1764
  865MOL0     C16683  -0.117   3.383   7.432  0.1116 -0.0295  0.0468
  865MOL0    Cl16684  -0.120   3.249   7.320 -0.0917 -0.0370  0.2103
  865MOL0     C16685   0.716   3.892   7.875  0.3746 -0.1286 -0.2409
  865MOL0     C16686   0.764   4.014   7.930 -0.0372 -0.8385 -0.3165
  865MOL0     O16687   0.601   4.324   7.996 -0.0406  0.2639 -0.1555
  865MOL0     C16688   0.711   4.557   8.136 -0.5028  0.4528 -0.2189
  865MOL0     C16689   0.755   4.663   8.213 -1.1185 -0.1367 -0.1890
  865MOL0     N16690   0.900   5.453   8.488  0.1944 -0.0474  0.7219
  865MOL0     N16691   0.824   5.549   8.476 -0.1153  0.0843 -0.3387
  865MOL0     C16692  -0.097   4.761   8.368 -1.0847  0.2554  0.0856
  865MOL0     C16693  -0.070   4.622   8.380  0.0851 -0.1483 -0.2164
  865MOL0     C16694   0.178   4.287   8.553  0.2134 -0.2597  1.0551
  865MOL0     C16695   0.259   4.223   8.459 -0.4012 -0.0162  0.0917
  865MOL0     C16696   0.313   4.093   8.483  0.0862 -0.6430  0.9687
  865MOL0     C16697   0.281   4.027   8.601  1.3819  0.2746 -0.5483
  865MOL0     O16698   0.297   3.888   8.615  0.4957  0.0000 -0.3422
  865MOL0     C16699   0.188   3.811   8.640 -0.4181 -0.2847  0.4268
  865MOL0     C16700   0.203   3.668   8.610  0.2924  0.2219  0.0022
  865MOL0     C16701   0.142   3.627   8.476 -0.4860  0.6112  0.4082
  865MOL0     C16702   0.208   3.489   8.419  0.2453  0.4754 -0.5054
  865MOL0     C16703   0.154   3.375   8.495  0.3423  0.3827  0.1838
  865MOL0     C16704   0.096   3.291   8.554 -0.5328 -0.9830 -0.9047
  865MOL0     C16705   0.213   4.103   8.696  0.4598 -0.2741  0.3748
  865MOL0     C16706   0.154   4.228   8.674 -0.2621 -0.2184  1.2785
  865MOL0     C16707   0.055   4.280   8.780 -0.0852  0.1979  0.2489
  865MOL0     H16708  -0.050   4.614   8.719 -2.4364  0.6923 -0.0565
  865MOL0     H16709  -0.115   4.868   8.685 -0.9199 -0.9841  1.1818
  865MOL0     H16710  -0.079   5.096   8.597 -2.9321 -2.9940 -0.7708
  865MOL0     H16711   0.050   5.044   8.484 -1.4384 -2.5769  1.0794
  865MOL0     H16712  -0.173   5.249   8.433 -0.3077 -1.0569 -1.6759
  865MOL0     H16713  -0.045   5.190   8.317  0.0888  3.2240 -0.5148
  865MOL0     H16714   0.009   5.331   8.574 -2.3490 -0.3291 -0.5350
  865MOL0     H16715  -0.022   5.411   8.422  2.2349  1.0983 -0.7694
  865MOL0     H16716   0.231   5.228   8.486 -1.5080 -0.8295  0.8168
  865MOL0     H16717   0.181   5.271   8.326  1.0303  1.7075 -0.4255
  865MOL0     H16718   0.196   5.509   8.375 -2.6994  2.5654  2.0806
  865MOL0     H16719   0.210   5.480   8.553  0.7876 -0.8990  0.3074
  865MOL0     H16720   0.429   5.360   8.496 -0.3007 -1.3400 -2.6003
  865MOL0     H16721   0.401   5.400   8.338 -0.3429  3.4180 -1.9469
  865MOL0     H16722   0.510   5.577   8.573  0.1176  0.0234  0.2860
  865MOL0     H16723   0.396   5.657   8.486 -0.6319 -0.1950 -2.5658
  865MOL0     H16724   0.572   5.607   8.283  0.8285 -4.0218 -0.7741
  865MOL0     H16725   0.631   5.707   8.406  3.0363 -1.4823  0.6003
  865MOL0     H16726   0.631   5.307   8.381  1.8669 -2.0754 -1.1326
  865MOL0     H16727   0.971   5.213   8.527 -0.0342  5.3784  0.7710
  865MOL0     H16728   0.809   5.139   8.508 -0.4985  1.4843  0.9655
  865MOL0     H16729   0.846   5.141   8.258  0.9412 -4.0808 -1.8094
  865MOL0     H16730   1.017   5.204   8.305 -0.6198  0.7595  2.2064
  865MOL0     H16731   1.040   4.986   8.431  2.8743  3.2014 -1.2213
  865MOL0     H16732   1.052   4.977   8.258  1.0753 -3.3785  0.9320
  865MOL0     H16733   0.823   4.911   8.236 -2.3458 -1.0671  1.2731
  865MOL0     H16734   0.811   4.899   8.410  0.5517  0.2323  0.4261
  865MOL0     H16735   1.038   4.519   8.321 -0.6582  0.1414  1.1720
  865MOL0     H16736   0.933   4.315   8.228 -4.1504 -0.7560  0.8128
  865MOL0     H16737   0.577   4.010   8.220 -2.3627 -4.5739  1.5825
  865MOL0     H16738   0.506   3.806   8.139 -2.1796 -3.0531 -3.4728
  865MOL0     H16739   0.640   3.694   7.700  2.7215 -3.6642 -1.8553
  865MOL0     H16740   0.702   3.573   7.795  1.8753  1.8049 -4.3022
  865MOL0     H16741   0.536   3.486   7.663  0.3839  1.3460 -0.9629
  865MOL0     H16742   0.480   3.452   7.820 -0.7715 -0.7973 -1.1505
  865MOL0     H16743   0.337   3.690   7.772  0.3110 -1.2566  1.7039
  865MOL0     H16744   0.383   3.673   7.605  1.0300 -1.4462 -1.1405
  865MOL0     H16745   0.221   3.458   7.743  1.1328 -2.5078 -1.2508
  865MOL0     H16746   0.288   3.458   7.581  1.2001  0.5831  0.9684
  865MOL0     H16747   0.168   3.669   7.510 -2.3966  0.4955 -0.0717
  865MOL0     H16748   0.111   3.690   7.679 -0.8973  0.3923 -0.2040
  865MOL0     H16749  -0.028   3.499   7.661  2.1795  0.2547  0.2157
  865MOL0     H16750  -0.061   3.628   7.547  0.9105  1.8445  1.1597
  865MOL0     H16751   0.094   3.355   7.463  0.2822 -0.0853  1.0266
  865MOL0     H16752   0.068   3.484   7.359  1.5995 -1.8444 -0.0691
  865MOL0     H16753  -0.154   3.352   7.530 -1.5367 -1.5976 -1.0008
  865MOL0     H16754  -0.188   3.457   7.393  0.3191 -0.9141 -2.1319
  865MOL0     H16755   0.782   3.852   7.799  3.5537 -0.1239  2.2833
  865MOL0     H16756   0.830   4.078   7.872  0.0185 -2.7013 -2.4502
  865MOL0     H16757   0.630   4.572   8.065  0.9650  3.9935 -1.4063
  865MOL0     H16758   0.696   4.753   8.200 -2.6237 -1.4164 -3.0111
  865MOL0     H16759  -0.107   4.807   8.270 -3.7347  0.5134  0.3868
  865MOL0     H16760  -0.054   4.545   8.305  1.8351  0.4900 -0.5531
  865MOL0     H16761   0.282   4.265   8.362  0.5345  0.8164  0.6469
  865MOL0     H16762   0.378   4.035   8.419 -0.0925 -1.6554  1.6767
  865MOL0     H16763   0.100   3.853   8.592 -0.4767 -0.3565  0.4720
  865MOL0     H16764   0.178   3.827   8.748  0.9148  4.3455  0.1144
  865MOL0     H16765   0.157   3.615   8.694 -0.9482  0.8113 -0.2857
  865MOL0     H16766   0.309   3.640   8.603  0.7429  0.9106  2.6857
  865MOL0     H16767   0.175   3.705   8.407 -0.7112  0.9970  0.7334
  865MOL0     H16768   0.033   3.621   8.476 -0.5796  1.7953 -1.1618
  865MOL0     H16769   0.190   3.470   8.313 -0.5708  0.6487 -0.4021
  865MOL0     H16770   0.317   3.485   8.428  0.2217 -0.1672 -0.4473
  865MOL0     H16771   0.046   3.215   8.611 -2.6086  1.0414  0.1287
  865MOL0     H16772   0.204   4.042   8.786  1.0514 -1.0931 -0.0966
  865MOL0     H16773  -0.012   4.193   8.782 -0.5410  0.5410  0.0096
  865MOL0     H16774   0.103   4.298   8.876 -1.2323 -1.8388  1.2621
  865MOL0     H16775   0.000   4.374   8.768 -1.5349 -0.0087  4.0375
  866MOL0     O16776   0.940   0.392   3.007  0.0088  0.9572 -0.3030
  866MOL0     C16777   0.860   0.477   2.972  1.5881  0.4684 -0.0874
  866MOL0     O16778   0.800   0.491   2.849 -0.4329 -0.2273  0.0841
  866MOL0     C16779   0.807   0.393   2.751 -1.1985 -0.1678 -0.6449
  866MOL0     C16780   0.806   0.258   2.791  0.7622  1.3041 -0.1209
  866MOL0     C16781   0.825   0.160   2.701  0.0287  0.2429  0.3862
  866MOL0     C16782   0.837   0.194   2.564  0.9322  0.0862 -0.0229
  866MOL0     O16783   0.862   0.102   2.463 -0.3104 -0.2174 -0.0086
  866MOL0     C16784   0.950  -0.002   2.503  0.6743  0.4576 -0.3186
  866MOL0     C16785   1.032  -0.054   2.381  0.2405 -1.1190 -0.1578
  866MOL0     C16786   1.125  -0.177   2.428 -1.1885 -0.7528  0.5904
  866MOL0     C16787   1.219  -0.219   2.313 -0.5116 -0.1420  0.2331
  866MOL0     C16788   1.334  -0.317   2.347 -0.2825 -0.7417  0.0070
  866MOL0     C16789   1.404  -0.360   2.214 -0.1463  0.7874  1.4196
  866MOL0     C16790   1.525  -0.264   2.178 -1.2721  0.1574  0.2271
  866MOL0     C16791   1.665  -0.324   2.198  0.6742 -1.2020 -1.2038
  866MOL0     N16792   1.698  -0.323   2.342 -0.6512 -0.3309 -0.7655
  866MOL0     C16793   1.665  -0.221   2.439  0.5866 -0.1323 -0.0431
  866MOL0     C16794   1.670  -0.283   2.556  0.1706  0.0974  0.6537
  866MOL0     C16795   1.634  -0.235   2.684  0.2371 -0.6032  0.4383
  866MOL0     C16796   1.765  -0.197   2.754  0.0186 -0.6352  0.3325
  866MOL0     C16797   1.722  -0.122   2.891  0.1652 -0.0150  0.0458
  866MOL0     C16798   1.843  -0.124   2.988  0.0727  0.5598 -0.7832
  866MOL0     O16799   1.917  -0.010   2.967 -0.7659 -0.4357  0.7343
  866MOL0     C16800   1.886   0.117   3.003 -0.4175 -0.4556 -0.0345
  866MOL0     C16801   1.770   0.143   3.082 -0.1415 -0.1609 -0.5805
  866MOL0     C16802   1.735   0.271   3.125  0.9716  0.1247  0.1644
  866MOL0     C16803   1.816   0.376   3.085 -0.1578 -0.2622 -0.2568
  866MOL0     C16804   1.784   0.516   3.130 -0.1598  0.9205  0.9680
  866MOL0     O16805   1.663   0.546   3.183 -0.2456 -0.8957  0.8047
  866MOL0     C16806   1.619   0.677   3.217 -1.1538 -0.0366 -0.2226
  866MOL0     C16807   1.480   0.696   3.221  0.0537 -0.9898 -0.1551
  866MOL0     C16808   1.419   0.817   3.248  0.5349 -0.5718  0.7496
  866MOL0     C16809   1.495   0.927   3.280  0.4280  0.6401 -0.7498
  866MOL0     O16810   1.443   1.048   3.313  0.2664 -0.9952 -0.0340
  866MOL0     C16811   1.365   1.043   3.441  0.3753 -0.7960  0.7803
  866MOL0     C16812   1.251   1.146   3.447  0.3574 -0.6026 -0.6624
  866MOL0     C16813   1.301   1.290   3.416 -0.3698 -0.4460 -0.3713
  866MOL0     C16814   1.184   1.387   3.436  0.3150 -0.8542 -0.2642
  866MOL0     C16815   1.225   1.530   3.406 -0.2559  0.9935  0.6801
  866MOL0     C16816   1.141   1.647   3.451  1.5121 -0.6830  1.1139
  866MOL0     C16817   0.984   1.632   3.433 -1.0239  0.9984  0.0864
  866MOL0     C16818   0.917   1.764   3.485  0.7822  0.3445 -0.7457
  866MOL0    Cl16819   0.923   1.919   3.412  0.6726 -0.3475  0.1101
  866MOL0     C16820   1.635   0.904   3.274  0.1384 -0.8666  0.2521
  866MOL0     C16821   1.699   0.787   3.233 -1.0660 -0.2992 -0.2577
  866MOL0     O16822   1.880   0.592   3.107  0.8041 -0.0851 -0.7166
  866MOL0     C16823   1.928   0.347   3.005  0.8806  0.2345  0.1932
  866MOL0     C16824   1.965   0.219   2.964 -0.6733 -0.0173 -0.3147
  866MOL0     N16825   1.714  -0.413   2.537 -0.1714  0.2651  0.1416
  866MOL0     N16826   1.723  -0.438   2.417  0.4814  0.2591  0.5926
  866MOL0     C16827   0.840   0.331   2.530 -0.3743 -0.0584 -0.1625
  866MOL0     C16828   0.826   0.434   2.625  0.5098 -0.0623 -0.0831
  866MOL0     C16829   0.795   0.537   3.090 -0.5921  1.2192  1.3310
  866MOL0     C16830   0.715   0.454   3.159  0.2777  0.0429 -0.5001
  866MOL0     C16831   0.663   0.500   3.287  0.1271  0.4318  0.0381
  866MOL0     C16832   0.706   0.629   3.331 -1.1916 -0.1943  0.2284
  866MOL0     O16833   0.686   0.679   3.461 -0.2997  0.5273 -0.3483
  866MOL0     C16834   0.798   0.656   3.545 -0.4613 -0.8781  0.1031
  866MOL0     C16835   0.748   0.620   3.677  0.5016  0.5058 -0.5983
  866MOL0     C16836   0.847   0.578   3.779 -0.6520  0.4285  0.6518
  866MOL0     C16837   0.883   0.424   3.766  0.3446 -0.0784 -1.1831
  866MOL0     C16838   0.994   0.383   3.853  0.5147 -0.2710  0.4581
  866MOL0     C16839   1.079   0.332   3.926  0.8518  0.0495  0.6696
  866MOL0     C16840   0.794   0.706   3.250  0.2041  0.8341  0.5491
  866MOL0     C16841   0.845   0.659   3.136  0.2366  1.0354  0.8175
  866MOL0     C16842   0.960   0.734   3.065  0.5043  0.8415  0.7118
  866MOL0     H16843   0.778   0.228   2.891  2.2425  2.5182  0.7004
  866MOL0     H16844   0.816   0.057   2.734  3.2313  0.5395  2.6336
  866MOL0     H16845   1.019   0.030   2.582 -1.2904 -1.5601  2.3923
  866MOL0     H16846   0.889  -0.086   2.538  1.1861 -0.9390 -2.5662
  866MOL0     H16847   1.110   0.021   2.365  2.5153 -2.6109  2.8439
  866MOL0     H16848   0.969  -0.086   2.298 -1.9055 -0.5294  1.1596
  866MOL0     H16849   1.064  -0.259   2.466 -2.8560 -1.6547 -3.4934
  866MOL0     H16850   1.190  -0.136   2.505  0.8811  2.0752 -2.3929
  866MOL0     H16851   1.165  -0.271   2.233  0.7919 -1.2390  0.0325
  866MOL0     H16852   1.262  -0.135   2.258  2.5162 -3.0473 -2.2841
  866MOL0     H16853   1.404  -0.256   2.405  1.0634  0.3498 -2.5991
  866MOL0     H16854   1.285  -0.395   2.406 -1.3479  1.6322  2.4447
  866MOL0     H16855   1.432  -0.463   2.236  4.0842  0.8745 -2.2216
  866MOL0     H16856   1.337  -0.381   2.130  1.1620  2.6607 -0.1730
  866MOL0     H16857   1.510  -0.163   2.218 -1.8932  1.2075 -2.4323
  866MOL0     H16858   1.501  -0.251   2.072 -0.0897 -4.1043 -0.7541
  866MOL0     H16859   1.666  -0.422   2.151 -4.1472 -1.8153 -0.4878
  866MOL0     H16860   1.743  -0.266   2.147  0.1447  1.5603  0.8809
  866MOL0     H16861   1.635  -0.117   2.427 -0.9013 -0.3587  1.3997
  866MOL0     H16862   1.567  -0.148   2.683  1.4334  0.3669  0.7292
  866MOL0     H16863   1.586  -0.316   2.740 -1.1191 -2.0150 -2.5808
  866MOL0     H16864   1.825  -0.287   2.770  0.7870 -0.2109 -0.1336
  866MOL0     H16865   1.821  -0.120   2.701 -0.6872 -0.7025 -0.5215
  866MOL0     H16866   1.638  -0.179   2.934  0.9181 -0.0486  1.5352
  866MOL0     H16867   1.689  -0.020   2.871  1.9468  0.7602  0.8416
  866MOL0     H16868   1.900  -0.217   2.982  1.0830  1.1555 -0.6151
  866MOL0     H16869   1.809  -0.135   3.091 -1.4193 -0.0983 -1.3152
  866MOL0     H16870   1.702   0.071   3.126 -0.1955 -0.5494 -1.2891
  866MOL0     H16871   1.647   0.277   3.189  1.1009 -1.0907  0.4746
  866MOL0     H16872   1.424   0.609   3.187  2.1961 -1.0099 -4.3371
  866MOL0     H16873   1.311   0.818   3.234  0.9306  0.2286 -3.1606
  866MOL0     H16874   1.317   0.946   3.458  0.2688 -0.6519  1.3120
  866MOL0     H16875   1.430   1.063   3.527  1.6706 -0.1529 -0.2920
  866MOL0     H16876   1.164   1.128   3.383 -1.4367  1.6290  0.9913
  866MOL0     H16877   1.211   1.137   3.548 -2.2328 -0.6283 -1.6134
  866MOL0     H16878   1.375   1.308   3.494 -2.7187 -0.2658  1.9914
  866MOL0     H16879   1.346   1.286   3.317 -0.0521 -1.4548 -0.2029
  866MOL0     H16880   1.151   1.372   3.539 -0.1942  0.5680 -0.1952
  866MOL0     H16881   1.100   1.353   3.374  2.2437 -2.8221 -1.9547
  866MOL0     H16882   1.241   1.535   3.298 -0.7387  0.9755  0.6072
  866MOL0     H16883   1.316   1.545   3.464 -2.0567  2.9422  3.2335
  866MOL0     H16884   1.153   1.658   3.559 -0.8692  1.9462  1.2067
  866MOL0     H16885   1.179   1.729   3.391  2.0582 -0.0690  2.2847
  866MOL0     H16886   0.949   1.541   3.483 -2.2807  1.4196 -0.0022
  866MOL0     H16887   0.954   1.609   3.330 -1.0031 -0.0109  0.2895
  866MOL0     H16888   0.809   1.744   3.482  0.7966 -0.4953  1.6343
  866MOL0     H16889   0.959   1.780   3.585  2.2964  2.5577 -1.6743
  866MOL0     H16890   1.694   0.995   3.287 -1.2325  0.4420 -1.9817
  866MOL0     H16891   1.807   0.792   3.232 -1.0189  0.0806 -3.4823
  866MOL0     H16892   1.992   0.426   2.967 -1.3455  1.6786 -0.7941
  866MOL0     H16893   2.055   0.195   2.910  1.5747  2.9181  1.7823
  866MOL0     H16894   0.849   0.360   2.425  0.2608  2.2823  0.4856
  866MOL0     H16895   0.831   0.538   2.594 -1.5778 -0.2889 -1.3453
  866MOL0     H16896   0.666   0.366   3.120 -3.2058  1.3719  0.4612
  866MOL0     H16897   0.604   0.427   3.341 -0.0875  0.3882 -0.2530
  866MOL0     H16898   0.848   0.752   3.560 -2.7099  0.2555  0.8412
  866MOL0     H16899   0.880   0.597   3.503  1.3602  1.3071  0.3820
  866MOL0     H16900   0.676   0.539   3.657 -0.2450  0.1301  2.9510
  866MOL0     H16901   0.706   0.705   3.731  1.6026 -0.2468  1.5475
  866MOL0     H16902   0.812   0.595   3.881 -1.4294 -1.4141  0.7127
  866MOL0     H16903   0.934   0.637   3.748  0.4135 -1.8691 -1.0167
  866MOL0     H16904   0.795   0.366   3.795  1.8668 -0.7251  2.8047
  866MOL0     H16905   0.911   0.390   3.666  0.9727 -3.5104  0.0325
  866MOL0     H16906   1.154   0.280   3.983  3.0022  1.3076 -0.8467
  866MOL0     H16907   0.815   0.808   3.283 -1.2666  0.5268  2.5808
  866MOL0     H16908   1.056   0.717   3.115  0.9522  1.0706 -0.0539
  866MOL0     H16909   0.996   0.699   2.967  1.7291  2.0258  0.7138
  866MOL0     H16910   0.933   0.839   3.051 -1.5887  0.5176  1.9416
  867MOL0     O16911  10.035   1.408  10.393  0.2721  0.3933 -0.6247
  867MOL0     C16912  10.058   1.456  10.279 -0.6051 -0.5949 -0.2492
  867MOL0     O16913  10.059   1.588  10.246  0.3526  0.1378 -0.3439
  867MOL0     C16914  10.025   1.686  10.335  0.0518 -0.8600  0.4901
  867MOL0     C16915   9.914   1.764  10.309 -1.3144 -1.4221  0.4267
  867MOL0     C16916   9.886   1.880  10.384  0.0241  0.2874 -0.2174
  867MOL0     C16917   9.967   1.917  10.490  0.5074  0.5995  0.1595
  867MOL0     O16918   9.940   2.021  10.582  0.6142  0.1729 -0.1350
  867MOL0     C16919  10.042   2.095  10.652 -0.4819  0.8384  0.4798
  867MOL0     C16920   9.984   2.181  10.772  0.2695 -0.8202  0.7645
  867MOL0     C16921   9.918   2.320  10.730  0.8107 -0.3772 -0.6142
  867MOL0     C16922  10.017   2.434  10.702 -0.2774  0.6591  0.6059
  867MOL0     C16923   9.961   2.565  10.655 -0.2152  0.0854 -0.8777
  867MOL0     C16924   9.877   2.630  10.770 -1.0592  0.1507  0.4166
  867MOL0     C16925   9.965   2.671  10.895 -0.3529 -0.2463  0.9348
  867MOL0     C16926   9.864   2.722  10.996  0.2788  0.4134  0.2157
  867MOL0     N16927   9.923   2.716  11.132  0.6026 -0.6972  0.1297
  867MOL0     C16928   9.931   2.608  11.215  0.3339  0.2977 -0.2449
  867MOL0     C16929  10.020   2.647  11.312  0.5418  1.0412 -0.0728
  867MOL0     C16930  10.071   2.556  11.427  0.5937  0.1248 -0.5366
  867MOL0     C16931   9.991   2.584  11.561 -0.2776 -0.2862  0.1791
  867MOL0     C16932   9.840   2.559  11.565  1.0884  0.9244 -0.3042
  867MOL0     C16933   9.789   2.557  11.707 -0.1348  0.0690  0.2591
  867MOL0     O16934   9.655   2.596  11.718  0.0941 -0.7962  0.2967
  867MOL0     C16935   9.569   2.495  11.760 -0.4962 -0.1432  0.0217
  867MOL0     C16936   9.490   2.525  11.874  0.2654 -0.8668  0.5672
  867MOL0     C16937   9.406   2.425  11.930  0.0687 -0.1041 -1.1622
  867MOL0     C16938   9.429   2.289  11.906 -0.9988  0.6274 -0.1013
  867MOL0     C16939   9.349   2.185  11.977 -0.2232  0.4884 -0.3947
  867MOL0     O16940   9.416   2.076  12.007 -0.0819  0.2499  0.4820
  867MOL0     C16941   9.351   1.980  12.077 -0.6127  0.3123 -0.0514
  867MOL0     C16942   9.304   1.992  12.212 -0.4206 -0.4619  0.3301
  867MOL0     C16943   9.226   1.901  12.269 -0.2027  0.4940  0.2143
  867MOL0     C16944   9.178   1.788  12.201  1.2046  0.5665 -0.3474
  867MOL0     O16945   9.082   1.712  12.259 -0.0273 -0.1245 -0.3976
  867MOL0     C16946   9.032   1.596  12.199 -0.1672 -0.6611 -0.2140
  867MOL0     C16947   8.939   1.625  12.083 -0.8612  0.5894 -0.4145
  867MOL0     C16948   8.790   1.639  12.139  0.3442  0.3320  0.2067
  867MOL0     C16949   8.694   1.694  12.036  0.7582  0.1062  1.6186
  867MOL0     C16950   8.673   1.593  11.918 -0.2745 -0.3522  0.1941
  867MOL0     C16951   8.592   1.461  11.961 -0.7855 -0.2078  0.2548
  867MOL0     C16952   8.545   1.393  11.833  0.8719  0.1766  0.1908
  867MOL0     C16953   8.407   1.454  11.791  0.0534 -0.6195 -0.2286
  867MOL0    Cl16954   8.335   1.337  11.682 -0.8689 -0.2936 -0.0646
  867MOL0     C16955   9.231   1.772  12.071 -0.4739 -0.4189  0.4932
  867MOL0     C16956   9.321   1.865  12.007 -0.2351  0.1081 -0.5582
  867MOL0     O16957   9.228   2.207  11.991  0.5085 -0.4179  0.1608
  867MOL0     C16958   9.523   2.258  11.805 -0.4138  0.0476  0.7032
  867MOL0     C16959   9.589   2.362  11.725  0.4806  0.1390  0.1224
  867MOL0     N16960  10.072   2.770  11.282  0.3188  0.1836  0.6627
  867MOL0     N16961  10.020   2.808  11.178  0.0309  0.2742 -0.3082
  867MOL0     C16962  10.090   1.842  10.510 -1.7839 -0.6574  0.5188
  867MOL0     C16963  10.114   1.723  10.439  0.3907 -0.3430  0.2349
  867MOL0     C16964  10.085   1.363  10.165  0.5073 -0.7183  0.6373
  867MOL0     C16965  10.045   1.402  10.035 -0.1402  0.7073  0.0593
  867MOL0     C16966  10.049   1.319   9.922  0.0301 -1.0034 -0.5240
  867MOL0     C16967  10.088   1.188   9.944  0.0444  0.6630 -0.2289
  867MOL0     O16968  10.095   1.096   9.846  0.3503 -0.1798  0.2858
  867MOL0     C16969  10.100   1.147   9.707 -0.2510  0.2545 -0.7448
  867MOL0     C16970  10.161   1.043   9.600  0.5834  0.0415 -0.5991
  867MOL0     C16971  10.303   1.010   9.644 -0.7097  1.0962  0.8093
  867MOL0     C16972  10.361   0.920   9.531 -1.0977  0.5121 -0.4283
  867MOL0     C16973  10.508   0.904   9.546  0.6259 -0.3237 -0.3633
  867MOL0     C16974  10.627   0.893   9.549 -0.6656 -0.4834 -0.4356
  867MOL0     C16975  10.127   1.144  10.075 -0.0121  0.2356  0.7222
  867MOL0     C16976  10.131   1.233  10.177  0.3607  1.0943  0.2409
  867MOL0     C16977  10.174   1.177  10.303 -0.7569  0.2676 -1.0067
  867MOL0     H16978   9.846   1.727  10.233  0.7588 -3.5589 -0.5386
  867MOL0     H16979   9.798   1.937  10.355  0.0069 -1.2985 -3.9461
  867MOL0     H16980  10.111   2.031  10.707 -0.6733  0.2855  0.0878
  867MOL0     H16981  10.109   2.159  10.595  0.6205  0.9805  1.8748
  867MOL0     H16982  10.061   2.198  10.848  1.7294 -0.3175 -0.7656
  867MOL0     H16983   9.902   2.125  10.818 -1.6442 -0.0638 -1.5490
  867MOL0     H16984   9.850   2.357  10.808 -0.5835  0.1430 -2.0249
  867MOL0     H16985   9.854   2.302  10.643  2.2707 -0.5000 -1.6900
  867MOL0     H16986  10.074   2.440  10.795  1.1297  0.9926 -0.2431
  867MOL0     H16987  10.083   2.400  10.621 -2.5277 -0.1833 -0.9766
  867MOL0     H16988  10.048   2.628  10.636  0.8596 -0.3508  2.0657
  867MOL0     H16989   9.904   2.549  10.563  1.1220  1.9372 -2.0906
  867MOL0     H16990   9.827   2.718  10.727  0.7999  0.3779 -1.4470
  867MOL0     H16991   9.802   2.554  10.793 -0.9944  0.0161  0.1761
  867MOL0     H16992  10.041   2.745  10.868 -1.0799  0.3076  0.3584
  867MOL0     H16993  10.011   2.578  10.932  0.4779 -0.9600 -1.6743
  867MOL0     H16994   9.841   2.829  10.984  2.1208  0.9907  1.3468
  867MOL0     H16995   9.771   2.666  10.987  0.4871  0.0952  0.0125
  867MOL0     H16996   9.881   2.512  11.201 -1.0516  1.2087 -1.8502
  867MOL0     H16997  10.064   2.455  11.387  2.9225  0.5505 -2.2068
  867MOL0     H16998  10.179   2.571  11.434  1.3430 -4.2298 -0.0766
  867MOL0     H16999  10.026   2.507  11.631 -0.3713  0.4550  1.0545
  867MOL0     H17000  10.005   2.683  11.606 -2.7425 -0.6279  1.8958
  867MOL0     H17001   9.816   2.465  11.514 -4.9071  2.0308 -0.2541
  867MOL0     H17002   9.798   2.649  11.520 -1.0416 -0.1622 -0.6509
  867MOL0     H17003   9.857   2.625  11.760 -2.2920  2.0174  0.6645
  867MOL0     H17004   9.814   2.458  11.746 -0.4375 -0.3402 -0.5790
  867MOL0     H17005   9.486   2.630  11.900 -0.8650 -0.4413 -1.1411
  867MOL0     H17006   9.324   2.445  11.998 -0.2818 -0.4848 -1.4687
  867MOL0     H17007   9.332   2.085  12.261 -2.5863  0.2459  0.3504
  867MOL0     H17008   9.190   1.922  12.369 -1.9104 -1.3811  0.0544
  867MOL0     H17009   9.121   1.533  12.183  1.5969  1.2935  1.3662
  867MOL0     H17010   8.977   1.536  12.271  0.4033 -0.3557  0.4858
  867MOL0     H17011   8.962   1.720  12.034 -2.2803 -0.1353 -2.6828
  867MOL0     H17012   8.938   1.535  12.021  2.2356  0.4339 -0.3905
  867MOL0     H17013   8.755   1.540  12.168  1.1998 -0.2928 -0.8148
  867MOL0     H17014   8.786   1.692  12.235 -0.9482  0.4388  0.1174
  867MOL0     H17015   8.723   1.795  12.003 -2.4102  0.6943  0.3128
  867MOL0     H17016   8.598   1.709  12.085 -0.4025 -1.6317 -0.0018
  867MOL0     H17017   8.768   1.573  11.867 -0.8400  2.3435 -2.2146
  867MOL0     H17018   8.613   1.650  11.846  1.2193  1.3463  0.2190
  867MOL0     H17019   8.644   1.390  12.025  0.1489  2.0806  2.2097
  867MOL0     H17020   8.507   1.492  12.023 -2.0893 -0.1233 -1.4960
  867MOL0     H17021   8.521   1.289  11.857 -0.9872  0.6004  0.2831
  867MOL0     H17022   8.629   1.394  11.763  2.7642 -1.0945  2.2878
  867MOL0     H17023   8.343   1.465  11.879  1.6141  2.0292  0.7247
  867MOL0     H17024   8.430   1.548  11.740  1.7935 -0.5903  0.5291
  867MOL0     H17025   9.190   1.698  12.003  2.0207 -1.6829  0.2347
  867MOL0     H17026   9.361   1.854  11.906 -0.9381  2.6338 -1.1797
  867MOL0     H17027   9.558   2.157  11.788  0.0923 -0.2822  3.2367
  867MOL0     H17028   9.664   2.327  11.655  1.6898  4.1978 -0.8669
  867MOL0     H17029  10.168   1.861  10.583  3.4846 -3.1124 -3.7352
  867MOL0     H17030  10.204   1.663  10.449  0.1225 -0.4691  2.3692
  867MOL0     H17031   9.999   1.499  10.026  2.1817  1.8393 -0.1996
  867MOL0     H17032  10.006   1.357   9.830 -0.2127 -0.6942 -0.2822
  867MOL0     H17033  10.161   1.238   9.706 -0.3035  0.3100  0.5062
  867MOL0     H17034  10.001   1.165   9.664 -0.5674  0.4563  0.0677
  867MOL0     H17035  10.145   1.065   9.494 -2.6605 -0.6833 -0.3555
  867MOL0     H17036  10.104   0.951   9.613 -1.8136  1.4209 -0.7418
  867MOL0     H17037  10.296   0.958   9.740  2.2965 -2.7834 -0.7999
  867MOL0     H17038  10.364   1.101   9.650  0.1952  0.6628 -0.9392
  867MOL0     H17039  10.323   0.818   9.541 -1.9652  0.7669 -1.0708
  867MOL0     H17040  10.347   0.957   9.429 -0.8642  1.0102 -0.2842
  867MOL0     H17041  10.727   0.863   9.528 -1.1420 -1.3180 -1.6288
  867MOL0     H17042  10.159   1.041  10.091 -0.5138  0.2176  1.7072
  867MOL0     H17043  10.213   1.075  10.303  1.2884  0.9917  0.1901
  867MOL0     H17044  10.248   1.248  10.343  1.9237 -3.2214  0.7756
  867MOL0     H17045  10.091   1.183  10.373 -2.7051 -0.4146 -3.1213
  868MOL0     O17046   2.807  10.082   7.683 -0.1830  0.2854  0.2850
  868MOL0     C17047   2.798   9.966   7.642  0.4155  0.5015  0.2425
  868MOL0     O17048   2.794   9.917   7.508  1.0141 -0.1012  0.0802
  868MOL0     C17049   2.871   9.974   7.410 -0.2049 -0.6378  0.1332
  868MOL0     C17050   2.986  10.056   7.425 -0.5218  0.2043  0.4902
  868MOL0     C17051   3.050  10.106   7.316  0.3306 -0.9169 -0.2822
  868MOL0     C17052   3.015  10.084   7.177  0.0718  0.9324 -0.4630
  868MOL0     O17053   3.061  10.151   7.063  0.4574  0.1011  0.3902
  868MOL0     C17054   3.184  10.229   7.056 -0.0603  0.7559  0.1751
  868MOL0     C17055   3.154  10.376   7.066 -0.1899  0.4843  0.0416
  868MOL0     C17056   3.078  10.426   6.948  0.1367  0.4287 -0.0628
  868MOL0     C17057   2.998  10.554   6.982 -1.0951  0.1725 -0.1003
  868MOL0     C17058   2.888  10.540   7.084 -0.2563  0.3630 -0.2891
  868MOL0     C17059   2.760  10.482   7.020 -0.2087  0.3240 -0.6178
  868MOL0     C17060   2.678  10.577   6.938  0.2054  0.2511 -0.0155
  868MOL0     C17061   2.532  10.575   6.941  0.3895  0.1640  0.7960
  868MOL0     N17062   2.478  10.465   6.850 -0.9580 -0.5220 -0.8781
  868MOL0     C17063   2.479  10.333   6.902  0.7787  0.1486 -0.5006
  868MOL0     C17064   2.498  10.258   6.795  0.1277 -0.3441 -0.1516
  868MOL0     C17065   2.520  10.106   6.798  0.2250 -0.4649 -0.3206
  868MOL0     C17066   2.668  10.075   6.772  0.6434 -0.2722 -0.3706
  868MOL0     C17067   2.700   9.931   6.789 -0.1345  0.4470  0.1811
  868MOL0     C17068   2.644   9.829   6.674  0.0558  0.6464  0.4178
  868MOL0     O17069   2.507   9.790   6.714  0.2653  0.4030 -0.2277
  868MOL0     C17070   2.409   9.773   6.622 -0.2918 -0.4204  0.8938
  868MOL0     C17071   2.349   9.644   6.606 -0.0844 -0.1729  0.3528
  868MOL0     C17072   2.246   9.617   6.507 -1.0617  0.0902 -0.2430
  868MOL0     C17073   2.224   9.712   6.401 -0.1168  0.7878 -0.7356
  868MOL0     C17074   2.116   9.671   6.295  0.5174  0.2556 -0.6222
  868MOL0     O17075   2.098   9.767   6.195 -0.2046  0.4782  0.8449
  868MOL0     C17076   1.990   9.740   6.107 -0.3921  0.7964 -0.4505
  868MOL0     C17077   2.002   9.662   5.998  0.0315  0.0091  0.3993
  868MOL0     C17078   1.906   9.658   5.898  0.6233 -0.2633 -0.5423
  868MOL0     C17079   1.794   9.742   5.906 -0.0227 -0.6873 -0.1805
  868MOL0     O17080   1.713   9.749   5.796  0.1628 -0.1394 -0.7169
  868MOL0     C17081   1.586   9.824   5.788 -0.3457 -0.7682  0.5970
  868MOL0     C17082   1.526   9.821   5.653 -1.5164  0.5139 -0.2592
  868MOL0     C17083   1.400   9.903   5.633  0.7367  0.9240 -0.3018
  868MOL0     C17084   1.331   9.858   5.500 -0.3287 -0.3111 -0.2109
  868MOL0     C17085   1.194   9.905   5.458  0.0546  0.0401 -0.2973
  868MOL0     C17086   1.097   9.843   5.559  0.0618  0.0861  0.0452
  868MOL0     C17087   0.950   9.839   5.506  0.1127  0.4991  0.4192
  868MOL0     C17088   0.884   9.976   5.519  0.3980  0.4726  0.2164
  868MOL0    Cl17089   0.841  10.005   5.695 -0.5739 -0.5709 -0.1383
  868MOL0     C17090   1.775   9.817   6.018 -0.4945 -0.7528 -0.0783
  868MOL0     C17091   1.871   9.820   6.120  0.3577  0.1195  0.4933
  868MOL0     O17092   2.053   9.566   6.306  0.4742  0.0074 -0.5133
  868MOL0     C17093   2.288   9.837   6.409  0.7678 -0.7313 -0.1443
  868MOL0     C17094   2.376   9.868   6.520  0.5432  0.7689 -0.4235
  868MOL0     N17095   2.515  10.339   6.678  0.2505 -0.2861 -0.0980
  868MOL0     N17096   2.491  10.464   6.715  0.2419  0.3719 -0.6353
  868MOL0     C17097   2.903   9.993   7.164  0.2305 -0.4646  0.1756
  868MOL0     C17098   2.835   9.951   7.276  0.2967 -0.4840 -0.5607
  868MOL0     C17099   2.810   9.862   7.744 -0.6797 -0.3026  0.3483
  868MOL0     C17100   2.934   9.855   7.811 -0.2076  0.5555  0.2318
  868MOL0     C17101   2.966   9.749   7.891 -0.1504 -0.6809  0.0804
  868MOL0     C17102   2.880   9.642   7.903 -0.9927 -0.1817 -0.2305
  868MOL0     O17103   2.918   9.532   7.979  0.6293 -0.3279 -0.4293
  868MOL0     C17104   2.836   9.410   7.968  0.5791  0.3435  0.7514
  868MOL0     C17105   2.862   9.320   7.844 -0.8874 -0.1333 -0.0336
  868MOL0     C17106   2.772   9.207   7.839 -0.8321  0.4440  0.1942
  868MOL0     C17107   2.645   9.245   7.761  0.0260 -1.2393  0.1548
  868MOL0     C17108   2.554   9.135   7.754  1.0840 -0.2642 -0.3691
  868MOL0     C17109   2.473   9.043   7.749  0.2487 -0.4687  0.3567
  868MOL0     C17110   2.755   9.652   7.834 -0.2664 -0.1494 -0.2882
  868MOL0     C17111   2.719   9.758   7.757 -0.2099  0.5144 -0.2483
  868MOL0     C17112   2.582   9.750   7.684 -0.4612 -0.4486 -0.1977
  868MOL0     H17113   3.027  10.075   7.524  0.4408  0.3007  0.0852
  868MOL0     H17114   3.138  10.170   7.314  0.9750 -1.7769 -1.7092
  868MOL0     H17115   3.255  10.191   7.131 -3.3501 -0.9615  2.6717
  868MOL0     H17116   3.236  10.216   6.961 -0.4468  0.5822 -0.0145
  868MOL0     H17117   3.242  10.441   7.074 -1.6930  2.6684 -0.1223
  868MOL0     H17118   3.086  10.383   7.151 -2.6949  1.8937 -1.9319
  868MOL0     H17119   3.017  10.348   6.901 -0.6384  1.2770 -0.5086
  868MOL0     H17120   3.153  10.456   6.874  0.4082  2.0371  0.8258
  868MOL0     H17121   3.075  10.623   7.019  1.6745 -1.6157 -2.1708
  868MOL0     H17122   2.963  10.588   6.885  2.3184  1.1752 -1.1327
  868MOL0     H17123   2.919  10.480   7.171 -3.5466 -2.7074 -0.9758
  868MOL0     H17124   2.858  10.638   7.122 -2.7027 -0.3863 -0.0597
  868MOL0     H17125   2.784  10.394   6.960 -3.5616 -0.9899 -0.2515
  868MOL0     H17126   2.708  10.443   7.108  3.8080  3.0855  3.4315
  868MOL0     H17127   2.715  10.579   6.835 -2.4736 -0.0864 -1.0752
  868MOL0     H17128   2.692  10.683   6.963  1.0047 -0.1274  1.2356
  868MOL0     H17129   2.499  10.563   7.045  3.3783 -2.0568  1.5999
  868MOL0     H17130   2.501  10.672   6.902  1.6038  0.5822  0.8361
  868MOL0     H17131   2.472  10.310   7.008  0.2266  2.2716 -0.0354
  868MOL0     H17132   2.494  10.069   6.897  1.3487  1.2462  0.6555
  868MOL0     H17133   2.462  10.056   6.719 -2.0855  2.0801 -0.3694
  868MOL0     H17134   2.708  10.119   6.680 -0.0411  1.5282  0.1469
  868MOL0     H17135   2.712  10.122   6.861 -2.4121 -0.9140  1.6219
  868MOL0     H17136   2.667   9.906   6.890  1.4804  3.6934  1.6774
  868MOL0     H17137   2.809   9.921   6.798 -0.4525 -0.9814  4.2652
  868MOL0     H17138   2.712   9.745   6.684  0.4412  0.9593  0.4530
  868MOL0     H17139   2.648   9.864   6.571 -4.1898 -1.4832 -0.6846
  868MOL0     H17140   2.368   9.575   6.688 -3.4041  0.2575  1.6215
  868MOL0     H17141   2.185   9.527   6.513 -2.8215  1.1467 -1.4585
  868MOL0     H17142   2.085   9.599   5.969  0.0375 -0.9977  2.4265
  868MOL0     H17143   1.903   9.601   5.806 -1.2591 -1.7447  0.3451
  868MOL0     H17144   1.517   9.792   5.867 -0.0994 -2.7679  0.0483
  868MOL0     H17145   1.620   9.926   5.807 -2.5695  0.1783 -0.2122
  868MOL0     H17146   1.600   9.853   5.580 -1.3980  0.9062  0.0276
  868MOL0     H17147   1.503   9.714   5.643  1.2016 -0.0684 -0.9478
  868MOL0     H17148   1.330   9.890   5.717  0.8621 -0.7512 -0.4083
  868MOL0     H17149   1.399  10.012   5.631 -1.7105  0.9587 -1.5757
  868MOL0     H17150   1.335   9.749   5.489  0.8066 -0.6107  2.3475
  868MOL0     H17151   1.406   9.893   5.428  0.1409  0.4585  0.6302
  868MOL0     H17152   1.161   9.859   5.365  1.4331 -0.7155 -0.4429
  868MOL0     H17153   1.189  10.014   5.455 -1.1016  0.0130 -0.0045
  868MOL0     H17154   1.130   9.740   5.576  0.7373  0.4771  1.2931
  868MOL0     H17155   1.092   9.890   5.658  1.7029 -0.1539  0.2779
  868MOL0     H17156   0.884   9.771   5.560  2.0614  1.3624  4.2152
  868MOL0     H17157   0.943   9.796   5.406 -0.0409 -0.1895  0.7227
  868MOL0     H17158   0.953  10.053   5.484  3.3691 -1.8078  0.5174
  868MOL0     H17159   0.794   9.978   5.458  0.7650  0.4826 -0.3307
  868MOL0     H17160   1.693   9.886   6.036  0.5453  0.1736  1.4199
  868MOL0     H17161   1.857   9.880   6.210  1.4944  1.8270 -0.4044
  868MOL0     H17162   2.253   9.899   6.327 -1.1052  0.6876  1.6220
  868MOL0     H17163   2.414   9.968   6.537  0.2340  0.8352 -0.1151
  868MOL0     H17164   2.881   9.989   7.058  0.3665  3.0463 -0.0929
  868MOL0     H17165   2.738   9.902   7.274 -0.1564  0.4006 -2.9252
  868MOL0     H17166   3.014   9.928   7.805  1.0301 -0.2709  3.9887
  868MOL0     H17167   3.062   9.740   7.941  0.1055  2.9346  0.5410
  868MOL0     H17168   2.728   9.418   7.978  0.1391 -1.7315 -1.3532
  868MOL0     H17169   2.877   9.358   8.054  3.3888 -0.1132 -0.7245
  868MOL0     H17170   2.964   9.284   7.861 -0.6138  1.0213  0.8531
  868MOL0     H17171   2.850   9.373   7.749 -1.6548  1.2067  0.7843
  868MOL0     H17172   2.732   9.182   7.938 -0.3625 -3.7796 -0.4712
  868MOL0     H17173   2.812   9.119   7.786  2.3230 -1.0547  4.5522
  868MOL0     H17174   2.601   9.334   7.807 -0.6421 -0.1949 -2.3438
  868MOL0     H17175   2.686   9.280   7.667  0.5601  3.3900  1.8817
  868MOL0     H17176   2.406   8.960   7.754  0.3101 -0.6542 -1.2139
  868MOL0     H17177   2.689   9.567   7.843  1.3479 -1.4847 -0.6711
  868MOL0     H17178   2.577   9.675   7.604  2.7769  1.0268 -2.0085
  868MOL0     H17179   2.513   9.725   7.765 -0.8786 -0.7638 -0.6403
  868MOL0     H17180   2.557   9.851   7.649  2.2436  0.8679  1.3474
  869MOL0     O17181   7.603   7.301  11.400  0.2962  0.1191  0.9963
  869MOL0     C17182   7.608   7.181  11.438 -0.3152  0.4454  1.2250
  869MOL0     O17183   7.510   7.113  11.506 -0.4996  0.1107 -0.1951
  869MOL0     C17184   7.423   7.195  11.574 -0.3741  0.7043  0.1114
  869MOL0     C17185   7.411   7.200  11.717  0.0592 -1.0739  0.4090
  869MOL0     C17186   7.308   7.283  11.775 -0.2601  0.1899  0.9122
  869MOL0     C17187   7.216   7.347  11.691 -1.2151 -0.0702 -0.0621
  869MOL0     O17188   7.122   7.432  11.737  0.7061 -0.4287  0.4655
  869MOL0     C17189   7.060   7.391  11.863  0.5937 -0.0312  0.2529
  869MOL0     C17190   7.102   7.476  11.986  0.2985  0.3466  0.5068
  869MOL0     C17191   6.977   7.477  12.085 -0.4273 -0.2609  0.3669
  869MOL0     C17192   6.979   7.343  12.154 -0.1244  0.6336 -0.3206
  869MOL0     C17193   6.891   7.308  12.272  0.2704 -0.5617  0.6946
  869MOL0     C17194   6.894   7.405  12.390  1.0943  0.4033  0.6481
  869MOL0     C17195   6.990   7.382  12.502 -0.2850 -0.0386 -1.1589
  869MOL0     C17196   6.963   7.482  12.617 -0.7271 -0.1424  0.2478
  869MOL0     N17197   6.848   7.434  12.702  0.7675 -0.7436  0.0327
  869MOL0     C17198   6.854   7.358  12.815 -0.2523 -0.3507  0.2068
  869MOL0     C17199   6.739   7.370  12.885  0.4291 -0.4200 -0.4497
  869MOL0     C17200   6.702   7.285  13.007  0.0187 -0.4210  0.3940
  869MOL0     C17201   6.718   7.371  13.132  0.5186  0.3990  0.7286
  869MOL0     C17202   6.692   7.287  13.257 -0.8197 -0.4020  0.3350
  869MOL0     C17203   6.615   7.372  13.356 -0.9964 -0.2310 -1.3075
  869MOL0     O17204   6.476   7.376  13.312 -0.6785  1.2302 -0.2925
  869MOL0     C17205   6.387   7.278  13.349 -0.2324 -0.7737 -0.2496
  869MOL0     C17206   6.258   7.291  13.302 -0.2402  0.1677  0.6086
  869MOL0     C17207   6.150   7.207  13.348 -0.0685  0.0033 -0.5717
  869MOL0     C17208   6.181   7.116  13.453 -0.2751  0.2103  0.0854
  869MOL0     C17209   6.073   7.018  13.500  0.4931  0.0860 -0.3709
  869MOL0     O17210   5.951   7.026  13.433 -0.1202 -0.8199  1.3620
  869MOL0     C17211   5.839   6.956  13.478 -0.0983 -0.7914 -0.5846
  869MOL0     C17212   5.726   7.034  13.521 -0.2355 -0.1619 -0.8831
  869MOL0     C17213   5.623   6.972  13.592  0.5614 -0.0393  0.6629
  869MOL0     C17214   5.624   6.831  13.600 -0.5048 -0.7489  0.1453
  869MOL0     O17215   5.528   6.765  13.667 -0.4970 -0.1039  0.8939
  869MOL0     C17216   5.407   6.820  13.670 -0.2747  0.4059  0.2363
  869MOL0     C17217   5.313   6.695  13.664 -0.4613 -0.3170  0.0211
  869MOL0     C17218   5.355   6.582  13.735 -1.0608  0.1103 -0.8840
  869MOL0     C17219   5.234   6.485  13.758 -0.6974 -0.0900 -0.2547
  869MOL0     C17220   5.251   6.339  13.711 -1.1347  0.3325  0.3047
  869MOL0     C17221   5.381   6.267  13.759  0.0528 -0.3838  0.1860
  869MOL0     C17222   5.367   6.200  13.895 -0.1728  0.5294  0.3436
  869MOL0     C17223   5.319   6.290  14.013 -0.0227  0.1446  0.7801
  869MOL0    Cl17224   5.329   6.186  14.167 -0.1323 -0.5664 -0.0330
  869MOL0     C17225   5.721   6.750  13.540  0.8452  0.7331 -0.5097
  869MOL0     C17226   5.834   6.814  13.487  1.2875  0.1636  0.2501
  869MOL0     O17227   6.101   6.959  13.603  0.1234 -0.6291 -0.5810
  869MOL0     C17228   6.313   7.115  13.510 -0.6456  0.7447  1.5500
  869MOL0     C17229   6.411   7.189  13.450 -0.0870 -0.4967  1.7802
  869MOL0     N17230   6.654   7.440  12.803  1.5362  0.3119  0.3449
  869MOL0     N17231   6.718   7.479  12.692 -0.0470  0.2892  0.1427
  869MOL0     C17232   7.228   7.336  11.557  0.0499 -0.6817  0.1948
  869MOL0     C17233   7.338   7.272  11.498 -0.0156  0.1977  0.2120
  869MOL0     C17234   7.733   7.102  11.408 -0.0332  0.1441 -0.0365
  869MOL0     C17235   7.767   7.074  11.279  1.3872  0.6790  0.3101
  869MOL0     C17236   7.867   6.989  11.243  1.0829  0.1737 -0.2505
  869MOL0     C17237   7.932   6.922  11.342 -0.9748  0.6909 -1.1523
  869MOL0     O17238   8.034   6.828  11.321  0.3731 -0.8493  0.4638
  869MOL0     C17239   8.050   6.770  11.194 -0.5564  0.2536  0.6264
  869MOL0     C17240   8.133   6.848  11.093 -0.4577  1.1086 -0.7036
  869MOL0     C17241   8.189   6.764  10.973 -0.4741  0.0972 -0.8206
  869MOL0     C17242   8.260   6.856  10.875  0.4354 -0.0438 -1.5270
  869MOL0     C17243   8.318   6.769  10.774  0.1008 -0.2683  0.1596
  869MOL0     C17244   8.359   6.712  10.673  0.4065  0.1692  0.5429
  869MOL0     C17245   7.902   6.946  11.482  0.2394 -0.3112  0.3246
  869MOL0     C17246   7.801   7.036  11.519 -0.6480  0.2651 -0.3674
  869MOL0     C17247   7.758   7.059  11.661 -0.5756  0.2399  0.5621
  869MOL0     H17248   7.458   7.133  11.788  0.7342 -1.2865 -0.2263
  869MOL0     H17249   7.306   7.288  11.883 -1.4710 -2.9073  1.1258
  869MOL0     H17250   6.952   7.400  11.851  0.3221 -0.6778  1.9074
  869MOL0     H17251   7.081   7.286  11.885  0.7037 -0.4810 -1.7653
  869MOL0     H17252   7.137   7.571  11.946  0.2296 -0.8732 -2.6801
  869MOL0     H17253   7.193   7.437  12.033  0.5270  1.6738  1.2295
  869MOL0     H17254   6.885   7.490  12.027  0.3934 -0.1828 -0.9469
  869MOL0     H17255   6.983   7.556  12.161 -0.4021 -1.3174  1.4842
  869MOL0     H17256   6.966   7.267  12.075 -0.8289  3.3334 -2.9792
  869MOL0     H17257   7.082   7.338  12.191 -0.8192 -1.4717  1.6201
  869MOL0     H17258   6.787   7.328  12.245 -0.2758 -3.1063  0.7202
  869MOL0     H17259   6.907   7.206  12.309 -5.7927 -1.3734  2.1308
  869MOL0     H17260   6.903   7.505  12.346  0.5352 -0.9180 -2.8592
  869MOL0     H17261   6.790   7.392  12.422  0.9219  0.9021  0.3051
  869MOL0     H17262   7.095   7.384  12.472  1.0602 -0.4610  2.8266
  869MOL0     H17263   6.971   7.282  12.541  0.3743  0.3738  0.3012
  869MOL0     H17264   7.056   7.486  12.675 -0.4007  2.1009 -0.3316
  869MOL0     H17265   6.953   7.588  12.590  2.6401 -0.0389 -1.1123
  869MOL0     H17266   6.937   7.292  12.838 -0.4557 -1.0042 -0.8811
  869MOL0     H17267   6.601   7.246  12.994  0.0994 -0.1604 -1.1019
  869MOL0     H17268   6.767   7.198  13.022 -1.8895 -1.9300  0.2051
  869MOL0     H17269   6.819   7.412  13.121 -0.4443  2.2296 -3.7829
  869MOL0     H17270   6.657   7.463  13.133  3.5547  2.5754 -0.2367
  869MOL0     H17271   6.787   7.264  13.304  0.4432 -0.2781 -2.0042
  869MOL0     H17272   6.648   7.187  13.254  0.1920 -1.2430  5.2664
  869MOL0     H17273   6.663   7.470  13.364  2.1607 -1.4419 -3.4265
  869MOL0     H17274   6.630   7.329  13.455  4.0501  2.7672 -0.3728
  869MOL0     H17275   6.228   7.372  13.236 -1.1398 -2.4996 -2.5129
  869MOL0     H17276   6.053   7.208  13.298  0.8479  1.8637 -2.4352
  869MOL0     H17277   5.737   7.139  13.497 -3.0430  1.1197  2.7066
  869MOL0     H17278   5.554   7.025  13.657  1.9181  1.3927  0.9906
  869MOL0     H17279   5.397   6.872  13.766  0.2586  2.3136 -0.6991
  869MOL0     H17280   5.383   6.893  13.592  0.4537 -0.7429 -1.1052
  869MOL0     H17281   5.215   6.733  13.695  0.3236  2.6270 -0.7468
  869MOL0     H17282   5.287   6.679  13.559 -3.1108  1.5348  0.2827
  869MOL0     H17283   5.439   6.527  13.691  1.9194  2.4539  1.3906
  869MOL0     H17284   5.389   6.613  13.834  1.3771  0.6290 -1.8111
  869MOL0     H17285   5.143   6.529  13.716  0.8969  5.0250  0.8895
  869MOL0     H17286   5.224   6.485  13.867  1.6976  3.8537  0.1483
  869MOL0     H17287   5.273   6.357  13.605  0.1289 -0.7896  0.3598
  869MOL0     H17288   5.164   6.273  13.709 -2.2522  1.6057  2.6784
  869MOL0     H17289   5.398   6.186  13.687 -3.4986 -1.9573  0.8945
  869MOL0     H17290   5.469   6.332  13.756  1.5557 -2.2881  1.0571
  869MOL0     H17291   5.470   6.170  13.917 -0.1333  1.5731  1.7489
  869MOL0     H17292   5.298   6.114  13.894  2.7561 -2.0034  0.8874
  869MOL0     H17293   5.391   6.372  14.007 -1.2523  1.2875  1.1382
  869MOL0     H17294   5.212   6.311  14.001  0.3266  1.7453  0.2988
  869MOL0     H17295   5.701   6.644  13.544  2.4641  0.4040 -0.5145
  869MOL0     H17296   5.922   6.753  13.467 -1.0468 -2.7625 -2.1282
  869MOL0     H17297   6.329   7.056  13.599  2.1140 -1.6272 -0.3033
  869MOL0     H17298   6.511   7.170  13.488 -0.1117  1.8311  3.2925
  869MOL0     H17299   7.167   7.402  11.496  1.4528  0.1532 -0.3599
  869MOL0     H17300   7.353   7.281  11.391 -3.7946  0.6987 -0.4337
  869MOL0     H17301   7.709   7.118  11.199 -2.8299 -0.7781  2.2336
  869MOL0     H17302   7.885   6.971  11.138  2.3702  2.4653 -0.4859
  869MOL0     H17303   7.954   6.735  11.156  1.1896 -2.4226 -1.7320
  869MOL0     H17304   8.106   6.678  11.212  0.6211  0.5665 -1.2134
  869MOL0     H17305   8.226   6.887  11.136  0.4488  0.8952 -2.3909
  869MOL0     H17306   8.073   6.925  11.045  0.2862  1.7442 -0.6289
  869MOL0     H17307   8.108   6.726  10.910  0.1151  1.6989 -2.6737
  869MOL0     H17308   8.258   6.685  11.002 -1.7724 -0.2747  1.4756
  869MOL0     H17309   8.175   6.908  10.830 -0.4379  1.9341  1.9851
  869MOL0     H17310   8.335   6.927  10.911  0.8853 -1.9125  1.5401
  869MOL0     H17311   8.400   6.651  10.595  1.8488 -0.7299  1.9534
  869MOL0     H17312   7.948   6.887  11.561  0.2354 -1.9734 -0.8697
  869MOL0     H17313   7.707   6.971  11.701  0.1097 -1.8699 -2.8550
  869MOL0     H17314   7.848   7.079  11.720  0.8583  3.2565 -2.3819
  869MOL0     H17315   7.697   7.145  11.690  1.3104  1.6951  0.3572
  870MOL0     O17316   7.722   9.093   2.986 -0.0709 -0.3799 -1.3207
  870MOL0     C17317   7.658   9.067   3.090 -1.3802 -1.1573  0.3853
  870MOL0     O17318   7.719   9.043   3.209  0.3618 -0.3045 -0.6164
  870MOL0     C17319   7.852   9.077   3.217  0.5598 -0.4106  0.7500
  870MOL0     C17320   7.887   9.195   3.291 -0.4524 -0.8755 -0.3565
  870MOL0     C17321   8.024   9.216   3.335  0.8662  0.7507 -0.3282
  870MOL0     C17322   8.123   9.124   3.292  0.2781  0.4030 -1.3010
  870MOL0     O17323   8.246   9.146   3.335  0.4637  0.0994 -0.4703
  870MOL0     C17324   8.308   9.027   3.407  1.0198 -0.3965 -0.0512
  870MOL0     C17325   8.427   9.074   3.479 -0.4289 -0.2722 -0.3404
  870MOL0     C17326   8.502   8.978   3.572  0.4894  0.0134 -0.4282
  870MOL0     C17327   8.408   8.902   3.663  0.0251 -0.2193 -0.9737
  870MOL0     C17328   8.490   8.847   3.780 -0.2465 -0.4875  0.3898
  870MOL0     C17329   8.602   8.747   3.746  0.0206  0.1620  0.3428
  870MOL0     C17330   8.549   8.618   3.698 -0.0417 -0.4998 -0.0837
  870MOL0     C17331   8.647   8.513   3.669 -0.5566 -0.5444 -0.1827
  870MOL0     N17332   8.571   8.392   3.653  0.0761  0.1970 -1.0267
  870MOL0     C17333   8.506   8.360   3.532 -0.6845  0.3961 -0.1409
  870MOL0     C17334   8.444   8.241   3.565  0.3176  0.2020  0.3317
  870MOL0     C17335   8.362   8.144   3.475  0.9292  0.0338  1.0610
  870MOL0     C17336   8.423   8.118   3.342  0.0576  0.2497  0.3590
  870MOL0     C17337   8.577   8.077   3.359  0.1612 -0.1439  0.0775
  870MOL0     C17338   8.650   8.036   3.235  0.0557  0.5022 -0.4249
  870MOL0     O17339   8.637   8.117   3.123 -0.7032  0.6490  0.0304
  870MOL0     C17340   8.733   8.217   3.097  0.8594  1.0985  0.3481
  870MOL0     C17341   8.852   8.230   3.172 -1.1113  0.3405  0.2754
  870MOL0     C17342   8.943   8.315   3.119 -0.3956  0.3935  0.6917
  870MOL0     C17343   8.938   8.390   2.999  0.4056  0.6111  0.6238
  870MOL0     C17344   9.025   8.487   2.948 -0.3496  0.5184  0.2687
  870MOL0     O17345   9.125   8.516   3.024 -0.8481  0.0924  0.5270
  870MOL0     C17346   9.223   8.584   2.965  0.4326  0.4288  0.9732
  870MOL0     C17347   9.215   8.722   2.936 -0.8034  0.6828  0.0594
  870MOL0     C17348   9.325   8.805   2.909 -0.0531  1.1891 -0.1055
  870MOL0     C17349   9.452   8.750   2.889  0.3361  0.4496 -0.2696
  870MOL0     O17350   9.562   8.817   2.834  0.2577  0.4073 -0.6642
  870MOL0     C17351   9.569   8.964   2.846 -0.3346  0.2385 -0.1770
  870MOL0     C17352   9.724   8.988   2.828 -0.3041 -0.7836 -0.1536
  870MOL0     C17353   9.775   9.114   2.873 -0.8903  1.0020  0.7197
  870MOL0     C17354   9.721   9.237   2.797 -1.3963 -0.1960 -0.8988
  870MOL0     C17355   9.820   9.353   2.792 -0.0130 -0.8885 -0.0343
  870MOL0     C17356   9.803   9.437   2.659 -0.2013  0.1450  0.0476
  870MOL0     C17357   9.895   9.568   2.675 -0.4410  0.2209 -0.7240
  870MOL0     C17358   9.820   9.695   2.624  1.0087  0.3498 -0.3750
  870MOL0    Cl17359   9.951   9.815   2.586 -0.0943 -0.4026 -0.6215
  870MOL0     C17360   9.461   8.619   2.900  0.9167  0.9009  0.8294
  870MOL0     C17361   9.354   8.544   2.948  0.3055  0.1907 -0.1912
  870MOL0     O17362   9.004   8.539   2.835 -0.3597 -0.8713 -0.2690
  870MOL0     C17363   8.820   8.371   2.926  0.1343 -0.2340  0.0206
  870MOL0     C17364   8.728   8.287   2.973  1.1130  0.1272 -0.2260
  870MOL0     N17365   8.481   8.197   3.691 -0.9960  0.9318  0.4034
  870MOL0     N17366   8.552   8.287   3.746  0.6361 -0.4275  0.2218
  870MOL0     C17367   8.087   9.008   3.227  0.8432 -0.1579  0.4901
  870MOL0     C17368   7.952   8.988   3.178 -0.3228  0.0347 -0.9430
  870MOL0     C17369   7.511   9.090   3.084 -0.6674 -0.2975 -1.1758
  870MOL0     C17370   7.452   9.129   3.201  0.1956 -0.3718  0.0730
  870MOL0     C17371   7.318   9.133   3.219  0.2088  1.5447 -0.5184
  870MOL0     C17372   7.225   9.100   3.113 -0.9360 -0.6131 -0.1678
  870MOL0     O17373   7.094   9.091   3.135  0.1220  0.9285  0.0003
  870MOL0     C17374   6.988   9.107   3.042 -0.7632 -0.3688  0.8260
  870MOL0     C17375   6.958   8.977   2.959 -0.3353 -0.5719 -0.0530
  870MOL0     C17376   6.816   8.978   2.898  0.9377 -1.3431 -0.5408
  870MOL0     C17377   6.788   8.842   2.839  0.6351  0.7574 -0.3518
  870MOL0     C17378   6.646   8.814   2.817 -0.5478  0.2247  0.1303
  870MOL0     C17379   6.535   8.775   2.793  0.0166 -0.4189 -0.9252
  870MOL0     C17380   7.285   9.091   2.989 -0.0079 -0.5754  0.8050
  870MOL0     C17381   7.428   9.080   2.968 -1.0245  0.4883  0.2546
  870MOL0     C17382   7.481   9.044   2.835  0.7548 -0.1295 -0.0858
  870MOL0     H17383   7.814   9.265   3.330 -3.3968 -2.2903 -2.9217
  870MOL0     H17384   8.062   9.303   3.387  0.4392  1.0657 -0.5366
  870MOL0     H17385   8.234   8.979   3.472 -0.6122  0.6073 -1.0762
  870MOL0     H17386   8.338   8.943   3.343 -0.6361 -1.2614  0.2497
  870MOL0     H17387   8.385   9.154   3.539 -0.0233 -1.6457  1.9010
  870MOL0     H17388   8.497   9.121   3.409  0.0716 -0.4093  0.0545
  870MOL0     H17389   8.564   9.037   3.640 -0.5099 -0.9690  1.3979
  870MOL0     H17390   8.562   8.906   3.515  0.1416 -0.2295 -0.4923
  870MOL0     H17391   8.336   8.971   3.706 -0.0740  0.4052 -2.1042
  870MOL0     H17392   8.357   8.819   3.612  0.6876 -1.6360  0.5791
  870MOL0     H17393   8.534   8.930   3.836 -0.1055 -0.3479  0.0742
  870MOL0     H17394   8.423   8.805   3.856  2.2318  1.3390  3.8815
  870MOL0     H17395   8.676   8.788   3.676  1.5396 -0.2997  1.6091
  870MOL0     H17396   8.655   8.724   3.839  1.2864 -0.3113 -0.4692
  870MOL0     H17397   8.485   8.642   3.613 -0.9837 -1.5419  0.3026
  870MOL0     H17398   8.494   8.587   3.788  0.5588  2.9021  1.6180
  870MOL0     H17399   8.700   8.533   3.575  0.1301  3.1890  0.8251
  870MOL0     H17400   8.714   8.501   3.755 -0.6919  1.2923  0.2183
  870MOL0     H17401   8.518   8.408   3.435 -1.7501 -0.4180 -0.7046
  870MOL0     H17402   8.354   8.045   3.520  2.5268 -1.8066 -2.3092
  870MOL0     H17403   8.262   8.188   3.466  1.6290  1.6286  0.7086
  870MOL0     H17404   8.382   8.030   3.292 -1.6450  0.2929  1.5649
  870MOL0     H17405   8.437   8.209   3.283  2.6773 -0.5440 -0.3470
  870MOL0     H17406   8.590   7.990   3.424  0.9513 -0.5201 -0.5563
  870MOL0     H17407   8.616   8.168   3.405 -3.8270  1.1043  1.3779
  870MOL0     H17408   8.608   7.941   3.200  1.6607  0.2582 -1.7711
  870MOL0     H17409   8.753   8.019   3.268 -0.8852  0.4715  2.7794
  870MOL0     H17410   8.867   8.174   3.264 -1.0128 -3.9508 -2.0513
  870MOL0     H17411   9.035   8.332   3.173 -0.7742  1.4122  1.0344
  870MOL0     H17412   9.125   8.779   2.952 -0.6636  1.0124 -0.3110
  870MOL0     H17413   9.330   8.913   2.896 -0.4632  1.3558  1.0169
  870MOL0     H17414   9.513   9.018   2.769 -1.0896  0.8375  0.7708
  870MOL0     H17415   9.537   9.005   2.942  1.0515 -0.1792  0.4868
  870MOL0     H17416   9.781   8.903   2.868  3.0665  0.6795 -1.4046
  870MOL0     H17417   9.743   8.992   2.720 -0.1042 -1.2640 -0.1425
  870MOL0     H17418   9.747   9.131   2.978 -2.1891  1.7128  0.2719
  870MOL0     H17419   9.884   9.108   2.883 -0.9378  0.1290  0.7690
  870MOL0     H17420   9.623   9.270   2.832 -1.1532 -0.3175 -0.0964
  870MOL0     H17421   9.720   9.211   2.690 -1.3484  0.8106 -1.1497
  870MOL0     H17422   9.925   9.323   2.798  0.7215  1.4009 -0.2865
  870MOL0     H17423   9.799   9.404   2.887  1.7581 -0.5311  0.2046
  870MOL0     H17424   9.827   9.377   2.571 -1.5602  0.2922 -0.4600
  870MOL0     H17425   9.696   9.463   2.657 -0.4663 -0.4681  2.4711
  870MOL0     H17426   9.987   9.548   2.620 -0.1714  0.1456 -0.2541
  870MOL0     H17427   9.913   9.580   2.783 -2.5386 -1.8118 -0.0589
  870MOL0     H17428   9.745   9.681   2.546 -0.2486 -1.7175  1.0919
  870MOL0     H17429   9.762   9.723   2.712 -0.4044  1.2540 -1.5474
  870MOL0     H17430   9.558   8.572   2.883  1.2718  1.1838  1.9512
  870MOL0     H17431   9.375   8.441   2.975  0.2629  0.2186 -0.0542
  870MOL0     H17432   8.802   8.421   2.831 -1.8671  0.0869  0.5249
  870MOL0     H17433   8.636   8.263   2.920  0.8370  0.5982  0.0321
  870MOL0     H17434   8.152   8.925   3.200 -1.0976 -0.3637 -4.8516
  870MOL0     H17435   7.927   8.904   3.113  1.2806 -2.3347  1.2923
  870MOL0     H17436   7.492   9.148   3.300 -0.1626 -2.2631  0.6357
  870MOL0     H17437   7.291   9.136   3.324  3.3356  2.5449  0.3663
  870MOL0     H17438   7.037   9.181   2.978  0.0111 -1.2332  0.3956
  870MOL0     H17439   6.905   9.150   3.098  1.2593 -1.0893  4.7875
  870MOL0     H17440   6.968   8.886   3.019 -2.2526 -0.6380  0.2165
  870MOL0     H17441   7.028   8.972   2.875 -0.8565  0.7019 -0.5851
  870MOL0     H17442   6.816   9.046   2.813  1.1041 -0.6534  0.0002
  870MOL0     H17443   6.737   9.021   2.960 -0.5627 -1.1157 -2.5006
  870MOL0     H17444   6.834   8.838   2.740 -0.0056 -3.6763 -0.6682
  870MOL0     H17445   6.838   8.754   2.881 -1.9021 -0.3678  0.5461
  870MOL0     H17446   6.438   8.739   2.764 -0.9218 -0.1538  1.5878
  870MOL0     H17447   7.225   9.062   2.903  0.3109  0.4532  0.2260
  870MOL0     H17448   7.563   9.111   2.807 -1.6588  1.5723 -3.8121
  870MOL0     H17449   7.529   8.946   2.829 -0.8925 -1.0582  0.9501
  870MOL0     H17450   7.403   9.047   2.758 -0.2401 -1.6304  0.8026
  871MOL0     O17451   2.192   7.932   6.804  0.1953 -0.2298  0.2712
  871MOL0     C17452   2.281   8.002   6.847 -0.0919  0.0331 -0.9993
  871MOL0     O17453   2.381   7.958   6.929 -0.2910  0.0023  0.2819
  871MOL0     C17454   2.399   7.822   6.930 -0.2878  0.6980  0.4348
  871MOL0     C17455   2.492   7.777   6.839 -0.6876 -0.1259 -1.1262
  871MOL0     C17456   2.532   7.644   6.853  0.5750 -1.0750 -0.3678
  871MOL0     C17457   2.494   7.566   6.960 -0.8396 -1.1234  0.3691
  871MOL0     O17458   2.567   7.455   6.972 -0.8965  0.1702 -0.0069
  871MOL0     C17459   2.475   7.342   6.953 -0.5364  0.1055 -1.4679
  871MOL0     C17460   2.565   7.221   6.952  0.2318 -0.1020 -0.6330
  871MOL0     C17461   2.473   7.098   6.966  0.3632 -0.2462  0.6729
  871MOL0     C17462   2.565   6.968   6.980 -1.5350 -0.2390 -0.5218
  871MOL0     C17463   2.483   6.846   6.962 -0.7697 -0.0889  0.4259
  871MOL0     C17464   2.562   6.721   6.953 -0.0490  0.1284  0.1068
  871MOL0     C17465   2.674   6.715   7.060  0.0108 -0.1006 -0.4554
  871MOL0     C17466   2.736   6.575   7.058  0.7413 -0.2653 -0.1695
  871MOL0     N17467   2.837   6.569   6.963 -0.6046  0.0735 -0.0615
  871MOL0     C17468   2.829   6.576   6.827 -0.2724  0.1441  0.5140
  871MOL0     C17469   2.954   6.596   6.784  0.3013  0.9015  0.5489
  871MOL0     C17470   3.009   6.619   6.645  0.5107  0.3647 -0.4165
  871MOL0     C17471   2.956   6.731   6.567 -0.1846  0.6625  0.0551
  871MOL0     C17472   2.998   6.713   6.412  0.2075  0.7735 -0.2656
  871MOL0     C17473   2.971   6.834   6.322 -0.0080  1.0947  0.2312
  871MOL0     O17474   2.830   6.835   6.288  0.0146  0.7081 -0.4498
  871MOL0     C17475   2.786   6.927   6.198  0.2611  0.6880 -0.1048
  871MOL0     C17476   2.865   7.028   6.127  0.6437  0.4568 -0.6070
  871MOL0     C17477   2.806   7.128   6.046 -0.5547 -0.3999 -0.3414
  871MOL0     C17478   2.667   7.130   6.029  0.0043  0.2712 -0.5595
  871MOL0     C17479   2.600   7.236   5.945 -0.0656  0.0574  0.2857
  871MOL0     O17480   2.691   7.329   5.885 -0.1286 -0.3977  0.1280
  871MOL0     C17481   2.648   7.439   5.813  0.1285 -0.4663 -0.0402
  871MOL0     C17482   2.550   7.541   5.849 -1.0593  0.3524 -0.2966
  871MOL0     C17483   2.523   7.652   5.778  0.8876 -1.1155  0.8189
  871MOL0     C17484   2.596   7.675   5.664  0.7799  0.1060  0.3758
  871MOL0     O17485   2.569   7.783   5.584  0.5644  0.0771 -0.3901
  871MOL0     C17486   2.505   7.901   5.638 -0.4522  0.0621  0.2237
  871MOL0     C17487   2.361   7.914   5.563 -0.5613 -0.6075 -0.1455
  871MOL0     C17488   2.265   8.000   5.631  0.0509 -0.0321 -0.9873
  871MOL0     C17489   2.140   7.999   5.551  0.1307 -0.5116  0.5334
  871MOL0     C17490   2.043   8.121   5.542 -0.4805 -0.0684  0.1945
  871MOL0     C17491   1.935   8.098   5.433  0.3815 -0.4167  0.5113
  871MOL0     C17492   1.853   8.231   5.425  0.6507  0.0332 -1.0947
  871MOL0     C17493   1.741   8.226   5.329  0.6374  0.3364 -0.0267
  871MOL0    Cl17494   1.793   8.146   5.169  0.2715  0.1555 -0.1282
  871MOL0     C17495   2.691   7.585   5.614  0.1882  0.5547 -0.3056
  871MOL0     C17496   2.711   7.462   5.691 -0.6666  0.2459 -0.2529
  871MOL0     O17497   2.479   7.236   5.928  0.4430  0.4584 -0.3447
  871MOL0     C17498   2.594   7.029   6.095  0.5549 -0.8727  0.1461
  871MOL0     C17499   2.651   6.937   6.183 -0.4099  0.5296 -0.4650
  871MOL0     N17500   3.042   6.591   6.895  0.4339  0.3294  0.2571
  871MOL0     N17501   2.968   6.588   7.001 -0.5569  1.3536 -0.0691
  871MOL0     C17502   2.402   7.613   7.047  0.0437  0.6167 -0.0263
  871MOL0     C17503   2.359   7.744   7.035 -0.0657 -0.0080 -0.4143
  871MOL0     C17504   2.277   8.149   6.818  0.1214  0.3383 -0.0768
  871MOL0     C17505   2.402   8.211   6.795  0.2536 -0.3733  0.1936
  871MOL0     C17506   2.398   8.348   6.767 -1.2727  0.4579 -1.4142
  871MOL0     C17507   2.281   8.417   6.759  0.1412 -0.5233  0.0986
  871MOL0     O17508   2.301   8.546   6.740  0.4940 -1.0321 -0.2335
  871MOL0     C17509   2.179   8.613   6.687  0.6594 -0.4305 -0.2270
  871MOL0     C17510   2.228   8.750   6.611  0.7350  0.2431 -0.0651
  871MOL0     C17511   2.292   8.712   6.480 -0.2488  0.3969  0.8488
  871MOL0     C17512   2.214   8.691   6.356  0.4052 -0.0119 -0.4232
  871MOL0     C17513   2.163   8.823   6.317 -0.5703 -0.2434  0.6559
  871MOL0     C17514   2.131   8.936   6.279 -0.1679  0.6630 -0.9952
  871MOL0     C17515   2.160   8.350   6.770 -0.5724  0.1308 -0.2997
  871MOL0     C17516   2.162   8.220   6.813 -0.3812 -0.0698  0.6197
  871MOL0     C17517   2.038   8.163   6.867  0.2154  0.1986  1.1074
  871MOL0     H17518   2.527   7.827   6.750  0.0268  0.3085 -0.6162
  871MOL0     H17519   2.611   7.612   6.786  2.5474  0.7042  0.9947
  871MOL0     H17520   2.410   7.332   7.041  1.5226 -1.4758 -0.0179
  871MOL0     H17521   2.422   7.361   6.860 -0.3024  0.3363 -1.5546
  871MOL0     H17522   2.646   7.223   7.025  0.7576  1.3476 -1.2121
  871MOL0     H17523   2.623   7.226   6.859  0.1390  2.9877 -0.6152
  871MOL0     H17524   2.407   7.093   6.879  2.1589  0.1312 -0.7749
  871MOL0     H17525   2.404   7.113   7.050 -0.0784  3.4054 -0.1696
  871MOL0     H17526   2.648   6.965   6.909  0.2733  1.9432  1.3360
  871MOL0     H17527   2.615   6.966   7.077 -0.6367 -1.2325 -0.9825
  871MOL0     H17528   2.414   6.837   7.046  0.3118  1.4578  1.5286
  871MOL0     H17529   2.422   6.864   6.872 -0.3792  1.1325  0.3801
  871MOL0     H17530   2.498   6.633   6.961  2.7803 -2.2692 -1.3114
  871MOL0     H17531   2.605   6.717   6.853 -0.1459  0.2793  0.0598
  871MOL0     H17532   2.638   6.747   7.158 -0.9474  1.0656 -1.1601
  871MOL0     H17533   2.749   6.789   7.029 -0.3805  0.0056 -1.1614
  871MOL0     H17534   2.769   6.549   7.159 -2.6084 -1.7085  0.6706
  871MOL0     H17535   2.660   6.499   7.040 -0.5815  0.5556  1.6062
  871MOL0     H17536   2.736   6.582   6.771  0.0754  1.2702  0.0297
  871MOL0     H17537   3.116   6.634   6.662 -0.0919  2.5492  2.2535
  871MOL0     H17538   2.978   6.526   6.598 -4.1261  0.7738  1.3453
  871MOL0     H17539   2.847   6.738   6.571 -0.2995 -0.5269 -0.4793
  871MOL0     H17540   2.996   6.823   6.610  1.3490  0.7994 -1.5528
  871MOL0     H17541   2.960   6.624   6.362 -2.3441  0.5531  1.8870
  871MOL0     H17542   3.106   6.700   6.428 -0.0637 -0.3169  0.8308
  871MOL0     H17543   3.034   6.819   6.234 -0.1358 -0.0935  0.3195
  871MOL0     H17544   2.999   6.927   6.371 -0.2147  2.3701 -1.9433
  871MOL0     H17545   2.972   7.033   6.139  0.5631  3.3805 -0.3216
  871MOL0     H17546   2.867   7.198   5.990 -0.9317  0.2948  0.0984
  871MOL0     H17547   2.505   7.543   5.948 -0.2105  1.0043  0.0914
  871MOL0     H17548   2.434   7.710   5.800 -0.3215 -2.1695 -1.0104
  871MOL0     H17549   2.484   7.894   5.745  0.3302  3.9896  0.7881
  871MOL0     H17550   2.563   7.994   5.635 -1.1747  0.5741  1.4440
  871MOL0     H17551   2.393   7.956   5.467 -0.3543 -0.4425 -0.0058
  871MOL0     H17552   2.311   7.819   5.544 -1.4120  0.2108 -2.2966
  871MOL0     H17553   2.250   7.968   5.735 -2.4816  0.0270 -1.2745
  871MOL0     H17554   2.296   8.105   5.626 -0.3049  0.0104 -4.2751
  871MOL0     H17555   2.079   7.912   5.578  0.3902 -0.8370  0.0761
  871MOL0     H17556   2.176   7.976   5.450  0.0132  2.0089 -0.1567
  871MOL0     H17557   2.109   8.207   5.525 -1.7550  1.0242  0.5912
  871MOL0     H17558   1.995   8.125   5.640  0.3548 -2.4803  0.7636
  871MOL0     H17559   1.975   8.074   5.334 -0.9968  0.3754 -0.2806
  871MOL0     H17560   1.873   8.009   5.446  2.7524 -2.7817 -2.8216
  871MOL0     H17561   1.917   8.319   5.418 -1.1326  1.4337 -0.6927
  871MOL0     H17562   1.815   8.245   5.527  0.3002 -0.0517 -1.2111
  871MOL0     H17563   1.665   8.159   5.370 -0.0543 -0.7530 -2.8633
  871MOL0     H17564   1.691   8.321   5.309  0.1967 -0.1208 -1.1527
  871MOL0     H17565   2.747   7.600   5.523 -2.4039  2.1683 -1.7370
  871MOL0     H17566   2.777   7.381   5.665 -2.1975 -1.7617  1.7629
  871MOL0     H17567   2.486   7.038   6.091  0.6610  2.0814  1.2374
  871MOL0     H17568   2.590   6.864   6.235  1.2227 -0.1508  0.5803
  871MOL0     H17569   2.350   7.553   7.121  0.0860 -3.4628 -2.9724
  871MOL0     H17570   2.296   7.795   7.107  1.1708  0.3652  0.4209
  871MOL0     H17571   2.501   8.167   6.805  0.2117  0.0727  4.1288
  871MOL0     H17572   2.487   8.405   6.739  1.1001 -2.0497  0.4336
  871MOL0     H17573   2.107   8.653   6.758 -2.3912  2.9925 -4.6662
  871MOL0     H17574   2.125   8.543   6.623 -0.8197  0.0579  0.4392
  871MOL0     H17575   2.304   8.812   6.661  1.9729  0.1768 -1.7603
  871MOL0     H17576   2.141   8.811   6.589  0.0682 -0.7272 -0.1702
  871MOL0     H17577   2.342   8.616   6.495  1.4782  1.2900  1.0409
  871MOL0     H17578   2.367   8.789   6.461  1.0715 -0.7592  1.2205
  871MOL0     H17579   2.259   8.641   6.269 -1.6603 -0.5347 -1.2544
  871MOL0     H17580   2.129   8.634   6.394  2.5913 -0.6694  4.1942
  871MOL0     H17581   2.103   9.033   6.245  0.5729  0.7302 -1.4223
  871MOL0     H17582   2.068   8.397   6.737 -1.5141 -3.1652 -2.8523
  871MOL0     H17583   1.959   8.236   6.886 -0.3121  0.1963 -0.8972
  871MOL0     H17584   1.985   8.094   6.801 -0.3034  3.1284 -1.7731
  871MOL0     H17585   2.055   8.112   6.962 -1.5836  1.7099  2.3116
  872MOL0     O17586  11.165   0.950   0.822  0.5731  0.4181 -0.5020
  872MOL0     C17587  11.256   1.004   0.758 -0.0692 -0.3433  0.9266
  872MOL0     O17588  11.249   1.039   0.627  0.1162 -0.0530  0.0039
  872MOL0     C17589  11.175   0.953   0.547 -1.1131  0.0334 -1.0367
  872MOL0     C17590  11.042   0.981   0.509 -0.2739  1.9196  0.6526
  872MOL0     C17591  10.969   0.877   0.440 -0.8289  0.2998 -0.9527
  872MOL0     C17592  11.027   0.762   0.386 -0.4127  0.3130 -0.7334
  872MOL0     O17593  10.939   0.659   0.343  0.2338  0.2615  0.4005
  872MOL0     C17594  10.980   0.520   0.332 -0.0120  0.1847  0.6606
  872MOL0     C17595  10.860   0.424   0.315  0.4681 -1.0967 -0.0416
  872MOL0     C17596  10.775   0.398   0.442 -0.3380 -0.3645 -0.1378
  872MOL0     C17597  10.729   0.528   0.521 -1.5010  0.6775  0.4620
  872MOL0     C17598  10.615   0.496   0.609  0.0770 -0.0900 -0.9902
  872MOL0     C17599  10.597   0.615   0.704  0.8877  0.5810  0.1737
  872MOL0     C17600  10.497   0.578   0.814 -0.4386 -0.1834  1.3323
  872MOL0     C17601  10.469   0.696   0.907 -0.9184  0.4524 -1.8320
  872MOL0     N17602  10.403   0.655   1.038 -0.2178 -0.5141  0.8719
  872MOL0     C17603  10.287   0.710   1.103 -0.7599  1.1742  0.1925
  872MOL0     C17604  10.305   0.681   1.237  0.4709 -0.2946  0.8113
  872MOL0     C17605  10.219   0.735   1.349 -0.3196 -0.7789  0.1787
  872MOL0     C17606  10.147   0.618   1.422  0.2701 -0.0135  0.0439
  872MOL0     C17607  10.092   0.658   1.564 -0.7191  0.2886  0.6006
  872MOL0     C17608  10.049   0.541   1.659  0.0500  0.2207  0.2338
  872MOL0     O17609   9.934   0.577   1.743 -0.4539  0.1510  1.1876
  872MOL0     C17610   9.891   0.491   1.842  0.5152  0.0565 -0.7219
  872MOL0     C17611   9.931   0.354   1.854 -0.4681  0.2644  0.2680
  872MOL0     C17612   9.876   0.278   1.962  1.0480  0.0041  1.0109
  872MOL0     C17613   9.787   0.326   2.057 -0.5171  0.4442 -0.0672
  872MOL0     C17614   9.732   0.247   2.167 -0.6860 -0.0368 -0.1943
  872MOL0     O17615   9.655   0.314   2.255  0.7416  1.1014  0.0488
  872MOL0     C17616   9.620   0.251   2.375 -0.5667  0.2362 -1.0315
  872MOL0     C17617   9.708   0.163   2.450 -1.2096  0.0941 -0.2622
  872MOL0     C17618   9.676   0.089   2.557  0.4356  0.7067 -0.9247
  872MOL0     C17619   9.539   0.079   2.595 -0.9242 -0.4785 -0.2751
  872MOL0     O17620   9.485  -0.003   2.685 -0.3358 -0.1256  0.5155
  872MOL0     C17621   9.569  -0.106   2.763  0.2172  0.1275 -0.6288
  872MOL0     C17622   9.472  -0.203   2.839 -0.7585 -0.6953  0.6158
  872MOL0     C17623   9.434  -0.141   2.973 -0.5414  0.0976 -0.6567
  872MOL0     C17624   9.326  -0.225   3.041  0.6002  0.3412 -0.5740
  872MOL0     C17625   9.395  -0.317   3.147 -0.9449  0.3321 -1.2315
  872MOL0     C17626   9.316  -0.444   3.179 -0.1778  0.3537  0.1654
  872MOL0     C17627   9.209  -0.391   3.277  0.4220  0.8287  0.6777
  872MOL0     C17628   9.125  -0.514   3.307  1.2540  0.4913  0.3553
  872MOL0    Cl17629   8.998  -0.477   3.422 -0.1666 -0.1864 -0.8765
  872MOL0     C17630   9.444   0.160   2.521 -0.7177  1.5519 -0.9631
  872MOL0     C17631   9.483   0.247   2.406 -0.1953 -0.3181 -0.1497
  872MOL0     O17632   9.765   0.129   2.172  0.2173  0.8625 -0.3190
  872MOL0     C17633   9.742   0.458   2.034  1.3280 -0.2273  0.6151
  872MOL0     C17634   9.800   0.534   1.936 -0.1796 -0.2138  0.0709
  872MOL0     N17635  10.417   0.609   1.252 -0.5223  0.1564  0.3914
  872MOL0     N17636  10.476   0.605   1.138 -0.4665  0.5294 -0.0851
  872MOL0     C17637  11.162   0.749   0.410  0.0788  0.4303  0.4693
  872MOL0     C17638  11.239   0.844   0.490 -0.0195  0.2033 -0.7857
  872MOL0     C17639  11.371   1.063   0.841  0.8895  1.4047 -0.2879
  872MOL0     C17640  11.429   1.182   0.790  0.6179 -0.0664  0.4474
  872MOL0     C17641  11.519   1.259   0.864 -0.3501  0.7819 -0.9120
  872MOL0     C17642  11.554   1.203   0.992 -0.8975 -1.3561  0.0847
  872MOL0     O17643  11.640   1.259   1.084 -0.6270 -0.6993 -0.9442
  872MOL0     C17644  11.780   1.283   1.045 -0.5151  0.9474 -0.6177
  872MOL0     C17645  11.828   1.426   1.032  0.4445  0.3985  0.8322
  872MOL0     C17646  11.835   1.493   1.164 -1.0366 -0.0858 -0.3146
  872MOL0     C17647  11.877   1.639   1.141 -0.0509 -0.2564  0.1388
  872MOL0     C17648  11.781   1.723   1.062 -0.0193 -0.1405 -1.2497
  872MOL0     C17649  11.705   1.788   0.985  0.8863 -0.3304  0.2305
  872MOL0     C17650  11.496   1.093   1.042  0.5365 -0.0795 -0.3802
  872MOL0     C17651  11.403   1.019   0.975 -0.1171  1.1036  0.4261
  872MOL0     C17652  11.362   0.880   1.017 -0.2151  0.6997  0.5308
  872MOL0     H17653  11.001   1.072   0.551 -0.4142  1.1608  2.2148
  872MOL0     H17654  10.860   0.878   0.436 -1.0933  2.2039  2.5411
  872MOL0     H17655  11.042   0.502   0.243  0.0431 -1.7053  1.0416
  872MOL0     H17656  11.041   0.488   0.417 -1.2076  0.8152  1.7808
  872MOL0     H17657  10.893   0.329   0.271 -0.1126 -3.0602  3.4077
  872MOL0     H17658  10.786   0.476   0.252 -0.1344 -2.1529 -0.2342
  872MOL0     H17659  10.818   0.328   0.514 -1.3299 -0.2655  0.5837
  872MOL0     H17660  10.682   0.356   0.402 -2.0210 -0.5332  3.5060
  872MOL0     H17661  10.820   0.571   0.562  1.1622 -1.7665 -2.4132
  872MOL0     H17662  10.704   0.606   0.449 -1.6315  0.5266  0.3421
  872MOL0     H17663  10.533   0.469   0.541  0.9800 -1.4392 -1.5813
  872MOL0     H17664  10.629   0.404   0.666  0.5131 -0.7297 -2.0950
  872MOL0     H17665  10.690   0.634   0.759 -0.5174  0.0075  2.9373
  872MOL0     H17666  10.567   0.707   0.654  0.8895  0.3596 -0.2421
  872MOL0     H17667  10.538   0.501   0.880  1.6334 -0.9196 -0.6557
  872MOL0     H17668  10.400   0.560   0.766  0.3508 -0.0274 -0.4188
  872MOL0     H17669  10.564   0.744   0.934 -1.8081  0.0182  2.8726
  872MOL0     H17670  10.412   0.773   0.853 -2.0973 -1.0689 -2.8268
  872MOL0     H17671  10.214   0.777   1.057  0.1525  0.8449 -1.8644
  872MOL0     H17672  10.302   0.779   1.405  2.0084  0.7027 -3.9861
  872MOL0     H17673  10.151   0.813   1.317 -1.1920 -1.3366  0.6349
  872MOL0     H17674  10.062   0.578   1.367  0.3763 -1.6180  0.9774
  872MOL0     H17675  10.222   0.538   1.431 -0.3406 -0.7176 -0.9611
  872MOL0     H17676  10.011   0.727   1.539 -0.2323  1.4671  2.0462
  872MOL0     H17677  10.172   0.717   1.610  1.2404 -0.5323 -1.5927
  872MOL0     H17678  10.137   0.516   1.719  1.4550 -0.2512 -1.9017
  872MOL0     H17679  10.017   0.454   1.600 -1.3892  1.2313 -0.5456
  872MOL0     H17680  10.006   0.311   1.787 -1.2851 -1.2687  0.2904
  872MOL0     H17681   9.910   0.175   1.973  3.0266  0.8301  3.6644
  872MOL0     H17682   9.813   0.165   2.425 -1.2241 -0.8715 -0.4223
  872MOL0     H17683   9.746   0.015   2.596 -1.5200 -1.0807 -0.5758
  872MOL0     H17684   9.632  -0.174   2.705  0.9901  1.6306 -1.6134
  872MOL0     H17685   9.639  -0.060   2.833  3.6474 -1.6419 -2.6755
  872MOL0     H17686   9.380  -0.229   2.787  0.3251 -0.0047 -1.8009
  872MOL0     H17687   9.532  -0.294   2.842  2.5752  1.2827 -0.2383
  872MOL0     H17688   9.524  -0.135   3.035 -2.1331  3.4029  1.6346
  872MOL0     H17689   9.397  -0.040   2.954  0.5466  1.1532  2.2409
  872MOL0     H17690   9.265  -0.278   2.967 -2.3220  1.3757  0.9059
  872MOL0     H17691   9.254  -0.168   3.102 -0.3686 -1.4824  0.0706
  872MOL0     H17692   9.439  -0.265   3.232  1.3735 -2.8901 -0.2523
  872MOL0     H17693   9.484  -0.360   3.099 -1.0449 -1.0082 -0.2853
  872MOL0     H17694   9.280  -0.491   3.087  0.2522 -0.1859  0.2671
  872MOL0     H17695   9.380  -0.517   3.230 -0.5671  1.6436  2.6736
  872MOL0     H17696   9.142  -0.320   3.228  1.3232  1.4860  0.3713
  872MOL0     H17697   9.245  -0.347   3.370 -0.9390  3.3275  0.1295
  872MOL0     H17698   9.071  -0.549   3.219  0.2258  0.1008  1.1135
  872MOL0     H17699   9.190  -0.591   3.349  0.6688  0.1866  0.7226
  872MOL0     H17700   9.340   0.162   2.550 -0.6004  0.0705 -0.3472
  872MOL0     H17701   9.413   0.310   2.354  0.2905  1.6346  1.4596
  872MOL0     H17702   9.651   0.488   2.085  1.0265 -1.4984  0.8651
  872MOL0     H17703   9.775   0.639   1.941  0.9050  0.0518  0.1353
  872MOL0     H17704  11.215   0.659   0.381  0.3217  0.8817 -0.5293
  872MOL0     H17705  11.347   0.840   0.498  0.0160  2.8370  1.7075
  872MOL0     H17706  11.386   1.220   0.698 -2.7782 -0.7012  1.6294
  872MOL0     H17707  11.565   1.355   0.843 -0.1909  1.1648  1.0236
  872MOL0     H17708  11.807   1.229   0.955 -0.4483 -0.5559  0.2685
  872MOL0     H17709  11.835   1.238   1.128 -1.3082  2.5368  0.8437
  872MOL0     H17710  11.760   1.474   0.961  0.6616 -0.4601  0.0302
  872MOL0     H17711  11.918   1.442   0.971 -0.7227  1.8375 -0.5973
  872MOL0     H17712  11.910   1.438   1.221 -2.4613 -0.2228  1.5179
  872MOL0     H17713  11.738   1.485   1.215 -1.9095 -0.2207 -1.9388
  872MOL0     H17714  11.887   1.687   1.239  1.7271 -2.4808  1.1487
  872MOL0     H17715  11.975   1.635   1.093 -2.3916 -2.3976 -5.1773
  872MOL0     H17716  11.630   1.846   0.935 -1.1394 -3.8887 -1.2280
  872MOL0     H17717  11.533   1.068   1.141  0.7691 -1.0782 -0.6984
  872MOL0     H17718  11.386   0.807   0.938  0.9266  1.8646 -0.2380
  872MOL0     H17719  11.417   0.842   1.103  1.1918 -2.7730 -1.6855
  872MOL0     H17720  11.255   0.871   1.039  0.1778 -0.3845  2.1840
  873MOL0     O17721   6.530  10.970   4.832 -0.0065  0.1843 -0.0283
  873MOL0     C17722   6.632  10.951   4.769 -0.1633  0.3009  0.6964
  873MOL0     O17723   6.692  10.832   4.739  0.2339  0.2473 -0.3203
  873MOL0     C17724   6.655  10.717   4.808  0.3606  0.5282  0.4994
  873MOL0     C17725   6.607  10.711   4.941 -0.0852  0.3992  0.0601
  873MOL0     C17726   6.555  10.589   4.997  0.0578 -0.0230  1.1289
  873MOL0     C17727   6.559  10.473   4.922 -0.7843 -0.2458 -0.3538
  873MOL0     O17728   6.514  10.349   4.964  0.6470  0.2247 -0.9685
  873MOL0     C17729   6.404  10.334   5.062  0.9128 -0.4384 -0.4031
  873MOL0     C17730   6.274  10.378   4.997 -0.2666  0.7905  0.1636
  873MOL0     C17731   6.157  10.328   5.075 -0.2075  0.0604 -0.7463
  873MOL0     C17732   6.072  10.435   5.143  0.2690  0.9796  0.1094
  873MOL0     C17733   5.978  10.361   5.240  0.4580 -0.2965  0.0248
  873MOL0     C17734   5.843  10.425   5.252  0.7584  0.4787 -0.8999
  873MOL0     C17735   5.836  10.575   5.272 -0.1539 -0.1463 -0.7341
  873MOL0     C17736   5.692  10.617   5.303  0.0416  0.3091 -0.0961
  873MOL0     N17737   5.685  10.662   5.444 -0.3530  0.3033 -0.2562
  873MOL0     C17738   5.671  10.579   5.558  0.2608  0.7369  1.2937
  873MOL0     C17739   5.666  10.667   5.661  0.2520  0.9928  0.2787
  873MOL0     C17740   5.644  10.620   5.797 -0.0728 -0.3144 -0.6013
  873MOL0     C17741   5.779  10.567   5.859  0.1035  0.7643  0.7459
  873MOL0     C17742   5.860  10.692   5.920  0.2056  0.8114  0.1030
  873MOL0     C17743   5.993  10.656   5.963  0.1024  0.2178 -0.6177
  873MOL0     O17744   6.059  10.774   5.994  0.0974 -0.4584  0.5193
  873MOL0     C17745   6.140  10.771   6.106  0.5529 -0.6306 -1.0685
  873MOL0     C17746   6.245  10.867   6.111  0.4452 -0.3578  0.0503
  873MOL0     C17747   6.326  10.892   6.219 -0.7780  0.0352  0.2604
  873MOL0     C17748   6.296  10.809   6.341 -0.9262  0.4279 -0.9631
  873MOL0     C17749   6.369  10.835   6.467 -0.1579 -0.7107  0.0008
  873MOL0     O17750   6.341  10.760   6.578 -0.4392  0.2872 -0.5354
  873MOL0     C17751   6.372  10.827   6.697  0.2035  1.2988 -0.0993
  873MOL0     C17752   6.263  10.850   6.778 -0.1482  0.7354 -0.1733
  873MOL0     C17753   6.282  10.903   6.902 -0.7181 -0.3617  0.2498
  873MOL0     C17754   6.415  10.949   6.951 -0.1995 -0.2637  0.8698
  873MOL0     O17755   6.407  10.992   7.078 -0.9370 -0.6737  0.2882
  873MOL0     C17756   6.524  11.061   7.130  0.1675 -0.1359 -0.0347
  873MOL0     C17757   6.486  11.050   7.282 -0.7121 -0.7418 -0.3433
  873MOL0     C17758   6.572  11.149   7.357 -0.2416  0.1930 -0.5679
  873MOL0     C17759   6.542  11.145   7.513 -0.4379  0.1091 -0.2709
  873MOL0     C17760   6.619  11.257   7.582  0.1102  0.1104  0.2206
  873MOL0     C17761   6.586  11.252   7.730  0.1145 -0.2895 -0.3917
  873MOL0     C17762   6.643  11.371   7.808  0.2179  0.9986 -0.4800
  873MOL0     C17763   6.594  11.386   7.948  0.0675  0.7308 -0.3655
  873MOL0    Cl17764   6.675  11.278   8.076  0.3724 -0.4308 -0.4497
  873MOL0     C17765   6.526  10.916   6.871  1.0740 -0.7025  0.4387
  873MOL0     C17766   6.503  10.851   6.745  0.1087  0.8073 -0.5971
  873MOL0     O17767   6.463  10.912   6.464 -0.0293 -0.8080 -0.0784
  873MOL0     C17768   6.180  10.732   6.341 -0.2072  0.4610  0.3329
  873MOL0     C17769   6.105  10.717   6.229  0.3449  0.1703 -0.5190
  873MOL0     N17770   5.689  10.800   5.614 -0.2444  1.0499 -0.5041
  873MOL0     N17771   5.702  10.790   5.486  0.4736  0.6755 -0.2783
  873MOL0     C17772   6.616  10.477   4.794  0.5106 -0.2073 -0.7202
  873MOL0     C17773   6.660  10.600   4.740 -0.5738 -0.4587  0.2226
  873MOL0     C17774   6.710  11.068   4.720 -0.1878  0.2961 -0.3303
  873MOL0     C17775   6.705  11.184   4.791 -1.3187 -0.5265  0.3232
  873MOL0     C17776   6.761  11.300   4.748  0.0109  0.3049 -0.6537
  873MOL0     C17777   6.836  11.297   4.628  0.9822 -0.1120  0.1515
  873MOL0     O17778   6.875  11.414   4.580 -0.6039  0.6467 -0.3834
  873MOL0     C17779   6.971  11.407   4.461 -1.0654 -0.2175 -1.1569
  873MOL0     C17780   7.030  11.556   4.435 -0.0743  0.4482  0.0709
  873MOL0     C17781   7.152  11.537   4.343  0.4503 -0.3176  0.7408
  873MOL0     C17782   7.186  11.668   4.279 -0.1477 -0.5019 -0.2517
  873MOL0     C17783   7.313  11.647   4.210  0.1420 -0.2320  0.8537
  873MOL0     C17784   7.426  11.641   4.162 -0.3036  0.8314  0.4216
  873MOL0     C17785   6.848  11.176   4.555 -0.4296  0.9325  0.0043
  873MOL0     C17786   6.772  11.066   4.596  0.0230 -0.0700  1.5761
  873MOL0     C17787   6.771  10.951   4.498  0.1513 -0.6095 -0.4321
  873MOL0     H17788   6.592  10.799   5.002 -1.7278  0.9368 -1.0227
  873MOL0     H17789   6.524  10.595   5.101 -0.1325  0.8692  1.0278
  873MOL0     H17790   6.396  10.227   5.082  0.0497  0.2941  4.0347
  873MOL0     H17791   6.420  10.396   5.150 -0.0612  1.4714 -1.5069
  873MOL0     H17792   6.278  10.346   4.893 -0.4440 -1.1208  0.7062
  873MOL0     H17793   6.271  10.487   5.002 -2.9849  0.8413 -0.9974
  873MOL0     H17794   6.182  10.258   5.156 -2.9008 -1.7713 -1.3560
  873MOL0     H17795   6.091  10.280   5.002 -1.3987  2.1022 -1.0887
  873MOL0     H17796   6.133  10.515   5.187  0.7255 -0.7288  2.7749
  873MOL0     H17797   6.015  10.470   5.056 -1.5710 -0.7003  0.5865
  873MOL0     H17798   5.964  10.257   5.208 -3.8517  0.7949 -2.5483
  873MOL0     H17799   6.020  10.349   5.340  0.4573 -0.4771  0.0038
  873MOL0     H17800   5.798  10.398   5.157  3.8057 -2.1120 -1.7758
  873MOL0     H17801   5.786  10.385   5.336  0.0571  2.4107 -0.3875
  873MOL0     H17802   5.880  10.634   5.191 -1.5803  2.3940  0.2412
  873MOL0     H17803   5.889  10.590   5.367 -3.6564  0.2968  1.3006
  873MOL0     H17804   5.656  10.699   5.241 -5.0250 -0.4786  1.3116
  873MOL0     H17805   5.616  10.541   5.282  1.4164 -0.4123 -2.9478
  873MOL0     H17806   5.659  10.471   5.558  0.1882  0.7060 -0.4552
  873MOL0     H17807   5.601  10.703   5.854  2.8559  1.4235 -0.6882
  873MOL0     H17808   5.576  10.536   5.812  0.2487 -0.6121 -0.7997
  873MOL0     H17809   5.761  10.510   5.951  0.3338  2.5612  1.9600
  873MOL0     H17810   5.831  10.501   5.789 -0.4076  1.1200  0.0069
  873MOL0     H17811   5.801  10.732   6.003  2.1650  1.1075  1.4288
  873MOL0     H17812   5.877  10.764   5.841  2.3567 -1.4489 -1.6486
  873MOL0     H17813   6.046  10.594   5.890 -0.0586  0.2220 -0.7386
  873MOL0     H17814   5.994  10.585   6.046 -1.4950 -1.4781 -1.9411
  873MOL0     H17815   6.266  10.921   6.019 -3.9528  1.4490 -0.1601
  873MOL0     H17816   6.406  10.964   6.228  1.4613 -2.1117 -1.0625
  873MOL0     H17817   6.169  10.803   6.752  0.4033 -2.6347  3.1354
  873MOL0     H17818   6.195  10.911   6.967 -0.1228 -0.6382  1.0946
  873MOL0     H17819   6.621  11.011   7.134  0.2568  0.1204  3.2257
  873MOL0     H17820   6.547  11.158   7.085  3.4273 -0.8933 -0.2155
  873MOL0     H17821   6.382  11.069   7.310 -0.3033 -0.1849  0.8698
  873MOL0     H17822   6.504  10.944   7.301 -1.5246 -0.9078 -0.4820
  873MOL0     H17823   6.678  11.125   7.349  0.6507  3.6542 -0.6897
  873MOL0     H17824   6.549  11.253   7.331 -1.1692  0.8263  2.3669
  873MOL0     H17825   6.576  11.050   7.554 -0.5857 -0.0251 -0.4600
  873MOL0     H17826   6.435  11.164   7.526 -0.2397  1.3505 -0.2496
  873MOL0     H17827   6.583  11.353   7.544  1.8921 -0.1160 -2.3481
  873MOL0     H17828   6.725  11.250   7.556 -0.2973  0.4406 -1.7230
  873MOL0     H17829   6.477  11.253   7.735  0.0758  0.0261 -1.1742
  873MOL0     H17830   6.623  11.160   7.775 -0.8151 -1.8270 -2.6191
  873MOL0     H17831   6.613  11.463   7.757  3.4988  2.0005 -0.8797
  873MOL0     H17832   6.753  11.374   7.804  0.4034 -1.9104  0.5646
  873MOL0     H17833   6.631  11.484   7.980  0.7700  0.6229 -0.8039
  873MOL0     H17834   6.486  11.373   7.941  0.2710 -0.2954 -2.9322
  873MOL0     H17835   6.624  10.938   6.912  2.5445 -0.4402 -2.8582
  873MOL0     H17836   6.587  10.812   6.687  1.4685 -0.6642  2.1840
  873MOL0     H17837   6.169  10.687   6.439  0.8996  2.3460  1.3603
  873MOL0     H17838   6.022  10.649   6.243  0.6398  0.3361  2.9570
  873MOL0     H17839   6.614  10.390   4.730  1.3683 -0.8686  0.1257
  873MOL0     H17840   6.694  10.616   4.639 -0.9502  2.1967  0.4341
  873MOL0     H17841   6.651  11.195   4.885  2.1565  1.9549  2.2519
  873MOL0     H17842   6.743  11.391   4.803 -0.9114 -2.0051  3.2846
  873MOL0     H17843   6.907  11.377   4.378  1.1089 -0.6734 -2.7654
  873MOL0     H17844   7.046  11.330   4.482  0.0766  1.1910  0.1802
  873MOL0     H17845   7.056  11.597   4.533  0.3782  3.2607 -1.1184
  873MOL0     H17846   6.951  11.617   4.392 -2.2211 -1.6057  0.8852
  873MOL0     H17847   7.136  11.471   4.257 -3.3020 -1.9459  2.4707
  873MOL0     H17848   7.236  11.495   4.399 -0.3272 -2.2687  0.5175
  873MOL0     H17849   7.111  11.709   4.211  0.1727  3.3446  1.4118
  873MOL0     H17850   7.194  11.754   4.347  0.5632 -0.5142 -0.3105
  873MOL0     H17851   7.523  11.632   4.118 -1.8298 -1.0713 -2.9092
  873MOL0     H17852   6.904  11.162   4.463 -0.9678 -4.0802  0.1203
  873MOL0     H17853   6.787  10.993   4.398  1.7741  2.0423  0.8424
  873MOL0     H17854   6.853  10.882   4.523  0.6376  0.7572  2.0710
  873MOL0     H17855   6.680  10.892   4.510  0.6812 -0.8581  3.8078
  874MOL0     O17856   2.011   6.351   6.585  0.1071  0.3170  0.2744
  874MOL0     C17857   1.967   6.236   6.572 -0.1046 -0.5961 -0.9440
  874MOL0     O17858   1.837   6.204   6.569 -0.4271  0.1878 -1.1917
  874MOL0     C17859   1.737   6.307   6.580  0.4564  0.3967  1.2655
  874MOL0     C17860   1.657   6.318   6.462 -0.5580 -0.8327 -0.5886
  874MOL0     C17861   1.554   6.415   6.466 -1.1191  1.0334 -0.1369
  874MOL0     C17862   1.547   6.513   6.566  0.2037 -0.8260  0.6845
  874MOL0     O17863   1.467   6.618   6.555 -0.7633  0.2905 -0.7553
  874MOL0     C17864   1.506   6.737   6.634 -0.6038 -0.1458 -0.1130
  874MOL0     C17865   1.435   6.854   6.563 -0.3413  0.4084  0.7172
  874MOL0     C17866   1.492   6.995   6.593 -0.4498 -0.5236 -0.0552
  874MOL0     C17867   1.458   7.109   6.492  0.4301  0.1710  0.0359
  874MOL0     C17868   1.528   7.235   6.522  0.1983 -0.0823  0.0161
  874MOL0     C17869   1.444   7.315   6.628  0.3069  0.8695  0.9064
  874MOL0     C17870   1.481   7.460   6.632 -0.9621 -0.7738 -0.7022
  874MOL0     C17871   1.444   7.537   6.766  0.4424 -0.2171 -0.4015
  874MOL0     N17872   1.475   7.676   6.746  0.5492 -0.7716  0.4255
  874MOL0     C17873   1.598   7.736   6.762 -0.1534 -0.1560 -0.0415
  874MOL0     C17874   1.580   7.871   6.747  0.4197  0.0112  0.4444
  874MOL0     C17875   1.685   7.981   6.761  0.7340 -0.4878  0.1263
  874MOL0     C17876   1.687   8.039   6.902 -0.3838 -0.1969  0.4193
  874MOL0     C17877   1.745   7.952   6.996 -0.2969  0.1023 -0.2795
  874MOL0     C17878   1.734   8.000   7.141 -0.3195  0.8176  0.6046
  874MOL0     O17879   1.779   8.141   7.156 -0.7214  0.5997  0.4318
  874MOL0     C17880   1.823   8.168   7.280  0.3469 -0.0489 -0.3916
  874MOL0     C17881   1.911   8.270   7.298 -0.1890  0.5438 -0.0990
  874MOL0     C17882   1.951   8.317   7.421  0.3163  0.4819 -0.4802
  874MOL0     C17883   1.920   8.249   7.544  0.1364 -0.3242  0.2012
  874MOL0     C17884   1.986   8.293   7.666  0.0851  0.3029 -0.0916
  874MOL0     O17885   1.919   8.255   7.780 -0.1156  0.3177 -0.5594
  874MOL0     C17886   1.951   8.310   7.896 -0.5903  0.3126 -0.8605
  874MOL0     C17887   1.925   8.443   7.932 -0.4114 -0.2289  0.1050
  874MOL0     C17888   1.948   8.480   8.072 -0.2708  0.1644  0.7859
  874MOL0     C17889   2.002   8.390   8.166 -0.0796 -0.5183  0.1210
  874MOL0     O17890   2.043   8.423   8.289  0.0004 -0.3517  0.0221
  874MOL0     C17891   1.980   8.518   8.369  0.5493 -0.3161 -0.5085
  874MOL0     C17892   2.049   8.540   8.506  0.0942 -2.1047  0.5139
  874MOL0     C17893   1.977   8.652   8.584  0.0400  0.1456  0.2300
  874MOL0     C17894   2.055   8.698   8.711 -0.1599 -0.4452 -0.0230
  874MOL0     C17895   1.977   8.790   8.797 -0.0158  0.5550 -0.0780
  874MOL0     C17896   2.060   8.867   8.897 -0.6305  0.6478  1.1311
  874MOL0     C17897   1.981   8.945   8.996 -0.2851  1.1591  0.7033
  874MOL0     C17898   2.060   9.023   9.091 -0.7567  0.2354  0.4521
  874MOL0    Cl17899   2.142   9.164   9.014  0.2374  0.1540 -0.3046
  874MOL0     C17900   2.029   8.264   8.116 -0.7793 -0.4996  0.4922
  874MOL0     C17901   1.989   8.217   7.990 -0.0132  0.1037  0.5255
  874MOL0     O17902   2.078   8.379   7.659 -0.1489 -0.5267 -1.0679
  874MOL0     C17903   1.834   8.142   7.526 -0.1370  0.3968  0.2884
  874MOL0     C17904   1.782   8.105   7.399 -0.0221  0.2340 -0.2570
  874MOL0     N17905   1.447   7.891   6.712 -1.1368 -0.2483 -0.8569
  874MOL0     N17906   1.385   7.774   6.711 -1.1835  0.1855 -0.0573
  874MOL0     C17907   1.623   6.481   6.683 -0.8204  0.8597 -0.0054
  874MOL0     C17908   1.714   6.383   6.692 -0.8176  0.7821  0.0405
  874MOL0     C17909   2.069   6.126   6.553 -0.1106 -0.2440 -0.2376
  874MOL0     C17910   2.187   6.137   6.629 -0.2537 -0.8385  0.8486
  874MOL0     C17911   2.291   6.039   6.628  1.2551  0.2512  0.4481
  874MOL0     C17912   2.277   5.930   6.542 -0.2298  0.5214 -0.5552
  874MOL0     O17913   2.373   5.834   6.519  0.0837 -0.4409  0.2600
  874MOL0     C17914   2.510   5.871   6.528 -0.9951  0.4262 -0.4715
  874MOL0     C17915   2.585   5.786   6.627 -0.7903 -0.7276  0.2443
  874MOL0     C17916   2.618   5.636   6.585  1.1724 -1.2013  0.6712
  874MOL0     C17917   2.659   5.566   6.708 -1.6030 -0.4741  0.5294
  874MOL0     C17918   2.559   5.551   6.797  0.1167 -0.4372  0.0410
  874MOL0     C17919   2.466   5.527   6.871 -0.1467  0.3276  0.0426
  874MOL0     C17920   2.153   5.912   6.482  0.2240  0.1005 -0.3246
  874MOL0     C17921   2.048   6.010   6.477 -0.4475  0.4989 -0.3670
  874MOL0     C17922   1.920   5.968   6.399  0.5342 -0.0388  0.5834
  874MOL0     H17923   1.687   6.261   6.375  0.0780  1.8363 -2.2449
  874MOL0     H17924   1.495   6.426   6.375 -0.9439  1.9997 -0.1430
  874MOL0     H17925   1.460   6.736   6.733 -0.1099  0.1730  0.1184
  874MOL0     H17926   1.614   6.747   6.628 -0.7792  0.9712 -2.9935
  874MOL0     H17927   1.328   6.841   6.579 -0.2121 -4.3808 -0.8718
  874MOL0     H17928   1.449   6.833   6.456  1.4125 -2.4100  1.3909
  874MOL0     H17929   1.600   6.997   6.604 -0.3465  0.6183 -1.0528
  874MOL0     H17930   1.448   7.016   6.691  0.5095  2.2111 -0.1178
  874MOL0     H17931   1.492   7.077   6.393  0.1391 -0.8472  0.2621
  874MOL0     H17932   1.352   7.133   6.493  0.6588  1.5079  2.7494
  874MOL0     H17933   1.623   7.201   6.563  1.8462 -1.0768 -4.0879
  874MOL0     H17934   1.542   7.298   6.434  0.7540  0.0577  0.2056
  874MOL0     H17935   1.337   7.296   6.628  0.5615 -0.9441  2.8340
  874MOL0     H17936   1.455   7.265   6.724 -2.2571  1.4205  1.5688
  874MOL0     H17937   1.427   7.504   6.547 -1.9640 -0.1008  0.2488
  874MOL0     H17938   1.583   7.474   6.596 -0.7679 -1.0080 -0.2424
  874MOL0     H17939   1.336   7.540   6.786  0.8585  2.7260  2.2543
  874MOL0     H17940   1.495   7.494   6.852  0.6994  0.8492 -0.0111
  874MOL0     H17941   1.686   7.675   6.775 -0.4520 -1.3193 -2.7177
  874MOL0     H17942   1.788   7.950   6.739  1.2156  1.7885 -1.1070
  874MOL0     H17943   1.654   8.064   6.697  1.9868  0.2323  0.4251
  874MOL0     H17944   1.747   8.131   6.906 -0.7355  0.0922 -0.5081
  874MOL0     H17945   1.584   8.067   6.922 -0.9913 -0.6395 -1.7929
  874MOL0     H17946   1.853   7.941   6.982 -0.0950  0.2025  1.0383
  874MOL0     H17947   1.706   7.850   6.997  0.9786 -0.3997  0.4918
  874MOL0     H17948   1.810   7.946   7.197  1.9159  2.6182 -0.5368
  874MOL0     H17949   1.632   8.001   7.179 -0.3283  3.1116  0.6821
  874MOL0     H17950   1.969   8.307   7.214  1.7211  0.2160  1.0144
  874MOL0     H17951   2.016   8.403   7.415 -0.7451  1.3500  0.0589
  874MOL0     H17952   1.904   8.530   7.870  0.4266  0.2629  0.4867
  874MOL0     H17953   1.930   8.587   8.084  0.0161  0.3304 -0.1562
  874MOL0     H17954   1.981   8.616   8.322  4.5992 -0.6761 -1.5321
  874MOL0     H17955   1.874   8.492   8.380 -0.2466  1.9360 -2.2237
  874MOL0     H17956   2.044   8.447   8.564 -1.6853 -1.1237  2.0359
  874MOL0     H17957   2.155   8.556   8.485 -0.1373  1.9018  1.5876
  874MOL0     H17958   1.975   8.739   8.518  3.0021  0.6865  0.7268
  874MOL0     H17959   1.878   8.610   8.603  0.2299 -1.8771 -2.5791
  874MOL0     H17960   2.146   8.743   8.670 -0.2017 -1.2783 -1.1015
  874MOL0     H17961   2.099   8.618   8.772  3.3579  2.9649  2.4105
  874MOL0     H17962   1.906   8.722   8.846  0.1186 -0.1972 -0.8898
  874MOL0     H17963   1.916   8.855   8.734  1.7933 -0.5819 -3.2073
  874MOL0     H17964   2.140   8.807   8.942  0.3036  1.1259  0.1359
  874MOL0     H17965   2.124   8.941   8.849 -0.7899 -1.5845 -3.0127
  874MOL0     H17966   1.929   8.880   9.067  0.9264  0.8779  1.3609
  874MOL0     H17967   1.907   9.004   8.942  1.5832  1.2542 -1.9481
  874MOL0     H17968   2.010   9.068   9.177  1.3991  0.9410  1.4156
  874MOL0     H17969   2.141   8.955   9.119  2.4350  2.6200 -2.0983
  874MOL0     H17970   2.074   8.201   8.192  0.0365 -1.3725 -0.6576
  874MOL0     H17971   2.020   8.114   7.975 -0.7585 -0.0729  0.1365
  874MOL0     H17972   1.798   8.078   7.606 -0.6747 -0.1059 -0.3404
  874MOL0     H17973   1.702   8.032   7.400  0.2311 -0.1014 -1.7390
  874MOL0     H17974   1.600   6.531   6.777  2.3157  1.0055  0.7909
  874MOL0     H17975   1.779   6.366   6.777  0.1904 -0.1362 -0.8771
  874MOL0     H17976   2.202   6.223   6.693 -0.3441  0.2784 -0.5733
  874MOL0     H17977   2.380   6.039   6.690  2.2713 -3.7939 -0.6509
  874MOL0     H17978   2.526   5.976   6.554 -0.2806 -0.2530  2.0542
  874MOL0     H17979   2.553   5.856   6.429 -3.8350 -1.6579 -1.5208
  874MOL0     H17980   2.518   5.786   6.713 -1.3630 -0.4637 -0.1898
  874MOL0     H17981   2.681   5.831   6.653 -1.1964 -0.5341  1.4514
  874MOL0     H17982   2.694   5.639   6.506  0.7080  0.0769  0.2460
  874MOL0     H17983   2.535   5.591   6.530 -2.3959  3.3484  1.7084
  874MOL0     H17984   2.714   5.478   6.673  1.5617  1.7151 -0.4773
  874MOL0     H17985   2.742   5.614   6.761 -2.1346  0.7507  0.2792
  874MOL0     H17986   2.385   5.497   6.935 -1.0729 -0.0936 -1.2802
  874MOL0     H17987   2.148   5.819   6.426 -3.1934  0.7966 -1.4170
  874MOL0     H17988   1.887   6.049   6.333  1.5557 -0.3362 -0.3206
  874MOL0     H17989   1.942   5.884   6.334  0.3215  2.3553 -2.8248
  874MOL0     H17990   1.838   5.939   6.466  2.5483  0.8184  3.6725
  875MOL0     O17991  11.211   7.782   8.681  0.1384  0.7489 -0.4437
  875MOL0     C17992  11.153   7.803   8.576 -0.1785  0.2713 -0.2820
  875MOL0     O17993  11.227   7.842   8.460  0.3388 -0.2752  1.0942
  875MOL0     C17994  11.327   7.932   8.465 -0.9359  0.0309 -0.7522
  875MOL0     C17995  11.449   7.918   8.531  0.8495  1.1430 -0.1179
  875MOL0     C17996  11.546   8.018   8.526  0.3700 -0.6054  0.1208
  875MOL0     C17997  11.538   8.131   8.456 -0.5408  0.3518 -0.3475
  875MOL0     O17998  11.653   8.215   8.450 -0.5491  0.4852 -0.0617
  875MOL0     C17999  11.656   8.333   8.363 -0.9020 -0.2970 -0.0326
  875MOL0     C18000  11.778   8.426   8.371 -0.4500 -0.4287 -0.9552
  875MOL0     C18001  11.760   8.535   8.280 -0.7478  0.4262 -0.2379
  875MOL0     C18002  11.879   8.622   8.299 -0.1169  0.1553  0.3662
  875MOL0     C18003  11.894   8.725   8.183 -0.6409 -0.3946 -0.5160
  875MOL0     C18004  11.781   8.834   8.179  0.2946 -0.2296  0.2376
  875MOL0     C18005  11.831   8.956   8.108 -0.1553 -0.0155  0.8938
  875MOL0     C18006  11.727   9.062   8.095  0.3087 -0.0782 -1.4949
  875MOL0     N18007  11.599   9.005   8.049  1.2238 -0.3462  0.0869
  875MOL0     C18008  11.497   8.966   8.130 -0.5958 -0.4091 -1.2565
  875MOL0     C18009  11.378   8.979   8.068 -0.3569  0.0175  0.6136
  875MOL0     C18010  11.247   8.953   8.136 -0.6158 -0.2706 -0.1908
  875MOL0     C18011  11.192   9.082   8.206 -0.6809 -0.8342  0.2450
  875MOL0     C18012  11.054   9.053   8.266 -0.5169  0.6380  0.6760
  875MOL0     C18013  10.980   9.179   8.318  0.6801 -0.9990 -0.3303
  875MOL0     O18014  11.050   9.266   8.405  0.5039 -0.6569  0.0969
  875MOL0     C18015  11.010   9.394   8.414 -0.1273  0.7890  0.1778
  875MOL0     C18016  11.104   9.497   8.438  0.2220  0.0731 -0.5836
  875MOL0     C18017  11.074   9.632   8.429  1.4913  0.7977  0.1395
  875MOL0     C18018  10.938   9.666   8.430  0.5255 -0.2818  0.7196
  875MOL0     C18019  10.897   9.809   8.446  0.4328 -0.1496 -0.0194
  875MOL0     O18020  10.771   9.832   8.438  0.8324  0.6440  1.0911
  875MOL0     C18021  10.712   9.939   8.486  0.0853 -0.3876 -0.6799
  875MOL0     C18022  10.643   9.925   8.609  0.0159  0.3530  0.0745
  875MOL0     C18023  10.594  10.034   8.676  1.3060 -0.2895  0.6309
  875MOL0     C18024  10.596  10.155   8.612  0.2927 -0.8340 -0.2975
  875MOL0     O18025  10.533  10.258   8.667 -0.0285  0.4206 -0.1906
  875MOL0     C18026  10.420  10.227   8.747  0.1801 -0.1763 -0.6372
  875MOL0     C18027  10.308  10.339   8.755 -0.6580 -0.0188  0.3745
  875MOL0     C18028  10.241  10.377   8.618  0.6184  0.5558  1.6218
  875MOL0     C18029  10.125  10.472   8.629 -1.1373 -0.2273 -0.3021
  875MOL0     C18030  10.013  10.434   8.731 -0.7276 -0.1406  0.0477
  875MOL0     C18031   9.899  10.536   8.739  0.8395 -0.8917 -0.7669
  875MOL0     C18032   9.781  10.497   8.816  0.8163  0.4187 -0.2640
  875MOL0     C18033   9.695  10.625   8.859  0.2141 -0.4134  0.2707
  875MOL0    Cl18034   9.610  10.685   8.711 -0.3085  0.0223 -0.4153
  875MOL0     C18035  10.643  10.179   8.485  1.0377  0.1462  0.6002
  875MOL0     C18036  10.724  10.072   8.430 -0.1758  0.6017  0.3528
  875MOL0     O18037  10.986   9.885   8.493  0.4426 -0.2594 -0.7090
  875MOL0     C18038  10.840   9.563   8.400 -0.4166  0.0874  0.4643
  875MOL0     C18039  10.879   9.427   8.387 -0.0149 -0.4076 -1.2379
  875MOL0     N18040  11.412   9.054   7.952  0.4478  0.4846 -0.0593
  875MOL0     N18041  11.544   9.062   7.939 -0.4512 -0.2219 -0.3732
  875MOL0     C18042  11.416   8.155   8.393  0.3837  0.7066 -0.2097
  875MOL0     C18043  11.314   8.060   8.404  0.1562  0.8343 -0.7931
  875MOL0     C18044  11.009   7.759   8.571 -0.0196  0.0960 -0.2320
  875MOL0     C18045  10.971   7.679   8.460 -0.3511 -0.8228  0.3197
  875MOL0     C18046  10.847   7.628   8.445 -0.3205  0.6630  0.1480
  875MOL0     C18047  10.753   7.652   8.543  0.0921 -0.0714 -0.6782
  875MOL0     O18048  10.631   7.577   8.537 -0.5158 -0.3521 -0.4088
  875MOL0     C18049  10.564   7.538   8.664 -0.8735 -0.1178  0.0882
  875MOL0     C18050  10.446   7.441   8.627 -0.8482  0.1033  0.1204
  875MOL0     C18051  10.357   7.508   8.523  0.5742  0.2768  0.6175
  875MOL0     C18052  10.217   7.438   8.519  0.0914  0.1013  0.2226
  875MOL0     C18053  10.147   7.436   8.646 -0.2348  0.3519 -0.3040
  875MOL0     C18054  10.100   7.432   8.754 -0.1620  0.1710  1.1453
  875MOL0     C18055  10.785   7.739   8.657 -0.3856 -0.1127  0.8693
  875MOL0     C18056  10.914   7.789   8.672 -0.8197 -0.1397 -0.6262
  875MOL0     C18057  10.948   7.853   8.805 -0.2514  0.6487  0.3498
  875MOL0     H18058  11.475   7.824   8.580  1.1597  1.9303  1.2814
  875MOL0     H18059  11.635   7.997   8.585  1.1410 -2.6528 -1.6572
  875MOL0     H18060  11.642   8.301   8.260  0.4487  0.2466 -0.4116
  875MOL0     H18061  11.568   8.394   8.386 -0.5040  1.2768 -2.4163
  875MOL0     H18062  11.869   8.367   8.358 -0.8345 -1.2195 -0.1593
  875MOL0     H18063  11.790   8.460   8.475  0.7388 -2.4999 -0.3592
  875MOL0     H18064  11.668   8.589   8.307 -1.7512 -1.0696 -0.5405
  875MOL0     H18065  11.744   8.506   8.175 -0.1027  2.4819 -0.9546
  875MOL0     H18066  11.883   8.664   8.400  1.0841 -0.5008  0.6125
  875MOL0     H18067  11.962   8.554   8.277  0.3081  1.2519 -1.6166
  875MOL0     H18068  11.995   8.767   8.187 -0.4925 -0.8077  1.3473
  875MOL0     H18069  11.886   8.671   8.089  2.5982 -0.6519 -0.7507
  875MOL0     H18070  11.701   8.787   8.121  1.2330  1.9404 -3.0651
  875MOL0     H18071  11.738   8.851   8.278  1.8710 -0.3132  0.9710
  875MOL0     H18072  11.869   8.928   8.010  0.4426  1.6986  0.5873
  875MOL0     H18073  11.916   8.998   8.163  0.6081  1.9470 -1.6125
  875MOL0     H18074  11.708   9.114   8.190 -1.2643 -0.1472 -1.7463
  875MOL0     H18075  11.774   9.134   8.027  4.0055  0.3498  1.1923
  875MOL0     H18076  11.517   8.936   8.233  1.5591  0.0798 -1.4755
  875MOL0     H18077  11.174   8.910   8.067  0.7096 -0.4929 -1.5100
  875MOL0     H18078  11.254   8.877   8.214 -0.6368  0.7283  0.8049
  875MOL0     H18079  11.264   9.116   8.281 -0.8736 -0.9716  0.4958
  875MOL0     H18080  11.194   9.166   8.136 -0.5553 -0.6800  0.4317
  875MOL0     H18081  11.079   8.995   8.355  1.1312 -0.6136 -0.5330
  875MOL0     H18082  10.992   8.987   8.204 -0.0315 -0.3160  1.1826
  875MOL0     H18083  10.881   9.156   8.359 -0.1054  3.3764  0.6711
  875MOL0     H18084  10.970   9.233   8.223  1.5350  1.2951  0.8177
  875MOL0     H18085  11.206   9.462   8.439  0.6783  1.1775 -2.8750
  875MOL0     H18086  11.160   9.697   8.439  2.3067 -0.4875  2.0224
  875MOL0     H18087  10.628   9.824   8.644 -0.8558  0.5608  0.3323
  875MOL0     H18088  10.537  10.009   8.765  2.8798 -1.2944  1.4057
  875MOL0     H18089  10.366  10.140   8.709 -2.7539  0.3205  2.0388
  875MOL0     H18090  10.457  10.212   8.849  0.3935  3.4421 -0.0615
  875MOL0     H18091  10.232  10.315   8.830 -1.0182 -1.7832 -0.5017
  875MOL0     H18092  10.353  10.429   8.799 -2.8733 -0.2545  3.4570
  875MOL0     H18093  10.311  10.424   8.548 -1.1451  2.0169  0.7607
  875MOL0     H18094  10.205  10.283   8.575  1.2149  0.9327  0.2454
  875MOL0     H18095  10.078  10.503   8.535 -2.2208 -0.6887  0.0668
  875MOL0     H18096  10.175  10.564   8.659 -2.1415  1.1430 -2.5376
  875MOL0     H18097  10.057  10.423   8.831  0.8551  0.0211 -0.6039
  875MOL0     H18098   9.981  10.335   8.698  3.1057 -1.5515 -0.0190
  875MOL0     H18099   9.948  10.622   8.786  3.3087 -3.1013  0.9510
  875MOL0     H18100   9.859  10.567   8.642 -1.8008  1.7194  0.9895
  875MOL0     H18101   9.805  10.443   8.908 -3.0540 -2.8000 -0.8726
  875MOL0     H18102   9.713  10.428   8.765  0.0094  1.0104 -0.0266
  875MOL0     H18103   9.620  10.611   8.938 -0.5489 -0.3503 -0.4262
  875MOL0     H18104   9.771  10.696   8.894  0.3644 -1.1802  1.5817
  875MOL0     H18105  10.651  10.283   8.457  0.5639 -0.1124 -0.5766
  875MOL0     H18106  10.774  10.083   8.334  0.9669 -1.6351  0.6317
  875MOL0     H18107  10.736   9.591   8.387 -0.0533  1.8661  1.0960
  875MOL0     H18108  10.802   9.352   8.377 -2.4414  1.9815 -1.6245
  875MOL0     H18109  11.412   8.254   8.348 -6.3411  1.2548  0.6753
  875MOL0     H18110  11.227   8.087   8.346 -0.9475 -2.1476 -0.6978
  875MOL0     H18111  11.043   7.648   8.384 -1.6424 -0.5282 -1.0719
  875MOL0     H18112  10.814   7.556   8.370 -0.4081  1.0910 -0.2275
  875MOL0     H18113  10.535   7.630   8.715 -4.0645 -1.0925  0.2624
  875MOL0     H18114  10.629   7.477   8.728  2.6656  0.1763 -2.8608
  875MOL0     H18115  10.395   7.432   8.724  0.9402  3.3093  1.5258
  875MOL0     H18116  10.473   7.339   8.600 -2.5421 -0.3422 -0.0089
  875MOL0     H18117  10.402   7.487   8.426 -0.1300 -1.4290  0.6197
  875MOL0     H18118  10.359   7.615   8.545 -1.4532  0.8175 -1.4391
  875MOL0     H18119  10.154   7.487   8.444 -2.6173 -1.9788  1.0204
  875MOL0     H18120  10.234   7.340   8.473 -0.0756  0.9009 -1.6318
  875MOL0     H18121  10.036   7.431   8.840 -2.1464 -5.9148  0.0496
  875MOL0     H18122  10.716   7.753   8.739 -1.9561 -1.8938 -0.0516
  875MOL0     H18123  11.021   7.930   8.779  1.4797 -1.7006 -2.3998
  875MOL0     H18124  10.868   7.916   8.843  1.4165  5.6085 -3.2419
  875MOL0     H18125  10.984   7.776   8.874 -6.3160 -2.4248  0.7047
  876MOL0     O18126   9.667   1.584   6.947  0.0140 -0.5810 -0.4106
  876MOL0     C18127   9.595   1.598   7.045  0.0028  0.3753  0.6178
  876MOL0     O18128   9.465   1.650   7.043  0.4006 -0.0299 -0.2859
  876MOL0     C18129   9.402   1.661   6.926  1.0907  0.7196  0.9450
  876MOL0     C18130   9.331   1.782   6.911  0.2907 -0.7560  1.0647
  876MOL0     C18131   9.252   1.799   6.793 -0.1063 -0.6775  0.3033
  876MOL0     C18132   9.242   1.700   6.695  0.6384  0.5710 -0.1245
  876MOL0     O18133   9.155   1.734   6.594 -0.4385  1.1937  0.2793
  876MOL0     C18134   9.117   1.648   6.489 -0.0513 -0.0494  0.6949
  876MOL0     C18135   9.214   1.680   6.372  0.4799 -0.2825  1.1402
  876MOL0     C18136   9.361   1.649   6.385  0.7018  0.0730 -0.4626
  876MOL0     C18137   9.447   1.677   6.257 -0.2281 -0.2048 -1.0740
  876MOL0     C18138   9.573   1.582   6.245 -0.1817 -0.2854  0.1947
  876MOL0     C18139   9.652   1.618   6.378  0.4251 -0.4184 -1.0849
  876MOL0     C18140   9.801   1.642   6.362 -0.3644  0.4559  0.1183
  876MOL0     C18141   9.868   1.677   6.502  0.4823  0.1937  0.1274
  876MOL0     N18142   9.813   1.805   6.554 -0.2407 -0.5693 -0.6059
  876MOL0     C18143   9.722   1.813   6.655  0.5594  0.1301 -0.3639
  876MOL0     C18144   9.669   1.941   6.654  0.2694  0.2282  0.1315
  876MOL0     C18145   9.578   2.002   6.749  0.6214 -0.0626 -0.3828
  876MOL0     C18146   9.649   2.073   6.877  0.6771  0.0600 -0.1714
  876MOL0     C18147   9.533   2.119   6.967  0.0353  1.5546 -0.0483
  876MOL0     C18148   9.568   2.205   7.088 -0.2936  0.5082  0.2693
  876MOL0     O18149   9.643   2.129   7.175  0.2861 -0.0617  0.2791
  876MOL0     C18150   9.724   2.199   7.267 -0.9621 -0.2635  0.4583
  876MOL0     C18151   9.827   2.130   7.333 -0.9964  0.3668  0.4573
  876MOL0     C18152   9.901   2.187   7.429  0.0310  0.6655 -0.4206
  876MOL0     C18153   9.881   2.321   7.472  0.1462 -0.9947  0.2085
  876MOL0     C18154   9.958   2.382   7.587 -0.1931  0.6141  0.1447
  876MOL0     O18155  10.101   2.371   7.598 -0.3968  0.3002 -0.7351
  876MOL0     C18156  10.166   2.454   7.678 -0.1022 -1.2712  0.3459
  876MOL0     C18157  10.192   2.416   7.807  0.8158  0.2527  0.1133
  876MOL0     C18158  10.258   2.498   7.892  0.2273  0.9059 -0.5163
  876MOL0     C18159  10.303   2.614   7.843  0.6676 -0.2555  0.0307
  876MOL0     O18160  10.378   2.698   7.923 -0.4727 -0.2494 -0.0077
  876MOL0     C18161  10.507   2.748   7.869  0.0282  0.4534  0.6793
  876MOL0     C18162  10.588   2.811   7.982  1.1433 -0.4365 -1.1427
  876MOL0     C18163  10.523   2.943   8.041 -0.3768 -0.2120  0.1601
  876MOL0     C18164  10.606   3.012   8.151  0.3002 -0.5270  0.1432
  876MOL0     C18165  10.562   3.156   8.192  0.2004  0.4065 -0.2048
  876MOL0     C18166  10.653   3.206   8.305  0.0023 -0.7777 -0.3835
  876MOL0     C18167  10.630   3.361   8.330 -0.0333  0.3784 -0.4295
  876MOL0     C18168  10.702   3.400   8.465 -0.3926 -0.6542 -0.2930
  876MOL0    Cl18169  10.865   3.336   8.497 -0.2859  0.0205 -0.1260
  876MOL0     C18170  10.282   2.659   7.709 -0.1588 -0.0290  0.9500
  876MOL0     C18171  10.204   2.581   7.627  0.1924  0.0897  0.5079
  876MOL0     O18172   9.888   2.432   7.670  0.0085 -0.8319  0.7114
  876MOL0     C18173   9.778   2.398   7.406  0.5419 -0.3285 -0.1006
  876MOL0     C18174   9.704   2.338   7.302 -0.2239 -0.2363  0.2753
  876MOL0     N18175   9.738   2.017   6.559  0.6607  0.1916 -0.1451
  876MOL0     N18176   9.823   1.926   6.494  0.9294 -0.2417  0.4816
  876MOL0     C18177   9.312   1.580   6.718  0.0073 -0.6445  0.0025
  876MOL0     C18178   9.397   1.557   6.829  0.4542 -0.2955  0.3949
  876MOL0     C18179   9.655   1.549   7.169  0.1882  0.2437  0.1938
  876MOL0     C18180   9.564   1.501   7.261  0.1002 -0.0648 -0.6239
  876MOL0     C18181   9.613   1.463   7.389 -0.2683 -0.4943  0.4681
  876MOL0     C18182   9.755   1.467   7.421 -0.4102 -0.0167 -0.1593
  876MOL0     O18183   9.798   1.423   7.541  0.1928  0.5378 -1.3205
  876MOL0     C18184   9.852   1.517   7.625  0.1561 -0.0138 -0.0766
  876MOL0     C18185   9.877   1.467   7.768  0.0531  0.4127 -0.5783
  876MOL0     C18186   9.968   1.356   7.781  0.4588  0.3156  0.6983
  876MOL0     C18187   9.971   1.276   7.915  0.3375 -1.1080  0.5387
  876MOL0     C18188  10.066   1.160   7.914 -0.1011  0.3159 -0.6468
  876MOL0     C18189  10.156   1.076   7.916 -0.2732  0.7812 -0.8699
  876MOL0     C18190   9.844   1.492   7.320  0.2027 -0.6132  0.1663
  876MOL0     C18191   9.800   1.543   7.195 -0.5749  0.0673  0.1085
  876MOL0     C18192   9.910   1.585   7.097  0.0649 -0.8544  1.1387
  876MOL0     H18193   9.352   1.857   6.987  3.3829  0.9585 -1.2769
  876MOL0     H18194   9.201   1.893   6.774  1.4723  0.0834 -0.3420
  876MOL0     H18195   9.135   1.546   6.523  2.5883 -0.6629 -2.0437
  876MOL0     H18196   9.012   1.671   6.469  0.0396 -0.1198  0.1077
  876MOL0     H18197   9.197   1.782   6.335 -2.3792 -0.4553  1.7303
  876MOL0     H18198   9.180   1.614   6.291 -0.6688  3.0062 -1.3080
  876MOL0     H18199   9.362   1.541   6.399 -0.8264  0.2088  1.0510
  876MOL0     H18200   9.403   1.700   6.472  1.4083 -1.5687  0.1923
  876MOL0     H18201   9.383   1.661   6.170 -0.4833 -1.8105 -0.6115
  876MOL0     H18202   9.479   1.782   6.264  1.4591 -0.7224 -0.3040
  876MOL0     H18203   9.553   1.475   6.243  0.2591 -0.4215  1.6045
  876MOL0     H18204   9.621   1.609   6.151 -2.1469 -0.9658 -1.0663
  876MOL0     H18205   9.614   1.706   6.430 -0.2050 -3.1423  3.6753
  876MOL0     H18206   9.641   1.533   6.446 -3.5863  0.2592 -0.6359
  876MOL0     H18207   9.812   1.732   6.300  1.5660 -1.1323 -1.9774
  876MOL0     H18208   9.841   1.549   6.321 -3.1128 -1.4397  1.4350
  876MOL0     H18209   9.868   1.592   6.571 -1.3361 -1.6781 -1.9967
  876MOL0     H18210   9.970   1.697   6.468  1.9651 -1.7786  3.0320
  876MOL0     H18211   9.691   1.720   6.702  0.9655 -2.0947 -4.1376
  876MOL0     H18212   9.517   2.081   6.703  1.8617  1.6920  0.8759
  876MOL0     H18213   9.506   1.927   6.785 -1.6488  2.1784  0.0024
  876MOL0     H18214   9.725   2.011   6.925 -1.0642 -1.9681  0.1154
  876MOL0     H18215   9.691   2.168   6.844 -2.4056  2.0370  1.1325
  876MOL0     H18216   9.477   2.039   7.015  2.8500  0.1362  1.1322
  876MOL0     H18217   9.453   2.169   6.912 -0.2989 -0.7179 -1.7564
  876MOL0     H18218   9.474   2.243   7.128  0.2687  1.8379  0.3814
  876MOL0     H18219   9.619   2.288   7.039 -0.3075 -1.3432 -3.3019
  876MOL0     H18220   9.839   2.024   7.314 -0.7736  0.4200  0.2914
  876MOL0     H18221   9.977   2.125   7.475 -1.9996 -1.0060  0.8434
  876MOL0     H18222  10.150   2.323   7.844 -0.4525  0.6237 -0.3314
  876MOL0     H18223  10.275   2.465   7.994  5.4996  0.0266 -1.4126
  876MOL0     H18224  10.561   2.666   7.821 -0.9335  0.9857 -1.4630
  876MOL0     H18225  10.501   2.827   7.793 -2.1048 -0.7437 -0.4694
  876MOL0     H18226  10.596   2.738   8.063 -0.8162  0.1196 -0.4043
  876MOL0     H18227  10.691   2.833   7.951  0.7333  0.8781 -1.6483
  876MOL0     H18228  10.532   3.020   7.963  2.9963  0.4313  1.0136
  876MOL0     H18229  10.424   2.921   8.081 -0.6364 -4.3080 -2.1687
  876MOL0     H18230  10.707   3.018   8.108 -0.3323 -0.4710 -1.3969
  876MOL0     H18231  10.616   2.950   8.240  0.4928  0.2731  0.6848
  876MOL0     H18232  10.459   3.149   8.227  0.6429 -0.4858  1.0116
  876MOL0     H18233  10.571   3.226   8.109 -3.7174  0.2643 -0.9522
  876MOL0     H18234  10.639   3.146   8.395 -0.5086 -1.6185 -1.0092
  876MOL0     H18235  10.759   3.193   8.279 -0.0433 -1.4288 -0.2633
  876MOL0     H18236  10.524   3.375   8.352  0.3620  1.7087  0.7724
  876MOL0     H18237  10.669   3.423   8.250 -0.3232  4.8240  2.5419
  876MOL0     H18238  10.712   3.509   8.467  2.0387 -0.8451  1.1053
  876MOL0     H18239  10.646   3.383   8.557  1.2550 -0.8400  0.7123
  876MOL0     H18240  10.304   2.759   7.671  3.5261 -0.8636  0.4638
  876MOL0     H18241  10.177   2.608   7.525  0.2508 -1.7335 -0.0261
  876MOL0     H18242   9.750   2.498   7.439  1.1026 -0.3223  0.3751
  876MOL0     H18243   9.626   2.400   7.259 -0.7932 -0.7948  0.4770
  876MOL0     H18244   9.311   1.496   6.649  3.6178 -1.5437  0.8425
  876MOL0     H18245   9.445   1.459   6.835  0.5064 -0.4793 -1.8390
  876MOL0     H18246   9.459   1.498   7.235  0.5090 -1.5848 -2.3304
  876MOL0     H18247   9.549   1.421   7.466  1.1248 -0.2558  1.7874
  876MOL0     H18248   9.790   1.607   7.620  0.1996 -0.0449 -3.2649
  876MOL0     H18249   9.954   1.534   7.590 -0.5865  3.2988 -0.9444
  876MOL0     H18250   9.779   1.446   7.813 -0.0094  2.3227  0.3014
  876MOL0     H18251   9.922   1.548   7.827 -3.1024  1.5301  0.5437
  876MOL0     H18252  10.070   1.385   7.753  0.8505 -3.8196 -3.4301
  876MOL0     H18253   9.950   1.284   7.700  1.4752  1.4530 -0.5931
  876MOL0     H18254  10.003   1.345   7.993 -3.3162  0.1944  1.1163
  876MOL0     H18255   9.870   1.240   7.937  1.0567 -3.2546  0.5950
  876MOL0     H18256  10.224   0.997   7.941  0.6993  1.9363  0.3329
  876MOL0     H18257   9.949   1.486   7.346  0.1460  1.5382  1.0949
  876MOL0     H18258  10.010   1.581   7.142 -0.8931 -0.8737  3.4131
  876MOL0     H18259   9.903   1.525   7.006  2.8198 -0.2961  0.4563
  876MOL0     H18260   9.877   1.682   7.059  0.0155 -1.4036 -0.2698
  877MOL0     O18261   0.039   8.445   0.848  0.3318  0.1930  0.0661
  877MOL0     C18262   0.058   8.558   0.795 -0.9010  0.2275 -0.6876
  877MOL0     O18263   0.030   8.680   0.845  0.1008  0.3177  0.5287
  877MOL0     C18264  -0.003   8.673   0.974 -0.3662  0.5442 -0.1165
  877MOL0     C18265   0.058   8.764   1.063 -0.9653 -0.2208 -0.3698
  877MOL0     C18266   0.016   8.789   1.196 -0.4078 -0.2378 -0.5951
  877MOL0     C18267  -0.095   8.712   1.244 -0.0620  0.9806  0.5219
  877MOL0     O18268  -0.153   8.736   1.367 -0.6092  0.7300  0.1191
  877MOL0     C18269  -0.174   8.875   1.399  0.2369 -0.7942  0.7014
  877MOL0     C18270  -0.278   8.899   1.505 -0.9003  0.4475  0.4570
  877MOL0     C18271  -0.417   8.861   1.463  0.8786  0.2383 -0.3830
  877MOL0     C18272  -0.507   8.827   1.592 -0.0645  0.0250  0.4520
  877MOL0     C18273  -0.467   8.693   1.660 -0.7297 -0.7288 -0.1267
  877MOL0     C18274  -0.525   8.585   1.569  0.0716 -0.9066  0.2777
  877MOL0     C18275  -0.518   8.456   1.648  0.1105  0.7573  0.6972
  877MOL0     C18276  -0.541   8.336   1.566 -0.7194  0.3701 -0.1908
  877MOL0     N18277  -0.438   8.317   1.461  1.1403  0.3653  0.3006
  877MOL0     C18278  -0.300   8.318   1.467 -0.0056 -0.3273  0.6532
  877MOL0     C18279  -0.263   8.298   1.340  0.0507  0.1064  0.4566
  877MOL0     C18280  -0.121   8.297   1.293  0.1488  0.5017  0.6929
  877MOL0     C18281  -0.042   8.169   1.319 -0.0305  0.7723 -0.0305
  877MOL0     C18282   0.109   8.174   1.308  0.9051  0.7447 -0.4613
  877MOL0     C18283   0.166   8.216   1.169  1.0434  0.1848 -0.1816
  877MOL0     O18284   0.305   8.179   1.157  0.3867 -0.0049 -0.3928
  877MOL0     C18285   0.344   8.068   1.087 -0.1563 -0.3887  0.3085
  877MOL0     C18286   0.265   7.952   1.080 -0.1759  1.1063 -0.0833
  877MOL0     C18287   0.290   7.851   0.986  0.1907 -0.1635  0.6022
  877MOL0     C18288   0.411   7.853   0.908 -0.3008 -0.9018 -0.6591
  877MOL0     C18289   0.448   7.746   0.814  1.4779 -0.7593  0.4309
  877MOL0     O18290   0.562   7.754   0.738 -0.0222  0.6069  0.2349
  877MOL0     C18291   0.594   7.632   0.672  0.1501  0.0468 -0.5113
  877MOL0     C18292   0.710   7.560   0.708 -0.0870 -0.2172  0.7084
  877MOL0     C18293   0.752   7.455   0.636  0.0944 -0.4707  0.4445
  877MOL0     C18294   0.686   7.418   0.513 -0.2581 -1.1170 -0.2712
  877MOL0     O18295   0.736   7.298   0.463  0.3053  0.2467  0.3262
  877MOL0     C18296   0.665   7.237   0.358  0.5517  0.8943 -0.5721
  877MOL0     C18297   0.719   7.277   0.218 -0.2055  0.5468  0.0162
  877MOL0     C18298   0.696   7.159   0.129  0.7726 -0.5019  0.5741
  877MOL0     C18299   0.751   7.192  -0.014 -0.6938 -0.0106 -0.6266
  877MOL0     C18300   0.757   7.068  -0.106 -0.0316 -1.0733 -0.4292
  877MOL0     C18301   0.811   7.082  -0.248  0.2400  0.4425  0.4625
  877MOL0     C18302   0.858   6.957  -0.318  0.6031  0.4335 -0.0079
  877MOL0     C18303   0.756   6.868  -0.368 -0.9757 -0.4227  0.1454
  877MOL0    Cl18304   0.734   6.830  -0.537 -0.2502  0.2813 -0.0385
  877MOL0     C18305   0.581   7.499   0.473  0.0404 -0.3270  0.0963
  877MOL0     C18306   0.529   7.604   0.555 -0.2893  0.8854  0.0135
  877MOL0     O18307   0.362   7.658   0.805 -0.0168  0.1507 -0.5833
  877MOL0     C18308   0.508   7.957   0.933  0.0176 -0.3334 -0.5321
  877MOL0     C18309   0.462   8.067   1.015 -0.0084 -0.5505 -0.9019
  877MOL0     N18310  -0.380   8.282   1.268 -0.6134  0.0208 -0.9712
  877MOL0     N18311  -0.483   8.299   1.339 -0.1158  0.1571 -0.2360
  877MOL0     C18312  -0.145   8.614   1.161  0.3121 -0.2734 -0.0920
  877MOL0     C18313  -0.109   8.594   1.024 -0.8366 -0.8748  0.3131
  877MOL0     C18314   0.127   8.549   0.661 -0.1498  0.3927 -0.1947
  877MOL0     C18315   0.158   8.675   0.602  0.6433  0.2486 -0.6734
  877MOL0     C18316   0.248   8.680   0.497  0.0784 -0.4442  0.4576
  877MOL0     C18317   0.301   8.572   0.441  0.0116  0.9849  0.5112
  877MOL0     O18318   0.393   8.604   0.341  0.2734 -1.3161 -1.4346
  877MOL0     C18319   0.431   8.512   0.238 -0.2623 -0.6770  0.1949
  877MOL0     C18320   0.302   8.469   0.157 -0.6777 -0.0925 -0.2469
  877MOL0     C18321   0.251   8.585   0.075  0.8502 -0.1901 -0.9612
  877MOL0     C18322   0.129   8.549  -0.010  0.2892  0.7356 -0.3002
  877MOL0     C18323   0.009   8.514   0.073 -0.6293 -0.3383  0.1782
  877MOL0     C18324  -0.071   8.474   0.154 -0.0741  0.0438  0.1028
  877MOL0     C18325   0.282   8.442   0.503  0.4323 -0.0994 -0.1857
  877MOL0     C18326   0.190   8.426   0.610  0.0937 -0.0531 -0.3052
  877MOL0     C18327   0.170   8.286   0.660  0.1062  0.4306 -0.2522
  877MOL0     H18328   0.150   8.814   1.038  0.5937 -2.1565  1.1738
  877MOL0     H18329   0.066   8.870   1.247 -0.8218 -0.4723  0.1986
  877MOL0     H18330  -0.081   8.915   1.441  1.2648 -0.8107 -1.4328
  877MOL0     H18331  -0.188   8.939   1.312  1.9510 -1.9496 -0.4740
  877MOL0     H18332  -0.284   9.004   1.537 -1.1796  0.3222  0.8226
  877MOL0     H18333  -0.250   8.853   1.600  2.3065  3.2569  1.0508
  877MOL0     H18334  -0.425   8.776   1.394 -1.7759  0.2988 -0.2479
  877MOL0     H18335  -0.451   8.955   1.419  3.2354  2.5768  2.4327
  877MOL0     H18336  -0.511   8.908   1.665  1.5033  1.7520 -1.2869
  877MOL0     H18337  -0.604   8.832   1.542 -0.6160 -0.6701  1.4149
  877MOL0     H18338  -0.359   8.689   1.677 -0.6039  2.5340  0.6208
  877MOL0     H18339  -0.527   8.689   1.751  0.3676 -0.7450  0.6233
  877MOL0     H18340  -0.627   8.610   1.537  0.4021 -0.1129 -0.1747
  877MOL0     H18341  -0.471   8.581   1.474 -0.1873 -2.0793  0.1623
  877MOL0     H18342  -0.588   8.465   1.732  0.7636  3.9423  1.0382
  877MOL0     H18343  -0.420   8.446   1.696  0.1787 -0.0858  0.3990
  877MOL0     H18344  -0.541   8.245   1.626 -0.8427 -1.5721 -2.9375
  877MOL0     H18345  -0.647   8.343   1.539 -2.0535 -1.5244  3.9021
  877MOL0     H18346  -0.236   8.338   1.552 -0.2972  0.7301  0.6363
  877MOL0     H18347  -0.122   8.316   1.185  4.0173 -1.8323  0.0839
  877MOL0     H18348  -0.064   8.383   1.331  0.2775  0.3496  0.8441
  877MOL0     H18349  -0.063   8.138   1.422 -0.3853  2.0521  0.3049
  877MOL0     H18350  -0.079   8.075   1.276  4.2392 -1.4125  0.5035
  877MOL0     H18351   0.147   8.074   1.333 -0.5682  0.3950  0.4944
  877MOL0     H18352   0.152   8.230   1.392  0.6502 -1.0629  0.9522
  877MOL0     H18353   0.158   8.324   1.151  1.7355  0.7329  2.3974
  877MOL0     H18354   0.110   8.167   1.089 -1.1928  3.2520 -0.6831
  877MOL0     H18355   0.173   7.939   1.136 -0.7470  3.4713 -0.3720
  877MOL0     H18356   0.224   7.765   0.986  0.5701 -0.4626  0.1472
  877MOL0     H18357   0.773   7.597   0.789 -0.5394  0.6892  0.6532
  877MOL0     H18358   0.835   7.397   0.677 -0.1205 -1.3281 -0.2889
  877MOL0     H18359   0.683   7.130   0.376 -2.8920  0.4500  0.9468
  877MOL0     H18360   0.558   7.256   0.366 -0.1654 -2.7399  0.2868
  877MOL0     H18361   0.666   7.364   0.178 -0.7101  1.6445  2.8022
  877MOL0     H18362   0.826   7.298   0.228 -0.0361 -1.1125  3.1802
  877MOL0     H18363   0.734   7.061   0.161  1.8308 -1.0675 -2.0803
  877MOL0     H18364   0.588   7.140   0.127  0.1311  2.5607 -1.6342
  877MOL0     H18365   0.854   7.229  -0.011 -0.6652 -0.0805 -0.7572
  877MOL0     H18366   0.691   7.271  -0.061  2.1898  0.5458 -3.8072
  877MOL0     H18367   0.657   7.023  -0.113  0.5822 -2.8273  1.2440
  877MOL0     H18368   0.810   6.989  -0.053 -1.1889 -1.4713  0.1638
  877MOL0     H18369   0.745   7.133  -0.319  2.2244 -0.2384 -2.0387
  877MOL0     H18370   0.900   7.145  -0.242 -0.2438  1.8204 -3.7089
  877MOL0     H18371   0.931   6.900  -0.260  1.6621  0.3174 -1.4177
  877MOL0     H18372   0.921   6.995  -0.399  1.2436  3.0641  1.5844
  877MOL0     H18373   0.787   6.772  -0.326  0.5269 -0.8095 -1.7309
  877MOL0     H18374   0.660   6.905  -0.332 -0.4046  1.4094 -0.1011
  877MOL0     H18375   0.530   7.476   0.379 -1.8592  1.1721  0.7010
  877MOL0     H18376   0.446   7.666   0.521  1.0288  1.4061 -2.4703
  877MOL0     H18377   0.604   7.972   0.886  0.4103 -2.1994 -0.4060
  877MOL0     H18378   0.514   8.162   1.012 -1.5417  0.3102 -1.1249
  877MOL0     H18379  -0.230   8.554   1.193 -1.3461  0.7102 -2.4024
  877MOL0     H18380  -0.162   8.520   0.966 -0.8078 -0.9617  0.3980
  877MOL0     H18381   0.123   8.774   0.630 -0.7134 -0.5143  0.4220
  877MOL0     H18382   0.273   8.776   0.454 -3.5471  1.9367  3.0490
  877MOL0     H18383   0.468   8.426   0.295  0.6858 -0.9026 -0.7401
  877MOL0     H18384   0.509   8.554   0.174  0.6323  1.7339  2.6587
  877MOL0     H18385   0.223   8.426   0.218  1.1751 -4.8858 -0.7524
  877MOL0     H18386   0.333   8.391   0.086 -2.8024  2.2966 -4.1488
  877MOL0     H18387   0.323   8.644   0.018  0.4300  1.6165  0.2939
  877MOL0     H18388   0.202   8.655   0.143  0.2827  0.9886 -2.4987
  877MOL0     H18389   0.092   8.633  -0.070 -1.5299 -0.2876 -0.6963
  877MOL0     H18390   0.151   8.471  -0.083 -1.8803  0.2643 -0.5283
  877MOL0     H18391  -0.145   8.429   0.216 -0.0886 -0.8199 -0.5269
  877MOL0     H18392   0.320   8.350   0.460  0.5393  0.4336 -1.2715
  877MOL0     H18393   0.068   8.273   0.696  0.0837 -2.4686 -1.1091
  877MOL0     H18394   0.196   8.216   0.580 -0.7606 -2.8094  2.1259
  877MOL0     H18395   0.235   8.253   0.742  1.7978 -0.0082 -1.7198
  878MOL0     O18396   9.770   2.876   5.740  0.6270 -0.5043 -0.1746
  878MOL0     C18397   9.844   2.785   5.743  0.2845 -1.0281 -0.9570
  878MOL0     O18398   9.929   2.751   5.641  0.0051 -0.0931  0.8017
  878MOL0     C18399   9.980   2.847   5.556 -0.1829 -0.0765  0.5409
  878MOL0     C18400  10.046   2.963   5.601  0.1517  1.0117  0.4641
  878MOL0     C18401  10.118   3.037   5.498  0.8842  0.2652 -0.4249
  878MOL0     C18402  10.108   3.000   5.360 -0.0197 -0.1667  0.6796
  878MOL0     O18403  10.152   3.071   5.250 -0.3914 -0.0249 -0.0839
  878MOL0     C18404  10.281   3.127   5.257  0.2683  0.4202 -0.4117
  878MOL0     C18405  10.292   3.228   5.149  0.3058  0.1319  0.0445
  878MOL0     C18406  10.226   3.359   5.195 -0.1411 -0.0962  0.2498
  878MOL0     C18407  10.156   3.426   5.073  0.0070 -0.8273 -0.7055
  878MOL0     C18408  10.101   3.566   5.110  0.0031 -0.2592 -0.0586
  878MOL0     C18409  10.076   3.658   4.984  0.5498  0.7643  0.8704
  878MOL0     C18410  10.041   3.804   5.002  0.1840  1.4506  0.6195
  878MOL0     C18411   9.891   3.833   5.030 -0.0361 -0.0967  0.1554
  878MOL0     N18412   9.784   3.750   4.965 -0.9831  0.3778 -0.1911
  878MOL0     C18413   9.668   3.690   5.022 -0.1650 -0.6513  0.1087
  878MOL0     C18414   9.591   3.650   4.916 -0.7959  0.7192  1.0173
  878MOL0     C18415   9.467   3.571   4.896 -0.1314  0.2386 -0.4111
  878MOL0     C18416   9.503   3.426   4.846 -0.6667 -0.6936  0.3695
  878MOL0     C18417   9.381   3.335   4.824 -0.0605  0.9329 -0.1994
  878MOL0     C18418   9.266   3.391   4.753 -0.0308  1.2252  0.7796
  878MOL0     O18419   9.323   3.465   4.644 -0.4406 -0.3475 -0.6168
  878MOL0     C18420   9.247   3.533   4.562 -0.2722 -0.5071  0.7389
  878MOL0     C18421   9.108   3.553   4.575  0.0276 -0.4828 -1.2040
  878MOL0     C18422   9.046   3.636   4.484  0.8659 -0.8879 -0.2438
  878MOL0     C18423   9.106   3.694   4.367 -0.1957 -0.4206  0.2298
  878MOL0     C18424   9.042   3.786   4.280  0.2880 -0.1049  0.8333
  878MOL0     O18425   9.117   3.853   4.185 -0.9817  0.2561 -0.4569
  878MOL0     C18426   9.071   3.916   4.071 -0.7902 -1.0191 -0.6483
  878MOL0     C18427   9.167   3.953   3.974  0.5308 -0.1276  0.3859
  878MOL0     C18428   9.130   4.037   3.857  0.5390  0.0347  0.3196
  878MOL0     C18429   8.998   4.077   3.840 -0.9161 -0.5562  1.1798
  878MOL0     O18430   8.956   4.132   3.719  0.2498 -0.0451  0.1963
  878MOL0     C18431   9.053   4.200   3.637 -0.1663  0.9707 -0.9942
  878MOL0     C18432   8.988   4.260   3.521 -0.2084  0.9791 -0.4105
  878MOL0     C18433   9.088   4.338   3.423 -0.3538  0.5336 -0.7501
  878MOL0     C18434   9.008   4.414   3.315  0.7582 -0.1042 -1.1765
  878MOL0     C18435   9.090   4.499   3.220  0.2552  0.1595  0.0543
  878MOL0     C18436   9.004   4.556   3.110 -0.6209 -0.0388  0.3780
  878MOL0     C18437   9.100   4.654   3.030 -0.6077 -0.3946 -0.4677
  878MOL0     C18438   9.063   4.672   2.884 -1.3401 -0.0498  0.3015
  878MOL0    Cl18439   9.141   4.819   2.838  0.8495  0.1311 -0.5104
  878MOL0     C18440   8.907   4.017   3.922  0.0106  0.3404 -0.6231
  878MOL0     C18441   8.938   3.953   4.044  0.8727  0.2987 -0.0459
  878MOL0     O18442   8.922   3.790   4.282 -0.3748  0.2290  0.0107
  878MOL0     C18443   9.245   3.675   4.363  0.4363 -0.1344  0.2465
  878MOL0     C18444   9.313   3.590   4.457  0.0068  1.1348 -0.9807
  878MOL0     N18445   9.657   3.696   4.802  0.1790  0.3591  0.2707
  878MOL0     N18446   9.769   3.758   4.832 -0.4002 -0.3105  0.2958
  878MOL0     C18447  10.033   2.896   5.326  0.6480 -0.7395  0.3605
  878MOL0     C18448   9.964   2.818   5.416 -0.9022 -0.7590 -0.0138
  878MOL0     C18449   9.823   2.691   5.859  0.3710 -0.2586 -0.5121
  878MOL0     C18450   9.871   2.562   5.835 -0.8748 -1.0709 -0.3083
  878MOL0     C18451   9.859   2.462   5.923 -0.9068 -0.1662  0.2475
  878MOL0     C18452   9.800   2.487   6.050  0.4785 -0.1428  0.5135
  878MOL0     O18453   9.769   2.386   6.136 -0.3324  0.1814 -0.0321
  878MOL0     C18454   9.816   2.255   6.103 -0.0936  0.1255 -0.6409
  878MOL0     C18455   9.788   2.151   6.208  1.0458  0.1833 -0.1884
  878MOL0     C18456   9.875   2.022   6.195  0.6555  0.1691  0.7929
  878MOL0     C18457   9.873   1.954   6.059 -0.3552  0.4022  0.2632
  878MOL0     C18458   9.934   1.828   6.082  0.4947 -1.0891 -0.2073
  878MOL0     C18459   9.995   1.730   6.107 -0.8595 -0.4681 -0.2760
  878MOL0     C18460   9.749   2.622   6.081  0.4903  0.3387  0.3302
  878MOL0     C18461   9.765   2.724   5.985  0.5276 -0.6096  0.3059
  878MOL0     C18462   9.714   2.858   6.021  0.7172 -0.8167 -1.5260
  878MOL0     H18463  10.038   2.980   5.708  3.1575  0.9392  0.7831
  878MOL0     H18464  10.178   3.122   5.529  0.9539  0.6580 -1.5969
  878MOL0     H18465  10.317   3.167   5.352  0.0314 -0.1112 -0.0931
  878MOL0     H18466  10.347   3.046   5.225 -1.2853 -0.8665 -0.5127
  878MOL0     H18467  10.255   3.181   5.058 -1.1276  1.4656 -0.1048
  878MOL0     H18468  10.395   3.251   5.124 -0.1178  0.9602 -1.0124
  878MOL0     H18469  10.303   3.425   5.237  0.7596 -0.2825 -1.0562
  878MOL0     H18470  10.142   3.337   5.261 -3.0312 -0.7486 -3.3196
  878MOL0     H18471  10.219   3.432   4.983 -0.5053 -3.3703 -1.3169
  878MOL0     H18472  10.077   3.361   5.034 -0.0475  0.6596 -3.2938
  878MOL0     H18473  10.016   3.552   5.178  1.4274 -1.0982  1.6529
  878MOL0     H18474  10.168   3.612   5.183 -2.4125 -2.6187  4.0368
  878MOL0     H18475  10.160   3.650   4.915 -0.6106 -0.4441 -0.4891
  878MOL0     H18476   9.998   3.606   4.927 -2.4026 -0.5678  5.4883
  878MOL0     H18477  10.074   3.846   4.906 -0.4361 -1.3599 -0.9428
  878MOL0     H18478  10.116   3.856   5.063  2.1932  0.4154 -0.8178
  878MOL0     H18479   9.864   3.839   5.136 -0.4400 -1.3483  0.1449
  878MOL0     H18480   9.875   3.932   4.986 -0.1072 -0.6225 -1.0238
  878MOL0     H18481   9.646   3.667   5.126 -0.7241  1.3905  0.4914
  878MOL0     H18482   9.408   3.569   4.988  0.8719  2.0707  0.3486
  878MOL0     H18483   9.406   3.622   4.821  1.3481  2.8020  0.0092
  878MOL0     H18484   9.544   3.437   4.745 -0.1003 -0.2067  0.6426
  878MOL0     H18485   9.579   3.373   4.905  0.1352  0.0259  0.0122
  878MOL0     H18486   9.360   3.321   4.931 -0.6759  2.3687 -0.1166
  878MOL0     H18487   9.415   3.242   4.776  0.3291  0.1666  1.4669
  878MOL0     H18488   9.200   3.449   4.818 -1.2468 -1.6613  2.2562
  878MOL0     H18489   9.202   3.312   4.713  0.6884 -0.1730  2.3189
  878MOL0     H18490   9.043   3.505   4.648  2.4762  0.2090  1.6316
  878MOL0     H18491   8.939   3.649   4.501  0.9308  1.6160 -1.2441
  878MOL0     H18492   9.271   3.922   3.986  0.3785 -1.7648 -1.9029
  878MOL0     H18493   9.215   4.063   3.795 -0.8333  3.1620 -0.4028
  878MOL0     H18494   9.078   4.281   3.707 -1.9327 -0.0476  0.9322
  878MOL0     H18495   9.142   4.145   3.606 -1.0308 -0.8815 -0.3223
  878MOL0     H18496   8.932   4.185   3.466 -0.5948 -0.4915  1.8474
  878MOL0     H18497   8.919   4.340   3.550  0.1819  0.5812  1.8713
  878MOL0     H18498   9.145   4.406   3.486 -1.1004 -0.4193  1.0321
  878MOL0     H18499   9.155   4.267   3.376 -1.9783  0.3951 -3.0303
  878MOL0     H18500   8.940   4.485   3.362  0.8791  0.3729 -1.7117
  878MOL0     H18501   8.948   4.341   3.259 -0.4036 -0.4221  0.4110
  878MOL0     H18502   9.169   4.434   3.181 -0.4767 -0.0197 -1.1521
  878MOL0     H18503   9.131   4.582   3.279  1.0612  0.8695 -1.4466
  878MOL0     H18504   8.971   4.477   3.042  1.9641 -0.4941 -0.4450
  878MOL0     H18505   8.925   4.609   3.165 -0.8760 -1.6653  1.6723
  878MOL0     H18506   9.194   4.601   3.019 -0.5003 -0.3006 -0.0049
  878MOL0     H18507   9.101   4.751   3.081 -2.2376 -1.1529  1.1229
  878MOL0     H18508   9.097   4.583   2.832 -0.4619 -0.0927  0.9351
  878MOL0     H18509   8.954   4.675   2.874 -1.2974  1.5252 -0.0235
  878MOL0     H18510   8.800   4.026   3.907 -0.3062 -0.4528  1.0119
  878MOL0     H18511   8.854   3.914   4.101  0.0638  0.4962 -1.0813
  878MOL0     H18512   9.309   3.734   4.299 -0.7232  0.2531 -0.5830
  878MOL0     H18513   9.421   3.583   4.446 -0.0372 -0.1501 -0.8265
  878MOL0     H18514  10.011   2.873   5.222  1.4034  1.3547 -0.3267
  878MOL0     H18515   9.907   2.732   5.382 -2.8837  1.0045 -1.3361
  878MOL0     H18516   9.916   2.544   5.737 -3.3321 -0.0477 -1.7018
  878MOL0     H18517   9.905   2.374   5.880  2.5854  0.1471  2.8347
  878MOL0     H18518   9.924   2.266   6.103 -0.1552  1.2812  1.2735
  878MOL0     H18519   9.770   2.224   6.009 -1.1537  1.6373 -0.6616
  878MOL0     H18520   9.681   2.133   6.218  0.2548  3.6673 -1.0605
  878MOL0     H18521   9.824   2.211   6.292  1.9648 -3.8632  2.6188
  878MOL0     H18522   9.830   1.952   6.267  2.4755 -0.4976  1.3425
  878MOL0     H18523   9.978   2.039   6.227  1.1246 -1.7088  0.4225
  878MOL0     H18524   9.776   1.940   6.010 -0.3407 -1.2735  0.6823
  878MOL0     H18525   9.934   2.017   5.993  1.5249 -1.4842  0.0929
  878MOL0     H18526  10.053   1.645   6.138 -0.7921 -0.0042  0.9382
  878MOL0     H18527   9.695   2.638   6.174  2.5693  2.4876  1.2699
  878MOL0     H18528   9.777   2.935   5.975  1.6869 -2.5517 -3.2441
  878MOL0     H18529   9.615   2.868   5.976  0.2916 -2.5637 -1.0642
  878MOL0     H18530   9.725   2.885   6.127  1.8378 -1.0577 -1.5678
  879MOL0     O18531   8.288   5.947  10.595  0.0806  0.7789 -0.1525
  879MOL0     C18532   8.383   5.903  10.658 -0.0232 -0.3390 -0.6446
  879MOL0     O18533   8.370   5.845  10.780 -0.2188  0.6801  0.1070
  879MOL0     C18534   8.252   5.801  10.828 -0.6016  0.2912  0.9967
  879MOL0     C18535   8.159   5.750  10.742  0.2550  0.0580  0.9193
  879MOL0     C18536   8.036   5.717  10.795  0.2479 -0.4190  0.3085
  879MOL0     C18537   8.015   5.720  10.935 -0.4868 -0.1250 -0.1039
  879MOL0     O18538   7.881   5.695  10.978 -0.4339  0.4704 -1.0056
  879MOL0     C18539   7.825   5.751  11.103 -0.5393  0.3580 -0.7381
  879MOL0     C18540   7.701   5.669  11.148 -0.6536 -0.5637  1.4834
  879MOL0     C18541   7.621   5.734  11.259  0.3029 -0.0157 -0.6095
  879MOL0     C18542   7.475   5.723  11.224 -0.2726 -0.3384  0.0292
  879MOL0     C18543   7.388   5.760  11.334  0.6753 -0.0944  0.1683
  879MOL0     C18544   7.239   5.767  11.297  0.1062  0.5128  0.0519
  879MOL0     C18545   7.150   5.795  11.416  0.1777 -0.8646  0.2766
  879MOL0     C18546   6.992   5.792  11.397  0.2761 -0.9819  0.3044
  879MOL0     N18547   6.934   5.893  11.303  0.1762  0.0471  1.2234
  879MOL0     C18548   6.968   5.919  11.175 -1.0429  0.2948 -0.2798
  879MOL0     C18549   6.899   6.028  11.143 -0.2324 -0.4209 -0.7386
  879MOL0     C18550   6.906   6.116  11.025  0.6178  0.0151  0.1279
  879MOL0     C18551   6.907   6.035  10.897 -1.0389 -0.2466  0.0105
  879MOL0     C18552   7.027   6.080  10.815 -0.4747 -0.4237  0.1360
  879MOL0     C18553   7.021   6.057  10.673  0.0805 -0.0186  0.3945
  879MOL0     O18554   7.031   5.915  10.650 -0.8041  0.7038 -0.4058
  879MOL0     C18555   6.991   5.858  10.533 -0.2864  0.6834  0.5235
  879MOL0     C18556   7.069   5.766  10.454 -0.6114 -0.8170 -0.6404
  879MOL0     C18557   7.036   5.719  10.327 -0.3529  0.4944  0.5991
  879MOL0     C18558   6.917   5.761  10.263 -0.1417  1.1141  0.0107
  879MOL0     C18559   6.883   5.710  10.131 -0.6624  0.7138  0.2403
  879MOL0     O18560   6.975   5.620  10.081 -0.2789  0.1474  0.5484
  879MOL0     C18561   6.954   5.542   9.970  0.8509 -0.6295  0.6479
  879MOL0     C18562   6.961   5.408   9.987  1.0272 -0.0591 -0.2939
  879MOL0     C18563   6.956   5.326   9.884 -0.6733  0.1281  0.6580
  879MOL0     C18564   6.920   5.372   9.759 -0.2098 -0.3188 -0.9067
  879MOL0     O18565   6.894   5.266   9.672 -1.0312  0.5144 -0.2900
  879MOL0     C18566   6.945   5.295   9.544 -0.2297  0.5028 -0.3459
  879MOL0     C18567   6.994   5.164   9.491 -0.2261  0.1105  0.3426
  879MOL0     C18568   6.882   5.079   9.438 -0.3256  1.1273 -0.8391
  879MOL0     C18569   6.940   4.981   9.339  0.5653  0.0472 -0.9828
  879MOL0     C18570   6.838   4.912   9.259  0.0109 -0.4785  1.0856
  879MOL0     C18571   6.741   4.820   9.341  0.1564 -0.2001  0.2959
  879MOL0     C18572   6.815   4.725   9.423 -1.0924  1.0062 -0.3448
  879MOL0     C18573   6.749   4.599   9.465 -0.7684  0.3822 -0.3161
  879MOL0    Cl18574   6.855   4.501   9.540  0.0515  0.0814 -0.4784
  879MOL0     C18575   6.906   5.511   9.733  0.7146 -0.2628 -0.5811
  879MOL0     C18576   6.926   5.596   9.843 -0.0060  0.5592 -0.3385
  879MOL0     O18577   6.771   5.733  10.081 -0.2241  0.6484 -0.3645
  879MOL0     C18578   6.828   5.841  10.336  0.0754 -0.1598  0.0131
  879MOL0     C18579   6.871   5.890  10.460  0.6570 -0.6558  0.6262
  879MOL0     N18580   6.815   6.062  11.251 -0.0715 -1.2221 -0.5939
  879MOL0     N18581   6.840   5.977  11.347 -1.0270  0.3557  0.3138
  879MOL0     C18582   8.116   5.762  11.016 -0.0015 -1.1390 -0.0555
  879MOL0     C18583   8.239   5.795  10.957 -0.5675  0.1133  0.0972
  879MOL0     C18584   8.522   5.914  10.609  0.2648  1.0086 -0.3188
  879MOL0     C18585   8.620   5.829  10.672  0.8514  1.0316 -0.5334
  879MOL0     C18586   8.749   5.825  10.627 -0.3733  1.3430 -0.5831
  879MOL0     C18587   8.779   5.896  10.512 -0.2621  0.5126  0.2044
  879MOL0     O18588   8.895   5.888  10.446  0.4187  0.2024  0.6208
  879MOL0     C18589   8.992   5.988  10.489 -0.1362 -0.0612 -0.0731
  879MOL0     C18590   9.074   5.928  10.601  0.3467 -0.1149  0.7831
  879MOL0     C18591   9.156   5.810  10.557 -0.1098 -0.4457  0.3053
  879MOL0     C18592   9.274   5.845  10.464 -0.2287  0.9054  0.1036
  879MOL0     C18593   9.345   5.724  10.414 -0.0544 -0.8084 -0.4553
  879MOL0     C18594   9.408   5.630  10.373  0.4063  0.3365  0.1298
  879MOL0     C18595   8.682   5.977  10.444 -0.1395  0.0077 -0.0676
  879MOL0     C18596   8.561   5.987  10.498  0.3221  0.7833  0.0619
  879MOL0     C18597   8.452   6.073  10.414  0.1316 -0.4063  0.0376
  879MOL0     H18598   8.174   5.743  10.635  2.5669  0.7979  1.1500
  879MOL0     H18599   7.961   5.680  10.726  0.9875  1.5261 -1.6836
  879MOL0     H18600   7.902   5.731  11.178  0.2838 -1.7981 -2.0569
  879MOL0     H18601   7.802   5.858  11.101 -0.0992  0.4764  0.1098
  879MOL0     H18602   7.732   5.568  11.177 -1.6827 -1.5747 -0.7145
  879MOL0     H18603   7.640   5.664  11.058  0.0068 -0.0705  0.9986
  879MOL0     H18604   7.652   5.838  11.273 -0.2799  0.0926 -0.0317
  879MOL0     H18605   7.638   5.678  11.351 -1.6144 -1.1500 -0.8879
  879MOL0     H18606   7.457   5.793  11.142 -0.7682  0.1843  0.5775
  879MOL0     H18607   7.448   5.621  11.191  1.5476 -1.2379  1.1694
  879MOL0     H18608   7.401   5.685  11.412  0.1267  0.4593  0.8071
  879MOL0     H18609   7.405   5.867  11.351  2.6143 -0.3692  0.2660
  879MOL0     H18610   7.206   5.825  11.211  4.7449  0.7628 -1.7880
  879MOL0     H18611   7.217   5.671  11.249  1.4786  2.5192 -5.2371
  879MOL0     H18612   7.163   5.898  11.450  0.1932 -0.7039 -0.2015
  879MOL0     H18613   7.168   5.734  11.505 -1.1384  0.9061  1.8421
  879MOL0     H18614   6.970   5.689  11.369 -2.0901 -0.7409  1.0360
  879MOL0     H18615   6.937   5.800  11.492 -2.0531 -1.5051 -0.9185
  879MOL0     H18616   7.039   5.875  11.106 -1.4361 -0.8556  0.0327
  879MOL0     H18617   6.819   6.183  11.026  0.4558 -0.1164 -1.7151
  879MOL0     H18618   7.001   6.170  11.027 -0.3116  1.7826  2.8005
  879MOL0     H18619   6.898   5.927  10.911 -0.7035 -0.2451  0.2517
  879MOL0     H18620   6.818   6.075  10.848 -0.5107  1.0081  0.0487
  879MOL0     H18621   7.125   6.049  10.853 -0.2651 -1.8000 -1.3972
  879MOL0     H18622   7.023   6.189  10.819 -1.5524 -0.2437 -3.1658
  879MOL0     H18623   7.113   6.091  10.625  0.0806  0.3251  0.6379
  879MOL0     H18624   6.943   6.109  10.617 -0.4488 -0.2218  0.9353
  879MOL0     H18625   7.163   5.745  10.504 -1.1894  2.5821  2.3053
  879MOL0     H18626   7.112   5.661  10.276  0.2991  2.0708 -0.2835
  879MOL0     H18627   6.988   5.371  10.086  2.4882  3.8179  0.9466
  879MOL0     H18628   6.982   5.223   9.904 -1.6009 -0.3608 -0.5769
  879MOL0     H18629   6.877   5.352   9.481 -1.0413  0.9507  0.8947
  879MOL0     H18630   7.039   5.350   9.557  0.2453 -0.6154  1.3918
  879MOL0     H18631   7.057   5.188   9.405 -0.9769 -1.5930 -0.7223
  879MOL0     H18632   7.039   5.098   9.566 -3.7422 -2.5814  0.2947
  879MOL0     H18633   6.827   5.021   9.512  2.0631 -0.8241 -0.4764
  879MOL0     H18634   6.819   5.142   9.374 -1.2271 -0.7373 -1.8788
  879MOL0     H18635   7.006   4.911   9.392  2.9135  1.6151 -1.6765
  879MOL0     H18636   7.010   5.029   9.270  1.3588  0.5674  0.1531
  879MOL0     H18637   6.889   4.855   9.181 -0.2851 -0.5800  0.9638
  879MOL0     H18638   6.779   4.991   9.211  0.1279 -1.0925 -0.1145
  879MOL0     H18639   6.663   4.873   9.397 -0.9846 -0.0999 -1.3213
  879MOL0     H18640   6.683   4.762   9.269  2.6261 -1.5986 -0.6758
  879MOL0     H18641   6.827   4.789   9.511 -3.3911  0.2987  0.5598
  879MOL0     H18642   6.907   4.694   9.372  0.6497 -0.3655  3.2969
  879MOL0     H18643   6.657   4.617   9.521 -1.3309  1.3586 -1.5082
  879MOL0     H18644   6.718   4.539   9.379 -1.9684 -3.4089  2.5033
  879MOL0     H18645   6.879   5.541   9.632 -1.4197  1.3045  0.3656
  879MOL0     H18646   6.917   5.704   9.848  0.2137  0.5287  1.6186
  879MOL0     H18647   6.729   5.876  10.307  0.2759 -0.8790 -1.6010
  879MOL0     H18648   6.795   5.952  10.505 -0.6944 -0.9841 -1.0855
  879MOL0     H18649   8.094   5.776  11.122 -2.9986  0.7914 -0.8020
  879MOL0     H18650   8.317   5.841  11.017 -0.7032 -0.1499  0.4802
  879MOL0     H18651   8.596   5.769  10.759  0.7244  1.1113 -0.5146
  879MOL0     H18652   8.819   5.761  10.681 -1.6979  1.4281  1.3565
  879MOL0     H18653   8.956   6.084  10.527  1.7849  0.3855  0.7328
  879MOL0     H18654   9.053   6.023  10.405 -3.2208  4.0455 -0.9547
  879MOL0     H18655   9.005   5.902  10.682  0.5291  2.1686  1.7471
  879MOL0     H18656   9.150   5.978  10.661 -0.1961  1.3597  0.2917
  879MOL0     H18657   9.081   5.740  10.520 -1.8243  2.0077 -1.1768
  879MOL0     H18658   9.204   5.770  10.647  2.4726 -1.4416 -1.4131
  879MOL0     H18659   9.256   5.903  10.373  3.0303  0.1093 -1.1840
  879MOL0     H18660   9.354   5.900  10.515 -0.5376  1.9664 -0.5147
  879MOL0     H18661   9.476   5.564  10.323 -0.2130 -1.2765  1.3305
  879MOL0     H18662   8.684   6.021  10.345 -2.1427  0.3665  0.0189
  879MOL0     H18663   8.363   6.016  10.387  0.3977 -1.1819  0.7828
  879MOL0     H18664   8.425   6.154  10.483  1.9693  1.7399 -1.5773
  879MOL0     H18665   8.501   6.113  10.325 -2.7050  2.4388 -0.4254
  880MOL0     O18666  11.352   7.130   4.094 -0.9194 -0.6230  0.2096
  880MOL0     C18667  11.413   7.119   4.207  0.2384  0.5071  0.3266
  880MOL0     O18668  11.426   7.218   4.299 -0.1149  0.4976  0.5227
  880MOL0     C18669  11.323   7.316   4.317 -0.7355  0.0674 -0.2164
  880MOL0     C18670  11.358   7.422   4.399 -0.0783  0.2908  1.0612
  880MOL0     C18671  11.272   7.527   4.421  0.8140 -0.0578  0.2734
  880MOL0     C18672  11.144   7.529   4.360 -0.6932  0.0816  0.2740
  880MOL0     O18673  11.060   7.633   4.388  0.1614 -0.0920  0.7335
  880MOL0     C18674  11.068   7.709   4.509 -0.4714  0.0653  0.1255
  880MOL0     C18675  10.925   7.753   4.570  0.3160 -0.4973  0.2830
  880MOL0     C18676  10.869   7.851   4.473  0.5915 -0.2520  0.6806
  880MOL0     C18677  10.732   7.914   4.521 -0.9686 -0.0986 -1.1062
  880MOL0     C18678  10.686   8.027   4.443  0.6930 -0.4218  1.1095
  880MOL0     C18679  10.673   7.986   4.297 -0.9713  0.0006 -0.8160
  880MOL0     C18680  10.567   7.879   4.265  0.0690  1.0156 -0.7452
  880MOL0     C18681  10.428   7.894   4.318  0.1144 -0.8550  0.1423
  880MOL0     N18682  10.346   8.004   4.241 -0.7835  0.2736  0.9479
  880MOL0     C18683  10.236   7.975   4.160 -0.2099 -0.4160 -0.5738
  880MOL0     C18684  10.192   8.092   4.116  0.2652  0.8943  0.4741
  880MOL0     C18685  10.062   8.128   4.039 -0.2617  0.4648  0.1317
  880MOL0     C18686  10.050   8.277   4.005 -0.4214  1.2128  0.0139
  880MOL0     C18687  10.152   8.310   3.894 -0.7218  0.3266  0.1545
  880MOL0     C18688  10.187   8.465   3.873 -0.2202 -0.0259  0.6267
  880MOL0     O18689  10.102   8.539   3.782 -0.8464 -0.0592 -0.2313
  880MOL0     C18690  10.176   8.613   3.690 -0.2130  0.8819 -0.0268
  880MOL0     C18691  10.204   8.749   3.690 -1.1043 -0.0885 -0.7983
  880MOL0     C18692  10.293   8.809   3.603 -0.2815 -0.7673 -0.9684
  880MOL0     C18693  10.362   8.726   3.511 -0.6648  0.4675 -0.6535
  880MOL0     C18694  10.477   8.771   3.433 -0.2922  1.6299  1.0016
  880MOL0     O18695  10.559   8.683   3.375  0.2927  0.3534 -0.3508
  880MOL0     C18696  10.643   8.730   3.277  0.3307 -0.2953 -1.5980
  880MOL0     C18697  10.781   8.731   3.283  0.1337 -0.8826 -0.4714
  880MOL0     C18698  10.862   8.769   3.178  0.7655 -0.1228  0.8898
  880MOL0     C18699  10.804   8.808   3.059 -0.4781 -0.3150  0.2921
  880MOL0     O18700  10.876   8.851   2.948 -0.2525 -0.7914  0.7171
  880MOL0     C18701  11.016   8.849   2.936 -0.7383 -0.4832  0.1888
  880MOL0     C18702  11.061   8.849   2.797  0.1387 -0.6144 -0.0760
  880MOL0     C18703  11.211   8.820   2.775  1.2094  0.2877 -0.5326
  880MOL0     C18704  11.257   8.841   2.633 -0.9090 -0.9797  0.5347
  880MOL0     C18705  11.330   8.977   2.619 -0.0423  0.4283  0.5730
  880MOL0     C18706  11.383   8.991   2.471 -0.3535  0.0348 -0.5926
  880MOL0     C18707  11.265   9.004   2.373  0.1818  0.5551  0.1012
  880MOL0     C18708  11.258   8.888   2.278  0.7790  0.4668 -0.2475
  880MOL0    Cl18709  11.098   8.898   2.193 -0.0863  0.2636  0.2881
  880MOL0     C18710  10.669   8.808   3.056  0.7896  0.2225  0.5232
  880MOL0     C18711  10.588   8.766   3.154  0.2536  0.3207 -0.0839
  880MOL0     O18712  10.474   8.895   3.404  0.0396  0.0083 -1.4159
  880MOL0     C18713  10.325   8.591   3.494  0.1043 -0.0360  0.3792
  880MOL0     C18714  10.244   8.531   3.589 -0.0128 -0.8477  0.7392
  880MOL0     N18715  10.293   8.184   4.140  0.2042 -0.6185 -1.2033
  880MOL0     N18716  10.380   8.130   4.209  0.8039  1.2927  0.1446
  880MOL0     C18717  11.103   7.413   4.294 -0.1963  0.5639  0.0544
  880MOL0     C18718  11.193   7.305   4.271  0.2236 -0.9882 -1.8231
  880MOL0     C18719  11.483   6.985   4.219 -1.0486  1.1510 -0.3284
  880MOL0     C18720  11.598   7.006   4.299  0.4707 -0.3107 -0.1364
  880MOL0     C18721  11.690   6.894   4.309  0.1865  0.3130 -0.9732
  880MOL0     C18722  11.662   6.768   4.258  0.5219  0.1639  1.4537
  880MOL0     O18723  11.747   6.660   4.270 -0.1461 -0.0132  0.4247
  880MOL0     C18724  11.885   6.678   4.319 -0.3278 -0.5429 -0.1245
  880MOL0     C18725  11.959   6.763   4.219 -0.9084  1.0624  0.0657
  880MOL0     C18726  12.034   6.676   4.117  0.3991  0.0801  0.2477
  880MOL0     C18727  12.158   6.739   4.040  0.0853 -0.0912 -0.0858
  880MOL0     C18728  12.280   6.744   4.123  0.4319  0.2071 -0.2509
  880MOL0     C18729  12.375   6.759   4.199 -0.3826 -0.5761 -0.3240
  880MOL0     C18730  11.537   6.749   4.190 -0.7273  0.5810  0.1971
  880MOL0     C18731  11.455   6.850   4.176  0.6266 -1.2307 -0.4074
  880MOL0     C18732  11.332   6.823   4.096 -0.0433 -1.5693  0.0564
  880MOL0     H18733  11.462   7.423   4.433  1.3954  0.4527 -2.9765
  880MOL0     H18734  11.302   7.588   4.505 -1.2064 -1.7189  2.3435
  880MOL0     H18735  11.121   7.649   4.583 -1.0400 -1.3351 -0.5514
  880MOL0     H18736  11.138   7.788   4.482  1.8394 -1.7363  0.4765
  880MOL0     H18737  10.924   7.798   4.670  1.3449  0.2522 -0.0257
  880MOL0     H18738  10.856   7.669   4.581  3.2888 -2.9657  1.2664
  880MOL0     H18739  10.854   7.789   4.384  1.7462 -0.7285  0.8063
  880MOL0     H18740  10.942   7.923   4.436  0.0666 -0.8358 -1.6885
  880MOL0     H18741  10.657   7.836   4.508  1.1148 -2.5589  0.7076
  880MOL0     H18742  10.737   7.944   4.626  0.3093 -1.3999 -0.7696
  880MOL0     H18743  10.589   8.060   4.480  0.6753 -0.4318  1.0712
  880MOL0     H18744  10.751   8.114   4.456 -1.4264  1.2304  1.1395
  880MOL0     H18745  10.657   8.083   4.249 -0.3705  0.1792 -0.6623
  880MOL0     H18746  10.767   7.948   4.257 -1.7786  0.4413 -3.3286
  880MOL0     H18747  10.609   7.782   4.290 -1.3773  0.3993 -0.6099
  880MOL0     H18748  10.561   7.882   4.156 -5.6532  1.4799 -0.7056
  880MOL0     H18749  10.379   7.797   4.305  0.8891 -1.0207 -2.0180
  880MOL0     H18750  10.430   7.926   4.422 -1.9836  2.1218 -0.5951
  880MOL0     H18751  10.186   7.879   4.160  3.9071 -2.8797 -2.3853
  880MOL0     H18752  10.052   8.075   3.944 -2.9050  0.9688  0.0564
  880MOL0     H18753   9.983   8.080   4.098 -0.5439  0.0718 -0.5597
  880MOL0     H18754   9.945   8.305   3.993 -1.8668 -2.1828  2.8901
  880MOL0     H18755  10.073   8.325   4.101 -1.7368  2.0385 -0.0607
  880MOL0     H18756  10.116   8.259   3.804  1.1040 -1.5073  0.3976
  880MOL0     H18757  10.247   8.262   3.917  0.0266  1.8609  0.3962
  880MOL0     H18758  10.293   8.478   3.850  0.0002 -1.5310  0.6841
  880MOL0     H18759  10.186   8.506   3.974  1.9255 -0.0724  0.7235
  880MOL0     H18760  10.155   8.807   3.768  0.1189  5.6304 -3.7205
  880MOL0     H18761  10.308   8.914   3.624 -2.9522 -0.2579 -1.1526
  880MOL0     H18762  10.824   8.708   3.380 -0.5455  3.9752  1.2854
  880MOL0     H18763  10.970   8.776   3.183  0.6908  0.1057  2.7360
  880MOL0     H18764  11.058   8.926   3.002 -1.1561 -1.9144  2.2481
  880MOL0     H18765  11.052   8.763   2.994  1.6200  0.7194  0.6344
  880MOL0     H18766  10.997   8.782   2.738  1.7377 -2.2125 -0.0571
  880MOL0     H18767  11.042   8.950   2.760 -0.5645 -0.0708  1.6845
  880MOL0     H18768  11.270   8.879   2.846  0.6052 -0.1843  0.3897
  880MOL0     H18769  11.221   8.714   2.800 -2.9514 -0.2418 -0.3927
  880MOL0     H18770  11.168   8.835   2.571 -0.2645 -0.8023 -0.4364
  880MOL0     H18771  11.326   8.762   2.601 -1.6338 -1.2154 -0.4990
  880MOL0     H18772  11.410   8.965   2.692  1.8443 -0.4132 -1.5190
  880MOL0     H18773  11.271   9.067   2.640 -1.7674 -0.2802 -0.9354
  880MOL0     H18774  11.442   9.082   2.456  1.2021 -0.8044  0.0999
  880MOL0     H18775  11.444   8.902   2.455 -0.6230 -0.5375  1.2346
  880MOL0     H18776  11.263   9.090   2.306 -0.8465  0.8504  0.4939
  880MOL0     H18777  11.175   9.004   2.435  1.3767  0.4272  1.9039
  880MOL0     H18778  11.339   8.884   2.205  0.9043  1.3018 -0.1710
  880MOL0     H18779  11.267   8.800   2.342 -1.3506  0.6487  0.3954
  880MOL0     H18780  10.631   8.825   2.955 -1.5406  1.0915  1.4867
  880MOL0     H18781  10.481   8.759   3.139  0.4577 -1.6805 -0.9070
  880MOL0     H18782  10.358   8.533   3.409 -0.9727 -2.9046  1.8140
  880MOL0     H18783  10.224   8.426   3.568 -0.6100 -0.2434 -2.0671
  880MOL0     H18784  11.006   7.405   4.246 -1.2175  1.1748  1.9190
  880MOL0     H18785  11.164   7.218   4.213 -3.6821 -1.7242  0.8296
  880MOL0     H18786  11.629   7.101   4.342 -1.7873  0.6539 -0.4581
  880MOL0     H18787  11.777   6.917   4.370 -1.0999 -0.1003  1.1215
  880MOL0     H18788  11.937   6.583   4.324  1.5633  0.3423 -1.7400
  880MOL0     H18789  11.886   6.720   4.420  0.5080  4.2174 -1.8376
  880MOL0     H18790  12.031   6.819   4.279 -1.4476  1.0191  0.7599
  880MOL0     H18791  11.893   6.835   4.168  0.9273  1.5170 -1.8179
  880MOL0     H18792  11.966   6.663   4.033 -0.2359  3.5580  0.0713
  880MOL0     H18793  12.056   6.575   4.152  0.9267  0.0049 -0.2840
  880MOL0     H18794  12.187   6.674   3.956  4.2594 -1.2631  1.9512
  880MOL0     H18795  12.113   6.829   3.999  0.3706 -0.3883 -1.0786
  880MOL0     H18796  12.455   6.778   4.268 -1.2327  0.7312  0.3433
  880MOL0     H18797  11.509   6.649   4.157  1.5836  0.7576 -2.8230
  880MOL0     H18798  11.351   6.743   4.024 -1.3573 -1.4744 -0.4040
  880MOL0     H18799  11.261   6.779   4.166  1.9315  1.1261  4.2113
  880MOL0     H18800  11.292   6.910   4.043  1.7521 -0.9208 -0.3180
  881MOL0     O18801   7.920   2.453   4.372 -0.7354 -0.9785 -0.4505
  881MOL0     C18802   7.824   2.382   4.340  0.4675  0.3226 -0.0185
  881MOL0     O18803   7.693   2.424   4.341  0.2277  0.0123  0.3470
  881MOL0     C18804   7.676   2.560   4.346  0.2803  0.4675  0.1610
  881MOL0     C18805   7.618   2.637   4.243  1.0872 -0.2125 -0.2394
  881MOL0     C18806   7.601   2.779   4.247 -0.1314  0.1908  0.0229
  881MOL0     C18807   7.652   2.845   4.365 -0.5145  0.3290  0.1835
  881MOL0     O18808   7.650   2.983   4.374  0.6386 -0.1282  0.0244
  881MOL0     C18809   7.635   3.065   4.263  0.5057  0.1389  0.4736
  881MOL0     C18810   7.748   3.054   4.156  0.2417 -0.3148  0.1250
  881MOL0     C18811   7.736   3.182   4.076 -0.1363  0.4358 -0.2177
  881MOL0     C18812   7.811   3.176   3.941  0.9539  0.0646 -0.1510
  881MOL0     C18813   7.964   3.188   3.957 -0.5349 -0.7045 -0.0005
  881MOL0     C18814   8.054   3.194   3.833  0.8024 -0.3384 -0.1396
  881MOL0     C18815   8.027   3.305   3.737  0.3018  1.2532 -0.9357
  881MOL0     C18816   8.134   3.314   3.627 -0.3821 -0.3329 -0.9302
  881MOL0     N18817   8.120   3.439   3.551  0.2231 -0.0874 -1.4615
  881MOL0     C18818   8.220   3.527   3.520 -0.1416 -0.4266 -0.4614
  881MOL0     C18819   8.168   3.622   3.431  0.8265 -0.5231 -0.3395
  881MOL0     C18820   8.236   3.741   3.373  0.2190 -0.0023 -0.3086
  881MOL0     C18821   8.227   3.762   3.220 -0.0079  0.8573 -0.3302
  881MOL0     C18822   8.075   3.796   3.170 -1.2731  0.4635 -0.2107
  881MOL0     C18823   8.054   3.819   3.026 -0.3150  0.4866 -0.1327
  881MOL0     O18824   8.132   3.934   2.981 -0.7389  0.0868 -0.1777
  881MOL0     C18825   8.158   3.962   2.843 -0.6739  0.3234  0.8971
  881MOL0     C18826   8.113   3.884   2.738  0.3369  0.9930 -0.0398
  881MOL0     C18827   8.153   3.918   2.605  1.2469  0.1750  0.3094
  881MOL0     C18828   8.228   4.034   2.579 -0.7043 -0.2649  0.3665
  881MOL0     C18829   8.261   4.077   2.438  0.3187  0.3378  0.2845
  881MOL0     O18830   8.204   4.006   2.338  0.0521 -0.4769 -0.3641
  881MOL0     C18831   8.244   4.039   2.209  0.6374  0.5520  0.0670
  881MOL0     C18832   8.378   4.043   2.156  0.6240  0.7799  0.1202
  881MOL0     C18833   8.405   4.063   2.017 -1.1039  0.6053 -0.2147
  881MOL0     C18834   8.308   4.057   1.924  1.9363 -0.7898 -0.6251
  881MOL0     O18835   8.324   4.054   1.788  0.1851 -0.2876  0.0823
  881MOL0     C18836   8.398   3.949   1.721  0.5365  0.3519 -0.6090
  881MOL0     C18837   8.413   3.966   1.575  0.4093 -0.3133 -1.0053
  881MOL0     C18838   8.277   3.948   1.507  0.3925  0.1737  0.4772
  881MOL0     C18839   8.284   3.977   1.359 -0.8501 -0.3576  0.3418
  881MOL0     C18840   8.181   3.909   1.271  0.1493 -0.7700 -0.8221
  881MOL0     C18841   8.236   3.780   1.217  1.2219 -0.9330  1.3545
  881MOL0     C18842   8.122   3.680   1.193  0.4819  0.4756 -0.0655
  881MOL0     C18843   8.011   3.729   1.111 -0.2678 -0.6121  0.0967
  881MOL0    Cl18844   7.936   3.577   1.047  0.7459 -0.0011  0.4160
  881MOL0     C18845   8.174   4.065   1.978 -0.1234 -0.1222  0.0328
  881MOL0     C18846   8.142   4.054   2.113  0.0511  0.9166 -0.2262
  881MOL0     O18847   8.352   4.160   2.418  0.0729  0.0255 -0.7857
  881MOL0     C18848   8.266   4.112   2.687  0.4303  0.1545  0.5777
  881MOL0     C18849   8.225   4.076   2.813 -0.7601 -0.1631  0.6126
  881MOL0     N18850   8.032   3.589   3.409  0.0385 -0.0906 -0.0883
  881MOL0     N18851   8.009   3.483   3.482 -0.9252  0.8243  0.3060
  881MOL0     C18852   7.718   2.775   4.461  0.2295  0.4603 -0.6759
  881MOL0     C18853   7.705   2.631   4.466  0.6190 -0.6765  0.5313
  881MOL0     C18854   7.861   2.239   4.317  1.0397  0.0973 -0.0221
  881MOL0     C18855   7.775   2.157   4.239 -0.4335 -0.1664  0.7709
  881MOL0     C18856   7.787   2.008   4.221 -0.0941  0.3540  0.7254
  881MOL0     C18857   7.895   1.946   4.281 -0.1249 -0.6614  0.6005
  881MOL0     O18858   7.910   1.812   4.251  0.4169 -0.1625 -0.7892
  881MOL0     C18859   8.033   1.753   4.294 -0.2361  1.0897  0.3043
  881MOL0     C18860   8.057   1.614   4.231 -0.0670  0.8295  0.1126
  881MOL0     C18861   8.035   1.605   4.081  0.6259 -0.0212 -0.7852
  881MOL0     C18862   8.166   1.578   3.998 -0.0284  0.2676 -0.3237
  881MOL0     C18863   8.259   1.692   4.003  0.3131 -0.0551 -0.5127
  881MOL0     C18864   8.351   1.776   4.007  0.0918  0.3363  0.4679
  881MOL0     C18865   7.982   2.027   4.362 -0.6408  0.5617  0.0042
  881MOL0     C18866   7.966   2.158   4.389  0.6774 -0.4356 -0.3968
  881MOL0     C18867   8.044   2.203   4.503 -0.1233 -0.6774  0.2047
  881MOL0     H18868   7.604   2.591   4.146 -0.9902 -1.1205  0.4128
  881MOL0     H18869   7.556   2.832   4.164 -2.7464 -1.3173  0.3814
  881MOL0     H18870   7.532   3.046   4.230 -0.3983  3.1819  1.2249
  881MOL0     H18871   7.637   3.170   4.294 -2.9309  0.2761  0.6630
  881MOL0     H18872   7.735   2.965   4.093 -0.8261 -1.6623  2.1240
  881MOL0     H18873   7.841   3.041   4.212  0.0223 -0.0974  0.5459
  881MOL0     H18874   7.775   3.269   4.130 -2.3880  0.4430  1.5681
  881MOL0     H18875   7.633   3.211   4.053 -2.0855 -3.4579  2.3993
  881MOL0     H18876   7.776   3.081   3.900  4.6192 -2.3026  1.6302
  881MOL0     H18877   7.758   3.250   3.880  0.0719 -2.0980 -2.1468
  881MOL0     H18878   7.977   3.282   4.011  3.2358 -0.4153 -1.1577
  881MOL0     H18879   8.004   3.101   4.009  0.1043 -1.6087 -1.9016
  881MOL0     H18880   8.153   3.207   3.878 -0.0189 -0.3448  1.7422
  881MOL0     H18881   8.065   3.098   3.783 -1.4272 -1.4739  1.4117
  881MOL0     H18882   8.028   3.398   3.796 -1.9182  0.3722  0.6560
  881MOL0     H18883   7.930   3.282   3.693 -0.3201 -1.2038  1.4120
  881MOL0     H18884   8.232   3.321   3.675 -0.5358  3.3374 -0.8855
  881MOL0     H18885   8.150   3.242   3.547  0.0852 -0.6905 -0.5203
  881MOL0     H18886   8.325   3.519   3.544 -0.4935  1.4851  2.2396
  881MOL0     H18887   8.189   3.828   3.421  1.2984  0.4185  0.0059
  881MOL0     H18888   8.341   3.739   3.401 -0.3087 -0.4709  1.7815
  881MOL0     H18889   8.303   3.837   3.199 -0.7875  1.1730 -2.1408
  881MOL0     H18890   8.248   3.673   3.160 -1.7711  0.0428  0.1986
  881MOL0     H18891   8.056   3.892   3.220 -0.3872  1.8216 -2.3399
  881MOL0     H18892   8.006   3.723   3.213 -0.7184  0.6704  1.1076
  881MOL0     H18893   7.948   3.830   3.003 -1.2376 -1.4634  2.6946
  881MOL0     H18894   8.078   3.725   2.976  1.9080 -0.0729  1.8475
  881MOL0     H18895   8.055   3.795   2.760  0.4318  1.6009  3.2183
  881MOL0     H18896   8.139   3.852   2.520  1.7467  1.6204 -0.9342
  881MOL0     H18897   8.462   4.023   2.222  0.0834  0.6078  0.7732
  881MOL0     H18898   8.505   4.074   1.975 -0.2503 -0.3992  1.4248
  881MOL0     H18899   8.494   3.932   1.769 -0.7437  3.0430  3.4602
  881MOL0     H18900   8.338   3.859   1.736  3.4712 -1.6809 -0.2222
  881MOL0     H18901   8.457   4.061   1.543 -2.0126  0.3489 -2.6356
  881MOL0     H18902   8.479   3.891   1.532  0.4996 -0.6418 -0.3089
  881MOL0     H18903   8.246   3.843   1.513 -1.1682  0.3510 -2.6652
  881MOL0     H18904   8.199   4.010   1.553  0.5818 -1.0654  2.6339
  881MOL0     H18905   8.387   3.954   1.330 -0.4935  1.9517 -0.4766
  881MOL0     H18906   8.271   4.085   1.343 -0.7888 -0.6152 -1.5839
  881MOL0     H18907   8.163   3.971   1.182 -0.6303  0.5053  0.1809
  881MOL0     H18908   8.096   3.888   1.337  1.7175 -5.8175  0.0076
  881MOL0     H18909   8.286   3.810   1.124 -0.1253  2.4119  1.5739
  881MOL0     H18910   8.313   3.732   1.278  2.4420 -0.2208  0.4170
  881MOL0     H18911   8.085   3.642   1.289  0.8539 -0.5572 -0.3187
  881MOL0     H18912   8.164   3.590   1.147 -3.2329 -2.0557  1.0177
  881MOL0     H18913   7.934   3.784   1.166  2.2294  2.0928  1.1312
  881MOL0     H18914   8.068   3.780   1.032  2.4291 -3.2155  0.1657
  881MOL0     H18915   8.090   4.085   1.912 -0.0872  5.4701  1.2532
  881MOL0     H18916   8.041   4.046   2.153  0.2955  2.8359  0.8684
  881MOL0     H18917   8.333   4.196   2.676  0.9738 -0.2985  0.3382
  881MOL0     H18918   8.260   4.127   2.902 -3.8979  0.1281  1.8046
  881MOL0     H18919   7.761   2.820   4.549  0.8714 -2.0235  0.3572
  881MOL0     H18920   7.734   2.575   4.554 -2.1284 -0.5969  1.5781
  881MOL0     H18921   7.704   2.217   4.183  0.8614 -0.5468 -1.4120
  881MOL0     H18922   7.722   1.955   4.151  3.2510 -1.5511 -1.2284
  881MOL0     H18923   8.040   1.752   4.404  4.2920  0.6103  0.2336
  881MOL0     H18924   8.114   1.814   4.253 -0.1729 -1.1575 -3.3916
  881MOL0     H18925   8.001   1.533   4.277  2.2888 -1.7631 -1.2803
  881MOL0     H18926   8.160   1.579   4.246  0.1502 -1.6810 -4.8746
  881MOL0     H18927   7.983   1.695   4.047  0.6814 -0.2154 -1.4165
  881MOL0     H18928   7.962   1.527   4.060 -0.4441  1.6803 -4.1024
  881MOL0     H18929   8.201   1.481   4.033  0.6193 -0.0598 -1.8021
  881MOL0     H18930   8.128   1.559   3.897 -2.0625  3.7269 -0.3630
  881MOL0     H18931   8.437   1.839   4.008  0.3491  0.0579  2.8577
  881MOL0     H18932   8.052   1.969   4.420  1.6327 -2.1234 -4.8630
  881MOL0     H18933   8.090   2.123   4.562 -2.0598 -3.6745 -2.0711
  881MOL0     H18934   8.110   2.283   4.468 -2.1841 -0.1712 -2.8534
  881MOL0     H18935   7.980   2.263   4.568 -1.7279  1.6202 -3.1951
  882MOL0     O18936   7.443   0.488   0.699 -0.1770  0.8798 -1.3110
  882MOL0     C18937   7.349   0.519   0.631  0.4314  0.0859 -0.3039
  882MOL0     O18938   7.293   0.638   0.631  0.7085 -0.2718 -0.1212
  882MOL0     C18939   7.325   0.747   0.705  0.5916  0.7776  0.0269
  882MOL0     C18940   7.357   0.860   0.631  0.1024  0.0205 -1.0896
  882MOL0     C18941   7.403   0.980   0.690 -0.6184  0.6734  0.9820
  882MOL0     C18942   7.398   0.990   0.833 -0.6326 -0.0316 -0.3132
  882MOL0     O18943   7.409   1.109   0.894  0.0323 -0.5242 -0.1696
  882MOL0     C18944   7.352   1.232   0.833  0.5514  0.5979 -0.5198
  882MOL0     C18945   7.465   1.323   0.800 -1.1498  0.0284  0.5153
  882MOL0     C18946   7.404   1.441   0.718 -0.5079  0.6889 -0.6519
  882MOL0     C18947   7.518   1.544   0.705 -0.2016 -0.2829 -0.4641
  882MOL0     C18948   7.454   1.679   0.648  0.3670 -0.4233 -0.2802
  882MOL0     C18949   7.550   1.810   0.668 -0.1956 -0.3197 -0.3233
  882MOL0     C18950   7.483   1.932   0.620 -1.3204  0.2013  0.9359
  882MOL0     C18951   7.386   1.991   0.712 -0.3266  0.0546  0.3859
  882MOL0     N18952   7.379   2.133   0.694  0.2658 -0.0493  0.5195
  882MOL0     C18953   7.444   2.230   0.783  0.5735  0.9751 -0.2067
  882MOL0     C18954   7.426   2.345   0.710  0.3030 -0.4507 -0.7666
  882MOL0     C18955   7.443   2.478   0.763 -1.2507  0.2869 -0.6339
  882MOL0     C18956   7.385   2.596   0.668 -0.4706  0.5255 -1.1390
  882MOL0     C18957   7.489   2.618   0.553 -0.5966 -0.3879  0.5163
  882MOL0     C18958   7.452   2.742   0.464 -0.2991 -0.7123  0.5624
  882MOL0     O18959   7.457   2.864   0.543 -0.4826 -0.0153 -0.7390
  882MOL0     C18960   7.453   2.978   0.480  0.7362 -0.1018 -0.7064
  882MOL0     C18961   7.435   2.999   0.341  0.0773 -0.4513  0.9182
  882MOL0     C18962   7.437   3.119   0.270  0.8425 -0.4218 -0.5189
  882MOL0     C18963   7.476   3.235   0.343 -0.8450 -0.6037 -0.3793
  882MOL0     C18964   7.477   3.376   0.287  0.9442 -0.3078 -0.6913
  882MOL0     O18965   7.555   3.477   0.347 -0.7118  0.1215 -0.4685
  882MOL0     C18966   7.570   3.596   0.298  0.8038 -0.0808  0.3031
  882MOL0     C18967   7.652   3.616   0.189 -1.1415  0.2917 -0.0421
  882MOL0     C18968   7.663   3.741   0.132  0.7086 -0.5243  1.7828
  882MOL0     C18969   7.590   3.844   0.175  0.7163  0.4216  0.8432
  882MOL0     O18970   7.618   3.952   0.093  0.6152 -0.6102 -0.9226
  882MOL0     C18971   7.533   4.064   0.104  0.3899  0.1235 -0.5660
  882MOL0     C18972   7.405   4.050   0.020  1.1858  0.0685  1.1215
  882MOL0     C18973   7.449   4.088  -0.121 -0.0655 -0.6360  0.5319
  882MOL0     C18974   7.330   4.089  -0.216 -0.0210  0.5544  0.3667
  882MOL0     C18975   7.372   4.127  -0.358 -0.4605  0.6945 -0.5950
  882MOL0     C18976   7.251   4.110  -0.444  0.8894  0.3148 -0.5257
  882MOL0     C18977   7.289   4.163  -0.583  0.2865 -0.0871  1.0331
  882MOL0     C18978   7.157   4.171  -0.665  0.2134  0.6983 -0.3487
  882MOL0    Cl18979   7.188   4.197  -0.834  0.0215  0.2701  0.1019
  882MOL0     C18980   7.508   3.827   0.288 -0.9823 -0.1052  0.0039
  882MOL0     C18981   7.500   3.701   0.351 -0.2294  0.3917 -0.1349
  882MOL0     O18982   7.414   3.392   0.177  0.3641 -0.1804 -0.7547
  882MOL0     C18983   7.491   3.228   0.481  0.0372  0.4002 -0.0525
  882MOL0     C18984   7.476   3.101   0.553  0.0157  0.0739 -0.9199
  882MOL0     N18985   7.352   2.316   0.592  0.1593 -0.1922  0.2237
  882MOL0     N18986   7.323   2.188   0.586 -0.3168  0.6784  0.0605
  882MOL0     C18987   7.375   0.871   0.910 -0.0460 -0.1393  0.5024
  882MOL0     C18988   7.353   0.748   0.845  0.3135  0.2741 -0.2915
  882MOL0     C18989   7.309   0.418   0.531  0.6766 -0.5485 -0.2377
  882MOL0     C18990   7.415   0.345   0.474  1.0240  0.3013  0.2046
  882MOL0     C18991   7.379   0.249   0.379 -0.1137  0.2830  0.8171
  882MOL0     C18992   7.246   0.224   0.349  0.4081  0.2830 -0.4265
  882MOL0     O18993   7.209   0.137   0.244 -0.4811 -0.1523 -0.2516
  882MOL0     C18994   7.302   0.087   0.148  0.0622 -0.3951  0.9639
  882MOL0     C18995   7.225  -0.038   0.103  0.2527  0.4093  1.2124
  882MOL0     C18996   7.262  -0.153   0.188  0.5036  0.0788 -0.1069
  882MOL0     C18997   7.206  -0.284   0.129 -0.4731  0.1276  0.5573
  882MOL0     C18998   7.277  -0.401   0.180 -0.6516 -0.3059  0.1766
  882MOL0     C18999   7.338  -0.500   0.201  0.1004  0.9103  0.7590
  882MOL0     C19000   7.140   0.290   0.426  0.7267  0.4834 -0.7567
  882MOL0     C19001   7.172   0.385   0.524  0.2568  0.4931 -0.3566
  882MOL0     C19002   7.059   0.442   0.606 -0.1538 -1.5677  0.1116
  882MOL0     H19003   7.363   0.853   0.523 -1.4280  2.0467 -1.3656
  882MOL0     H19004   7.416   1.067   0.626  0.4055 -1.0951 -1.3581
  882MOL0     H19005   7.293   1.208   0.744 -1.3558  2.2955  0.2245
  882MOL0     H19006   7.290   1.277   0.910  0.7934 -2.7129  1.8392
  882MOL0     H19007   7.531   1.258   0.740 -1.5529 -1.7048  1.8535
  882MOL0     H19008   7.514   1.354   0.893  1.9374 -0.3333 -0.8492
  882MOL0     H19009   7.329   1.484   0.786  1.0803  2.6943 -0.0797
  882MOL0     H19010   7.365   1.416   0.619 -2.9410 -0.1058  0.4323
  882MOL0     H19011   7.566   1.552   0.803 -0.7663 -0.0304 -0.2045
  882MOL0     H19012   7.590   1.504   0.633  0.5071  0.5384 -0.2281
  882MOL0     H19013   7.436   1.667   0.540  0.4455  1.7925 -0.5846
  882MOL0     H19014   7.353   1.698   0.685  1.2202 -0.0965  2.0151
  882MOL0     H19015   7.598   1.831   0.764  3.2479 -1.7695 -1.5914
  882MOL0     H19016   7.637   1.794   0.604 -0.2312  1.2174 -0.7840
  882MOL0     H19017   7.445   1.925   0.517  1.4736  3.9180 -0.5800
  882MOL0     H19018   7.565   2.002   0.602 -0.8536 -0.3766  0.7576
  882MOL0     H19019   7.289   1.940   0.704  0.5514 -1.5926 -0.2915
  882MOL0     H19020   7.417   1.986   0.817  1.9480 -0.8844 -0.2575
  882MOL0     H19021   7.484   2.211   0.882 -0.7010  5.0183  1.2802
  882MOL0     H19022   7.385   2.486   0.855 -2.5773  3.5483 -1.6303
  882MOL0     H19023   7.542   2.502   0.803 -1.9562 -1.4810  2.5274
  882MOL0     H19024   7.291   2.562   0.624 -0.6427  1.5603 -1.5935
  882MOL0     H19025   7.377   2.684   0.732  3.0820 -0.0993  0.4107
  882MOL0     H19026   7.484   2.533   0.485  0.7009  1.1803 -1.6607
  882MOL0     H19027   7.587   2.625   0.601 -2.6511  1.4682  5.0040
  882MOL0     H19028   7.346   2.728   0.441 -0.1619 -2.2756  0.7237
  882MOL0     H19029   7.516   2.752   0.376 -0.6305 -1.2858  0.2524
  882MOL0     H19030   7.416   2.916   0.273 -2.0547 -2.4850  3.7405
  882MOL0     H19031   7.416   3.125   0.164 -1.7153  0.2292 -0.0390
  882MOL0     H19032   7.717   3.537   0.155  0.7948  1.3373  1.0556
  882MOL0     H19033   7.724   3.755   0.044  0.4527 -0.5197  1.6052
  882MOL0     H19034   7.497   4.074   0.206  0.4663  0.5791 -0.5852
  882MOL0     H19035   7.587   4.154   0.074 -0.4629  1.0135  0.4746
  882MOL0     H19036   7.377   3.944   0.020  2.1672 -0.2464 -1.2996
  882MOL0     H19037   7.325   4.109   0.066  1.1032 -0.6701  1.9602
  882MOL0     H19038   7.489   4.189  -0.117 -1.1798 -0.1877  0.7112
  882MOL0     H19039   7.525   4.024  -0.167  0.0057  0.5576 -1.0708
  882MOL0     H19040   7.255   4.164  -0.191  0.3404  0.7446  0.8881
  882MOL0     H19041   7.278   3.993  -0.207  2.8982 -1.6014 -2.9763
  882MOL0     H19042   7.453   4.064  -0.394 -1.2917 -1.1777  0.6806
  882MOL0     H19043   7.409   4.230  -0.358  0.7925  0.2672  0.2819
  882MOL0     H19044   7.218   4.008  -0.465 -0.3709  0.2749  1.4117
  882MOL0     H19045   7.164   4.158  -0.399  1.8677  2.4745 -0.8183
  882MOL0     H19046   7.358   4.103  -0.643 -0.9161 -1.0332  0.5816
  882MOL0     H19047   7.331   4.264  -0.573  0.8876 -0.0410 -1.3161
  882MOL0     H19048   7.100   4.079  -0.649 -0.0390  0.9151  0.0187
  882MOL0     H19049   7.102   4.257  -0.625  0.9179  0.6420  0.7671
  882MOL0     H19050   7.459   3.912   0.333  2.6933  1.2009  1.9293
  882MOL0     H19051   7.447   3.685   0.444 -2.1425 -0.5789 -1.3271
  882MOL0     H19052   7.513   3.320   0.535 -1.6568  2.6425 -2.9060
  882MOL0     H19053   7.497   3.107   0.659  0.8268  1.2094 -1.1309
  882MOL0     H19054   7.387   0.868   1.018 -2.6637 -0.4350  0.8635
  882MOL0     H19055   7.335   0.655   0.899 -2.3065 -0.1057 -1.6566
  882MOL0     H19056   7.521   0.363   0.491  0.6984  0.0966  2.8300
  882MOL0     H19057   7.461   0.201   0.328 -1.0098 -0.7924  0.3403
  882MOL0     H19058   7.398   0.059   0.191 -0.0721  0.7970  2.0792
  882MOL0     H19059   7.304   0.152   0.060 -0.3121 -2.0835 -0.3639
  882MOL0     H19060   7.248  -0.060  -0.001 -1.8095 -0.8445  0.9735
  882MOL0     H19061   7.116  -0.036   0.110  0.1635 -1.9443  1.1796
  882MOL0     H19062   7.225  -0.138   0.289 -1.7477 -5.3537  0.1987
  882MOL0     H19063   7.371  -0.159   0.198  0.5642 -2.2568 -1.3351
  882MOL0     H19064   7.099  -0.302   0.147 -0.0194 -3.1745  0.6153
  882MOL0     H19065   7.223  -0.279   0.021 -1.0103 -1.2595  0.3890
  882MOL0     H19066   7.397  -0.589   0.205 -3.0933 -1.4579 -0.5598
  882MOL0     H19067   7.036   0.262   0.413  0.1737  0.9237  2.0772
  882MOL0     H19068   6.980   0.466   0.534  0.3316 -1.3535 -0.3545
  882MOL0     H19069   7.010   0.372   0.675 -3.2343  0.3722  0.0843
  882MOL0     H19070   7.090   0.532   0.659  2.7113 -2.6797  0.4955
  883MOL0     O19071   8.991   9.308   5.781  0.5857  0.0821 -0.1601
  883MOL0     C19072   8.945   9.273   5.675  0.1682  1.4650  0.1347
  883MOL0     O19073   8.857   9.165   5.658 -0.2263 -0.3509  0.2854
  883MOL0     C19074   8.836   9.064   5.750 -0.1081 -0.2608 -0.0076
  883MOL0     C19075   8.752   9.085   5.865  0.3546 -0.1601 -0.3575
  883MOL0     C19076   8.730   8.978   5.946  0.0037  1.3613 -0.5797
  883MOL0     C19077   8.791   8.853   5.924  0.6137 -0.0683 -1.4662
  883MOL0     O19078   8.767   8.747   6.014  0.6854  0.8433 -0.2298
  883MOL0     C19079   8.860   8.639   6.019 -1.2718 -0.7813 -0.6210
  883MOL0     C19080   8.810   8.522   6.109 -0.0868  0.8791 -0.4808
  883MOL0     C19081   8.679   8.469   6.069 -0.0903 -0.2168 -0.3891
  883MOL0     C19082   8.615   8.386   6.177  0.9629  0.0097 -0.1438
  883MOL0     C19083   8.689   8.252   6.195  0.3172 -0.1666 -0.0081
  883MOL0     C19084   8.600   8.152   6.270  0.0353  0.7812 -0.1318
  883MOL0     C19085   8.704   8.042   6.307  0.6028  0.0275  0.3924
  883MOL0     C19086   8.637   7.928   6.371  0.5453  0.4616 -0.1266
  883MOL0     N19087   8.731   7.834   6.434 -0.0270 -0.8052  0.8261
  883MOL0     C19088   8.819   7.754   6.365  0.3420  0.9347  0.1119
  883MOL0     C19089   8.859   7.662   6.454  0.2052  0.1125  0.1664
  883MOL0     C19090   8.950   7.536   6.429  1.2839 -0.4700 -0.3675
  883MOL0     C19091   8.861   7.439   6.355  0.2382  0.3917 -0.3690
  883MOL0     C19092   8.929   7.311   6.368 -0.0379  0.5204 -0.9969
  883MOL0     C19093   8.851   7.206   6.282  0.1205  0.8311 -0.9538
  883MOL0     O19094   8.945   7.105   6.248 -0.7600  0.6635  0.5630
  883MOL0     C19095   8.908   6.975   6.279 -0.3151  0.3001 -0.6623
  883MOL0     C19096   8.941   6.927   6.406 -0.2650 -0.3111 -0.4439
  883MOL0     C19097   8.893   6.795   6.421 -0.2827  0.1700 -0.1052
  883MOL0     C19098   8.803   6.734   6.321  0.9350  0.2357  0.7294
  883MOL0     C19099   8.731   6.605   6.357 -0.1984  0.9303  0.5195
  883MOL0     O19100   8.675   6.524   6.258  0.6023 -0.9492 -0.0195
  883MOL0     C19101   8.614   6.413   6.317  0.6890  0.1611  0.0993
  883MOL0     C19102   8.484   6.420   6.364 -0.4291  1.3993 -0.4490
  883MOL0     C19103   8.428   6.305   6.427  0.1395 -0.2700 -0.2313
  883MOL0     C19104   8.501   6.190   6.461 -0.6368 -0.8626 -0.1278
  883MOL0     O19105   8.449   6.093   6.539  0.0458 -0.3645  0.6241
  883MOL0     C19106   8.501   5.961   6.540 -0.2049 -0.0797 -0.0277
  883MOL0     C19107   8.432   5.874   6.640 -0.3664  0.1516  0.0406
  883MOL0     C19108   8.287   5.849   6.617 -1.2311  0.1098 -0.2594
  883MOL0     C19109   8.259   5.779   6.482  0.9504 -0.0732  0.0970
  883MOL0     C19110   8.116   5.769   6.459 -0.2717  0.4548  0.2078
  883MOL0     C19111   8.074   5.747   6.318  0.3290  0.0343  0.2434
  883MOL0     C19112   8.045   5.870   6.240  0.4041  0.0924 -0.3246
  883MOL0     C19113   8.032   5.851   6.087  0.1598 -0.2642 -0.2359
  883MOL0    Cl19114   7.905   5.722   6.035 -0.5677  0.3882 -0.4639
  883MOL0     C19115   8.634   6.181   6.411 -0.7242 -0.4942  0.8634
  883MOL0     C19116   8.690   6.292   6.339  0.8559 -0.1104 -0.6340
  883MOL0     O19117   8.723   6.587   6.480  0.2491 -0.3009  0.3835
  883MOL0     C19118   8.788   6.794   6.193  0.1399  0.8391 -0.2116
  883MOL0     C19119   8.834   6.918   6.181  0.9015 -0.1104  0.2718
  883MOL0     N19120   8.810   7.695   6.580 -0.7465 -0.0754  0.3462
  883MOL0     N19121   8.737   7.803   6.565  0.0210 -0.1223 -0.1234
  883MOL0     C19122   8.880   8.841   5.818  0.0624 -0.1271  0.0345
  883MOL0     C19123   8.898   8.939   5.728  0.7421  0.3736  0.9046
  883MOL0     C19124   8.958   9.362   5.550  0.4583  0.6109 -0.7511
  883MOL0     C19125   8.845   9.368   5.465 -0.5332  0.2877  1.2461
  883MOL0     C19126   8.852   9.457   5.358 -0.9837  0.1108 -0.4655
  883MOL0     C19127   8.962   9.537   5.328 -0.0327 -0.6687 -0.6237
  883MOL0     O19128   8.978   9.611   5.213  1.0507  0.8992 -0.4031
  883MOL0     C19129   8.864   9.696   5.182 -0.7671  0.6715  0.0892
  883MOL0     C19130   8.859   9.726   5.030 -0.3773 -0.3130 -0.1490
  883MOL0     C19131   8.998   9.786   4.971 -0.5713 -0.1448 -0.5483
  883MOL0     C19132   8.997   9.785   4.822 -0.4627  1.5597 -0.4679
  883MOL0     C19133   9.050   9.648   4.785 -0.3369 -0.1663 -0.2112
  883MOL0     C19134   9.097   9.538   4.765 -0.3009  0.7904  0.4107
  883MOL0     C19135   9.068   9.538   5.415 -0.0667  0.5345 -0.4326
  883MOL0     C19136   9.071   9.451   5.531 -0.2540 -0.6844 -0.7289
  883MOL0     C19137   9.181   9.455   5.633 -0.1364  0.6881  0.3002
  883MOL0     H19138   8.704   9.182   5.855 -1.3361 -1.1030 -2.2236
  883MOL0     H19139   8.658   8.985   6.026 -0.0533 -1.9723 -0.1762
  883MOL0     H19140   8.881   8.593   5.923 -1.2579 -1.1230 -0.4534
  883MOL0     H19141   8.958   8.673   6.055 -2.2086 -1.2537  2.7806
  883MOL0     H19142   8.808   8.563   6.211  1.7980  2.4007 -0.9962
  883MOL0     H19143   8.885   8.443   6.095 -0.6660  0.0043  1.0225
  883MOL0     H19144   8.689   8.408   5.978 -3.6305 -0.4821 -0.7230
  883MOL0     H19145   8.606   8.543   6.035  2.8731  1.2657 -4.3687
  883MOL0     H19146   8.625   8.434   6.274  0.8884 -0.7476  0.2469
  883MOL0     H19147   8.511   8.360   6.157  0.2696  0.5713  2.4698
  883MOL0     H19148   8.704   8.204   6.098 -1.0531 -0.5678 -0.0431
  883MOL0     H19149   8.783   8.268   6.249 -0.7099  2.2717  1.1775
  883MOL0     H19150   8.545   8.186   6.358  0.9505 -0.4782  0.9750
  883MOL0     H19151   8.527   8.099   6.208 -2.6529  2.0775  1.7676
  883MOL0     H19152   8.779   8.086   6.373  1.0729  0.9138 -0.6816
  883MOL0     H19153   8.752   8.009   6.214 -0.0274 -1.2913  0.5182
  883MOL0     H19154   8.562   7.953   6.447  0.6919  3.1740 -0.7684
  883MOL0     H19155   8.588   7.871   6.292 -1.1190 -0.3414  1.4262
  883MOL0     H19156   8.856   7.760   6.263  1.3099  2.2522  0.5216
  883MOL0     H19157   9.030   7.564   6.359 -0.1546 -1.2880 -2.4504
  883MOL0     H19158   8.984   7.495   6.524 -3.8742  1.6871  2.7982
  883MOL0     H19159   8.759   7.437   6.393 -0.4689 -3.3347 -1.9980
  883MOL0     H19160   8.854   7.465   6.249  3.0808 -0.2849 -0.7999
  883MOL0     H19161   8.911   7.280   6.471 -1.0181  1.9773 -0.6935
  883MOL0     H19162   9.038   7.321   6.359  0.2944 -0.5572  1.1224
  883MOL0     H19163   8.815   7.247   6.187  1.7815 -0.2549 -2.1150
  883MOL0     H19164   8.760   7.161   6.322 -0.7345  2.3018 -1.2085
  883MOL0     H19165   9.001   6.961   6.490 -4.4367 -0.7651  3.0382
  883MOL0     H19166   8.905   6.744   6.516 -2.0350  0.1556  0.1478
  883MOL0     H19167   8.425   6.507   6.337 -1.6292  0.1863 -1.8731
  883MOL0     H19168   8.324   6.306   6.459 -0.3320 -0.7451 -1.6880
  883MOL0     H19169   8.486   5.912   6.443  1.1308  0.7486 -0.6916
  883MOL0     H19170   8.605   5.956   6.573 -0.7610 -0.2655  1.7875
  883MOL0     H19171   8.485   5.778   6.639 -1.7456 -0.6958 -2.9123
  883MOL0     H19172   8.451   5.917   6.739  0.5917 -1.4632  0.6040
  883MOL0     H19173   8.253   5.780   6.695 -2.1940 -1.6416 -2.1169
  883MOL0     H19174   8.240   5.947   6.619  0.2666  0.8471  0.0814
  883MOL0     H19175   8.295   5.676   6.493  0.8416  0.0376  1.7463
  883MOL0     H19176   8.308   5.826   6.396  1.1269  2.7633  1.6295
  883MOL0     H19177   8.063   5.858   6.495  0.6136  1.1358 -0.1459
  883MOL0     H19178   8.071   5.685   6.513  0.3883 -0.8898 -1.2404
  883MOL0     H19179   8.155   5.699   6.263 -1.4556  2.1853 -4.8551
  883MOL0     H19180   7.991   5.676   6.324  2.0086 -2.1889 -1.1865
  883MOL0     H19181   8.118   5.949   6.262  0.0691  0.8558 -1.8239
  883MOL0     H19182   7.951   5.906   6.283  0.4276 -2.3658  2.0401
  883MOL0     H19183   7.997   5.951   6.061  0.8658  0.4799  1.5642
  883MOL0     H19184   8.126   5.832   6.033  0.3229  0.9985 -0.4206
  883MOL0     H19185   8.701   6.098   6.430  0.6251  0.6546  1.2783
  883MOL0     H19186   8.784   6.280   6.286  1.6775  1.0562  0.4807
  883MOL0     H19187   8.728   6.748   6.115 -0.0381  1.9426 -0.7465
  883MOL0     H19188   8.827   6.972   6.087  0.9515 -1.5029 -0.5631
  883MOL0     H19189   8.926   8.748   5.788 -0.6059  0.0151 -1.5111
  883MOL0     H19190   8.969   8.932   5.645 -1.6899  2.9615 -1.6543
  883MOL0     H19191   8.751   9.318   5.488 -1.0459  0.2986 -0.6507
  883MOL0     H19192   8.767   9.452   5.291 -1.8511  0.2092  0.5979
  883MOL0     H19193   8.868   9.784   5.246  1.2635 -1.3861  3.0903
  883MOL0     H19194   8.774   9.648   5.222  0.5320 -1.6908  0.4043
  883MOL0     H19195   8.781   9.802   5.017  0.1138  0.4347  1.0824
  883MOL0     H19196   8.828   9.631   4.985  1.3269 -1.0515  0.1448
  883MOL0     H19197   9.093   9.744   5.004 -0.5541 -1.9642 -2.7103
  883MOL0     H19198   8.997   9.891   5.003 -0.4417 -0.3529  0.1584
  883MOL0     H19199   8.897   9.814   4.790 -2.0096 -1.6809  0.9051
  883MOL0     H19200   9.065   9.859   4.779  1.1920 -1.4583 -3.4861
  883MOL0     H19201   9.117   9.435   4.743 -0.7373 -0.2146  4.0221
  883MOL0     H19202   9.135   9.621   5.397  1.5217 -0.4756  0.5635
  883MOL0     H19203   9.264   9.515   5.593 -1.1914  1.2251 -1.1547
  883MOL0     H19204   9.147   9.502   5.725 -0.2946  1.8699 -0.3462
  883MOL0     H19205   9.218   9.354   5.655 -1.9534  0.3283  1.9303
  884MOL0     O19206   9.252   7.458   3.995 -0.2053 -0.4730 -0.3188
  884MOL0     C19207   9.315   7.435   3.898 -0.2107  0.2361 -0.0152
  884MOL0     O19208   9.347   7.309   3.852 -0.3668  0.3424 -0.0874
  884MOL0     C19209   9.289   7.196   3.901  0.0697 -0.6227 -0.3543
  884MOL0     C19210   9.298   7.181   4.040 -0.7019  0.2509  0.7816
  884MOL0     C19211   9.227   7.073   4.095 -0.4765 -0.7498  0.5420
  884MOL0     C19212   9.167   6.976   4.010  0.2354  1.0352 -0.1944
  884MOL0     O19213   9.114   6.853   4.073  0.2630 -1.2048  0.6003
  884MOL0     C19214   9.142   6.817   4.203 -0.7729  0.0138  0.4531
  884MOL0     C19215   9.019   6.755   4.279 -0.3211 -0.0781 -0.4101
  884MOL0     C19216   8.892   6.840   4.254 -0.7378  0.8816  0.4054
  884MOL0     C19217   8.773   6.808   4.341 -0.4647  0.2407 -0.6851
  884MOL0     C19218   8.646   6.877   4.297  0.0650  0.1880  0.8643
  884MOL0     C19219   8.514   6.804   4.312  0.3366  0.5460 -0.3043
  884MOL0     C19220   8.399   6.892   4.283  0.6902  0.2844 -0.5038
  884MOL0     C19221   8.323   6.865   4.145  0.3189  0.4067 -0.1792
  884MOL0     N19222   8.397   6.906   4.031 -0.5710 -0.0652  0.3334
  884MOL0     C19223   8.501   6.998   4.025  0.6072 -0.0014 -0.0413
  884MOL0     C19224   8.571   6.962   3.913 -0.6884  0.1030 -0.7947
  884MOL0     C19225   8.698   7.025   3.873  0.3863  1.0048 -0.2171
  884MOL0     C19226   8.745   7.130   3.975 -1.0864  0.9157 -0.3537
  884MOL0     C19227   8.879   7.191   3.940  0.4887 -0.6539 -0.1608
  884MOL0     C19228   8.878   7.294   3.832  0.1719 -0.1318  0.6922
  884MOL0     O19229   8.773   7.388   3.846  0.3677 -1.4952 -0.1300
  884MOL0     C19230   8.799   7.510   3.785 -1.0781  0.5391  0.1525
  884MOL0     C19231   8.796   7.517   3.647 -0.8964 -0.3538 -0.4030
  884MOL0     C19232   8.836   7.631   3.581 -0.5476 -0.9227 -0.3045
  884MOL0     C19233   8.880   7.746   3.655  0.4352 -0.5022 -0.0459
  884MOL0     C19234   8.916   7.876   3.576  0.0834  0.5833 -0.8069
  884MOL0     O19235   8.984   7.975   3.643  0.1980 -0.9461  0.2869
  884MOL0     C19236   9.043   8.069   3.557 -1.0076  0.8325 -1.5189
  884MOL0     C19237   9.174   8.053   3.500  0.4457 -0.1772 -0.5930
  884MOL0     C19238   9.237   8.162   3.432 -0.2740  0.8513  0.3011
  884MOL0     C19239   9.174   8.281   3.421 -0.2888 -1.0653  0.2555
  884MOL0     O19240   9.226   8.401   3.366 -0.9674  0.2583  0.2451
  884MOL0     C19241   9.350   8.403   3.295  0.3820  0.5382 -0.4456
  884MOL0     C19242   9.453   8.436   3.398  0.5639 -0.0319  0.2672
  884MOL0     C19243   9.575   8.503   3.347  0.4607  0.6124 -0.3502
  884MOL0     C19244   9.634   8.419   3.231  0.3467 -0.7553 -0.2612
  884MOL0     C19245   9.772   8.462   3.184  0.1740  0.6025 -0.5364
  884MOL0     C19246   9.838   8.353   3.091  0.1663 -0.2865 -0.1856
  884MOL0     C19247   9.976   8.398   3.035 -0.6814  0.7604  0.0571
  884MOL0     C19248  10.030   8.306   2.931 -0.5952  0.5153 -0.7372
  884MOL0    Cl19249  10.041   8.137   2.984  0.3448 -0.4394 -0.5084
  884MOL0     C19250   9.041   8.286   3.475 -0.0857 -0.7056 -0.4175
  884MOL0     C19251   8.983   8.191   3.545  0.5105 -0.2669  0.0826
  884MOL0     O19252   8.889   7.884   3.458  0.6713 -0.2284  0.5882
  884MOL0     C19253   8.879   7.743   3.798  0.0571  0.8274  0.1822
  884MOL0     C19254   8.850   7.616   3.861 -0.6028 -0.9677  0.4615
  884MOL0     N19255   8.507   6.858   3.844  0.7026  0.1956 -0.0567
  884MOL0     N19256   8.412   6.820   3.920  0.8086 -0.0994  0.5386
  884MOL0     C19257   9.176   6.993   3.871  0.3272 -0.5460 -0.2703
  884MOL0     C19258   9.240   7.108   3.815  1.3237  0.5549 -0.2028
  884MOL0     C19259   9.354   7.557   3.826  0.6139  0.6835 -0.0109
  884MOL0     C19260   9.272   7.670   3.828 -0.1723  0.3519 -0.0454
  884MOL0     C19261   9.307   7.796   3.769 -0.8465 -0.6612  0.4038
  884MOL0     C19262   9.418   7.805   3.683  0.5699 -0.8255  0.9495
  884MOL0     O19263   9.440   7.924   3.622  0.2719 -0.1700 -0.5486
  884MOL0     C19264   9.530   7.919   3.503  0.1887  0.4030 -1.2668
  884MOL0     C19265   9.484   7.824   3.384 -0.0485  1.0599  1.1147
  884MOL0     C19266   9.600   7.789   3.271  0.6627  1.1131 -0.0048
  884MOL0     C19267   9.678   7.903   3.216 -0.4253  0.3236  0.4124
  884MOL0     C19268   9.590   8.012   3.176 -0.6624 -0.2119  0.6042
  884MOL0     C19269   9.523   8.106   3.127 -0.4288 -0.0223 -0.0612
  884MOL0     C19270   9.493   7.688   3.671 -0.6404 -1.1594 -0.2795
  884MOL0     C19271   9.468   7.566   3.743 -0.4019 -0.3962 -0.5910
  884MOL0     C19272   9.573   7.462   3.721 -0.3805  0.1588  0.4377
  884MOL0     H19273   9.346   7.248   4.110 -0.4991 -2.2747  3.2727
  884MOL0     H19274   9.249   7.073   4.201  1.3230  2.0069  0.2715
  884MOL0     H19275   9.212   6.733   4.199  0.4883  0.8163  3.1349
  884MOL0     H19276   9.189   6.896   4.262  0.2731 -0.3595  0.1382
  884MOL0     H19277   9.030   6.742   4.387  0.3702  0.4938 -0.4084
  884MOL0     H19278   8.993   6.656   4.241 -1.7944  0.2013 -0.1866
  884MOL0     H19279   8.854   6.820   4.153 -3.3437 -0.6139  1.5887
  884MOL0     H19280   8.906   6.947   4.269 -2.4176  1.3574 -1.0447
  884MOL0     H19281   8.751   6.701   4.329  1.0496 -0.1893  0.2135
  884MOL0     H19282   8.796   6.834   4.444 -3.5697 -2.3963  0.8680
  884MOL0     H19283   8.647   6.971   4.353  1.6574  1.1929 -0.7195
  884MOL0     H19284   8.658   6.895   4.189 -2.5290  0.7253  0.5974
  884MOL0     H19285   8.506   6.727   4.235 -2.6335 -1.0816  1.4673
  884MOL0     H19286   8.502   6.756   4.410  2.1086  0.4220 -0.1072
  884MOL0     H19287   8.431   6.995   4.300  2.8423 -0.1768 -1.5212
  884MOL0     H19288   8.321   6.874   4.358  1.3730  1.3696  0.4848
  884MOL0     H19289   8.299   6.759   4.138 -0.3645  0.5338  0.1372
  884MOL0     H19290   8.221   6.904   4.133  1.4416  2.8738 -2.7673
  884MOL0     H19291   8.513   7.081   4.094  0.4252 -0.3288  0.3896
  884MOL0     H19292   8.770   6.942   3.867 -3.2413 -3.0895  4.3612
  884MOL0     H19293   8.667   7.066   3.777 -1.9153 -1.4448 -0.6222
  884MOL0     H19294   8.674   7.210   3.998  2.3056  3.5336  2.0889
  884MOL0     H19295   8.771   7.076   4.066  3.0967 -0.1314 -1.9439
  884MOL0     H19296   8.940   7.105   3.909  0.4401 -1.1242  1.0142
  884MOL0     H19297   8.919   7.245   4.026 -0.5610  0.9115 -0.6167
  884MOL0     H19298   8.875   7.241   3.736 -1.1301 -1.8269  1.6256
  884MOL0     H19299   8.968   7.355   3.819 -0.6884  1.7907  3.0418
  884MOL0     H19300   8.767   7.432   3.587 -1.6141 -1.2865  1.2020
  884MOL0     H19301   8.840   7.620   3.473  0.4391 -0.0147 -0.3874
  884MOL0     H19302   9.229   7.961   3.517 -2.3376 -1.5494  2.0333
  884MOL0     H19303   9.329   8.135   3.381 -1.1361  0.6256 -1.2083
  884MOL0     H19304   9.377   8.306   3.252 -0.8503  1.4843 -3.6350
  884MOL0     H19305   9.342   8.473   3.211 -0.3253 -0.0861 -0.9150
  884MOL0     H19306   9.406   8.502   3.472 -1.9801 -0.6993 -0.6627
  884MOL0     H19307   9.487   8.349   3.454  1.3862 -0.3722 -0.7308
  884MOL0     H19308   9.557   8.603   3.309  1.0082  1.8165  2.3166
  884MOL0     H19309   9.650   8.529   3.422  1.5099  2.7288 -2.0316
  884MOL0     H19310   9.563   8.437   3.150 -0.0581 -2.0034 -0.2091
  884MOL0     H19311   9.630   8.310   3.244 -0.6253 -1.2625 -3.8427
  884MOL0     H19312   9.851   8.472   3.260  1.7152 -0.4114 -1.9363
  884MOL0     H19313   9.764   8.554   3.125  1.1457  0.9471 -0.1582
  884MOL0     H19314   9.862   8.259   3.142  1.1381 -2.2376 -3.9441
  884MOL0     H19315   9.775   8.331   3.004  2.3871  6.7978 -4.4131
  884MOL0     H19316  10.051   8.399   3.114 -0.2938 -3.4374 -0.0423
  884MOL0     H19317   9.979   8.494   2.983 -0.4972  0.1184 -1.1696
  884MOL0     H19318   9.968   8.314   2.841 -2.6263 -2.7873  0.1878
  884MOL0     H19319  10.134   8.341   2.922 -0.1857  0.1534  1.9783
  884MOL0     H19320   9.000   8.386   3.471  3.9180  1.0913 -1.5753
  884MOL0     H19321   8.884   8.214   3.584  1.1548  5.5778 -0.7826
  884MOL0     H19322   8.921   7.818   3.864  0.9776  0.7584 -0.3066
  884MOL0     H19323   8.859   7.614   3.969  0.3060 -1.4940  0.3882
  884MOL0     H19324   9.116   6.925   3.812  1.0512  0.3842 -2.1730
  884MOL0     H19325   9.233   7.139   3.711 -0.7110  0.4032 -0.1439
  884MOL0     H19326   9.176   7.671   3.879 -1.7924 -0.3127 -2.8679
  884MOL0     H19327   9.238   7.880   3.767  0.7716  0.7266 -1.1554
  884MOL0     H19328   9.629   7.883   3.533 -1.9969 -3.7053  2.1019
  884MOL0     H19329   9.533   8.016   3.453 -0.5932  0.1255 -1.8838
  884MOL0     H19330   9.401   7.877   3.338 -1.1118 -0.1310  1.6059
  884MOL0     H19331   9.443   7.731   3.424 -0.6175  0.7198 -0.2157
  884MOL0     H19332   9.548   7.736   3.191 -1.5794  0.4732  1.7635
  884MOL0     H19333   9.676   7.722   3.311  0.2296  0.3064 -0.5188
  884MOL0     H19334   9.739   7.949   3.295 -0.0288  1.4438 -0.5294
  884MOL0     H19335   9.738   7.869   3.132  2.1803  1.1676  1.8091
  884MOL0     H19336   9.455   8.177   3.086 -1.2293 -0.7076  0.0647
  884MOL0     H19337   9.568   7.695   3.592 -1.1775 -0.8025 -0.7679
  884MOL0     H19338   9.653   7.496   3.653 -1.8770  0.7586 -1.0931
  884MOL0     H19339   9.637   7.440   3.807  2.8568  2.5733 -1.1140
  884MOL0     H19340   9.534   7.371   3.673  1.9783 -1.5504  1.5286
  885MOL0     O19341   3.438   6.833   4.674 -0.0890  0.3500 -0.5361
  885MOL0     C19342   3.336   6.771   4.653 -0.1735 -0.4253  0.0066
  885MOL0     O19343   3.264   6.776   4.540 -0.5166 -0.7515  0.3487
  885MOL0     C19344   3.299   6.895   4.470  0.0182  0.1268 -0.3884
  885MOL0     C19345   3.222   7.010   4.494  0.6556 -0.6136 -0.2702
  885MOL0     C19346   3.236   7.119   4.407 -1.3396  1.6604  0.0916
  885MOL0     C19347   3.329   7.115   4.297 -0.5206 -0.4461 -1.3201
  885MOL0     O19348   3.334   7.215   4.205 -0.3919 -0.8797  0.1734
  885MOL0     C19349   3.466   7.255   4.169  0.5191  1.2340  0.3179
  885MOL0     C19350   3.483   7.220   4.019 -0.0273  0.8030 -0.4616
  885MOL0     C19351   3.396   7.300   3.919  0.7434  0.3462  0.4207
  885MOL0     C19352   3.249   7.271   3.933  0.4459 -0.3009 -0.1857
  885MOL0     C19353   3.159   7.308   3.809  0.5126  0.3420 -0.4654
  885MOL0     C19354   3.020   7.235   3.809 -0.5169 -0.5349 -0.1851
  885MOL0     C19355   3.020   7.090   3.758  0.1493 -0.8546 -0.1929
  885MOL0     C19356   2.878   7.028   3.764 -0.5509 -0.1887  0.6866
  885MOL0     N19357   2.886   6.882   3.748 -0.2914 -0.7543 -1.0388
  885MOL0     C19358   2.965   6.804   3.819  0.3261 -0.5129  0.0123
  885MOL0     C19359   2.955   6.683   3.759 -0.0352  0.6533  0.8379
  885MOL0     C19360   3.012   6.562   3.828 -0.1984 -0.4984  0.2339
  885MOL0     C19361   2.914   6.446   3.813  0.7783 -0.1360 -0.3214
  885MOL0     C19362   2.963   6.317   3.871 -0.6571 -0.8320  0.4378
  885MOL0     C19363   2.869   6.204   3.868  1.2912  0.2079  0.6932
  885MOL0     O19364   2.767   6.217   3.970  1.2243  0.2362  0.1010
  885MOL0     C19365   2.700   6.104   4.006  0.0562  0.8315 -0.6952
  885MOL0     C19366   2.656   6.003   3.920  0.2856  0.3187 -0.1193
  885MOL0     C19367   2.605   5.884   3.977  0.0956  0.3172 -0.1530
  885MOL0     C19368   2.601   5.868   4.119  0.1779  0.1460 -0.1019
  885MOL0     C19369   2.591   5.724   4.174 -0.1065 -0.2797  0.4535
  885MOL0     O19370   2.517   5.711   4.286 -0.0687 -0.1370 -0.5201
  885MOL0     C19371   2.484   5.592   4.349 -0.6943  0.5605 -0.9373
  885MOL0     C19372   2.451   5.469   4.282 -0.3485 -0.2939 -0.3638
  885MOL0     C19373   2.425   5.355   4.355 -0.3004 -0.3298  0.7818
  885MOL0     C19374   2.432   5.352   4.500 -0.1820  0.2952  0.1382
  885MOL0     O19375   2.410   5.240   4.576 -0.2763 -0.8364 -0.0427
  885MOL0     C19376   2.358   5.122   4.512  0.7073  0.6973 -0.5637
  885MOL0     C19377   2.342   5.000   4.606  0.3093  0.1522  0.7186
  885MOL0     C19378   2.485   4.956   4.639  0.1539 -0.2282 -0.0960
  885MOL0     C19379   2.502   4.867   4.757 -1.1805 -0.1839 -1.1154
  885MOL0     C19380   2.404   4.750   4.754  0.3177  0.1328  0.2742
  885MOL0     C19381   2.414   4.669   4.628 -0.3046 -0.3127 -0.6741
  885MOL0     C19382   2.347   4.536   4.660 -0.8855 -0.3648  0.1290
  885MOL0     C19383   2.353   4.431   4.546  0.4145  0.5532  0.0461
  885MOL0    Cl19384   2.519   4.391   4.497  0.0825  0.6812 -0.0181
  885MOL0     C19385   2.470   5.470   4.562 -0.7951  0.1907 -0.3516
  885MOL0     C19386   2.496   5.587   4.483 -0.5321 -0.2843  0.0927
  885MOL0     O19387   2.642   5.629   4.113 -0.1711 -0.0236 -0.3717
  885MOL0     C19388   2.610   5.979   4.203 -0.0462 -0.2756  0.3997
  885MOL0     C19389   2.664   6.095   4.141 -0.8732  0.1912  0.4310
  885MOL0     N19390   2.872   6.691   3.646 -0.2008 -0.0433  0.3909
  885MOL0     N19391   2.845   6.818   3.642 -0.8160  0.0785 -0.2067
  885MOL0     C19392   3.391   6.995   4.271  0.0391 -0.6671  0.5407
  885MOL0     C19393   3.386   6.888   4.360 -0.0998  0.0959 -1.0626
  885MOL0     C19394   3.294   6.664   4.743 -0.6683  0.4406 -1.2835
  885MOL0     C19395   3.262   6.539   4.684 -0.4043  0.2026  0.5055
  885MOL0     C19396   3.219   6.433   4.772 -1.2509 -0.3826  0.4099
  885MOL0     C19397   3.198   6.448   4.909  0.2045  0.3888  0.5425
  885MOL0     O19398   3.149   6.333   4.975 -0.0226 -0.8258  0.7887
  885MOL0     C19399   3.125   6.340   5.114 -0.5681 -0.0952  0.5922
  885MOL0     C19400   3.078   6.195   5.153 -0.2313  0.3944  0.4404
  885MOL0     C19401   2.955   6.151   5.070 -0.4670 -0.1630  0.2445
  885MOL0     C19402   2.821   6.220   5.113  0.1472  0.7991 -1.1439
  885MOL0     C19403   2.754   6.154   5.228 -0.8856 -0.5986 -0.4004
  885MOL0     C19404   2.692   6.108   5.317 -0.4180  0.4745  0.5571
  885MOL0     C19405   3.233   6.570   4.963 -0.2450 -0.1103 -0.7327
  885MOL0     C19406   3.297   6.671   4.888  0.6562  0.2201  0.5380
  885MOL0     C19407   3.351   6.786   4.957  0.6124  0.4343  0.5650
  885MOL0     H19408   3.138   7.009   4.562  0.2227  2.6776 -0.6010
  885MOL0     H19409   3.179   7.205   4.439  0.0915  2.6587  0.0575
  885MOL0     H19410   3.475   7.363   4.187 -0.3847  0.9414  3.0198
  885MOL0     H19411   3.544   7.216   4.234 -0.6231  1.7260  2.0734
  885MOL0     H19412   3.471   7.113   4.001 -2.8671  1.2381 -1.8108
  885MOL0     H19413   3.585   7.245   3.989  0.3601 -0.7069 -0.4648
  885MOL0     H19414   3.421   7.262   3.819 -3.7643 -1.3335 -0.3092
  885MOL0     H19415   3.412   7.408   3.913 -3.7473  1.1471 -0.7822
  885MOL0     H19416   3.228   7.170   3.968 -1.0339 -0.1632 -0.6149
  885MOL0     H19417   3.214   7.338   4.012 -3.1938 -0.6822 -1.2853
  885MOL0     H19418   3.144   7.416   3.811 -0.5423  0.2070  1.3821
  885MOL0     H19419   3.204   7.278   3.714  2.4707  1.5573  0.0339
  885MOL0     H19420   2.989   7.244   3.914 -0.7939  1.1117 -0.3787
  885MOL0     H19421   2.954   7.297   3.747  2.5872 -0.0848 -3.3513
  885MOL0     H19422   3.081   7.030   3.827  0.2663 -2.2148 -1.4361
  885MOL0     H19423   3.062   7.079   3.658  0.2697 -1.7318 -0.0497
  885MOL0     H19424   2.850   7.068   3.862  5.1224  3.1108  1.3692
  885MOL0     H19425   2.816   7.073   3.686  1.4166  3.1711  0.8692
  885MOL0     H19426   3.023   6.826   3.909  1.0320 -1.1883 -0.2650
  885MOL0     H19427   3.110   6.540   3.785 -0.6749 -3.3008  0.4079
  885MOL0     H19428   3.036   6.588   3.931  1.3683  1.7838 -0.6220
  885MOL0     H19429   2.829   6.488   3.867 -0.5269 -2.0292 -0.7943
  885MOL0     H19430   2.894   6.435   3.706  0.0058  1.4556 -0.3571
  885MOL0     H19431   2.993   6.327   3.976 -0.2983 -0.4457  0.2966
  885MOL0     H19432   3.055   6.297   3.817 -0.4274  1.2462 -0.0061
  885MOL0     H19433   2.930   6.114   3.877  2.4969  1.1194  2.0310
  885MOL0     H19434   2.818   6.214   3.772 -1.4237  0.8377  2.0743
  885MOL0     H19435   2.667   6.013   3.812 -0.5332  0.8932 -0.1582
  885MOL0     H19436   2.571   5.797   3.921 -0.5375  0.8275 -0.5679
  885MOL0     H19437   2.437   5.481   4.175 -0.3734 -2.5954 -0.6822
  885MOL0     H19438   2.411   5.269   4.291 -1.0530  0.5905 -0.3201
  885MOL0     H19439   2.260   5.145   4.469 -0.1538 -1.6921 -0.0073
  885MOL0     H19440   2.427   5.085   4.435  1.5956 -0.9094  0.9382
  885MOL0     H19441   2.277   5.022   4.692 -0.4598 -0.8992  0.4292
  885MOL0     H19442   2.287   4.925   4.549 -1.5028  0.9514  1.3377
  885MOL0     H19443   2.523   4.902   4.552  0.2464 -1.6567  0.7965
  885MOL0     H19444   2.556   5.039   4.641 -1.6287  1.3835 -0.2550
  885MOL0     H19445   2.475   4.928   4.844  0.4667  0.5926 -1.1221
  885MOL0     H19446   2.602   4.824   4.766 -0.3555  1.8701  0.4887
  885MOL0     H19447   2.308   4.802   4.755 -0.7370 -1.5925 -2.3029
  885MOL0     H19448   2.420   4.699   4.850 -2.2681  2.0034  1.8408
  885MOL0     H19449   2.348   4.709   4.550 -1.0689  0.7179  0.4589
  885MOL0     H19450   2.518   4.664   4.597  0.0143  0.6766  0.1765
  885MOL0     H19451   2.242   4.559   4.678 -0.9812  1.2122 -2.1381
  885MOL0     H19452   2.388   4.488   4.750 -1.6989  0.5710  1.0342
  885MOL0     H19453   2.300   4.340   4.575 -1.8958  1.3716 -1.3425
  885MOL0     H19454   2.301   4.461   4.454  1.0086 -2.1430 -1.2870
  885MOL0     H19455   2.475   5.473   4.670  0.7170  3.0269 -0.4149
  885MOL0     H19456   2.508   5.680   4.537  1.3394 -0.4891  0.0863
  885MOL0     H19457   2.588   5.964   4.308 -2.2741 -1.0421 -0.1255
  885MOL0     H19458   2.690   6.184   4.197  1.8153  1.8228 -3.0154
  885MOL0     H19459   3.445   6.980   4.178 -2.7495  2.4188 -1.8271
  885MOL0     H19460   3.436   6.792   4.346  1.4512  0.3597  2.0160
  885MOL0     H19461   3.292   6.509   4.584  0.9223  0.8733  0.6837
  885MOL0     H19462   3.192   6.342   4.719 -1.0309 -0.2308  0.0289
  885MOL0     H19463   3.039   6.405   5.132 -1.4873 -0.9075 -0.6600
  885MOL0     H19464   3.218   6.370   5.163  0.9218 -0.4836 -1.8186
  885MOL0     H19465   3.037   6.185   5.254 -0.6283 -4.0354  0.0320
  885MOL0     H19466   3.169   6.134   5.147 -0.0623  0.4655  1.8963
  885MOL0     H19467   2.945   6.043   5.076  1.1132 -0.2765  1.6562
  885MOL0     H19468   2.977   6.172   4.964  1.0255 -2.4930  0.0327
  885MOL0     H19469   2.823   6.328   5.133 -2.1006  0.3873  2.1221
  885MOL0     H19470   2.743   6.212   5.038 -0.5654  0.4556 -0.3805
  885MOL0     H19471   2.623   6.062   5.385 -0.6993 -5.4759 -3.0199
  885MOL0     H19472   3.229   6.582   5.071 -2.4427 -0.5109 -0.7101
  885MOL0     H19473   3.422   6.765   5.039  1.5217 -1.8042 -0.6894
  885MOL0     H19474   3.401   6.864   4.898 -1.7966  1.8725  0.2992
  885MOL0     H19475   3.256   6.832   4.982 -0.5150 -1.3671 -0.2165
  886MOL0     O19476   4.119   6.507   4.161  0.9812  0.1334  0.6166
  886MOL0     C19477   4.178   6.400   4.144  0.0464  0.5079 -0.2072
  886MOL0     O19478   4.153   6.300   4.059  0.0053 -0.1525  0.7032
  886MOL0     C19479   4.066   6.318   3.953 -0.5442  0.1710 -0.4952
  886MOL0     C19480   4.007   6.442   3.916  0.9505  0.9113 -0.3625
  886MOL0     C19481   3.914   6.446   3.815 -0.3580 -0.1669 -0.5657
  886MOL0     C19482   3.884   6.334   3.743  0.1862 -0.4715 -0.7199
  886MOL0     O19483   3.784   6.332   3.655 -0.4666 -0.1722 -0.0842
  886MOL0     C19484   3.830   6.290   3.518  0.5086 -1.2974  0.6190
  886MOL0     C19485   3.736   6.195   3.448 -0.0988  0.9323 -0.9546
  886MOL0     C19486   3.758   6.044   3.498  1.1077 -0.5423  0.4336
  886MOL0     C19487   3.759   5.937   3.386  0.7448 -0.5583  0.3333
  886MOL0     C19488   3.745   5.791   3.446  0.4517  0.4544  0.6132
  886MOL0     C19489   3.762   5.703   3.317 -0.1142  0.6761 -0.4298
  886MOL0     C19490   3.718   5.558   3.326  0.2583  0.8868  0.3108
  886MOL0     C19491   3.565   5.529   3.338 -0.3826 -0.4048  0.8530
  886MOL0     N19492   3.490   5.549   3.210 -1.0175  0.4160 -0.1482
  886MOL0     C19493   3.450   5.452   3.126  0.2264  0.3255  0.8843
  886MOL0     C19494   3.386   5.522   3.030  1.2553  0.6312 -0.8392
  886MOL0     C19495   3.337   5.464   2.902  0.2271 -0.4001  1.2787
  886MOL0     C19496   3.291   5.322   2.896  0.3359  0.5424 -1.2189
  886MOL0     C19497   3.218   5.278   2.762  0.3136 -1.1405 -0.4023
  886MOL0     C19498   3.303   5.312   2.634 -0.3815 -0.2289  0.0404
  886MOL0     O19499   3.255   5.240   2.520 -0.5749  0.3593 -0.0541
  886MOL0     C19500   3.345   5.187   2.439  0.2608 -0.3669  0.0413
  886MOL0     C19501   3.303   5.073   2.367  0.5481 -0.0766  0.8123
  886MOL0     C19502   3.378   5.016   2.266 -0.5634 -0.1852  0.2255
  886MOL0     C19503   3.511   5.055   2.243 -0.4042  0.2142 -1.4059
  886MOL0     C19504   3.589   4.998   2.136  0.5792  1.0929  0.7620
  886MOL0     O19505   3.552   4.868   2.099 -1.0351 -0.1773  0.2829
  886MOL0     C19506   3.630   4.797   2.005  0.8515  0.0422 -0.1660
  886MOL0     C19507   3.650   4.856   1.881 -1.4080 -0.3139  1.2052
  886MOL0     C19508   3.739   4.797   1.791  0.5363  0.1179  0.9985
  886MOL0     C19509   3.812   4.681   1.828 -1.2203 -0.8477  0.3845
  886MOL0     O19510   3.910   4.640   1.736  0.1616  0.0631  0.1769
  886MOL0     C19511   4.034   4.592   1.790 -0.2463  0.1253 -0.1071
  886MOL0     C19512   4.137   4.637   1.689 -0.5096 -0.9193  0.5008
  886MOL0     C19513   4.136   4.583   1.538 -0.6283 -0.8358  0.1413
  886MOL0     C19514   4.261   4.627   1.469 -0.0530  0.3739  0.5005
  886MOL0     C19515   4.266   4.592   1.317  0.2178 -0.0419 -0.8911
  886MOL0     C19516   4.371   4.486   1.276 -0.2844 -0.8198 -0.2251
  886MOL0     C19517   4.326   4.346   1.313  0.2502  0.0151 -0.5000
  886MOL0     C19518   4.442   4.268   1.384  0.2633 -0.1620  0.2332
  886MOL0    Cl19519   4.356   4.104   1.397  0.4782  0.1137 -0.2258
  886MOL0     C19520   3.791   4.621   1.948  0.1841 -0.7035  0.8019
  886MOL0     C19521   3.700   4.670   2.037 -0.0215 -0.2873  0.3201
  886MOL0     O19522   3.664   5.079   2.086 -0.1315 -0.3295 -0.3470
  886MOL0     C19523   3.562   5.160   2.321  0.3234 -0.2850  0.0168
  886MOL0     C19524   3.485   5.226   2.416  0.7920 -0.1715  0.0969
  886MOL0     N19525   3.391   5.658   3.062  0.4399 -0.7878  0.8332
  886MOL0     N19526   3.449   5.675   3.172 -0.3145 -0.2885  0.4643
  886MOL0     C19527   3.950   6.210   3.777  0.1140  0.7341 -0.2052
  886MOL0     C19528   4.043   6.204   3.882 -0.8252  0.5441  0.4217
  886MOL0     C19529   4.286   6.368   4.255 -1.0305 -0.8527  0.6521
  886MOL0     C19530   4.308   6.460   4.358 -0.2834 -0.6156 -0.2657
  886MOL0     C19531   4.384   6.429   4.478 -0.0788 -0.6292 -0.6418
  886MOL0     C19532   4.452   6.307   4.483  0.2978  0.5248 -0.1915
  886MOL0     O19533   4.535   6.262   4.587 -0.1445  0.0865  0.0340
  886MOL0     C19534   4.548   6.349   4.706  0.4586 -0.8240  0.2070
  886MOL0     C19535   4.627   6.263   4.805  0.2979 -0.0080 -0.7019
  886MOL0     C19536   4.778   6.237   4.770  0.0604  0.2608 -0.6851
  886MOL0     C19537   4.828   6.131   4.869 -0.0222 -0.5485 -0.8999
  886MOL0     C19538   4.774   5.998   4.851 -0.1789 -0.2681  0.0086
  886MOL0     C19539   4.718   5.889   4.839 -0.2690 -0.9879 -0.6031
  886MOL0     C19540   4.444   6.223   4.372  1.7112 -0.7255  0.0241
  886MOL0     C19541   4.360   6.242   4.257 -0.6593  0.1813  0.1702
  886MOL0     C19542   4.352   6.123   4.155  0.8970  0.6676 -0.1149
  886MOL0     H19543   4.051   6.538   3.940  0.4243  0.7732  1.3146
  886MOL0     H19544   3.875   6.541   3.780 -1.9787 -0.5259  0.1703
  886MOL0     H19545   3.827   6.382   3.459  0.4891  0.0537  2.6048
  886MOL0     H19546   3.929   6.243   3.515  2.3057  2.1676 -0.4596
  886MOL0     H19547   3.767   6.202   3.344  2.3660  0.2036 -0.3402
  886MOL0     H19548   3.630   6.220   3.453 -0.7175 -1.6955  2.2173
  886MOL0     H19549   3.693   6.011   3.580  2.0009 -2.1914  0.5241
  886MOL0     H19550   3.862   6.044   3.533  1.6538 -0.8843 -1.1389
  886MOL0     H19551   3.682   5.954   3.311 -1.1613  0.6146  2.4357
  886MOL0     H19552   3.855   5.944   3.333  0.6721 -0.5542  0.2034
  886MOL0     H19553   3.819   5.765   3.522  0.9868 -1.0566 -0.3782
  886MOL0     H19554   3.640   5.769   3.467 -0.7337  2.7352 -2.2036
  886MOL0     H19555   3.730   5.751   3.224  1.0751 -3.2070 -3.1311
  886MOL0     H19556   3.866   5.701   3.283  0.5741  2.9828  1.2743
  886MOL0     H19557   3.761   5.509   3.414 -0.8782  1.6799  1.3420
  886MOL0     H19558   3.750   5.514   3.231  1.6816 -2.4331  2.1841
  886MOL0     H19559   3.556   5.433   3.390  0.6933  0.2988  2.4108
  886MOL0     H19560   3.528   5.599   3.414  1.0724 -1.4764  2.6127
  886MOL0     H19561   3.479   5.348   3.137 -1.9647 -0.6750 -1.6941
  886MOL0     H19562   3.261   5.532   2.862  0.6651 -0.3545  0.4961
  886MOL0     H19563   3.415   5.487   2.830 -0.1972  1.7053  1.4228
  886MOL0     H19564   3.371   5.253   2.924 -0.0795  1.8502  4.2455
  886MOL0     H19565   3.208   5.300   2.963  1.9560  1.2524  1.1182
  886MOL0     H19566   3.120   5.326   2.755  1.4042  1.6088  1.3678
  886MOL0     H19567   3.217   5.169   2.768 -0.1726 -1.1812 -1.1077
  886MOL0     H19568   3.408   5.287   2.650 -0.0543 -0.3480 -2.0345
  886MOL0     H19569   3.306   5.419   2.612 -1.3520 -0.0372  0.7820
  886MOL0     H19570   3.200   5.043   2.387  0.8985 -1.5858  0.4427
  886MOL0     H19571   3.338   4.935   2.206  0.9535 -1.0706  0.3484
  886MOL0     H19572   3.592   4.940   1.844  1.2460  0.8681 -0.5718
  886MOL0     H19573   3.765   4.840   1.694  0.5234 -2.9355 -0.4929
  886MOL0     H19574   4.050   4.630   1.891 -1.1460  0.8937 -0.2432
  886MOL0     H19575   4.031   4.483   1.798  0.1942  0.0818 -0.4790
  886MOL0     H19576   4.147   4.746   1.689  0.6607 -1.0050  1.5375
  886MOL0     H19577   4.232   4.597   1.727 -1.4696 -3.0874  0.7770
  886MOL0     H19578   4.134   4.474   1.533 -0.9750 -0.9771  2.3388
  886MOL0     H19579   4.048   4.620   1.484 -0.4937 -0.1428  0.3799
  886MOL0     H19580   4.341   4.567   1.514 -0.4029 -0.3664  0.1506
  886MOL0     H19581   4.279   4.734   1.482  0.3330  0.1774  1.7265
  886MOL0     H19582   4.293   4.681   1.260  3.1981 -0.0923  0.2390
  886MOL0     H19583   4.162   4.577   1.287 -1.0392  2.0682  1.9117
  886MOL0     H19584   4.389   4.484   1.168 -1.2272  0.1796 -0.4127
  886MOL0     H19585   4.467   4.509   1.323 -0.2573  2.5282 -1.6685
  886MOL0     H19586   4.288   4.299   1.222 -2.0075  0.4346  0.1818
  886MOL0     H19587   4.251   4.348   1.393  1.9689 -1.9505  1.2847
  886MOL0     H19588   4.532   4.260   1.323  1.4359  1.2983  1.6838
  886MOL0     H19589   4.471   4.307   1.482 -2.2557 -2.2662  1.9725
  886MOL0     H19590   3.837   4.527   1.976  0.4121 -1.0569 -0.7248
  886MOL0     H19591   3.685   4.609   2.126  1.3256 -0.3642  0.5164
  886MOL0     H19592   3.665   5.191   2.304  1.1836 -1.6464  2.3125
  886MOL0     H19593   3.524   5.305   2.479 -0.2143 -0.7391  1.4735
  886MOL0     H19594   3.939   6.114   3.726 -0.1810 -0.6957  2.3506
  886MOL0     H19595   4.107   6.118   3.898  1.1927  1.7116 -0.8903
  886MOL0     H19596   4.261   6.558   4.361  2.6041  0.9026 -0.9101
  886MOL0     H19597   4.382   6.506   4.554  0.3648 -1.4613  0.2246
  886MOL0     H19598   4.449   6.371   4.747  0.3421 -2.5912  0.9603
  886MOL0     H19599   4.596   6.444   4.681  3.3296 -1.3263  3.2285
  886MOL0     H19600   4.557   6.186   4.839 -0.0607  0.2983 -0.7486
  886MOL0     H19601   4.649   6.319   4.896  1.4181 -1.1543 -0.2286
  886MOL0     H19602   4.836   6.329   4.776  0.6313  0.0343 -2.2112
  886MOL0     H19603   4.788   6.201   4.667  0.3779 -2.4017  0.1747
  886MOL0     H19604   4.938   6.126   4.864  0.0766 -1.2077  0.9928
  886MOL0     H19605   4.804   6.171   4.968 -0.5748 -1.6752 -0.5677
  886MOL0     H19606   4.675   5.791   4.835 -0.3679 -0.9760 -0.0390
  886MOL0     H19607   4.487   6.123   4.374 -1.4007 -2.2998 -2.0453
  886MOL0     H19608   4.416   6.038   4.181 -0.7306 -0.9876 -1.3335
  886MOL0     H19609   4.252   6.080   4.154  2.0034 -2.1061 -1.3600
  886MOL0     H19610   4.374   6.156   4.053  1.2337 -1.0728 -0.6429
  887MOL0     O19611   2.975   1.454   0.497 -0.5199 -0.1586 -0.6483
  887MOL0     C19612   3.057   1.543   0.532  0.4929  0.0093 -0.9782
  887MOL0     O19613   3.152   1.597   0.449 -0.6518  1.4002  1.2499
  887MOL0     C19614   3.203   1.504   0.350  0.7215  0.5354  0.8373
  887MOL0     C19615   3.276   1.388   0.383  0.3269  0.4245 -0.6949
  887MOL0     C19616   3.313   1.297   0.288 -0.2788  0.0985  0.6207
  887MOL0     C19617   3.286   1.320   0.150 -0.3318  0.7162 -0.0757
  887MOL0     O19618   3.339   1.242   0.049 -0.2923 -0.5368 -0.4159
  887MOL0     C19619   3.232   1.186  -0.031 -0.2436 -0.5503 -0.1517
  887MOL0     C19620   3.231   1.033  -0.014  1.0358 -0.5673 -0.7465
  887MOL0     C19621   3.188   0.998   0.129  0.5266  0.1583 -0.0375
  887MOL0     C19622   3.045   1.030   0.166  0.4439  1.0223  0.0891
  887MOL0     C19623   3.030   1.045   0.313 -0.8601 -0.6177  0.0185
  887MOL0     C19624   3.073   0.934   0.409  0.1789  0.0592  1.1949
  887MOL0     C19625   3.077   0.991   0.546  0.1563 -0.2505 -0.0125
  887MOL0     C19626   2.936   1.009   0.615 -0.3924 -0.5304 -0.4444
  887MOL0     N19627   2.869   0.880   0.642  0.0895  0.1931  0.5125
  887MOL0     C19628   2.910   0.782   0.733 -0.6079  0.0899  0.4145
  887MOL0     C19629   2.822   0.680   0.713 -0.8425  0.1940  0.1082
  887MOL0     C19630   2.827   0.560   0.814  0.4292  0.1775  0.2826
  887MOL0     C19631   2.944   0.451   0.790  0.5469 -2.0430 -0.2640
  887MOL0     C19632   2.894   0.353   0.683  0.3950  0.7284 -0.6840
  887MOL0     C19633   2.987   0.230   0.677 -0.0778 -0.6843 -1.4381
  887MOL0     O19634   3.050   0.187   0.800  0.8141 -0.1536 -1.1392
  887MOL0     C19635   3.156   0.100   0.791  0.4175  0.3328 -0.7336
  887MOL0     C19636   3.191   0.045   0.912  0.0937  1.1196 -0.4613
  887MOL0     C19637   3.297  -0.048   0.923 -0.2618 -0.7735  0.0667
  887MOL0     C19638   3.361  -0.088   0.814  0.2489 -0.8326  0.1343
  887MOL0     C19639   3.470  -0.194   0.819  0.4127  0.9667 -0.3104
  887MOL0     O19640   3.502  -0.254   0.717 -0.6642  0.1989  0.1846
  887MOL0     C19641   3.605  -0.344   0.717 -0.8171  0.6258 -0.8065
  887MOL0     C19642   3.707  -0.331   0.624 -0.6752 -0.4394  0.3757
  887MOL0     C19643   3.781  -0.442   0.593 -0.9280 -0.4306  0.6787
  887MOL0     C19644   3.779  -0.562   0.662 -0.2620  0.9175  0.4277
  887MOL0     O19645   3.851  -0.680   0.642 -0.1139 -0.7956 -0.0955
  887MOL0     C19646   3.987  -0.663   0.599 -0.0669 -0.2942  0.0559
  887MOL0     C19647   4.058  -0.792   0.632  0.0586  1.0757 -0.2657
  887MOL0     C19648   4.194  -0.801   0.551  0.6679 -0.3513 -1.5173
  887MOL0     C19649   4.261  -0.936   0.584 -0.4480  0.5740 -0.1548
  887MOL0     C19650   4.406  -0.955   0.530  0.0181  0.3901 -0.3848
  887MOL0     C19651   4.502  -0.864   0.605  0.2704  0.0964  0.3625
  887MOL0     C19652   4.658  -0.883   0.583 -0.7509 -0.4278  0.0690
  887MOL0     C19653   4.736  -0.799   0.678 -0.1814 -0.8292  0.2327
  887MOL0    Cl19654   4.915  -0.779   0.624  0.5014  0.2588 -0.1055
  887MOL0     C19655   3.677  -0.568   0.767  0.3997 -0.2368 -0.1949
  887MOL0     C19656   3.591  -0.461   0.780  0.0555  0.4586 -0.3949
  887MOL0     O19657   3.521  -0.216   0.933 -0.7277  0.1286 -0.0589
  887MOL0     C19658   3.337  -0.028   0.693  0.3616 -0.6339 -0.8762
  887MOL0     C19659   3.233   0.067   0.680 -0.1314  0.6910 -0.3842
  887MOL0     N19660   2.730   0.724   0.620 -0.4121  1.0015 -0.1785
  887MOL0     N19661   2.769   0.839   0.568  0.8267 -0.0986  0.5917
  887MOL0     C19662   3.222   1.438   0.113 -0.6183  0.5314 -0.4207
  887MOL0     C19663   3.163   1.521   0.211 -0.9963 -0.6067 -0.2112
  887MOL0     C19664   3.041   1.612   0.668  0.1888  0.0564 -0.7940
  887MOL0     C19665   3.101   1.737   0.694 -0.4562 -0.0002  0.0603
  887MOL0     C19666   3.096   1.801   0.818 -0.1593  0.0717  0.2275
  887MOL0     C19667   3.006   1.751   0.918 -0.0014 -0.5247 -0.9342
  887MOL0     O19668   2.962   1.812   1.038  0.0403  0.4209  0.6084
  887MOL0     C19669   3.017   1.932   1.073  0.0437 -1.4891  0.7592
  887MOL0     C19670   2.986   1.979   1.221 -0.1804 -0.4583  0.9650
  887MOL0     C19671   2.842   2.019   1.238  0.1447 -0.1689  0.3675
  887MOL0     C19672   2.795   1.988   1.380  0.3826 -0.2929 -1.0736
  887MOL0     C19673   2.872   2.058   1.487 -0.0331  0.0288  0.2778
  887MOL0     C19674   2.957   2.119   1.552 -0.0649 -0.0141 -1.0811
  887MOL0     C19675   2.948   1.631   0.888  0.7015  0.0471 -0.1760
  887MOL0     C19676   2.962   1.558   0.770 -1.1123 -0.7697  0.4787
  887MOL0     C19677   2.911   1.417   0.767 -1.2390  0.5679 -0.6947
  887MOL0     H19678   3.297   1.358   0.486  0.1195 -0.7490 -0.9789
  887MOL0     H19679   3.377   1.213   0.314  1.9770  1.2902 -0.7878
  887MOL0     H19680   3.140   1.243  -0.011 -0.4756  0.1727 -2.9097
  887MOL0     H19681   3.242   1.203  -0.138 -2.9140 -0.4686 -0.4758
  887MOL0     H19682   3.335   1.006  -0.034  1.9263  1.4278  0.8176
  887MOL0     H19683   3.177   0.978  -0.092 -0.4796  1.5653 -1.3083
  887MOL0     H19684   3.267   1.038   0.194  3.7057 -0.8565 -2.9688
  887MOL0     H19685   3.199   0.890   0.147 -2.7243 -0.6645 -2.1220
  887MOL0     H19686   3.004   1.113   0.108 -0.0240  1.0734  0.4814
  887MOL0     H19687   2.983   0.942   0.145  1.7492 -0.4028  1.8781
  887MOL0     H19688   3.080   1.136   0.349 -1.2694 -1.4588  2.9925
  887MOL0     H19689   2.925   1.072   0.330  0.3774  3.5865  2.5047
  887MOL0     H19690   2.994   0.859   0.416 -1.1430  0.9786 -1.9626
  887MOL0     H19691   3.171   0.893   0.382  0.1577  0.0372  1.1522
  887MOL0     H19692   3.143   1.078   0.553  1.2719 -1.0357 -0.3590
  887MOL0     H19693   3.122   0.915   0.610  0.1497 -0.3550 -0.1315
  887MOL0     H19694   2.937   1.059   0.712  0.7037 -0.0135 -0.7014
  887MOL0     H19695   2.865   1.067   0.556  0.0699 -1.0261 -1.5266
  887MOL0     H19696   3.007   0.774   0.780 -0.1937 -0.4882 -0.5156
  887MOL0     H19697   2.836   0.592   0.918 -2.6851 -1.8338  1.3035
  887MOL0     H19698   2.733   0.503   0.809  1.8739 -2.2576 -1.9591
  887MOL0     H19699   3.041   0.496   0.770 -1.2181  2.7813  0.6127
  887MOL0     H19700   2.968   0.409   0.888  0.1971 -2.7382 -0.4701
  887MOL0     H19701   2.881   0.410   0.591  2.2306  0.4890 -1.1337
  887MOL0     H19702   2.793   0.315   0.703 -0.2246  1.2722 -2.5828
  887MOL0     H19703   3.068   0.260   0.610 -0.0774 -2.8236 -2.4658
  887MOL0     H19704   2.934   0.149   0.625  2.3735 -0.9765 -3.7262
  887MOL0     H19705   3.124   0.067   0.995  1.4149  2.0444  0.3936
  887MOL0     H19706   3.328  -0.085   1.020  0.7859  0.4632  0.2348
  887MOL0     H19707   3.705  -0.236   0.572 -0.8173  0.1421  1.4138
  887MOL0     H19708   3.861  -0.433   0.520 -0.8315 -0.9442  0.7171
  887MOL0     H19709   3.995  -0.640   0.492  3.7970  2.5386  0.7291
  887MOL0     H19710   4.031  -0.582   0.658 -1.8896 -1.0658  2.6038
  887MOL0     H19711   4.071  -0.799   0.741 -1.9041  0.7482 -0.0097
  887MOL0     H19712   3.999  -0.877   0.596  0.6347  0.5508  0.0155
  887MOL0     H19713   4.174  -0.782   0.445 -0.3989  1.5476 -1.0242
  887MOL0     H19714   4.264  -0.726   0.588  0.5951  0.1187 -2.3133
  887MOL0     H19715   4.186  -1.009   0.554  0.2234  0.0274 -0.5563
  887MOL0     H19716   4.268  -0.941   0.693 -0.5812 -0.9530 -0.1944
  887MOL0     H19717   4.404  -0.927   0.424  1.3635 -0.5930 -0.7007
  887MOL0     H19718   4.441  -1.059   0.530 -0.5877  0.1471 -1.9125
  887MOL0     H19719   4.485  -0.758   0.582  2.7642  1.3382  3.4772
  887MOL0     H19720   4.471  -0.860   0.709 -0.7444  0.6885  0.0512
  887MOL0     H19721   4.681  -0.857   0.479 -2.5211 -2.4699 -0.9142
  887MOL0     H19722   4.689  -0.986   0.598  0.8415  0.2521  1.8556
  887MOL0     H19723   4.683  -0.704   0.689 -0.0859 -0.5467 -1.5044
  887MOL0     H19724   4.729  -0.856   0.771  1.7849  0.9786  1.5897
  887MOL0     H19725   3.652  -0.658   0.822 -0.1809  2.1245  3.8178
  887MOL0     H19726   3.500  -0.472   0.837  0.5343  0.5826  0.4106
  887MOL0     H19727   3.397  -0.042   0.604 -3.3858 -2.4345 -3.3860
  887MOL0     H19728   3.227   0.126   0.589  0.9134  2.2890  0.5479
  887MOL0     H19729   3.201   1.481   0.016 -0.2753 -0.2211 -0.8367
  887MOL0     H19730   3.094   1.603   0.197  0.3363  0.2680 -1.9863
  887MOL0     H19731   3.169   1.776   0.619  1.8962 -0.7789  1.6983
  887MOL0     H19732   3.151   1.892   0.840  0.9007  0.1455 -2.3677
  887MOL0     H19733   2.985   2.012   1.006  1.7667 -1.5081 -0.1370
  887MOL0     H19734   3.123   1.906   1.074  0.1887 -0.9708  2.4252
  887MOL0     H19735   3.047   2.062   1.257 -0.3821  1.3006 -2.4177
  887MOL0     H19736   3.022   1.891   1.275  0.4388 -0.8835 -0.1144
  887MOL0     H19737   2.781   1.959   1.170  1.5952 -1.8093  0.4335
  887MOL0     H19738   2.811   2.120   1.209 -2.3047 -0.7804  0.5786
  887MOL0     H19739   2.691   2.019   1.388  0.0271 -1.4784 -0.8335
  887MOL0     H19740   2.798   1.880   1.402  0.7417 -0.0147  0.3906
  887MOL0     H19741   3.035   2.165   1.610 -1.0701 -2.8436  2.9714
  887MOL0     H19742   2.875   1.582   0.952  2.8967 -0.3849  2.1105
  887MOL0     H19743   2.995   1.348   0.753 -2.5576 -2.4151  3.7547
  887MOL0     H19744   2.869   1.374   0.859 -0.7949 -0.5688 -1.0058
  887MOL0     H19745   2.829   1.418   0.695 -2.1711  3.1884  0.3019
  888MOL0     O19746   8.498   9.577   2.004 -0.3510 -0.4183 -0.1489
  888MOL0     C19747   8.550   9.645   1.919 -0.8403  0.1235 -0.4488
  888MOL0     O19748   8.597   9.601   1.802 -0.0641 -0.7967  0.5029
  888MOL0     C19749   8.593   9.472   1.769  0.2336 -0.4485  0.9035
  888MOL0     C19750   8.466   9.415   1.744  1.3586  0.6411  0.3630
  888MOL0     C19751   8.462   9.281   1.699 -0.2740  0.3569 -0.2105
  888MOL0     C19752   8.575   9.209   1.692 -0.3018 -0.2676 -0.3182
  888MOL0     O19753   8.566   9.076   1.642  0.2268 -0.6105 -0.5136
  888MOL0     C19754   8.639   8.978   1.709 -0.4418 -0.3795 -0.0498
  888MOL0     C19755   8.613   8.975   1.857  0.2227 -0.1448  0.3858
  888MOL0     C19756   8.659   8.839   1.911  0.2074 -0.6117  0.2467
  888MOL0     C19757   8.665   8.844   2.064  0.0335  0.3457  0.2074
  888MOL0     C19758   8.706   8.712   2.123  0.5906 -0.4715  0.9189
  888MOL0     C19759   8.705   8.723   2.275 -0.5510 -0.2733  0.3318
  888MOL0     C19760   8.737   8.581   2.343  1.1875 -0.4731 -0.0048
  888MOL0     C19761   8.867   8.517   2.312 -0.2560 -1.2001  0.4191
  888MOL0     N19762   8.876   8.388   2.377 -0.1225  1.3204 -0.7620
  888MOL0     C19763   8.900   8.365   2.514 -0.0636  1.5166 -0.0425
  888MOL0     C19764   8.891   8.234   2.534 -0.4669  0.1816  0.9414
  888MOL0     C19765   8.895   8.152   2.657 -0.6795  0.7325 -1.8744
  888MOL0     C19766   9.020   8.077   2.677  0.0830  0.2422 -0.1329
  888MOL0     C19767   9.160   8.132   2.671  0.3532  0.3216  0.9059
  888MOL0     C19768   9.195   8.240   2.775 -0.1537  0.8519 -0.0657
  888MOL0     O19769   9.171   8.196   2.912 -0.0813 -0.1263 -0.0647
  888MOL0     C19770   9.200   8.065   2.948 -0.8574 -0.0661 -1.2561
  888MOL0     C19771   9.105   8.003   3.030  1.2804 -0.2406 -0.6859
  888MOL0     C19772   9.134   7.877   3.079  0.6372  0.0037 -0.6061
  888MOL0     C19773   9.251   7.807   3.052 -0.0610  0.1376 -0.1160
  888MOL0     C19774   9.273   7.684   3.114  0.7463  0.8501  1.5788
  888MOL0     O19775   9.217   7.666   3.230  0.2670  0.0187  0.1329
  888MOL0     C19776   9.217   7.547   3.304  0.3269  0.5528  0.9344
  888MOL0     C19777   9.218   7.418   3.249  0.5694  0.8056  0.3091
  888MOL0     C19778   9.171   7.306   3.324 -0.0834 -0.1639  0.2972
  888MOL0     C19779   9.128   7.324   3.450 -0.1157  0.2176 -0.5481
  888MOL0     O19780   9.070   7.230   3.537 -0.0251 -0.7653 -0.0842
  888MOL0     C19781   9.039   7.101   3.479  0.0284 -0.2772 -1.0885
  888MOL0     C19782   8.937   7.023   3.573 -0.3668 -0.3740  0.6432
  888MOL0     C19783   8.918   6.876   3.513  0.4962 -0.4627 -0.4746
  888MOL0     C19784   8.797   6.804   3.571  0.0591  0.6679 -0.8960
  888MOL0     C19785   8.799   6.669   3.492  0.0094 -0.3985 -0.3487
  888MOL0     C19786   8.728   6.543   3.553  0.6025 -0.4396 -1.2244
  888MOL0     C19787   8.581   6.531   3.529 -0.3078 -0.1195  0.2945
  888MOL0     C19788   8.501   6.639   3.612  0.2115  0.1466  0.3867
  888MOL0    Cl19789   8.331   6.601   3.589 -0.2236 -0.3875  0.1182
  888MOL0     C19790   9.133   7.452   3.512  0.2994  0.1616 -0.1088
  888MOL0     C19791   9.182   7.560   3.436  0.2481  0.0394 -0.6431
  888MOL0     O19792   9.363   7.612   3.072  0.6594 -0.2225 -0.2808
  888MOL0     C19793   9.345   7.871   2.969  0.7017  0.7242  0.9167
  888MOL0     C19794   9.316   7.990   2.912  0.5843  0.3490  0.4893
  888MOL0     N19795   8.867   8.175   2.414  0.0481  0.0263  0.6035
  888MOL0     N19796   8.860   8.260   2.319 -0.7757  0.5473 -0.4424
  888MOL0     C19797   8.702   9.267   1.735 -1.1769 -0.2367 -0.7543
  888MOL0     C19798   8.707   9.402   1.769 -0.4170  0.4362  0.8694
  888MOL0     C19799   8.565   9.793   1.946  0.7268  0.4932  0.4233
  888MOL0     C19800   8.637   9.871   1.850 -0.7357 -0.4160 -0.2479
  888MOL0     C19801   8.654  10.012   1.855  0.1035 -0.3672  0.0899
  888MOL0     C19802   8.583  10.083   1.953 -0.2787  0.6626 -0.8873
  888MOL0     O19803   8.580  10.219   1.970  0.3640  0.5838  1.5369
  888MOL0     C19804   8.660  10.307   1.889 -0.0907 -0.7262 -0.6073
  888MOL0     C19805   8.682  10.448   1.955  0.2344  0.6004  0.0306
  888MOL0     C19806   8.544  10.506   1.987  0.1876 -0.0079 -0.0787
  888MOL0     C19807   8.559  10.662   1.953 -0.3675 -1.4764  0.4498
  888MOL0     C19808   8.594  10.694   1.814  0.3778  0.7186 -0.1776
  888MOL0     C19809   8.610  10.706   1.696  0.2525 -0.8228  1.1848
  888MOL0     C19810   8.521  10.013   2.049 -0.1541  0.8914  0.4534
  888MOL0     C19811   8.517   9.871   2.048 -0.1219 -0.4406 -0.3780
  888MOL0     C19812   8.441   9.804   2.161  0.4446  0.5231 -0.7467
  888MOL0     H19813   8.387   9.490   1.747  1.7322  1.1137 -0.9923
  888MOL0     H19814   8.372   9.237   1.656 -1.7668  1.3261  1.7290
  888MOL0     H19815   8.606   8.882   1.668 -0.4971  0.4144 -1.9730
  888MOL0     H19816   8.747   8.986   1.690 -0.7669  0.2059 -1.8459
  888MOL0     H19817   8.506   8.999   1.864  0.0567 -0.6074 -0.4485
  888MOL0     H19818   8.674   9.044   1.916 -1.3369  1.3304  0.3578
  888MOL0     H19819   8.759   8.811   1.876 -1.0381 -2.4760 -2.1316
  888MOL0     H19820   8.599   8.756   1.873 -2.2287  1.5675 -0.9425
  888MOL0     H19821   8.733   8.924   2.092 -0.4272  0.6421  0.5089
  888MOL0     H19822   8.560   8.869   2.082  0.8125  3.0030  1.5251
  888MOL0     H19823   8.644   8.627   2.094 -4.5222  2.6192  1.5632
  888MOL0     H19824   8.809   8.691   2.093  0.2901  0.3682 -0.7896
  888MOL0     H19825   8.778   8.801   2.300 -1.0795  0.3736 -0.1199
  888MOL0     H19826   8.605   8.749   2.311  0.0637 -1.0129  2.7856
  888MOL0     H19827   8.662   8.511   2.306  3.1766 -1.3971 -2.6367
  888MOL0     H19828   8.723   8.591   2.451 -2.6611 -0.9107 -0.3233
  888MOL0     H19829   8.882   8.507   2.204  1.9725 -1.9108  0.7319
  888MOL0     H19830   8.957   8.571   2.342 -0.5073  1.0194 -2.3911
  888MOL0     H19831   8.924   8.439   2.589  3.3197 -1.3297  1.9940
  888MOL0     H19832   8.886   8.219   2.743  4.3799 -2.4328  1.6715
  888MOL0     H19833   8.817   8.075   2.665 -0.3095  0.4489 -0.8138
  888MOL0     H19834   9.027   8.025   2.773 -0.6035  0.9569  0.3185
  888MOL0     H19835   9.004   7.993   2.609  0.1629 -0.2467  0.4452
  888MOL0     H19836   9.181   8.161   2.567 -2.7308 -2.8892 -0.8214
  888MOL0     H19837   9.214   8.037   2.672 -1.4380 -0.8203 -1.3375
  888MOL0     H19838   9.138   8.331   2.754  2.0231  1.6998 -2.8162
  888MOL0     H19839   9.295   8.279   2.756 -0.3366  0.8705 -1.0810
  888MOL0     H19840   9.010   8.046   3.061  1.4682 -0.7947  0.7691
  888MOL0     H19841   9.065   7.837   3.153  1.6450 -0.2043  0.2461
  888MOL0     H19842   9.239   7.421   3.143  0.0222  0.7585  0.1947
  888MOL0     H19843   9.163   7.210   3.273 -2.6575 -0.9074  1.9266
  888MOL0     H19844   9.000   7.107   3.377  2.0746 -1.1168 -1.9839
  888MOL0     H19845   9.126   7.035   3.484  0.0305 -0.2186  2.7268
  888MOL0     H19846   8.955   7.016   3.680 -1.6415  2.4418  1.1571
  888MOL0     H19847   8.844   7.079   3.560 -1.5668 -1.7333  2.8595
  888MOL0     H19848   8.894   6.875   3.406  0.4512 -3.0428 -0.5028
  888MOL0     H19849   9.010   6.821   3.538  0.9410 -0.2142 -1.5208
  888MOL0     H19850   8.708   6.865   3.554 -2.5481 -2.9584 -1.4739
  888MOL0     H19851   8.805   6.791   3.680 -2.1649  3.9992 -0.1957
  888MOL0     H19852   8.903   6.640   3.478 -0.8928 -2.3554 -4.3899
  888MOL0     H19853   8.754   6.681   3.393  0.2306  3.5887 -0.1381
  888MOL0     H19854   8.776   6.445   3.546 -3.0628 -2.5371  0.3245
  888MOL0     H19855   8.745   6.554   3.661  2.2507 -1.1190 -1.3749
  888MOL0     H19856   8.546   6.430   3.555  0.4340  0.2155  2.8580
  888MOL0     H19857   8.563   6.544   3.422 -3.0780 -1.1784  0.5424
  888MOL0     H19858   8.519   6.644   3.720 -1.3562 -0.5081  0.7191
  888MOL0     H19859   8.513   6.740   3.574 -2.1358  0.1453 -0.5445
  888MOL0     H19860   9.110   7.459   3.618 -0.9606  1.0594 -0.4198
  888MOL0     H19861   9.184   7.660   3.476 -1.2533 -0.7031  1.4649
  888MOL0     H19862   9.440   7.824   2.943  2.1682  4.4996 -1.3307
  888MOL0     H19863   9.391   8.032   2.845  0.0988  1.0503  0.3673
  888MOL0     H19864   8.795   9.213   1.749 -1.0977  0.3950  1.5049
  888MOL0     H19865   8.800   9.443   1.809  0.6475 -0.7094 -0.3183
  888MOL0     H19866   8.691   9.817   1.774  2.0745 -1.8460  2.5130
  888MOL0     H19867   8.709  10.058   1.773  1.0822 -0.9629  0.4005
  888MOL0     H19868   8.618  10.323   1.789 -2.3005 -5.6979 -0.7561
  888MOL0     H19869   8.759  10.261   1.886  0.8548  1.2138 -0.7304
  888MOL0     H19870   8.751  10.507   1.895  1.5689 -2.8867 -2.2191
  888MOL0     H19871   8.734  10.426   2.048  0.9301  1.2828 -0.1885
  888MOL0     H19872   8.518  10.493   2.093 -2.4661  1.5824 -0.4396
  888MOL0     H19873   8.464  10.464   1.926  3.9727 -5.1217 -2.2183
  888MOL0     H19874   8.457  10.701   1.965  0.0918  0.3178 -1.0014
  888MOL0     H19875   8.624  10.712   2.025  0.2996  1.4028 -1.9691
  888MOL0     H19876   8.623  10.722   1.591 -0.9211 -0.4358  1.0817
  888MOL0     H19877   8.473  10.066   2.132 -2.9271 -1.8629  0.8101
  888MOL0     H19878   8.503   9.731   2.214 -1.6147 -0.2819  0.6427
  888MOL0     H19879   8.413   9.874   2.240 -1.0833 -2.6353  1.7224
  888MOL0     H19880   8.350   9.756   2.124  0.5318 -0.3768  0.1635
  889MOL0     O19881   6.684   5.855   5.994  0.2058 -0.1058  0.2825
  889MOL0     C19882   6.569   5.810   6.008  0.1099 -0.2727  0.0787
  889MOL0     O19883   6.480   5.849   6.106 -0.5353  0.0510 -0.2181
  889MOL0     C19884   6.479   5.974   6.157 -0.6215 -1.0910  0.4405
  889MOL0     C19885   6.543   6.002   6.276 -0.1119  0.1335 -0.0659
  889MOL0     C19886   6.548   6.128   6.323  0.3067 -0.0971  1.0954
  889MOL0     C19887   6.486   6.240   6.252 -0.0785  0.0994 -0.5761
  889MOL0     O19888   6.495   6.363   6.305  0.6670  0.5873 -0.1448
  889MOL0     C19889   6.442   6.471   6.228  0.9157 -0.7769 -0.2539
  889MOL0     C19890   6.464   6.608   6.281 -0.2303  0.2521  0.1880
  889MOL0     C19891   6.403   6.703   6.184 -0.2814 -0.3332  0.8926
  889MOL0     C19892   6.479   6.735   6.055 -1.1984  0.3553 -0.1797
  889MOL0     C19893   6.381   6.814   5.955 -0.3069  0.4527  0.2333
  889MOL0     C19894   6.442   6.775   5.821  0.3118 -0.0417  0.0208
  889MOL0     C19895   6.392   6.632   5.777  0.5568  0.1158 -0.3066
  889MOL0     C19896   6.319   6.620   5.647 -0.1082 -0.4095  0.1192
  889MOL0     N19897   6.189   6.696   5.637  0.4329  0.0053 -0.1041
  889MOL0     C19898   6.071   6.693   5.707  0.4747  0.8758 -0.2954
  889MOL0     C19899   5.979   6.760   5.644  0.7700  0.1440 -0.5912
  889MOL0     C19900   5.830   6.753   5.679  0.2115  0.6597 -0.4011
  889MOL0     C19901   5.754   6.881   5.694  0.6201 -0.4830 -0.2029
  889MOL0     C19902   5.658   6.893   5.808  0.1135 -0.1136  0.1323
  889MOL0     C19903   5.529   6.809   5.781  0.1360 -0.0459  0.6563
  889MOL0     O19904   5.444   6.825   5.903 -0.2732  0.0241 -1.0368
  889MOL0     C19905   5.477   6.757   6.020 -0.1076  0.5677  0.1048
  889MOL0     C19906   5.438   6.804   6.141 -0.0927  0.0907  0.0691
  889MOL0     C19907   5.470   6.749   6.260 -0.3557 -0.1646 -0.0592
  889MOL0     C19908   5.533   6.621   6.264  0.1587 -0.5515  0.6336
  889MOL0     C19909   5.552   6.545   6.394  0.1646  1.2271  0.3694
  889MOL0     O19910   5.614   6.428   6.390 -0.0791  0.1250  0.8129
  889MOL0     C19911   5.621   6.353   6.503  0.1400 -0.2167  0.0671
  889MOL0     C19912   5.530   6.245   6.540 -0.5194 -1.0034  0.5291
  889MOL0     C19913   5.560   6.182   6.663  0.6953 -0.8411  0.4973
  889MOL0     C19914   5.674   6.210   6.738  0.7929  0.6889  0.2511
  889MOL0     O19915   5.700   6.120   6.841 -0.2567 -0.0792  0.8246
  889MOL0     C19916   5.823   6.114   6.911  0.3478 -1.0401 -1.3232
  889MOL0     C19917   5.805   6.015   7.026 -0.6819 -0.2669 -0.3056
  889MOL0     C19918   5.673   6.036   7.098 -0.8875 -0.3921  1.5138
  889MOL0     C19919   5.680   5.940   7.228  0.3323 -0.3605  0.4140
  889MOL0     C19920   5.625   5.800   7.201  0.4100  0.6099  0.4874
  889MOL0     C19921   5.654   5.703   7.320  0.2827  0.4882  0.1123
  889MOL0     C19922   5.591   5.558   7.317 -0.4283  0.3365  0.3972
  889MOL0     C19923   5.702   5.446   7.288  0.1446 -0.3628 -1.3813
  889MOL0    Cl19924   5.783   5.478   7.127  0.1612 -0.4049  0.3970
  889MOL0     C19925   5.769   6.304   6.692 -0.6157  1.3040 -0.1511
  889MOL0     C19926   5.737   6.378   6.582  0.3115  0.4082 -0.3240
  889MOL0     O19927   5.504   6.599   6.497 -0.5148  0.7616  0.7237
  889MOL0     C19928   5.569   6.570   6.138 -0.0370 -0.4143 -0.2074
  889MOL0     C19929   5.545   6.636   6.020 -0.4616 -1.0599 -0.5046
  889MOL0     N19930   6.042   6.821   5.539  0.1042  0.5174 -0.4815
  889MOL0     N19931   6.165   6.781   5.527  0.2320  0.3644 -1.5678
  889MOL0     C19932   6.424   6.202   6.136 -0.1559 -0.3299  1.1286
  889MOL0     C19933   6.423   6.075   6.089  0.2579  0.5233  0.2890
  889MOL0     C19934   6.505   5.731   5.911  0.1798  0.7882 -0.1749
  889MOL0     C19935   6.370   5.741   5.899  0.4732  0.0426 -0.3476
  889MOL0     C19936   6.298   5.682   5.789 -0.1279 -0.8018  0.4383
  889MOL0     C19937   6.369   5.603   5.706  1.1083 -0.7913  0.9361
  889MOL0     O19938   6.293   5.557   5.594  0.0904 -0.0902 -0.1055
  889MOL0     C19939   6.355   5.467   5.501  1.5789 -0.0178 -0.2084
  889MOL0     C19940   6.348   5.328   5.562 -0.7226 -0.0980 -0.2394
  889MOL0     C19941   6.208   5.276   5.566  0.1932  0.4992  0.1269
  889MOL0     C19942   6.194   5.132   5.611  0.2916  0.0951  0.8187
  889MOL0     C19943   6.305   5.046   5.571  0.3482 -0.6927 -0.2965
  889MOL0     C19944   6.381   4.956   5.527  0.5917  0.4888  0.1220
  889MOL0     C19945   6.499   5.573   5.733 -0.1942 -0.2442  0.6305
  889MOL0     C19946   6.574   5.632   5.836 -0.1410  0.3352 -0.1406
  889MOL0     C19947   6.708   5.573   5.877 -0.6884 -0.0306  1.0129
  889MOL0     H19948   6.591   5.922   6.332  2.4631  1.0167 -0.8534
  889MOL0     H19949   6.593   6.141   6.421  1.8077 -2.6150  0.8113
  889MOL0     H19950   6.496   6.471   6.133  3.3112  3.0346  0.8909
  889MOL0     H19951   6.334   6.453   6.226  0.2444  2.3349  0.8422
  889MOL0     H19952   6.568   6.638   6.300 -0.0033  0.8451 -1.7208
  889MOL0     H19953   6.411   6.611   6.376 -1.3037 -3.5997 -0.1320
  889MOL0     H19954   6.391   6.808   6.212  2.1557  1.1338 -2.7229
  889MOL0     H19955   6.309   6.666   6.142 -0.9862  2.8308 -0.6005
  889MOL0     H19956   6.561   6.802   6.082 -0.6844 -0.5268  0.4768
  889MOL0     H19957   6.517   6.637   6.025 -2.3095 -0.7024  1.6985
  889MOL0     H19958   6.281   6.771   5.955  0.1083 -0.6158 -1.1081
  889MOL0     H19959   6.388   6.923   5.955 -0.5045  0.5739 -2.9353
  889MOL0     H19960   6.424   6.837   5.732  0.5531  0.7851  0.5354
  889MOL0     H19961   6.552   6.781   5.821  0.3603 -0.6922 -0.8952
  889MOL0     H19962   6.321   6.594   5.850 -0.4407  1.1730 -0.6911
  889MOL0     H19963   6.481   6.570   5.789 -0.9568 -1.6966  2.3144
  889MOL0     H19964   6.385   6.654   5.567 -1.0159  1.3135  0.0581
  889MOL0     H19965   6.296   6.517   5.618  0.9570  0.1684 -3.2289
  889MOL0     H19966   6.059   6.646   5.804  2.1050 -0.2151 -0.5883
  889MOL0     H19967   5.777   6.681   5.616  1.0777 -0.7864  0.4647
  889MOL0     H19968   5.826   6.703   5.776  2.3362  0.1053 -0.5507
  889MOL0     H19969   5.829   6.957   5.717  1.1270 -0.7953 -0.7960
  889MOL0     H19970   5.693   6.902   5.606 -0.0868  0.5588  0.5142
  889MOL0     H19971   5.626   6.995   5.830 -0.9410 -0.0731 -1.3886
  889MOL0     H19972   5.709   6.861   5.899 -0.8785  1.9925  1.5004
  889MOL0     H19973   5.563   6.707   5.763  1.4628  0.7364 -1.6582
  889MOL0     H19974   5.480   6.853   5.694 -0.6453  0.9170  1.5539
  889MOL0     H19975   5.378   6.894   6.142 -1.2503 -0.6529  0.0486
  889MOL0     H19976   5.445   6.790   6.358 -0.3145 -2.1698  0.8452
  889MOL0     H19977   5.443   6.227   6.477  0.2552 -1.4783 -0.4342
  889MOL0     H19978   5.497   6.105   6.704  0.8243 -1.2124  0.0112
  889MOL0     H19979   5.912   6.089   6.853  3.1277  3.2649  0.5093
  889MOL0     H19980   5.833   6.208   6.966 -5.1900  0.2005 -1.7765
  889MOL0     H19981   5.803   5.917   6.978 -0.0595 -1.0031  1.1148
  889MOL0     H19982   5.891   6.011   7.094 -2.6433  1.8527  2.5242
  889MOL0     H19983   5.682   6.141   7.130 -1.4923  0.0851  0.1905
  889MOL0     H19984   5.585   6.020   7.036  0.8362 -0.2907 -1.0895
  889MOL0     H19985   5.615   5.987   7.303  0.0113  1.0199 -0.6981
  889MOL0     H19986   5.777   5.937   7.279  0.6367  0.4812 -0.1069
  889MOL0     H19987   5.660   5.758   7.106 -1.6274  1.1002 -0.5390
  889MOL0     H19988   5.516   5.799   7.193  0.3248 -3.1844 -0.0718
  889MOL0     H19989   5.763   5.707   7.318  0.3646 -0.4903 -2.8302
  889MOL0     H19990   5.621   5.744   7.416  3.8180  0.2902  1.5533
  889MOL0     H19991   5.510   5.547   7.244  2.5609  1.2755 -3.4540
  889MOL0     H19992   5.539   5.541   7.411 -2.3224  0.2941 -0.6226
  889MOL0     H19993   5.779   5.456   7.366 -0.8375 -1.4535 -0.2177
  889MOL0     H19994   5.657   5.349   7.309  0.5125  0.0184  1.5995
  889MOL0     H19995   5.873   6.304   6.725 -2.1076  2.6909  5.4944
  889MOL0     H19996   5.809   6.451   6.545  1.4453 -0.6551 -0.2517
  889MOL0     H19997   5.626   6.477   6.129  1.6583  0.7174 -1.8825
  889MOL0     H19998   5.570   6.588   5.926  1.9943 -1.9904  0.5449
  889MOL0     H19999   6.370   6.275   6.075  1.6788  1.8465  1.9599
  889MOL0     H20000   6.375   6.056   5.993  3.5738  0.5070 -1.4990
  889MOL0     H20001   6.304   5.794   5.967 -0.9243 -0.6431 -1.1347
  889MOL0     H20002   6.192   5.704   5.783  0.4235  1.7674 -1.3615
  889MOL0     H20003   6.457   5.504   5.485 -0.0199  4.5670 -1.4210
  889MOL0     H20004   6.289   5.474   5.414  0.0695 -1.2967  0.7822
  889MOL0     H20005   6.387   5.329   5.664  0.8175 -0.1563 -0.8010
  889MOL0     H20006   6.420   5.276   5.499  1.2025  1.4274  0.5989
  889MOL0     H20007   6.169   5.285   5.464 -0.5245  0.8907  0.4247
  889MOL0     H20008   6.143   5.341   5.625  1.3605  0.8054  1.1099
  889MOL0     H20009   6.183   5.133   5.720  1.1046  0.4607  0.9063
  889MOL0     H20010   6.108   5.083   5.565  2.7389 -2.8237 -1.0202
  889MOL0     H20011   6.451   4.879   5.502  1.1387 -0.4505  3.9432
  889MOL0     H20012   6.556   5.497   5.680 -1.0204 -0.2182 -0.3219
  889MOL0     H20013   6.796   5.628   5.842  1.8265 -3.0531  2.0659
  889MOL0     H20014   6.723   5.572   5.985  0.6812  0.3944  0.8470
  889MOL0     H20015   6.702   5.467   5.848 -0.3464 -0.3222  1.9823
  890MOL0     O20016  10.376   9.102  10.119 -0.1423  0.3107  0.2047
  890MOL0     C20017  10.388   9.174  10.021  1.2308 -1.2546  0.8713
  890MOL0     O20018  10.279   9.215   9.939  0.1861  0.5115 -0.3469
  890MOL0     C20019  10.155   9.182   9.985  0.3719  0.2187 -0.3774
  890MOL0     C20020  10.097   9.267  10.079 -0.0884  0.1925 -0.5729
  890MOL0     C20021   9.968   9.229  10.136 -0.6302 -0.0193  0.3600
  890MOL0     C20022   9.892   9.133  10.076  0.3947 -0.7147 -0.1204
  890MOL0     O20023   9.765   9.121  10.126  0.4127 -0.6480 -0.1518
  890MOL0     C20024   9.689   9.243  10.105  0.2336 -0.1936 -1.3760
  890MOL0     C20025   9.563   9.204  10.025 -0.1778 -0.4323 -0.3040
  890MOL0     C20026   9.609   9.156   9.887 -0.5544 -0.1747  0.1336
  890MOL0     C20027   9.492   9.115   9.793  0.3157  0.4195  0.3589
  890MOL0     C20028   9.438   9.233   9.721  0.2788  0.0451 -0.0200
  890MOL0     C20029   9.333   9.185   9.608 -0.5969 -0.0498  0.9470
  890MOL0     C20030   9.292   9.302   9.525 -0.3707 -0.9138 -0.9240
  890MOL0     C20031   9.208   9.277   9.400  0.1214 -0.0002 -0.1021
  890MOL0     N20032   9.217   9.383   9.307 -0.9402  0.0986 -0.1566
  890MOL0     C20033   9.154   9.503   9.316 -0.1423  0.7708 -0.2937
  890MOL0     C20034   9.211   9.581   9.218 -0.4547  0.5352  0.3069
  890MOL0     C20035   9.169   9.723   9.190 -0.4856  1.3492 -0.5916
  890MOL0     C20036   9.177   9.815   9.310  0.5877 -0.0841 -0.1241
  890MOL0     C20037   9.298   9.910   9.312 -1.2760 -0.4282 -0.2463
  890MOL0     C20038   9.264  10.010   9.431 -0.3097 -0.2108 -0.2440
  890MOL0     O20039   9.150  10.082   9.409 -0.2171 -0.4482 -0.0017
  890MOL0     C20040   9.060  10.140   9.497 -0.2550  0.0226 -0.4469
  890MOL0     C20041   9.106  10.199   9.615 -0.3073 -0.0988 -0.1637
  890MOL0     C20042   9.016  10.262   9.690  0.0101 -0.2885  0.0820
  890MOL0     C20043   8.881  10.249   9.667  0.4512 -0.4107 -0.4216
  890MOL0     C20044   8.772  10.308   9.754 -0.4817  0.2966 -0.3307
  890MOL0     O20045   8.642  10.287   9.718  0.0782  0.4653 -1.1204
  890MOL0     C20046   8.559  10.294   9.823  0.7258  0.8327 -0.4329
  890MOL0     C20047   8.535  10.180   9.902 -0.5038  0.0533  0.4111
  890MOL0     C20048   8.423  10.174   9.982  0.2501 -0.1355  0.7290
  890MOL0     C20049   8.331  10.279   9.991  0.4271 -0.7138  0.2900
  890MOL0     O20050   8.219  10.263  10.071  0.0143  0.6362 -0.4318
  890MOL0     C20051   8.174  10.382  10.138 -0.3699  0.3408 -0.0225
  890MOL0     C20052   8.264  10.441  10.254 -0.2579 -0.1034  0.9084
  890MOL0     C20053   8.267  10.331  10.361  0.7670 -0.3579  0.9900
  890MOL0     C20054   8.347  10.390  10.475 -0.2131  0.7440  0.6667
  890MOL0     C20055   8.367  10.288  10.577 -1.0562 -0.2707  0.4798
  890MOL0     C20056   8.502  10.208  10.558  0.5292  0.5620 -0.5688
  890MOL0     C20057   8.494  10.083  10.645  0.7644  0.3704 -0.1326
  890MOL0     C20058   8.622   9.992  10.625 -0.3017  1.1854 -0.4600
  890MOL0    Cl20059   8.762  10.075  10.714 -0.3892  0.0282 -0.2634
  890MOL0     C20060   8.351  10.392   9.909  0.1547  0.3852 -0.5858
  890MOL0     C20061   8.462  10.398   9.826 -1.0638  0.4295  0.2738
  890MOL0     O20062   8.807  10.362   9.861  0.7561  0.6413  0.0662
  890MOL0     C20063   8.832  10.193   9.550  0.3152 -0.6926 -0.2307
  890MOL0     C20064   8.924  10.132   9.463  0.0983  0.5389  0.0170
  890MOL0     N20065   9.301   9.501   9.152 -0.1923  0.0630  1.3268
  890MOL0     N20066   9.305   9.385   9.204 -0.5020  0.3733  0.8388
  890MOL0     C20067   9.952   9.053   9.985 -0.5797  0.3187  1.1763
  890MOL0     C20068  10.079   9.075   9.941  0.5779 -0.6363  0.4364
  890MOL0     C20069  10.513   9.234   9.993 -0.3572 -0.8989  0.3112
  890MOL0     C20070  10.633   9.162  10.021  0.6943  0.3051  0.1798
  890MOL0     C20071  10.761   9.207   9.984  0.0416  1.2321 -0.2102
  890MOL0     C20072  10.778   9.328   9.920  0.0146  0.5029  0.2037
  890MOL0     O20073  10.900   9.386   9.892  0.1932  0.6272 -0.1048
  890MOL0     C20074  10.983   9.296   9.829  0.2675 -0.7798  0.3008
  890MOL0     C20075  11.116   9.362   9.801  0.1186 -0.4816  0.5271
  890MOL0     C20076  11.089   9.482   9.698 -0.5953  0.4794 -0.5639
  890MOL0     C20077  11.216   9.526   9.619  0.7665 -0.7264 -0.0500
  890MOL0     C20078  11.324   9.563   9.713 -0.6238 -0.2961 -0.0809
  890MOL0     C20079  11.413   9.599   9.783 -0.5546 -1.0291  0.1935
  890MOL0     C20080  10.663   9.408   9.903  0.1180  0.3367 -0.4448
  890MOL0     C20081  10.529   9.367   9.932  0.4402  0.6328  0.3950
  890MOL0     C20082  10.421   9.463   9.892  0.4917 -0.5610 -0.1558
  890MOL0     H20083  10.149   9.358  10.107  0.5361 -0.0524 -0.9115
  890MOL0     H20084   9.933   9.295  10.215  2.8946 -0.5203  2.5568
  890MOL0     H20085   9.653   9.274  10.204 -0.0578  1.8829 -2.0811
  890MOL0     H20086   9.749   9.316  10.051 -1.5172  1.0531 -1.7343
  890MOL0     H20087   9.505   9.296  10.026  0.7869  0.2018  1.2073
  890MOL0     H20088   9.499   9.125  10.067 -2.5299  1.0659 -0.8725
  890MOL0     H20089   9.675   9.070   9.895  1.1066  0.9749 -0.4938
  890MOL0     H20090   9.656   9.248   9.849  0.1365  1.0867  3.7003
  890MOL0     H20091   9.532   9.036   9.728  0.9169  2.3712 -1.7911
  890MOL0     H20092   9.410   9.078   9.855  0.9437 -0.4247  0.7041
  890MOL0     H20093   9.380   9.296   9.789 -0.5549 -0.7447  0.0295
  890MOL0     H20094   9.510   9.298   9.672 -0.0405  1.6789  1.5744
  890MOL0     H20095   9.375   9.108   9.543  1.6612  0.8680  1.2455
  890MOL0     H20096   9.243   9.155   9.663 -1.1130  2.6021  1.6539
  890MOL0     H20097   9.387   9.351   9.501 -1.2483  1.9230  0.8505
  890MOL0     H20098   9.234   9.373   9.585  2.5730  1.1458 -0.2806
  890MOL0     H20099   9.248   9.183   9.362  1.0635  0.7731 -1.0648
  890MOL0     H20100   9.105   9.259   9.434 -0.1843  0.0206 -0.9999
  890MOL0     H20101   9.086   9.536   9.395  3.5437 -0.6962  3.9283
  890MOL0     H20102   9.237   9.765   9.115  0.2413  4.2814  1.5196
  890MOL0     H20103   9.064   9.718   9.158 -0.7358  2.8467 -0.0879
  890MOL0     H20104   9.085   9.874   9.306 -0.0576 -0.2416  5.2854
  890MOL0     H20105   9.174   9.761   9.405  2.1644  1.2141  0.7228
  890MOL0     H20106   9.316   9.973   9.223  2.5784  0.7552  1.1507
  890MOL0     H20107   9.390   9.854   9.327 -1.3736 -0.1678  1.5325
  890MOL0     H20108   9.346  10.080   9.450 -2.2115  1.5940  1.9570
  890MOL0     H20109   9.265   9.957   9.526  2.0569  2.9839  1.7501
  890MOL0     H20110   9.213  10.212   9.629  0.4739 -3.4391 -1.9627
  890MOL0     H20111   9.045  10.315   9.779  1.9460 -1.0724 -0.0265
  890MOL0     H20112   8.596  10.091   9.892 -0.5494 -0.0474  0.9995
  890MOL0     H20113   8.413  10.078  10.031  0.1199 -0.6419 -0.2674
  890MOL0     H20114   8.163  10.462  10.065 -0.1884 -0.7766 -1.3170
  890MOL0     H20115   8.076  10.357  10.181 -0.4906 -0.7882 -0.9184
  890MOL0     H20116   8.359  10.462  10.204  0.1234 -0.6288  1.4074
  890MOL0     H20117   8.211  10.528  10.294  0.3079  1.2645 -1.1643
  890MOL0     H20118   8.167  10.315  10.402  2.3756  1.2342  6.3020
  890MOL0     H20119   8.293  10.232  10.321 -1.7189 -0.6064 -0.2165
  890MOL0     H20120   8.287  10.474  10.512 -0.9199  0.3982  0.3169
  890MOL0     H20121   8.445  10.425  10.438  0.8329 -1.3897  1.2762
  890MOL0     H20122   8.276  10.229  10.565 -0.2775 -1.0147 -2.5797
  890MOL0     H20123   8.389  10.335  10.673 -0.1405  0.5629 -0.1229
  890MOL0     H20124   8.510  10.173  10.454  1.7612 -0.5825 -0.1138
  890MOL0     H20125   8.582  10.281  10.577  0.4855  0.4606 -0.0045
  890MOL0     H20126   8.403  10.026  10.626  1.8869 -0.8563 -2.3859
  890MOL0     H20127   8.480  10.115  10.748 -2.6690  0.6706 -0.5963
  890MOL0     H20128   8.593   9.895  10.666 -1.1974  1.8874  0.6515
  890MOL0     H20129   8.651   9.981  10.520  2.7948  1.2021  0.2972
  890MOL0     H20130   8.291  10.482   9.913 -0.3624  0.1764 -2.6842
  890MOL0     H20131   8.467  10.486   9.762 -0.1298  1.9023  2.2488
  890MOL0     H20132   8.727  10.198   9.522 -1.3921  2.6609  5.1804
  890MOL0     H20133   8.882  10.079   9.378  1.6475 -0.4803 -0.1477
  890MOL0     H20134   9.892   8.979   9.933 -1.3852  1.9450 -0.3066
  890MOL0     H20135  10.136   9.018   9.869 -0.3435 -0.3745 -0.5232
  890MOL0     H20136  10.625   9.059  10.056 -0.3187  0.4989  0.5378
  890MOL0     H20137  10.829   9.128  10.013 -0.1028  1.5822  1.2022
  890MOL0     H20138  10.946   9.273   9.729  2.6065  0.5141 -0.9558
  890MOL0     H20139  10.991   9.199   9.880 -2.1887 -0.7449  0.8788
  890MOL0     H20140  11.193   9.298   9.758 -0.4387  0.9409 -2.9321
  890MOL0     H20141  11.154   9.406   9.893  1.3923  1.5465 -0.8749
  890MOL0     H20142  11.059   9.575   9.747 -4.1543 -1.6272  1.7955
  890MOL0     H20143  11.013   9.467   9.621  1.5289  2.4133 -3.1990
  890MOL0     H20144  11.248   9.436   9.566  2.6326 -3.0831  4.4559
  890MOL0     H20145  11.200   9.613   9.555 -1.6387  1.3822  3.0850
  890MOL0     H20146  11.493   9.634   9.846 -2.7259 -0.3866  2.7950
  890MOL0     H20147  10.684   9.497   9.845 -1.6773 -0.1280 -1.8795
  890MOL0     H20148  10.465   9.560   9.873 -1.7827  1.4161  3.4156
  890MOL0     H20149  10.366   9.433   9.803 -2.6472  0.3846  1.3084
  890MOL0     H20150  10.354   9.478   9.978 -0.3271  0.2747 -0.9218
  891MOL0     O20151   6.541   5.746   4.037  0.3751  0.0395 -0.0350
  891MOL0     C20152   6.438   5.671   4.041 -0.1499  0.5724  0.0545
  891MOL0     O20153   6.364   5.639   3.928 -0.0135  0.6894 -0.5389
  891MOL0     C20154   6.371   5.696   3.798 -0.7634  0.8231 -0.1457
  891MOL0     C20155   6.332   5.607   3.693  0.2276  0.0591  0.0722
  891MOL0     C20156   6.336   5.656   3.568  0.5666  0.0652  0.2297
  891MOL0     C20157   6.359   5.789   3.536  0.6140 -0.0426 -0.1998
  891MOL0     O20158   6.376   5.797   3.402  0.0857 -0.3298  0.0755
  891MOL0     C20159   6.456   5.910   3.351 -0.3918  0.4539  0.1945
  891MOL0     C20160   6.478   5.888   3.205 -0.8786 -0.2803 -0.2306
  891MOL0     C20161   6.423   6.016   3.136  0.6311 -0.8110 -0.5546
  891MOL0     C20162   6.421   6.007   2.985  0.4355 -0.9939  0.2851
  891MOL0     C20163   6.562   5.985   2.931  0.1469  0.1138 -0.1273
  891MOL0     C20164   6.578   6.010   2.785 -0.3568 -0.0427 -0.1793
  891MOL0     C20165   6.507   5.912   2.692 -0.4437  0.2716  0.6018
  891MOL0     C20166   6.533   5.956   2.545 -0.8114 -0.2606 -0.6365
  891MOL0     N20167   6.482   6.091   2.516  0.2832  0.0968  0.9873
  891MOL0     C20168   6.345   6.124   2.519 -0.0973  0.5075 -0.6373
  891MOL0     C20169   6.335   6.251   2.486 -0.2972 -0.5943 -0.1537
  891MOL0     C20170   6.207   6.336   2.500 -0.1193 -0.7526 -0.0489
  891MOL0     C20171   6.165   6.360   2.646 -0.5564 -0.9529 -0.8895
  891MOL0     C20172   6.282   6.433   2.725  0.4710 -0.2410  0.8140
  891MOL0     C20173   6.249   6.485   2.867 -0.0767  0.6316 -0.8087
  891MOL0     O20174   6.353   6.568   2.925 -0.5904 -0.7680  0.4453
  891MOL0     C20175   6.441   6.496   2.985  2.2295  0.8032 -1.0224
  891MOL0     C20176   6.550   6.470   2.910 -0.6580  0.8667 -0.2186
  891MOL0     C20177   6.657   6.397   2.962  0.5232 -0.0798 -0.2340
  891MOL0     C20178   6.641   6.333   3.087  0.5419 -0.3175 -0.4590
  891MOL0     C20179   6.736   6.246   3.146  0.8698 -0.5075  0.5398
  891MOL0     O20180   6.693   6.170   3.250  0.3844 -0.2153 -0.8917
  891MOL0     C20181   6.771   6.077   3.308 -0.2265  0.0219 -0.5021
  891MOL0     C20182   6.759   6.067   3.445  0.3990  0.0691  0.0622
  891MOL0     C20183   6.844   5.972   3.506  0.6838 -0.7138 -0.0461
  891MOL0     C20184   6.935   5.894   3.438 -0.3019 -0.1793 -0.3885
  891MOL0     O20185   7.024   5.810   3.510  1.0703 -0.0344 -0.6090
  891MOL0     C20186   7.126   5.728   3.444 -0.7517  0.0654  0.1933
  891MOL0     C20187   7.245   5.823   3.392  0.2539  0.8945 -0.5059
  891MOL0     C20188   7.329   5.881   3.498  0.5366 -0.0859 -0.1943
  891MOL0     C20189   7.430   5.976   3.433 -1.3002 -0.8524  0.9516
  891MOL0     C20190   7.539   6.039   3.522 -0.1215 -0.9634 -0.1837
  891MOL0     C20191   7.670   6.080   3.439  0.0855  1.1811 -0.0853
  891MOL0     C20192   7.778   6.141   3.531 -0.1912  0.4024 -0.0660
  891MOL0     C20193   7.840   6.057   3.642  0.1499  0.5264 -0.4073
  891MOL0    Cl20194   7.930   5.918   3.571 -0.7907 -0.7920 -0.5571
  891MOL0     C20195   6.932   5.894   3.302  0.6911  0.0972  0.5369
  891MOL0     C20196   6.860   5.991   3.240  0.4051  0.4279  0.2516
  891MOL0     O20197   6.844   6.245   3.095 -0.8963  0.4235 -0.4354
  891MOL0     C20198   6.521   6.362   3.165  0.2765  0.4339  0.0655
  891MOL0     C20199   6.426   6.450   3.114  1.4999 -0.2330 -0.2997
  891MOL0     N20200   6.464   6.301   2.460 -0.6500 -0.7052  0.2976
  891MOL0     N20201   6.544   6.200   2.483  0.8711  0.2757  0.4132
  891MOL0     C20202   6.394   5.886   3.639  0.1835 -0.4636  0.7993
  891MOL0     C20203   6.411   5.828   3.764  0.6208  0.1611  0.0648
  891MOL0     C20204   6.413   5.592   4.158  0.8549  0.4376 -0.0387
  891MOL0     C20205   6.483   5.472   4.172 -0.8232  0.6284 -0.0100
  891MOL0     C20206   6.469   5.393   4.292  0.5277 -0.8238  0.4717
  891MOL0     C20207   6.389   5.431   4.397 -0.1411 -0.2999  0.4096
  891MOL0     O20208   6.385   5.378   4.520  0.3120  0.2374 -0.9411
  891MOL0     C20209   6.357   5.239   4.532  0.1816  0.3598  0.9642
  891MOL0     C20210   6.223   5.201   4.588 -0.3084  0.0812  0.6201
  891MOL0     C20211   6.210   5.158   4.743 -0.6916 -0.3718  1.1202
  891MOL0     C20212   6.062   5.150   4.790  0.4400  0.0914 -0.5435
  891MOL0     C20213   5.984   5.077   4.690  0.8588 -0.1708 -0.0996
  891MOL0     C20214   5.918   5.008   4.608 -0.5449 -0.5285  0.1763
  891MOL0     C20215   6.333   5.560   4.377  0.3106  0.1272 -0.9244
  891MOL0     C20216   6.333   5.636   4.260 -0.3904  0.5659 -0.9498
  891MOL0     C20217   6.269   5.771   4.264  1.1586 -0.4584 -0.3522
  891MOL0     H20218   6.301   5.505   3.713  2.5620 -0.4269  1.5829
  891MOL0     H20219   6.297   5.583   3.498 -1.4019 -1.9161  3.1817
  891MOL0     H20220   6.394   5.999   3.363  1.8199  2.2105 -0.8310
  891MOL0     H20221   6.553   5.929   3.398 -0.8587 -0.3627  1.5663
  891MOL0     H20222   6.419   5.805   3.164  0.2230 -1.7918  1.1037
  891MOL0     H20223   6.582   5.877   3.172 -1.0834  0.0952 -1.0109
  891MOL0     H20224   6.461   6.111   3.175 -3.2755  1.1643 -1.0141
  891MOL0     H20225   6.321   6.017   3.175  1.2651  1.6315  1.3064
  891MOL0     H20226   6.355   5.931   2.943  0.6608 -2.5245  2.4792
  891MOL0     H20227   6.379   6.104   2.955 -4.6765 -2.5600  1.3661
  891MOL0     H20228   6.623   6.064   2.974 -0.8273  1.5201 -1.2514
  891MOL0     H20229   6.608   5.890   2.959 -0.0952  0.2728  0.8356
  891MOL0     H20230   6.556   6.115   2.765  3.2435  0.8474 -0.1094
  891MOL0     H20231   6.686   6.000   2.770  0.1546 -4.8253  3.7706
  891MOL0     H20232   6.398   5.911   2.709 -0.4298 -1.6684  0.8553
  891MOL0     H20233   6.547   5.812   2.714 -1.1480 -0.0647  0.3961
  891MOL0     H20234   6.641   5.938   2.532 -0.5861 -0.8009  1.6681
  891MOL0     H20235   6.491   5.886   2.472  0.6737 -1.4363 -0.4148
  891MOL0     H20236   6.262   6.060   2.546 -0.7766  0.4033 -2.8075
  891MOL0     H20237   6.233   6.435   2.462 -0.1683 -1.2297 -1.3754
  891MOL0     H20238   6.133   6.291   2.434  0.7053 -1.9641 -0.1908
  891MOL0     H20239   6.072   6.415   2.653 -0.3161 -0.6721  0.3084
  891MOL0     H20240   6.151   6.262   2.693 -1.7840 -0.2517  0.2479
  891MOL0     H20241   6.323   6.520   2.674  3.2336 -0.7440  1.9817
  891MOL0     H20242   6.370   6.368   2.727  0.5717 -0.1075  0.6941
  891MOL0     H20243   6.232   6.405   2.940 -2.6588  2.2574  0.5381
  891MOL0     H20244   6.157   6.543   2.860 -0.0088  0.9131  0.3344
  891MOL0     H20245   6.552   6.532   2.822 -2.5973  1.9881  0.4719
  891MOL0     H20246   6.754   6.383   2.914  1.9433 -2.9047  2.9447
  891MOL0     H20247   6.683   6.119   3.501  0.9692  1.0031 -0.0127
  891MOL0     H20248   6.831   5.960   3.613 -4.9437 -1.1153 -0.4590
  891MOL0     H20249   7.175   5.672   3.524 -0.2429  2.8001  1.9313
  891MOL0     H20250   7.071   5.660   3.378 -1.4533 -1.0623  1.8804
  891MOL0     H20251   7.313   5.773   3.323  1.8924  0.8857  1.0112
  891MOL0     H20252   7.198   5.912   3.351  0.3665  0.3306 -1.8994
  891MOL0     H20253   7.257   5.934   3.560 -0.3641 -2.0103  0.4599
  891MOL0     H20254   7.367   5.795   3.553 -1.1075 -2.1169 -2.0394
  891MOL0     H20255   7.381   6.054   3.374  1.4774 -1.0170 -1.8810
  891MOL0     H20256   7.476   5.918   3.352 -2.7525 -1.2527  0.3956
  891MOL0     H20257   7.564   5.991   3.617  2.1986  0.7349  0.1289
  891MOL0     H20258   7.504   6.138   3.553  1.5908  0.0155 -1.2659
  891MOL0     H20259   7.726   5.995   3.398 -1.2334  0.9474 -1.4905
  891MOL0     H20260   7.648   6.142   3.352  1.0504  0.4885 -0.8363
  891MOL0     H20261   7.740   6.235   3.572 -0.7300  0.0691  0.2168
  891MOL0     H20262   7.868   6.168   3.475 -2.2728  4.4920 -1.8178
  891MOL0     H20263   7.900   6.118   3.711 -2.7790  1.9665  1.0397
  891MOL0     H20264   7.761   6.019   3.708 -0.1719  1.2461 -0.3621
  891MOL0     H20265   6.993   5.833   3.236  0.6201  0.7666 -0.1641
  891MOL0     H20266   6.853   6.017   3.134 -2.3774  1.9454  0.7140
  891MOL0     H20267   6.499   6.332   3.267 -0.7511  2.0907  0.3782
  891MOL0     H20268   6.333   6.481   3.161  0.3919 -2.8264 -0.6044
  891MOL0     H20269   6.416   5.992   3.638  0.8349 -0.5916 -0.1019
  891MOL0     H20270   6.429   5.901   3.843  0.4437  1.9689 -1.4949
  891MOL0     H20271   6.551   5.444   4.092  1.6116 -2.6433  2.8574
  891MOL0     H20272   6.522   5.298   4.292  0.3408 -0.9312  1.0736
  891MOL0     H20273   6.428   5.196   4.603 -2.8258 -3.5959  1.9511
  891MOL0     H20274   6.383   5.188   4.440 -0.0491  2.8899 -0.6111
  891MOL0     H20275   6.189   5.130   4.512 -2.2082  2.1071 -0.5587
  891MOL0     H20276   6.177   5.298   4.568  2.5887  1.4134 -0.0189
  891MOL0     H20277   6.253   5.232   4.811 -2.4026  1.1959  0.5818
  891MOL0     H20278   6.256   5.059   4.754 -2.2762 -1.4229 -0.9929
  891MOL0     H20279   6.053   5.095   4.885 -0.1389  1.5618  0.2881
  891MOL0     H20280   6.019   5.250   4.799 -2.8265 -0.7780 -3.8413
  891MOL0     H20281   5.876   4.935   4.542 -0.4604 -0.8892  0.5158
  891MOL0     H20282   6.293   5.613   4.462  0.5849  1.4974 -1.6218
  891MOL0     H20283   6.267   5.826   4.170 -3.8644  2.0125  0.8563
  891MOL0     H20284   6.162   5.760   4.284  0.1718  3.0347 -2.6849
  891MOL0     H20285   6.323   5.827   4.342 -0.2221 -0.9147  0.9902
  892MOL0     O20286  11.391   0.398   0.161 -0.9725  0.5917  0.1992
  892MOL0     C20287  11.286   0.370   0.114 -0.0391  0.0784 -1.7067
  892MOL0     O20288  11.211   0.454   0.027  0.2453  0.2498  0.1024
  892MOL0     C20289  11.276   0.543  -0.051 -0.8477 -0.5760 -0.6022
  892MOL0     C20290  11.312   0.506  -0.176 -1.0649 -0.3599 -0.3381
  892MOL0     C20291  11.376   0.599  -0.259 -0.4333  0.3022 -0.8240
  892MOL0     C20292  11.399   0.732  -0.218  0.2556  1.0512 -0.6115
  892MOL0     O20293  11.464   0.821  -0.297  0.0973 -0.8939 -0.5248
  892MOL0     C20294  11.401   0.845  -0.421 -0.4380  0.5049 -0.0150
  892MOL0     C20295  11.495   0.931  -0.512  0.2772 -0.6653  0.5142
  892MOL0     C20296  11.625   0.856  -0.537  1.1197  0.4512 -0.0358
  892MOL0     C20297  11.729   0.932  -0.611 -0.0222  1.1548  0.2172
  892MOL0     C20298  11.827   1.007  -0.521  0.6360  0.5615 -0.4511
  892MOL0     C20299  11.933   1.083  -0.601 -0.5296  0.3852  0.3556
  892MOL0     C20300  12.039   1.148  -0.510 -0.1679 -0.2303  0.8815
  892MOL0     C20301  12.159   1.218  -0.574  0.2351 -0.0757 -0.3844
  892MOL0     N20302  12.127   1.309  -0.684 -0.3060 -0.5255  0.3177
  892MOL0     C20303  12.058   1.420  -0.676  0.0632 -0.7003 -0.3746
  892MOL0     C20304  12.064   1.477  -0.794 -1.2527 -0.5511  0.1580
  892MOL0     C20305  11.988   1.593  -0.853  0.8392 -0.3638 -0.4600
  892MOL0     C20306  12.061   1.722  -0.859 -0.6452 -0.2080  0.4376
  892MOL0     C20307  11.955   1.835  -0.825  0.1098  0.6326  0.9622
  892MOL0     C20308  12.011   1.984  -0.802  0.0542 -0.2573  1.0127
  892MOL0     O20309  12.136   2.006  -0.862 -0.1131 -0.8169  0.2411
  892MOL0     C20310  12.129   2.129  -0.925 -0.2598 -0.3843 -0.2391
  892MOL0     C20311  12.200   2.233  -0.863 -0.0189  0.5378  0.2698
  892MOL0     C20312  12.190   2.358  -0.927 -0.5986 -0.4370 -0.5981
  892MOL0     C20313  12.145   2.373  -1.056  0.1972 -0.5280  0.7373
  892MOL0     C20314  12.164   2.508  -1.114  1.2579  0.1628  0.3865
  892MOL0     O20315  12.118   2.529  -1.245 -0.8233  0.1440  0.1132
  892MOL0     C20316  12.110   2.655  -1.301 -0.9401 -0.6133  0.2447
  892MOL0     C20317  12.231   2.729  -1.327  0.5428  0.1658 -0.4791
  892MOL0     C20318  12.224   2.855  -1.382 -0.0949 -0.7792 -0.2553
  892MOL0     C20319  12.106   2.911  -1.432 -0.2034 -0.3264  0.3656
  892MOL0     O20320  12.089   3.036  -1.479 -0.0109 -0.1517  0.5283
  892MOL0     C20321  12.207   3.121  -1.473 -0.4599 -0.3200  0.6414
  892MOL0     C20322  12.188   3.270  -1.520  0.0076 -0.1706 -0.0819
  892MOL0     C20323  12.072   3.356  -1.464  1.1285  0.2440 -0.3406
  892MOL0     C20324  12.119   3.498  -1.448 -0.2390  0.4580 -0.8657
  892MOL0     C20325  12.028   3.586  -1.372  1.0752  0.0061 -0.0081
  892MOL0     C20326  12.098   3.732  -1.361  0.3209  0.4105 -0.4012
  892MOL0     C20327  12.008   3.834  -1.309 -0.0150 -0.1524  0.5182
  892MOL0     C20328  12.099   3.947  -1.272  1.1671  0.7289  0.7391
  892MOL0    Cl20329  12.010   4.061  -1.169  0.4071 -0.0780  0.1138
  892MOL0     C20330  11.992   2.839  -1.418 -0.0930 -0.5383 -0.7491
  892MOL0     C20331  11.992   2.715  -1.354 -0.1378 -0.3748  0.3946
  892MOL0     O20332  12.218   2.597  -1.045  0.8656  0.3130 -0.3571
  892MOL0     C20333  12.084   2.265  -1.122 -0.8972 -0.0895 -0.4818
  892MOL0     C20334  12.069   2.144  -1.050  0.6685 -0.1174 -0.3152
  892MOL0     N20335  12.150   1.397  -0.868  0.1979 -0.1377  0.0702
  892MOL0     N20336  12.182   1.290  -0.805 -0.5266  0.7393 -0.3389
  892MOL0     C20337  11.368   0.764  -0.088  0.1284 -1.0805  0.0480
  892MOL0     C20338  11.297   0.675  -0.010 -0.5070 -1.0936 -0.5070
  892MOL0     C20339  11.226   0.242   0.152 -0.0495 -0.3472 -0.6279
  892MOL0     C20340  11.157   0.173   0.047  1.0394 -0.1972 -0.2249
  892MOL0     C20341  11.109   0.045   0.074  0.9419 -0.5133  0.2872
  892MOL0     C20342  11.128  -0.021   0.191  0.7600  0.3754 -0.8720
  892MOL0     O20343  11.080  -0.145   0.218 -0.3299  0.0645  0.0618
  892MOL0     C20344  11.079  -0.243   0.113 -0.9027  0.2516  0.4854
  892MOL0     C20345  11.214  -0.281   0.043 -0.2015 -0.3233 -0.0975
  892MOL0     C20346  11.307  -0.363   0.136 -0.2305  0.0266 -0.5058
  892MOL0     C20347  11.424  -0.277   0.184 -0.6996  0.1057  0.1713
  892MOL0     C20348  11.525  -0.354   0.262  0.5395  0.1174  0.5457
  892MOL0     C20349  11.597  -0.409   0.343 -0.6857  0.0499 -0.0496
  892MOL0     C20350  11.189   0.047   0.296 -0.1201  0.3644 -0.1264
  892MOL0     C20351  11.245   0.179   0.283 -0.7168 -0.6004  0.2372
  892MOL0     C20352  11.304   0.255   0.409 -0.4892  0.7279 -0.3429
  892MOL0     H20353  11.296   0.405  -0.213 -3.9623  0.5863 -1.9408
  892MOL0     H20354  11.413   0.573  -0.358 -0.3225  2.4719 -1.4110
  892MOL0     H20355  11.378   0.755  -0.479  2.7624 -0.4803  0.0448
  892MOL0     H20356  11.306   0.896  -0.405 -0.9985 -0.1599 -1.0817
  892MOL0     H20357  11.509   1.019  -0.448 -2.0632 -0.4537  0.8370
  892MOL0     H20358  11.435   0.960  -0.599 -1.2861 -1.4666  1.2729
  892MOL0     H20359  11.602   0.767  -0.596  2.8875 -1.1018  1.4891
  892MOL0     H20360  11.663   0.818  -0.442  1.7962 -0.4189 -0.6400
  892MOL0     H20361  11.791   0.862  -0.668 -1.7723  1.0166 -1.6121
  892MOL0     H20362  11.682   0.998  -0.685 -1.3213  1.2273  1.0662
  892MOL0     H20363  11.769   1.069  -0.453 -2.0321  1.9717 -3.6942
  892MOL0     H20364  11.874   0.932  -0.457 -0.0207 -0.1350 -0.7607
  892MOL0     H20365  11.989   1.012  -0.663 -0.0398 -0.6507  1.9360
  892MOL0     H20366  11.885   1.161  -0.661  0.5087 -1.2784 -2.8532
  892MOL0     H20367  12.071   1.067  -0.444 -1.5846 -0.1827  1.6635
  892MOL0     H20368  11.983   1.224  -0.454  0.6555  0.8903  0.2170
  892MOL0     H20369  12.216   1.260  -0.491 -1.4174  0.8724  0.3138
  892MOL0     H20370  12.220   1.142  -0.624  2.0118  1.9734 -1.4912
  892MOL0     H20371  12.005   1.447  -0.585  1.6034  1.3389 -0.0011
  892MOL0     H20372  11.937   1.572  -0.948  1.3782  2.8013 -1.5578
  892MOL0     H20373  11.910   1.600  -0.777  2.4359  1.0676  1.1171
  892MOL0     H20374  12.143   1.713  -0.787 -2.0169 -1.1737  1.9602
  892MOL0     H20375  12.105   1.746  -0.956 -0.1640  3.4728  1.4095
  892MOL0     H20376  11.892   1.808  -0.740 -2.0409 -0.4563 -0.8751
  892MOL0     H20377  11.897   1.844  -0.917  0.0031  0.5417  1.0214
  892MOL0     H20378  12.022   2.008  -0.696  0.2168 -0.1968  0.9829
  892MOL0     H20379  11.935   2.056  -0.834  0.2310 -0.3322  0.4086
  892MOL0     H20380  12.247   2.217  -0.766  0.7045  2.4886  0.2737
  892MOL0     H20381  12.222   2.445  -0.872  1.2028 -0.6473 -1.2538
  892MOL0     H20382  12.325   2.690  -1.288  0.3991  2.5037  2.7152
  892MOL0     H20383  12.316   2.913  -1.389  0.4238 -1.2264  2.0052
  892MOL0     H20384  12.249   3.111  -1.373  0.4021 -1.8296  0.1531
  892MOL0     H20385  12.276   3.076  -1.545 -2.4400  0.7004 -2.0742
  892MOL0     H20386  12.281   3.322  -1.493  1.8722 -3.5556  0.6254
  892MOL0     H20387  12.169   3.263  -1.628 -2.0944 -2.4080  0.3378
  892MOL0     H20388  11.987   3.353  -1.533  3.4106  1.3049 -3.3772
  892MOL0     H20389  12.038   3.321  -1.366  1.6318 -0.1401 -0.2990
  892MOL0     H20390  12.139   3.541  -1.547 -3.1142  2.1737 -0.8233
  892MOL0     H20391  12.218   3.500  -1.400  1.6761  0.4234 -4.4359
  892MOL0     H20392  12.022   3.538  -1.273  0.8766 -0.6317 -0.3221
  892MOL0     H20393  11.935   3.580  -1.429  1.8153  0.6537 -1.3176
  892MOL0     H20394  12.185   3.720  -1.295 -0.9719 -1.0442  1.1607
  892MOL0     H20395  12.132   3.747  -1.463  1.2625 -4.5769 -1.0803
  892MOL0     H20396  11.959   3.797  -1.219 -1.3156 -1.4447 -0.6744
  892MOL0     H20397  11.933   3.855  -1.386  3.2841 -1.1837 -3.2628
  892MOL0     H20398  12.183   3.915  -1.208 -0.9022 -0.7091  2.9071
  892MOL0     H20399  12.132   4.000  -1.362 -1.2544  1.6511  0.3271
  892MOL0     H20400  11.893   2.876  -1.440 -0.0878  0.1428  0.3124
  892MOL0     H20401  11.895   2.671  -1.332 -1.0333  2.1642  1.8740
  892MOL0     H20402  12.046   2.291  -1.221 -0.8332 -0.6669 -0.6627
  892MOL0     H20403  12.016   2.067  -1.106  1.7982 -0.0350 -1.5434
  892MOL0     H20404  11.384   0.864  -0.050  3.1475 -1.8412  1.1162
  892MOL0     H20405  11.265   0.720   0.084  0.0621  2.4004 -1.8303
  892MOL0     H20406  11.144   0.222  -0.049 -3.5458  1.6512  1.0645
  892MOL0     H20407  11.041   0.020  -0.007 -0.1247  2.7112  0.0467
  892MOL0     H20408  11.019  -0.193   0.036  1.2077  2.7922  0.3389
  892MOL0     H20409  11.034  -0.333   0.155 -1.0694  0.0382 -0.1422
  892MOL0     H20410  11.260  -0.187   0.011 -2.7604  1.8319  2.0842
  892MOL0     H20411  11.187  -0.341  -0.045 -1.2919  0.7116 -0.4956
  892MOL0     H20412  11.357  -0.441   0.078 -1.2032  0.4245 -1.9466
  892MOL0     H20413  11.252  -0.401   0.222 -1.2070 -2.3626 -2.0763
  892MOL0     H20414  11.478  -0.231   0.100  1.9398 -0.6711  1.3452
  892MOL0     H20415  11.386  -0.187   0.233 -1.4584 -0.0669 -0.0857
  892MOL0     H20416  11.663  -0.436   0.422  0.0572  1.6449 -0.0759
  892MOL0     H20417  11.194  -0.007   0.390 -3.0663  2.9713  1.7179
  892MOL0     H20418  11.293   0.364   0.409  1.1648  0.9210  0.0713
  892MOL0     H20419  11.258   0.211   0.498  0.9767 -0.1672  0.0082
  892MOL0     H20420  11.408   0.227   0.423 -0.2978  1.0328 -1.0810
  893MOL0     O20421   5.925  10.796   6.578  0.2346 -0.2717 -0.1019
  893MOL0     C20422   5.826  10.792   6.505 -0.1685  0.8258 -0.9011
  893MOL0     O20423   5.805  10.867   6.388  1.2340  0.2292  0.3853
  893MOL0     C20424   5.871  10.975   6.350  0.9475  0.0061  0.6132
  893MOL0     C20425   5.985  11.036   6.407 -0.3998  0.6511  0.3013
  893MOL0     C20426   6.056  11.144   6.349  0.0192  0.6366 -0.9666
  893MOL0     C20427   6.015  11.196   6.225 -0.2895  0.0627 -0.1517
  893MOL0     O20428   6.082  11.300   6.159  0.4606  0.2477  0.0403
  893MOL0     C20429   6.158  11.395   6.247  0.7129 -0.5660 -0.1040
  893MOL0     C20430   6.234  11.498   6.170 -1.8641  1.0934 -0.6094
  893MOL0     C20431   6.164  11.609   6.094  0.2097  0.4910 -0.1504
  893MOL0     C20432   6.020  11.578   6.035  0.1832  0.1823 -0.5072
  893MOL0     C20433   5.945  11.698   6.003  1.0989 -0.0439  0.5181
  893MOL0     C20434   5.793  11.676   6.010 -0.3624 -0.1178  0.7749
  893MOL0     C20435   5.757  11.573   5.899 -1.1389  0.7841 -0.4727
  893MOL0     C20436   5.599  11.561   5.888 -0.2263  0.4214 -0.1257
  893MOL0     N20437   5.531  11.530   6.014 -0.4026 -0.0270  0.5271
  893MOL0     C20438   5.564  11.428   6.100 -0.7118 -0.8367  0.2147
  893MOL0     C20439   5.463  11.402   6.182  0.2993  0.2010  0.7058
  893MOL0     C20440   5.486  11.282   6.272  0.3903 -0.0484  0.5912
  893MOL0     C20441   5.460  11.313   6.417 -1.0576 -0.3643 -0.6678
  893MOL0     C20442   5.562  11.414   6.470  0.2253  0.6637 -0.9404
  893MOL0     C20443   5.516  11.551   6.475 -0.2147  0.1663  0.6948
  893MOL0     O20444   5.602  11.624   6.568  0.2260  0.1504  0.2393
  893MOL0     C20445   5.720  11.675   6.533 -0.2444  0.4707  0.3302
  893MOL0     C20446   5.790  11.665   6.416 -0.0963 -0.4180 -1.2458
  893MOL0     C20447   5.907  11.741   6.404  0.6398 -0.1413  1.0420
  893MOL0     C20448   5.962  11.824   6.506  0.4325  0.1956  0.2919
  893MOL0     C20449   6.084  11.909   6.488 -0.1606  0.8047  0.2398
  893MOL0     O20450   6.151  11.955   6.605 -0.0946 -0.8065 -0.2438
  893MOL0     C20451   6.272  12.007   6.598  0.2773 -0.0941 -0.6431
  893MOL0     C20452   6.294  12.143   6.600  0.5724  0.5501  0.0251
  893MOL0     C20453   6.419  12.204   6.593  0.5183 -0.5752  0.8649
  893MOL0     C20454   6.530  12.130   6.552  0.9361 -0.4150  0.1106
  893MOL0     O20455   6.638  12.197   6.505 -0.7399 -0.3079  0.3459
  893MOL0     C20456   6.756  12.127   6.534  0.3055 -0.7809  0.7855
  893MOL0     C20457   6.879  12.206   6.550 -0.0012 -0.5932 -0.0561
  893MOL0     C20458   6.915  12.272   6.412 -0.3849 -0.9498  0.5009
  893MOL0     C20459   7.031  12.366   6.418 -0.0797 -0.6898 -0.2795
  893MOL0     C20460   7.021  12.461   6.553 -0.4883  0.5365  0.0844
  893MOL0     C20461   7.130  12.405   6.660  0.9334  0.7609 -0.1045
  893MOL0     C20462   7.147  12.492   6.776  0.7107  0.8632 -0.3964
  893MOL0     C20463   7.256  12.440   6.869 -0.5651 -1.0949  0.1434
  893MOL0    Cl20464   7.271  12.546   7.019  0.3861  0.1719 -0.7702
  893MOL0     C20465   6.505  11.987   6.551  0.0010 -0.5010  0.2393
  893MOL0     C20466   6.382  11.925   6.585 -0.8257 -0.3493  0.8221
  893MOL0     O20467   6.127  11.919   6.374 -0.7394 -0.7903 -0.2193
  893MOL0     C20468   5.890  11.829   6.625  0.1948 -0.6032  0.7843
  893MOL0     C20469   5.770  11.762   6.628  0.1241 -1.3094  0.4320
  893MOL0     N20470   5.367  11.496   6.153  0.1421  0.8517  0.5696
  893MOL0     N20471   5.409  11.568   6.058 -0.0224 -0.0491 -0.1390
  893MOL0     C20472   5.910  11.128   6.157  0.0477 -0.0899 -0.2696
  893MOL0     C20473   5.839  11.022   6.222 -0.9145 -0.9209 -0.0336
  893MOL0     C20474   5.711  10.707   6.565  0.6052 -0.4866  0.1107
  893MOL0     C20475   5.621  10.624   6.488 -0.6718  0.4430 -0.0731
  893MOL0     C20476   5.501  10.576   6.540  0.2646 -0.0996 -0.2490
  893MOL0     C20477   5.475  10.593   6.675 -0.7694  0.5751 -0.1007
  893MOL0     O20478   5.347  10.548   6.722 -0.7770 -0.8709  0.6219
  893MOL0     C20479   5.314  10.408   6.704 -0.3713 -0.7962 -0.4570
  893MOL0     C20480   5.248  10.369   6.843 -0.3940 -0.8031 -0.1812
  893MOL0     C20481   5.130  10.457   6.869 -0.2510  0.4308 -0.7387
  893MOL0     C20482   5.029  10.502   6.749 -1.3931 -0.0929 -0.4995
  893MOL0     C20483   4.973  10.387   6.683 -0.0351 -0.0298 -0.5276
  893MOL0     C20484   4.925  10.297   6.619 -0.0935 -0.5052 -0.2717
  893MOL0     C20485   5.566  10.649   6.757 -0.2755  0.4494  0.5986
  893MOL0     C20486   5.682  10.717   6.705  0.9580 -0.3100  0.3323
  893MOL0     C20487   5.776  10.782   6.813  0.6946 -0.0957  0.4219
  893MOL0     H20488   6.020  10.994   6.501  2.6461  2.3118  0.0710
  893MOL0     H20489   6.141  11.183   6.404  1.5025 -0.8484 -2.0805
  893MOL0     H20490   6.086  11.454   6.305 -1.5470  0.4077 -3.5970
  893MOL0     H20491   6.224  11.344   6.318  1.0527  1.0197  0.7804
  893MOL0     H20492   6.307  11.451   6.103  1.3867  0.2243  3.1782
  893MOL0     H20493   6.291  11.549   6.247  0.4783 -0.8455 -0.9440
  893MOL0     H20494   6.227  11.633   6.009 -2.7553  0.1502 -2.6118
  893MOL0     H20495   6.166  11.696   6.161 -0.1871 -0.4082  1.0647
  893MOL0     H20496   6.026  11.517   5.944 -2.8310  1.8774 -1.9970
  893MOL0     H20497   5.969  11.524   6.115  3.3393 -1.9239  0.2950
  893MOL0     H20498   5.975  11.767   6.083  0.4579  2.2642 -1.1231
  893MOL0     H20499   5.966  11.745   5.906  0.8307  1.4627  1.1630
  893MOL0     H20500   5.759  11.637   6.106 -4.3761 -1.7402 -1.0964
  893MOL0     H20501   5.753  11.778   6.013  0.8984  0.3764  2.9089
  893MOL0     H20502   5.794  11.474   5.926 -0.7099  0.5519 -1.8152
  893MOL0     H20503   5.806  11.599   5.804  1.4055  1.9119  1.0275
  893MOL0     H20504   5.555  11.648   5.838 -1.5807 -1.5545 -2.5923
  893MOL0     H20505   5.583  11.472   5.826 -1.4368  1.0554 -0.7532
  893MOL0     H20506   5.652  11.368   6.080 -0.7185 -0.3022 -1.6482
  893MOL0     H20507   5.409  11.214   6.233  1.2403  1.2047 -3.8239
  893MOL0     H20508   5.583  11.235   6.256  0.2370  0.4670 -2.4495
  893MOL0     H20509   5.368  11.372   6.420  0.5853  2.3389  1.2393
  893MOL0     H20510   5.442  11.220   6.472 -2.6278  0.3580  0.0950
  893MOL0     H20511   5.653  11.416   6.410  0.7525  2.0914 -0.1459
  893MOL0     H20512   5.593  11.380   6.569  2.9344  2.3870 -1.1024
  893MOL0     H20513   5.417  11.562   6.520 -0.1926  2.3795  0.2783
  893MOL0     H20514   5.511  11.603   6.379 -2.3329  1.4236  1.4381
  893MOL0     H20515   5.759  11.606   6.331 -1.4777 -0.4854 -0.7180
  893MOL0     H20516   5.948  11.739   6.303 -2.6780  2.3576 -0.5507
  893MOL0     H20517   6.206  12.207   6.600  1.2729  1.5652 -1.0055
  893MOL0     H20518   6.416  12.311   6.579  1.6372 -0.8717 -2.9924
  893MOL0     H20519   6.736  12.078   6.630 -1.5861 -0.5679  0.5292
  893MOL0     H20520   6.772  12.053   6.455 -0.5912 -0.5949  0.4141
  893MOL0     H20521   6.847  12.278   6.626  1.6767  0.2028 -0.0633
  893MOL0     H20522   6.958  12.138   6.582 -0.5833 -1.3045 -0.1149
  893MOL0     H20523   6.951  12.198   6.340 -3.8342 -1.9172 -0.4557
  893MOL0     H20524   6.821  12.311   6.373 -0.3279 -0.7315  0.5851
  893MOL0     H20525   7.051  12.416   6.323 -1.9023 -0.3765 -0.5466
  893MOL0     H20526   7.119  12.302   6.429  1.5584  0.9142 -3.0032
  893MOL0     H20527   6.917  12.468   6.586 -1.0275  1.8447 -1.7649
  893MOL0     H20528   7.049  12.565   6.532 -2.2168  1.3338  1.4076
  893MOL0     H20529   7.109  12.303   6.692  1.4163  0.2176 -1.4412
  893MOL0     H20530   7.223  12.396   6.604 -0.0266 -3.1579 -1.3906
  893MOL0     H20531   7.061  12.499   6.843 -0.0244  2.7517 -1.4900
  893MOL0     H20532   7.182  12.590   6.743  1.2509  2.5252  4.3065
  893MOL0     H20533   7.232  12.337   6.894 -2.0292 -0.8846 -0.3483
  893MOL0     H20534   7.351  12.440   6.815 -0.5023 -0.4145  0.2379
  893MOL0     H20535   6.584  11.921   6.519 -0.9193 -2.0010  0.9519
  893MOL0     H20536   6.383  11.817   6.582 -0.3200 -0.3714  1.4748
  893MOL0     H20537   5.914  11.898   6.705 -0.6975 -1.9221  2.2489
  893MOL0     H20538   5.698  11.778   6.708  0.4577 -0.7453  0.6262
  893MOL0     H20539   5.876  11.160   6.059  1.4919  2.6547  0.0292
  893MOL0     H20540   5.777  10.960   6.158  2.5678 -4.5052 -0.3347
  893MOL0     H20541   5.628  10.617   6.380 -1.2594 -2.3729 -0.0067
  893MOL0     H20542   5.425  10.525   6.482  1.8008 -0.2500 -2.2291
  893MOL0     H20543   5.398  10.345   6.676 -1.3119 -2.1758 -0.3154
  893MOL0     H20544   5.242  10.409   6.622 -1.5077  1.3937  0.4615
  893MOL0     H20545   5.319  10.389   6.923 -1.5241  0.2005  0.5995
  893MOL0     H20546   5.211  10.266   6.849 -2.1590 -0.1227  1.7071
  893MOL0     H20547   5.167  10.552   6.909 -0.2482  0.3356 -0.5152
  893MOL0     H20548   5.069  10.415   6.949  0.1267 -0.1530 -0.7527
  893MOL0     H20549   4.955  10.570   6.792 -2.5002 -0.9102 -1.0577
  893MOL0     H20550   5.101  10.557   6.687  2.1805  0.8491  3.9846
  893MOL0     H20551   4.884  10.212   6.569 -4.0388  1.3692 -0.5361
  893MOL0     H20552   5.547  10.651   6.863 -3.4726 -0.0297  0.1357
  893MOL0     H20553   5.728  10.779   6.911 -1.0467  0.1310 -0.3949
  893MOL0     H20554   5.878  10.741   6.815  0.1982 -1.4864 -1.0187
  893MOL0     H20555   5.800  10.885   6.787 -1.5588  0.9464  2.0939
  894MOL0     O20556   3.846   9.624   6.183 -0.6909 -0.7891  0.2593
  894MOL0     C20557   3.874   9.742   6.148 -0.9870 -0.4809 -0.2866
  894MOL0     O20558   3.959   9.773   6.037 -0.0023 -0.4632  0.1104
  894MOL0     C20559   4.022   9.668   5.982  0.3923  1.0128  0.3387
  894MOL0     C20560   3.996   9.645   5.849 -0.7848  1.1552  0.3598
  894MOL0     C20561   4.034   9.526   5.781 -0.1075  0.0495 -0.2507
  894MOL0     C20562   4.124   9.435   5.854  0.1304 -0.1493  0.1009
  894MOL0     O20563   4.191   9.327   5.803  0.0917  0.1918 -0.7780
  894MOL0     C20564   4.117   9.256   5.712  0.2812 -0.9132  0.1485
  894MOL0     C20565   4.010   9.181   5.801 -1.1837  0.2784  0.5824
  894MOL0     C20566   4.080   9.075   5.899 -0.0164 -0.1452 -0.7192
  894MOL0     C20567   4.179   8.974   5.840 -0.1730 -0.8552  1.0466
  894MOL0     C20568   4.195   8.867   5.943  0.0949 -0.0144 -0.5482
  894MOL0     C20569   4.291   8.765   5.899 -0.2442  0.4167  0.1504
  894MOL0     C20570   4.348   8.669   6.001 -0.0838 -1.3219 -0.3189
  894MOL0     C20571   4.436   8.576   5.933  0.1985 -0.8366  0.6513
  894MOL0     N20572   4.487   8.482   6.028 -0.4444  0.2719 -0.0817
  894MOL0     C20573   4.586   8.518   6.115  0.0757  1.4164  0.6029
  894MOL0     C20574   4.595   8.423   6.209 -0.1816 -0.1296 -0.5584
  894MOL0     C20575   4.686   8.429   6.330  0.6216 -0.5595  0.3056
  894MOL0     C20576   4.608   8.404   6.464 -0.4373 -0.2513 -0.3903
  894MOL0     C20577   4.479   8.488   6.472 -1.0316 -0.2753  0.2009
  894MOL0     C20578   4.430   8.469   6.605  0.3799 -0.4577  0.4106
  894MOL0     O20579   4.295   8.518   6.637  0.5840 -0.1392  0.6673
  894MOL0     C20580   4.282   8.639   6.701 -1.0219 -0.1489 -0.1092
  894MOL0     C20581   4.168   8.654   6.778  0.3684 -0.2272 -0.0125
  894MOL0     C20582   4.141   8.773   6.850  0.4977  0.4739  0.7072
  894MOL0     C20583   4.230   8.870   6.858 -0.1703  0.2504 -0.1278
  894MOL0     C20584   4.196   8.997   6.928 -0.4485  0.1639 -0.3930
  894MOL0     O20585   4.073   9.006   6.979 -0.3717 -0.5560  0.1932
  894MOL0     C20586   4.027   9.136   7.005 -0.7439  0.0512  0.9053
  894MOL0     C20587   4.084   9.220   7.107 -0.1721  0.3494  1.6396
  894MOL0     C20588   4.036   9.349   7.125  0.4933  0.1478  0.3862
  894MOL0     C20589   3.910   9.396   7.067 -0.0246  1.0050 -0.1985
  894MOL0     O20590   3.851   9.511   7.103  0.2147 -0.1294 -0.0562
  894MOL0     C20591   3.904   9.593   7.208  0.2942  0.9570 -0.6212
  894MOL0     C20592   4.007   9.672   7.130  0.2504 -0.4897 -0.2630
  894MOL0     C20593   4.059   9.790   7.211  0.2751 -0.5796 -0.1201
  894MOL0     C20594   4.111   9.761   7.347  0.1089 -0.1204 -0.5205
  894MOL0     C20595   4.159   9.884   7.427  0.0267  0.1756 -0.6956
  894MOL0     C20596   4.274   9.867   7.523 -0.0592  0.1471 -0.3260
  894MOL0     C20597   4.387   9.970   7.503 -0.7919  0.7011 -0.3037
  894MOL0     C20598   4.518   9.934   7.586  0.1490  0.1347  0.0023
  894MOL0    Cl20599   4.476   9.823   7.706  0.2194  0.1427 -0.2186
  894MOL0     C20600   3.844   9.297   6.992  0.7575  0.5770  0.7901
  894MOL0     C20601   3.899   9.181   6.963 -0.5258  1.1561 -0.6867
  894MOL0     O20602   4.287   9.075   6.954 -1.1413  0.6871  0.3523
  894MOL0     C20603   4.361   8.849   6.797  0.2862 -1.0825  0.9783
  894MOL0     C20604   4.387   8.739   6.710 -0.7941  1.2897 -0.0341
  894MOL0     N20605   4.497   8.334   6.189  0.2612  0.8878  1.1084
  894MOL0     N20606   4.428   8.371   6.077 -0.6668 -1.4839 -0.3090
  894MOL0     C20607   4.153   9.461   5.988 -0.5244  0.6368  0.1120
  894MOL0     C20608   4.103   9.571   6.049  1.0752 -0.2384  0.6940
  894MOL0     C20609   3.806   9.845   6.221 -0.1484 -0.4643  0.0099
  894MOL0     C20610   3.682   9.812   6.284 -0.0735 -0.2353 -0.3426
  894MOL0     C20611   3.613   9.904   6.363  0.0345 -0.4956  1.3332
  894MOL0     C20612   3.664  10.037   6.380 -0.3006 -0.4173 -0.5398
  894MOL0     O20613   3.592  10.123   6.456 -0.0455 -0.1339  0.4816
  894MOL0     C20614   3.628  10.258   6.465  0.5478 -0.3162  0.1045
  894MOL0     C20615   3.610  10.326   6.331  1.0859 -0.6175 -0.4073
  894MOL0     C20616   3.660  10.468   6.343  0.2162 -1.0748 -0.1111
  894MOL0     C20617   3.663  10.537   6.207  0.7115 -0.8311 -0.7287
  894MOL0     C20618   3.765  10.502   6.106 -0.2423 -0.7820 -0.7308
  894MOL0     C20619   3.852  10.465   6.025 -0.6634  0.1301 -0.1225
  894MOL0     C20620   3.783  10.074   6.315 -0.1833 -0.4150  0.7753
  894MOL0     C20621   3.848   9.980   6.229  0.6909  0.0847  0.6422
  894MOL0     C20622   3.974  10.026   6.173  0.1640 -0.1424  0.2078
  894MOL0     H20623   3.943   9.727   5.801 -4.0943 -0.6887  0.5424
  894MOL0     H20624   4.005   9.515   5.677 -1.6723 -0.4258  0.2114
  894MOL0     H20625   4.075   9.319   5.633  1.7325  2.2606  1.7119
  894MOL0     H20626   4.184   9.183   5.666 -1.2620 -2.0871 -0.2938
  894MOL0     H20627   3.955   9.128   5.723  0.7995 -2.1879  0.7239
  894MOL0     H20628   3.939   9.243   5.856 -2.9279 -0.6261 -0.5426
  894MOL0     H20629   3.995   9.014   5.932  0.0700 -0.2210 -0.6400
  894MOL0     H20630   4.117   9.126   5.987 -3.2387  1.2980 -0.0375
  894MOL0     H20631   4.143   8.940   5.742 -0.8646 -0.8897  1.3078
  894MOL0     H20632   4.277   9.015   5.815  0.7029 -3.0449  0.7019
  894MOL0     H20633   4.235   8.913   6.034 -0.2112 -1.0920  0.1524
  894MOL0     H20634   4.103   8.812   5.966 -1.2845  2.6250  0.6038
  894MOL0     H20635   4.244   8.708   5.818 -1.8763 -0.0089  1.3481
  894MOL0     H20636   4.372   8.827   5.859 -1.8326  2.4180 -0.1439
  894MOL0     H20637   4.271   8.603   6.043  0.0728 -0.6027  1.1677
  894MOL0     H20638   4.398   8.721   6.084 -0.9581 -1.9681  0.6424
  894MOL0     H20639   4.374   8.518   5.864 -1.1717  0.1495  1.0227
  894MOL0     H20640   4.514   8.628   5.875 -1.9786  2.1808  0.1973
  894MOL0     H20641   4.647   8.608   6.113  2.1187  0.0816 -0.6939
  894MOL0     H20642   4.767   8.357   6.316 -1.8005 -4.0238  2.4527
  894MOL0     H20643   4.721   8.532   6.340 -2.4727  0.7314 -0.7893
  894MOL0     H20644   4.583   8.298   6.461 -3.5009  0.3158  1.1967
  894MOL0     H20645   4.666   8.415   6.556  0.3711 -0.7274 -0.8339
  894MOL0     H20646   4.414   8.449   6.393 -0.5836 -1.2385  0.2961
  894MOL0     H20647   4.492   8.593   6.445 -1.8103 -0.3688 -0.5550
  894MOL0     H20648   4.504   8.505   6.676 -0.8810 -1.1014  2.1279
  894MOL0     H20649   4.411   8.361   6.613 -1.4508 -0.0722  2.0797
  894MOL0     H20650   4.091   8.578   6.766 -4.2670  4.2292 -3.3709
  894MOL0     H20651   4.049   8.786   6.904  0.7284 -0.3434  1.3232
  894MOL0     H20652   4.163   9.186   7.173 -0.4040  0.5468  2.0235
  894MOL0     H20653   4.092   9.412   7.193  1.9058 -1.1899  0.5087
  894MOL0     H20654   3.823   9.658   7.243  0.0433 -0.0076  0.6681
  894MOL0     H20655   3.947   9.531   7.288 -0.8976  1.2886  0.3092
  894MOL0     H20656   4.087   9.609   7.090 -0.8287 -0.5811 -2.4730
  894MOL0     H20657   3.959   9.723   7.045  3.7232  1.7551 -1.0939
  894MOL0     H20658   4.138   9.827   7.145  1.5349 -2.9457 -0.0625
  894MOL0     H20659   3.978   9.862   7.223  0.5609 -0.4606  1.3094
  894MOL0     H20660   4.195   9.692   7.341 -0.6617 -1.1516  0.0974
  894MOL0     H20661   4.045   9.697   7.407  2.1829 -0.8343  1.0947
  894MOL0     H20662   4.075   9.915   7.489  0.4681  0.6512 -0.3340
  894MOL0     H20663   4.192   9.962   7.358 -2.5519  0.9778 -1.1196
  894MOL0     H20664   4.235   9.868   7.625  2.8131 -1.7838  0.9009
  894MOL0     H20665   4.316   9.767   7.511  1.0804  0.7954 -2.2975
  894MOL0     H20666   4.357  10.067   7.542 -1.0610  0.0879  1.0888
  894MOL0     H20667   4.418   9.982   7.399 -3.6312 -1.1674 -1.5183
  894MOL0     H20668   4.602   9.894   7.528  0.0718  1.8363 -1.3901
  894MOL0     H20669   4.565  10.023   7.630 -0.2993  0.7807 -0.7786
  894MOL0     H20670   3.746   9.325   6.954  1.1131  3.3411  1.6187
  894MOL0     H20671   3.855   9.107   6.897 -0.9133  2.4163 -1.8928
  894MOL0     H20672   4.442   8.920   6.813  1.4907 -2.4310  1.0076
  894MOL0     H20673   4.475   8.742   6.647  0.1482 -0.1329  1.1638
  894MOL0     H20674   4.215   9.384   6.034 -2.1679 -1.3453 -0.8080
  894MOL0     H20675   4.141   9.618   6.139  3.3075  0.3158 -0.4601
  894MOL0     H20676   3.631   9.716   6.285 -1.9245  0.6807 -0.8550
  894MOL0     H20677   3.546   9.873   6.443  0.9123 -2.7322  1.2705
  894MOL0     H20678   3.732  10.259   6.501  0.9078 -1.8573 -0.7861
  894MOL0     H20679   3.556  10.298   6.537 -2.2032 -4.9427  0.3533
  894MOL0     H20680   3.502  10.323   6.313  0.1916 -2.7785  3.9084
  894MOL0     H20681   3.658  10.278   6.244 -0.4169  2.5092 -3.1808
  894MOL0     H20682   3.758  10.471   6.390 -0.5859  0.3484  1.6046
  894MOL0     H20683   3.607  10.513   6.428  0.5032  2.5165 -1.6579
  894MOL0     H20684   3.562  10.544   6.166 -0.6376 -3.0289  1.9290
  894MOL0     H20685   3.697  10.638   6.230  1.9923 -1.4539  0.2445
  894MOL0     H20686   3.920  10.422   5.954 -1.8080  2.6210 -2.9426
  894MOL0     H20687   3.822  10.175   6.316  0.2596 -0.3471 -3.4077
  894MOL0     H20688   4.046   9.947   6.195 -1.0005 -0.8057  1.8090
  894MOL0     H20689   3.981  10.028   6.064  3.4797 -0.5311  0.3206
  894MOL0     H20690   4.000  10.115   6.230  1.7047 -1.6732  2.0146
  895MOL0     O20691  10.994  11.199   2.440 -0.5639  0.3128  0.1841
  895MOL0     C20692  10.918  11.297   2.460  0.3256 -0.0407 -0.1999
  895MOL0     O20693  10.946  11.420   2.511 -0.3252 -0.3804 -0.6787
  895MOL0     C20694  11.062  11.471   2.506  0.5901 -1.1018 -0.5002
  895MOL0     C20695  11.175  11.424   2.433 -0.8486  0.3026 -0.7439
  895MOL0     C20696  11.304  11.477   2.463 -0.0139  0.6760 -0.1488
  895MOL0     C20697  11.320  11.585   2.545  0.3752  0.0485  0.1687
  895MOL0     O20698  11.443  11.642   2.573 -0.2350 -0.4646  0.0113
  895MOL0     C20699  11.495  11.732   2.479  1.0184 -0.9044 -0.0912
  895MOL0     C20700  11.574  11.838   2.562 -0.2331  0.0255 -0.2375
  895MOL0     C20701  11.479  11.935   2.629 -1.0955  0.0595  0.4844
  895MOL0     C20702  11.568  12.032   2.706  0.2597  0.1346 -0.2822
  895MOL0     C20703  11.478  12.120   2.789 -0.2363  0.5045  0.4687
  895MOL0     C20704  11.445  12.248   2.718 -0.3238 -0.7794 -0.3671
  895MOL0     C20705  11.323  12.309   2.787  0.1116 -0.1830  0.4675
  895MOL0     C20706  11.284  12.456   2.746 -0.7477  0.1400 -0.3630
  895MOL0     N20707  11.246  12.453   2.605  0.1691  0.4424  0.1171
  895MOL0     C20708  11.128  12.394   2.558 -0.2262  0.4310 -0.3412
  895MOL0     C20709  11.139  12.415   2.426  0.2478  0.1066 -0.0240
  895MOL0     C20710  11.025  12.389   2.334 -0.1383  0.3598 -0.3661
  895MOL0     C20711  10.913  12.490   2.387 -0.2282 -0.4271 -0.2738
  895MOL0     C20712  10.781  12.468   2.310 -1.3416  0.1542 -0.2743
  895MOL0     C20713  10.675  12.575   2.345 -1.0213  1.1169  0.2188
  895MOL0     O20714  10.680  12.685   2.244  0.1555  0.5777  0.5417
  895MOL0     C20715  10.575  12.772   2.258 -0.5167  1.0250  0.7954
  895MOL0     C20716  10.554  12.866   2.156 -0.7736 -0.2846 -0.0204
  895MOL0     C20717  10.443  12.948   2.158 -0.1977  0.1815 -0.1946
  895MOL0     C20718  10.350  12.953   2.259 -0.7348 -0.2864 -0.5420
  895MOL0     C20719  10.232  13.045   2.251  0.6758  0.3321 -0.5511
  895MOL0     O20720  10.189  13.069   2.131  0.6063  0.8992 -0.2403
  895MOL0     C20721  10.091  13.160   2.110 -0.0044  0.1069 -0.0453
  895MOL0     C20722  10.013  13.115   2.004 -0.6244 -0.1873  1.0531
  895MOL0     C20723   9.923  13.201   1.944 -0.1041  0.1748 -0.0504
  895MOL0     C20724   9.893  13.328   2.010  0.0809  0.7690 -0.5755
  895MOL0     O20725   9.800  13.407   1.951  0.2449 -0.1274 -0.4191
  895MOL0     C20726   9.843  13.540   1.909 -0.3705 -0.1871  0.8879
  895MOL0     C20727   9.752  13.650   1.942  0.3006  0.2912  0.8343
  895MOL0     C20728   9.815  13.783   1.934 -0.4997  0.3152  0.1632
  895MOL0     C20729   9.711  13.892   1.941  0.4698  0.0351 -0.1283
  895MOL0     C20730   9.792  14.023   1.937 -0.4410  0.2129  0.0749
  895MOL0     C20731   9.702  14.133   1.945 -0.2277  0.2707  0.7270
  895MOL0     C20732   9.639  14.186   1.818  0.3089  0.2774  0.6398
  895MOL0     C20733   9.590  14.332   1.830 -0.0608  0.6945  0.2010
  895MOL0    Cl20734   9.481  14.352   1.963 -0.7228 -0.1125  0.2011
  895MOL0     C20735   9.952  13.354   2.134  0.5763  0.1727  0.5827
  895MOL0     C20736  10.054  13.274   2.178 -0.1092  0.6995  0.7005
  895MOL0     O20737  10.189  13.092   2.355  0.4294 -0.2322 -0.5886
  895MOL0     C20738  10.374  12.858   2.358 -0.1531  0.2797 -0.0157
  895MOL0     C20739  10.483  12.770   2.356  0.1901  0.5440 -0.2685
  895MOL0     N20740  11.255  12.483   2.389  0.7606  0.0577 -0.0118
  895MOL0     N20741  11.314  12.507   2.496 -0.7374 -0.7059  0.6246
  895MOL0     C20742  11.211  11.631   2.616 -0.0098  0.0812 -0.2822
  895MOL0     C20743  11.083  11.576   2.595 -0.0879 -0.0014  0.7075
  895MOL0     C20744  10.779  11.262   2.452  0.2250 -0.1408  0.3257
  895MOL0     C20745  10.721  11.269   2.326 -0.6566  0.0374  1.0043
  895MOL0     C20746  10.580  11.240   2.306  0.4690  0.3320 -0.2985
  895MOL0     C20747  10.503  11.216   2.422  0.0750 -0.3796  1.2485
  895MOL0     O20748  10.369  11.201   2.390 -0.3132  0.5619 -0.6543
  895MOL0     C20749  10.270  11.215   2.488  0.9992 -0.1095 -0.7135
  895MOL0     C20750  10.125  11.203   2.443  0.8313 -0.4204 -0.8119
  895MOL0     C20751  10.085  11.340   2.388 -0.2146 -0.1565  0.4618
  895MOL0     C20752   9.937  11.339   2.327 -0.5692 -0.9239 -0.0781
  895MOL0     C20753   9.831  11.291   2.418  0.2688  0.4147  0.6188
  895MOL0     C20754   9.758  11.222   2.480  0.2979 -0.1806  0.4481
  895MOL0     C20755  10.564  11.207   2.548 -0.1637 -0.5740 -0.5412
  895MOL0     C20756  10.703  11.227   2.570  0.2724  0.3280  0.5453
  895MOL0     C20757  10.759  11.242   2.709  0.9608 -0.9331  0.0543
  895MOL0     H20758  11.152  11.354   2.354  1.1377 -1.6001  0.2571
  895MOL0     H20759  11.391  11.427   2.422 -0.3982  1.8509 -2.5963
  895MOL0     H20760  11.565  11.677   2.416  1.9958 -1.0655  1.1004
  895MOL0     H20761  11.418  11.773   2.413  2.9063 -0.0698 -1.8739
  895MOL0     H20762  11.631  11.899   2.492 -0.4510 -0.2063 -0.6170
  895MOL0     H20763  11.647  11.785   2.625 -0.5277 -0.4368 -0.2803
  895MOL0     H20764  11.419  11.869   2.693  0.6849 -1.5898  0.5543
  895MOL0     H20765  11.416  11.987   2.556 -0.0010 -1.4918 -1.7023
  895MOL0     H20766  11.625  11.965   2.770 -1.2554 -1.3743 -0.4153
  895MOL0     H20767  11.634  12.097   2.648  1.1745  1.6055  2.2657
  895MOL0     H20768  11.390  12.061   2.817 -1.2102  1.3664 -0.6816
  895MOL0     H20769  11.534  12.135   2.882  0.3681 -1.7148  0.5275
  895MOL0     H20770  11.521  12.326   2.727 -0.6316 -0.5202  0.0428
  895MOL0     H20771  11.425  12.226   2.613  1.3554  0.7224 -1.0436
  895MOL0     H20772  11.339  12.310   2.895 -1.6337 -1.2179  0.7801
  895MOL0     H20773  11.238  12.242   2.768  0.7602 -0.8865  0.0001
  895MOL0     H20774  11.195  12.501   2.791  0.0906  0.5454  0.9284
  895MOL0     H20775  11.376  12.515   2.745 -0.0636 -0.8962 -0.1033
  895MOL0     H20776  11.045  12.361   2.620 -1.6312  2.0825 -1.2527
  895MOL0     H20777  11.059  12.423   2.235  0.1528 -0.9179 -0.7240
  895MOL0     H20778  10.999  12.283   2.335  0.0184  0.3157 -0.8388
  895MOL0     H20779  10.920  12.480   2.496  4.1989  1.8514 -0.1226
  895MOL0     H20780  10.932  12.595   2.363  0.3358 -0.6054 -0.6090
  895MOL0     H20781  10.747  12.367   2.335  2.8776 -1.4563 -0.1120
  895MOL0     H20782  10.796  12.464   2.202 -0.5186  0.9445 -0.1934
  895MOL0     H20783  10.685  12.621   2.444  0.2954  1.2073  0.0655
  895MOL0     H20784  10.582  12.518   2.355 -1.9153  2.7646  1.7490
  895MOL0     H20785  10.623  12.852   2.074  1.2228 -1.6338  1.7748
  895MOL0     H20786  10.437  13.004   2.065 -2.2903 -2.3578 -1.7250
  895MOL0     H20787  10.026  13.014   1.966  0.4791  0.0480  0.7732
  895MOL0     H20788   9.867  13.166   1.858 -2.1168 -0.1497  1.3109
  895MOL0     H20789   9.948  13.565   1.929 -0.4192  0.5122  0.3236
  895MOL0     H20790   9.843  13.537   1.800 -1.3078  0.9241  0.8352
  895MOL0     H20791   9.670  13.644   1.870 -0.3899 -0.2919  1.6513
  895MOL0     H20792   9.716  13.630   2.043  1.2449  1.3732  1.4143
  895MOL0     H20793   9.902  13.798   1.998  3.6978  1.5698 -5.0923
  895MOL0     H20794   9.874  13.795   1.842  1.6186  1.5208  1.5829
  895MOL0     H20795   9.671  13.870   2.041  2.1324 -2.5932  0.0582
  895MOL0     H20796   9.634  13.880   1.864  1.9720  1.6185 -1.9690
  895MOL0     H20797   9.844  14.040   1.842 -0.7288  0.9800  0.0431
  895MOL0     H20798   9.859  14.035   2.023  1.5444 -0.2793 -1.3149
  895MOL0     H20799   9.627  14.105   2.020  1.7655 -4.1981  1.4133
  895MOL0     H20800   9.756  14.220   1.985  0.3277  0.3012 -0.0673
  895MOL0     H20801   9.552  14.126   1.788 -0.9597  1.8469  1.0524
  895MOL0     H20802   9.717  14.171   1.743 -0.7658  1.0061 -0.6696
  895MOL0     H20803   9.679  14.394   1.843  0.3058 -0.1558  2.0371
  895MOL0     H20804   9.536  14.354   1.738 -0.4938  1.3740  0.6101
  895MOL0     H20805   9.922  13.443   2.188 -1.0940  0.1246 -0.1904
  895MOL0     H20806  10.102  13.300   2.272 -2.1708  2.0565  1.4531
  895MOL0     H20807  10.302  12.846   2.438  1.3871  0.4511  1.4506
  895MOL0     H20808  10.476  12.700   2.439  0.9119 -0.6408 -1.1923
  895MOL0     H20809  11.218  11.715   2.683 -0.3787  1.8085 -2.3126
  895MOL0     H20810  10.995  11.616   2.644  0.5747  1.0106  1.0999
  895MOL0     H20811  10.791  11.287   2.246 -0.3655 -1.5470  0.8686
  895MOL0     H20812  10.529  11.236   2.210 -0.6745 -0.4487  0.3181
  895MOL0     H20813  10.292  11.298   2.555 -0.1979 -1.1787  1.0993
  895MOL0     H20814  10.286  11.128   2.553 -0.0971  1.6770  2.1289
  895MOL0     H20815  10.056  11.198   2.528 -0.4663  3.4414 -1.4207
  895MOL0     H20816  10.105  11.134   2.361  0.3570  3.0533 -3.9304
  895MOL0     H20817  10.145  11.358   2.298 -0.2463  0.4349  0.5573
  895MOL0     H20818  10.093  11.428   2.452 -0.9636  0.8433 -0.7532
  895MOL0     H20819   9.917  11.442   2.296  1.5631 -0.5270 -0.2708
  895MOL0     H20820   9.929  11.267   2.245 -1.7598 -0.2357 -0.6057
  895MOL0     H20821   9.669  11.169   2.509  1.2802 -2.4746 -0.4617
  895MOL0     H20822  10.500  11.207   2.636  0.7623 -0.0945  0.1536
  895MOL0     H20823  10.869  11.240   2.707  1.1458  3.0063 -1.8803
  895MOL0     H20824  10.742  11.349   2.724 -0.5791 -1.5079  3.1183
  895MOL0     H20825  10.714  11.175   2.783 -2.9538  0.7020 -0.6167
  896MOL0     O20826   1.725   5.363  11.216 -0.4172  0.3618 -0.1612
  896MOL0     C20827   1.724   5.470  11.162  0.6146 -0.7959 -0.0099
  896MOL0     O20828   1.809   5.525  11.074 -0.2801  0.1397 -0.9709
  896MOL0     C20829   1.944   5.499  11.085  0.3792  1.0411 -0.1285
  896MOL0     C20830   2.032   5.507  10.975  0.0714 -0.1610  0.6611
  896MOL0     C20831   2.169   5.493  10.995  0.0028  0.1098  0.5998
  896MOL0     C20832   2.220   5.447  11.116 -0.0675 -0.3941  0.2338
  896MOL0     O20833   2.353   5.420  11.115  0.1772  0.1669  0.4831
  896MOL0     C20834   2.420   5.375  11.238 -0.3634 -0.1624  0.5398
  896MOL0     C20835   2.571   5.363  11.213  0.0440  0.4839 -0.1710
  896MOL0     C20836   2.651   5.495  11.211 -0.0884 -0.0903 -0.0000
  896MOL0     C20837   2.806   5.470  11.231  0.0954 -0.2984  0.3292
  896MOL0     C20838   2.880   5.459  11.103 -0.2103 -0.6173 -0.4531
  896MOL0     C20839   3.031   5.495  11.112 -0.2352 -0.4552 -0.6394
  896MOL0     C20840   3.110   5.462  10.983  0.1401  0.1712  0.3418
  896MOL0     C20841   3.261   5.472  11.016  0.7017 -1.0379 -0.5080
  896MOL0     N20842   3.337   5.448  10.884 -0.9046  0.6893 -0.3742
  896MOL0     C20843   3.415   5.338  10.891 -0.5989 -0.1660  0.3041
  896MOL0     C20844   3.462   5.321  10.770  0.5544 -0.4185  0.5339
  896MOL0     C20845   3.543   5.206  10.728  0.2103  0.3348  0.0937
  896MOL0     C20846   3.692   5.217  10.745  0.1296 -0.1224  0.2522
  896MOL0     C20847   3.757   5.133  10.629  0.2269  0.2301  0.0930
  896MOL0     C20848   3.907   5.145  10.643 -0.4805  0.1959  0.0808
  896MOL0     O20849   3.945   5.047  10.752  0.3754  0.1429  0.3959
  896MOL0     C20850   4.071   5.053  10.803 -0.4319  1.0208  1.2403
  896MOL0     C20851   4.178   5.034  10.719 -0.8253  1.4361 -0.5684
  896MOL0     C20852   4.308   5.034  10.781 -0.1216 -0.2595 -0.1985
  896MOL0     C20853   4.328   5.050  10.918  0.0770  0.0373  0.1224
  896MOL0     C20854   4.464   5.036  10.985  0.5243 -0.2854  0.1619
  896MOL0     O20855   4.572   5.012  10.911  0.7149 -0.3216  0.8805
  896MOL0     C20856   4.685   4.939  10.953 -0.2132  0.9533 -0.9678
  896MOL0     C20857   4.815   4.973  10.911  0.5477 -0.1945 -0.3041
  896MOL0     C20858   4.929   4.897  10.942  0.0208 -1.2677 -0.0679
  896MOL0     C20859   4.904   4.778  11.016 -0.1933 -0.5342 -0.2489
  896MOL0     O20860   5.018   4.707  11.043  0.1832 -0.6503 -0.5242
  896MOL0     C20861   5.008   4.634  11.167  0.3001 -0.2864 -0.7564
  896MOL0     C20862   5.155   4.598  11.194 -0.3605 -0.0399  0.1903
  896MOL0     C20863   5.235   4.550  11.076 -0.3730  0.2425  0.9757
  896MOL0     C20864   5.374   4.513  11.135 -0.0148  0.1052  0.3337
  896MOL0     C20865   5.465   4.452  11.032 -0.4281  0.0382  0.1377
  896MOL0     C20866   5.589   4.396  11.106 -0.0178  0.4529 -0.5168
  896MOL0     C20867   5.688   4.343  11.002  0.5230  0.3733 -0.1319
  896MOL0     C20868   5.809   4.271  11.071  0.3527  0.0398 -0.0012
  896MOL0    Cl20869   5.907   4.384  11.185 -0.5423  0.3405  0.5321
  896MOL0     C20870   4.779   4.743  11.054  0.4166 -0.3709 -0.1278
  896MOL0     C20871   4.667   4.824  11.024  0.2418 -0.0031 -0.3834
  896MOL0     O20872   4.464   5.042  11.109  0.2269 -0.0161 -0.7398
  896MOL0     C20873   4.210   5.081  10.993  0.4752 -1.5075  0.5347
  896MOL0     C20874   4.088   5.076  10.932 -0.6494 -0.5742  0.6779
  896MOL0     N20875   3.409   5.429  10.693  0.0555 -0.9227  0.6178
  896MOL0     N20876   3.340   5.508  10.769  0.9656  0.1239  0.1727
  896MOL0     C20877   2.144   5.430  11.227  0.0927 -1.0894  0.2541
  896MOL0     C20878   2.003   5.462  11.211  0.1433  0.2656  0.2245
  896MOL0     C20879   1.587   5.541  11.175 -0.4562  0.4794 -1.3705
  896MOL0     C20880   1.475   5.465  11.195 -0.5400  1.2989 -1.4263
  896MOL0     C20881   1.358   5.526  11.241  0.3572 -0.8720 -0.5651
  896MOL0     C20882   1.346   5.662  11.264 -0.7077 -0.2884 -0.7989
  896MOL0     O20883   1.220   5.711  11.299 -0.2420 -0.3540 -0.8953
  896MOL0     C20884   1.200   5.848  11.351  0.5524 -0.4922  0.5392
  896MOL0     C20885   1.132   5.928  11.258  0.2192 -0.1703 -0.7279
  896MOL0     C20886   1.108   6.078  11.307  0.6632  0.6764 -0.3757
  896MOL0     C20887   1.040   6.165  11.212 -0.0381  0.4998  0.9309
  896MOL0     C20888   1.138   6.248  11.146 -0.6933  0.9721 -1.4070
  896MOL0     C20889   1.200   6.313  11.062  0.3225  1.0763 -0.3231
  896MOL0     C20890   1.457   5.742  11.243 -0.6512 -0.2962  0.4428
  896MOL0     C20891   1.577   5.679  11.193 -0.1357 -0.4666  0.8016
  896MOL0     C20892   1.686   5.777  11.176 -0.7381 -0.5360  0.0828
  896MOL0     H20893   1.989   5.541  10.881  0.4888  0.2112  0.6016
  896MOL0     H20894   2.238   5.523  10.917 -1.5198 -0.1920 -0.9240
  896MOL0     H20895   2.409   5.447  11.319 -0.4381  4.1740 -2.9874
  896MOL0     H20896   2.372   5.282  11.270  0.2590 -1.4986 -2.1113
  896MOL0     H20897   2.578   5.299  11.125  0.9792  2.8241 -1.9262
  896MOL0     H20898   2.604   5.310  11.303  1.9908  2.1728  0.1896
  896MOL0     H20899   2.630   5.555  11.300  0.6667  2.3397 -1.3612
  896MOL0     H20900   2.608   5.553  11.129 -4.5645 -1.6070  0.9509
  896MOL0     H20901   2.852   5.559  11.275 -0.0010 -0.2765  0.3846
  896MOL0     H20902   2.820   5.385  11.299  1.3480 -1.0017 -0.7606
  896MOL0     H20903   2.878   5.357  11.063 -1.1662 -1.4890  1.6702
  896MOL0     H20904   2.834   5.528  11.032 -0.5203 -2.2378 -1.9051
  896MOL0     H20905   3.056   5.600  11.130 -1.4540 -0.3528  0.6066
  896MOL0     H20906   3.078   5.435  11.191  2.0600  0.7196 -1.0280
  896MOL0     H20907   3.087   5.526  10.898  1.3119 -0.1862 -0.2699
  896MOL0     H20908   3.083   5.362  10.946  1.2365 -0.7273  1.8413
  896MOL0     H20909   3.285   5.569  11.061 -3.5638 -1.1051  2.4669
  896MOL0     H20910   3.288   5.395  11.089 -2.9578  0.0878  2.3148
  896MOL0     H20911   3.430   5.276  10.979 -0.9876 -0.7889 -0.0635
  896MOL0     H20912   3.488   5.124  10.776  0.6976  0.3465  0.6901
  896MOL0     H20913   3.525   5.174  10.626  1.9865 -0.1135 -0.1101
  896MOL0     H20914   3.714   5.324  10.750  1.9270 -0.1679 -3.4227
  896MOL0     H20915   3.729   5.175  10.838  1.0796 -0.1094 -0.1080
  896MOL0     H20916   3.717   5.175  10.536  0.8976  1.6943  0.4438
  896MOL0     H20917   3.734   5.026  10.629 -3.5006  0.7836 -2.7487
  896MOL0     H20918   3.934   5.247  10.672  0.5545  0.7801 -2.6354
  896MOL0     H20919   3.962   5.108  10.556 -1.0857 -0.9321  0.1510
  896MOL0     H20920   4.171   5.014  10.613 -0.0758 -3.6812  0.0919
  896MOL0     H20921   4.391   5.000  10.721 -0.4151 -2.2461  0.4658
  896MOL0     H20922   4.815   5.064  10.852 -0.6057 -0.6196 -0.9845
  896MOL0     H20923   5.027   4.942  10.954 -1.3822  1.3357  3.0337
  896MOL0     H20924   4.983   4.684  11.261  0.5243  1.2893 -1.4925
  896MOL0     H20925   4.947   4.546  11.148 -3.8546  1.8325  1.5859
  896MOL0     H20926   5.208   4.684  11.235 -1.2975  0.6322  0.0246
  896MOL0     H20927   5.171   4.529  11.277 -0.3408  2.2148  2.1564
  896MOL0     H20928   5.185   4.462  11.035  1.1872 -0.6139  0.8548
  896MOL0     H20929   5.238   4.631  11.004  0.5306  0.7179  1.5292
  896MOL0     H20930   5.359   4.450  11.223 -0.1578  1.7782  1.5719
  896MOL0     H20931   5.423   4.602  11.177 -0.6758  1.4742 -1.6231
  896MOL0     H20932   5.489   4.527  10.956 -2.5581  1.3369  0.6813
  896MOL0     H20933   5.409   4.379  10.973 -1.3031  0.9725 -0.2172
  896MOL0     H20934   5.631   4.484  11.157  4.5596 -1.1349 -1.0590
  896MOL0     H20935   5.570   4.321  11.183  2.8653 -0.7681 -0.8515
  896MOL0     H20936   5.723   4.426  10.940  0.1432 -0.4735 -1.5067
  896MOL0     H20937   5.631   4.264  10.952 -0.0403 -0.7867  2.2166
  896MOL0     H20938   5.768   4.189  11.130 -1.1578  2.6673  2.9416
  896MOL0     H20939   5.875   4.226  10.997  0.7936  0.6138  0.0365
  896MOL0     H20940   4.764   4.639  11.081 -0.6518 -0.3738 -0.6725
  896MOL0     H20941   4.570   4.791  11.059  0.1390  0.3098 -0.3780
  896MOL0     H20942   4.206   5.113  11.096 -4.0859  1.2702 -0.2223
  896MOL0     H20943   4.000   5.092  10.994 -1.2640  2.5310 -0.8097
  896MOL0     H20944   2.168   5.401  11.329  0.0426  1.2763  0.9993
  896MOL0     H20945   1.938   5.458  11.298  0.1588  0.8557  0.2641
  896MOL0     H20946   1.461   5.357  11.199 -1.3485  1.4302 -0.1825
  896MOL0     H20947   1.265   5.472  11.250 -1.3559  1.6553 -1.7597
  896MOL0     H20948   1.297   5.890  11.376  0.3113 -0.0593  0.7637
  896MOL0     H20949   1.154   5.854  11.450  3.5396  2.7494  1.9084
  896MOL0     H20950   1.037   5.876  11.236 -0.7937  1.1349  0.3685
  896MOL0     H20951   1.189   5.927  11.165  2.1932 -0.5446  0.4290
  896MOL0     H20952   1.203   6.123  11.338  1.2968  0.0758 -1.3720
  896MOL0     H20953   1.047   6.081  11.397 -0.7830  1.0332 -1.3317
  896MOL0     H20954   0.978   6.108  11.142 -3.8241  1.2475  3.3526
  896MOL0     H20955   0.956   6.215  11.262 -2.0959  0.9684 -2.5944
  896MOL0     H20956   1.266   6.364  10.994  1.5778  0.9231  0.7443
  896MOL0     H20957   1.450   5.850  11.234  1.4308 -0.3279 -3.9451
  896MOL0     H20958   1.765   5.765  11.251 -1.6100 -2.4208  0.7665
  896MOL0     H20959   1.735   5.761  11.079  3.0825 -1.3894  1.9515
  896MOL0     H20960   1.656   5.882  11.182 -2.8204 -1.1911  3.0095
  897MOL0     O20961   0.483   8.341   6.872 -0.2390 -0.5745  0.6265
  897MOL0     C20962   0.474   8.392   6.760 -0.1116 -0.4671 -0.5768
  897MOL0     O20963   0.450   8.528   6.741  0.5668 -0.2284  1.0289
  897MOL0     C20964   0.387   8.613   6.834 -0.2277  1.1425  0.8889
  897MOL0     C20965   0.454   8.728   6.885  0.7441  0.2851  0.2094
  897MOL0     C20966   0.390   8.805   6.971 -0.2917 -0.4524  0.8763
  897MOL0     C20967   0.262   8.775   7.012  0.6226  0.6698  0.5108
  897MOL0     O20968   0.181   8.848   7.097  0.7218 -0.4738  0.0872
  897MOL0     C20969   0.238   8.961   7.155 -0.6380  0.0286  0.1805
  897MOL0     C20970   0.147   9.036   7.248  1.2409 -0.4309  0.2945
  897MOL0     C20971   0.227   9.137   7.325 -0.6825 -0.1437  0.2377
  897MOL0     C20972   0.156   9.168   7.464  0.2322  0.4543  0.1021
  897MOL0     C20973   0.235   9.265   7.547  0.7447  0.1429  1.2538
  897MOL0     C20974   0.145   9.295   7.674 -0.1133 -0.1051  0.5886
  897MOL0     C20975   0.227   9.338   7.795  0.3789 -0.8814  0.2014
  897MOL0     C20976   0.303   9.471   7.767 -0.8860  0.1600 -0.5711
  897MOL0     N20977   0.210   9.585   7.740 -0.8543 -0.6398 -0.3868
  897MOL0     C20978   0.156   9.636   7.625 -0.3831 -0.4590 -0.2263
  897MOL0     C20979   0.066   9.731   7.667 -0.4045 -0.3448 -0.1998
  897MOL0     C20980  -0.032   9.798   7.583  0.9715 -0.7980  0.2841
  897MOL0     C20981  -0.103   9.703   7.494  0.1671 -0.2841 -0.1120
  897MOL0     C20982  -0.187   9.595   7.561 -0.2574 -0.3249 -0.1610
  897MOL0     C20983  -0.189   9.469   7.466 -0.1356 -0.8054  0.2032
  897MOL0     O20984  -0.255   9.363   7.539  0.3548 -0.0879 -0.3200
  897MOL0     C20985  -0.376   9.350   7.483  0.6194 -0.0492 -0.8953
  897MOL0     C20986  -0.399   9.259   7.378 -0.7831 -0.0736 -0.8044
  897MOL0     C20987  -0.528   9.246   7.321  0.6188  0.3505  0.6059
  897MOL0     C20988  -0.642   9.311   7.372 -0.4293  0.4389 -0.3179
  897MOL0     C20989  -0.773   9.306   7.317  0.3024  0.6106 -0.3486
  897MOL0     O20990  -0.861   9.410   7.356  0.0621  1.3680 -0.5260
  897MOL0     C20991  -0.983   9.429   7.289  0.3497 -0.0276 -0.2377
  897MOL0     C20992  -1.088   9.487   7.365  0.3767 -0.6519  0.2591
  897MOL0     C20993  -1.212   9.511   7.303  0.8812 -0.0203 -0.6483
  897MOL0     C20994  -1.243   9.476   7.171  0.5245  0.4011 -0.5531
  897MOL0     O20995  -1.369   9.509   7.119  0.3456  0.5586 -0.4786
  897MOL0     C20996  -1.375   9.536   6.969 -0.0359 -0.5789 -1.1283
  897MOL0     C20997  -1.518   9.567   6.925 -0.3851 -0.4974 -0.5065
  897MOL0     C20998  -1.550   9.696   6.996  0.9693 -0.8964  0.7576
  897MOL0     C20999  -1.667   9.765   6.935 -0.8523  0.0001  0.1897
  897MOL0     C21000  -1.722   9.884   7.027 -0.4892  0.0988 -0.3444
  897MOL0     C21001  -1.633  10.013   7.036  0.1933 -0.3158  0.1745
  897MOL0     C21002  -1.710  10.138   7.074  0.8237 -0.7102 -0.5856
  897MOL0     C21003  -1.622  10.265   7.101  0.4785  0.0613 -0.4347
  897MOL0    Cl21004  -1.712  10.414   7.056  0.0687  0.4372 -0.3207
  897MOL0     C21005  -1.138   9.430   7.093 -0.1559 -0.1164 -0.2607
  897MOL0     C21006  -1.008   9.408   7.153 -1.5193 -1.0034  0.5382
  897MOL0     O21007  -0.800   9.215   7.237  0.0169  0.1476  0.5002
  897MOL0     C21008  -0.620   9.386   7.487 -0.3493 -0.2915  0.5932
  897MOL0     C21009  -0.495   9.410   7.544  0.6805 -0.7118 -0.1290
  897MOL0     N21010   0.068   9.740   7.806 -0.2252 -0.6024  0.4635
  897MOL0     N21011   0.147   9.647   7.844 -0.2808  0.2939 -0.2106
  897MOL0     C21012   0.198   8.665   6.954 -1.0807  0.1357  0.4158
  897MOL0     C21013   0.266   8.569   6.869 -0.4980  0.1103 -0.3143
  897MOL0     C21014   0.494   8.309   6.639  0.6095  0.2412  0.6017
  897MOL0     C21015   0.446   8.368   6.517 -0.4093 -0.6708 -0.3363
  897MOL0     C21016   0.445   8.301   6.395  0.0950  0.5611 -0.1279
  897MOL0     C21017   0.494   8.167   6.386 -0.4002 -0.0538 -0.6327
  897MOL0     O21018   0.495   8.085   6.270  0.4224  0.4279 -0.1716
  897MOL0     C21019   0.426   8.124   6.157  0.6035 -0.8363 -0.1222
  897MOL0     C21020   0.391   8.004   6.082  0.0029  0.0867  0.0131
  897MOL0     C21021   0.317   7.890   6.148 -0.3404 -0.0161 -0.1319
  897MOL0     C21022   0.263   7.776   6.050  1.3382  0.2309 -0.0351
  897MOL0     C21023   0.366   7.695   5.995 -0.5285  0.0880 -1.2105
  897MOL0     C21024   0.449   7.630   5.944 -0.9713 -0.5106  1.0004
  897MOL0     C21025   0.529   8.109   6.507  1.2249 -0.6634  0.1328
  897MOL0     C21026   0.534   8.174   6.633  0.7802 -0.9397 -0.2516
  897MOL0     C21027   0.553   8.069   6.751 -0.6336 -1.3103  0.7628
  897MOL0     H21028   0.557   8.757   6.864  0.7696 -0.4165 -0.6813
  897MOL0     H21029   0.444   8.892   7.006  1.4600 -1.1002 -0.1238
  897MOL0     H21030   0.321   8.925   7.216 -1.9062  0.6664  2.3707
  897MOL0     H21031   0.273   9.027   7.074 -0.0621 -1.3419 -0.7183
  897MOL0     H21032   0.092   8.969   7.314  0.6119  0.0950  0.3156
  897MOL0     H21033   0.076   9.081   7.177  1.5441 -0.3542  0.0350
  897MOL0     H21034   0.222   9.229   7.266 -4.4365  0.8481  1.8245
  897MOL0     H21035   0.331   9.110   7.346 -0.9711 -1.3198  0.2094
  897MOL0     H21036   0.051   9.193   7.447 -0.1013 -0.3874  0.8482
  897MOL0     H21037   0.166   9.081   7.529  3.9829  0.4852 -0.2053
  897MOL0     H21038   0.334   9.236   7.582  1.8581 -1.4163 -2.5981
  897MOL0     H21039   0.270   9.350   7.488 -0.6478  0.5948  1.0445
  897MOL0     H21040   0.061   9.358   7.646 -1.5510 -1.6839  1.1801
  897MOL0     H21041   0.099   9.200   7.702  2.7999 -1.2225  2.0338
  897MOL0     H21042   0.291   9.252   7.816  0.6916 -0.3208  1.6811
  897MOL0     H21043   0.157   9.348   7.879 -0.7692  1.5882 -0.9371
  897MOL0     H21044   0.366   9.496   7.853 -1.1625  2.9783 -1.0877
  897MOL0     H21045   0.365   9.455   7.679 -0.1307 -0.0083 -0.0105
  897MOL0     H21046   0.176   9.587   7.531  1.6954  2.5073 -1.4845
  897MOL0     H21047  -0.093   9.863   7.645 -0.0637 -2.0484  0.6182
  897MOL0     H21048   0.025   9.859   7.512  0.5542  0.8244  1.2934
  897MOL0     H21049  -0.175   9.771   7.446 -0.2721 -0.3789  0.4032
  897MOL0     H21050  -0.035   9.661   7.420  1.0528 -0.6531  0.8986
  897MOL0     H21051  -0.285   9.644   7.564 -0.4483 -0.6798 -0.4522
  897MOL0     H21052  -0.141   9.561   7.654  0.8129 -1.5691 -1.1098
  897MOL0     H21053  -0.086   9.434   7.460  0.4299  1.0446 -3.2797
  897MOL0     H21054  -0.232   9.484   7.366 -1.7600 -2.3557  0.6082
  897MOL0     H21055  -0.310   9.210   7.340  0.8961  2.0251  0.2042
  897MOL0     H21056  -0.541   9.196   7.226  1.4900  0.2671  0.5201
  897MOL0     H21057  -1.087   9.515   7.470 -1.1714  1.9987 -0.3400
  897MOL0     H21058  -1.300   9.547   7.356 -1.8656 -0.3851 -4.5061
  897MOL0     H21059  -1.305   9.618   6.954 -0.2678 -0.3283 -0.8522
  897MOL0     H21060  -1.343   9.450   6.909  0.5717  0.0412 -1.7124
  897MOL0     H21061  -1.518   9.567   6.815 -2.6276 -1.0342 -0.5538
  897MOL0     H21062  -1.591   9.501   6.972 -2.2537  0.4498 -1.9467
  897MOL0     H21063  -1.562   9.689   7.104 -1.3332  0.7809  0.6632
  897MOL0     H21064  -1.473   9.769   6.968 -0.8730  1.0879  0.6523
  897MOL0     H21065  -1.744   9.687   6.927 -0.3459 -0.3333 -2.0099
  897MOL0     H21066  -1.651   9.806   6.835 -2.1500 -1.1340 -0.5208
  897MOL0     H21067  -1.731   9.861   7.134 -2.7806  2.4050  0.0821
  897MOL0     H21068  -1.822   9.908   6.989 -1.5941 -0.4331  2.0021
  897MOL0     H21069  -1.549   9.992   7.102 -1.8147  1.4812  3.5869
  897MOL0     H21070  -1.595  10.024   6.934  1.0945 -0.5636  0.4766
  897MOL0     H21071  -1.757  10.109   7.168  2.4050 -0.1567  0.4017
  897MOL0     H21072  -1.799  10.154   7.012 -0.9372  1.2877  2.2317
  897MOL0     H21073  -1.600  10.270   7.209 -0.6705  3.6542 -0.2402
  897MOL0     H21074  -1.521  10.270   7.058 -0.1141 -1.3029 -2.0971
  897MOL0     H21075  -1.145   9.424   6.985 -0.0182  2.3692 -0.4615
  897MOL0     H21076  -0.943   9.365   7.077  2.1777  1.6042  1.9264
  897MOL0     H21077  -0.698   9.445   7.535 -1.2015 -1.9831  1.3766
  897MOL0     H21078  -0.483   9.479   7.627  2.5037 -0.8988 -0.2168
  897MOL0     H21079   0.095   8.638   6.977 -0.0663 -2.9259  1.8794
  897MOL0     H21080   0.232   8.481   6.815  0.1277 -0.1209 -0.3358
  897MOL0     H21081   0.398   8.465   6.522 -1.9710 -1.4362  0.0955
  897MOL0     H21082   0.408   8.343   6.303 -0.8909  0.8377  0.3837
  897MOL0     H21083   0.480   8.201   6.101  1.6489 -1.0013  0.6225
  897MOL0     H21084   0.335   8.181   6.178  1.5531  0.3399  0.9940
  897MOL0     H21085   0.491   7.969   6.055 -0.0108 -0.1631  0.2749
  897MOL0     H21086   0.344   8.030   5.987  0.1815 -1.7237 -0.6196
  897MOL0     H21087   0.233   7.925   6.208  1.7678 -0.1507  3.1199
  897MOL0     H21088   0.382   7.832   6.215  0.0683 -3.8844 -3.4308
  897MOL0     H21089   0.206   7.703   6.109  0.7056  1.6763  1.2199
  897MOL0     H21090   0.201   7.822   5.973  1.9640  5.1054  2.0144
  897MOL0     H21091   0.533   7.572   5.910 -0.4613  1.0863 -0.5949
  897MOL0     H21092   0.546   8.003   6.497 -1.8912 -1.2227 -0.2140
  897MOL0     H21093   0.452   8.035   6.777 -1.2324 -1.3131 -1.4040
  897MOL0     H21094   0.615   7.987   6.714  0.0634 -0.6558  0.4570
  897MOL0     H21095   0.609   8.106   6.838  0.4587 -0.7197 -0.1606
  898MOL0     O21096   9.808   0.031  10.444  1.1729  0.3573 -0.1512
  898MOL0     C21097   9.873   0.038  10.548 -0.4301 -0.0452  0.4427
  898MOL0     O21098   9.937  -0.068  10.600  0.8135 -0.4134  0.3976
  898MOL0     C21099   9.959  -0.184  10.531 -1.0150 -0.1454  0.2844
  898MOL0     C21100  10.012  -0.200  10.399  0.3697 -0.2612 -0.1936
  898MOL0     C21101  10.052  -0.332  10.349 -0.1593  0.1909 -0.1672
  898MOL0     C21102  10.034  -0.442  10.427 -0.2368 -0.6566  0.1421
  898MOL0     O21103  10.066  -0.566  10.388  0.0270  0.3176  0.0160
  898MOL0     C21104  10.145  -0.593  10.269 -0.5101  0.3497  0.1414
  898MOL0     C21105  10.300  -0.586  10.299 -0.5790 -0.1863 -0.9598
  898MOL0     C21106  10.340  -0.679  10.416 -0.4230 -0.4453  0.3619
  898MOL0     C21107  10.480  -0.741  10.385 -0.4357 -0.2369  0.1741
  898MOL0     C21108  10.540  -0.808  10.515 -0.8357  0.6545 -0.2916
  898MOL0     C21109  10.431  -0.900  10.585  0.1240 -0.2731  0.9513
  898MOL0     C21110  10.470  -0.961  10.719 -0.1039  1.2703 -0.5229
  898MOL0     C21111  10.374  -1.079  10.765  0.0355  0.3979 -0.4629
  898MOL0     N21112  10.339  -1.192  10.670  0.1173 -0.1466  0.5511
  898MOL0     C21113  10.420  -1.307  10.661 -0.1300 -0.7605  0.1319
  898MOL0     C21114  10.352  -1.388  10.580 -0.1987 -0.0877 -0.3225
  898MOL0     C21115  10.367  -1.537  10.546 -1.0849  0.4616  0.3273
  898MOL0     C21116  10.462  -1.560  10.432 -0.3062  0.2752  0.1589
  898MOL0     C21117  10.451  -1.467  10.316 -0.6965 -1.0045  0.9812
  898MOL0     C21118  10.559  -1.497  10.211 -1.7158  0.9090 -0.0216
  898MOL0     O21119  10.532  -1.433  10.089 -0.5117  1.0406  1.0315
  898MOL0     C21120  10.583  -1.307  10.061 -0.5854 -1.0517  0.2608
  898MOL0     C21121  10.660  -1.222  10.134  0.3508 -0.7877 -0.1538
  898MOL0     C21122  10.684  -1.082  10.097 -0.9896 -0.0099  0.7091
  898MOL0     C21123  10.636  -1.039   9.967 -0.8702 -0.2959 -0.0191
  898MOL0     C21124  10.694  -0.918   9.911  0.4298  0.2953 -0.5777
  898MOL0     O21125  10.664  -0.887   9.783 -0.1026  1.0816 -0.5711
  898MOL0     C21126  10.688  -0.762   9.740 -0.5727  0.0287 -0.0672
  898MOL0     C21127  10.808  -0.682   9.761  0.7852  0.7309  0.0927
  898MOL0     C21128  10.816  -0.551   9.712  0.1280 -0.2975  0.1892
  898MOL0     C21129  10.709  -0.500   9.645  0.0226  0.2861 -0.3902
  898MOL0     O21130  10.732  -0.369   9.602  0.1764  0.0433  0.3184
  898MOL0     C21131  10.653  -0.269   9.673  0.1222  0.8246 -0.4879
  898MOL0     C21132  10.679  -0.129   9.624 -0.0514 -0.0950  0.1542
  898MOL0     C21133  10.601  -0.042   9.733 -0.0808 -1.4625  0.0161
  898MOL0     C21134  10.639   0.104   9.713  0.1619  0.4481  0.3018
  898MOL0     C21135  10.588   0.191   9.827 -0.2757 -0.3059  0.1412
  898MOL0     C21136  10.665   0.169   9.953 -0.4318 -0.5341 -0.3256
  898MOL0     C21137  10.615   0.258  10.062 -0.4112  0.8371 -1.3329
  898MOL0     C21138  10.626   0.411  10.063  0.9838 -0.2311  0.5756
  898MOL0    Cl21139  10.595   0.480  10.226 -0.3895 -0.1283  0.4996
  898MOL0     C21140  10.595  -0.567   9.619 -0.6147 -0.9687 -0.9943
  898MOL0     C21141  10.584  -0.701   9.669  0.0846  0.1160 -0.7423
  898MOL0     O21142  10.751  -0.843   9.990  0.0586 -0.6103 -0.1951
  898MOL0     C21143  10.561  -1.134   9.894 -1.2923 -0.1287  0.8171
  898MOL0     C21144  10.541  -1.267   9.943  0.0017 -0.5900 -0.2444
  898MOL0     N21145  10.243  -1.323  10.545  0.1732 -0.1666 -0.0145
  898MOL0     N21146  10.229  -1.201  10.585  0.3406  0.3443 -0.3409
  898MOL0     C21147   9.988  -0.425  10.560 -1.3826  0.0268 -0.2408
  898MOL0     C21148   9.961  -0.306  10.616  1.1714 -1.0311  0.8787
  898MOL0     C21149   9.861   0.157  10.644 -0.3559  0.2970  0.2953
  898MOL0     C21150   9.862   0.281  10.581  0.5845 -0.0886 -0.0012
  898MOL0     C21151   9.851   0.396  10.648 -0.2527  0.2946  0.1340
  898MOL0     C21152   9.813   0.399  10.786  0.1653 -0.8961 -0.2491
  898MOL0     O21153   9.798   0.526  10.847 -0.6755  0.5228 -0.2491
  898MOL0     C21154   9.798   0.530  10.987  0.0488 -0.2393 -0.9679
  898MOL0     C21155   9.749   0.667  11.042  0.1579  0.7670  0.8638
  898MOL0     C21156   9.754   0.681  11.197 -0.1632  0.5566  0.5985
  898MOL0     C21157   9.731   0.825  11.238 -0.0631 -0.3373  1.0764
  898MOL0     C21158   9.593   0.853  11.271 -0.6462 -0.2060 -0.3755
  898MOL0     C21159   9.473   0.859  11.318 -0.3758 -0.0903 -0.4739
  898MOL0     C21160   9.813   0.272  10.852  0.6467  0.5791  0.0381
  898MOL0     C21161   9.832   0.148  10.785 -0.4976 -0.3600  0.5224
  898MOL0     C21162   9.821   0.018  10.872  0.2957 -0.0187  0.2815
  898MOL0     H21163  10.006  -0.118  10.329  0.9118 -0.2412 -0.2267
  898MOL0     H21164  10.100  -0.340  10.252  0.1111 -0.3702  0.0055
  898MOL0     H21165  10.118  -0.695  10.239 -3.2303 -0.1729  3.6506
  898MOL0     H21166  10.129  -0.541  10.175 -2.7691 -2.4876 -1.2247
  898MOL0     H21167  10.319  -0.487  10.341  3.1676 -1.0008 -0.4328
  898MOL0     H21168  10.367  -0.600  10.213  1.0643 -0.3855  0.3157
  898MOL0     H21169  10.260  -0.753  10.425 -0.5435 -1.0201 -3.8022
  898MOL0     H21170  10.356  -0.614  10.503  0.3816  0.8292 -0.6965
  898MOL0     H21171  10.465  -0.812  10.303 -1.5746 -1.9874  1.8088
  898MOL0     H21172  10.540  -0.659  10.344 -1.5505 -1.4102 -4.2633
  898MOL0     H21173  10.635  -0.855  10.487 -2.1890 -3.5590  1.3953
  898MOL0     H21174  10.574  -0.736  10.590  2.4367  1.0390 -1.9561
  898MOL0     H21175  10.338  -0.847  10.611 -2.4854 -2.1038 -3.5346
  898MOL0     H21176  10.396  -0.978  10.516 -0.9100  1.0315 -0.0390
  898MOL0     H21177  10.462  -0.891  10.802 -0.5194 -1.4528  1.8734
  898MOL0     H21178  10.571  -1.003  10.710 -0.5824  0.1329 -0.7885
  898MOL0     H21179  10.406  -1.122  10.861  0.8108  2.2908  0.1790
  898MOL0     H21180  10.283  -1.023  10.784 -0.0084  0.5062 -0.9891
  898MOL0     H21181  10.511  -1.324  10.718 -0.9589  1.1425  2.1689
  898MOL0     H21182  10.412  -1.577  10.637 -1.9268 -0.8160  0.1957
  898MOL0     H21183  10.269  -1.584  10.534  0.1292 -1.7972 -1.4457
  898MOL0     H21184  10.565  -1.544  10.463 -0.1075  0.7167 -0.6964
  898MOL0     H21185  10.469  -1.665  10.402  0.9110  1.2439 -3.4642
  898MOL0     H21186  10.468  -1.363  10.346  1.3575 -1.5927  2.0449
  898MOL0     H21187  10.351  -1.473  10.271 -0.1717 -0.0989 -0.3598
  898MOL0     H21188  10.567  -1.604  10.189 -0.9429  0.5640  1.7434
  898MOL0     H21189  10.659  -1.476  10.250 -0.1524  1.7059 -3.9642
  898MOL0     H21190  10.705  -1.255  10.227  0.2275  0.3841  0.3465
  898MOL0     H21191  10.739  -1.024  10.171 -2.3917  0.3138  1.5302
  898MOL0     H21192  10.892  -0.712   9.824  1.9046  2.1437 -0.6787
  898MOL0     H21193  10.902  -0.485   9.715  0.7654 -0.7932 -3.2013
  898MOL0     H21194  10.546  -0.289   9.660 -0.1458  1.8352  0.0188
  898MOL0     H21195  10.657  -0.278   9.782  2.6945  0.5911 -0.5480
  898MOL0     H21196  10.786  -0.111   9.631 -0.3744  1.5068  1.4254
  898MOL0     H21197  10.613  -0.123   9.536 -0.9808 -2.0936  0.6541
  898MOL0     H21198  10.493  -0.044   9.714  0.2389  2.0895 -3.5080
  898MOL0     H21199  10.626  -0.070   9.835 -1.0120  1.4311  1.1158
  898MOL0     H21200  10.585   0.141   9.625  0.3170  3.9923  1.5418
  898MOL0     H21201  10.747   0.117   9.705  1.0055 -4.3919  0.6662
  898MOL0     H21202  10.481   0.182   9.846 -0.3402 -0.2451 -0.1949
  898MOL0     H21203  10.606   0.294   9.793 -1.7074 -0.6452 -1.7942
  898MOL0     H21204  10.663   0.064   9.985 -0.2721  0.4117  3.1773
  898MOL0     H21205  10.772   0.195   9.956 -0.5673 -0.0075  0.2440
  898MOL0     H21206  10.670   0.220  10.148 -0.6970  3.2379  0.0170
  898MOL0     H21207  10.509   0.235  10.077 -0.5904  0.7867 -2.5848
  898MOL0     H21208  10.727   0.442  10.035  1.3663  0.4234  2.5456
  898MOL0     H21209  10.553   0.453   9.993  2.5528  1.2747 -0.2366
  898MOL0     H21210  10.522  -0.520   9.554  2.4880  2.0028 -2.6085
  898MOL0     H21211  10.490  -0.751   9.644 -0.0689  0.5019 -0.9455
  898MOL0     H21212  10.551  -1.116   9.788  4.0971  1.0526  0.2160
  898MOL0     H21213  10.484  -1.341   9.887  0.9244  0.7453 -3.1740
  898MOL0     H21214   9.978  -0.512  10.625 -0.4102  2.1588  3.0299
  898MOL0     H21215   9.942  -0.286  10.721  1.7374  0.9648  0.6276
  898MOL0     H21216   9.898   0.286  10.478 -0.9876  1.2186 -0.5333
  898MOL0     H21217   9.856   0.493  10.600 -0.8439  0.7891  1.0428
  898MOL0     H21218   9.894   0.502  11.031 -2.1019 -1.8001  3.3534
  898MOL0     H21219   9.737   0.449  11.028  0.7292  0.1361  0.8945
  898MOL0     H21220   9.651   0.684  10.995  0.5228  0.9063  0.1492
  898MOL0     H21221   9.818   0.737  10.994 -0.4660 -0.3734 -1.8912
  898MOL0     H21222   9.849   0.645  11.237 -0.3803 -1.9288 -0.9497
  898MOL0     H21223   9.672   0.622  11.238 -1.6498 -0.0890 -2.9083
  898MOL0     H21224   9.790   0.857  11.324 -0.5488  3.6347  0.1594
  898MOL0     H21225   9.763   0.893  11.157  1.6952 -2.2573  0.0816
  898MOL0     H21226   9.372   0.849  11.354  0.0697 -1.8960  0.3905
  898MOL0     H21227   9.800   0.264  10.959 -1.4087 -0.5485 -0.2435
  898MOL0     H21228   9.741   0.012  10.947  0.4873  2.0036  0.6978
  898MOL0     H21229   9.798  -0.064  10.803  0.9003  0.5879 -0.6660
  898MOL0     H21230   9.918   0.006  10.920  0.7482 -0.1891 -0.6514
  899MOL0     O21231   9.370   0.737   4.993  0.0012  0.2773  0.2108
  899MOL0     C21232   9.307   0.655   4.930  0.0388  0.3632 -0.3132
  899MOL0     O21233   9.371   0.538   4.881  0.2805  0.4366 -0.2116
  899MOL0     C21234   9.499   0.534   4.896  0.5532  0.7287  0.1867
  899MOL0     C21235   9.590   0.573   4.805  0.0531  0.3222  0.4355
  899MOL0     C21236   9.729   0.569   4.829 -0.1522  0.1386 -0.6198
  899MOL0     C21237   9.774   0.517   4.956 -0.6172 -0.0150 -0.3421
  899MOL0     O21238   9.899   0.500   4.996 -0.2378 -0.2227  0.0366
  899MOL0     C21239  10.003   0.552   4.910  0.1795 -0.1595  0.0991
  899MOL0     C21240  10.141   0.508   4.974 -0.2403 -0.1477  0.6540
  899MOL0     C21241  10.176   0.590   5.112  1.0691  0.1147  0.4657
  899MOL0     C21242  10.272   0.504   5.198  0.2413 -0.1553  0.0064
  899MOL0     C21243  10.397   0.442   5.130  0.5602 -0.9117  0.6544
  899MOL0     C21244  10.452   0.331   5.216  0.6185  0.8463  0.1687
  899MOL0     C21245  10.483   0.356   5.350  0.0225 -0.8572 -0.7791
  899MOL0     C21246  10.620   0.302   5.392 -0.2254  0.1932  0.0482
  899MOL0     N21247  10.615   0.159   5.379  0.0646  0.3235 -0.5606
  899MOL0     C21248  10.692   0.069   5.300  0.5294  0.2212 -0.2691
  899MOL0     C21249  10.659  -0.052   5.345  0.6786 -0.1863 -0.2304
  899MOL0     C21250  10.719  -0.182   5.301  0.6688 -0.2176 -0.4097
  899MOL0     C21251  10.629  -0.243   5.190  0.4358  0.2219 -0.0354
  899MOL0     C21252  10.661  -0.390   5.160  0.7185  0.1809  0.0830
  899MOL0     C21253  10.804  -0.424   5.114 -0.2664 -0.7486 -0.0046
  899MOL0     O21254  10.895  -0.415   5.225 -0.3598  0.2945  0.6722
  899MOL0     C21255  11.027  -0.438   5.197 -0.7407 -0.7020 -0.8024
  899MOL0     C21256  11.089  -0.459   5.081  0.1723 -0.4997  0.0021
  899MOL0     C21257  11.227  -0.488   5.075  0.0989 -0.6828 -0.1126
  899MOL0     C21258  11.304  -0.483   5.186 -0.1983  0.7659 -0.1681
  899MOL0     C21259  11.447  -0.519   5.170  0.1954  0.5441 -1.4449
  899MOL0     O21260  11.509  -0.488   5.053  0.4791  0.0267 -0.1348
  899MOL0     C21261  11.638  -0.484   5.057 -0.5844 -0.1455 -0.1745
  899MOL0     C21262  11.720  -0.600   5.071  0.2961  0.0213  0.2653
  899MOL0     C21263  11.860  -0.586   5.051 -0.5413  0.5778 -0.5273
  899MOL0     C21264  11.913  -0.454   5.019 -0.0331  0.8318 -0.1956
  899MOL0     O21265  12.044  -0.429   4.981  0.1662 -0.5457 -0.8633
  899MOL0     C21266  12.130  -0.537   4.982  0.4005  0.2373  0.2253
  899MOL0     C21267  12.267  -0.475   4.995  0.4425  0.0971 -0.9033
  899MOL0     C21268  12.388  -0.572   5.017  1.4308  0.1109  0.2388
  899MOL0     C21269  12.440  -0.643   4.894  0.4103 -0.1339  0.7797
  899MOL0     C21270  12.523  -0.553   4.776  0.5869  0.0042 -0.6415
  899MOL0     C21271  12.509  -0.610   4.630  0.9199  0.3095 -0.2154
  899MOL0     C21272  12.562  -0.519   4.519  0.1866  0.0870 -0.4747
  899MOL0     C21273  12.480  -0.536   4.390 -0.5599  1.0624  0.5319
  899MOL0    Cl21274  12.560  -0.458   4.248  0.0098  0.3771  0.1689
  899MOL0     C21275  11.824  -0.345   5.032 -0.1359  0.2846  0.8701
  899MOL0     C21276  11.691  -0.358   5.036 -0.0798  0.5326  0.6632
  899MOL0     O21277  11.501  -0.572   5.272 -0.6119 -0.3674 -0.3921
  899MOL0     C21278  11.246  -0.460   5.311 -1.1218  0.1645 -0.2117
  899MOL0     C21279  11.107  -0.455   5.315  0.1575 -0.3471  0.1947
  899MOL0     N21280  10.563  -0.047   5.445  0.3501 -0.5878  0.5265
  899MOL0     N21281  10.537   0.080   5.457 -0.6278 -0.6629 -0.0723
  899MOL0     C21282   9.674   0.475   5.046  0.7360 -0.2056  0.3347
  899MOL0     C21283   9.542   0.473   5.016 -0.2837  0.5017 -1.1003
  899MOL0     C21284   9.162   0.684   4.916  0.4471  0.6715 -0.8043
  899MOL0     C21285   9.109   0.817   4.951 -0.0974 -0.3168 -0.0219
  899MOL0     C21286   8.967   0.846   4.957 -0.4583 -0.0363  0.3045
  899MOL0     C21287   8.873   0.746   4.929  0.1849  0.3095 -0.3201
  899MOL0     O21288   8.736   0.770   4.936 -0.3301 -0.2578  0.0710
  899MOL0     C21289   8.686   0.876   4.851 -0.8049  0.5063  1.1087
  899MOL0     C21290   8.540   0.899   4.874  0.0152 -0.0168  0.3931
  899MOL0     C21291   8.518   0.929   5.022  0.0394  0.5402  0.3971
  899MOL0     C21292   8.595   1.051   5.053 -0.6662 -0.8570 -0.5526
  899MOL0     C21293   8.546   1.107   5.179 -1.2681 -0.5142 -1.6023
  899MOL0     C21294   8.499   1.137   5.287 -0.2536 -0.2871  1.4343
  899MOL0     C21295   8.923   0.623   4.878  0.1154 -0.4775  0.6288
  899MOL0     C21296   9.059   0.589   4.885 -0.6168  0.3602  0.2911
  899MOL0     C21297   9.098   0.455   4.823  0.1087 -0.4586  0.1582
  899MOL0     H21298   9.545   0.622   4.719 -1.7514 -0.9177  0.6319
  899MOL0     H21299   9.798   0.611   4.757 -0.0930  3.5751  1.2448
  899MOL0     H21300   9.992   0.492   4.819  1.3761  0.3590 -0.4152
  899MOL0     H21301   9.996   0.661   4.897  0.2270 -0.2714 -0.9581
  899MOL0     H21302  10.226   0.501   4.905  0.9786 -0.1956  2.0915
  899MOL0     H21303  10.136   0.403   5.005 -0.6848 -1.4352 -3.2902
  899MOL0     H21304  10.085   0.616   5.166 -0.9254 -0.9771 -2.1476
  899MOL0     H21305  10.225   0.687   5.097  3.1804 -1.1112 -1.2806
  899MOL0     H21306  10.309   0.566   5.281  1.9988 -0.7472 -0.2844
  899MOL0     H21307  10.212   0.429   5.251 -0.7296  2.2957  2.6515
  899MOL0     H21308  10.375   0.405   5.030  2.9828 -1.5119  0.2655
  899MOL0     H21309  10.477   0.514   5.111  0.0734 -1.0746 -2.4313
  899MOL0     H21310  10.375   0.255   5.229  2.6234 -0.9366  2.5330
  899MOL0     H21311  10.537   0.290   5.160  1.3680  0.7882  1.3259
  899MOL0     H21312  10.408   0.320   5.421 -0.0068 -0.9742 -0.8699
  899MOL0     H21313  10.496   0.464   5.364  2.1228 -0.8749 -2.1711
  899MOL0     H21314  10.692   0.335   5.317 -1.2779 -0.7565 -1.4482
  899MOL0     H21315  10.648   0.342   5.490 -0.7174  1.2724 -0.2357
  899MOL0     H21316  10.780   0.086   5.239 -0.0334  3.0161 -0.4211
  899MOL0     H21317  10.825  -0.177   5.276  1.1007  1.2505  1.4878
  899MOL0     H21318  10.732  -0.247   5.388 -0.5404  0.4112  0.2671
  899MOL0     H21319  10.531  -0.240   5.237 -0.3624  0.1302 -1.6253
  899MOL0     H21320  10.633  -0.195   5.092  0.5704 -0.7540 -0.5220
  899MOL0     H21321  10.583  -0.419   5.089 -0.3256 -0.2382  1.3600
  899MOL0     H21322  10.639  -0.452   5.247 -0.9735 -2.6211 -2.1819
  899MOL0     H21323  10.833  -0.362   5.029  0.6141 -1.3662 -0.1693
  899MOL0     H21324  10.812  -0.528   5.081  0.0951 -1.6532  2.6639
  899MOL0     H21325  11.043  -0.446   4.984 -0.9468 -1.7069  0.3416
  899MOL0     H21326  11.263  -0.499   4.973  1.0828 -1.4038  0.3046
  899MOL0     H21327  11.661  -0.689   5.088 -2.6476  1.5843 -0.9875
  899MOL0     H21328  11.925  -0.673   5.060  0.9084  1.3428 -2.9252
  899MOL0     H21329  12.127  -0.592   5.076  1.7428  0.5057  0.4313
  899MOL0     H21330  12.120  -0.612   4.902  2.1080 -1.4479  1.5016
  899MOL0     H21331  12.291  -0.422   4.902 -0.6489  2.3933  0.0395
  899MOL0     H21332  12.269  -0.410   5.084 -0.7574 -1.2191  0.1246
  899MOL0     H21333  12.474  -0.513   5.050  0.6519  0.5139  1.6403
  899MOL0     H21334  12.364  -0.650   5.090  0.5788  0.0737 -0.0770
  899MOL0     H21335  12.359  -0.704   4.853  0.9638 -0.7568  0.5981
  899MOL0     H21336  12.510  -0.720   4.928  0.1425 -0.5661  0.3598
  899MOL0     H21337  12.630  -0.569   4.792  1.0816  0.5915 -3.0309
  899MOL0     H21338  12.503  -0.446   4.782 -0.0858 -0.1288 -0.4118
  899MOL0     H21339  12.526  -0.717   4.615 -1.1119  0.1405 -1.7454
  899MOL0     H21340  12.403  -0.590   4.613  0.4381 -1.1513  0.8876
  899MOL0     H21341  12.666  -0.553   4.512  0.6423  1.6108 -2.0066
  899MOL0     H21342  12.573  -0.413   4.545 -0.4165 -0.4003  1.9524
  899MOL0     H21343  12.466  -0.640   4.361 -1.2394  1.3085 -0.0311
  899MOL0     H21344  12.380  -0.494   4.403 -0.5933  0.5846  1.9593
  899MOL0     H21345  11.854  -0.242   5.024 -1.9455  1.0570  3.0487
  899MOL0     H21346  11.635  -0.266   5.037  2.0172  1.9931 -1.8553
  899MOL0     H21347  11.309  -0.465   5.399 -2.3071 -1.1788  0.6042
  899MOL0     H21348  11.040  -0.447   5.400 -2.8152 -1.6316 -1.8616
  899MOL0     H21349   9.702   0.433   5.142  1.2034 -3.3009 -1.0463
  899MOL0     H21350   9.485   0.426   5.096  0.0672  2.5524  0.4213
  899MOL0     H21351   9.174   0.893   4.995 -1.0849  0.2534  0.5099
  899MOL0     H21352   8.933   0.947   4.981 -3.2416  0.0899 -3.2409
  899MOL0     H21353   8.708   0.855   4.746 -2.4450 -0.1284  0.8544
  899MOL0     H21354   8.737   0.971   4.868  0.5717  0.6228 -2.8010
  899MOL0     H21355   8.475   0.816   4.845  0.3682 -0.4253  0.7597
  899MOL0     H21356   8.526   0.989   4.814  2.3221 -0.6760 -1.2932
  899MOL0     H21357   8.553   0.856   5.095  3.8483  3.8427  2.3273
  899MOL0     H21358   8.411   0.945   5.034 -0.7592 -2.6338 -1.5032
  899MOL0     H21359   8.702   1.028   5.063 -1.4636 -4.0177  5.4314
  899MOL0     H21360   8.579   1.131   4.980  2.8098  0.1493 -0.4255
  899MOL0     H21361   8.459   1.146   5.385  1.4145  1.2236  2.0198
  899MOL0     H21362   8.842   0.553   4.856 -1.6028  1.1871  1.3973
  899MOL0     H21363   9.120   0.475   4.718  4.8922 -3.2493  0.3115
  899MOL0     H21364   9.192   0.414   4.861  0.6813  0.9487  0.3166
  899MOL0     H21365   9.017   0.384   4.840 -1.1777  0.9115 -0.0671
  900MOL0     O21366   2.254   5.227   0.009  0.3643  0.7031  0.0315
  900MOL0     C21367   2.277   5.109  -0.012  1.1024 -1.1085  0.6397
  900MOL0     O21368   2.179   5.011  -0.036 -0.4473  0.0957 -0.1361
  900MOL0     C21369   2.039   5.025  -0.035  0.1907  0.8002 -0.3333
  900MOL0     C21370   1.959   4.925   0.015 -0.6963 -0.1052  1.0567
  900MOL0     C21371   1.819   4.931   0.011 -0.7703  0.8934 -0.4144
  900MOL0     C21372   1.755   5.042  -0.034 -0.1974 -0.6598  0.6523
  900MOL0     O21373   1.616   5.044  -0.036 -0.4417 -0.0252 -0.5831
  900MOL0     C21374   1.553   5.103  -0.148  0.2598  0.1072  0.4685
  900MOL0     C21375   1.402   5.125  -0.133  0.7260 -0.6822 -0.9657
  900MOL0     C21376   1.331   5.007  -0.061 -0.1616  0.9890 -0.2638
  900MOL0     C21377   1.182   5.028  -0.020 -0.5658 -0.2963  0.6749
  900MOL0     C21378   1.145   4.993   0.119 -0.3669  0.1662  0.1249
  900MOL0     C21379   1.053   4.871   0.111  0.1855 -0.7769 -0.8439
  900MOL0     C21380   1.038   4.794   0.242 -0.4462  1.3544 -0.1956
  900MOL0     C21381   0.970   4.659   0.230  0.2049 -0.1132  0.6148
  900MOL0     N21382   0.833   4.675   0.211 -0.5700  0.0542 -0.0040
  900MOL0     C21383   0.768   4.622   0.104  0.0072  0.4994 -0.1736
  900MOL0     C21384   0.638   4.671   0.117 -0.1359 -0.7596  0.2567
  900MOL0     C21385   0.513   4.654   0.042 -0.1536  0.8992 -0.4318
  900MOL0     C21386   0.497   4.748  -0.080  0.2356  0.4463  0.1372
  900MOL0     C21387   0.513   4.899  -0.050 -0.5140  0.2557 -0.0395
  900MOL0     C21388   0.420   4.948   0.062 -0.1486  0.1304 -0.4960
  900MOL0     O21389   0.459   5.089   0.064  0.5073  1.0698 -0.2139
  900MOL0     C21390   0.504   5.128   0.184  0.7515  0.1861  0.3976
  900MOL0     C21391   0.633   5.094   0.236 -0.4306  0.0737  0.8738
  900MOL0     C21392   0.664   5.126   0.370 -0.3768 -0.1637  0.6223
  900MOL0     C21393   0.584   5.213   0.443 -0.4628  0.2750  0.2537
  900MOL0     C21394   0.625   5.247   0.575  0.4567 -0.5185  0.7930
  900MOL0     O21395   0.537   5.320   0.648  0.2977  0.7010 -0.0362
  900MOL0     C21396   0.592   5.402   0.745  0.4275  1.0775 -0.1102
  900MOL0     C21397   0.579   5.538   0.725 -0.3064 -0.0161 -0.9455
  900MOL0     C21398   0.625   5.619   0.826 -0.4723  0.5067 -0.1111
  900MOL0     C21399   0.697   5.571   0.941  0.7371  0.5213  0.8395
  900MOL0     O21400   0.752   5.670   1.026  0.3221  0.6002  0.2906
  900MOL0     C21401   0.845   5.629   1.135  0.0756  0.1853 -0.4749
  900MOL0     C21402   0.927   5.742   1.181  0.3306  0.3611 -0.6065
  900MOL0     C21403   1.029   5.792   1.084  0.5530 -0.4606 -0.2470
  900MOL0     C21404   1.133   5.884   1.148  0.2118  0.1887 -0.1719
  900MOL0     C21405   1.254   5.907   1.060  0.4344  0.5463 -1.0541
  900MOL0     C21406   1.228   6.000   0.953 -0.3200  0.0598 -0.6725
  900MOL0     C21407   1.355   6.039   0.881 -0.6249  0.3162 -0.4053
  900MOL0     C21408   1.356   6.141   0.771 -0.0745  0.0794  0.2223
  900MOL0    Cl21409   1.239   6.091   0.647  0.0707  0.2316  0.0296
  900MOL0     C21410   0.703   5.431   0.962  0.0311  0.0660 -1.1521
  900MOL0     C21411   0.643   5.341   0.868  0.0375 -0.0257 -0.3283
  900MOL0     O21412   0.737   5.226   0.606 -0.1331 -0.1004  0.0075
  900MOL0     C21413   0.462   5.256   0.387 -0.2401  0.1773 -0.6931
  900MOL0     C21414   0.416   5.209   0.267 -0.5869  0.5273  0.9194
  900MOL0     N21415   0.634   4.745   0.234 -0.4453  0.6295 -0.3501
  900MOL0     N21416   0.749   4.739   0.293  0.2722 -0.0396  1.1007
  900MOL0     C21417   1.827   5.157  -0.045 -0.2062  0.3878 -0.0922
  900MOL0     C21418   1.971   5.152  -0.046  0.4815  0.4800  0.3722
  900MOL0     C21419   2.414   5.084  -0.035 -0.8396  0.8920 -0.3013
  900MOL0     C21420   2.510   5.175  -0.001 -0.8479 -0.4448  0.7853
  900MOL0     C21421   2.646   5.136   0.012  0.5181 -1.3268 -0.0567
  900MOL0     C21422   2.694   5.007  -0.007 -0.7110  0.5354  0.0244
  900MOL0     O21423   2.823   4.974   0.005  0.9845  0.4305 -0.5175
  900MOL0     C21424   2.922   5.033  -0.088 -0.2357 -0.2564  0.2431
  900MOL0     C21425   2.994   5.151  -0.023 -0.5098 -1.0205 -1.0453
  900MOL0     C21426   3.126   5.106   0.050 -0.2438 -0.6396 -0.6681
  900MOL0     C21427   3.237   5.109  -0.067 -0.0093  0.1838  0.1224
  900MOL0     C21428   3.288   5.241  -0.111  0.8386  0.7967  0.0505
  900MOL0     C21429   3.333   5.328  -0.174  0.3414 -0.1603 -0.1990
  900MOL0     C21430   2.596   4.919  -0.036 -0.6333  0.3665 -0.7415
  900MOL0     C21431   2.464   4.952  -0.052  0.5979 -0.3777 -0.3570
  900MOL0     C21432   2.393   4.830  -0.103 -0.3090  0.4225 -0.8470
  900MOL0     H21433   2.009   4.834   0.047 -1.6775 -1.2805 -0.5948
  900MOL0     H21434   1.759   4.841   0.025  0.8386 -0.8736 -3.6553
  900MOL0     H21435   1.596   5.200  -0.174  0.2090  0.3238  1.1683
  900MOL0     H21436   1.570   5.035  -0.232 -1.4970 -1.9769  1.7036
  900MOL0     H21437   1.365   5.148  -0.233  1.4905 -0.3322 -1.1773
  900MOL0     H21438   1.386   5.219  -0.078 -2.2547 -1.2909 -0.6409
  900MOL0     H21439   1.394   4.988   0.026  0.1089  0.2644 -0.6168
  900MOL0     H21440   1.333   4.927  -0.136 -2.3767 -0.7307  1.3402
  900MOL0     H21441   1.159   5.130  -0.052  1.9959  0.0092 -0.4075
  900MOL0     H21442   1.119   4.970  -0.089  1.2334 -2.4082  0.7124
  900MOL0     H21443   1.221   4.964   0.192  0.3234 -3.5576 -1.8641
  900MOL0     H21444   1.090   5.078   0.161  3.7095  2.1536  2.0116
  900MOL0     H21445   0.959   4.904   0.065 -0.7828 -2.6647 -0.2974
  900MOL0     H21446   1.095   4.803   0.036  4.0506  1.8921 -1.3865
  900MOL0     H21447   0.984   4.859   0.310 -2.8446 -2.6790  2.1914
  900MOL0     H21448   1.132   4.761   0.290 -1.8925 -1.2834  1.0535
  900MOL0     H21449   1.022   4.606   0.149  1.4273  3.5597 -1.2035
  900MOL0     H21450   0.981   4.601   0.322 -0.6754 -1.6567 -0.1930
  900MOL0     H21451   0.795   4.555   0.024  0.9514  0.5716  0.0732
  900MOL0     H21452   0.503   4.552   0.003 -0.4473  0.8089 -0.1310
  900MOL0     H21453   0.417   4.660   0.094 -0.6303  3.1421 -1.4882
  900MOL0     H21454   0.569   4.710  -0.153 -1.0864 -1.9064 -0.0382
  900MOL0     H21455   0.399   4.746  -0.129  1.0723 -0.5980 -1.6113
  900MOL0     H21456   0.511   4.953  -0.145 -0.9332  1.5104  0.6631
  900MOL0     H21457   0.619   4.914  -0.029  0.6144 -3.9351 -1.8131
  900MOL0     H21458   0.428   4.887   0.152 -1.7891  0.7753  0.1179
  900MOL0     H21459   0.317   4.951   0.025 -0.1125  2.6838 -0.5901
  900MOL0     H21460   0.705   5.049   0.169 -0.7486  1.7661 -0.6698
  900MOL0     H21461   0.764   5.095   0.400 -0.3692 -0.1287  0.6337
  900MOL0     H21462   0.532   5.569   0.632 -3.0115 -2.8508 -0.7064
  900MOL0     H21463   0.618   5.728   0.824  1.0147  0.6278 -2.3649
  900MOL0     H21464   0.788   5.607   1.226  1.9891  1.4338  1.0922
  900MOL0     H21465   0.906   5.546   1.100 -0.8612 -0.2679 -1.0693
  900MOL0     H21466   0.871   5.834   1.201 -1.0980 -0.7149  0.5088
  900MOL0     H21467   0.975   5.707   1.272  2.8645 -1.5399 -2.5096
  900MOL0     H21468   1.087   5.711   1.039 -1.1191 -2.5215  1.1601
  900MOL0     H21469   0.980   5.841   0.999  2.9855 -0.5191 -1.7633
  900MOL0     H21470   1.161   5.843   1.245 -2.2371  1.7266  1.2980
  900MOL0     H21471   1.071   5.971   1.173 -0.0403 -0.7270  2.7042
  900MOL0     H21472   1.284   5.807   1.025 -0.1005 -0.6697  1.6772
  900MOL0     H21473   1.343   5.943   1.111  2.5255 -3.4855 -1.4352
  900MOL0     H21474   1.167   5.950   0.877 -1.6724 -1.2769  1.2304
  900MOL0     H21475   1.187   6.099   0.979 -1.2339 -0.5993  0.4731
  900MOL0     H21476   1.400   5.951   0.834 -2.2689 -2.5093  2.8858
  900MOL0     H21477   1.431   6.075   0.952  0.6391 -0.2533 -1.4174
  900MOL0     H21478   1.336   6.235   0.823  1.1793 -0.3192  1.5019
  900MOL0     H21479   1.461   6.149   0.742  0.9574  0.2581  3.5428
  900MOL0     H21480   0.759   5.384   1.042  2.3207  0.6972 -2.3007
  900MOL0     H21481   0.639   5.233   0.852 -2.9435  0.1960 -1.6118
  900MOL0     H21482   0.395   5.318   0.446 -0.4281  2.4533 -3.1300
  900MOL0     H21483   0.311   5.226   0.246 -0.8121 -0.7048  0.9910
  900MOL0     H21484   1.778   5.253  -0.061 -2.3353 -0.5247  0.6796
  900MOL0     H21485   2.031   5.236  -0.078 -2.0261  0.6708 -4.7447
  900MOL0     H21486   2.485   5.280   0.007 -1.8569 -0.4861 -1.2631
  900MOL0     H21487   2.717   5.215   0.035 -1.3984  0.7942 -1.0470
  900MOL0     H21488   2.863   5.064  -0.175 -1.8523 -0.3931  1.2554
  900MOL0     H21489   2.997   4.957  -0.111  0.7096  0.1110  1.9458
  900MOL0     H21490   2.935   5.201   0.053 -1.9379 -0.3426 -2.5400
  900MOL0     H21491   3.013   5.220  -0.105 -1.8175 -1.0652 -1.4093
  900MOL0     H21492   3.111   5.009   0.098  1.8478 -0.0049  1.4502
  900MOL0     H21493   3.141   5.165   0.141 -2.4226 -0.2157 -0.5140
  900MOL0     H21494   3.323   5.048  -0.037  0.5224  0.5355 -0.6329
  900MOL0     H21495   3.199   5.064  -0.158  1.8443  4.3931 -3.0931
  900MOL0     H21496   3.366   5.416  -0.225  0.3371  0.0834  0.2112
  900MOL0     H21497   2.623   4.814  -0.028 -0.2614  0.6105  2.6914
  900MOL0     H21498   2.341   4.773  -0.025  1.7760 -2.8968 -1.7331
  900MOL0     H21499   2.316   4.846  -0.179 -1.9763  1.6741  0.9754
  900MOL0     H21500   2.460   4.759  -0.151 -0.4002 -0.1577 -0.1404
  901MOL0     O21501   4.232   7.797   3.956  0.1085  0.2252 -0.7760
  901MOL0     C21502   4.183   7.866   4.043  0.0284  0.0815 -0.1307
  901MOL0     O21503   4.205   7.846   4.181  0.0570  0.6038  1.0966
  901MOL0     C21504   4.303   7.759   4.214  0.2590 -0.7152  0.0717
  901MOL0     C21505   4.439   7.811   4.224  0.7694  0.6005  0.0622
  901MOL0     C21506   4.539   7.716   4.248 -0.1506  0.1089  0.4603
  901MOL0     C21507   4.521   7.584   4.245 -0.0261  0.3789  0.0397
  901MOL0     O21508   4.637   7.507   4.248  0.0725  0.5917  0.6689
  901MOL0     C21509   4.674   7.444   4.118 -0.0250 -0.0159 -0.0512
  901MOL0     C21510   4.777   7.539   4.048 -0.1492  0.0189  0.4467
  901MOL0     C21511   4.913   7.536   4.123  0.3510 -0.0862  0.3546
  901MOL0     C21512   5.013   7.618   4.036 -0.1395  0.1316  0.2420
  901MOL0     C21513   5.134   7.635   4.129  0.4019  0.0956  0.9425
  901MOL0     C21514   5.249   7.689   4.048  0.7299  0.5817  0.5992
  901MOL0     C21515   5.384   7.695   4.127  0.1137  0.1811  0.4823
  901MOL0     C21516   5.372   7.812   4.225 -1.1524 -0.0487  0.6821
  901MOL0     N21517   5.487   7.823   4.311 -1.3170  0.6341  0.4769
  901MOL0     C21518   5.616   7.856   4.270  0.3007 -0.0417  0.4551
  901MOL0     C21519   5.702   7.806   4.365 -0.0163  0.7407 -0.7932
  901MOL0     C21520   5.857   7.816   4.367 -0.2089  0.4890 -0.8307
  901MOL0     C21521   5.922   7.921   4.271 -0.1127 -0.2136  0.3864
  901MOL0     C21522   6.078   7.933   4.287  0.0200  0.4318  0.0557
  901MOL0     C21523   6.133   7.981   4.426 -0.5359 -0.5091 -0.0701
  901MOL0     O21524   6.065   8.100   4.456 -0.1989 -0.4594  0.0398
  901MOL0     C21525   6.114   8.183   4.551  0.5537 -0.0563  0.5504
  901MOL0     C21526   6.068   8.310   4.539 -0.0891  1.1757  1.3768
  901MOL0     C21527   6.085   8.408   4.634 -0.7699  0.0902 -0.1168
  901MOL0     C21528   6.183   8.387   4.740 -0.2703  0.7365  0.3965
  901MOL0     C21529   6.214   8.484   4.841  0.2857 -0.6470 -0.6353
  901MOL0     O21530   6.294   8.444   4.952 -0.2116 -0.4591  0.2069
  901MOL0     C21531   6.307   8.519   5.064 -0.7719 -0.9292  0.2897
  901MOL0     C21532   6.420   8.494   5.143  0.0920  0.5849 -0.5263
  901MOL0     C21533   6.453   8.582   5.254  0.0217 -0.5476  0.3277
  901MOL0     C21534   6.367   8.685   5.294 -1.6514 -0.1599  1.1570
  901MOL0     O21535   6.391   8.779   5.390  0.0772  0.0369  0.8500
  901MOL0     C21536   6.495   8.758   5.482 -0.3419  0.5028  0.1766
  901MOL0     C21537   6.504   8.880   5.574 -1.5647  0.1211  0.5126
  901MOL0     C21538   6.591   8.998   5.519  0.1768 -0.3087 -0.0930
  901MOL0     C21539   6.550   9.124   5.589 -0.1304  0.3924  0.0025
  901MOL0     C21540   6.613   9.254   5.523 -0.0316  0.6755 -0.0231
  901MOL0     C21541   6.764   9.263   5.543 -0.3796 -0.4225 -0.4493
  901MOL0     C21542   6.803   9.408   5.536  0.4300 -0.9085 -0.5585
  901MOL0     C21543   6.799   9.478   5.668 -0.6051  0.3434 -0.4902
  901MOL0    Cl21544   6.915   9.600   5.648  0.2231  0.4685 -0.5309
  901MOL0     C21545   6.243   8.697   5.221  0.3419 -0.1224  0.0869
  901MOL0     C21546   6.213   8.619   5.108 -0.7294  1.1620  0.0357
  901MOL0     O21547   6.164   8.598   4.833  0.3701 -0.0328 -0.1548
  901MOL0     C21548   6.247   8.257   4.741 -0.1006 -0.3415  1.1621
  901MOL0     C21549   6.208   8.154   4.653 -0.2290 -0.3903  0.5688
  901MOL0     N21550   5.623   7.755   4.464  0.9785 -0.4840  0.5916
  901MOL0     N21551   5.495   7.766   4.428  0.9065 -0.7306  0.9724
  901MOL0     C21552   4.392   7.529   4.234 -0.2603  0.0769  0.7793
  901MOL0     C21553   4.281   7.619   4.223  0.5508 -0.0771  1.4528
  901MOL0     C21554   4.084   7.979   4.005 -0.3052 -0.0787 -0.5808
  901MOL0     C21555   4.067   8.073   4.110 -0.3037 -0.9677  0.5793
  901MOL0     C21556   4.000   8.191   4.079 -0.0767 -0.6535 -0.2275
  901MOL0     C21557   3.960   8.220   3.952  1.0383 -0.0210  0.1013
  901MOL0     O21558   3.892   8.339   3.929  0.3888  1.1605 -0.0121
  901MOL0     C21559   3.935   8.417   3.815  0.4504  0.5552 -0.3393
  901MOL0     C21560   3.899   8.568   3.848  0.3192 -0.8534  0.2971
  901MOL0     C21561   3.988   8.646   3.946 -0.8487  0.3973  0.4324
  901MOL0     C21562   3.970   8.797   3.964  0.3594 -0.0575 -0.4839
  901MOL0     C21563   3.829   8.841   3.951  0.3631  0.8011  1.0136
  901MOL0     C21564   3.710   8.869   3.927  0.3857  0.1892  0.2346
  901MOL0     C21565   3.955   8.122   3.860  0.0190 -0.5349  0.8482
  901MOL0     C21566   4.024   8.006   3.880 -0.0125  0.4107 -0.1847
  901MOL0     C21567   4.007   7.892   3.796  0.4308  1.3426  1.2850
  901MOL0     H21568   4.461   7.918   4.221 -0.9622  1.0091  0.5124
  901MOL0     H21569   4.638   7.750   4.275  0.3205 -0.6757 -0.2310
  901MOL0     H21570   4.711   7.342   4.130 -0.8522 -0.1602  1.4749
  901MOL0     H21571   4.592   7.432   4.047  1.3900 -3.2815 -1.3680
  901MOL0     H21572   4.736   7.640   4.042 -0.2938  0.4976  5.1640
  901MOL0     H21573   4.783   7.499   3.947 -1.0933  1.6438 -0.2799
  901MOL0     H21574   4.941   7.434   4.151 -1.6380 -0.3409  1.5656
  901MOL0     H21575   4.900   7.592   4.216 -4.4817 -3.2108  1.9468
  901MOL0     H21576   5.044   7.560   3.948 -1.8081 -0.1257 -0.1973
  901MOL0     H21577   4.976   7.717   4.007  0.0671 -0.0841 -0.8211
  901MOL0     H21578   5.109   7.714   4.199  1.1610  0.3444  0.9507
  901MOL0     H21579   5.165   7.543   4.180  1.6574  0.0735  0.1902
  901MOL0     H21580   5.264   7.636   3.953  0.8625  1.9126 -0.1513
  901MOL0     H21581   5.228   7.791   4.014  0.0072 -0.0798 -1.0242
  901MOL0     H21582   5.468   7.706   4.058 -1.5327 -0.2343 -1.7353
  901MOL0     H21583   5.419   7.605   4.177  1.1850  1.0362  1.3304
  901MOL0     H21584   5.371   7.903   4.164  1.0565 -0.9794 -0.8809
  901MOL0     H21585   5.288   7.808   4.296 -0.0905 -0.9490  1.9315
  901MOL0     H21586   5.646   7.914   4.184 -2.7648 -0.5553 -1.1210
  901MOL0     H21587   5.879   7.853   4.468  0.9726  3.5236 -2.0645
  901MOL0     H21588   5.890   7.712   4.358 -2.5784 -0.7098  2.3211
  901MOL0     H21589   5.915   7.891   4.166 -1.7282  0.6698  0.2049
  901MOL0     H21590   5.884   8.023   4.283  1.8350  0.6678 -0.4258
  901MOL0     H21591   6.119   7.991   4.204  3.3874  0.0420  1.2589
  901MOL0     H21592   6.119   7.832   4.275  1.5665  1.1571 -1.1919
  901MOL0     H21593   6.241   7.995   4.431 -0.8609  1.8740  1.2425
  901MOL0     H21594   6.102   7.913   4.506  1.1857  2.8392  3.8216
  901MOL0     H21595   6.004   8.333   4.454  0.0310  0.2304  1.0139
  901MOL0     H21596   6.049   8.510   4.627 -2.8746 -0.6281 -0.5163
  901MOL0     H21597   6.477   8.407   5.112 -0.9168 -0.8569  1.5349
  901MOL0     H21598   6.544   8.556   5.308  0.1327  0.4379  0.6415
  901MOL0     H21599   6.458   8.672   5.540  2.8072  0.2667  2.0529
  901MOL0     H21600   6.585   8.715   5.437 -1.4710 -1.9750  0.1218
  901MOL0     H21601   6.401   8.909   5.600 -1.3516  1.0333  0.3650
  901MOL0     H21602   6.540   8.842   5.670 -0.0035 -3.4076 -1.2754
  901MOL0     H21603   6.695   8.964   5.514 -0.4664 -2.2434 -1.7007
  901MOL0     H21604   6.559   9.027   5.418 -3.6895  1.6174  1.4824
  901MOL0     H21605   6.586   9.101   5.690 -0.0088 -6.7986 -1.1174
  901MOL0     H21606   6.441   9.130   5.591 -0.3700 -2.4542  1.2299
  901MOL0     H21607   6.571   9.341   5.573  0.5649  0.5359  0.7439
  901MOL0     H21608   6.591   9.254   5.416  1.8739 -1.6443 -0.4979
  901MOL0     H21609   6.790   9.228   5.643  0.6305  2.3861  0.3913
  901MOL0     H21610   6.811   9.206   5.462  1.5410  2.3532 -1.4449
  901MOL0     H21611   6.739   9.466   5.469 -0.7529  0.6668  1.8054
  901MOL0     H21612   6.901   9.413   5.488  0.6024 -2.9833 -0.5322
  901MOL0     H21613   6.699   9.519   5.686 -0.5083  2.5891 -4.0543
  901MOL0     H21614   6.824   9.415   5.755  3.0168  2.0010 -0.1574
  901MOL0     H21615   6.181   8.783   5.242  1.7654  0.7314  0.9937
  901MOL0     H21616   6.129   8.652   5.049 -0.7326  3.4709  1.2278
  901MOL0     H21617   6.326   8.255   4.815  1.8203 -0.0379 -0.7809
  901MOL0     H21618   6.267   8.063   4.646  0.2840  0.0593 -1.7308
  901MOL0     H21619   4.375   7.423   4.217 -0.0673  0.3088 -1.1646
  901MOL0     H21620   4.182   7.587   4.191  1.8477 -0.3519 -3.0352
  901MOL0     H21621   4.106   8.061   4.211  0.7320 -2.8890 -0.0044
  901MOL0     H21622   3.995   8.266   4.158 -1.2190  0.1177 -1.0077
  901MOL0     H21623   3.882   8.383   3.725 -0.1118  1.2207 -0.2705
  901MOL0     H21624   4.042   8.419   3.793  0.0105 -0.1866 -2.9471
  901MOL0     H21625   3.792   8.577   3.867 -0.2348  1.2929 -3.0514
  901MOL0     H21626   3.917   8.617   3.752 -0.4073 -0.0057  0.5862
  901MOL0     H21627   4.091   8.617   3.922 -0.2943  1.9579  0.8457
  901MOL0     H21628   3.978   8.589   4.039 -0.2617 -1.9676 -0.8676
  901MOL0     H21629   4.013   8.812   4.063 -2.4107 -2.5249  1.2564
  901MOL0     H21630   4.029   8.840   3.882 -1.0861  2.0535 -0.4786
  901MOL0     H21631   3.613   8.911   3.911  2.1573  3.3056 -4.6500
  901MOL0     H21632   3.893   8.130   3.771  1.8947 -1.0524 -0.5800
  901MOL0     H21633   3.991   7.807   3.863  0.0830  0.9353  0.6973
  901MOL0     H21634   3.918   7.895   3.732  0.3651  1.4518  1.3812
  901MOL0     H21635   4.090   7.870   3.728  0.1302  1.0889  0.9973
  902MOL0     O21636   7.941   7.318   4.635 -0.4818 -0.2561  0.2756
  902MOL0     C21637   7.863   7.367   4.554 -0.9588 -0.9268 -0.8587
  902MOL0     O21638   7.820   7.303   4.443  0.2998  0.3511  0.2713
  902MOL0     C21639   7.858   7.170   4.430 -0.1716 -0.7365 -0.3506
  902MOL0     C21640   7.762   7.073   4.478 -0.7294 -0.6975 -0.2412
  902MOL0     C21641   7.800   6.942   4.470 -0.2563  0.1227 -1.3869
  902MOL0     C21642   7.929   6.899   4.439  0.5186 -0.7916 -1.1990
  902MOL0     O21643   7.956   6.771   4.430 -0.8847 -0.1058 -0.2474
  902MOL0     C21644   7.959   6.726   4.292 -0.3207  0.0723 -0.4891
  902MOL0     C21645   8.014   6.579   4.293 -1.3177  0.6938  0.0751
  902MOL0     C21646   8.160   6.566   4.366 -0.4667  0.2760  0.2875
  902MOL0     C21647   8.222   6.432   4.339 -0.2798 -0.2345  0.6419
  902MOL0     C21648   8.379   6.455   4.335  0.1654  0.7227  0.8359
  902MOL0     C21649   8.452   6.322   4.364 -0.3089 -1.1388  0.7997
  902MOL0     C21650   8.601   6.325   4.345  0.3025 -0.2537 -0.1854
  902MOL0     C21651   8.675   6.211   4.409 -1.1916 -0.5672 -0.2899
  902MOL0     N21652   8.669   6.089   4.329  0.2344  0.5732 -0.0801
  902MOL0     C21653   8.718   6.086   4.199  0.6319 -0.4119 -0.0259
  902MOL0     C21654   8.704   5.959   4.159  0.3803  0.5560  0.7432
  902MOL0     C21655   8.761   5.897   4.032 -0.1424 -0.1069  0.5344
  902MOL0     C21656   8.915   5.927   4.016  0.5298  0.5672  0.2330
  902MOL0     C21657   8.936   5.937   3.870 -0.1365  0.1980 -0.0747
  902MOL0     C21658   9.077   5.975   3.851  0.5685 -0.4156 -0.9222
  902MOL0     O21659   9.125   5.985   3.713 -0.5178 -0.1154  0.4217
  902MOL0     C21660   9.063   6.083   3.630 -0.5204  0.3583  0.1143
  902MOL0     C21661   8.937   6.058   3.573  0.4675  0.2888  0.1815
  902MOL0     C21662   8.890   6.141   3.470  0.2304  0.1144 -0.8398
  902MOL0     C21663   8.963   6.251   3.430 -0.4611 -0.1508 -0.2267
  902MOL0     C21664   8.912   6.326   3.314  0.5479 -1.2155  0.4429
  902MOL0     O21665   8.808   6.272   3.248 -0.0336  0.0184 -0.2893
  902MOL0     C21666   8.725   6.333   3.155  0.0763 -0.0762 -0.1283
  902MOL0     C21667   8.606   6.259   3.132  0.3142 -0.1994 -0.4415
  902MOL0     C21668   8.509   6.307   3.043  0.0914 -0.6554 -1.0339
  902MOL0     C21669   8.533   6.424   2.974 -0.6590  0.8681 -1.4460
  902MOL0     O21670   8.438   6.448   2.881  0.4266 -0.4851 -0.2387
  902MOL0     C21671   8.424   6.586   2.820  0.7095 -0.5795 -0.5946
  902MOL0     C21672   8.276   6.623   2.802 -1.1027  0.1139  0.8142
  902MOL0     C21673   8.212   6.564   2.677 -0.9252 -0.0273 -0.1430
  902MOL0     C21674   8.086   6.641   2.615  0.0454  0.2931  0.7781
  902MOL0     C21675   7.972   6.611   2.702 -0.3961 -0.5534  0.8078
  902MOL0     C21676   7.834   6.684   2.661 -0.3510 -1.8564  0.2036
  902MOL0     C21677   7.744   6.690   2.779  0.1814  0.4658  0.3370
  902MOL0     C21678   7.633   6.783   2.763  0.4744 -0.9182 -0.1141
  902MOL0    Cl21679   7.522   6.781   2.911  0.2345  0.5020  0.0373
  902MOL0     C21680   8.651   6.499   3.004  0.5414 -1.5421  0.2603
  902MOL0     C21681   8.744   6.452   3.097  0.1358 -0.4980  0.9018
  902MOL0     O21682   8.974   6.428   3.276  0.3043 -0.7131  0.0431
  902MOL0     C21683   9.093   6.280   3.491  0.0769 -0.6793 -0.6386
  902MOL0     C21684   9.134   6.200   3.593 -0.9983  0.3256  1.0887
  902MOL0     N21685   8.637   5.893   4.268 -0.0393 -0.4852  0.4898
  902MOL0     N21686   8.610   5.974   4.366 -0.6372  0.5437 -0.6644
  902MOL0     C21687   8.018   6.997   4.390 -0.7342 -0.4568 -0.0639
  902MOL0     C21688   7.988   7.131   4.393  0.0529  0.0822 -0.2671
  902MOL0     C21689   7.829   7.506   4.589 -0.1342 -0.4570  0.1128
  902MOL0     C21690   7.879   7.567   4.709 -0.3847  0.2952  0.0130
  902MOL0     C21691   7.852   7.697   4.739 -0.5193 -0.5471  1.0056
  902MOL0     C21692   7.770   7.767   4.662 -0.0314 -0.4483  0.5079
  902MOL0     O21693   7.733   7.897   4.699 -0.0835 -0.7656 -0.6005
  902MOL0     C21694   7.829   7.998   4.668  0.1985  0.0121  0.2530
  902MOL0     C21695   7.814   8.107   4.771  0.1228  0.0543 -0.6006
  902MOL0     C21696   7.852   8.059   4.907 -0.4837  1.0072  0.0407
  902MOL0     C21697   7.792   8.140   5.014 -0.0705 -0.3506 -0.0927
  902MOL0     C21698   7.837   8.095   5.146 -0.0369  0.1573 -0.2559
  902MOL0     C21699   7.857   8.060   5.260  0.4360  0.0079  0.5087
  902MOL0     C21700   7.713   7.717   4.545 -0.1753 -1.2085 -0.6960
  902MOL0     C21701   7.739   7.579   4.509 -0.0509  0.5247  0.0468
  902MOL0     C21702   7.632   7.526   4.414 -0.5546  0.2777  0.3287
  902MOL0     H21703   7.668   7.107   4.521 -0.8392 -0.3545 -0.7539
  902MOL0     H21704   7.726   6.864   4.489  1.7038 -0.9363  3.3530
  902MOL0     H21705   7.855   6.735   4.262 -1.1528 -1.2657  1.7263
  902MOL0     H21706   8.014   6.788   4.221  0.7363 -0.5304 -0.2246
  902MOL0     H21707   8.028   6.562   4.185 -0.9806  0.4797  0.1512
  902MOL0     H21708   7.944   6.503   4.328  0.7702 -0.6402  1.5955
  902MOL0     H21709   8.149   6.579   4.474 -1.2486  1.0887  0.1239
  902MOL0     H21710   8.228   6.648   4.341  2.2051 -2.0349 -0.5326
  902MOL0     H21711   8.196   6.346   4.401  0.3037 -0.9164 -0.0205
  902MOL0     H21712   8.191   6.401   4.239  3.0460 -0.7263 -0.3572
  902MOL0     H21713   8.388   6.479   4.229 -3.1281 -0.0065  0.2957
  902MOL0     H21714   8.411   6.533   4.405 -1.1092  2.6017 -0.5773
  902MOL0     H21715   8.424   6.297   4.466  0.8067  0.5695  1.5781
  902MOL0     H21716   8.401   6.241   4.310 -1.0325 -1.1147  1.4421
  902MOL0     H21717   8.641   6.414   4.393  1.8582 -0.0243 -1.7886
  902MOL0     H21718   8.608   6.348   4.238  2.7354 -1.2527 -0.3132
  902MOL0     H21719   8.776   6.252   4.420 -1.2308 -0.6989  0.6450
  902MOL0     H21720   8.645   6.183   4.511  2.8895 -0.7178  1.0745
  902MOL0     H21721   8.766   6.165   4.142  2.2951 -3.1578 -2.7085
  902MOL0     H21722   8.745   5.790   4.016 -0.2631 -0.2420  1.4939
  902MOL0     H21723   8.702   5.944   3.952  2.7657  0.4096 -1.4690
  902MOL0     H21724   8.943   6.025   4.057  3.9610  0.0224 -0.4511
  902MOL0     H21725   8.973   5.846   4.061  2.4115  1.5437 -0.3208
  902MOL0     H21726   8.860   6.002   3.827  0.4434 -0.3027 -1.9636
  902MOL0     H21727   8.920   5.836   3.831 -3.3687  1.0704 -1.2714
  902MOL0     H21728   9.139   5.893   3.890  1.6028  1.1448  0.9288
  902MOL0     H21729   9.088   6.074   3.894 -0.5465  0.0721 -1.7141
  902MOL0     H21730   8.883   5.965   3.585 -1.6846  1.4789  0.2212
  902MOL0     H21731   8.803   6.100   3.420 -0.0777 -1.4709  0.8727
  902MOL0     H21732   8.594   6.176   3.200  0.5810 -1.4146 -1.8488
  902MOL0     H21733   8.424   6.241   3.027  0.7093 -1.9364  0.5588
  902MOL0     H21734   8.461   6.664   2.886 -2.5797 -1.1585  2.1878
  902MOL0     H21735   8.481   6.593   2.726  0.3941  0.0555 -0.7418
  902MOL0     H21736   8.226   6.590   2.894  0.6318 -5.3527  0.1613
  902MOL0     H21737   8.259   6.728   2.776  1.3089  0.7383  1.4844
  902MOL0     H21738   8.287   6.558   2.598 -1.2467 -1.8751 -0.3647
  902MOL0     H21739   8.189   6.458   2.694 -2.1463 -0.2357 -2.6473
  902MOL0     H21740   8.054   6.588   2.525 -0.1349 -3.1388  2.7254
  902MOL0     H21741   8.106   6.746   2.593  1.3185 -0.4628 -2.0873
  902MOL0     H21742   8.005   6.638   2.803  0.0247 -0.6610  0.6997
  902MOL0     H21743   7.959   6.503   2.693  2.5611 -0.9167  0.0268
  902MOL0     H21744   7.861   6.787   2.634  1.1406 -2.5702 -1.1759
  902MOL0     H21745   7.784   6.655   2.568  1.4958 -1.1256 -1.0651
  902MOL0     H21746   7.808   6.710   2.866  2.6966 -0.4551 -1.1681
  902MOL0     H21747   7.707   6.589   2.799  0.6885  0.5433  1.8107
  902MOL0     H21748   7.672   6.885   2.762 -2.2391  0.2834  2.3967
  902MOL0     H21749   7.576   6.772   2.670  0.4511  2.5157 -0.6291
  902MOL0     H21750   8.656   6.603   2.974 -2.2537 -1.1113  0.9799
  902MOL0     H21751   8.835   6.510   3.110 -0.7913  1.3487 -0.2557
  902MOL0     H21752   9.163   6.355   3.457  2.9085 -0.6485  4.3369
  902MOL0     H21753   9.228   6.209   3.646  0.8284 -1.7983 -1.5313
  902MOL0     H21754   8.118   6.955   4.376 -1.3036 -2.0050  0.3740
  902MOL0     H21755   8.063   7.207   4.373 -1.8247  2.1799  0.2089
  902MOL0     H21756   7.945   7.517   4.779 -1.6016  0.3525  1.2512
  902MOL0     H21757   7.909   7.736   4.823  0.9209 -1.4560  0.4845
  902MOL0     H21758   7.823   8.044   4.569  0.7073 -1.7562 -0.6467
  902MOL0     H21759   7.933   7.963   4.667  0.7171  1.4676 -0.3173
  902MOL0     H21760   7.714   8.152   4.768  0.9180  1.8759 -1.0101
  902MOL0     H21761   7.886   8.187   4.756  1.7440 -0.2854  3.9195
  902MOL0     H21762   7.960   8.076   4.911 -0.6214  2.4503 -1.4382
  902MOL0     H21763   7.831   7.952   4.919 -2.0985  1.2720 -0.2666
  902MOL0     H21764   7.818   8.245   4.998 -1.4454 -0.1831 -1.4865
  902MOL0     H21765   7.684   8.132   5.006 -0.4401  3.2354 -0.5792
  902MOL0     H21766   7.881   8.025   5.358  0.8847 -1.5219 -0.1247
  902MOL0     H21767   7.645   7.764   4.475  1.6824 -0.9994 -2.4408
  902MOL0     H21768   7.670   7.467   4.331 -2.7943 -1.0389  0.1605
  902MOL0     H21769   7.559   7.457   4.458 -1.0914 -2.6543 -4.4660
  902MOL0     H21770   7.567   7.603   4.371  0.1116 -0.4654 -2.1419
  903MOL0     O21771   2.528   3.802  10.718  0.3017 -0.1983  0.3727
  903MOL0     C21772   2.540   3.733  10.615  0.3424 -0.1484 -0.9607
  903MOL0     O21773   2.461   3.621  10.587  0.2874 -0.2650  0.6674
  903MOL0     C21774   2.364   3.560  10.669  0.4864  1.0464 -0.3136
  903MOL0     C21775   2.314   3.442  10.621  0.5565  1.0349 -0.2006
  903MOL0     C21776   2.220   3.365  10.686 -0.4392  0.0392 -0.6827
  903MOL0     C21777   2.171   3.407  10.814 -0.0901 -0.2971  0.4563
  903MOL0     O21778   2.068   3.350  10.888 -0.7509  0.0239  0.0454
  903MOL0     C21779   2.004   3.232  10.844  0.1154 -0.0587 -1.1439
  903MOL0     C21780   2.092   3.098  10.868 -0.2614  0.0781 -0.2772
  903MOL0     C21781   2.176   3.085  10.994  0.6426  0.3711  0.0202
  903MOL0     C21782   2.089   3.096  11.128  0.5010  0.0312 -1.2230
  903MOL0     C21783   2.160   3.091  11.260 -0.4990 -0.2042  1.3358
  903MOL0     C21784   2.255   3.197  11.296 -0.2830  0.6127  0.3634
  903MOL0     C21785   2.399   3.169  11.249  0.4743  0.0624 -0.2892
  903MOL0     C21786   2.514   3.243  11.326  0.5529  0.1579  0.1331
  903MOL0     N21787   2.509   3.384  11.300  0.0956 -0.1673  0.1853
  903MOL0     C21788   2.520   3.437  11.174 -1.5862  0.2625  0.2637
  903MOL0     C21789   2.522   3.573  11.192 -0.2491 -1.4359  0.2271
  903MOL0     C21790   2.531   3.693  11.107 -0.3045 -0.0507 -0.0059
  903MOL0     C21791   2.678   3.762  11.128  0.1996 -0.7393 -0.6215
  903MOL0     C21792   2.795   3.674  11.099  0.0297  0.1326 -0.3473
  903MOL0     C21793   2.781   3.611  10.964 -0.2236 -0.8158  0.3096
  903MOL0     O21794   2.774   3.711  10.858 -0.3071  0.1529 -0.1588
  903MOL0     C21795   2.881   3.726  10.778  0.3104 -0.2254 -0.7431
  903MOL0     C21796   2.965   3.618  10.732 -0.2341  0.6742  0.5299
  903MOL0     C21797   3.065   3.648  10.631  0.7585 -0.8614 -0.3696
  903MOL0     C21798   3.078   3.773  10.574  1.0543  0.1998  0.2262
  903MOL0     C21799   3.183   3.813  10.473  1.7006  1.7591  0.4658
  903MOL0     O21800   3.180   3.936  10.412  0.2080  0.7916  0.2518
  903MOL0     C21801   3.257   3.981  10.309  0.1506  0.3898  0.0638
  903MOL0     C21802   3.386   3.927  10.283  0.1447  0.6576  0.1186
  903MOL0     C21803   3.459   3.972  10.174 -0.8445  0.4018  0.4730
  903MOL0     C21804   3.412   4.064  10.084 -0.2430  0.6244  0.1282
  903MOL0     O21805   3.503   4.103   9.989  0.1965  1.3034 -0.4155
  903MOL0     C21806   3.473   4.181   9.867  1.0472 -0.1583  0.3141
  903MOL0     C21807   3.598   4.172   9.782 -0.4176  0.3439  0.4256
  903MOL0     C21808   3.598   4.259   9.654 -0.4309 -0.3334 -0.0571
  903MOL0     C21809   3.726   4.244   9.574  0.3464 -0.3041  0.0704
  903MOL0     C21810   3.765   4.338   9.458 -0.3486  0.2513  0.5674
  903MOL0     C21811   3.680   4.349   9.337  0.0810  0.5229  0.0836
  903MOL0     C21812   3.753   4.441   9.231  0.8535 -0.1109 -0.4243
  903MOL0     C21813   3.770   4.581   9.288  0.0486  1.0414  0.6435
  903MOL0    Cl21814   3.933   4.625   9.356  0.3964  0.3074 -0.2931
  903MOL0     C21815   3.279   4.119  10.109  0.6441 -0.4553  0.3433
  903MOL0     C21816   3.205   4.071  10.219  0.2786  0.7772 -0.1228
  903MOL0     O21817   3.249   3.719  10.431 -1.0876  0.1108  0.4536
  903MOL0     C21818   2.996   3.875  10.622 -0.4703 -0.1138 -0.8162
  903MOL0     C21819   2.904   3.856  10.722  1.1350 -0.6673  0.4087
  903MOL0     N21820   2.490   3.600  11.330 -1.0600  0.4836 -0.1931
  903MOL0     N21821   2.494   3.481  11.389  0.3240  0.0005 -0.1769
  903MOL0     C21822   2.222   3.535  10.865 -0.6295  0.6457 -0.2777
  903MOL0     C21823   2.316   3.607  10.792 -0.4960  0.5263  0.4790
  903MOL0     C21824   2.649   3.773  10.517  0.0464  0.4194  0.1157
  903MOL0     C21825   2.703   3.670  10.436  0.0631 -0.1687  0.0198
  903MOL0     C21826   2.802   3.703  10.343  0.6624  0.2227  0.0481
  903MOL0     C21827   2.833   3.829  10.322 -0.4213 -0.9632 -0.1058
  903MOL0     O21828   2.921   3.873  10.227  0.0256 -0.3045  0.5989
  903MOL0     C21829   2.995   3.771  10.149  0.1773 -1.1995 -0.0728
  903MOL0     C21830   3.039   3.828  10.021 -0.5187 -0.6426 -0.1915
  903MOL0     C21831   2.923   3.836   9.916 -0.4958 -0.4596  0.3859
  903MOL0     C21832   2.990   3.888   9.784  0.2037 -0.0848  0.5455
  903MOL0     C21833   2.886   3.959   9.712 -0.1775 -0.9204  0.4274
  903MOL0     C21834   2.793   4.025   9.669 -0.4645 -0.5868 -0.7609
  903MOL0     C21835   2.777   3.937  10.390  0.8426  0.3327  0.5392
  903MOL0     C21836   2.689   3.910  10.492  0.0619 -0.1041 -0.1572
  903MOL0     C21837   2.642   4.025  10.571 -0.2612  0.5404 -1.1372
  903MOL0     H21838   2.343   3.406  10.523 -1.4537  1.7818 -1.1240
  903MOL0     H21839   2.163   3.280  10.649 -2.7224  2.0508 -2.0597
  903MOL0     H21840   1.915   3.219  10.907 -0.3338  0.5963 -1.6427
  903MOL0     H21841   1.962   3.245  10.744  1.7408 -1.3668 -2.0459
  903MOL0     H21842   2.147   3.095  10.774 -1.0399 -1.3617 -0.7099
  903MOL0     H21843   2.024   3.013  10.855 -1.5222  0.7003  1.7411
  903MOL0     H21844   2.245   3.170  10.994  0.5089  0.4869 -0.4354
  903MOL0     H21845   2.236   2.994  10.990  2.2115  1.4221 -1.1851
  903MOL0     H21846   2.039   3.193  11.129  0.5641  0.6461  6.4827
  903MOL0     H21847   2.011   3.019  11.133 -0.9589  1.5435  0.5381
  903MOL0     H21848   2.081   3.104  11.334 -1.5179 -2.7639  0.8037
  903MOL0     H21849   2.205   2.992  11.274  0.5000  0.0043 -0.1375
  903MOL0     H21850   2.211   3.295  11.272 -2.9657 -0.7011 -0.5842
  903MOL0     H21851   2.272   3.193  11.404  0.1057  1.1805  0.3291
  903MOL0     H21852   2.406   3.201  11.145  1.3958  1.9488  0.3024
  903MOL0     H21853   2.426   3.065  11.266  0.4927  0.3752  2.0396
  903MOL0     H21854   2.498   3.215  11.430  2.7435  0.1206  0.5126
  903MOL0     H21855   2.615   3.216  11.293  0.2582  1.8477 -2.4049
  903MOL0     H21856   2.525   3.389  11.077 -3.1673  1.4323 -0.4302
  903MOL0     H21857   2.509   3.659  11.005  2.6078  1.5352 -1.2960
  903MOL0     H21858   2.445   3.757  11.128 -3.1169 -3.7524  0.7464
  903MOL0     H21859   2.686   3.849  11.063 -0.7466 -1.8419 -2.2914
  903MOL0     H21860   2.678   3.786  11.235  2.3338  1.5138 -1.0377
  903MOL0     H21861   2.797   3.591  11.170  0.6026 -0.4852 -1.0732
  903MOL0     H21862   2.892   3.723  11.095  0.7103 -1.2042 -0.6932
  903MOL0     H21863   2.698   3.540  10.957  1.5829 -3.4965  3.4323
  903MOL0     H21864   2.864   3.541  10.949 -3.6648 -5.0234 -1.2790
  903MOL0     H21865   2.951   3.518  10.772 -3.6344  1.4897  1.7482
  903MOL0     H21866   3.136   3.577  10.590 -0.5936 -1.3783 -1.9552
  903MOL0     H21867   3.433   3.871  10.362 -2.4544 -0.3230  1.0738
  903MOL0     H21868   3.560   3.938  10.155 -0.5490  2.0389 -1.0980
  903MOL0     H21869   3.377   4.153   9.824  0.7924  1.9373 -0.5977
  903MOL0     H21870   3.451   4.285   9.892 -1.2374 -0.4004 -0.4212
  903MOL0     H21871   3.681   4.200   9.848 -0.7950  4.8692 -0.6583
  903MOL0     H21872   3.602   4.065   9.760 -0.3634  0.5498 -0.6161
  903MOL0     H21873   3.515   4.221   9.593  0.3191  0.6079 -1.7453
  903MOL0     H21874   3.577   4.365   9.672  1.6662  0.0274  0.5659
  903MOL0     H21875   3.736   4.139   9.546  1.7546 -0.5817  1.4759
  903MOL0     H21876   3.813   4.252   9.639  1.6557  1.8510 -1.7706
  903MOL0     H21877   3.863   4.302   9.428 -0.6950  1.4561 -2.4057
  903MOL0     H21878   3.785   4.437   9.501  4.7422 -0.3369  0.1640
  903MOL0     H21879   3.666   4.248   9.298 -1.4258  1.5150 -2.1918
  903MOL0     H21880   3.583   4.395   9.357 -0.9474 -1.5670  0.1492
  903MOL0     H21881   3.684   4.446   9.146 -2.5899  0.2481  2.1619
  903MOL0     H21882   3.845   4.398   9.193 -1.0260 -1.6807 -3.5968
  903MOL0     H21883   3.744   4.647   9.205 -0.1700  0.0207 -0.1218
  903MOL0     H21884   3.695   4.604   9.364  1.2830  4.0776  1.0996
  903MOL0     H21885   3.243   4.199  10.046 -1.5869 -2.4432 -1.0807
  903MOL0     H21886   3.106   4.111  10.239  0.8268  0.7383  3.3536
  903MOL0     H21887   3.013   3.974  10.581  0.2059  0.4017  0.6549
  903MOL0     H21888   2.843   3.934  10.765  1.0056 -1.2405  1.3006
  903MOL0     H21889   2.213   3.563  10.970  4.1067 -2.4164  1.2556
  903MOL0     H21890   2.335   3.702  10.842 -2.4140  1.8904 -1.1997
  903MOL0     H21891   2.673   3.566  10.447 -0.1939 -0.1535 -0.5519
  903MOL0     H21892   2.836   3.609  10.301  1.3327 -0.4642  2.0111
  903MOL0     H21893   2.936   3.686  10.112 -0.8141  0.1184 -1.6414
  903MOL0     H21894   3.077   3.731  10.210  1.9942  1.1993 -0.7834
  903MOL0     H21895   3.107   3.748   9.989 -0.1120 -0.4598  0.2081
  903MOL0     H21896   3.098   3.919  10.028  1.6847 -1.9640 -0.4722
  903MOL0     H21897   2.844   3.900   9.957 -0.6780 -1.1524  1.1455
  903MOL0     H21898   2.875   3.744   9.882 -0.6657  0.2222 -1.3134
  903MOL0     H21899   3.074   3.956   9.797 -0.5767  0.7310  1.5820
  903MOL0     H21900   3.022   3.805   9.722  3.2116  0.2353  1.5078
  903MOL0     H21901   2.701   4.079   9.663  0.4540  1.5146  1.9314
  903MOL0     H21902   2.803   4.040  10.365  0.0882  0.2490 -0.7079
  903MOL0     H21903   2.685   4.118  10.533  1.8669 -0.2110 -0.6470
  903MOL0     H21904   2.533   4.026  10.558 -0.3745 -1.9898 -0.7330
  903MOL0     H21905   2.658   4.007  10.677 -0.3610 -1.1160 -1.3840
  904MOL0     O21906   0.024   1.095   3.361  0.1623  0.0257  0.1747
  904MOL0     C21907  -0.051   1.189   3.328 -0.3825  0.8732 -0.2061
  904MOL0     O21908  -0.034   1.311   3.376  0.0654  0.2074  0.6418
  904MOL0     C21909   0.083   1.340   3.432 -1.1029  0.4706 -0.8080
  904MOL0     C21910   0.095   1.382   3.569  0.3652 -0.2558 -0.4332
  904MOL0     C21911   0.216   1.426   3.626  0.5275 -0.6081  0.1973
  904MOL0     C21912   0.328   1.435   3.550 -0.6813  0.8049  0.8161
  904MOL0     O21913   0.447   1.458   3.619 -0.1810 -1.1827  0.5284
  904MOL0     C21914   0.579   1.460   3.563 -0.8765  0.4401 -0.5491
  904MOL0     C21915   0.676   1.548   3.644 -0.0500  0.2610  0.3977
  904MOL0     C21916   0.682   1.532   3.798 -0.1442  0.5073 -1.0491
  904MOL0     C21917   0.810   1.587   3.856 -0.4831  1.4739  0.0032
  904MOL0     C21918   0.940   1.510   3.826  0.6795  0.2178  0.4598
  904MOL0     C21919   0.952   1.374   3.906 -0.3926  1.5283 -0.1429
  904MOL0     C21920   1.073   1.291   3.853  0.3470  0.0914 -0.3778
  904MOL0     C21921   1.063   1.156   3.909 -0.6206  0.6535  0.7766
  904MOL0     N21922   0.958   1.075   3.846  0.5485 -0.0086 -0.3957
  904MOL0     C21923   0.828   1.061   3.883 -0.3372 -0.3868  0.4553
  904MOL0     C21924   0.766   1.002   3.780 -0.2370  0.0796 -0.1293
  904MOL0     C21925   0.612   0.984   3.768 -0.7153  0.3309 -0.6534
  904MOL0     C21926   0.538   1.118   3.739 -1.4265 -0.6725 -0.0505
  904MOL0     C21927   0.392   1.119   3.703  0.6554  0.6176 -0.4208
  904MOL0     C21928   0.305   1.034   3.795  0.0251  0.0902  0.1510
  904MOL0     O21929   0.322   0.895   3.786  0.1631 -0.0212  0.6595
  904MOL0     C21930   0.276   0.831   3.673  0.1315 -0.5358  0.3559
  904MOL0     C21931   0.193   0.879   3.569  0.0133  0.2651  0.1909
  904MOL0     C21932   0.174   0.797   3.453 -0.5734  1.1172 -0.3768
  904MOL0     C21933   0.227   0.665   3.449 -0.6557 -0.2375 -0.2427
  904MOL0     C21934   0.203   0.584   3.327 -0.6653 -0.4568 -0.1596
  904MOL0     O21935   0.307   0.499   3.298 -0.5027  0.6938  0.0757
  904MOL0     C21936   0.311   0.438   3.172 -0.0027  0.1543  0.5711
  904MOL0     C21937   0.311   0.501   3.044  0.4580 -0.0833  0.3221
  904MOL0     C21938   0.341   0.426   2.930  0.6241  0.6043 -0.6712
  904MOL0     C21939   0.363   0.284   2.944  0.0212 -0.6879  0.5520
  904MOL0     O21940   0.392   0.214   2.829  0.3621  0.8203  0.7991
  904MOL0     C21941   0.409   0.071   2.845 -0.3095 -0.0602  0.5301
  904MOL0     C21942   0.487   0.047   2.715  0.9320  0.7100 -0.5437
  904MOL0     C21943   0.379   0.026   2.608 -0.2881 -0.2115 -0.4030
  904MOL0     C21944   0.331  -0.116   2.601 -0.3908  0.7547  0.6838
  904MOL0     C21945   0.215  -0.114   2.503 -0.5448  0.7232 -0.4685
  904MOL0     C21946   0.166  -0.252   2.471 -0.4132  0.0701  0.0361
  904MOL0     C21947   0.074  -0.294   2.587 -0.5026 -0.2326 -0.2937
  904MOL0     C21948   0.026  -0.432   2.567  0.4939 -0.2508 -0.8112
  904MOL0    Cl21949   0.152  -0.556   2.588 -0.1809  0.0212  0.3093
  904MOL0     C21950   0.346   0.220   3.065 -0.6175  0.2502  0.1076
  904MOL0     C21951   0.323   0.300   3.172  0.4760  0.8005  0.1210
  904MOL0     O21952   0.098   0.574   3.267 -0.8517  0.0552 -0.0289
  904MOL0     C21953   0.300   0.612   3.553 -0.4424 -0.3628  0.3473
  904MOL0     C21954   0.334   0.703   3.661  0.1572 -0.1620 -0.1059
  904MOL0     N21955   0.858   0.997   3.679  0.2780 -0.0459  0.2001
  904MOL0     N21956   0.972   1.029   3.716  0.0080  0.4728  0.5018
  904MOL0     C21957   0.325   1.397   3.413 -1.5005 -0.6572 -0.8872
  904MOL0     C21958   0.205   1.351   3.356 -0.4855  0.1230 -0.2474
  904MOL0     C21959  -0.173   1.140   3.255 -0.1319 -0.6833 -0.6855
  904MOL0     C21960  -0.279   1.228   3.266  1.2107  0.3706  0.0645
  904MOL0     C21961  -0.408   1.200   3.210  0.1194 -0.4911  0.2782
  904MOL0     C21962  -0.434   1.079   3.146 -0.0926  0.1413  0.4946
  904MOL0     O21963  -0.560   1.057   3.096 -1.4352  0.1191  0.4314
  904MOL0     C21964  -0.670   1.049   3.188  0.2750  0.1890 -0.9908
  904MOL0     C21965  -0.803   1.071   3.124  0.3125 -0.4683 -0.5038
  904MOL0     C21966  -0.815   1.219   3.084 -0.0196 -0.0456  0.2480
  904MOL0     C21967  -0.793   1.334   3.189  0.0171  0.2491  0.4342
  904MOL0     C21968  -0.908   1.362   3.272  0.4229 -0.4500 -0.2658
  904MOL0     C21969  -1.009   1.369   3.333 -0.6112 -0.4242 -0.6506
  904MOL0     C21970  -0.326   0.992   3.134  0.2627 -0.1281 -0.0023
  904MOL0     C21971  -0.194   1.020   3.184 -0.9464 -0.0072  0.1451
  904MOL0     C21972  -0.084   0.919   3.162 -0.4579 -0.7330  0.1608
  904MOL0     H21973  -0.003   1.390   3.616  0.5645  2.1709 -0.3255
  904MOL0     H21974   0.199   1.454   3.730  1.5740  1.7291 -0.1959
  904MOL0     H21975   0.624   1.360   3.560  2.8371  1.9712 -0.7990
  904MOL0     H21976   0.578   1.494   3.459  1.0884  1.2517 -0.3402
  904MOL0     H21977   0.643   1.651   3.632 -2.2551 -0.2627  1.4780
  904MOL0     H21978   0.772   1.541   3.593 -1.8836 -1.3426 -3.2496
  904MOL0     H21979   0.676   1.426   3.823 -4.8615  0.5066 -1.4081
  904MOL0     H21980   0.587   1.572   3.835  0.0306  0.5541 -0.6479
  904MOL0     H21981   0.823   1.688   3.815  1.1774  2.1549  2.0581
  904MOL0     H21982   0.804   1.604   3.963 -0.4968  2.0656 -0.0885
  904MOL0     H21983   0.943   1.479   3.721  0.3333 -5.6894  1.8461
  904MOL0     H21984   1.026   1.574   3.848  0.4813  0.8057 -0.4426
  904MOL0     H21985   0.955   1.388   4.014  2.0471  0.6080 -0.0283
  904MOL0     H21986   0.857   1.320   3.894  1.0424 -0.5844 -4.4221
  904MOL0     H21987   1.163   1.343   3.888  1.1111 -0.6570 -1.1889
  904MOL0     H21988   1.080   1.281   3.744  5.8795 -2.0948 -0.1766
  904MOL0     H21989   1.158   1.104   3.898 -0.2260  1.4211  0.4645
  904MOL0     H21990   1.042   1.163   4.017 -2.3187  0.3393  0.4905
  904MOL0     H21991   0.790   1.096   3.979 -0.5557 -1.0719  0.6253
  904MOL0     H21992   0.603   0.932   3.672  1.4188 -5.3493  1.8012
  904MOL0     H21993   0.559   0.941   3.853  0.3545  1.5139  0.6679
  904MOL0     H21994   0.567   1.177   3.826  0.3050  0.2401 -1.2100
  904MOL0     H21995   0.587   1.158   3.650 -0.0349 -2.4408 -0.1345
  904MOL0     H21996   0.371   1.091   3.599  3.2178 -0.5914 -0.6848
  904MOL0     H21997   0.351   1.219   3.717 -1.0734 -0.1612  0.4347
  904MOL0     H21998   0.201   1.067   3.784  0.1740  0.6207  0.3084
  904MOL0     H21999   0.331   1.069   3.895 -2.6309  4.7113 -0.4951
  904MOL0     H22000   0.149   0.979   3.571 -1.1965 -0.1913 -1.5554
  904MOL0     H22001   0.121   0.833   3.365  0.7362  0.5195 -1.4496
  904MOL0     H22002   0.294   0.608   3.036 -1.4929 -0.2470  1.6297
  904MOL0     H22003   0.351   0.484   2.839 -0.9740  0.6476 -0.8511
  904MOL0     H22004   0.472   0.057   2.933  2.8195  3.3242 -0.8986
  904MOL0     H22005   0.313   0.018   2.846  0.3925 -1.3731  0.1455
  904MOL0     H22006   0.557   0.129   2.697  2.6958 -0.6868 -0.3389
  904MOL0     H22007   0.546  -0.043   2.732 -0.3837  0.1801  1.6430
  904MOL0     H22008   0.292   0.087   2.633  2.0968  4.1848 -1.7046
  904MOL0     H22009   0.419   0.060   2.512  3.6413 -0.3931  0.9846
  904MOL0     H22010   0.313  -0.155   2.701  0.1779  1.5500  1.1057
  904MOL0     H22011   0.413  -0.176   2.561 -1.9478 -1.2285  0.3032
  904MOL0     H22012   0.251  -0.066   2.412 -1.5466  1.5797 -0.4279
  904MOL0     H22013   0.135  -0.047   2.535  0.8900  1.5024  1.7293
  904MOL0     H22014   0.108  -0.240   2.380  0.2210  0.7107 -0.2983
  904MOL0     H22015   0.243  -0.326   2.450  1.4669  1.8884  0.0845
  904MOL0     H22016  -0.017  -0.233   2.589 -0.0573  0.4893 -1.1828
  904MOL0     H22017   0.131  -0.293   2.681 -1.6214 -0.8309  0.4070
  904MOL0     H22018  -0.051  -0.454   2.642 -0.4054  1.2994 -1.2373
  904MOL0     H22019  -0.033  -0.440   2.475 -2.7379 -1.1621  1.1827
  904MOL0     H22020   0.332   0.114   3.083 -0.1740 -0.4384 -3.0924
  904MOL0     H22021   0.318   0.259   3.272 -3.5734  0.3536 -0.1075
  904MOL0     H22022   0.342   0.512   3.555  3.5428  1.1365  2.0365
  904MOL0     H22023   0.405   0.662   3.732  4.0612  1.4820 -2.7120
  904MOL0     H22024   0.420   1.411   3.363  0.1501  1.0455  2.4381
  904MOL0     H22025   0.191   1.326   3.251 -1.6096  0.2325 -0.1273
  904MOL0     H22026  -0.278   1.331   3.301 -2.8882  0.3642  0.6917
  904MOL0     H22027  -0.491   1.269   3.216  0.3328 -0.0767 -1.0910
  904MOL0     H22028  -0.672   1.109   3.279 -3.2777 -0.2590 -0.6575
  904MOL0     H22029  -0.683   0.943   3.210 -2.1010  0.0430 -2.7384
  904MOL0     H22030  -0.879   1.037   3.195 -0.0971 -0.6807 -1.0370
  904MOL0     H22031  -0.814   1.002   3.040 -0.7414 -0.5831 -0.2850
  904MOL0     H22032  -0.921   1.229   3.060  0.1022  2.4226  0.4358
  904MOL0     H22033  -0.750   1.238   2.998  0.7149  2.1782  1.2233
  904MOL0     H22034  -0.699   1.310   3.240  0.8249  2.1138 -0.0606
  904MOL0     H22035  -0.772   1.433   3.147  0.4578  0.1686  0.4611
  904MOL0     H22036  -1.093   1.403   3.391  0.6616 -1.9892  2.2839
  904MOL0     H22037  -0.355   0.903   3.079  0.6092 -0.0168 -0.3784
  904MOL0     H22038  -0.057   0.877   3.260 -2.3461  0.5573  1.2806
  904MOL0     H22039  -0.118   0.829   3.111  0.9074 -0.2856 -1.6278
  904MOL0     H22040  -0.004   0.973   3.110  1.6940 -4.0207 -0.2322
  905MOL0     O22041   2.734   1.049   7.254 -0.2541 -0.4486  0.1098
  905MOL0     C22042   2.807   1.054   7.158  0.0669  0.6783 -0.7811
  905MOL0     O22043   2.777   1.122   7.052  0.5298 -0.0428  0.4629
  905MOL0     C22044   2.642   1.160   7.036 -0.3139  0.7502 -1.3277
  905MOL0     C22045   2.547   1.063   7.028 -0.6360  0.1403  0.1267
  905MOL0     C22046   2.419   1.106   7.004  0.8260  1.1074  0.1089
  905MOL0     C22047   2.370   1.236   6.989  0.6331 -0.3873 -0.4093
  905MOL0     O22048   2.238   1.251   6.971 -0.1117 -0.0949  0.7428
  905MOL0     C22049   2.192   1.382   6.964 -0.2092  0.9190 -0.5110
  905MOL0     C22050   2.047   1.381   6.908  0.2426  0.1570  0.7710
  905MOL0     C22051   2.002   1.521   6.870  0.3214  0.2714  0.6562
  905MOL0     C22052   1.862   1.532   6.805  0.9082  0.2265 -0.1610
  905MOL0     C22053   1.813   1.674   6.779 -0.9543  0.1223 -0.2708
  905MOL0     C22054   1.688   1.665   6.677 -1.1907 -0.3659  0.9149
  905MOL0     C22055   1.663   1.815   6.633 -0.5831  0.0687  0.0203
  905MOL0     C22056   1.729   1.843   6.499  0.7237 -0.4255  0.0208
  905MOL0     N22057   1.867   1.901   6.500 -0.0623  0.6309 -0.4517
  905MOL0     C22058   1.891   2.039   6.529 -0.5408 -0.0498  0.1382
  905MOL0     C22059   2.024   2.043   6.568  0.3377  0.7186 -0.6287
  905MOL0     C22060   2.120   2.153   6.607  0.1051  0.3194  0.0008
  905MOL0     C22061   2.187   2.108   6.739 -0.1565  0.4668 -0.3911
  905MOL0     C22062   2.276   2.213   6.793 -0.0302  0.4089  0.2684
  905MOL0     C22063   2.303   2.158   6.931  0.0762 -1.0854 -0.0047
  905MOL0     O22064   2.386   2.253   6.989  0.6375 -0.0637 -0.4968
  905MOL0     C22065   2.418   2.225   7.120  0.3919 -0.0127 -0.5950
  905MOL0     C22066   2.462   2.099   7.173  0.0983  0.5274 -0.1031
  905MOL0     C22067   2.448   2.064   7.312  0.4337 -0.0797 -0.1821
  905MOL0     C22068   2.391   2.160   7.395 -0.1452 -0.1576 -0.3832
  905MOL0     C22069   2.391   2.147   7.540  0.0121  0.6953 -0.0595
  905MOL0     O22070   2.398   2.016   7.575 -0.9869  0.1119 -1.0858
  905MOL0     C22071   2.384   1.986   7.712 -0.1512 -0.9434 -0.6795
  905MOL0     C22072   2.281   1.910   7.745  0.3602  0.5173  0.0769
  905MOL0     C22073   2.233   1.895   7.872 -0.5853  0.1602 -0.1748
  905MOL0     C22074   2.310   1.944   7.975 -0.2447 -0.4497  0.4964
  905MOL0     O22075   2.273   1.926   8.103 -0.3395  0.1272  1.2549
  905MOL0     C22076   2.208   1.811   8.144  0.3733  0.5414 -0.2558
  905MOL0     C22077   2.292   1.672   8.138  1.0491 -0.3247  0.7866
  905MOL0     C22078   2.400   1.664   8.238 -0.2781 -0.2462  0.3374
  905MOL0     C22079   2.505   1.776   8.212 -0.7331 -0.0203  0.1371
  905MOL0     C22080   2.643   1.747   8.286  0.6457  0.4866 -0.0244
  905MOL0     C22081   2.716   1.878   8.319  0.0054  0.5036  0.4855
  905MOL0     C22082   2.841   1.855   8.396  1.1426  0.0359 -0.2930
  905MOL0     C22083   2.827   1.852   8.549  0.3613 -0.1097 -0.1262
  905MOL0    Cl22084   2.951   1.912   8.661 -0.4654  0.0466 -0.2343
  905MOL0     C22085   2.432   2.021   7.948  0.9811 -0.7175  0.1157
  905MOL0     C22086   2.458   2.052   7.815 -0.8103  0.3196 -0.6425
  905MOL0     O22087   2.371   2.237   7.615 -0.0478  0.6824  0.0674
  905MOL0     C22088   2.379   2.292   7.350 -0.6569 -0.6074 -0.1057
  905MOL0     C22089   2.382   2.316   7.212  0.2174  0.2637  0.0657
  905MOL0     N22090   2.059   1.907   6.560 -0.6861  0.0603  1.0300
  905MOL0     N22091   1.980   1.822   6.509  0.8494  0.4954 -0.0671
  905MOL0     C22092   2.467   1.333   7.020  0.0324  0.0632  2.0787
  905MOL0     C22093   2.601   1.289   7.039 -0.9567 -0.9731  0.1671
  905MOL0     C22094   2.945   0.994   7.176 -0.9700  1.0273  0.0267
  905MOL0     C22095   3.025   0.992   7.061 -0.8357 -0.9697  0.5160
  905MOL0     C22096   3.142   0.920   7.051 -0.1036 -0.1162  0.4616
  905MOL0     C22097   3.191   0.868   7.165  0.5102 -0.2891  0.6953
  905MOL0     O22098   3.316   0.812   7.162  0.6421  0.2604 -0.6403
  905MOL0     C22099   3.424   0.880   7.098 -0.3126 -0.3713 -0.1939
  905MOL0     C22100   3.546   0.795   7.106  0.6562 -0.0142  0.3269
  905MOL0     C22101   3.667   0.863   7.036  0.5466 -0.8701 -1.0357
  905MOL0     C22102   3.771   0.751   6.993  0.0415 -0.0133 -0.6423
  905MOL0     C22103   3.906   0.802   6.956 -0.0083 -0.1603  0.4773
  905MOL0     C22104   4.020   0.830   6.916  0.4499 -0.3511  0.9327
  905MOL0     C22105   3.120   0.863   7.287  1.1979  0.5907  0.6344
  905MOL0     C22106   2.991   0.912   7.289 -0.4731 -0.2332  0.3955
  905MOL0     C22107   2.908   0.884   7.410  0.2700  1.6139 -0.0697
  905MOL0     H22108   2.581   0.960   7.026  0.1980  0.4054 -0.0304
  905MOL0     H22109   2.343   1.030   6.988 -2.1511  4.1990 -1.8416
  905MOL0     H22110   2.197   1.423   7.065 -1.3236  0.8255 -0.3991
  905MOL0     H22111   2.254   1.438   6.894  0.0334 -0.4861 -1.4663
  905MOL0     H22112   1.981   1.341   6.984 -0.8213  2.1080  0.9391
  905MOL0     H22113   2.045   1.322   6.816 -0.2155 -1.0027  1.5068
  905MOL0     H22114   2.084   1.547   6.802  1.1138  0.8788  1.8079
  905MOL0     H22115   2.024   1.568   6.967 -0.4581  0.2860  0.8338
  905MOL0     H22116   1.867   1.475   6.711 -1.1503  3.0975 -2.1627
  905MOL0     H22117   1.795   1.475   6.870  2.2768 -0.3444  0.7953
  905MOL0     H22118   1.785   1.723   6.872  0.7879  3.5920 -1.4054
  905MOL0     H22119   1.898   1.727   6.735 -1.1907 -0.6890 -1.7634
  905MOL0     H22120   1.722   1.604   6.593 -1.9289  0.5154 -0.0444
  905MOL0     H22121   1.602   1.609   6.714 -1.1808 -0.3540  0.9566
  905MOL0     H22122   1.701   1.899   6.692 -1.4090  0.7481 -0.3915
  905MOL0     H22123   1.559   1.846   6.642  0.0408  1.6907  3.2733
  905MOL0     H22124   1.744   1.754   6.437  0.6213 -1.3346  1.2699
  905MOL0     H22125   1.663   1.902   6.435  1.4528 -1.4490 -1.7240
  905MOL0     H22126   1.818   2.119   6.517 -0.2332  0.2080 -0.0217
  905MOL0     H22127   2.197   2.172   6.532  2.3062  0.3506  2.1395
  905MOL0     H22128   2.064   2.247   6.612 -2.3033 -1.0093 -0.0545
  905MOL0     H22129   2.105   2.086   6.807 -0.2175 -0.9031 -0.8825
  905MOL0     H22130   2.247   2.018   6.722 -0.6156  0.3911 -1.7626
  905MOL0     H22131   2.234   2.314   6.801 -0.1352  0.2350  2.8046
  905MOL0     H22132   2.361   2.214   6.725  0.6546  0.2648  1.1040
  905MOL0     H22133   2.356   2.062   6.925  0.5156 -0.8871  0.5701
  905MOL0     H22134   2.211   2.146   6.988 -0.4405  0.7447 -0.3939
  905MOL0     H22135   2.497   2.017   7.111 -3.1480  0.3377 -1.9372
  905MOL0     H22136   2.465   1.967   7.357 -1.0228 -0.9030 -1.3196
  905MOL0     H22137   2.205   1.881   7.673 -1.5080 -0.3612  2.2401
  905MOL0     H22138   2.136   1.848   7.883 -2.0283  2.7049 -1.0590
  905MOL0     H22139   2.176   1.826   8.248 -0.2460 -1.0518 -0.1975
  905MOL0     H22140   2.109   1.810   8.097 -1.2399  1.8137  2.7932
  905MOL0     H22141   2.217   1.594   8.156  3.3739 -1.7643  6.0980
  905MOL0     H22142   2.338   1.651   8.040  0.4820 -3.1585  1.0398
  905MOL0     H22143   2.343   1.681   8.329 -0.1266  3.8042 -0.1697
  905MOL0     H22144   2.452   1.568   8.228  0.0820  0.0085 -0.3264
  905MOL0     H22145   2.469   1.871   8.251  0.4371  0.8511 -0.8341
  905MOL0     H22146   2.525   1.796   8.106 -1.3108 -1.1338 -0.1983
  905MOL0     H22147   2.693   1.681   8.215  0.6537  2.8866 -2.3773
  905MOL0     H22148   2.631   1.695   8.382 -3.3973  0.1461 -0.5380
  905MOL0     H22149   2.737   1.912   8.217 -0.3658 -3.8435 -1.2812
  905MOL0     H22150   2.664   1.954   8.378  2.1274  1.8765  0.6972
  905MOL0     H22151   2.915   1.933   8.378 -0.3703  1.9149  1.2060
  905MOL0     H22152   2.892   1.763   8.364 -0.3419  0.8211 -5.7918
  905MOL0     H22153   2.738   1.902   8.587  0.1485 -0.5653 -0.0111
  905MOL0     H22154   2.814   1.747   8.577 -2.3944  0.5293  1.2875
  905MOL0     H22155   2.503   2.049   8.025  0.2466  1.7818 -0.0451
  905MOL0     H22156   2.541   2.109   7.776 -0.1764  0.0063  0.2091
  905MOL0     H22157   2.358   2.376   7.416 -2.8406  0.8604 -2.4679
  905MOL0     H22158   2.373   2.412   7.161  2.3381 -0.2668 -1.4537
  905MOL0     H22159   2.459   1.440   7.007 -1.4199 -0.3722 -2.7569
  905MOL0     H22160   2.678   1.365   7.027 -3.4320  1.6097 -0.5120
  905MOL0     H22161   2.985   1.055   6.982 -0.6064 -0.6487  0.6526
  905MOL0     H22162   3.191   0.904   6.955 -0.1923  2.8973 -0.1808
  905MOL0     H22163   3.434   0.970   7.159 -2.2041 -0.3838  0.1917
  905MOL0     H22164   3.417   0.898   6.991  1.7346 -1.4736 -0.5676
  905MOL0     H22165   3.519   0.705   7.051  0.1412  0.1101  0.3765
  905MOL0     H22166   3.566   0.778   7.212  2.2689  0.7966  0.2000
  905MOL0     H22167   3.714   0.933   7.106 -1.9825  3.0861 -2.9251
  905MOL0     H22168   3.636   0.933   6.958  0.4992  2.0089  1.3914
  905MOL0     H22169   3.775   0.688   7.083 -2.7203 -0.6390 -0.8858
  905MOL0     H22170   3.731   0.699   6.906 -3.1622  4.1302 -1.9756
  905MOL0     H22171   4.110   0.868   6.874 -1.8690  3.6178 -1.0506
  905MOL0     H22172   3.155   0.797   7.365  1.3002  1.8045  1.6453
  905MOL0     H22173   2.965   0.850   7.497  0.7482  1.6329 -0.3738
  905MOL0     H22174   2.855   0.970   7.451 -2.3512 -0.5515  1.4248
  905MOL0     H22175   2.839   0.803   7.385 -0.6307  0.9243  3.9571
  906MOL0     O22176   1.428   2.348   6.184  0.7584 -0.4325 -0.0464
  906MOL0     C22177   1.446   2.281   6.281  0.8906 -0.3581  0.3274
  906MOL0     O22178   1.515   2.322   6.386 -0.3112 -0.6060 -0.2706
  906MOL0     C22179   1.571   2.447   6.402 -0.7024  0.4378  0.2702
  906MOL0     C22180   1.502   2.558   6.444 -0.0213  0.5519 -0.1055
  906MOL0     C22181   1.556   2.680   6.480 -0.2069  0.0527  0.1349
  906MOL0     C22182   1.694   2.699   6.446 -0.4758  0.3769 -0.5352
  906MOL0     O22183   1.759   2.820   6.461  0.5476  0.3405 -0.5326
  906MOL0     C22184   1.813   2.880   6.347 -0.4484  1.2650  0.1194
  906MOL0     C22185   1.937   2.956   6.370  0.2260 -0.2304  0.6468
  906MOL0     C22186   1.927   3.078   6.465  0.1050  0.4074  0.4048
  906MOL0     C22187   2.061   3.154   6.484  0.6741 -0.4299 -0.5198
  906MOL0     C22188   2.043   3.237   6.615  0.0474  1.0531 -0.1686
  906MOL0     C22189   2.149   3.343   6.642 -0.2278 -0.7183 -0.4574
  906MOL0     C22190   2.284   3.302   6.587 -0.5991 -0.4833  0.2475
  906MOL0     C22191   2.406   3.390   6.633  0.4500 -0.9672  0.5591
  906MOL0     N22192   2.383   3.472   6.748 -0.4055 -0.1252  0.3335
  906MOL0     C22193   2.386   3.419   6.874 -0.5038 -0.0426 -0.2769
  906MOL0     C22194   2.363   3.526   6.952  0.8961 -0.5833  0.4657
  906MOL0     C22195   2.349   3.517   7.101  1.0243 -0.4725 -0.8652
  906MOL0     C22196   2.237   3.411   7.145 -0.8792  0.9919  0.0501
  906MOL0     C22197   2.103   3.426   7.081  0.3843 -0.2227  0.0232
  906MOL0     C22198   1.997   3.324   7.124  0.6711  0.1247  0.3882
  906MOL0     O22199   2.011   3.211   7.033 -0.0690  0.3615  1.3050
  906MOL0     C22200   2.099   3.112   7.061 -0.2860 -0.7930  0.0613
  906MOL0     C22201   2.104   3.056   7.189 -0.1911 -0.0540 -0.3091
  906MOL0     C22202   2.186   2.951   7.215  0.2276  0.3272 -0.5345
  906MOL0     C22203   2.273   2.893   7.123  0.7405 -0.5645 -0.0256
  906MOL0     C22204   2.365   2.781   7.168 -0.0299 -0.2877 -0.1943
  906MOL0     O22205   2.459   2.750   7.075  0.1233 -0.4247  0.1451
  906MOL0     C22206   2.583   2.683   7.100  0.5313  0.3269  0.2228
  906MOL0     C22207   2.615   2.614   7.224  0.1164 -0.0835 -0.2789
  906MOL0     C22208   2.741   2.551   7.230 -0.1439 -0.0892 -0.9347
  906MOL0     C22209   2.843   2.566   7.138  0.5351  0.0850  0.3305
  906MOL0     O22210   2.961   2.511   7.161 -0.4626  0.5245  0.5597
  906MOL0     C22211   3.068   2.591   7.112  0.6725  0.0085  1.0020
  906MOL0     C22212   3.189   2.543   7.180  0.0553 -0.3164  0.6452
  906MOL0     C22213   3.306   2.635   7.151 -0.5898 -0.4341  0.0486
  906MOL0     C22214   3.358   2.647   7.017  0.0101  1.7209 -0.1013
  906MOL0     C22215   3.499   2.723   7.014  0.5714  0.7419 -0.2618
  906MOL0     C22216   3.475   2.879   7.036 -0.3031 -0.0386 -0.7853
  906MOL0     C22217   3.583   2.962   6.973 -0.0706 -0.7275  0.6966
  906MOL0     C22218   3.606   3.095   7.035  0.5353 -0.1394 -0.2150
  906MOL0    Cl22219   3.470   3.210   7.027  0.0155  0.2126 -0.7309
  906MOL0     C22220   2.806   2.632   7.011 -1.1010  0.0022 -0.2115
  906MOL0     C22221   2.677   2.680   6.991  0.2058  0.7747  0.2696
  906MOL0     O22222   2.345   2.734   7.283 -0.2912 -0.2492 -0.1007
  906MOL0     C22223   2.277   2.960   6.988  0.2929 -0.2362 -0.7287
  906MOL0     C22224   2.190   3.066   6.964  0.0295 -0.2328 -0.8651
  906MOL0     N22225   2.351   3.640   6.875 -1.4521  1.0778 -0.4090
  906MOL0     N22226   2.379   3.611   6.752 -0.0282  0.4651 -0.4565
  906MOL0     C22227   1.767   2.593   6.407  0.2087  0.2975  0.2347
  906MOL0     C22228   1.703   2.466   6.382 -0.3274 -0.4857 -0.5561
  906MOL0     C22229   1.381   2.150   6.292  0.2499  0.7381  0.8079
  906MOL0     C22230   1.365   2.099   6.425  0.9033  0.1457  0.1581
  906MOL0     C22231   1.298   1.981   6.443  0.8117  0.9551  0.2008
  906MOL0     C22232   1.248   1.902   6.338 -0.7005  0.1097  0.9501
  906MOL0     O22233   1.168   1.798   6.375  0.5362  0.1110  0.2975
  906MOL0     C22234   1.066   1.758   6.273  0.2866  0.1113 -0.2108
  906MOL0     C22235   0.948   1.692   6.349 -0.2361  0.4170 -0.6469
  906MOL0     C22236   0.976   1.565   6.427 -0.0733 -0.7731 -0.1131
  906MOL0     C22237   0.976   1.443   6.344  0.9887 -0.1832 -0.2145
  906MOL0     C22238   0.856   1.405   6.270  0.0389  0.9555  0.4593
  906MOL0     C22239   0.753   1.359   6.226 -0.4933 -1.1459 -0.3641
  906MOL0     C22240   1.275   1.942   6.202 -1.1131  0.5930 -0.2252
  906MOL0     C22241   1.338   2.067   6.189  0.6434 -0.2070  1.4519
  906MOL0     C22242   1.349   2.121   6.044 -0.2524  0.0410 -0.0156
  906MOL0     H22243   1.396   2.549   6.465  0.0786 -1.0149 -0.1209
  906MOL0     H22244   1.504   2.762   6.528  1.3267  0.2586  1.5408
  906MOL0     H22245   1.839   2.812   6.266  3.6237  1.2562  1.2317
  906MOL0     H22246   1.736   2.939   6.296  0.5902  0.6115 -2.3347
  906MOL0     H22247   1.967   2.998   6.274  1.1005 -2.1540  0.0367
  906MOL0     H22248   2.001   2.874   6.402 -0.0386 -1.1492 -1.0354
  906MOL0     H22249   1.900   3.042   6.565 -0.5996  0.7803  0.3537
  906MOL0     H22250   1.856   3.147   6.420 -0.1325  0.0897  0.2870
  906MOL0     H22251   2.151   3.092   6.488 -0.3691 -2.1142 -1.6952
  906MOL0     H22252   2.085   3.226   6.405 -0.6501 -2.2400 -2.6953
  906MOL0     H22253   1.949   3.292   6.627  0.0137  0.5941  2.2739
  906MOL0     H22254   2.043   3.165   6.698  1.2481  0.7400 -0.4222
  906MOL0     H22255   2.119   3.428   6.580  0.9682 -0.7212 -1.0720
  906MOL0     H22256   2.155   3.383   6.743  4.1148  0.8707 -1.1137
  906MOL0     H22257   2.285   3.295   6.478  0.8759 -5.4880  0.3173
  906MOL0     H22258   2.301   3.198   6.618  3.9570  0.5259  1.8655
  906MOL0     H22259   2.483   3.319   6.664  1.7619 -0.1334 -0.6432
  906MOL0     H22260   2.447   3.449   6.550 -0.0198 -0.4635  0.6771
  906MOL0     H22261   2.392   3.313   6.898  1.7697  0.5689  2.3257
  906MOL0     H22262   2.448   3.491   7.140 -1.6798 -4.7036  4.6523
  906MOL0     H22263   2.322   3.611   7.149  4.4387 -1.0716  2.8424
  906MOL0     H22264   2.265   3.308   7.120 -1.9769  1.3021 -2.7445
  906MOL0     H22265   2.235   3.414   7.255 -0.7153 -0.3441  0.1156
  906MOL0     H22266   2.117   3.425   6.972 -0.5662 -0.3400 -0.1058
  906MOL0     H22267   2.064   3.525   7.104 -2.1293 -0.7550 -1.6114
  906MOL0     H22268   1.902   3.358   7.084  1.0229  1.0721  0.3296
  906MOL0     H22269   1.996   3.304   7.232  0.8374 -0.1447  0.3423
  906MOL0     H22270   2.050   3.093   7.275 -1.2977  1.1100 -1.4700
  906MOL0     H22271   2.184   2.902   7.312 -3.7088  1.7083  0.2505
  906MOL0     H22272   2.547   2.611   7.309  3.9240  4.2749  3.4006
  906MOL0     H22273   2.763   2.482   7.311  0.4026 -0.7359 -1.6110
  906MOL0     H22274   3.070   2.588   7.003 -3.1538  4.5082  0.4837
  906MOL0     H22275   3.038   2.694   7.135 -0.5171 -0.6523  2.6350
  906MOL0     H22276   3.173   2.531   7.288  0.6780  0.4990  0.8334
  906MOL0     H22277   3.215   2.443   7.143  3.4043  1.1927 -1.4781
  906MOL0     H22278   3.291   2.736   7.190  4.2248  0.6180 -0.2524
  906MOL0     H22279   3.391   2.609   7.214 -0.5025 -0.2553  0.0039
  906MOL0     H22280   3.290   2.695   6.947 -1.5127 -1.2538 -0.8010
  906MOL0     H22281   3.366   2.547   6.975  0.8813  2.0499 -0.7641
  906MOL0     H22282   3.552   2.712   6.918  1.7914  1.7865  0.2785
  906MOL0     H22283   3.570   2.671   7.079 -1.8427 -0.6905  1.3653
  906MOL0     H22284   3.379   2.911   6.993 -0.9447  1.3168  1.4716
  906MOL0     H22285   3.470   2.896   7.144  2.3493 -1.3662 -0.3751
  906MOL0     H22286   3.558   2.984   6.869  3.8960  2.3727  0.1950
  906MOL0     H22287   3.671   2.898   6.983  2.5024  2.4426 -0.3264
  906MOL0     H22288   3.608   3.071   7.142  0.7170  1.5963  0.2009
  906MOL0     H22289   3.699   3.143   7.004  2.2026 -1.2842  2.5631
  906MOL0     H22290   2.862   2.636   6.918 -2.5169  1.2125 -1.0426
  906MOL0     H22291   2.649   2.709   6.890  3.0172  1.8807 -0.3016
  906MOL0     H22292   2.355   2.938   6.916  3.5827  1.8724  1.9118
  906MOL0     H22293   2.183   3.111   6.865 -2.3803  1.2309 -0.0965
  906MOL0     H22294   1.874   2.610   6.415  0.3829 -1.1606  1.4751
  906MOL0     H22295   1.766   2.378   6.368  0.6676  0.2657 -0.9788
  906MOL0     H22296   1.404   2.151   6.511 -1.2444  1.6188  0.3320
  906MOL0     H22297   1.299   1.943   6.545  3.6346 -1.6115 -0.6407
  906MOL0     H22298   1.117   1.683   6.213 -0.8085 -0.2689 -0.6863
  906MOL0     H22299   1.021   1.834   6.208 -3.9816 -1.1635  0.9655
  906MOL0     H22300   0.865   1.681   6.279  0.2493 -2.0835 -0.9088
  906MOL0     H22301   0.927   1.766   6.427  1.4093  0.3988 -0.1343
  906MOL0     H22302   0.890   1.556   6.494 -0.2957 -0.9423 -0.4154
  906MOL0     H22303   1.070   1.555   6.481 -0.7098 -2.5665  0.7501
  906MOL0     H22304   1.063   1.454   6.279  1.0123  1.9782  0.1215
  906MOL0     H22305   0.996   1.360   6.413 -0.7582  0.2280  0.8353
  906MOL0     H22306   0.668   1.314   6.177 -1.9064  2.6703 -1.7652
  906MOL0     H22307   1.238   1.887   6.115 -0.0426 -0.1280 -0.2504
  906MOL0     H22308   1.271   2.198   6.036  0.2363  0.9910  3.1244
  906MOL0     H22309   1.449   2.153   6.014 -0.4085 -0.4793 -1.1621
  906MOL0     H22310   1.320   2.046   5.969 -4.0145  2.9461 -1.8290
  907MOL0     O22311   8.679  11.112   2.679 -0.4174 -0.2584  0.6398
  907MOL0     C22312   8.793  11.098   2.717 -0.1535 -0.9437  0.2138
  907MOL0     O22313   8.898  11.164   2.653 -0.0045 -0.6694 -0.2061
  907MOL0     C22314   8.893  11.239   2.535  0.7971 -0.0791 -0.0833
  907MOL0     C22315   8.791  11.242   2.443  0.0127 -0.0464  0.1274
  907MOL0     C22316   8.798  11.341   2.339 -0.6529  0.0799  0.2999
  907MOL0     C22317   8.916  11.425   2.325  0.2319 -0.0844  0.3170
  907MOL0     O22318   8.928  11.522   2.235  0.3775 -0.3045  1.1990
  907MOL0     C22319   8.825  11.531   2.136 -0.3326  0.0353  0.2276
  907MOL0     C22320   8.843  11.637   2.039 -1.0367 -0.1973  0.5181
  907MOL0     C22321   8.743  11.605   1.924  0.3489  0.1210  0.6287
  907MOL0     C22322   8.712  11.715   1.831  0.8478 -0.3283 -0.4804
  907MOL0     C22323   8.629  11.669   1.713  1.3081 -0.2085  0.4380
  907MOL0     C22324   8.581  11.788   1.631  0.1256  0.6327  0.5615
  907MOL0     C22325   8.702  11.833   1.547  0.2884 -1.0148  0.8478
  907MOL0     C22326   8.666  11.980   1.498  0.1228 -0.1024  0.3090
  907MOL0     N22327   8.728  12.005   1.368 -0.1008  0.7157  0.0369
  907MOL0     C22328   8.774  12.123   1.332  0.2305  0.3513 -0.3813
  907MOL0     C22329   8.811  12.103   1.202 -0.6632 -0.0311  0.0181
  907MOL0     C22330   8.877  12.203   1.104  0.9495 -0.9808 -0.8773
  907MOL0     C22331   8.966  12.137   0.999 -0.0260  0.5275  0.1812
  907MOL0     C22332   9.060  12.234   0.931  0.7445  0.2278  1.0983
  907MOL0     C22333   9.191  12.284   1.019  0.4019  0.3633 -0.2051
  907MOL0     O22334   9.229  12.412   0.966  0.3677  0.2728  0.6690
  907MOL0     C22335   9.343  12.470   1.011  0.2182  0.5864  0.0987
  907MOL0     C22336   9.346  12.517   1.146 -0.7005  0.4857  0.7965
  907MOL0     C22337   9.457  12.589   1.183 -0.6487 -0.6930 -0.3745
  907MOL0     C22338   9.564  12.613   1.086  0.8338  0.0932 -0.8235
  907MOL0     C22339   9.677  12.692   1.141  0.1811  0.0898 -0.0893
  907MOL0     O22340   9.751  12.742   1.042  0.3544  0.4148 -0.4008
  907MOL0     C22341   9.826  12.851   1.075  0.6121  0.6761 -1.2660
  907MOL0     C22342   9.915  12.852   1.188  0.4285  1.1738 -0.0115
  907MOL0     C22343   9.970  12.969   1.231 -0.3272  0.0260  0.0952
  907MOL0     C22344   9.960  13.082   1.161 -0.0595 -0.2996 -0.4849
  907MOL0     O22345  10.037  13.184   1.203  0.3982  0.0798 -0.4384
  907MOL0     C22346  10.076  13.291   1.116  0.1462 -0.1732  0.3636
  907MOL0     C22347  10.205  13.258   1.036  0.9044 -0.2460 -1.3074
  907MOL0     C22348  10.312  13.182   1.123 -0.1388 -0.4424  0.7057
  907MOL0     C22349  10.439  13.164   1.035 -0.9129  0.5286 -0.5437
  907MOL0     C22350  10.565  13.133   1.112  0.7321 -0.7482 -0.1234
  907MOL0     C22351  10.618  12.985   1.077 -0.8325 -0.3508 -0.3908
  907MOL0     C22352  10.752  12.948   1.158  0.4729 -0.7787  0.3521
  907MOL0     C22353  10.806  12.790   1.139 -0.4311  0.1262  0.2703
  907MOL0    Cl22354  10.846  12.728   0.975  0.0936 -0.1030  0.7096
  907MOL0     C22355   9.876  13.094   1.045  0.3778  1.1057 -0.9736
  907MOL0     C22356   9.815  12.970   1.002  0.0185 -0.2707  0.0656
  907MOL0     O22357   9.669  12.734   1.261 -0.0722 -0.1057 -0.0300
  907MOL0     C22358   9.562  12.564   0.957 -0.0922 -0.6607 -0.2210
  907MOL0     C22359   9.451  12.498   0.921  0.1729  0.4228 -0.0975
  907MOL0     N22360   8.760  11.991   1.153  0.0143 -0.0272 -0.6997
  907MOL0     N22361   8.705  11.927   1.253 -0.2002  0.7601 -0.6941
  907MOL0     C22362   9.014  11.420   2.422 -0.5707  0.1258  0.0878
  907MOL0     C22363   9.007  11.336   2.530  1.6528 -0.2770  0.0940
  907MOL0     C22364   8.824  10.995   2.820  0.1534 -0.0902 -0.4940
  907MOL0     C22365   8.709  10.926   2.872  0.2585  0.5090  0.5595
  907MOL0     C22366   8.716  10.808   2.950  0.4467  0.1442  1.0175
  907MOL0     C22367   8.840  10.764   2.987  0.2850  0.0559 -0.4550
  907MOL0     O22368   8.830  10.656   3.077  0.5550 -0.5680  0.3047
  907MOL0     C22369   8.951  10.609   3.138 -1.2415 -0.2888  0.1505
  907MOL0     C22370   8.928  10.499   3.240 -0.3446  0.4002  0.3502
  907MOL0     C22371   8.809  10.516   3.343 -0.3948 -0.3483  0.3246
  907MOL0     C22372   8.680  10.466   3.289  0.1279  0.1038  0.5069
  907MOL0     C22373   8.660  10.322   3.277  0.5550  0.0720  0.2626
  907MOL0     C22374   8.613  10.206   3.246 -0.2300 -0.7128 -0.0063
  907MOL0     C22375   8.955  10.836   2.939  0.6298  0.6292  0.8769
  907MOL0     C22376   8.956  10.946   2.851  0.7568 -0.3442 -0.4934
  907MOL0     C22377   9.078  11.014   2.805 -0.6706 -0.7908  0.9004
  907MOL0     H22378   8.718  11.163   2.452  0.0716 -0.2805 -1.2891
  907MOL0     H22379   8.709  11.356   2.278  1.2092  3.3837 -1.9534
  907MOL0     H22380   8.832  11.437   2.081  1.2157  1.5925 -2.4451
  907MOL0     H22381   8.729  11.552   2.184 -1.0050  1.5075 -1.6360
  907MOL0     H22382   8.948  11.647   2.009 -0.1196  1.4682  3.8159
  907MOL0     H22383   8.816  11.735   2.079 -0.8406  1.6924 -3.5355
  907MOL0     H22384   8.657  11.553   1.967  0.2273 -0.0077  0.2411
  907MOL0     H22385   8.792  11.525   1.869  0.1501 -1.1693  2.2690
  907MOL0     H22386   8.662  11.798   1.881  1.1890 -0.5250  0.2047
  907MOL0     H22387   8.802  11.755   1.785 -1.0034  1.2965 -2.8937
  907MOL0     H22388   8.684  11.596   1.654  2.5206  0.1494  1.0874
  907MOL0     H22389   8.537  11.624   1.753  0.0862  1.3045 -0.5370
  907MOL0     H22390   8.502  11.761   1.560 -1.4251  3.0098  1.2952
  907MOL0     H22391   8.547  11.872   1.691 -1.0003  0.4757  0.1595
  907MOL0     H22392   8.699  11.773   1.456  1.7418 -0.6962  0.5640
  907MOL0     H22393   8.800  11.841   1.595  1.4438 -0.1721 -1.5060
  907MOL0     H22394   8.558  11.987   1.485 -0.1030 -3.4884 -0.5266
  907MOL0     H22395   8.703  12.061   1.562 -0.9278  2.4989 -2.1798
  907MOL0     H22396   8.791  12.217   1.383 -1.0827 -0.7839  2.3782
  907MOL0     H22397   8.803  12.255   1.043  2.0177  3.2203  1.0355
  907MOL0     H22398   8.923  12.283   1.163  1.1009 -2.2376  0.7679
  907MOL0     H22399   9.022  12.055   1.043 -0.3542 -0.5216 -1.2956
  907MOL0     H22400   8.893  12.101   0.926 -1.1432  2.1392  0.4374
  907MOL0     H22401   9.004  12.320   0.894  1.7111  0.0702 -0.8231
  907MOL0     H22402   9.099  12.188   0.840 -0.8903  1.3398 -0.2076
  907MOL0     H22403   9.271  12.211   1.005  1.1436  1.1623 -0.2108
  907MOL0     H22404   9.151  12.310   1.118 -0.3440  0.1526 -0.4484
  907MOL0     H22405   9.255  12.508   1.206 -1.2502 -0.8516 -0.1987
  907MOL0     H22406   9.458  12.630   1.283 -1.9245 -1.0704 -0.1894
  907MOL0     H22407   9.940  12.760   1.240  1.0761 -0.1577 -2.5569
  907MOL0     H22408  10.039  12.981   1.314  3.8633  4.5446 -3.4446
  907MOL0     H22409  10.001  13.325   1.044 -1.1122 -4.4492 -0.6766
  907MOL0     H22410  10.093  13.376   1.181 -1.0018  0.8974 -0.6742
  907MOL0     H22411  10.171  13.195   0.954 -0.3150  0.5533 -1.4374
  907MOL0     H22412  10.243  13.350   0.989  0.4325  1.1711  0.9014
  907MOL0     H22413  10.342  13.248   1.205  2.9708 -0.3943 -0.3529
  907MOL0     H22414  10.275  13.085   1.159 -0.3140 -0.8933 -0.6559
  907MOL0     H22415  10.463  13.257   0.983  1.9537  0.3688  0.3548
  907MOL0     H22416  10.416  13.091   0.957 -0.2414 -0.8137  0.4726
  907MOL0     H22417  10.551  13.138   1.221 -0.1158 -3.5414 -0.0335
  907MOL0     H22418  10.634  13.215   1.089  0.6684 -0.0344  1.9849
  907MOL0     H22419  10.547  12.905   1.099  0.3451 -1.4143 -0.3491
  907MOL0     H22420  10.639  12.984   0.969 -0.7472 -1.3307 -0.3741
  907MOL0     H22421  10.742  12.953   1.266 -2.6486 -2.8158  0.2854
  907MOL0     H22422  10.827  13.015   1.115 -0.6983 -0.8815 -2.0160
  907MOL0     H22423  10.905  12.796   1.186  0.0130 -2.0922 -0.2916
  907MOL0     H22424  10.741  12.716   1.187 -0.9244 -1.8533 -3.0701
  907MOL0     H22425   9.858  13.180   0.982 -1.4439 -0.2324 -2.3923
  907MOL0     H22426   9.745  12.970   0.919  0.2058 -0.5291 -0.0920
  907MOL0     H22427   9.648  12.564   0.891  0.1389  0.5801  0.0408
  907MOL0     H22428   9.451  12.463   0.818  4.1972  2.7317 -1.0843
  907MOL0     H22429   9.080  11.506   2.426  0.7136 -0.7396 -1.3293
  907MOL0     H22430   9.082  11.343   2.608 -0.5580 -0.9695  2.4179
  907MOL0     H22431   8.610  10.957   2.840 -0.4171 -2.6619 -0.8139
  907MOL0     H22432   8.623  10.766   2.987  0.8931 -1.8766 -0.0134
  907MOL0     H22433   9.008  10.690   3.184 -2.1988  1.7457 -1.9975
  907MOL0     H22434   9.012  10.563   3.060 -0.5314 -0.8112  1.0052
  907MOL0     H22435   9.015  10.491   3.305 -0.1355  1.2918  0.1886
  907MOL0     H22436   8.908  10.400   3.197  0.3758  0.3412  0.1314
  907MOL0     H22437   8.804  10.622   3.371 -0.7980 -0.4114  0.4853
  907MOL0     H22438   8.827  10.453   3.430 -3.0539  1.5421  2.3947
  907MOL0     H22439   8.609  10.489   3.369 -0.2259 -2.0055  0.8634
  907MOL0     H22440   8.673  10.523   3.196  0.9323 -1.1741 -0.3715
  907MOL0     H22441   8.560  10.132   3.189 -1.1236  1.1196 -1.6340
  907MOL0     H22442   9.055  10.800   2.959 -0.0357 -0.5668  2.3634
  907MOL0     H22443   9.069  11.123   2.817 -0.7578 -0.7356  0.3489
  907MOL0     H22444   9.165  10.989   2.866  3.0666  1.6551 -2.8388
  907MOL0     H22445   9.108  10.995   2.701 -1.8514  0.0890  0.3786
  908MOL0     O22446   6.866  10.673   5.860  0.4047 -0.3396 -0.9279
  908MOL0     C22447   6.764  10.714   5.918 -0.3064  0.6649 -0.0915
  908MOL0     O22448   6.754  10.837   5.963  0.9982 -0.7383  0.2160
  908MOL0     C22449   6.873  10.901   5.983  0.2510  0.1174  0.7992
  908MOL0     C22450   6.918  10.931   6.111 -0.0754 -0.6951 -0.4233
  908MOL0     C22451   7.038  11.006   6.140  0.5885  0.8584  0.1067
  908MOL0     C22452   7.124  11.041   6.037  0.7296 -0.3267  0.3703
  908MOL0     O22453   7.244  11.109   6.043 -1.1398 -1.1074 -0.3835
  908MOL0     C22454   7.337  11.073   6.153  0.6582 -0.0517  0.2036
  908MOL0     C22455   7.458  11.159   6.140  0.7038  0.1058 -0.8452
  908MOL0     C22456   7.551  11.119   6.258 -0.2563  0.1589  1.2523
  908MOL0     C22457   7.517  11.197   6.387  0.0404  0.6282 -0.2348
  908MOL0     C22458   7.578  11.144   6.507 -0.9125  0.5525  0.6385
  908MOL0     C22459   7.548  11.222   6.639  0.3307  0.8677  1.3720
  908MOL0     C22460   7.622  11.150   6.760  0.9532 -0.2473  0.2788
  908MOL0     C22461   7.599  11.213   6.896 -0.0059  0.7728  0.1149
  908MOL0     N22462   7.719  11.187   6.975  0.8075  0.2848 -0.4599
  908MOL0     C22463   7.736  11.080   7.065 -1.0566 -0.3059 -0.1203
  908MOL0     C22464   7.856  11.094   7.125  0.0823 -0.3452 -0.4675
  908MOL0     C22465   7.948  10.984   7.168 -0.1309  0.3497  0.2732
  908MOL0     C22466   8.029  11.024   7.290  0.0037 -0.0827 -0.1086
  908MOL0     C22467   8.121  10.916   7.324  0.5047 -0.0249  0.0316
  908MOL0     C22468   8.192  10.944   7.451 -0.0487 -1.1814  0.0798
  908MOL0     O22469   8.301  11.040   7.423  0.8243 -0.6054  0.0667
  908MOL0     C22470   8.431  11.000   7.408  0.9987 -0.2574  0.0182
  908MOL0     C22471   8.491  11.027   7.288 -0.1603  0.5015 -0.0086
  908MOL0     C22472   8.628  11.005   7.274  0.7098  0.2274  0.0950
  908MOL0     C22473   8.712  10.965   7.383 -0.0016 -0.2669 -0.5747
  908MOL0     C22474   8.866  10.948   7.378  0.5080  0.5651 -0.0614
  908MOL0     O22475   8.921  10.947   7.245  0.3928 -0.4900 -0.2048
  908MOL0     C22476   9.054  10.904   7.233  0.7425  0.0668  0.0294
  908MOL0     C22477   9.127  10.956   7.133 -0.4958 -0.7148 -1.6742
  908MOL0     C22478   9.263  10.923   7.115 -0.1886  0.4761  0.2159
  908MOL0     C22479   9.322  10.828   7.192  0.2857  0.2584 -0.0977
  908MOL0     O22480   9.449  10.799   7.175 -0.7071 -0.4218  0.4935
  908MOL0     C22481   9.467  10.683   7.094  0.6257 -0.3126 -0.4930
  908MOL0     C22482   9.574  10.591   7.153 -0.9407 -1.1479  0.2323
  908MOL0     C22483   9.558  10.565   7.310 -0.6586  0.6453 -0.1399
  908MOL0     C22484   9.695  10.496   7.354 -0.3579 -0.9386 -1.0668
  908MOL0     C22485   9.722  10.496   7.515  1.0002 -0.8335  0.8574
  908MOL0     C22486   9.869  10.459   7.551  0.0481  0.1715  0.6614
  908MOL0     C22487   9.878  10.437   7.714 -0.6480  0.0115  0.2502
  908MOL0     C22488   9.986  10.345   7.763 -0.3935 -0.0649  0.0635
  908MOL0    Cl22489   9.925  10.322   7.927 -0.0567  0.0266 -0.3211
  908MOL0     C22490   9.247  10.770   7.301  0.2221  0.4500  0.5836
  908MOL0     C22491   9.111  10.801   7.312 -0.5152 -0.1815  0.4081
  908MOL0     O22492   8.930  10.940   7.487 -0.7316 -0.9981  0.1005
  908MOL0     C22493   8.638  10.930   7.504 -1.0646  0.7476  0.3670
  908MOL0     C22494   8.496  10.939   7.508 -0.1779 -0.2265  0.3247
  908MOL0     N22495   7.903  11.222   7.087 -0.3340  1.1314  1.0710
  908MOL0     N22496   7.820  11.275   7.003  0.1965  0.3117  1.1781
  908MOL0     C22497   7.076  11.014   5.906 -0.0179 -0.8039  1.0599
  908MOL0     C22498   6.962  10.940   5.877  0.4965  0.5153 -0.6271
  908MOL0     C22499   6.667  10.608   5.935 -0.1088  0.4039  0.2727
  908MOL0     C22500   6.558  10.630   6.016 -0.6588 -0.5370  0.3988
  908MOL0     C22501   6.461  10.539   6.050 -0.0695  0.0215 -0.4440
  908MOL0     C22502   6.481  10.397   6.004 -0.0679 -0.4116 -0.4897
  908MOL0     O22503   6.381  10.312   6.041  0.8224  0.2412  0.0552
  908MOL0     C22504   6.335  10.211   5.942  0.8654  0.4413  0.7800
  908MOL0     C22505   6.280  10.282   5.816  0.1574  0.5935  0.1925
  908MOL0     C22506   6.128  10.280   5.808 -0.0800  0.6425  0.2302
  908MOL0     C22507   6.078  10.296   5.666  0.5473 -0.1681  0.5300
  908MOL0     C22508   6.115  10.420   5.596 -0.7798 -0.4732  0.7528
  908MOL0     C22509   6.139  10.537   5.553  0.3196  1.1850 -0.0064
  908MOL0     C22510   6.587  10.370   5.932  0.6994 -0.1065  0.6471
  908MOL0     C22511   6.683  10.464   5.898  0.8747 -0.4184  0.3659
  908MOL0     C22512   6.803  10.419   5.821 -0.2465 -0.6668 -1.2018
  908MOL0     H22513   6.843  10.918   6.188 -1.7425  6.0509 -0.2584
  908MOL0     H22514   7.060  11.021   6.245 -4.1744  2.0479  1.1546
  908MOL0     H22515   7.289  11.093   6.249 -0.2817 -0.1080 -0.2435
  908MOL0     H22516   7.358  10.966   6.155 -1.1613 -0.4448 -0.1298
  908MOL0     H22517   7.425  11.264   6.139 -0.0939 -0.1399 -1.5779
  908MOL0     H22518   7.503  11.142   6.042  0.4689 -0.5778 -0.8348
  908MOL0     H22519   7.655  11.146   6.236 -0.3928 -0.4042 -0.1435
  908MOL0     H22520   7.545  11.011   6.273 -0.6228 -0.1490 -0.8708
  908MOL0     H22521   7.529  11.304   6.366 -1.5392  0.9627  0.3589
  908MOL0     H22522   7.410  11.178   6.404  0.0355 -3.8594 -3.5772
  908MOL0     H22523   7.559  11.039   6.534  2.7196 -0.8168 -1.3633
  908MOL0     H22524   7.687  11.156   6.511 -0.7984 -0.0576 -0.3760
  908MOL0     H22525   7.566  11.330   6.629  0.3690  0.6929 -0.9105
  908MOL0     H22526   7.441  11.209   6.659  0.3993 -1.9653  0.2442
  908MOL0     H22527   7.729  11.160   6.742  0.7118  2.0825 -0.2331
  908MOL0     H22528   7.605  11.043   6.765 -1.3935 -0.0270 -1.5155
  908MOL0     H22529   7.582  11.321   6.901 -2.5497  0.3724  1.1692
  908MOL0     H22530   7.518  11.164   6.950 -1.6089  3.6969  0.5786
  908MOL0     H22531   7.676  10.989   7.056 -0.9789 -0.1900 -2.1713
  908MOL0     H22532   7.888  10.896   7.194  2.1539 -0.3615  3.9799
  908MOL0     H22533   8.004  10.969   7.076 -0.4185  0.4992  0.0715
  908MOL0     H22534   8.077  11.120   7.265 -0.2484  0.1714  0.3681
  908MOL0     H22535   7.961  11.034   7.375  1.9291 -2.0394  1.7911
  908MOL0     H22536   8.191  10.891   7.244 -1.1908  1.4525 -2.0132
  908MOL0     H22537   8.065  10.823   7.339 -0.7181  0.7333  0.3812
  908MOL0     H22538   8.236  10.854   7.495  2.6979  0.1748  0.3543
  908MOL0     H22539   8.110  10.987   7.509  2.0825  0.7716  1.8654
  908MOL0     H22540   8.438  11.054   7.197  1.2576 -2.3715 -1.8220
  908MOL0     H22541   8.680  11.020   7.180 -0.6617  0.4269 -0.6584
  908MOL0     H22542   9.078  11.023   7.063 -0.6190  0.8592 -0.1429
  908MOL0     H22543   9.320  10.961   7.031 -0.0414  0.6709  0.4036
  908MOL0     H22544   9.379  10.625   7.066  1.8866 -3.0590  0.9086
  908MOL0     H22545   9.526  10.724   7.011  2.2267  1.7760  1.5234
  908MOL0     H22546   9.565  10.498   7.097 -1.6899 -0.7591 -0.3084
  908MOL0     H22547   9.671  10.640   7.138  0.9484 -2.6459  5.1847
  908MOL0     H22548   9.537  10.653   7.371  1.5032 -0.7586  2.8878
  908MOL0     H22549   9.476  10.494   7.321  0.1610  0.0273  2.9377
  908MOL0     H22550   9.775  10.564   7.324 -0.1941 -0.9761 -0.7317
  908MOL0     H22551   9.714  10.396   7.314  0.9180 -0.2511 -2.2360
  908MOL0     H22552   9.654  10.424   7.562  0.0296 -0.1759  0.4967
  908MOL0     H22553   9.713  10.598   7.552  0.4507 -0.7103  0.3886
  908MOL0     H22554   9.906  10.366   7.507 -0.4013  0.4606 -0.3472
  908MOL0     H22555   9.934  10.539   7.516  0.1701 -0.8737 -1.7116
  908MOL0     H22556   9.783  10.395   7.747 -1.2512  2.4510  1.8590
  908MOL0     H22557   9.882  10.536   7.761 -0.9198  1.6551 -2.8663
  908MOL0     H22558   9.980  10.264   7.689 -1.3323 -0.7086  0.8190
  908MOL0     H22559  10.083  10.396   7.763 -0.8172  0.8270  2.1036
  908MOL0     H22560   9.289  10.693   7.365 -2.8242  0.9944  3.4817
  908MOL0     H22561   9.046  10.739   7.374 -1.5243 -1.1604 -1.5404
  908MOL0     H22562   8.691  10.897   7.593 -0.1600  1.7983  0.2402
  908MOL0     H22563   8.453  10.926   7.607 -0.1190  0.7051  0.4788
  908MOL0     H22564   7.134  11.051   5.823 -0.4880 -0.8799  0.6904
  908MOL0     H22565   6.932  10.922   5.775 -0.4171 -2.0093  0.0177
  908MOL0     H22566   6.546  10.728   6.060 -0.4672 -0.4209  0.1930
  908MOL0     H22567   6.373  10.566   6.106 -0.6944 -1.4354 -0.6600
  908MOL0     H22568   6.282  10.127   5.986  0.2440  0.0705 -0.6401
  908MOL0     H22569   6.426  10.166   5.901 -0.2450 -0.1170 -1.1886
  908MOL0     H22570   6.310  10.220   5.731 -4.8398  1.6291 -2.7589
  908MOL0     H22571   6.323  10.379   5.788  0.3743  1.3328  2.8590
  908MOL0     H22572   6.091  10.359   5.875 -4.6946 -0.1495 -1.0454
  908MOL0     H22573   6.089  10.189   5.854 -0.3292  1.5439  1.8778
  908MOL0     H22574   6.118  10.216   5.603  2.0572  0.7848  0.2473
  908MOL0     H22575   5.969  10.287   5.656 -0.4022  4.0737  4.0174
  908MOL0     H22576   6.139  10.640   5.525  2.9412  1.2842  0.1200
  908MOL0     H22577   6.601  10.268   5.896 -2.3786 -0.0417 -1.1364
  908MOL0     H22578   6.800  10.318   5.778  2.3984 -2.0500  1.4694
  908MOL0     H22579   6.830  10.476   5.732 -0.4258 -1.2914 -1.6634
  908MOL0     H22580   6.892  10.419   5.885 -0.9201  1.7742 -0.1561
  909MOL0     O22581   3.399   9.639   4.198  0.2041 -0.5738  0.9665
  909MOL0     C22582   3.369   9.747   4.247 -0.1456  0.6885 -0.0248
  909MOL0     O22583   3.243   9.787   4.282  0.3592 -0.0947  0.0255
  909MOL0     C22584   3.135   9.747   4.213  0.3758 -0.6426  0.4878
  909MOL0     C22585   3.038   9.848   4.176 -0.0825 -0.1392  0.1080
  909MOL0     C22586   2.929   9.826   4.088 -0.6878  0.1293 -0.5074
  909MOL0     C22587   2.917   9.697   4.040 -0.5165  0.8119  0.3629
  909MOL0     O22588   2.805   9.662   3.975  0.1413 -0.0083 -0.2607
  909MOL0     C22589   2.789   9.711   3.836 -1.2417  0.9235 -1.1176
  909MOL0     C22590   2.665   9.655   3.767 -1.0186 -0.1724  1.2007
  909MOL0     C22591   2.681   9.512   3.715  0.5441  0.7330 -0.3491
  909MOL0     C22592   2.790   9.500   3.608  0.2847 -0.0768 -0.0867
  909MOL0     C22593   2.791   9.361   3.551 -0.1605 -0.2690 -0.1553
  909MOL0     C22594   2.878   9.345   3.417  0.2797  0.5434  0.0018
  909MOL0     C22595   2.839   9.422   3.290 -0.2293 -0.0142 -0.5298
  909MOL0     C22596   2.900   9.372   3.156 -0.3081 -0.7046 -0.5656
  909MOL0     N22597   2.830   9.255   3.100 -0.3156 -0.0462 -0.6479
  909MOL0     C22598   2.868   9.127   3.119  0.9283  0.1004  0.4644
  909MOL0     C22599   2.829   9.066   2.998  0.3094 -0.5057 -0.2652
  909MOL0     C22600   2.834   8.918   2.966 -0.5675 -0.4670 -0.5403
  909MOL0     C22601   2.975   8.870   2.916 -0.3899 -0.1758  0.5984
  909MOL0     C22602   3.067   8.949   2.812 -0.3298 -0.1039 -0.7221
  909MOL0     C22603   3.201   8.884   2.787  0.4164 -0.6746 -0.4557
  909MOL0     O22604   3.182   8.747   2.767 -0.8266  1.3877  0.1530
  909MOL0     C22605   3.200   8.697   2.635  0.3572 -0.5457 -0.3556
  909MOL0     C22606   3.167   8.566   2.613  0.2400  0.5263  0.8676
  909MOL0     C22607   3.179   8.502   2.492  0.1000  0.1677 -0.5958
  909MOL0     C22608   3.244   8.565   2.389 -0.7339  0.0911 -0.6861
  909MOL0     C22609   3.261   8.495   2.264 -0.2671 -1.1660 -1.2651
  909MOL0     O22610   3.196   8.374   2.246 -0.0643  0.3441  0.2021
  909MOL0     C22611   3.231   8.292   2.140 -0.2338 -0.2980 -0.7283
  909MOL0     C22612   3.221   8.337   2.006 -0.0240 -0.0915 -1.0157
  909MOL0     C22613   3.231   8.249   1.895 -0.1912 -0.4619 -0.7210
  909MOL0     C22614   3.277   8.117   1.919  0.4059 -0.2097 -0.6098
  909MOL0     O22615   3.294   8.024   1.810  0.0455 -0.3418 -0.3670
  909MOL0     C22616   3.422   8.031   1.740  0.5279 -0.8226  0.1573
  909MOL0     C22617   3.419   7.952   1.610 -0.1402 -0.7345 -0.2539
  909MOL0     C22618   3.368   7.796   1.635 -0.5651  0.4923 -0.4969
  909MOL0     C22619   3.434   7.699   1.541 -0.7120  0.4102  1.0639
  909MOL0     C22620   3.374   7.562   1.517  0.0621  0.2493  0.1589
  909MOL0     C22621   3.448   7.467   1.424 -0.5756 -0.3846 -0.9384
  909MOL0     C22622   3.482   7.534   1.290 -0.5608  0.1934 -0.1412
  909MOL0     C22623   3.457   7.429   1.184  0.4968  0.0030 -0.0481
  909MOL0    Cl22624   3.543   7.282   1.210  0.0458  0.7212  0.2497
  909MOL0     C22625   3.280   8.075   2.057 -0.4494 -0.8618 -0.1883
  909MOL0     C22626   3.274   8.166   2.156  0.2395  0.0997  0.2289
  909MOL0     O22627   3.323   8.561   2.184 -0.1382 -0.0661  0.0597
  909MOL0     C22628   3.279   8.705   2.408  0.3852  1.0023  0.6622
  909MOL0     C22629   3.261   8.765   2.531  0.7492  0.2753  0.6583
  909MOL0     N22630   2.761   9.151   2.920  0.5173 -0.0181  0.6273
  909MOL0     N22631   2.758   9.264   2.989  0.5383 -0.5410  0.4713
  909MOL0     C22632   3.001   9.591   4.076 -0.9533  0.1856  0.2567
  909MOL0     C22633   3.108   9.622   4.158 -0.6062 -0.2879  0.5772
  909MOL0     C22634   3.484   9.836   4.272  1.3437  0.3215  0.4125
  909MOL0     C22635   3.443   9.971   4.257 -0.2540  0.3703  0.3281
  909MOL0     C22636   3.533  10.076   4.256 -0.2353  0.0311  0.1990
  909MOL0     C22637   3.664  10.057   4.283  0.9506  0.0266  1.2623
  909MOL0     O22638   3.753  10.163   4.290 -0.8849  0.3415 -0.5582
  909MOL0     C22639   3.883  10.141   4.228  0.4634  0.1048 -0.1772
  909MOL0     C22640   3.942  10.277   4.215 -0.0551 -0.0606  1.4468
  909MOL0     C22641   3.970  10.340   4.335 -0.1068 -0.1606  0.3429
  909MOL0     C22642   4.000  10.490   4.316 -0.7606 -0.9386  0.8452
  909MOL0     C22643   4.130  10.505   4.239 -0.4976  0.7750 -0.1076
  909MOL0     C22644   4.230  10.486   4.176  0.0502 -0.4202  0.5083
  909MOL0     C22645   3.699   9.929   4.316  0.0619  0.3907 -0.1458
  909MOL0     C22646   3.618   9.815   4.295 -0.6143 -0.3417 -0.6391
  909MOL0     C22647   3.678   9.677   4.288 -0.6053  0.3131 -0.5758
  909MOL0     H22648   3.054   9.944   4.224  0.1723 -2.5759  5.6326
  909MOL0     H22649   2.856   9.901   4.058 -0.8127 -0.6489 -2.2940
  909MOL0     H22650   2.780   9.819   3.846 -3.3450  0.8183 -1.4492
  909MOL0     H22651   2.870   9.686   3.767 -0.9635  3.4310 -1.7973
  909MOL0     H22652   2.650   9.728   3.687  0.5907 -2.7796 -1.7395
  909MOL0     H22653   2.569   9.674   3.815 -2.9636  0.1309 -2.4412
  909MOL0     H22654   2.587   9.473   3.674  0.2272  0.3656  0.7009
  909MOL0     H22655   2.697   9.446   3.801 -2.7279 -1.6934 -1.4129
  909MOL0     H22656   2.778   9.582   3.536  0.3479  1.9004  2.0463
  909MOL0     H22657   2.886   9.513   3.657  0.3843 -1.6905  0.2033
  909MOL0     H22658   2.845   9.302   3.626  1.7527 -0.4272 -1.5859
  909MOL0     H22659   2.689   9.322   3.545 -0.2917  0.1499 -0.7268
  909MOL0     H22660   2.987   9.348   3.420  0.2822 -0.2540  1.3750
  909MOL0     H22661   2.857   9.240   3.393  2.4243 -0.3251  1.5652
  909MOL0     H22662   2.873   9.526   3.300 -0.2581 -0.0138 -0.4376
  909MOL0     H22663   2.732   9.402   3.287 -0.7650  2.4910 -0.9388
  909MOL0     H22664   2.910   9.452   3.082 -2.4457 -0.6262 -0.8149
  909MOL0     H22665   3.002   9.342   3.185 -0.2504  2.2098  2.8682
  909MOL0     H22666   2.929   9.080   3.196 -1.9792 -0.5112  2.5801
  909MOL0     H22667   2.818   8.856   3.054 -1.0625 -4.4533 -3.1826
  909MOL0     H22668   2.753   8.896   2.896 -0.6653 -2.4673  0.1487
  909MOL0     H22669   3.037   8.833   2.999  0.4881 -2.6905 -1.0660
  909MOL0     H22670   2.945   8.779   2.863 -0.3099  0.9048 -1.3863
  909MOL0     H22671   3.094   9.049   2.845 -1.9990 -0.0314  0.5833
  909MOL0     H22672   3.015   8.953   2.716  1.3034  1.5003 -1.5998
  909MOL0     H22673   3.271   8.897   2.871 -0.4531 -2.4782  0.6315
  909MOL0     H22674   3.241   8.939   2.702 -2.9440  2.8508 -0.0467
  909MOL0     H22675   3.115   8.506   2.687 -0.2692  0.8586  0.7822
  909MOL0     H22676   3.142   8.402   2.472 -1.5892 -0.2592  3.5753
  909MOL0     H22677   3.189   8.438   1.980  2.6842  0.2249 -3.6464
  909MOL0     H22678   3.201   8.283   1.796 -3.5416  0.2417  0.3954
  909MOL0     H22679   3.457   8.134   1.728  1.3695 -0.5686  3.6713
  909MOL0     H22680   3.502   7.994   1.805  2.0609 -0.4756 -1.4616
  909MOL0     H22681   3.340   8.002   1.553  0.5310  0.0741 -0.4798
  909MOL0     H22682   3.516   7.950   1.560  1.0210  2.0887  1.6330
  909MOL0     H22683   3.391   7.776   1.740 -1.9227  0.1676 -0.2431
  909MOL0     H22684   3.261   7.781   1.623 -0.2906 -2.0571 -0.1550
  909MOL0     H22685   3.538   7.679   1.567 -0.8071 -0.5302  0.7653
  909MOL0     H22686   3.437   7.756   1.448  0.5356 -2.2664 -0.6629
  909MOL0     H22687   3.269   7.586   1.501 -1.1155 -1.5016  3.9931
  909MOL0     H22688   3.377   7.516   1.617  0.9831  1.2856  0.6244
  909MOL0     H22689   3.543   7.436   1.470  0.1927  1.0826 -1.4629
  909MOL0     H22690   3.388   7.376   1.415 -0.0530 -0.9561  0.9305
  909MOL0     H22691   3.587   7.565   1.296 -0.1294 -1.2170  0.1637
  909MOL0     H22692   3.413   7.617   1.275 -1.6381  0.0009  2.9305
  909MOL0     H22693   3.350   7.419   1.201  0.7088  1.3299  2.5196
  909MOL0     H22694   3.482   7.478   1.089  0.5758  0.6547  0.3056
  909MOL0     H22695   3.296   7.974   2.092  1.6551 -0.8229 -0.9163
  909MOL0     H22696   3.266   8.131   2.259  0.5314 -2.5088 -0.5600
  909MOL0     H22697   3.312   8.772   2.330 -0.6314  0.2079 -0.4959
  909MOL0     H22698   3.289   8.870   2.533 -0.9082  0.7526  1.0690
  909MOL0     H22699   3.000   9.489   4.039 -2.9609 -0.4369  1.8625
  909MOL0     H22700   3.175   9.538   4.174  0.4052  0.5878  1.0668
  909MOL0     H22701   3.341   9.982   4.221 -1.1643 -2.8986  1.4900
  909MOL0     H22702   3.508  10.178   4.226  0.6424  0.0820 -0.4030
  909MOL0     H22703   3.880  10.097   4.128  0.5007  1.5245 -0.8165
  909MOL0     H22704   3.947  10.075   4.288  0.7914  3.1446  3.1664
  909MOL0     H22705   3.873  10.333   4.151  0.2072 -0.4115  0.8469
  909MOL0     H22706   4.026  10.257   4.147 -1.7602 -2.2753 -0.1547
  909MOL0     H22707   4.052  10.284   4.381  0.5407 -0.5240 -1.1828
  909MOL0     H22708   3.895  10.349   4.414  2.2541 -0.6761  2.7820
  909MOL0     H22709   3.923  10.549   4.264 -0.1560 -1.4309 -0.6696
  909MOL0     H22710   4.005  10.536   4.415  1.2080  2.1857 -0.5383
  909MOL0     H22711   4.322  10.481   4.122  1.4483 -0.1776  2.7280
  909MOL0     H22712   3.805   9.918   4.335  0.3388  2.6326 -0.1080
  909MOL0     H22713   3.717   9.643   4.384  0.5595 -0.7702 -1.4042
  909MOL0     H22714   3.626   9.585   4.258  2.5777 -1.6026 -0.6645
  909MOL0     H22715   3.759   9.678   4.214 -0.8348 -1.6698 -0.9056
  910MOL0     O22716   4.226   6.111   9.762  0.5425 -0.2658 -0.3589
  910MOL0     C22717   4.315   6.180   9.816  0.4223  0.3173 -0.4496
  910MOL0     O22718   4.451   6.168   9.808 -0.0540 -0.4588  0.3613
  910MOL0     C22719   4.508   6.084   9.719 -0.6015 -0.2693  0.3852
  910MOL0     C22720   4.631   6.047   9.749 -0.4752 -0.9014  0.9823
  910MOL0     C22721   4.709   5.967   9.662 -0.0153  0.3154  0.1397
  910MOL0     C22722   4.648   5.931   9.544 -1.2568 -0.5440 -0.4127
  910MOL0     O22723   4.729   5.851   9.469  0.1151 -0.0284  0.2813
  910MOL0     C22724   4.680   5.811   9.342 -0.9732 -0.3201  0.9074
  910MOL0     C22725   4.809   5.797   9.252  0.0276  0.9691  0.5702
  910MOL0     C22726   4.876   5.668   9.296  0.4431  0.4181  0.3799
  910MOL0     C22727   4.995   5.631   9.202  0.8303  0.2093  1.0154
  910MOL0     C22728   5.057   5.499   9.245  0.0252  0.9110 -0.3348
  910MOL0     C22729   5.213   5.480   9.213 -0.0946  0.1857 -0.1178
  910MOL0     C22730   5.250   5.530   9.073 -1.6795  0.3509  0.2500
  910MOL0     C22731   5.397   5.511   9.031  0.0284 -0.8353  0.8304
  910MOL0     N22732   5.418   5.550   8.887 -0.4536 -0.1740 -0.2917
  910MOL0     C22733   5.383   5.680   8.848  1.2931 -0.2049 -0.4144
  910MOL0     C22734   5.422   5.672   8.719 -0.3738 -0.0522  0.3114
  910MOL0     C22735   5.437   5.797   8.632  0.9161 -0.0413  0.4816
  910MOL0     C22736   5.589   5.813   8.592  0.3517  0.2168 -0.5683
  910MOL0     C22737   5.616   5.930   8.497  0.5577 -0.3842  0.0889
  910MOL0     C22738   5.627   5.880   8.358  0.5779 -0.0578  0.4678
  910MOL0     O22739   5.644   5.992   8.268 -0.0825 -0.1837 -0.6403
  910MOL0     C22740   5.708   5.967   8.142 -1.1905 -0.7566 -0.4609
  910MOL0     C22741   5.759   6.078   8.082  0.4897  0.1445  0.3958
  910MOL0     C22742   5.819   6.069   7.952 -1.2935 -0.1249  0.3948
  910MOL0     C22743   5.826   5.949   7.885  0.6734  1.0571 -0.3344
  910MOL0     C22744   5.869   5.942   7.745  0.3025  0.0052 -0.5830
  910MOL0     O22745   5.885   6.054   7.674 -0.0391 -0.7369 -0.1492
  910MOL0     C22746   5.947   6.056   7.548 -0.9079  0.0125  0.3420
  910MOL0     C22747   5.913   6.163   7.463 -0.0190 -0.3079  0.1335
  910MOL0     C22748   5.961   6.165   7.328 -0.3494 -0.3355  0.3212
  910MOL0     C22749   6.057   6.074   7.284 -0.1067 -1.2674 -1.6030
  910MOL0     O22750   6.119   6.100   7.162 -0.1715 -0.3617  0.0556
  910MOL0     C22751   6.204   6.000   7.099 -0.0823  0.1036 -0.0739
  910MOL0     C22752   6.260   6.061   6.966  0.5485 -0.0160  0.0525
  910MOL0     C22753   6.379   5.985   6.915 -0.3649  0.0911 -0.2381
  910MOL0     C22754   6.395   6.008   6.763  0.9019  1.3516  0.0286
  910MOL0     C22755   6.502   5.934   6.702  0.3983  0.7018  0.1406
  910MOL0     C22756   6.638   5.964   6.760 -1.0595  1.0366 -0.5191
  910MOL0     C22757   6.758   5.870   6.699  1.6768 -1.0537  0.4695
  910MOL0     C22758   6.889   5.931   6.744  0.3498 -0.5649 -0.0142
  910MOL0    Cl22759   6.889   6.100   6.675  0.4092 -0.1642  0.6491
  910MOL0     C22760   6.091   5.977   7.376 -0.4008 -0.0185 -0.0710
  910MOL0     C22761   6.047   5.971   7.502  0.1471  0.4175 -0.5761
  910MOL0     O22762   5.906   5.834   7.712  0.7436  0.2065  0.4851
  910MOL0     C22763   5.787   5.830   7.953  0.3931  0.0559 -0.8434
  910MOL0     C22764   5.727   5.845   8.078 -0.2370 -0.0560  0.5352
  910MOL0     N22765   5.464   5.545   8.684  0.2231  0.0132 -0.4577
  910MOL0     N22766   5.466   5.476   8.789  0.1889 -0.3023  0.3723
  910MOL0     C22767   4.527   5.990   9.507 -0.0334  0.1799  0.4645
  910MOL0     C22768   4.457   6.066   9.599 -0.2618 -0.2019  0.9724
  910MOL0     C22769   4.273   6.286   9.910 -0.5269  0.8981  0.2147
  910MOL0     C22770   4.359   6.310  10.010  0.2804 -0.4890 -0.1937
  910MOL0     C22771   4.326   6.399  10.115 -0.1922  0.2417 -0.2185
  910MOL0     C22772   4.197   6.444  10.124  0.3574 -0.3816 -0.3812
  910MOL0     O22773   4.173   6.535  10.222 -0.3996  0.1592 -0.3814
  910MOL0     C22774   4.067   6.496  10.312  0.0332  0.3369 -0.7462
  910MOL0     C22775   4.103   6.368  10.393  0.2690 -0.2105 -0.3405
  910MOL0     C22776   4.227   6.397  10.492 -0.0285 -0.2521  0.8751
  910MOL0     C22777   4.277   6.275  10.564  0.4046 -0.7336 -0.0912
  910MOL0     C22778   4.416   6.307  10.610  0.4248 -0.3719  0.2792
  910MOL0     C22779   4.527   6.328  10.648  0.4820  0.1565  0.0678
  910MOL0     C22780   4.101   6.414  10.024 -0.9582  0.1119 -0.7601
  910MOL0     C22781   4.140   6.331   9.923 -0.4883  0.2595  0.2155
  910MOL0     C22782   4.041   6.309   9.806 -0.8061  0.7949 -0.9680
  910MOL0     H22783   4.662   6.089   9.844 -1.0487  0.6162  0.5314
  910MOL0     H22784   4.810   5.941   9.695  0.1886  2.4018  1.3755
  910MOL0     H22785   4.620   5.721   9.329 -0.2770 -0.6089 -0.4727
  910MOL0     H22786   4.634   5.898   9.295  2.3476  0.5526 -1.0884
  910MOL0     H22787   4.880   5.880   9.263  0.2692  0.7203  0.9096
  910MOL0     H22788   4.775   5.786   9.149  1.4655  3.0120 -0.1876
  910MOL0     H22789   4.799   5.591   9.286  0.5617  0.3291  0.1434
  910MOL0     H22790   4.914   5.659   9.398 -2.5409 -0.6817  1.5052
  910MOL0     H22791   4.969   5.623   9.096  0.1817  1.0583  1.0955
  910MOL0     H22792   5.081   5.699   9.212  0.4003  1.4263 -2.3750
  910MOL0     H22793   5.051   5.486   9.353  4.3043  0.5059  0.0164
  910MOL0     H22794   5.000   5.419   9.198 -0.1343  0.5567  0.4468
  910MOL0     H22795   5.267   5.537   9.289  0.0646  1.1868 -0.9594
  910MOL0     H22796   5.239   5.375   9.234  0.6701  0.5089  0.5834
  910MOL0     H22797   5.229   5.637   9.064 -3.1344  0.1671  1.0442
  910MOL0     H22798   5.179   5.484   9.003 -4.0251  5.7994 -1.5080
  910MOL0     H22799   5.464   5.567   9.096  1.2991 -1.5157  0.1551
  910MOL0     H22800   5.408   5.403   9.043  1.3894 -0.9665 -1.1751
  910MOL0     H22801   5.339   5.760   8.908  0.1473 -0.8986 -0.3043
  910MOL0     H22802   5.370   5.787   8.547 -0.7930  0.3695  1.7156
  910MOL0     H22803   5.405   5.878   8.699 -0.2895 -1.5115  1.7383
  910MOL0     H22804   5.644   5.835   8.685 -3.5798  1.2912  1.7423
  910MOL0     H22805   5.628   5.720   8.551 -0.3682 -0.0019 -0.7595
  910MOL0     H22806   5.705   5.992   8.513 -0.6926  1.6809 -0.6131
  910MOL0     H22807   5.533   6.001   8.499  0.3324 -0.5435 -1.8700
  910MOL0     H22808   5.542   5.819   8.326 -0.3310  1.2171  0.3937
  910MOL0     H22809   5.719   5.821   8.349  0.0945 -0.7595  0.0602
  910MOL0     H22810   5.759   6.175   8.131 -1.0954 -0.7896  2.3845
  910MOL0     H22811   5.861   6.150   7.892 -0.0485  1.0584  2.6956
  910MOL0     H22812   5.838   6.236   7.491  0.7172  0.1581  0.9122
  910MOL0     H22813   5.939   6.252   7.266 -0.9680 -0.5894  0.1819
  910MOL0     H22814   6.278   5.969   7.174 -0.9887 -3.2780 -0.4487
  910MOL0     H22815   6.141   5.913   7.080  0.6101  0.2695 -3.9536
  910MOL0     H22816   6.183   6.061   6.888 -1.8680 -3.0664  2.1681
  910MOL0     H22817   6.293   6.165   6.977  2.2331 -0.4861 -0.3208
  910MOL0     H22818   6.467   6.015   6.973 -0.5850 -0.1422  0.2277
  910MOL0     H22819   6.358   5.880   6.934 -0.0834  0.1640  0.5229
  910MOL0     H22820   6.406   6.115   6.743  0.6490  1.1943 -1.0260
  910MOL0     H22821   6.300   5.981   6.716  1.9925 -0.0078 -1.5338
  910MOL0     H22822   6.502   5.946   6.593  3.2828 -1.7686 -0.2768
  910MOL0     H22823   6.477   5.831   6.729 -0.0887  0.9393  0.5944
  910MOL0     H22824   6.670   6.068   6.756  4.3026 -0.1274  1.8228
  910MOL0     H22825   6.626   5.947   6.868 -4.6919 -1.8981 -1.1734
  910MOL0     H22826   6.747   5.870   6.590 -0.7952  2.6821  0.5137
  910MOL0     H22827   6.743   5.770   6.741  0.0920  0.5490  4.1995
  910MOL0     H22828   6.887   5.944   6.853  0.0684 -1.5448  0.1037
  910MOL0     H22829   6.982   5.881   6.717  0.8115  0.2310  0.0615
  910MOL0     H22830   6.160   5.897   7.352  0.7209 -0.1173  3.0420
  910MOL0     H22831   6.090   5.904   7.576 -0.6457 -0.1186 -0.5877
  910MOL0     H22832   5.814   5.732   7.914  2.4728  0.8701 -1.6213
  910MOL0     H22833   5.686   5.763   8.135 -2.2346  0.8504  0.4879
  910MOL0     H22834   4.476   5.963   9.415 -1.4534  1.0616  0.9674
  910MOL0     H22835   4.368   6.113   9.557 -1.6490 -2.3123  1.3818
  910MOL0     H22836   4.458   6.268  10.027  1.6824  2.9064  0.9755
  910MOL0     H22837   4.410   6.429  10.177  0.3501 -0.4467 -0.5964
  910MOL0     H22838   3.984   6.465  10.248 -0.4169 -0.0912  0.0246
  910MOL0     H22839   4.045   6.580  10.378  1.2764 -0.2474  0.4710
  910MOL0     H22840   4.130   6.288  10.324  1.5863 -1.1376  1.1804
  910MOL0     H22841   4.018   6.329  10.449  0.4561 -0.4988 -0.2531
  910MOL0     H22842   4.195   6.464  10.572  1.7739 -0.0163  1.4553
  910MOL0     H22843   4.302   6.448  10.431 -0.6545  1.7112  1.6655
  910MOL0     H22844   4.215   6.246  10.650  0.7878 -5.5817 -1.1449
  910MOL0     H22845   4.277   6.192  10.493  0.9975 -1.5900  0.8658
  910MOL0     H22846   4.628   6.343  10.682  0.8541  1.6100 -1.5023
  910MOL0     H22847   4.001   6.457  10.017 -0.2687  1.7116 -1.5115
  910MOL0     H22848   3.945   6.358   9.820 -2.0930 -1.5243 -1.1091
  910MOL0     H22849   4.092   6.342   9.715  1.0632  1.9626  0.4142
  910MOL0     H22850   4.026   6.201   9.793  2.5935 -0.0940  1.2303
  911MOL0     O22851   4.238   3.257   1.585  0.0163  0.6475  0.1318
  911MOL0     C22852   4.358   3.285   1.568 -0.0856 -0.8541  0.5247
  911MOL0     O22853   4.469   3.196   1.576 -0.1279  0.1171  0.2238
  911MOL0     C22854   4.448   3.071   1.634  0.5817  0.1558  0.5709
  911MOL0     C22855   4.423   3.062   1.774 -0.0393  0.6017  0.4421
  911MOL0     C22856   4.400   2.936   1.831 -1.1505  0.1355 -0.0415
  911MOL0     C22857   4.370   2.830   1.750 -1.7850 -0.2139  0.5207
  911MOL0     O22858   4.333   2.717   1.813  0.0309  0.0384  0.1662
  911MOL0     C22859   4.318   2.595   1.735  0.3230  0.5961 -0.9734
  911MOL0     C22860   4.274   2.484   1.840  0.1778  0.5117  0.4197
  911MOL0     C22861   4.131   2.504   1.909 -0.1416 -0.3275 -0.5566
  911MOL0     C22862   4.074   2.394   1.984  0.2939  0.4855  0.7253
  911MOL0     C22863   4.144   2.355   2.118  0.4048 -0.9083  0.6411
  911MOL0     C22864   4.063   2.245   2.186 -0.2370  0.2624  0.3511
  911MOL0     C22865   4.155   2.122   2.196 -0.2000 -0.4519  0.8382
  911MOL0     C22866   4.184   2.050   2.055 -0.1239 -0.1449 -0.4576
  911MOL0     N22867   4.190   1.904   2.075  0.6536 -0.0062  0.6071
  911MOL0     C22868   4.274   1.837   2.165 -0.4769  1.1193 -0.8240
  911MOL0     C22869   4.228   1.706   2.140 -0.2770 -1.0283  0.0637
  911MOL0     C22870   4.258   1.581   2.200 -0.4722  0.5225 -0.0670
  911MOL0     C22871   4.320   1.577   2.334  0.5115  0.2269 -0.0932
  911MOL0     C22872   4.311   1.438   2.410 -0.5389 -0.5097 -0.1874
  911MOL0     C22873   4.180   1.369   2.425  0.7889 -0.0618  0.1388
  911MOL0     O22874   4.184   1.278   2.536  0.7383 -0.4873  0.1921
  911MOL0     C22875   4.093   1.285   2.648  0.9273  0.6836  0.1154
  911MOL0     C22876   3.987   1.374   2.665 -0.8351 -0.9731  0.4582
  911MOL0     C22877   3.891   1.348   2.769  0.4285  1.0586  0.3539
  911MOL0     C22878   3.910   1.237   2.853 -0.1022 -0.4387  0.1969
  911MOL0     C22879   3.834   1.225   2.974  0.3578 -0.5069  1.2497
  911MOL0     O22880   3.884   1.134   3.073  0.0131  0.5951 -0.3304
  911MOL0     C22881   3.812   1.109   3.192 -0.3327  0.5056 -0.2772
  911MOL0     C22882   3.864   1.180   3.306  0.1131 -0.1592 -0.4058
  911MOL0     C22883   3.792   1.169   3.428  1.1879  0.4581  0.9614
  911MOL0     C22884   3.672   1.090   3.443  1.1467 -0.1151  0.1090
  911MOL0     O22885   3.588   1.090   3.557  0.0776 -0.6030  0.4487
  911MOL0     C22886   3.628   1.005   3.669 -0.4066  0.8196  0.8474
  911MOL0     C22887   3.755   1.061   3.744  0.5165 -0.3474 -0.4481
  911MOL0     C22888   3.819   0.973   3.841 -0.7340  0.4438 -0.3722
  911MOL0     C22889   3.923   1.038   3.919 -0.0311 -0.1489  0.3772
  911MOL0     C22890   3.981   0.936   4.011  0.8307  0.5543  0.3806
  911MOL0     C22891   4.113   0.976   4.077 -0.0319 -0.7427  0.3005
  911MOL0     C22892   4.187   0.851   4.132  0.0064  0.5253  0.0281
  911MOL0     C22893   4.333   0.886   4.178  0.1739 -0.2638  0.4935
  911MOL0    Cl22894   4.387   0.770   4.296  0.5456  0.1444 -0.0087
  911MOL0     C22895   3.643   1.019   3.332  0.4625  0.1196  0.1598
  911MOL0     C22896   3.706   1.014   3.207  0.2386 -0.3011 -0.0939
  911MOL0     O22897   3.726   1.282   2.980  0.6387  0.2232  0.5938
  911MOL0     C22898   4.023   1.158   2.843  0.4174  0.0703  0.3859
  911MOL0     C22899   4.109   1.186   2.742  0.1845  0.2951 -0.5756
  911MOL0     N22900   4.149   1.704   2.025  0.3456 -0.0388 -0.9578
  911MOL0     N22901   4.128   1.824   1.985 -1.0942 -0.7299 -0.2371
  911MOL0     C22902   4.384   2.842   1.611 -0.0387  0.4769  0.2720
  911MOL0     C22903   4.430   2.958   1.553 -0.4240  0.5323  0.6891
  911MOL0     C22904   4.389   3.414   1.505  0.6540 -1.0192  0.1990
  911MOL0     C22905   4.494   3.419   1.406  1.9005 -0.8994 -1.4262
  911MOL0     C22906   4.520   3.538   1.337  0.1997 -0.1383 -0.2584
  911MOL0     C22907   4.456   3.660   1.375 -0.0636 -0.2295  0.0788
  911MOL0     O22908   4.487   3.778   1.319  0.5766 -0.7071  0.2628
  911MOL0     C22909   4.616   3.825   1.372 -0.1628  0.4406  0.8317
  911MOL0     C22910   4.717   3.863   1.265  1.1659  0.3547 -0.2265
  911MOL0     C22911   4.673   4.000   1.216 -0.8539 -0.3389  0.4753
  911MOL0     C22912   4.561   4.005   1.115 -1.0630 -0.3462 -0.5769
  911MOL0     C22913   4.545   4.141   1.057 -0.0720  0.6323  0.8884
  911MOL0     C22914   4.527   4.244   1.001 -0.1303  0.2624  0.9174
  911MOL0     C22915   4.345   3.650   1.455  0.1353  0.2386 -0.0556
  911MOL0     C22916   4.310   3.533   1.519  0.1447  0.0900 -1.0712
  911MOL0     C22917   4.188   3.549   1.616 -0.0514  0.3016  0.2428
  911MOL0     H22918   4.449   3.154   1.826  4.0453  1.6289 -2.7841
  911MOL0     H22919   4.403   2.923   1.939  2.1949 -0.0524 -0.0576
  911MOL0     H22920   4.251   2.598   1.648  1.0013 -2.2645 -1.6946
  911MOL0     H22921   4.418   2.572   1.697  2.4911  5.7971  0.6428
  911MOL0     H22922   4.346   2.480   1.923  1.3559  1.4680 -0.5128
  911MOL0     H22923   4.279   2.390   1.786 -0.3317  1.6088 -1.6437
  911MOL0     H22924   4.074   2.528   1.819  0.8799 -1.4670 -1.5348
  911MOL0     H22925   4.130   2.586   1.981 -1.0312 -0.5718 -0.2761
  911MOL0     H22926   3.970   2.423   2.005 -0.8282 -1.1050 -2.0235
  911MOL0     H22927   4.059   2.304   1.924 -0.5312  0.7653  0.4893
  911MOL0     H22928   4.248   2.341   2.087  1.3265  2.1793  1.9315
  911MOL0     H22929   4.146   2.442   2.185  1.9924 -0.5380  0.1598
  911MOL0     H22930   4.034   2.260   2.290 -0.4796 -0.7816  0.4472
  911MOL0     H22931   3.973   2.212   2.133  1.8332 -1.0664 -2.6076
  911MOL0     H22932   4.101   2.047   2.255 -1.0167  0.1154  0.8252
  911MOL0     H22933   4.242   2.146   2.258  1.3896 -4.0769  0.2958
  911MOL0     H22934   4.096   2.062   1.992 -1.2661 -1.8961  0.7164
  911MOL0     H22935   4.277   2.092   2.016  0.1037  2.8147  2.8346
  911MOL0     H22936   4.337   1.866   2.248 -1.1183  2.9892 -0.9514
  911MOL0     H22937   4.155   1.544   2.202 -1.1163  2.2281  0.1951
  911MOL0     H22938   4.319   1.525   2.128 -1.1184 -1.1756  0.6570
  911MOL0     H22939   4.418   1.626   2.334  1.5356 -1.7359 -0.4170
  911MOL0     H22940   4.255   1.640   2.396 -1.1405 -0.8978 -0.6158
  911MOL0     H22941   4.349   1.447   2.512 -4.9743 -3.4679  2.0370
  911MOL0     H22942   4.377   1.370   2.355 -0.2058  0.1604 -0.6207
  911MOL0     H22943   4.180   1.298   2.342 -5.4412  0.4736 -0.8260
  911MOL0     H22944   4.091   1.429   2.407 -0.4682 -2.4974 -2.7140
  911MOL0     H22945   3.979   1.462   2.601 -1.2100  0.0389  1.8480
  911MOL0     H22946   3.797   1.401   2.779 -0.0344  0.5245 -0.8803
  911MOL0     H22947   3.943   1.254   3.311 -1.5592  1.7012  0.5170
  911MOL0     H22948   3.809   1.240   3.508 -4.6393  0.4740  2.6413
  911MOL0     H22949   3.541   0.993   3.734  0.8682 -0.2590  2.4208
  911MOL0     H22950   3.653   0.908   3.624 -4.3040 -0.1371  0.3975
  911MOL0     H22951   3.834   1.095   3.676 -0.0268  1.0628 -0.4121
  911MOL0     H22952   3.718   1.140   3.809 -2.7595 -3.1575  1.4325
  911MOL0     H22953   3.742   0.941   3.911 -1.8720  1.4796 -1.1165
  911MOL0     H22954   3.860   0.882   3.797 -2.5121 -0.7804  0.4265
  911MOL0     H22955   3.881   1.115   3.985  0.7012  3.7087 -3.2253
  911MOL0     H22956   4.002   1.081   3.856  2.6540 -5.4501 -0.4530
  911MOL0     H22957   4.000   0.856   3.939 -0.9746  1.7402 -1.5470
  911MOL0     H22958   3.910   0.903   4.088 -0.3583 -0.0747 -0.9321
  911MOL0     H22959   4.172   1.043   4.013  0.1034 -0.7525  0.4153
  911MOL0     H22960   4.085   1.034   4.165 -1.5261  1.4910 -1.5328
  911MOL0     H22961   4.177   0.782   4.048  1.2686 -1.2252  1.2434
  911MOL0     H22962   4.132   0.817   4.220 -1.2155  1.9771 -0.1336
  911MOL0     H22963   4.403   0.903   4.096  0.1166 -0.9036  0.3052
  911MOL0     H22964   4.320   0.989   4.212  1.9035  0.9707 -2.3087
  911MOL0     H22965   3.551   0.964   3.349  0.2729  1.1328  2.8590
  911MOL0     H22966   3.670   0.944   3.133  0.4205 -0.8256  0.3070
  911MOL0     H22967   4.036   1.083   2.921  0.2738  0.0366  0.3792
  911MOL0     H22968   4.196   1.122   2.735  1.1558  1.3385  1.1241
  911MOL0     H22969   4.354   2.768   1.537  1.0223 -0.9069  1.1719
  911MOL0     H22970   4.443   2.954   1.446 -0.2117  0.7679  0.7050
  911MOL0     H22971   4.545   3.326   1.387  3.6571 -0.7954  1.9520
  911MOL0     H22972   4.582   3.543   1.248 -2.0489 -1.8217 -2.0639
  911MOL0     H22973   4.675   3.750   1.426  0.3712 -1.5106 -2.2286
  911MOL0     H22974   4.597   3.915   1.431 -1.0330 -1.3089  3.3565
  911MOL0     H22975   4.711   3.789   1.185  0.5233 -0.0324  0.1731
  911MOL0     H22976   4.820   3.872   1.300  2.3919 -2.0113 -2.7783
  911MOL0     H22977   4.762   4.032   1.161 -1.0929  0.6735  0.6600
  911MOL0     H22978   4.665   4.065   1.303 -1.1806  0.7825 -0.3739
  911MOL0     H22979   4.585   3.922   1.047 -0.1099 -1.7962  1.4486
  911MOL0     H22980   4.464   3.974   1.155  0.5588 -3.5991  1.2089
  911MOL0     H22981   4.505   4.339   0.956 -2.6230 -0.4363  0.5121
  911MOL0     H22982   4.269   3.724   1.474 -2.6116 -2.4824  0.2345
  911MOL0     H22983   4.093   3.519   1.572  0.0930  3.2094 -2.3776
  911MOL0     H22984   4.210   3.492   1.707  0.8337 -0.9927 -0.7383
  911MOL0     H22985   4.174   3.654   1.642 -0.4220  0.6957 -1.4121
  912MOL0     O22986   3.299   5.019   8.056  0.9546 -0.7509 -0.1696
  912MOL0     C22987   3.259   4.972   7.955 -0.9112  0.0114  0.0120
  912MOL0     O22988   3.320   5.012   7.831 -0.2551  0.2637 -0.1251
  912MOL0     C22989   3.422   5.106   7.841  0.3479 -0.1704 -0.3584
  912MOL0     C22990   3.414   5.220   7.765  0.8139 -0.2383  0.3936
  912MOL0     C22991   3.509   5.315   7.747 -0.0114 -0.9504 -0.4361
  912MOL0     C22992   3.634   5.293   7.817  0.7284  0.3220  0.2787
  912MOL0     O22993   3.737   5.375   7.800 -0.8027  0.0018  0.2319
  912MOL0     C22994   3.745   5.470   7.910 -0.2135 -0.6765  0.3078
  912MOL0     C22995   3.641   5.575   7.888  0.2183 -0.0850 -0.4208
  912MOL0     C22996   3.681   5.687   7.978 -0.7288  0.1249 -0.5152
  912MOL0     C22997   3.574   5.807   7.963 -0.3870 -0.6695 -0.7355
  912MOL0     C22998   3.646   5.942   7.982  0.7077  0.4521  0.3437
  912MOL0     C22999   3.678   5.954   8.144  1.2819  0.4250  0.1472
  912MOL0     C23000   3.742   6.089   8.180  0.8709 -0.6064  0.1447
  912MOL0     C23001   3.896   6.113   8.169 -0.0801 -0.4469  0.6394
  912MOL0     N23002   3.953   6.101   8.035  1.0357 -0.2467 -0.4602
  912MOL0     C23003   4.003   5.990   7.973 -0.4647  1.3074  0.1858
  912MOL0     C23004   4.027   6.027   7.850 -0.1371  0.4289  0.1441
  912MOL0     C23005   4.102   5.940   7.740  0.1428  0.4438  0.3143
  912MOL0     C23006   4.008   5.877   7.635  0.6042 -0.1768 -0.2923
  912MOL0     C23007   3.892   5.962   7.569  0.5001 -0.4354 -0.0991
  912MOL0     C23008   3.821   5.884   7.453  0.6153 -0.7184  0.2106
  912MOL0     O23009   3.766   5.756   7.502  0.9555  0.3533  0.3772
  912MOL0     C23010   3.691   5.667   7.436  0.9528  0.5667  0.5284
  912MOL0     C23011   3.628   5.702   7.319 -0.4156  0.3783  0.0706
  912MOL0     C23012   3.534   5.620   7.264 -0.1962  1.0640 -0.1137
  912MOL0     C23013   3.523   5.482   7.302  0.0960  0.3028 -1.2249
  912MOL0     C23014   3.437   5.397   7.221 -0.3899  0.3009  0.8686
  912MOL0     O23015   3.397   5.448   7.091  0.3132  0.0761  0.6461
  912MOL0     C23016   3.349   5.351   7.000  0.0229 -0.2994 -0.0984
  912MOL0     C23017   3.440   5.307   6.908 -0.5871 -0.2573  1.0752
  912MOL0     C23018   3.407   5.198   6.835  0.9350  0.1122  0.2281
  912MOL0     C23019   3.273   5.153   6.842  0.1526 -0.0027 -0.2447
  912MOL0     O23020   3.227   5.040   6.779 -0.5853  0.0996 -0.4277
  912MOL0     C23021   3.334   4.948   6.740 -0.0363  0.2183  0.1709
  912MOL0     C23022   3.260   4.821   6.685 -0.7007  0.4776  0.3981
  912MOL0     C23023   3.159   4.765   6.786  0.5318  0.8139  0.1480
  912MOL0     C23024   3.073   4.638   6.742  0.6562 -1.2760 -0.0234
  912MOL0     C23025   2.954   4.615   6.842 -0.3360 -0.2986  0.6141
  912MOL0     C23026   2.902   4.469   6.832  0.4566  0.8190 -0.3099
  912MOL0     C23027   2.750   4.432   6.862 -0.1580 -0.1679 -0.2196
  912MOL0     C23028   2.727   4.468   7.011 -0.4127 -0.0202  0.9416
  912MOL0    Cl23029   2.579   4.388   7.086 -0.0721 -0.1411  0.1742
  912MOL0     C23030   3.181   5.215   6.927 -0.4737 -0.5275  0.6848
  912MOL0     C23031   3.212   5.313   7.010 -0.2108 -0.2332  0.3816
  912MOL0     O23032   3.415   5.280   7.259  0.7175 -0.1289  0.3319
  912MOL0     C23033   3.590   5.444   7.420  1.3824  0.4044  0.3067
  912MOL0     C23034   3.677   5.534   7.475 -0.9433 -0.5871  0.0901
  912MOL0     N23035   3.992   6.159   7.832  1.3348 -0.1056  0.7216
  912MOL0     N23036   3.948   6.205   7.942 -0.2790 -0.0685  0.0337
  912MOL0     C23037   3.656   5.170   7.879 -0.1904 -0.2882 -0.3401
  912MOL0     C23038   3.555   5.079   7.892  0.3459  0.0382  0.4505
  912MOL0     C23039   3.148   4.872   7.968  0.6318  0.7324 -0.2301
  912MOL0     C23040   3.115   4.817   8.097  0.3441  0.8710 -0.9845
  912MOL0     C23041   2.996   4.734   8.109  0.4475 -0.2776  1.0272
  912MOL0     C23042   2.896   4.724   8.005 -0.5774 -0.3559  0.2561
  912MOL0     O23043   2.781   4.652   8.017 -0.2154 -0.8011 -0.2983
  912MOL0     C23044   2.715   4.658   8.144 -0.1792 -0.5540  0.2942
  912MOL0     C23045   2.665   4.799   8.193 -0.5095 -0.1321 -0.3296
  912MOL0     C23046   2.564   4.855   8.087  0.1835  0.0714  0.4375
  912MOL0     C23047   2.453   4.941   8.146  0.1663 -0.2650 -0.5060
  912MOL0     C23048   2.371   4.881   8.254 -0.2399  1.0156 -0.6797
  912MOL0     C23049   2.311   4.846   8.355  0.6403  0.6308  0.0975
  912MOL0     C23050   2.928   4.785   7.882 -0.6074  0.3742 -0.7327
  912MOL0     C23051   3.058   4.846   7.857  0.6289 -0.4734  0.1155
  912MOL0     C23052   3.072   4.884   7.714  0.0391  0.1254 -0.3641
  912MOL0     H23053   3.320   5.230   7.712  0.0068 -2.3131  1.3109
  912MOL0     H23054   3.496   5.400   7.681  0.5280  0.3357  1.0440
  912MOL0     H23055   3.723   5.421   8.005  1.2190  2.5323  2.4530
  912MOL0     H23056   3.847   5.506   7.923  0.5963 -2.3756 -0.9243
  912MOL0     H23057   3.549   5.524   7.920 -0.5884  0.8854 -1.1397
  912MOL0     H23058   3.628   5.599   7.782 -0.6138  0.6618 -0.1674
  912MOL0     H23059   3.781   5.709   7.941 -1.7381  1.2243 -2.7810
  912MOL0     H23060   3.678   5.663   8.085  2.3267  1.5807  0.0251
  912MOL0     H23061   3.539   5.786   7.861  2.1225  0.0867 -1.8491
  912MOL0     H23062   3.488   5.810   8.030 -2.1307  0.2260 -2.8595
  912MOL0     H23063   3.737   5.940   7.921 -0.3197  2.8420 -1.4339
  912MOL0     H23064   3.586   6.031   7.961  1.0841  0.3121 -1.5217
  912MOL0     H23065   3.583   5.933   8.194  1.2290  0.0028 -0.1244
  912MOL0     H23066   3.747   5.871   8.162 -2.5289 -2.5800  2.5533
  912MOL0     H23067   3.719   6.108   8.285 -1.1337 -0.7531 -0.2390
  912MOL0     H23068   3.699   6.164   8.112 -1.3958  0.9727  3.0919
  912MOL0     H23069   3.913   6.217   8.196  3.1327 -1.0981  1.6047
  912MOL0     H23070   3.952   6.043   8.232  1.6903 -1.6024 -2.0286
  912MOL0     H23071   4.012   5.893   8.021 -0.7926 -0.9014 -3.7365
  912MOL0     H23072   4.178   5.997   7.687  1.1379  1.4354  2.6875
  912MOL0     H23073   4.152   5.851   7.781 -2.7436 -0.9373  1.1355
  912MOL0     H23074   4.055   5.836   7.545 -3.4660  0.2962 -2.8705
  912MOL0     H23075   3.957   5.790   7.678  0.1296 -2.1899 -4.4138
  912MOL0     H23076   3.927   6.059   7.531 -2.7180  0.3168 -1.4330
  912MOL0     H23077   3.819   5.982   7.648  1.5221 -0.1032  0.7905
  912MOL0     H23078   3.884   5.859   7.367 -2.6532 -2.4958 -1.8836
  912MOL0     H23079   3.746   5.949   7.408  1.0125 -0.7877 -0.5567
  912MOL0     H23080   3.644   5.803   7.282  2.0924 -0.3851 -1.1329
  912MOL0     H23081   3.475   5.655   7.180 -1.3927  2.6472  1.3090
  912MOL0     H23082   3.541   5.347   6.909 -1.1386  1.1782  2.0998
  912MOL0     H23083   3.480   5.158   6.766 -0.7011 -1.3151 -0.7499
  912MOL0     H23084   3.409   4.989   6.673 -0.3278  0.7615  0.1660
  912MOL0     H23085   3.382   4.911   6.831 -0.2653 -2.0102 -0.5760
  912MOL0     H23086   3.225   4.847   6.585  1.6562  0.2690 -0.5388
  912MOL0     H23087   3.342   4.749   6.678  0.6132  1.8511  1.0919
  912MOL0     H23088   3.206   4.735   6.880 -2.1892 -2.4499  0.6617
  912MOL0     H23089   3.083   4.839   6.814 -1.0074 -0.2522 -1.0176
  912MOL0     H23090   3.142   4.552   6.737  3.3053  0.7694 -1.0673
  912MOL0     H23091   3.036   4.653   6.641  2.9842  2.0560 -0.5640
  912MOL0     H23092   2.876   4.687   6.817  0.2603  1.3195  3.0823
  912MOL0     H23093   2.976   4.632   6.948 -2.0736  0.9872  0.8097
  912MOL0     H23094   2.918   4.436   6.729  1.3996 -0.6751  0.2705
  912MOL0     H23095   2.966   4.408   6.896  1.0074  3.5902  1.9536
  912MOL0     H23096   2.738   4.325   6.844  2.4942 -0.5480 -0.1787
  912MOL0     H23097   2.681   4.498   6.809  1.6811  3.7256  1.8243
  912MOL0     H23098   2.816   4.429   7.061  0.9836 -1.3513 -2.3464
  912MOL0     H23099   2.718   4.576   7.023  1.0964  0.5096 -1.8741
  912MOL0     H23100   3.080   5.176   6.932 -1.0107  0.8332  0.8163
  912MOL0     H23101   3.144   5.339   7.091 -0.0612  4.3434 -0.6632
  912MOL0     H23102   3.570   5.342   7.452 -6.2376  0.5656 -1.9652
  912MOL0     H23103   3.728   5.511   7.569 -0.5070  0.0599  0.0164
  912MOL0     H23104   3.751   5.140   7.922  0.6521  4.1518  1.4080
  912MOL0     H23105   3.573   4.990   7.952 -3.7606 -0.5802  1.0532
  912MOL0     H23106   3.186   4.841   8.175  0.2915 -3.7913  0.8277
  912MOL0     H23107   2.979   4.702   8.211 -0.7404 -0.7112  0.7041
  912MOL0     H23108   2.783   4.617   8.219 -0.4015 -0.2974  0.6387
  912MOL0     H23109   2.631   4.590   8.127 -0.3801  0.4959 -4.0561
  912MOL0     H23110   2.745   4.872   8.210 -0.8727 -0.1014  1.4157
  912MOL0     H23111   2.623   4.797   8.294 -1.8605 -1.9619 -0.8854
  912MOL0     H23112   2.528   4.772   8.025  1.9191  0.2769 -0.9571
  912MOL0     H23113   2.621   4.914   8.015 -1.3206  0.7636 -0.2246
  912MOL0     H23114   2.502   5.027   8.193  0.4890 -1.2848  1.0862
  912MOL0     H23115   2.382   4.985   8.075 -1.9535  1.7186  2.5823
  912MOL0     H23116   2.269   4.822   8.450 -2.5717  0.7966 -1.1722
  912MOL0     H23117   2.871   4.776   7.791  1.0173 -4.1779 -1.5452
  912MOL0     H23118   3.049   4.988   7.689 -0.9876 -0.5317 -2.4447
  912MOL0     H23119   3.178   4.891   7.686  0.1019  0.4602 -0.0412
  912MOL0     H23120   3.018   4.817   7.645  1.1199  2.1941 -3.4423
  913MOL0     O23121   2.533   9.621  11.480 -0.2630 -0.0089 -0.4680
  913MOL0     C23122   2.653   9.630  11.506  0.3562  0.1395  0.5732
  913MOL0     O23123   2.755   9.545  11.469  0.1055 -0.4823 -0.4075
  913MOL0     C23124   2.735   9.442  11.383 -0.1982  0.2063  0.8046
  913MOL0     C23125   2.793   9.324  11.417 -0.7723 -0.2638  0.4891
  913MOL0     C23126   2.791   9.209  11.331  0.5695 -0.6030 -0.4100
  913MOL0     C23127   2.723   9.222  11.208 -0.0569  0.2330  0.0613
  913MOL0     O23128   2.709   9.118  11.122  0.1294 -0.1866  0.2816
  913MOL0     C23129   2.714   8.985  11.171 -0.2330  0.0194  0.5803
  913MOL0     C23130   2.698   8.894  11.055  0.2270  1.2598  0.3188
  913MOL0     C23131   2.671   8.741  11.060 -0.5211  0.1189 -0.6254
  913MOL0     C23132   2.801   8.684  11.126 -0.2954 -0.2015 -0.9258
  913MOL0     C23133   2.787   8.530  11.144  1.1954 -0.9576 -0.1545
  913MOL0     C23134   2.925   8.460  11.170  0.3063 -0.0576  0.3936
  913MOL0     C23135   2.986   8.484  11.305 -0.2093 -0.3642  0.2491
  913MOL0     C23136   3.133   8.453  11.315 -0.3415  0.3617  0.2162
  913MOL0     N23137   3.195   8.454  11.448 -0.1792  1.0702  0.0509
  913MOL0     C23138   3.206   8.559  11.542  0.7296  0.0090  0.6630
  913MOL0     C23139   3.282   8.515  11.641  0.4605  1.1512  0.5616
  913MOL0     C23140   3.336   8.605  11.756  1.2487 -0.1917  0.0648
  913MOL0     C23141   3.483   8.582  11.803  0.3747  0.4191 -0.1157
  913MOL0     C23142   3.590   8.602  11.700  0.3309  0.6922 -0.6293
  913MOL0     C23143   3.737   8.592  11.758  0.0838  0.6688  0.0967
  913MOL0     O23144   3.775   8.453  11.737 -0.3059  0.8545 -0.2164
  913MOL0     C23145   3.907   8.444  11.695 -0.0740 -1.1846  0.8319
  913MOL0     C23146   3.939   8.371  11.583  0.0312 -0.3205 -0.1881
  913MOL0     C23147   4.071   8.369  11.542  0.6363  0.6662  0.0718
  913MOL0     C23148   4.176   8.410  11.625  0.2450  0.1299  0.2066
  913MOL0     C23149   4.313   8.385  11.586  0.2761  0.5036 -0.1928
  913MOL0     O23150   4.331   8.295  11.483 -0.4172  1.0605 -0.5341
  913MOL0     C23151   4.461   8.253  11.444  0.9368  1.2938  0.8733
  913MOL0     C23152   4.559   8.348  11.418  0.3867 -0.4363  0.3612
  913MOL0     C23153   4.681   8.310  11.353 -0.6808 -0.6803  0.5022
  913MOL0     C23154   4.699   8.183  11.303 -0.9947  0.2000 -0.7639
  913MOL0     O23155   4.793   8.163  11.214  0.2898  0.3733 -0.4071
  913MOL0     C23156   4.896   8.058  11.244  0.5226  0.8374 -0.4668
  913MOL0     C23157   4.984   8.116  11.357  0.5138  0.0315 -0.1593
  913MOL0     C23158   5.110   8.025  11.387  0.7543 -0.4431  0.5369
  913MOL0     C23159   5.192   8.014  11.260  0.2320  0.8892 -0.0629
  913MOL0     C23160   5.313   7.930  11.302  0.2013  0.3380 -0.2752
  913MOL0     C23161   5.362   7.834  11.196  0.3411 -0.9268 -0.0013
  913MOL0     C23162   5.449   7.915  11.111  0.2057  0.0275  0.1766
  913MOL0     C23163   5.497   7.834  10.999  0.3067 -0.3135 -0.7939
  913MOL0    Cl23164   5.357   7.751  10.915  0.3125 -0.1515  0.2162
  913MOL0     C23165   4.598   8.077  11.334  0.2838 -0.0092 -0.5900
  913MOL0     C23166   4.484   8.114  11.404 -1.0423  0.5447  0.2161
  913MOL0     O23167   4.402   8.443  11.645 -0.1541  0.3936 -0.4209
  913MOL0     C23168   4.139   8.479  11.743  0.4933 -0.3889 -0.4665
  913MOL0     C23169   4.006   8.499  11.780  0.6862  1.3763  0.3760
  913MOL0     N23170   3.301   8.378  11.613 -0.0681 -1.2022  0.2480
  913MOL0     N23171   3.247   8.345  11.499 -0.9233  1.1179 -0.5146
  913MOL0     C23172   2.659   9.339  11.170  0.4192 -0.2488  0.0765
  913MOL0     C23173   2.663   9.452  11.258  0.2325 -0.7309 -0.0139
  913MOL0     C23174   2.701   9.742  11.586 -0.2566  0.1738 -1.1305
  913MOL0     C23175   2.764   9.846  11.522  0.4797  0.6431  0.1748
  913MOL0     C23176   2.783   9.964  11.583  0.1311 -0.0077 -0.3413
  913MOL0     C23177   2.755   9.982  11.720 -0.2616  0.2473  0.2351
  913MOL0     O23178   2.773  10.114  11.768 -0.8380  0.6241  0.0356
  913MOL0     C23179   2.729  10.132  11.901 -0.1464  0.4239  0.0264
  913MOL0     C23180   2.700  10.281  11.907  0.7151  0.1044 -1.3153
  913MOL0     C23181   2.624  10.321  11.776  0.9516 -0.0534  0.0885
  913MOL0     C23182   2.574  10.463  11.763 -0.6780 -0.2427  0.8462
  913MOL0     C23183   2.486  10.501  11.874 -0.3178  0.4783 -0.3279
  913MOL0     C23184   2.409  10.527  11.953 -0.2133 -0.1666 -0.0143
  913MOL0     C23185   2.714   9.864  11.792 -0.2042  0.1381 -1.0044
  913MOL0     C23186   2.665   9.749  11.726  0.1678  0.1497 -0.1557
  913MOL0     C23187   2.594   9.640  11.798 -0.8902  0.5353 -0.7536
  913MOL0     H23188   2.833   9.305  11.516  0.5724  1.5927  0.3471
  913MOL0     H23189   2.839   9.119  11.367  0.3089 -0.7757 -0.4902
  913MOL0     H23190   2.808   8.960  11.221  0.1831 -4.2034 -1.8007
  913MOL0     H23191   2.624   8.976  11.233  0.1575  0.4105  1.2217
  913MOL0     H23192   2.798   8.908  11.012  1.7810  1.5237  3.6635
  913MOL0     H23193   2.611   8.938  11.005  1.3143 -0.6510 -3.6630
  913MOL0     H23194   2.679   8.701  10.959  6.1368 -3.2997  0.6238
  913MOL0     H23195   2.576   8.729  11.113 -1.5727 -0.4123 -2.5487
  913MOL0     H23196   2.888   8.697  11.061  0.2245 -1.7079 -0.5698
  913MOL0     H23197   2.817   8.746  11.215 -3.3262  0.1111 -0.4644
  913MOL0     H23198   2.729   8.496  11.231  0.0837 -0.3412 -0.6309
  913MOL0     H23199   2.742   8.496  11.051  3.1561 -1.6905 -0.8920
  913MOL0     H23200   2.917   8.351  11.164  0.6511 -0.0159 -1.0862
  913MOL0     H23201   2.995   8.489  11.091 -0.9446 -0.0325 -0.7303
  913MOL0     H23202   2.934   8.427  11.383  0.0315  0.3347  0.9279
  913MOL0     H23203   2.974   8.585  11.344  3.6021  0.2969  0.1129
  913MOL0     H23204   3.160   8.360  11.264  0.9174  2.3535 -2.9996
  913MOL0     H23205   3.192   8.526  11.260 -0.0990  1.5266  1.9495
  913MOL0     H23206   3.180   8.664  11.538  0.8162  0.1496  2.5686
  913MOL0     H23207   3.324   8.712  11.738  1.0331 -0.5041 -1.7780
  913MOL0     H23208   3.270   8.578  11.840  1.7079  1.3621  0.9611
  913MOL0     H23209   3.483   8.643  11.893 -2.9395  0.5291 -0.0670
  913MOL0     H23210   3.487   8.481  11.846  0.1446  0.7165  0.6205
  913MOL0     H23211   3.580   8.702  11.658  2.0653  1.1521 -0.0343
  913MOL0     H23212   3.587   8.534  11.614  3.4193 -1.2021  0.5786
  913MOL0     H23213   3.754   8.615  11.863  1.0766 -2.7486  0.8026
  913MOL0     H23214   3.788   8.662  11.691 -0.7790 -1.4856 -3.0287
  913MOL0     H23215   3.860   8.327  11.522  0.2160 -3.2277  1.5151
  913MOL0     H23216   4.092   8.321  11.447  1.4836 -3.4254  2.0601
  913MOL0     H23217   4.556   8.456  11.426 -0.7256  0.1790 -5.0367
  913MOL0     H23218   4.752   8.384  11.317 -1.3378 -0.1870  0.2005
  913MOL0     H23219   4.858   7.958  11.267  1.4381  1.3393  4.2551
  913MOL0     H23220   4.941   8.050  11.144 -3.2080 -2.3589 -2.1287
  913MOL0     H23221   5.003   8.221  11.334  0.3274  0.0847 -0.0755
  913MOL0     H23222   4.916   8.114  11.443  0.8395  1.6279  0.1670
  913MOL0     H23223   5.167   8.060  11.473  0.5604 -2.5765  1.5889
  913MOL0     H23224   5.082   7.922  11.411  0.4969 -0.5685 -0.2523
  913MOL0     H23225   5.218   8.115  11.227 -1.4937  0.6952 -2.2498
  913MOL0     H23226   5.139   7.967  11.177  0.4383 -0.8261  0.7228
  913MOL0     H23227   5.285   7.861  11.383 -0.5086  1.0627  0.1115
  913MOL0     H23228   5.385   7.998  11.348  0.2417 -0.1712  0.4396
  913MOL0     H23229   5.419   7.754  11.246  1.9833  0.3139  0.2109
  913MOL0     H23230   5.268   7.789  11.162 -0.3672 -0.3751  1.1496
  913MOL0     H23231   5.536   7.950  11.167  1.3417 -3.2339  0.6759
  913MOL0     H23232   5.385   7.997  11.079 -0.5009 -1.1262 -1.4949
  913MOL0     H23233   5.546   7.898  10.924  2.5640  2.0325  2.4247
  913MOL0     H23234   5.576   7.767  11.035 -1.8970 -1.9811  1.2720
  913MOL0     H23235   4.590   7.975  11.297  0.4208 -0.7850  1.3979
  913MOL0     H23236   4.404   8.042  11.419 -0.6166  0.0441  0.1129
  913MOL0     H23237   4.220   8.514  11.807  2.0007 -2.2188 -1.3146
  913MOL0     H23238   3.977   8.539  11.877  2.7468 -1.8551  2.5309
  913MOL0     H23239   2.595   9.343  11.083 -0.1952  1.8194  0.5549
  913MOL0     H23240   2.614   9.543  11.226  1.3949 -0.6040 -1.5047
  913MOL0     H23241   2.811   9.831  11.425  3.6890 -1.8869  1.9232
  913MOL0     H23242   2.834  10.041  11.526 -1.7718  2.0469  0.5872
  913MOL0     H23243   2.811  10.112  11.970  0.0727  3.1492  0.6693
  913MOL0     H23244   2.635  10.081  11.925 -0.2545  1.4757  2.0341
  913MOL0     H23245   2.790  10.343  11.907  0.3021  1.1610  3.9821
  913MOL0     H23246   2.637  10.299  11.994 -0.7255 -1.3838 -1.9895
  913MOL0     H23247   2.536  10.257  11.762 -2.2836  3.3190  2.8639
  913MOL0     H23248   2.695  10.313  11.694  1.7295  0.3938  0.7037
  913MOL0     H23249   2.648  10.543  11.757 -1.6549  1.0015  3.6852
  913MOL0     H23250   2.517  10.480  11.671  3.1182  1.2958 -1.4645
  913MOL0     H23251   2.324  10.545  12.016 -0.8137 -0.3192 -0.7618
  913MOL0     H23252   2.709   9.876  11.900  1.2050 -0.3397 -0.8557
  913MOL0     H23253   2.622   9.656  11.902  2.2376  1.3404 -1.6146
  913MOL0     H23254   2.486   9.645  11.779 -0.7233  1.1733 -1.5865
  913MOL0     H23255   2.631   9.539  11.778 -1.0665 -0.1204  1.8843
  914MOL0     O23256   0.213   5.021   1.460 -0.7396  0.1001  0.5525
  914MOL0     C23257   0.307   4.942   1.449  0.2122  0.7585 -0.5402
  914MOL0     O23258   0.288   4.809   1.431  0.5190  0.4649  0.7262
  914MOL0     C23259   0.166   4.760   1.399  0.9046 -0.0635 -0.4933
  914MOL0     C23260   0.119   4.641   1.456  0.4914 -0.0313  0.4379
  914MOL0     C23261  -0.012   4.610   1.451  0.4053  0.5886  1.0553
  914MOL0     C23262  -0.103   4.690   1.373  0.6988 -0.3576  0.0813
  914MOL0     O23263  -0.239   4.656   1.380  0.1676  0.0899 -0.5708
  914MOL0     C23264  -0.286   4.648   1.520 -0.6861  0.0534 -0.4654
  914MOL0     C23265  -0.435   4.640   1.524 -0.1348  1.2961  0.0378
  914MOL0     C23266  -0.496   4.504   1.474  0.0923  0.4794 -0.0149
  914MOL0     C23267  -0.652   4.523   1.496 -0.4903  0.6212  0.3459
  914MOL0     C23268  -0.724   4.390   1.456 -0.1238  0.0213 -0.0943
  914MOL0     C23269  -0.862   4.424   1.390 -0.2148  0.4702 -0.1312
  914MOL0     C23270  -0.940   4.287   1.353  0.2163 -0.0106 -0.4138
  914MOL0     C23271  -1.053   4.310   1.250 -0.0040 -0.0515  0.2500
  914MOL0     N23272  -1.131   4.188   1.223  0.7060  0.3123  0.4260
  914MOL0     C23273  -1.107   4.090   1.129 -0.2799 -0.3657 -0.2535
  914MOL0     C23274  -1.211   4.011   1.116 -0.0225  0.2929  0.2273
  914MOL0     C23275  -1.227   3.884   1.028 -0.2134  0.4057  0.6987
  914MOL0     C23276  -1.182   3.753   1.088 -0.1375  0.2184 -0.3942
  914MOL0     C23277  -1.030   3.747   1.104  0.2482  0.4475  0.3924
  914MOL0     C23278  -0.995   3.618   1.184  0.2728 -0.0729  0.2142
  914MOL0     O23279  -0.876   3.640   1.257  0.5170 -0.6700  0.5103
  914MOL0     C23280  -0.820   3.535   1.325  0.2289 -0.5914 -0.7248
  914MOL0     C23281  -0.875   3.404   1.329 -0.8854 -0.0190 -0.0493
  914MOL0     C23282  -0.807   3.298   1.394 -0.1258  0.3642  1.6986
  914MOL0     C23283  -0.684   3.321   1.466 -0.3869 -0.2879 -1.0036
  914MOL0     C23284  -0.625   3.205   1.541 -0.3955  0.7887 -0.0756
  914MOL0     O23285  -0.515   3.225   1.596  0.5059 -0.2880 -0.4657
  914MOL0     C23286  -0.485   3.168   1.721  1.0140 -0.0286 -0.7547
  914MOL0     C23287  -0.347   3.178   1.758  0.2003 -0.0813 -0.1789
  914MOL0     C23288  -0.306   3.119   1.877  1.5343  0.0529  0.0253
  914MOL0     C23289  -0.399   3.041   1.960 -0.5898  0.8629 -1.0449
  914MOL0     O23290  -0.362   2.976   2.077  0.3346 -0.5946  0.4706
  914MOL0     C23291  -0.227   2.965   2.132 -0.4673 -0.5749 -0.0591
  914MOL0     C23292  -0.190   3.095   2.208  0.1049  0.1743  0.0726
  914MOL0     C23293  -0.305   3.179   2.248  0.1970  1.1749 -0.0282
  914MOL0     C23294  -0.250   3.299   2.338 -0.2937  2.0826  0.5125
  914MOL0     C23295  -0.364   3.402   2.378 -0.7405  0.7983  0.1934
  914MOL0     C23296  -0.306   3.499   2.474 -0.5273 -0.6397 -0.8311
  914MOL0     C23297  -0.393   3.620   2.490  0.2583 -0.9018  1.0182
  914MOL0     C23298  -0.341   3.715   2.602  0.1165 -0.0719 -0.1834
  914MOL0    Cl23299  -0.181   3.791   2.554  0.0174 -0.0164  0.4545
  914MOL0     C23300  -0.536   3.037   1.932  0.5522  0.2478  0.6907
  914MOL0     C23301  -0.580   3.095   1.806 -0.1563  0.5261 -0.1835
  914MOL0     O23302  -0.671   3.093   1.528 -0.5253  0.5259  0.2513
  914MOL0     C23303  -0.632   3.451   1.466  0.1539  0.0468  0.5523
  914MOL0     C23304  -0.705   3.561   1.406 -0.9055 -0.0216 -0.0297
  914MOL0     N23305  -1.299   4.047   1.216 -0.8970  0.2811  0.1588
  914MOL0     N23306  -1.255   4.162   1.276 -0.3232 -0.7735  0.7786
  914MOL0     C23307  -0.058   4.800   1.300  0.1771 -0.5666  0.1985
  914MOL0     C23308   0.074   4.833   1.312  0.2258  0.0163  0.4227
  914MOL0     C23309   0.446   4.983   1.424 -0.4331 -0.0824 -0.2865
  914MOL0     C23310   0.536   4.893   1.378 -0.1513 -0.7954  0.5926
  914MOL0     C23311   0.674   4.932   1.347  0.3750 -0.0818 -0.4031
  914MOL0     C23312   0.716   5.060   1.351 -0.2005 -0.2578 -0.0267
  914MOL0     O23313   0.838   5.099   1.296  0.4617 -0.4858  0.9776
  914MOL0     C23314   0.957   5.019   1.280  0.6872 -0.1955 -0.3730
  914MOL0     C23315   1.044   5.071   1.389  0.3399  0.3148  0.5535
  914MOL0     C23316   1.193   5.005   1.387  0.4225  0.0834 -0.5290
  914MOL0     C23317   1.285   5.061   1.492  0.2678  0.1254  0.2312
  914MOL0     C23318   1.240   5.019   1.631 -0.4018  0.6175  0.5643
  914MOL0     C23319   1.213   4.990   1.749 -0.9511 -0.1721  1.2184
  914MOL0     C23320   0.619   5.150   1.389 -0.4216  1.2388 -0.4448
  914MOL0     C23321   0.486   5.120   1.423 -1.5642  0.3918 -0.3841
  914MOL0     C23322   0.397   5.230   1.476 -0.2386  0.5785  0.9407
  914MOL0     H23323   0.183   4.577   1.516  2.9138  1.1635 -0.7197
  914MOL0     H23324  -0.058   4.529   1.506 -0.5906  1.2726  1.2684
  914MOL0     H23325  -0.254   4.548   1.549 -3.4530 -0.4383  1.2304
  914MOL0     H23326  -0.237   4.722   1.584  1.0990 -2.0789  0.7460
  914MOL0     H23327  -0.474   4.734   1.484 -0.5889  1.8655  1.7137
  914MOL0     H23328  -0.465   4.650   1.629 -0.6526  4.2231 -0.2812
  914MOL0     H23329  -0.459   4.420   1.533 -2.3248 -0.9266 -0.3788
  914MOL0     H23330  -0.473   4.488   1.368 -0.2838  0.1677 -0.0503
  914MOL0     H23331  -0.675   4.541   1.601  0.8652 -0.7136  0.8933
  914MOL0     H23332  -0.688   4.601   1.428 -1.0613  1.9180  2.0805
  914MOL0     H23333  -0.663   4.336   1.382  0.5358 -0.6155  0.8867
  914MOL0     H23334  -0.755   4.327   1.540 -0.1298  0.0943 -0.0416
  914MOL0     H23335  -0.922   4.493   1.450 -1.1079 -2.4163  2.5571
  914MOL0     H23336  -0.827   4.465   1.295  2.8073 -1.3438  0.0771
  914MOL0     H23337  -0.996   4.258   1.442  0.2364 -1.6883 -0.9246
  914MOL0     H23338  -0.865   4.211   1.331  0.6165  0.0658  0.6412
  914MOL0     H23339  -1.119   4.380   1.301  0.3316  0.5651 -0.1590
  914MOL0     H23340  -1.011   4.356   1.160  2.2166 -3.2189 -0.5277
  914MOL0     H23341  -1.016   4.097   1.070 -0.5946  2.8492 -0.5195
  914MOL0     H23342  -1.334   3.880   1.008  0.1829  0.2056 -1.8371
  914MOL0     H23343  -1.186   3.904   0.928 -2.1660  0.7290 -0.0759
  914MOL0     H23344  -1.231   3.744   1.186  1.3597  1.0999  0.4750
  914MOL0     H23345  -1.212   3.669   1.026 -0.6484  0.9309 -1.1275
  914MOL0     H23346  -0.994   3.834   1.159 -0.0431  1.5411 -1.0992
  914MOL0     H23347  -0.978   3.743   1.008 -0.0758  2.3442  0.0984
  914MOL0     H23348  -0.992   3.544   1.105  2.0310  2.8189 -2.6756
  914MOL0     H23349  -1.069   3.584   1.258 -0.4807 -0.3769 -0.6659
  914MOL0     H23350  -0.965   3.384   1.272  0.2088  1.9150 -2.6815
  914MOL0     H23351  -0.852   3.199   1.392 -0.5478  0.5555  0.3595
  914MOL0     H23352  -0.282   3.226   1.685  0.7493 -0.1306  0.2681
  914MOL0     H23353  -0.210   3.129   1.927  0.1614 -0.8024  3.0511
  914MOL0     H23354  -0.222   2.877   2.197  2.3806  1.4011  2.6755
  914MOL0     H23355  -0.153   2.945   2.054  0.7923  1.0489  0.6711
  914MOL0     H23356  -0.123   3.062   2.289  0.8093 -1.2065 -1.0243
  914MOL0     H23357  -0.131   3.155   2.139  0.1585  1.4577  1.2032
  914MOL0     H23358  -0.360   3.219   2.163  0.6187  0.2220 -0.7735
  914MOL0     H23359  -0.366   3.107   2.303  1.5780 -0.3399 -0.4004
  914MOL0     H23360  -0.172   3.350   2.281  1.0302  2.6098  2.6743
  914MOL0     H23361  -0.204   3.259   2.429 -3.5091 -0.0171  1.3803
  914MOL0     H23362  -0.439   3.347   2.436  1.1637 -0.2718  1.7978
  914MOL0     H23363  -0.407   3.452   2.291 -0.4121  2.6606  1.0614
  914MOL0     H23364  -0.302   3.456   2.575  1.4587  4.7233  1.8009
  914MOL0     H23365  -0.203   3.530   2.453  0.2682 -1.2400  1.7730
  914MOL0     H23366  -0.496   3.587   2.503 -0.7080 -0.0826 -2.9517
  914MOL0     H23367  -0.394   3.675   2.395  3.3806  2.1133  2.5037
  914MOL0     H23368  -0.405   3.804   2.605  0.8482  0.6081 -2.6820
  914MOL0     H23369  -0.337   3.655   2.693 -1.4329 -0.8771 -0.6170
  914MOL0     H23370  -0.614   2.983   1.986  1.6636 -0.6191  1.4731
  914MOL0     H23371  -0.682   3.067   1.782  0.1435 -1.6860  0.8811
  914MOL0     H23372  -0.542   3.471   1.523 -0.0031 -0.6744  1.0611
  914MOL0     H23373  -0.667   3.662   1.405  2.2887 -1.0272 -3.6063
  914MOL0     H23374  -0.116   4.867   1.238  1.8094 -0.0885 -0.8754
  914MOL0     H23375   0.101   4.914   1.245 -1.2897 -1.2467 -1.8360
  914MOL0     H23376   0.508   4.789   1.363  1.2861 -1.0036 -0.9061
  914MOL0     H23377   0.738   4.849   1.318 -0.2742 -1.6705  2.3529
  914MOL0     H23378   1.004   5.043   1.184  0.6607 -1.2672 -0.6680
  914MOL0     H23379   0.939   4.912   1.268  3.8472 -0.6067 -3.1911
  914MOL0     H23380   0.999   5.057   1.488  2.0238  2.3085  1.6949
  914MOL0     H23381   1.038   5.180   1.384  1.8609  0.3903 -0.6586
  914MOL0     H23382   1.229   5.011   1.284 -0.1192 -1.0017 -0.7915
  914MOL0     H23383   1.179   4.898   1.403 -2.7618  0.1999 -1.7538
  914MOL0     H23384   1.384   5.023   1.465  1.3034  3.2641 -0.7975
  914MOL0     H23385   1.282   5.170   1.486 -2.0690  0.1023 -0.0637
  914MOL0     H23386   1.206   4.978   1.855  0.8840 -0.2169  1.3799
  914MOL0     H23387   0.651   5.253   1.390 -1.3935  1.5551  0.3246
  914MOL0     H23388   0.310   5.233   1.408 -1.1177  1.9450  2.0564
  914MOL0     H23389   0.355   5.198   1.572  3.6861 -0.1854  2.5657
  914MOL0     H23390   0.457   5.321   1.490  1.9412 -0.1155 -2.6878
  915MOL0     O23391   1.481   6.605   3.785 -0.5261 -0.4633  0.9735
  915MOL0     C23392   1.488   6.602   3.658 -0.0571  0.1622  0.0766
  915MOL0     O23393   1.454   6.487   3.588 -0.6756  0.2572 -0.3319
  915MOL0     C23394   1.396   6.387   3.658 -0.3692  0.2452 -0.5461
  915MOL0     C23395   1.478   6.310   3.746 -0.2867 -0.0406  0.6524
  915MOL0     C23396   1.431   6.187   3.798  0.0536 -0.0647 -0.1995
  915MOL0     C23397   1.296   6.159   3.777  0.2254 -0.2286 -0.2815
  915MOL0     O23398   1.225   6.058   3.839  0.4637 -0.0393  0.0671
  915MOL0     C23399   1.299   5.937   3.837  0.4626  0.6700  0.0187
  915MOL0     C23400   1.214   5.815   3.870 -0.1248  0.3750 -0.8966
  915MOL0     C23401   1.195   5.795   4.021 -0.6174 -0.4747 -0.1711
  915MOL0     C23402   1.135   5.658   4.056 -1.3758 -0.0492 -1.0685
  915MOL0     C23403   0.997   5.635   4.023 -0.0409 -0.2371  0.8277
  915MOL0     C23404   0.908   5.692   4.134 -0.3815 -0.1298  0.6844
  915MOL0     C23405   0.758   5.656   4.127  0.3505 -0.1420 -0.5096
  915MOL0     C23406   0.696   5.733   4.253 -0.2293 -0.5077 -0.4360
  915MOL0     N23407   0.552   5.694   4.249 -0.5263  1.0672 -0.6307
  915MOL0     C23408   0.497   5.600   4.339  0.1030  0.0843 -0.0699
  915MOL0     C23409   0.363   5.596   4.310 -0.4732  0.0197 -0.3244
  915MOL0     C23410   0.268   5.492   4.372 -0.6133 -1.1196  0.9313
  915MOL0     C23411   0.177   5.582   4.465 -0.9342  0.3571 -0.8900
  915MOL0     C23412   0.132   5.513   4.592 -0.0748 -0.7155 -0.4138
  915MOL0     C23413  -0.002   5.570   4.640  0.3921  0.2941 -0.2193
  915MOL0     O23414  -0.008   5.702   4.703 -0.0921 -0.8495 -0.2781
  915MOL0     C23415   0.058   5.729   4.823  0.4174 -0.7115  1.6261
  915MOL0     C23416   0.172   5.814   4.831  0.4704  0.2301 -0.0101
  915MOL0     C23417   0.230   5.852   4.952  0.3182  0.6174 -0.5843
  915MOL0     C23418   0.162   5.830   5.074  0.1410 -0.6759 -0.0627
  915MOL0     C23419   0.202   5.872   5.214  0.1594 -0.1584  0.9787
  915MOL0     O23420   0.130   5.804   5.313 -0.2481 -0.3072 -0.0802
  915MOL0     C23421   0.138   5.865   5.437 -0.5490 -0.0152  0.0019
  915MOL0     C23422   0.190   5.798   5.553  0.1139 -0.7611  0.6524
  915MOL0     C23423   0.205   5.867   5.669  0.2457 -0.5276  1.8242
  915MOL0     C23424   0.163   5.999   5.674  0.0676 -1.1479 -0.1139
  915MOL0     O23425   0.192   6.062   5.794 -0.5976  0.8472  0.7164
  915MOL0     C23426   0.091   6.127   5.861 -0.1826 -0.2137  0.1188
  915MOL0     C23427   0.160   6.191   5.983  0.0421 -0.1411  0.9938
  915MOL0     C23428   0.292   6.255   5.965 -0.4778 -0.3711 -0.7372
  915MOL0     C23429   0.342   6.338   6.090  0.2254 -0.5897 -0.4741
  915MOL0     C23430   0.492   6.373   6.091  0.6780 -0.1247  0.1607
  915MOL0     C23431   0.589   6.255   6.101  0.2020  0.4656 -0.5105
  915MOL0     C23432   0.722   6.279   6.168 -0.1999 -0.0089  0.1328
  915MOL0     C23433   0.799   6.150   6.178 -0.1995 -0.0231  0.6296
  915MOL0    Cl23434   0.868   6.108   6.025 -0.1407  0.6257 -0.0357
  915MOL0     C23435   0.098   6.060   5.568 -0.8118 -0.3787 -0.0517
  915MOL0     C23436   0.082   5.993   5.446 -1.4220 -0.2755  1.0745
  915MOL0     O23437   0.295   5.949   5.225  0.6351  0.5519 -0.4361
  915MOL0     C23438   0.054   5.738   5.065  1.2342 -0.5894 -0.3075
  915MOL0     C23439  -0.002   5.696   4.939 -0.2011  0.1794 -0.0950
  915MOL0     N23440   0.335   5.685   4.208 -0.7387 -0.2338 -0.5209
  915MOL0     N23441   0.449   5.739   4.166  0.0627 -1.3828 -0.6240
  915MOL0     C23442   1.218   6.237   3.692 -0.0127 -1.4499  0.6416
  915MOL0     C23443   1.270   6.348   3.626  0.5079  0.2239 -0.2476
  915MOL0     C23444   1.528   6.720   3.587 -1.1716  0.4114  0.1794
  915MOL0     C23445   1.491   6.846   3.640  0.5405  0.1563  1.0174
  915MOL0     C23446   1.528   6.965   3.571  0.1941  1.2624 -0.4703
  915MOL0     C23447   1.593   6.955   3.446 -1.2372 -0.1057 -0.3354
  915MOL0     O23448   1.629   7.062   3.367  0.1791  0.2853  0.3074
  915MOL0     C23449   1.589   7.205   3.380  0.5322 -0.0594  0.0920
  915MOL0     C23450   1.440   7.236   3.342 -0.5270  0.1447 -0.5559
  915MOL0     C23451   1.387   7.362   3.405  0.3325 -0.5154  0.0718
  915MOL0     C23452   1.313   7.349   3.543  0.4620  0.1929 -0.0156
  915MOL0     C23453   1.401   7.398   3.644 -0.2809 -0.0092 -0.4417
  915MOL0     C23454   1.474   7.435   3.739  1.4873  0.1221 -0.9034
  915MOL0     C23455   1.640   6.827   3.406  0.3597  0.0922  0.5207
  915MOL0     C23456   1.605   6.713   3.474  0.4865  1.4357  0.5576
  915MOL0     C23457   1.671   6.580   3.422 -0.1226 -0.6377 -0.6470
  915MOL0     H23458   1.581   6.345   3.752 -1.3581  3.9174 -0.6191
  915MOL0     H23459   1.494   6.133   3.868  0.2335  1.3519  0.7832
  915MOL0     H23460   1.334   5.911   3.736 -0.6700 -1.0293  0.0294
  915MOL0     H23461   1.388   5.937   3.901 -0.8659 -1.3388  2.0191
  915MOL0     H23462   1.258   5.724   3.829  1.0609  0.0064  1.0918
  915MOL0     H23463   1.115   5.840   3.830  1.1336  2.4849 -2.9435
  915MOL0     H23464   1.139   5.877   4.067  0.3127 -0.7749  1.5899
  915MOL0     H23465   1.295   5.789   4.065 -1.4018 -2.7203  1.4708
  915MOL0     H23466   1.202   5.584   4.010 -1.3373  0.4590 -1.8435
  915MOL0     H23467   1.148   5.642   4.164 -2.5265 -0.7078 -1.0028
  915MOL0     H23468   0.967   5.656   3.920 -2.4046  0.1784  1.5355
  915MOL0     H23469   0.986   5.527   4.034 -1.1380 -0.5065 -2.1395
  915MOL0     H23470   0.957   5.660   4.227  1.7008  2.2098  0.4949
  915MOL0     H23471   0.918   5.801   4.134 -2.6669  0.1357 -0.2044
  915MOL0     H23472   0.734   5.549   4.120 -2.7313  0.5875 -3.1949
  915MOL0     H23473   0.717   5.707   4.040  2.5577 -0.5339 -1.8702
  915MOL0     H23474   0.734   5.690   4.346 -0.1903 -2.6141 -1.3655
  915MOL0     H23475   0.705   5.840   4.234  2.4448 -0.4963  0.4863
  915MOL0     H23476   0.551   5.524   4.395  2.8722 -0.2355 -2.9200
  915MOL0     H23477   0.208   5.441   4.295  0.6783  1.6279 -2.1420
  915MOL0     H23478   0.321   5.415   4.429 -0.5394 -3.1576 -1.6868
  915MOL0     H23479   0.222   5.672   4.508 -3.6352  0.4796  1.9739
  915MOL0     H23480   0.089   5.615   4.409 -0.3604  3.0199 -0.3291
  915MOL0     H23481   0.207   5.515   4.672 -1.6573 -1.4918  1.1316
  915MOL0     H23482   0.104   5.410   4.572 -1.5552 -0.7813  1.7032
  915MOL0     H23483  -0.036   5.497   4.715  1.0582 -0.8020 -0.9491
  915MOL0     H23484  -0.079   5.573   4.563 -3.6787  1.3430  3.4969
  915MOL0     H23485   0.229   5.830   4.740  2.9060 -0.5658  1.2921
  915MOL0     H23486   0.315   5.920   4.949 -0.4778  1.6112 -2.9214
  915MOL0     H23487   0.215   5.694   5.532 -0.5615 -0.5568 -1.4055
  915MOL0     H23488   0.256   5.835   5.760  1.9710  1.1648  1.5190
  915MOL0     H23489   0.054   6.211   5.801 -1.0497 -0.5946  0.1098
  915MOL0     H23490   0.023   6.052   5.901 -1.1005  1.6571  2.2921
  915MOL0     H23491   0.081   6.255   6.022 -1.7660 -0.6557 -1.5511
  915MOL0     H23492   0.190   6.108   6.048 -0.5222 -0.6884  0.5619
  915MOL0     H23493   0.356   6.168   5.949  0.1068 -0.6354  2.4700
  915MOL0     H23494   0.289   6.314   5.873  2.9126  0.5633 -0.3720
  915MOL0     H23495   0.309   6.291   6.184  1.2034  4.1320  2.5621
  915MOL0     H23496   0.290   6.433   6.104  3.6601  1.1556  2.0805
  915MOL0     H23497   0.501   6.447   6.171  0.9319  1.3990 -1.2208
  915MOL0     H23498   0.514   6.433   6.002 -0.5899  2.0802  1.2616
  915MOL0     H23499   0.538   6.174   6.154  2.4374 -2.1091 -2.0243
  915MOL0     H23500   0.605   6.218   5.999  1.3146  2.0914 -0.9583
  915MOL0     H23501   0.702   6.302   6.273  1.9253 -2.7119  1.2455
  915MOL0     H23502   0.781   6.354   6.114  0.4811 -0.9453 -0.4586
  915MOL0     H23503   0.884   6.162   6.246 -0.6270  2.5747  0.8015
  915MOL0     H23504   0.738   6.063   6.205 -1.2192  0.0143 -1.3128
  915MOL0     H23505   0.058   6.161   5.572 -3.9785 -1.5457  1.9870
  915MOL0     H23506   0.049   6.044   5.356  1.6303 -2.6554 -1.6543
  915MOL0     H23507  -0.015   5.708   5.143 -1.1740  1.2813 -1.5871
  915MOL0     H23508  -0.097   5.643   4.945 -1.2921  2.1520  1.6458
  915MOL0     H23509   1.125   6.188   3.665  0.9286 -1.2897 -3.7112
  915MOL0     H23510   1.203   6.396   3.555 -0.1438  3.2397  2.1890
  915MOL0     H23511   1.442   6.857   3.736 -1.0492 -2.8983  0.7148
  915MOL0     H23512   1.478   7.056   3.604 -0.5777  0.7894 -0.3156
  915MOL0     H23513   1.643   7.270   3.311 -0.5119 -1.2001 -1.9050
  915MOL0     H23514   1.592   7.234   3.485 -2.0766 -1.3671  0.6127
  915MOL0     H23515   1.381   7.148   3.366  1.6978 -1.9185 -2.1860
  915MOL0     H23516   1.435   7.242   3.233  0.7338 -1.2532 -0.7303
  915MOL0     H23517   1.302   7.387   3.341 -0.7057 -0.8176  1.2738
  915MOL0     H23518   1.459   7.444   3.404 -1.7479  1.4085 -1.9877
  915MOL0     H23519   1.232   7.423   3.544  1.1413  1.0168 -2.1471
  915MOL0     H23520   1.277   7.247   3.561  2.2976 -0.2383  1.5353
  915MOL0     H23521   1.546   7.471   3.810  0.0922  3.2603 -0.9405
  915MOL0     H23522   1.697   6.825   3.314 -0.5328 -3.3117 -0.1069
  915MOL0     H23523   1.624   6.540   3.332 -0.7622 -2.2203  0.3382
  915MOL0     H23524   1.772   6.611   3.393  0.1138  0.2687  1.0032
  915MOL0     H23525   1.672   6.507   3.504 -2.4307  1.2327  1.2148
  916MOL0     O23526   2.451   9.070   2.033 -0.2206  0.3953 -0.2231
  916MOL0     C23527   2.535   8.989   2.013  0.3505  0.5271 -0.6136
  916MOL0     O23528   2.562   8.878   2.096  0.0248  0.0042 -0.8356
  916MOL0     C23529   2.493   8.883   2.219  0.4716  0.6879  0.7284
  916MOL0     C23530   2.490   8.987   2.310  0.2286  0.0710  0.1786
  916MOL0     C23531   2.406   8.969   2.426 -0.9068 -0.0952  0.1707
  916MOL0     C23532   2.319   8.859   2.444  0.2795 -0.5795  0.4443
  916MOL0     O23533   2.226   8.854   2.539  1.0867 -0.1207 -0.5083
  916MOL0     C23534   2.248   8.736   2.617 -0.6946 -0.3585  0.3497
  916MOL0     C23535   2.139   8.725   2.722  0.2491 -0.4089 -0.0675
  916MOL0     C23536   2.155   8.851   2.816  0.6247  0.1410 -0.0124
  916MOL0     C23537   2.039   8.845   2.912 -0.1406  0.3904 -0.6808
  916MOL0     C23538   2.054   8.954   3.015 -0.3560  0.0252 -0.3120
  916MOL0     C23539   1.958   8.917   3.131 -0.1878  0.2283  0.9846
  916MOL0     C23540   1.951   9.040   3.222  0.0391  0.2440  0.0414
  916MOL0     C23541   1.903   9.008   3.365 -0.2214  0.6397  0.0117
  916MOL0     N23542   2.003   8.919   3.427  0.2089 -0.0505 -0.5462
  916MOL0     C23543   2.002   8.783   3.403  0.7303 -0.1524 -0.1350
  916MOL0     C23544   2.119   8.736   3.455  0.7097 -0.4695 -0.5376
  916MOL0     C23545   2.169   8.591   3.446  0.0682 -0.5849  0.2673
  916MOL0     C23546   2.211   8.566   3.304 -0.3042 -0.7929  0.1167
  916MOL0     C23547   2.222   8.415   3.269  0.2686 -0.7278  0.1728
  916MOL0     C23548   2.318   8.342   3.359 -0.5839 -0.3381 -0.8823
  916MOL0     O23549   2.326   8.200   3.349  0.0061  0.2313  0.4924
  916MOL0     C23550   2.384   8.149   3.237 -0.3923 -0.2370 -1.0772
  916MOL0     C23551   2.479   8.212   3.150 -0.0347 -0.0588  0.2199
  916MOL0     C23552   2.533   8.136   3.040  0.3407  1.0260 -0.5466
  916MOL0     C23553   2.498   8.004   3.009  0.8606  1.0314 -0.6396
  916MOL0     C23554   2.524   7.935   2.879  1.2201  0.1903 -0.3882
  916MOL0     O23555   2.605   8.003   2.791  0.1490 -0.2293  0.3579
  916MOL0     C23556   2.673   7.922   2.699 -0.6673 -0.6944 -0.1114
  916MOL0     C23557   2.617   7.876   2.583 -0.3142  0.8552 -0.0450
  916MOL0     C23558   2.695   7.819   2.485  0.2934 -0.4040  0.4708
  916MOL0     C23559   2.827   7.786   2.505  0.2584  0.7284 -0.1357
  916MOL0     O23560   2.888   7.712   2.405  0.1051 -0.0369 -0.4867
  916MOL0     C23561   3.027   7.713   2.397  0.6941  0.2865  0.3008
  916MOL0     C23562   3.076   7.643   2.267 -0.2079 -0.0740  0.7532
  916MOL0     C23563   3.063   7.730   2.143 -1.4946 -0.6374  0.5842
  916MOL0     C23564   3.114   7.659   2.002 -0.3983  0.3901 -0.2083
  916MOL0     C23565   3.048   7.708   1.882  0.2815 -0.2879  0.0655
  916MOL0     C23566   2.897   7.667   1.869 -0.4230  0.4451  0.3429
  916MOL0     C23567   2.860   7.627   1.730 -0.6263 -0.2997 -0.0811
  916MOL0     C23568   2.730   7.562   1.730 -0.1841  0.4409 -0.0167
  916MOL0    Cl23569   2.590   7.662   1.787 -0.0369 -0.1608 -0.3264
  916MOL0     C23570   2.879   7.820   2.626 -0.3152 -0.6988  0.4729
  916MOL0     C23571   2.804   7.892   2.724  0.8507  0.4164 -0.6125
  916MOL0     O23572   2.490   7.821   2.850  0.9098 -1.3117  0.3743
  916MOL0     C23573   2.401   7.949   3.087  0.2108 -0.1893 -0.4954
  916MOL0     C23574   2.346   8.019   3.203 -0.5484 -0.0365 -0.5092
  916MOL0     N23575   2.190   8.844   3.507 -0.6242  0.6887  0.0397
  916MOL0     N23576   2.120   8.953   3.504 -0.2888 -0.4368  0.9710
  916MOL0     C23577   2.322   8.763   2.354 -0.3826 -0.0970  0.0650
  916MOL0     C23578   2.409   8.773   2.248 -0.8869  1.0958  0.2098
  916MOL0     C23579   2.593   8.988   1.875  0.1430 -0.9133  0.0116
  916MOL0     C23580   2.624   8.855   1.825  0.2460 -1.3843  0.3601
  916MOL0     C23581   2.639   8.840   1.687 -0.4796 -0.2106 -0.1984
  916MOL0     C23582   2.627   8.941   1.594 -0.6957 -0.3209  1.0026
  916MOL0     O23583   2.658   8.923   1.456  0.9411  0.2149 -0.6836
  916MOL0     C23584   2.789   8.944   1.409  0.0730 -0.2562 -0.5597
  916MOL0     C23585   2.868   8.804   1.406 -0.2515  1.0980 -0.0403
  916MOL0     C23586   2.847   8.717   1.284  0.0759  0.8494  0.6524
  916MOL0     C23587   2.702   8.660   1.269  0.2089  0.5597 -1.0035
  916MOL0     C23588   2.697   8.556   1.171 -0.0442 -0.9076  0.3497
  916MOL0     C23589   2.693   8.471   1.083  0.3395  0.5410 -0.7038
  916MOL0     C23590   2.607   9.070   1.641 -0.7065 -0.7037 -1.4590
  916MOL0     C23591   2.583   9.100   1.774  0.2350 -0.4969 -0.0313
  916MOL0     C23592   2.539   9.237   1.821 -0.6459  0.2681 -0.5240
  916MOL0     H23593   2.544   9.079   2.289  0.7561 -0.2905 -0.0796
  916MOL0     H23594   2.393   9.053   2.493 -3.0930  0.6767 -1.1220
  916MOL0     H23595   2.230   8.647   2.556 -1.7069 -0.2121  0.4184
  916MOL0     H23596   2.350   8.725   2.654  0.2762  0.0415 -2.0540
  916MOL0     H23597   2.154   8.634   2.781  2.1485  0.3868  0.7717
  916MOL0     H23598   2.040   8.739   2.677 -1.1802  0.7477  3.1841
  916MOL0     H23599   2.153   8.947   2.762  0.1147  2.8017  4.2513
  916MOL0     H23600   2.251   8.841   2.868  3.4540  2.8273 -4.0711
  916MOL0     H23601   1.948   8.832   2.853  2.2614 -2.5782 -4.1768
  916MOL0     H23602   2.056   8.752   2.967 -0.9218  1.0260  0.6950
  916MOL0     H23603   2.152   8.941   3.063 -1.1313  2.3868  2.1868
  916MOL0     H23604   2.034   9.056   2.980 -3.0819 -0.5747 -0.7298
  916MOL0     H23605   1.858   8.895   3.092 -0.2363 -3.2836  2.6702
  916MOL0     H23606   1.999   8.830   3.183 -1.3265 -0.4568  0.7813
  916MOL0     H23607   1.887   9.116   3.176  1.1723  1.5986  0.6120
  916MOL0     H23608   2.052   9.078   3.239 -0.7361  1.5833  2.0780
  916MOL0     H23609   1.908   9.100   3.423 -2.4324  2.7379 -2.8240
  916MOL0     H23610   1.800   8.972   3.378  0.8457 -2.1089  1.8332
  916MOL0     H23611   1.921   8.735   3.348  0.8998 -0.0042 -0.5155
  916MOL0     H23612   2.245   8.560   3.518 -0.3669 -3.2542 -0.3291
  916MOL0     H23613   2.076   8.536   3.462 -0.5972  0.1343 -0.9931
  916MOL0     H23614   2.140   8.601   3.229 -1.1949 -1.4435  0.6392
  916MOL0     H23615   2.313   8.602   3.285 -1.6337  2.5378 -1.4799
  916MOL0     H23616   2.246   8.396   3.164  0.7758  1.5479 -0.1803
  916MOL0     H23617   2.122   8.372   3.286 -0.0014 -0.3580 -0.4426
  916MOL0     H23618   2.313   8.362   3.466  0.0988  1.3284 -1.1355
  916MOL0     H23619   2.410   8.393   3.328  0.5308 -1.2215  0.8378
  916MOL0     H23620   2.507   8.316   3.163 -1.2166  0.2704  0.2814
  916MOL0     H23621   2.589   8.190   2.964  0.9260 -0.2937 -1.0719
  916MOL0     H23622   2.511   7.890   2.566 -0.3418 -0.2103 -0.8394
  916MOL0     H23623   2.642   7.793   2.394  0.9154 -2.3902  0.6433
  916MOL0     H23624   3.055   7.818   2.401  1.8465 -0.0241  0.8039
  916MOL0     H23625   3.057   7.658   2.486  1.5192 -3.0421 -1.8262
  916MOL0     H23626   3.183   7.628   2.278 -0.0625 -0.8629 -1.2597
  916MOL0     H23627   3.026   7.546   2.264 -1.0269  0.2627 -3.5672
  916MOL0     H23628   2.957   7.753   2.131 -2.2278 -3.2832  1.3186
  916MOL0     H23629   3.108   7.828   2.159 -1.3989 -0.3987 -0.9661
  916MOL0     H23630   3.095   7.552   2.006  0.4196  0.2333 -0.4204
  916MOL0     H23631   3.223   7.662   1.990 -0.6454  1.6256 -2.8962
  916MOL0     H23632   3.099   7.670   1.793  3.8557  0.2632  1.7080
  916MOL0     H23633   3.055   7.817   1.887 -1.8671  0.0120 -1.8014
  916MOL0     H23634   2.894   7.579   1.934  1.6600  1.5059  2.0000
  916MOL0     H23635   2.835   7.747   1.912 -1.0262 -0.6594  1.6172
  916MOL0     H23636   2.922   7.544   1.696 -1.0890 -0.5428 -0.3406
  916MOL0     H23637   2.864   7.712   1.661  1.5305  0.5776  1.0110
  916MOL0     H23638   2.707   7.521   1.631 -1.6953  0.9739  0.0822
  916MOL0     H23639   2.736   7.483   1.805 -0.9470  1.0128  0.6689
  916MOL0     H23640   2.977   7.787   2.660  0.8589  0.8076 -1.2298
  916MOL0     H23641   2.840   7.923   2.821 -1.3296  0.1145  0.3445
  916MOL0     H23642   2.355   7.855   3.058  1.6295 -0.2551 -2.7511
  916MOL0     H23643   2.253   7.979   3.243  0.6002 -1.1990  1.1244
  916MOL0     H23644   2.270   8.667   2.353 -0.4036 -0.1171 -2.2661
  916MOL0     H23645   2.419   8.697   2.171  1.5660 -0.9066  2.2882
  916MOL0     H23646   2.631   8.769   1.890 -2.8439 -1.9965  0.0144
  916MOL0     H23647   2.662   8.744   1.640  1.6043  1.6389 -3.3416
  916MOL0     H23648   2.847   9.005   1.478  0.8225  1.2089 -2.3994
  916MOL0     H23649   2.793   8.994   1.312  3.2649 -1.9815 -1.4901
  916MOL0     H23650   2.834   8.735   1.484  2.7771  0.1823  0.6164
  916MOL0     H23651   2.978   8.802   1.413 -0.1322 -0.8186 -1.5725
  916MOL0     H23652   2.911   8.631   1.307 -0.3673  0.4808  0.5307
  916MOL0     H23653   2.887   8.782   1.205 -2.0677  2.3407  0.7112
  916MOL0     H23654   2.658   8.616   1.359 -1.8919 -1.1001 -2.7296
  916MOL0     H23655   2.630   8.740   1.247  0.4235  1.9516  2.6312
  916MOL0     H23656   2.702   8.385   1.019  3.9925  0.9173 -0.8699
  916MOL0     H23657   2.616   9.153   1.573  2.7942 -0.7956 -1.2832
  916MOL0     H23658   2.554   9.309   1.741  1.3781  0.0523 -0.3911
  916MOL0     H23659   2.433   9.233   1.848 -0.0671  2.6805  2.7721
  916MOL0     H23660   2.599   9.266   1.908  0.2915 -1.2480 -0.6219
  917MOL0     O23661   2.139   5.559   1.532 -1.0384  0.6084 -0.3343
  917MOL0     C23662   2.257   5.551   1.553 -0.2601 -0.3383 -1.1983
  917MOL0     O23663   2.357   5.547   1.458  0.1514  0.2456 -0.0763
  917MOL0     C23664   2.325   5.565   1.324 -0.5609  1.0991  0.0710
  917MOL0     C23665   2.333   5.693   1.284  0.1433 -1.5487  0.6356
  917MOL0     C23666   2.306   5.732   1.155 -0.2275  0.0787 -0.3862
  917MOL0     C23667   2.281   5.627   1.057 -0.1312  0.3299 -0.0135
  917MOL0     O23668   2.245   5.663   0.932 -0.1695 -0.1461  1.1937
  917MOL0     C23669   2.314   5.622   0.822  0.4264  0.3426 -0.5053
  917MOL0     C23670   2.268   5.705   0.698  0.8019 -0.4233  0.4205
  917MOL0     C23671   2.363   5.691   0.570  0.1678  0.3770 -0.2097
  917MOL0     C23672   2.319   5.748   0.439 -0.4840  0.6824 -0.6295
  917MOL0     C23673   2.192   5.689   0.389  0.2714  0.3385 -0.1561
  917MOL0     C23674   2.176   5.678   0.242 -0.7411  0.6401  0.2973
  917MOL0     C23675   2.044   5.602   0.202 -0.6283 -0.2907  0.0401
  917MOL0     C23676   2.028   5.614   0.053 -0.2362 -0.0130  0.4891
  917MOL0     N23677   1.882   5.614   0.041  0.1543 -0.0278  0.1667
  917MOL0     C23678   1.786   5.539   0.112 -1.3058 -0.0933  0.1400
  917MOL0     C23679   1.662   5.597   0.105 -0.6242  0.2623 -0.3177
  917MOL0     C23680   1.540   5.560   0.178  1.1554 -1.0757 -0.0743
  917MOL0     C23681   1.438   5.480   0.086  0.5703  0.2608 -0.6689
  917MOL0     C23682   1.294   5.494   0.144 -0.0575  0.0173 -0.0207
  917MOL0     C23683   1.193   5.394   0.096  0.4630  0.7309 -0.7166
  917MOL0     O23684   1.063   5.448   0.126 -0.0482 -0.4672 -0.5759
  917MOL0     C23685   0.973   5.437   0.023 -0.2651 -0.3991  0.0539
  917MOL0     C23686   0.946   5.533  -0.065 -0.1793 -0.3810  0.0093
  917MOL0     C23687   0.849   5.518  -0.165  0.2478  0.2126  0.4214
  917MOL0     C23688   0.774   5.395  -0.167 -0.7157 -0.5736  0.2941
  917MOL0     C23689   0.667   5.385  -0.272  1.1473 -0.6866 -0.3549
  917MOL0     O23690   0.669   5.469  -0.381 -0.4134  0.1321  0.7407
  917MOL0     C23691   0.542   5.468  -0.441  0.3367 -0.3037 -0.1236
  917MOL0     C23692   0.491   5.355  -0.520 -0.6904 -0.1727 -0.3960
  917MOL0     C23693   0.377   5.367  -0.598  0.7692 -0.7116 -0.5727
  917MOL0     C23694   0.298   5.490  -0.597 -0.7030  0.0756  0.7676
  917MOL0     O23695   0.184   5.507  -0.671  0.3720  0.2036 -0.5706
  917MOL0     C23696   0.116   5.417  -0.763 -0.6073 -0.7139  0.6114
  917MOL0     C23697   0.178   5.435  -0.905  0.1408  0.6081  0.9179
  917MOL0     C23698   0.139   5.338  -1.016  0.7521  0.2268 -0.3213
  917MOL0     C23699  -0.004   5.351  -1.059 -1.3424 -0.3492  0.1919
  917MOL0     C23700  -0.042   5.274  -1.183  0.1468 -0.4030  0.9921
  917MOL0     C23701  -0.200   5.300  -1.203  0.3074  0.2127 -0.2959
  917MOL0     C23702  -0.252   5.247  -1.330  0.8572  0.3758 -0.2528
  917MOL0     C23703  -0.404   5.263  -1.352  0.2181  0.4261 -1.1662
  917MOL0    Cl23704  -0.432   5.431  -1.371 -0.7489 -0.7160 -0.1652
  917MOL0     C23705   0.345   5.597  -0.516 -0.6899  0.7864 -0.5106
  917MOL0     C23706   0.470   5.595  -0.439  0.5722  0.6775 -0.2430
  917MOL0     O23707   0.577   5.312  -0.232  0.6523  0.2167 -0.2869
  917MOL0     C23708   0.794   5.299  -0.064 -0.2207 -0.0662  1.1662
  917MOL0     C23709   0.895   5.321   0.027 -0.3557 -0.3019  0.3409
  917MOL0     N23710   1.673   5.680   0.002 -0.3378 -0.2672  0.2875
  917MOL0     N23711   1.801   5.699  -0.035  0.3059 -0.3307  0.2938
  917MOL0     C23712   2.284   5.493   1.101  0.2831 -0.4247 -0.0179
  917MOL0     C23713   2.292   5.460   1.237 -0.1862 -0.0073 -0.2227
  917MOL0     C23714   2.309   5.517   1.693 -0.0013  0.0342  0.9756
  917MOL0     C23715   2.447   5.473   1.692  0.5938 -0.5788 -0.3530
  917MOL0     C23716   2.504   5.439   1.810 -0.7588  0.1505 -0.7694
  917MOL0     C23717   2.436   5.458   1.932  1.1135  0.7225  0.5499
  917MOL0     O23718   2.481   5.434   2.056 -0.3539  0.1398 -0.8277
  917MOL0     C23719   2.581   5.343   2.071  0.2211 -0.5421  0.9183
  917MOL0     C23720   2.620   5.331   2.213  1.1996 -0.5940  0.2094
  917MOL0     C23721   2.499   5.279   2.292 -0.3456 -0.3222 -0.5284
  917MOL0     C23722   2.518   5.314   2.445  0.1134  0.3644  0.0872
  917MOL0     C23723   2.442   5.215   2.517 -1.0529 -0.7598  0.2549
  917MOL0     C23724   2.374   5.144   2.580  0.6505  0.1892  0.1611
  917MOL0     C23725   2.308   5.504   1.930 -0.1684 -0.0796 -1.0535
  917MOL0     C23726   2.240   5.530   1.816  0.0780 -0.7508 -0.2286
  917MOL0     C23727   2.092   5.544   1.830  0.2095 -0.0923  0.2703
  917MOL0     H23728   2.335   5.766   1.364 -1.6982 -1.0494  0.2765
  917MOL0     H23729   2.291   5.838   1.137 -0.5263 -0.1740 -1.7741
  917MOL0     H23730   2.422   5.638   0.826  0.1946  3.4420 -2.8697
  917MOL0     H23731   2.300   5.514   0.806 -0.7044  0.4848 -0.5581
  917MOL0     H23732   2.250   5.810   0.721 -0.7754 -0.5997  0.1575
  917MOL0     H23733   2.171   5.666   0.665 -0.8918  2.0604  2.0758
  917MOL0     H23734   2.388   5.586   0.554 -0.2220  0.4307 -1.2252
  917MOL0     H23735   2.463   5.728   0.595  0.9108  0.8667 -3.5276
  917MOL0     H23736   2.303   5.855   0.455  1.4130  0.9984 -0.6102
  917MOL0     H23737   2.398   5.744   0.364  0.3835  3.4478  0.0034
  917MOL0     H23738   2.188   5.587   0.429 -1.7725  0.7734  0.8698
  917MOL0     H23739   2.111   5.748   0.432  1.7754  0.9947  1.9674
  917MOL0     H23740   2.181   5.778   0.197 -1.1936 -0.2475 -1.8309
  917MOL0     H23741   2.258   5.622   0.197 -0.6594 -0.1331  1.3686
  917MOL0     H23742   1.961   5.648   0.256  0.6163  0.5161  1.3456
  917MOL0     H23743   2.059   5.497   0.229  0.7486 -0.3401 -0.7699
  917MOL0     H23744   2.075   5.706   0.017  0.8560  0.0433  2.0061
  917MOL0     H23745   2.075   5.534  -0.004 -2.1093 -2.9157  2.7337
  917MOL0     H23746   1.812   5.444   0.158  4.6896  1.2135  0.3436
  917MOL0     H23747   1.564   5.508   0.272  1.1061  1.0775  1.2095
  917MOL0     H23748   1.483   5.648   0.207  0.0552 -0.9258 -2.5118
  917MOL0     H23749   1.438   5.520  -0.016 -0.8324 -1.5980 -1.4590
  917MOL0     H23750   1.454   5.372   0.082 -2.2164 -0.2429 -3.8097
  917MOL0     H23751   1.264   5.595   0.115  2.4553  0.4516 -1.4367
  917MOL0     H23752   1.273   5.474   0.250 -5.1986 -1.5172 -1.0534
  917MOL0     H23753   1.191   5.298   0.148  1.9559  1.1182  0.1080
  917MOL0     H23754   1.208   5.375  -0.011 -0.3786 -1.8396 -0.4453
  917MOL0     H23755   1.012   5.619  -0.065  1.3251 -1.5033  0.1195
  917MOL0     H23756   0.836   5.593  -0.241  1.5785  0.0049 -0.0444
  917MOL0     H23757   0.548   5.263  -0.512 -1.1828 -0.6692 -2.2410
  917MOL0     H23758   0.341   5.276  -0.645  3.9777 -2.7539  0.5643
  917MOL0     H23759   0.113   5.316  -0.720  0.2287 -0.1527  2.0689
  917MOL0     H23760   0.012   5.449  -0.763 -0.0956  1.1004  2.0033
  917MOL0     H23761   0.151   5.539  -0.926 -4.1667 -0.3984  0.4013
  917MOL0     H23762   0.284   5.410  -0.902  0.3976  0.8730 -2.4847
  917MOL0     H23763   0.199   5.352  -1.106 -2.9704 -4.0797 -3.9912
  917MOL0     H23764   0.148   5.237  -0.976 -0.5474  0.0841 -0.3387
  917MOL0     H23765  -0.036   5.456  -1.060  1.4096  0.5680 -1.4325
  917MOL0     H23766  -0.059   5.303  -0.977  0.8786 -0.6759  1.5503
  917MOL0     H23767  -0.024   5.167  -1.172 -2.2190 -0.8992  0.5988
  917MOL0     H23768  -0.002   5.308  -1.279 -4.9589 -2.8230 -2.4511
  917MOL0     H23769  -0.265   5.257  -1.126 -1.1889  1.8676 -0.5775
  917MOL0     H23770  -0.222   5.407  -1.199  0.8263  0.4315 -2.3794
  917MOL0     H23771  -0.224   5.142  -1.318  0.1275  0.4348  2.9180
  917MOL0     H23772  -0.210   5.285  -1.424  3.2362  1.3308  1.1082
  917MOL0     H23773  -0.442   5.202  -1.435  3.9891 -3.5015 -0.3628
  917MOL0     H23774  -0.460   5.236  -1.262  0.2804  1.6017 -0.7627
  917MOL0     H23775   0.281   5.684  -0.503  2.9194  4.7516 -5.3293
  917MOL0     H23776   0.501   5.683  -0.383  2.3047 -0.4023  0.5828
  917MOL0     H23777   0.736   5.207  -0.068 -1.8222  0.9630 -0.8220
  917MOL0     H23778   0.925   5.244   0.097  0.4658 -1.9906 -1.7330
  917MOL0     H23779   2.254   5.416   1.030 -1.6539  2.0515 -2.0813
  917MOL0     H23780   2.300   5.361   1.281  1.0132 -0.3795 -1.2182
  917MOL0     H23781   2.514   5.480   1.607  1.0345  0.7165  0.0730
  917MOL0     H23782   2.608   5.413   1.819 -0.9792 -0.0255  3.5441
  917MOL0     H23783   2.672   5.366   2.014 -0.4301  0.6570  0.3372
  917MOL0     H23784   2.537   5.245   2.051  0.0907 -1.0235  3.2883
  917MOL0     H23785   2.647   5.434   2.239  3.6040 -0.8234 -1.1441
  917MOL0     H23786   2.701   5.262   2.241 -0.0533 -1.5756  1.6033
  917MOL0     H23787   2.506   5.170   2.279 -0.1036 -0.4471  0.5145
  917MOL0     H23788   2.410   5.316   2.241 -0.4700 -0.2212 -0.2381
  917MOL0     H23789   2.624   5.302   2.466  0.1663  0.4964 -0.0989
  917MOL0     H23790   2.482   5.412   2.479 -2.9203 -0.0590 -1.4710
  917MOL0     H23791   2.308   5.076   2.631 -1.6615  2.6074  0.6278
  917MOL0     H23792   2.268   5.512   2.030  1.6000  0.5426 -0.3512
  917MOL0     H23793   2.060   5.572   1.931 -2.9006  2.0033 -1.1316
  917MOL0     H23794   2.065   5.620   1.756  0.3599  1.1415  1.4435
  917MOL0     H23795   2.052   5.446   1.802 -1.4400  1.0522 -1.7110
  918MOL0     O23796   8.091  10.667  10.000 -0.8090 -0.4454  0.7463
  918MOL0     C23797   7.998  10.734   9.966 -0.0625  0.3531 -0.3232
  918MOL0     O23798   7.933  10.820  10.052 -0.9566  0.3487  0.2468
  918MOL0     C23799   7.967  10.809  10.185  0.2580 -0.2298 -0.0689
  918MOL0     C23800   7.995  10.923  10.253  1.5975 -0.9203  1.0582
  918MOL0     C23801   8.025  10.916  10.391  0.5243 -0.2012  0.7294
  918MOL0     C23802   8.012  10.791  10.462 -0.2819 -0.3452  1.3208
  918MOL0     O23803   8.039  10.779  10.596 -0.4731  0.1078 -0.5188
  918MOL0     C23804   8.047  10.896  10.680 -0.8110  0.1723 -1.0382
  918MOL0     C23805   8.092  10.859  10.823  0.0506 -0.3116  0.3583
  918MOL0     C23806   8.102  10.964  10.935  0.2973  0.1010  0.9477
  918MOL0     C23807   8.227  11.043  10.929  0.3161  0.3292  0.5619
  918MOL0     C23808   8.239  11.144  11.047  0.3473  0.6654 -0.0679
  918MOL0     C23809   8.335  11.089  11.150 -0.3613  0.8160 -1.2167
  918MOL0     C23810   8.372  11.211  11.241  1.3739  0.4273  0.5161
  918MOL0     C23811   8.455  11.326  11.183 -0.1855 -0.2946  0.6773
  918MOL0     N23812   8.541  11.410  11.282  0.7634 -0.4880  0.5219
  918MOL0     C23813   8.499  11.452  11.406  0.9869  0.5056 -0.1583
  918MOL0     C23814   8.609  11.510  11.472 -0.6423 -0.6313  0.2436
  918MOL0     C23815   8.624  11.544  11.616  0.0751 -0.0270  0.1808
  918MOL0     C23816   8.660  11.700  11.631 -0.1813 -0.2018 -0.2517
  918MOL0     C23817   8.609  11.762  11.771  0.4640 -0.0943  0.0747
  918MOL0     C23818   8.677  11.707  11.901  0.1141 -0.2112 -0.4064
  918MOL0     O23819   8.612  11.765  12.026  0.3319  0.5849  1.0025
  918MOL0     C23820   8.646  11.709  12.146 -0.7843 -0.0036  0.1733
  918MOL0     C23821   8.621  11.789  12.263 -0.6423 -0.4853 -0.2857
  918MOL0     C23822   8.675  11.746  12.383  0.3966  0.0965 -0.1659
  918MOL0     C23823   8.736  11.625  12.400 -0.0152  0.7670 -0.6903
  918MOL0     C23824   8.783  11.588  12.527  0.0269 -0.4645 -0.5480
  918MOL0     O23825   8.719  11.640  12.635 -0.2001  0.0148  1.0341
  918MOL0     C23826   8.771  11.597  12.753 -0.4696 -0.3452  0.0783
  918MOL0     C23827   8.740  11.477  12.826 -0.3553 -0.8652  0.6202
  918MOL0     C23828   8.800  11.456  12.953 -0.2494  1.1013 -0.1809
  918MOL0     C23829   8.886  11.555  13.009 -0.3274 -0.2555 -0.1430
  918MOL0     O23830   8.933  11.526  13.130  0.5353  0.5231  0.1884
  918MOL0     C23831   9.068  11.575  13.156  0.0627 -0.5749 -0.2747
  918MOL0     C23832   9.110  11.551  13.303  0.0806 -0.0850 -0.0296
  918MOL0     C23833   9.160  11.412  13.336 -0.2268  0.4254  0.0477
  918MOL0     C23834   9.116  11.364  13.476 -0.1327  0.3844  0.0504
  918MOL0     C23835   9.146  11.213  13.485  0.3191 -0.3207 -1.3776
  918MOL0     C23836   9.084  11.175  13.620 -0.1339  0.7002  0.4156
  918MOL0     C23837   9.088  11.025  13.671 -0.4301  0.6648  0.8852
  918MOL0     C23838   9.004  10.995  13.783 -0.2483  0.8762  0.7445
  918MOL0    Cl23839   9.075  10.839  13.848 -0.2849 -0.2119 -0.0527
  918MOL0     C23840   8.914  11.668  12.938 -0.3070 -0.5219 -0.1504
  918MOL0     C23841   8.862  11.687  12.807  0.3202 -0.1509  0.0437
  918MOL0     O23842   8.881  11.512  12.536  0.3209  0.3144 -0.3430
  918MOL0     C23843   8.752  11.534  12.296  0.0323 -0.3115 -0.1304
  918MOL0     C23844   8.705  11.583  12.165  0.4579 -0.4990 -0.0743
  918MOL0     N23845   8.709  11.508  11.378  0.7576 -0.4282  1.4450
  918MOL0     N23846   8.666  11.450  11.262 -0.2703 -0.0990  0.0492
  918MOL0     C23847   7.987  10.678  10.390 -0.3360  0.2902 -0.1929
  918MOL0     C23848   7.953  10.685  10.253 -0.2775  0.3009  0.2781
  918MOL0     C23849   7.949  10.729   9.826 -0.0734 -0.6260 -0.6029
  918MOL0     C23850   7.935  10.853   9.764 -0.7575  0.8611  0.1603
  918MOL0     C23851   7.874  10.855   9.636  0.8868  0.8306 -0.4538
  918MOL0     C23852   7.816  10.744   9.580 -0.0790 -0.6864 -0.4265
  918MOL0     O23853   7.747  10.771   9.464 -0.4749  0.5613  0.0988
  918MOL0     C23854   7.679  10.670   9.400 -0.5319  0.7076 -0.5745
  918MOL0     C23855   7.608  10.716   9.272  0.6319  0.8106  0.3264
  918MOL0     C23856   7.498  10.620   9.219  0.4549 -0.4679  0.3804
  918MOL0     C23857   7.431  10.663   9.086  0.0064 -0.0412 -1.4018
  918MOL0     C23858   7.505  10.602   8.974  0.8519  0.4526  1.9343
  918MOL0     C23859   7.564  10.557   8.877  0.2639 -0.4867  1.2703
  918MOL0     C23860   7.830  10.624   9.643 -0.4791  0.0463  0.3452
  918MOL0     C23861   7.900  10.606   9.765  0.2333  0.1285  0.1266
  918MOL0     C23862   7.907  10.484   9.848 -0.3440  0.2134  0.2720
  918MOL0     H23863   7.999  11.011  10.190  2.0210 -2.4271 -1.1266
  918MOL0     H23864   8.075  10.996  10.444  3.7725 -1.6639  0.1452
  918MOL0     H23865   8.135  10.954  10.652  1.6611 -2.8768 -0.1920
  918MOL0     H23866   7.955  10.956  10.680  0.7572  2.8051  1.1231
  918MOL0     H23867   8.193  10.816  10.819  0.6251  1.0390 -0.2341
  918MOL0     H23868   8.029  10.779  10.862 -0.1381  0.6228  2.0768
  918MOL0     H23869   8.085  10.916  11.032 -0.9469 -0.2294  0.5837
  918MOL0     H23870   8.017  11.033  10.926  0.6861  0.3364 -5.0023
  918MOL0     H23871   8.306  10.969  10.918 -0.9217 -0.7030 -2.2502
  918MOL0     H23872   8.233  11.106  10.839  1.0658  0.0116  0.3890
  918MOL0     H23873   8.276  11.242  11.014  0.0751  0.8600  0.1994
  918MOL0     H23874   8.141  11.155  11.095  0.7751  0.3389  0.8969
  918MOL0     H23875   8.289  11.018  11.219  0.2318 -0.1243 -1.7702
  918MOL0     H23876   8.425  11.060  11.095  0.5313  3.1545 -1.0896
  918MOL0     H23877   8.431  11.180  11.327  4.3175  0.5375 -1.3180
  918MOL0     H23878   8.276  11.253  11.273  1.6014 -0.0999  1.9410
  918MOL0     H23879   8.537  11.290  11.120 -0.8839  0.9595 -1.0334
  918MOL0     H23880   8.392  11.388  11.119 -0.9267  0.1168  1.7875
  918MOL0     H23881   8.415  11.436  11.472  1.1814 -0.6420 -0.1703
  918MOL0     H23882   8.537  11.510  11.672  1.2747 -1.9201  0.9874
  918MOL0     H23883   8.700  11.481  11.664 -0.5743 -0.5941  0.4741
  918MOL0     H23884   8.762  11.724  11.600 -0.1787  0.4784  0.2741
  918MOL0     H23885   8.603  11.746  11.550 -2.7835 -1.9116  0.4657
  918MOL0     H23886   8.503  11.739  11.781  0.3826  0.6985  1.1626
  918MOL0     H23887   8.615  11.872  11.775  4.2328 -0.2084  1.7603
  918MOL0     H23888   8.783  11.732  11.894  0.3565 -0.7012  1.2692
  918MOL0     H23889   8.656  11.600  11.906 -4.0633  0.5032  1.5615
  918MOL0     H23890   8.588  11.891  12.252  1.7738  1.0818  4.3969
  918MOL0     H23891   8.663  11.821  12.460  3.0581 -0.0811  0.5318
  918MOL0     H23892   8.672  11.426  12.760  5.1930 -2.0702 -5.1727
  918MOL0     H23893   8.796  11.362  13.007  0.6895  0.3533 -1.3690
  918MOL0     H23894   9.143  11.538  13.085  0.2535  0.9156 -0.8845
  918MOL0     H23895   9.072  11.684  13.160  2.5382 -0.6540  2.2448
  918MOL0     H23896   9.196  11.618  13.311 -0.2639  0.5644 -1.4131
  918MOL0     H23897   9.031  11.590  13.368  0.0453  0.2041 -0.2423
  918MOL0     H23898   9.117  11.344  13.262 -2.0922  2.7398 -1.1395
  918MOL0     H23899   9.269  11.403  13.322 -0.5774 -0.9216 -2.3099
  918MOL0     H23900   9.010  11.381  13.495  0.1275  3.9124 -1.0271
  918MOL0     H23901   9.180  11.406  13.553  1.9183 -2.3087 -0.0065
  918MOL0     H23902   9.253  11.191  13.480  1.0318  1.3838  2.7685
  918MOL0     H23903   9.096  11.158  13.405  0.6606  1.0540 -2.5706
  918MOL0     H23904   9.128  11.240  13.696  2.0106  0.1697 -0.3060
  918MOL0     H23905   8.979  11.205  13.620 -0.0075  1.3402  2.6638
  918MOL0     H23906   9.188  11.006  13.712  0.2446  0.3832 -0.7745
  918MOL0     H23907   9.079  10.953  13.590 -1.6691 -0.1782  1.7497
  918MOL0     H23908   9.001  11.076  13.857  0.7961  0.5940  1.1132
  918MOL0     H23909   8.901  10.975  13.752  0.2680  1.4580 -1.5264
  918MOL0     H23910   8.977  11.748  12.975 -0.2165 -1.1894  1.1928
  918MOL0     H23911   8.893  11.772  12.747  2.7404 -1.5068 -0.7316
  918MOL0     H23912   8.812  11.445  12.313 -0.8744 -0.2136  5.3003
  918MOL0     H23913   8.726  11.506  12.090  2.1422  0.5496 -0.7391
  918MOL0     H23914   7.981  10.584  10.443  1.2854 -0.2228 -0.8704
  918MOL0     H23915   7.924  10.592  10.206 -1.9440  2.4438 -3.4021
  918MOL0     H23916   7.981  10.934   9.820 -1.4596 -0.6457  3.1118
  918MOL0     H23917   7.864  10.945   9.576 -4.5763  2.3288  2.1331
  918MOL0     H23918   7.596  10.630   9.460  1.8469 -2.7781  0.7225
  918MOL0     H23919   7.732  10.575   9.389  0.3918  0.6141  3.2937
  918MOL0     H23920   7.683  10.719   9.192 -1.3194  0.1384 -1.6263
  918MOL0     H23921   7.557  10.813   9.282 -3.1408 -0.9620  0.0024
  918MOL0     H23922   7.421  10.622   9.296  2.7549 -1.0811  2.8476
  918MOL0     H23923   7.530  10.517   9.202 -0.7251 -0.8101  0.1190
  918MOL0     H23924   7.333  10.616   9.101  0.7860 -1.0086  1.1972
  918MOL0     H23925   7.420  10.766   9.052  1.8631 -0.0484 -2.1677
  918MOL0     H23926   7.625  10.526   8.795 -0.0706 -0.0176  0.8448
  918MOL0     H23927   7.786  10.540   9.591 -3.7458 -0.3281  3.3110
  918MOL0     H23928   8.009  10.456   9.874 -0.8813 -0.2676  1.9847
  918MOL0     H23929   7.845  10.512   9.934 -0.3679  1.5050 -0.1444
  918MOL0     H23930   7.842  10.410   9.802 -3.8890  2.5881  1.0283
  919MOL0     O23931   8.896   0.244   9.527 -0.1849  0.3725 -0.6755
  919MOL0     C23932   8.880   0.140   9.457  0.4839 -0.3596  0.5318
  919MOL0     O23933   8.846   0.138   9.325 -0.4752 -0.4249 -0.6980
  919MOL0     C23934   8.882   0.248   9.259 -0.2769 -0.6972 -0.2161
  919MOL0     C23935   8.785   0.290   9.167  0.2185  0.2304  0.2169
  919MOL0     C23936   8.795   0.411   9.102 -0.1681 -0.6847  0.1950
  919MOL0     C23937   8.916   0.488   9.114  0.3962 -0.3993 -0.7933
  919MOL0     O23938   8.947   0.599   9.028 -0.6518  0.3745  0.1807
  919MOL0     C23939   8.949   0.719   9.100  0.7354  0.5652  0.0022
  919MOL0     C23940   8.949   0.839   9.009  0.0523 -0.6744 -0.7281
  919MOL0     C23941   8.820   0.857   8.906 -0.7658 -0.7833 -0.3997
  919MOL0     C23942   8.779   1.008   8.904 -0.0319 -0.0930  0.3228
  919MOL0     C23943   8.669   1.045   8.808  0.4991 -0.4901 -0.4158
  919MOL0     C23944   8.683   0.996   8.662 -0.2401  0.0180 -0.4672
  919MOL0     C23945   8.575   1.045   8.571 -0.9068 -0.1311 -0.6327
  919MOL0     C23946   8.596   1.014   8.423 -0.3404 -0.5199 -0.4422
  919MOL0     N23947   8.559   0.880   8.381 -0.4101 -0.3044 -0.4427
  919MOL0     C23948   8.439   0.845   8.327 -0.5741 -1.1455  0.0369
  919MOL0     C23949   8.461   0.714   8.293  0.2507 -0.8663  0.0051
  919MOL0     C23950   8.364   0.611   8.233  0.2283 -0.5582 -0.5275
  919MOL0     C23951   8.268   0.538   8.339 -0.3547 -0.4795 -0.4536
  919MOL0     C23952   8.156   0.635   8.382 -0.7871 -0.7817  0.0692
  919MOL0     C23953   8.103   0.576   8.521  0.8738  0.2545  0.5019
  919MOL0     O23954   8.086   0.434   8.512 -0.0639  0.3999  0.0126
  919MOL0     C23955   8.104   0.361   8.621  0.1752  0.3787 -0.3019
  919MOL0     C23956   8.213   0.281   8.648  0.6391 -0.6241  0.5162
  919MOL0     C23957   8.224   0.216   8.768  0.6004  0.8835  0.8336
  919MOL0     C23958   8.123   0.236   8.864 -0.3634  1.1306 -0.0410
  919MOL0     C23959   8.134   0.179   8.994  0.5030 -0.2251  0.3689
  919MOL0     O23960   8.266   0.143   9.035  0.4139 -0.2192  0.7227
  919MOL0     C23961   8.296   0.073   9.150  0.5147 -0.8944  1.2268
  919MOL0     C23962   8.425   0.069   9.197  0.3002 -0.7421  0.3926
  919MOL0     C23963   8.469   0.013   9.312 -0.0950  0.9009  0.3999
  919MOL0     C23964   8.374  -0.055   9.397  0.5507 -0.6934  0.2295
  919MOL0     O23965   8.405  -0.116   9.515 -0.3518 -1.3186  0.1346
  919MOL0     C23966   8.541  -0.166   9.527  1.4316 -0.2636 -0.4573
  919MOL0     C23967   8.556  -0.257   9.646 -0.4862 -0.6192  0.2510
  919MOL0     C23968   8.530  -0.392   9.613  0.8657  0.0653  0.2542
  919MOL0     C23969   8.551  -0.493   9.734  0.8926  0.2611 -1.1381
  919MOL0     C23970   8.437  -0.480   9.838  0.9168  0.5897  0.1772
  919MOL0     C23971   8.449  -0.595   9.939  0.1018  0.0987  0.8586
  919MOL0     C23972   8.315  -0.629  10.015  0.2677 -0.8652 -0.5349
  919MOL0     C23973   8.333  -0.739  10.116 -0.3589 -1.2718  0.4136
  919MOL0    Cl23974   8.454  -0.701  10.244  0.0805 -0.1787 -0.0786
  919MOL0     C23975   8.240  -0.037   9.352  0.2711  1.5646  1.1557
  919MOL0     C23976   8.194   0.024   9.232  0.0930  0.4911  0.4660
  919MOL0     O23977   8.028   0.168   9.057  0.5822  1.0005  0.1559
  919MOL0     C23978   8.006   0.309   8.833  0.5514  0.4076  1.0476
  919MOL0     C23979   7.999   0.371   8.719  0.2382 -1.4256  0.4824
  919MOL0     N23980   8.595   0.685   8.320 -0.3465 -0.1108  0.2989
  919MOL0     N23981   8.645   0.782   8.390  0.5980 -0.2123  0.9518
  919MOL0     C23982   9.017   0.441   9.192 -0.1733  0.0352  0.1381
  919MOL0     C23983   9.002   0.328   9.270  0.6314 -0.2092  0.3010
  919MOL0     C23984   8.875  -0.001   9.519 -1.1582  1.2072 -0.0551
  919MOL0     C23985   8.871  -0.120   9.440 -1.1697 -1.3657  1.0888
  919MOL0     C23986   8.889  -0.249   9.488 -0.6644 -0.0346  0.8412
  919MOL0     C23987   8.927  -0.266   9.625  0.1828  0.2984 -0.1746
  919MOL0     O23988   8.963  -0.388   9.685  0.1869 -0.0620  0.6265
  919MOL0     C23989   8.913  -0.504   9.615 -0.3343  0.3947 -0.7416
  919MOL0     C23990   8.919  -0.617   9.723 -0.7649 -0.3248  0.3059
  919MOL0     C23991   8.868  -0.743   9.668  0.9040  0.9351 -0.4857
  919MOL0     C23992   8.892  -0.863   9.750  0.8271  0.2077 -0.4737
  919MOL0     C23993   8.832  -0.868   9.888  0.4170 -0.3798 -0.2325
  919MOL0     C23994   8.785  -0.870   9.994 -0.0889 -0.0895 -0.5339
  919MOL0     C23995   8.939  -0.155   9.703 -0.2432 -0.4778  0.5321
  919MOL0     C23996   8.901  -0.027   9.658 -0.2068  0.0251 -0.2458
  919MOL0     C23997   8.941   0.085   9.745  0.7420 -0.5152  0.2511
  919MOL0     H23998   8.691   0.236   9.164  1.7468 -2.5772  0.0087
  919MOL0     H23999   8.713   0.441   9.038  1.3753 -0.3369 -1.7021
  919MOL0     H24000   8.860   0.736   9.162  0.1173  0.2971 -0.7966
  919MOL0     H24001   9.037   0.717   9.165  2.8239 -2.3429 -2.6520
  919MOL0     H24002   9.049   0.841   8.965  0.3220 -1.2861 -0.1601
  919MOL0     H24003   8.938   0.929   9.071 -1.5413  0.3251 -2.3534
  919MOL0     H24004   8.735   0.801   8.947 -1.5111  0.3243 -0.4090
  919MOL0     H24005   8.836   0.802   8.812 -1.9861  0.8400 -1.6145
  919MOL0     H24006   8.748   1.047   9.001 -0.4623  0.3482  0.0107
  919MOL0     H24007   8.876   1.057   8.889  1.1802 -1.7877  2.0973
  919MOL0     H24008   8.576   1.006   8.850  1.6008 -1.9530  0.8107
  919MOL0     H24009   8.665   1.154   8.798 -0.6307 -0.7000 -3.0520
  919MOL0     H24010   8.787   1.012   8.632 -1.3788  2.5244 -3.7773
  919MOL0     H24011   8.671   0.887   8.670  1.0875 -0.0028  2.3554
  919MOL0     H24012   8.576   1.154   8.575 -2.1244 -0.1127 -0.5141
  919MOL0     H24013   8.477   1.017   8.611 -0.3486 -1.5252 -0.1806
  919MOL0     H24014   8.559   1.097   8.362 -0.3730  0.7698  1.2630
  919MOL0     H24015   8.701   1.036   8.398 -0.6864  0.7495 -0.8553
  919MOL0     H24016   8.341   0.891   8.315 -0.8054 -2.1860 -2.6774
  919MOL0     H24017   8.298   0.659   8.161  1.9608 -0.8388 -2.3647
  919MOL0     H24018   8.420   0.531   8.185 -1.6240 -1.8180 -0.6967
  919MOL0     H24019   8.229   0.450   8.286 -0.5783  0.4937 -1.9691
  919MOL0     H24020   8.334   0.503   8.420 -0.1111  1.3114  0.1522
  919MOL0     H24021   8.078   0.641   8.306 -1.5674 -1.9584  0.7539
  919MOL0     H24022   8.183   0.740   8.398  1.9325 -1.2519 -0.7792
  919MOL0     H24023   8.004   0.622   8.533  0.2405 -0.0114 -2.8779
  919MOL0     H24024   8.166   0.599   8.608 -2.3821  0.0985  3.0893
  919MOL0     H24025   8.281   0.265   8.565 -1.2339  1.4311 -1.5561
  919MOL0     H24026   8.303   0.146   8.789 -0.7061 -0.5829  1.0598
  919MOL0     H24027   8.508   0.110   9.142  0.7522  0.7756  2.0893
  919MOL0     H24028   8.572   0.024   9.343  0.0083 -1.4185  1.0801
  919MOL0     H24029   8.558  -0.224   9.436 -1.3344 -0.0522 -1.1841
  919MOL0     H24030   8.599  -0.074   9.535 -2.0979  2.0651  0.5824
  919MOL0     H24031   8.662  -0.248   9.671 -0.1364  1.6983 -1.7528
  919MOL0     H24032   8.505  -0.222   9.737  0.0852  0.5971  0.1275
  919MOL0     H24033   8.428  -0.397   9.573  2.2838  3.9153 -5.0863
  919MOL0     H24034   8.597  -0.420   9.531  3.9903  0.1388  2.6420
  919MOL0     H24035   8.647  -0.472   9.781 -0.3685 -0.4655  2.0265
  919MOL0     H24036   8.529  -0.595   9.701 -2.6832  1.3361 -2.5862
  919MOL0     H24037   8.344  -0.482   9.781  1.1557 -0.0639 -0.1953
  919MOL0     H24038   8.436  -0.385   9.892 -0.5067  2.6351 -3.1033
  919MOL0     H24039   8.470  -0.684   9.879 -4.4090 -0.7013  0.0984
  919MOL0     H24040   8.537  -0.571  10.000  1.2043 -0.0273 -0.6330
  919MOL0     H24041   8.228  -0.637   9.949  0.7818 -0.0002 -1.3438
  919MOL0     H24042   8.281  -0.538  10.066 -1.6779 -1.4105 -0.7690
  919MOL0     H24043   8.238  -0.758  10.167 -1.5265 -4.0435 -2.5037
  919MOL0     H24044   8.362  -0.833  10.068 -2.8963 -2.1461  0.4612
  919MOL0     H24045   8.155  -0.081   9.404 -1.4004  1.8952 -1.1229
  919MOL0     H24046   8.091   0.001   9.206  0.1807  0.9435 -0.2801
  919MOL0     H24047   7.926   0.326   8.904  1.8364  0.6238  2.5105
  919MOL0     H24048   7.912   0.434   8.704 -0.0203 -1.0859  3.0951
  919MOL0     H24049   9.112   0.494   9.187  1.5287 -2.6432  1.6093
  919MOL0     H24050   9.074   0.284   9.339  0.2344 -1.9599 -0.3564
  919MOL0     H24051   8.859  -0.100   9.334 -0.0487 -0.6237  1.0877
  919MOL0     H24052   8.881  -0.336   9.423 -2.6273  0.6924  0.0541
  919MOL0     H24053   8.984  -0.533   9.536 -1.5136  3.1338 -2.9794
  919MOL0     H24054   8.808  -0.503   9.583 -0.6140 -1.3432  0.0076
  919MOL0     H24055   8.851  -0.577   9.800 -0.8280 -1.8003  1.0442
  919MOL0     H24056   9.016  -0.637   9.770 -1.4373 -3.0028  0.7204
  919MOL0     H24057   8.906  -0.765   9.567  0.9426 -1.3358 -0.0400
  919MOL0     H24058   8.760  -0.737   9.655  0.0539 -1.0666  3.8499
  919MOL0     H24059   8.867  -0.957   9.700 -0.0639 -0.9908  2.0830
  919MOL0     H24060   9.001  -0.862   9.757  0.7274  1.7226  2.2566
  919MOL0     H24061   8.769  -0.854  10.099  1.0842  0.3429 -0.4036
  919MOL0     H24062   8.996  -0.172   9.793 -1.8283  0.2183  1.7084
  919MOL0     H24063   9.020   0.135   9.689 -1.1496  1.2173 -1.0264
  919MOL0     H24064   8.870   0.168   9.754 -1.3995 -1.9683 -2.0338
  919MOL0     H24065   8.983   0.051   9.840  1.2200 -2.1484 -0.5120
  920MOL0     O24066   3.070   6.667   2.636 -0.9267 -0.2519 -0.0519
  920MOL0     C24067   3.122   6.624   2.527 -0.1284 -0.5288 -0.7409
  920MOL0     O24068   3.227   6.542   2.518 -0.5078  0.2440  0.2106
  920MOL0     C24069   3.303   6.508   2.632  0.3760 -0.3206  0.9702
  920MOL0     C24070   3.439   6.525   2.627  0.8273  0.0696  1.0879
  920MOL0     C24071   3.513   6.494   2.743  0.8008  0.0954  0.7222
  920MOL0     C24072   3.441   6.467   2.856 -0.4321  0.3342 -0.2162
  920MOL0     O24073   3.501   6.469   2.974  0.0425  0.1671  0.0243
  920MOL0     C24074   3.595   6.564   3.000 -0.1035  0.1059  0.1284
  920MOL0     C24075   3.575   6.591   3.149 -0.8344 -0.2849 -0.0708
  920MOL0     C24076   3.627   6.731   3.179 -0.4877  0.3259  0.7008
  920MOL0     C24077   3.764   6.727   3.252  0.7824  0.5777 -0.3712
  920MOL0     C24078   3.760   6.793   3.390 -0.9398 -0.4126  0.5520
  920MOL0     C24079   3.861   6.728   3.485 -0.0758 -0.0965 -0.4387
  920MOL0     C24080   3.898   6.838   3.579 -0.1963  1.2510 -0.2630
  920MOL0     C24081   4.037   6.804   3.632  0.2732 -0.9076  0.2939
  920MOL0     N24082   4.055   6.874   3.761  0.0754  0.1216  0.8245
  920MOL0     C24083   4.096   7.007   3.782 -0.4627 -0.2083  1.1806
  920MOL0     C24084   4.070   7.025   3.905  0.6766 -0.2016 -0.0236
  920MOL0     C24085   4.117   7.141   3.984 -0.3232 -0.9522 -0.5724
  920MOL0     C24086   4.048   7.267   3.921 -0.2410  0.5690 -0.8278
  920MOL0     C24087   4.130   7.391   3.960 -1.4346  0.3210  1.0829
  920MOL0     C24088   4.238   7.410   3.854  0.4596  1.2412  0.5012
  920MOL0     O24089   4.362   7.338   3.888  0.5955 -0.3887  0.0721
  920MOL0     C24090   4.467   7.358   3.797 -0.4333  0.0852 -0.1468
  920MOL0     C24091   4.579   7.274   3.821  0.8474 -0.0521 -0.9111
  920MOL0     C24092   4.691   7.269   3.737 -0.4321  0.1463 -0.3437
  920MOL0     C24093   4.695   7.343   3.615 -0.3016  0.3729 -0.0350
  920MOL0     C24094   4.813   7.347   3.526  1.3578 -0.0939  0.5404
  920MOL0     O24095   4.834   7.438   3.434  0.4699 -0.2403 -0.0561
  920MOL0     C24096   4.947   7.419   3.349 -0.0882  0.5527  0.2703
  920MOL0     C24097   5.083   7.401   3.391 -1.3385 -1.3135  0.2091
  920MOL0     C24098   5.186   7.422   3.305 -0.8600 -0.9387 -0.3055
  920MOL0     C24099   5.163   7.441   3.170  0.0262  0.3396 -0.1121
  920MOL0     O24100   5.277   7.440   3.095 -0.2455  0.0353  0.4998
  920MOL0     C24101   5.287   7.354   2.977  0.0343  0.4917 -0.1702
  920MOL0     C24102   5.423   7.375   2.914  0.1476  0.2099 -0.9364
  920MOL0     C24103   5.447   7.512   2.844  0.2347  0.4678 -0.5602
  920MOL0     C24104   5.556   7.502   2.735 -0.1698  0.5879 -0.8734
  920MOL0     C24105   5.522   7.433   2.602  0.1637 -0.7216 -0.1527
  920MOL0     C24106   5.636   7.444   2.493 -0.7833 -0.2382 -0.6573
  920MOL0     C24107   5.684   7.594   2.476 -1.1680 -0.4879 -0.3946
  920MOL0     C24108   5.791   7.612   2.359 -0.2806  0.0495  0.5000
  920MOL0    Cl24109   5.868   7.783   2.357  0.6023 -0.4440  0.0806
  920MOL0     C24110   5.030   7.457   3.117  0.2241 -0.0274 -0.1811
  920MOL0     C24111   4.926   7.456   3.216 -0.1139  1.1731 -1.3119
  920MOL0     O24112   4.885   7.257   3.545 -0.0096  0.2939 -0.1501
  920MOL0     C24113   4.590   7.434   3.589  0.3353 -0.3822  0.2912
  920MOL0     C24114   4.482   7.446   3.682  0.3451  0.1983 -1.1993
  920MOL0     N24115   3.997   6.916   3.960 -0.1491  0.0902  0.7428
  920MOL0     N24116   3.997   6.822   3.872  0.0868 -0.3710 -0.5944
  920MOL0     C24117   3.302   6.446   2.868  0.0852  0.0846 -0.0091
  920MOL0     C24118   3.237   6.457   2.748  0.7463  0.6096  1.7026
  920MOL0     C24119   3.070   6.689   2.407 -0.6416 -0.2814 -0.1600
  920MOL0     C24120   2.958   6.647   2.321 -0.8518 -0.0706  0.4752
  920MOL0     C24121   2.909   6.730   2.220 -0.5693 -0.6356  0.1680
  920MOL0     C24122   2.979   6.842   2.180 -0.5830 -0.0762 -0.7669
  920MOL0     O24123   2.935   6.921   2.068  0.1564 -0.1494 -0.5149
  920MOL0     C24124   2.803   6.940   2.030  1.0716  0.7299  0.4072
  920MOL0     C24125   2.790   7.000   1.888 -0.3240 -0.5475  0.5475
  920MOL0     C24126   2.821   7.153   1.885 -1.3911 -0.1976  0.3859
  920MOL0     C24127   2.820   7.206   1.742  0.4166 -0.2554 -1.0281
  920MOL0     C24128   2.680   7.215   1.706  1.5918  0.3546 -0.3488
  920MOL0     C24129   2.568   7.213   1.656 -0.2292  0.2225  0.6173
  920MOL0     C24130   3.098   6.879   2.254 -0.0310 -0.1182  0.0350
  920MOL0     C24131   3.142   6.804   2.361  0.3119 -1.2534  0.3449
  920MOL0     C24132   3.262   6.859   2.432  0.5319  0.1123 -0.0563
  920MOL0     H24133   3.483   6.565   2.537  2.1087 -3.7711 -0.2049
  920MOL0     H24134   3.621   6.503   2.749  0.8307  0.2983  0.0153
  920MOL0     H24135   3.691   6.513   2.986 -1.6870 -3.2847  0.6906
  920MOL0     H24136   3.588   6.648   2.930  1.2178 -0.6983 -1.0368
  920MOL0     H24137   3.640   6.518   3.199  0.9463 -0.7784 -2.8516
  920MOL0     H24138   3.469   6.577   3.168 -0.3794 -2.8105  0.9513
  920MOL0     H24139   3.552   6.778   3.244 -0.8808 -0.2486  0.6651
  920MOL0     H24140   3.634   6.790   3.087 -1.6678  0.4526  0.6871
  920MOL0     H24141   3.797   6.625   3.273 -0.1633 -0.0946 -2.0265
  920MOL0     H24142   3.838   6.769   3.183  0.0460  1.2362 -0.7761
  920MOL0     H24143   3.782   6.899   3.372 -1.5556 -0.6702 -2.2234
  920MOL0     H24144   3.661   6.783   3.434 -0.7284  1.0774  1.4349
  920MOL0     H24145   3.817   6.646   3.543  0.0986 -0.0192 -0.1982
  920MOL0     H24146   3.945   6.704   3.420  1.2184  1.4509  0.5964
  920MOL0     H24147   3.827   6.833   3.662 -1.0989  2.4555 -0.9332
  920MOL0     H24148   3.896   6.938   3.535  2.0776  1.5477  0.1925
  920MOL0     H24149   4.060   6.700   3.658  1.2325 -0.7667  0.0610
  920MOL0     H24150   4.109   6.845   3.561 -1.5333  1.9113 -0.0678
  920MOL0     H24151   4.154   7.078   3.723 -3.5186 -0.6307 -2.8103
  920MOL0     H24152   4.108   7.134   4.093  2.4997  0.0149 -0.1769
  920MOL0     H24153   4.224   7.137   3.961 -0.3740 -2.2678 -0.6475
  920MOL0     H24154   4.035   7.252   3.813  0.6446  0.6643 -0.9531
  920MOL0     H24155   3.947   7.284   3.958 -0.4583 -0.5129 -0.9066
  920MOL0     H24156   4.173   7.383   4.060  1.2114 -1.0430 -0.0643
  920MOL0     H24157   4.054   7.469   3.953  0.2547  1.8679 -1.3122
  920MOL0     H24158   4.250   7.518   3.865  1.5894  1.1096  0.6062
  920MOL0     H24159   4.204   7.389   3.752  0.1378 -0.3073  0.8990
  920MOL0     H24160   4.596   7.205   3.904  1.1087  0.7188 -0.3121
  920MOL0     H24161   4.773   7.207   3.770  0.5224 -1.5024 -5.0898
  920MOL0     H24162   5.111   7.387   3.495 -6.5720 -2.9485  1.7184
  920MOL0     H24163   5.290   7.409   3.334 -0.1538 -2.1783 -3.1177
  920MOL0     H24164   5.265   7.255   3.016 -0.9714  0.6093 -0.3963
  920MOL0     H24165   5.211   7.380   2.903  0.6794  1.8009 -0.4100
  920MOL0     H24166   5.494   7.370   2.998 -1.4516  3.6201  0.8377
  920MOL0     H24167   5.449   7.294   2.845  0.2714 -0.7251  0.1702
  920MOL0     H24168   5.349   7.541   2.806 -1.3263 -2.1221  1.2026
  920MOL0     H24169   5.489   7.584   2.916  3.0410 -0.3635 -1.2173
  920MOL0     H24170   5.640   7.453   2.786 -1.0058  0.8832  0.8708
  920MOL0     H24171   5.579   7.603   2.701  0.0013 -0.0463 -2.7540
  920MOL0     H24172   5.432   7.482   2.561  0.5332 -1.6913 -2.2646
  920MOL0     H24173   5.488   7.329   2.609 -1.9279 -0.1736 -1.3282
  920MOL0     H24174   5.726   7.386   2.514 -0.8767 -0.9056 -2.0049
  920MOL0     H24175   5.602   7.398   2.400  1.5765 -2.2874 -0.6086
  920MOL0     H24176   5.737   7.612   2.569  0.8508 -0.4913 -1.4868
  920MOL0     H24177   5.608   7.672   2.475 -1.7476 -0.9551  2.1563
  920MOL0     H24178   5.870   7.537   2.362  0.6451  0.6292 -3.3422
  920MOL0     H24179   5.746   7.596   2.260 -1.6100 -2.2539  1.4191
  920MOL0     H24180   5.004   7.470   3.013 -0.0956 -1.7372 -0.3543
  920MOL0     H24181   4.823   7.455   3.183  0.6959 -0.8253 -4.1150
  920MOL0     H24182   4.585   7.498   3.502 -2.4237 -3.0213 -1.6924
  920MOL0     H24183   4.393   7.505   3.661 -1.3174  0.0549  3.9712
  920MOL0     H24184   3.264   6.424   2.967 -0.7550  0.2287 -0.2943
  920MOL0     H24185   3.131   6.435   2.742  1.1624 -1.3624  0.9746
  920MOL0     H24186   2.905   6.555   2.343 -3.4459  1.1368 -0.4207
  920MOL0     H24187   2.825   6.704   2.156 -2.2677  1.3741  1.4592
  920MOL0     H24188   2.747   7.004   2.099  1.9268  1.1608  0.7208
  920MOL0     H24189   2.756   6.844   2.011  4.3763 -0.4328 -3.2723
  920MOL0     H24190   2.691   6.980   1.847 -0.4016 -0.6383  0.7821
  920MOL0     H24191   2.869   6.963   1.822  1.0291  2.4773  0.2924
  920MOL0     H24192   2.918   7.173   1.933 -1.6005 -0.4389  0.9110
  920MOL0     H24193   2.740   7.211   1.929 -1.7064  0.0677 -0.5168
  920MOL0     H24194   2.881   7.297   1.735 -2.0355  1.4179 -2.4147
  920MOL0     H24195   2.865   7.134   1.673  0.2690 -2.2875  0.9215
  920MOL0     H24196   2.473   7.228   1.607  0.3695  1.5506 -0.1834
  920MOL0     H24197   3.162   6.958   2.218  0.4406 -0.8313 -0.7312
  920MOL0     H24198   3.253   6.850   2.541  0.9457 -1.4285 -0.1328
  920MOL0     H24199   3.346   6.815   2.378 -1.0655  0.2648 -2.8831
  920MOL0     H24200   3.281   6.965   2.413  2.8961  0.1481  1.9678
  921MOL0     O24201   7.482   8.336   7.588 -0.8707 -0.4906  0.0122
  921MOL0     C24202   7.517   8.403   7.679  0.9899  0.4246 -0.1404
  921MOL0     O24203   7.627   8.385   7.756  0.2472  0.8016  0.5725
  921MOL0     C24204   7.741   8.321   7.714 -0.2500 -0.3188 -0.6092
  921MOL0     C24205   7.777   8.198   7.773  0.0787  0.0547  0.2203
  921MOL0     C24206   7.891   8.128   7.722  0.6521 -0.1965 -0.4659
  921MOL0     C24207   7.964   8.182   7.616  0.5861 -0.1763 -0.2304
  921MOL0     O24208   8.065   8.112   7.565 -0.4704 -0.3746  0.7507
  921MOL0     C24209   8.052   8.083   7.425 -1.1116 -1.3160  0.1441
  921MOL0     C24210   8.108   7.943   7.382  0.6646  0.5118  0.4195
  921MOL0     C24211   8.020   7.827   7.445 -0.4065 -0.3826  0.1158
  921MOL0     C24212   8.078   7.696   7.421 -0.4202  0.7175 -0.0229
  921MOL0     C24213   7.983   7.576   7.463  0.4998  0.4791 -0.0843
  921MOL0     C24214   8.025   7.438   7.400 -0.2648 -0.3524 -0.5159
  921MOL0     C24215   7.938   7.328   7.454 -0.6357  1.3988 -0.1059
  921MOL0     C24216   7.975   7.192   7.382 -1.0367  0.6625 -0.4570
  921MOL0     N24217   8.044   7.105   7.475 -0.9191  1.0457  0.4999
  921MOL0     C24218   8.050   6.964   7.460 -0.1530  0.1110  0.2414
  921MOL0     C24219   8.137   6.919   7.553 -0.2188 -0.3217  0.0561
  921MOL0     C24220   8.160   6.773   7.585  0.2573 -1.3938 -0.3030
  921MOL0     C24221   8.316   6.750   7.618 -0.1608  0.1630 -0.7974
  921MOL0     C24222   8.341   6.619   7.699 -0.8479 -0.6403 -0.1675
  921MOL0     C24223   8.491   6.623   7.749  0.5885 -0.2364  1.1933
  921MOL0     O24224   8.511   6.511   7.844 -0.0915 -0.8046 -0.3150
  921MOL0     C24225   8.638   6.467   7.866  0.4659  0.0041  0.3642
  921MOL0     C24226   8.742   6.487   7.782 -0.2879 -0.0592  1.3307
  921MOL0     C24227   8.869   6.454   7.835 -0.7094  0.3201 -0.2565
  921MOL0     C24228   8.885   6.373   7.957  0.3933  0.3106  0.6349
  921MOL0     C24229   9.019   6.345   8.011 -0.1951 -0.5889  0.1380
  921MOL0     O24230   9.019   6.311   8.145  0.5063 -0.1894 -0.5839
  921MOL0     C24231   9.139   6.358   8.202  1.3318 -0.1687  0.6426
  921MOL0     C24232   9.153   6.485   8.254  0.3108  0.0109  0.1056
  921MOL0     C24233   9.274   6.531   8.309  0.7336  0.2804  0.1380
  921MOL0     C24234   9.388   6.457   8.318 -0.1517  0.0054  0.1587
  921MOL0     O24235   9.491   6.515   8.368  0.2893 -0.7744 -0.8284
  921MOL0     C24236   9.614   6.454   8.401  0.0584  0.5136 -0.2028
  921MOL0     C24237   9.727   6.549   8.401  0.0834 -0.1700  0.3397
  921MOL0     C24238   9.850   6.496   8.477 -0.0889  0.2714 -0.0934
  921MOL0     C24239   9.920   6.381   8.401 -0.7048 -0.3892 -0.4850
  921MOL0     C24240  10.060   6.344   8.468 -1.1185  0.2607  0.6203
  921MOL0     C24241  10.119   6.221   8.389 -0.1535  0.1230  0.4217
  921MOL0     C24242  10.257   6.192   8.450 -0.5499  0.2022  0.7653
  921MOL0     C24243  10.322   6.066   8.385 -0.4175 -0.5571 -0.5407
  921MOL0    Cl24244  10.233   5.937   8.477 -0.1704  0.2423 -0.0795
  921MOL0     C24245   9.370   6.323   8.270  0.1674  0.0597 -0.6471
  921MOL0     C24246   9.247   6.271   8.214  0.1699  0.5183  0.7548
  921MOL0     O24247   9.105   6.337   7.925  0.1932 -0.1363  0.2542
  921MOL0     C24248   8.771   6.339   8.029  0.7360  0.2185 -1.0824
  921MOL0     C24249   8.650   6.398   7.991  0.0109  0.4330  0.7155
  921MOL0     N24250   8.183   7.032   7.620 -0.0235 -0.6021  0.4824
  921MOL0     N24251   8.144   7.136   7.558 -0.1630 -0.6480 -1.0167
  921MOL0     C24252   7.930   8.303   7.559  0.0321  0.4110 -0.0774
  921MOL0     C24253   7.820   8.378   7.612 -0.9888  0.1395  0.4394
  921MOL0     C24254   7.396   8.478   7.730 -0.3821 -0.8809 -0.4462
  921MOL0     C24255   7.319   8.553   7.638  0.6087 -0.4957 -0.1393
  921MOL0     C24256   7.198   8.618   7.681 -0.4447 -0.9206  0.1233
  921MOL0     C24257   7.148   8.618   7.815  0.1390  0.0440  0.2324
  921MOL0     O24258   7.012   8.657   7.818  0.3406 -0.6150  0.3064
  921MOL0     C24259   6.937   8.609   7.932  0.3356  0.0225  0.2079
  921MOL0     C24260   6.816   8.697   7.968 -0.0315  0.1938  0.2632
  921MOL0     C24261   6.714   8.656   7.867 -0.2436  0.4280 -0.4860
  921MOL0     C24262   6.587   8.746   7.882 -0.1275 -0.0132 -0.1449
  921MOL0     C24263   6.490   8.695   7.780  0.5250 -0.3325 -0.3966
  921MOL0     C24264   6.395   8.649   7.714 -0.3876 -0.9657 -0.7210
  921MOL0     C24265   7.231   8.543   7.902 -1.1230 -0.7112  0.6798
  921MOL0     C24266   7.348   8.474   7.862  0.0776 -0.3791  0.3376
  921MOL0     C24267   7.408   8.391   7.982  0.5255 -0.9164  0.3417
  921MOL0     H24268   7.725   8.147   7.853  0.4262 -1.1595 -0.2976
  921MOL0     H24269   7.904   8.035   7.776  2.7538  1.7803  2.7199
  921MOL0     H24270   7.947   8.101   7.400 -0.6182  1.4045 -0.3143
  921MOL0     H24271   8.117   8.155   7.375 -2.3394  0.0181  0.4069
  921MOL0     H24272   8.215   7.932   7.403  0.3338 -2.5171  0.9840
  921MOL0     H24273   8.109   7.938   7.272 -2.0172 -0.8666  0.3748
  921MOL0     H24274   7.923   7.830   7.395 -0.4054  3.9479  0.0299
  921MOL0     H24275   8.013   7.833   7.554  3.2313 -0.9629  0.5114
  921MOL0     H24276   8.096   7.686   7.314  2.6328  1.0055  0.3845
  921MOL0     H24277   8.178   7.689   7.465 -0.2995 -2.2966 -0.5543
  921MOL0     H24278   7.980   7.572   7.573  2.6153 -4.1084  0.0430
  921MOL0     H24279   7.882   7.604   7.432 -0.8779 -2.5574  1.1859
  921MOL0     H24280   8.017   7.438   7.291 -0.7571 -0.7816 -0.4797
  921MOL0     H24281   8.129   7.422   7.430  0.1820  2.1926 -0.4806
  921MOL0     H24282   7.832   7.353   7.442 -0.9036  0.7039  0.6307
  921MOL0     H24283   7.954   7.320   7.562 -0.6523 -0.2222 -0.1944
  921MOL0     H24284   7.887   7.139   7.346 -1.5534  3.1220 -3.1606
  921MOL0     H24285   8.032   7.208   7.290  0.5121  1.1054  0.5443
  921MOL0     H24286   7.984   6.901   7.401 -1.2783  1.4349  0.0319
  921MOL0     H24287   8.099   6.753   7.673 -0.2985 -2.6587 -0.9539
  921MOL0     H24288   8.137   6.707   7.500  3.7031 -0.9330 -1.7733
  921MOL0     H24289   8.374   6.743   7.526 -0.9720 -1.6294 -1.2107
  921MOL0     H24290   8.350   6.832   7.682  1.9325  1.3002 -3.1665
  921MOL0     H24291   8.326   6.531   7.636 -1.6745 -0.5487 -0.1087
  921MOL0     H24292   8.278   6.605   7.787  2.3716  0.9564  2.6393
  921MOL0     H24293   8.524   6.719   7.791  0.6824  1.1982 -1.9081
  921MOL0     H24294   8.547   6.611   7.656 -1.0136 -3.0889  0.4617
  921MOL0     H24295   8.733   6.519   7.679 -0.5728 -3.3761  0.1984
  921MOL0     H24296   8.950   6.464   7.763  0.4648 -0.5059  0.8981
  921MOL0     H24297   9.064   6.546   8.243 -1.8532 -2.9631 -0.3532
  921MOL0     H24298   9.280   6.633   8.345  2.5262 -0.5432  2.4275
  921MOL0     H24299   9.620   6.402   8.496 -2.0780  1.1612  0.3197
  921MOL0     H24300   9.640   6.384   8.320  2.0843 -0.6049  1.3284
  921MOL0     H24301   9.746   6.573   8.296 -1.9012 -1.3545 -0.3426
  921MOL0     H24302   9.704   6.645   8.449  2.0879  1.4204 -1.6824
  921MOL0     H24303   9.917   6.574   8.513  1.0479 -1.5784  2.0349
  921MOL0     H24304   9.815   6.443   8.566  1.1755  1.2946  1.0464
  921MOL0     H24305   9.948   6.414   8.301 -3.7333 -0.9799 -1.6347
  921MOL0     H24306   9.867   6.285   8.397 -0.2189 -0.7941  1.3237
  921MOL0     H24307  10.050   6.324   8.575  2.2602 -0.0752  0.9941
  921MOL0     H24308  10.130   6.428   8.457  0.7972 -1.4766 -1.6976
  921MOL0     H24309  10.066   6.126   8.398  3.0326 -1.8282  0.2916
  921MOL0     H24310  10.137   6.247   8.284  0.6958  1.4656  0.8694
  921MOL0     H24311  10.258   6.173   8.557  0.2893  1.4570  0.9983
  921MOL0     H24312  10.326   6.270   8.415  1.8774 -2.2305 -0.1979
  921MOL0     H24313  10.312   6.054   8.277 -1.1322  1.2540 -0.7028
  921MOL0     H24314  10.430   6.066   8.404 -0.5092  1.3189  0.1529
  921MOL0     H24315   9.444   6.245   8.251 -1.7243 -1.5052 -2.0645
  921MOL0     H24316   9.229   6.168   8.186  0.3400  0.7899 -0.4099
  921MOL0     H24317   8.758   6.275   8.115  0.4078  0.2948 -1.0762
  921MOL0     H24318   8.558   6.399   8.048 -1.0613  1.2028 -0.9421
  921MOL0     H24319   7.983   8.338   7.471  0.9485  0.8863  0.6333
  921MOL0     H24320   7.792   8.472   7.566 -0.7438  0.7273  1.4594
  921MOL0     H24321   7.350   8.561   7.535 -1.3802  3.6697 -0.6249
  921MOL0     H24322   7.123   8.667   7.620 -0.2942 -1.7668 -0.7586
  921MOL0     H24323   7.003   8.608   8.020  1.3725  1.3371 -0.5128
  921MOL0     H24324   6.896   8.511   7.909  2.6730 -0.4022 -2.7312
  921MOL0     H24325   6.840   8.804   7.973  2.4436 -0.2529 -0.4569
  921MOL0     H24326   6.780   8.671   8.068  2.4495  0.7907  1.3946
  921MOL0     H24327   6.686   8.552   7.884  0.5094  0.3326  0.2322
  921MOL0     H24328   6.759   8.668   7.768  0.8049  1.9659  0.1355
  921MOL0     H24329   6.528   8.745   7.975  1.2406 -0.9563  0.7525
  921MOL0     H24330   6.609   8.850   7.858  0.7968  0.5182  2.6664
  921MOL0     H24331   6.309   8.624   7.655 -2.1817 -0.1468  1.3779
  921MOL0     H24332   7.193   8.538   8.004 -1.5597 -2.6616  0.4576
  921MOL0     H24333   7.339   8.307   7.989  2.5377 -3.4321 -4.6012
  921MOL0     H24334   7.504   8.340   7.976  0.6129 -0.7755  0.5124
  921MOL0     H24335   7.412   8.451   8.073 -0.2369 -1.5662  0.8149
  922MOL0     O24336   2.483   1.329   9.629 -0.1258 -0.0247  0.6194
  922MOL0     C24337   2.415   1.330   9.531  0.4694 -0.0026 -0.1480
  922MOL0     O24338   2.441   1.394   9.412  0.4456  0.1574  0.2228
  922MOL0     C24339   2.554   1.468   9.423  0.4188  1.8307 -0.1653
  922MOL0     C24340   2.678   1.414   9.407 -0.6609  0.3391  0.6208
  922MOL0     C24341   2.795   1.474   9.451  0.3002 -1.4011  0.6033
  922MOL0     C24342   2.785   1.603   9.504  0.4404 -0.6518  0.3023
  922MOL0     O24343   2.892   1.677   9.538 -0.0489 -0.3022 -0.1091
  922MOL0     C24344   2.889   1.722   9.666 -0.3609 -0.0514 -0.1987
  922MOL0     C24345   2.885   1.608   9.763  0.1423 -0.0868 -1.2597
  922MOL0     C24346   2.899   1.633   9.911  1.0879 -0.1027  0.5337
  922MOL0     C24347   3.035   1.624   9.966 -0.0142 -0.2287  0.9063
  922MOL0     C24348   3.073   1.685  10.106 -0.1895 -0.1688  0.8719
  922MOL0     C24349   3.044   1.845  10.112 -0.0950 -0.1028 -0.2609
  922MOL0     C24350   3.140   1.927  10.020  0.3551 -0.3925 -0.1110
  922MOL0     C24351   3.074   2.064  10.000  0.4318  0.3967  0.1731
  922MOL0     N24352   3.006   2.068   9.867 -1.1347  0.6256 -0.0204
  922MOL0     C24353   3.024   2.172   9.776  0.3391 -0.5687 -1.1249
  922MOL0     C24354   2.921   2.156   9.691  0.0763  0.8857  0.1331
  922MOL0     C24355   2.874   2.225   9.574 -1.0372  0.4697  0.2436
  922MOL0     C24356   2.976   2.320   9.525 -0.3736 -0.3546 -0.1946
  922MOL0     C24357   2.965   2.458   9.601 -0.1812  0.8128  0.2268
  922MOL0     C24358   3.056   2.573   9.547 -0.8607 -0.6436  1.0386
  922MOL0     O24359   2.996   2.601   9.418 -0.2557 -0.1306 -0.3761
  922MOL0     C24360   3.044   2.702   9.357 -0.1089  0.8943 -0.0885
  922MOL0     C24361   3.159   2.774   9.380  0.5004 -0.6703 -0.0838
  922MOL0     C24362   3.213   2.856   9.284 -0.0079 -0.7532  0.3090
  922MOL0     C24363   3.130   2.894   9.171  0.3606  0.0183 -0.0176
  922MOL0     C24364   3.167   3.014   9.096 -0.8122 -0.2121  0.2474
  922MOL0     O24365   3.272   3.089   9.150  0.2940  0.6587 -0.3630
  922MOL0     C24366   3.296   3.215   9.099 -0.3914  0.8065 -0.2785
  922MOL0     C24367   3.197   3.318   9.089 -0.5164 -0.0641 -0.0970
  922MOL0     C24368   3.234   3.447   9.056 -0.3428 -0.8095  0.5099
  922MOL0     C24369   3.366   3.470   9.014  0.5602 -0.3326 -0.3288
  922MOL0     O24370   3.420   3.591   8.968  0.7483  0.4425  0.1752
  922MOL0     C24371   3.355   3.716   8.993  0.2553 -0.2550 -0.3138
  922MOL0     C24372   3.457   3.834   8.989 -0.3320  0.3051 -0.1996
  922MOL0     C24373   3.520   3.850   9.136  0.5655 -0.4174 -0.1068
  922MOL0     C24374   3.634   3.751   9.149 -0.2890 -0.4271  0.6342
  922MOL0     C24375   3.702   3.747   9.289 -0.1966  0.3682  0.9872
  922MOL0     C24376   3.612   3.684   9.404  0.2811  0.8265 -0.1523
  922MOL0     C24377   3.653   3.726   9.540  0.1832 -0.1002  1.1109
  922MOL0     C24378   3.541   3.707   9.644  0.6256 -0.1862 -1.3078
  922MOL0    Cl24379   3.391   3.808   9.613  0.0698  0.0578  0.0165
  922MOL0     C24380   3.458   3.366   9.024 -0.9129 -0.5868 -0.3534
  922MOL0     C24381   3.431   3.241   9.070  0.5781  0.3961  0.5560
  922MOL0     O24382   3.117   3.045   8.986 -0.2783  0.2805 -0.2371
  922MOL0     C24383   3.011   2.825   9.154  0.2038  0.1885  0.1779
  922MOL0     C24384   2.973   2.727   9.243  0.2798  0.9142 -0.1843
  922MOL0     N24385   2.840   2.053   9.740  1.0201  0.3403  0.3796
  922MOL0     N24386   2.892   2.007   9.842  0.4419  0.1676  0.3096
  922MOL0     C24387   2.655   1.660   9.497 -0.6111 -1.8017 -1.8203
  922MOL0     C24388   2.549   1.591   9.469  1.2355  0.1327  0.7632
  922MOL0     C24389   2.272   1.273   9.548  0.4330  0.3335  0.7983
  922MOL0     C24390   2.204   1.302   9.666 -0.0810 -0.0414  0.3407
  922MOL0     C24391   2.070   1.240   9.684 -0.1330  0.2052  0.1685
  922MOL0     C24392   2.005   1.163   9.582 -0.0784 -0.4387  0.8464
  922MOL0     O24393   1.882   1.111   9.608 -0.2573 -0.0399 -0.0577
  922MOL0     C24394   1.870   1.014   9.713  0.0989 -1.2416  0.0031
  922MOL0     C24395   1.725   0.966   9.732 -0.1359  0.1915 -0.8797
  922MOL0     C24396   1.630   1.090   9.763 -1.0660 -0.5124  0.5692
  922MOL0     C24397   1.669   1.150   9.903 -0.0892  0.2054  0.0047
  922MOL0     C24398   1.621   1.060  10.004  0.7661  0.5135  0.1207
  922MOL0     C24399   1.570   0.994  10.093  0.5189  0.7414 -0.3870
  922MOL0     C24400   2.079   1.146   9.459  0.2979 -0.2426 -0.3558
  922MOL0     C24401   2.206   1.202   9.442  0.4861  0.4981 -0.2415
  922MOL0     C24402   2.260   1.182   9.301  0.0504 -0.3113  0.4328
  922MOL0     H24403   2.680   1.313   9.367  0.5520 -0.8773  3.4855
  922MOL0     H24404   2.882   1.410   9.438  0.6980 -1.9449  4.7704
  922MOL0     H24405   2.971   1.791   9.687  0.5535 -0.8987 -0.8839
  922MOL0     H24406   2.800   1.782   9.690  0.4399  1.5309 -1.0222
  922MOL0     H24407   2.956   1.528   9.743  3.8237  3.0604 -1.9847
  922MOL0     H24408   2.787   1.561   9.750 -0.1800 -0.0684  0.7876
  922MOL0     H24409   2.846   1.561   9.975  1.0746 -2.4035 -1.8858
  922MOL0     H24410   2.849   1.730   9.920  0.5942 -0.1024 -1.7073
  922MOL0     H24411   3.079   1.525   9.953 -0.2417 -0.0130 -2.0133
  922MOL0     H24412   3.102   1.673   9.895  0.9398  2.4383  3.4201
  922MOL0     H24413   3.019   1.632  10.185 -3.3493  0.0663 -0.9540
  922MOL0     H24414   3.180   1.673  10.125 -0.4625 -0.8484  2.0098
  922MOL0     H24415   2.939   1.864  10.086 -0.9389 -0.9320  2.2298
  922MOL0     H24416   3.058   1.872  10.217  2.6967 -1.3826 -0.2048
  922MOL0     H24417   3.168   1.879   9.926  3.6293  0.1283  0.4799
  922MOL0     H24418   3.236   1.953  10.064  0.8564  2.8741 -2.7365
  922MOL0     H24419   2.991   2.082  10.069 -1.1746 -1.5284 -1.1289
  922MOL0     H24420   3.145   2.147  10.002  2.4618 -1.2284  3.2374
  922MOL0     H24421   3.112   2.234   9.793 -1.2270  1.0591  1.6848
  922MOL0     H24422   2.855   2.150   9.497  3.2221 -0.6855  0.0522
  922MOL0     H24423   2.779   2.277   9.584 -1.0895  0.6648 -1.0858
  922MOL0     H24424   3.075   2.274   9.533  0.2171  1.0542  1.0374
  922MOL0     H24425   2.945   2.344   9.423 -1.5880 -0.5332  0.1146
  922MOL0     H24426   3.013   2.441   9.698  1.3590  0.5065 -0.5532
  922MOL0     H24427   2.865   2.499   9.613 -0.3793  1.4586 -2.8245
  922MOL0     H24428   3.160   2.544   9.530 -1.0820 -0.6484 -0.4563
  922MOL0     H24429   3.055   2.664   9.609  2.1203  1.5177 -1.7615
  922MOL0     H24430   3.205   2.769   9.478 -4.0853  1.0639  2.4407
  922MOL0     H24431   3.312   2.898   9.300  0.0699 -0.7015 -0.2708
  922MOL0     H24432   3.092   3.298   9.109 -0.4303 -4.1206 -2.5405
  922MOL0     H24433   3.169   3.531   9.033  2.1801  0.6933 -1.6710
  922MOL0     H24434   3.275   3.724   8.918 -1.0795 -0.8395  0.9927
  922MOL0     H24435   3.313   3.727   9.094  1.2385 -0.8032  0.1667
  922MOL0     H24436   3.529   3.821   8.908 -1.3187 -0.0885 -1.0471
  922MOL0     H24437   3.402   3.924   8.960  1.5731  0.6365 -3.1899
  922MOL0     H24438   3.558   3.952   9.144  0.7731 -0.3662 -1.4314
  922MOL0     H24439   3.444   3.836   9.213  0.7485  0.0409  0.1528
  922MOL0     H24440   3.705   3.770   9.068 -0.3997 -2.6580 -0.0359
  922MOL0     H24441   3.590   3.652   9.133 -2.0062  0.7600 -3.1668
  922MOL0     H24442   3.717   3.852   9.316 -2.6395  0.4983  2.1329
  922MOL0     H24443   3.796   3.694   9.269 -1.1879 -0.7062 -1.1135
  922MOL0     H24444   3.511   3.712   9.373  0.5254  2.5864  0.5757
  922MOL0     H24445   3.605   3.575   9.392 -1.6597  1.0607 -1.7540
  922MOL0     H24446   3.699   3.825   9.530  1.1267 -0.7481 -2.7935
  922MOL0     H24447   3.731   3.650   9.551 -0.1238 -0.4839  0.6746
  922MOL0     H24448   3.502   3.605   9.645  0.3352 -0.0824 -1.8151
  922MOL0     H24449   3.590   3.735   9.738  1.6937 -0.6921 -1.7071
  922MOL0     H24450   3.563   3.364   8.996 -0.3205 -1.4860  1.7166
  922MOL0     H24451   3.516   3.179   9.094  4.3380  4.1755 -1.6975
  922MOL0     H24452   2.938   2.832   9.074 -0.4291 -3.5345  0.2623
  922MOL0     H24453   2.883   2.671   9.220  0.9224 -0.0863 -0.2989
  922MOL0     H24454   2.645   1.763   9.529  3.7130 -1.6887 -0.1299
  922MOL0     H24455   2.449   1.632   9.463  1.4599  0.7335  1.0109
  922MOL0     H24456   2.246   1.369   9.739 -1.4543  3.0662 -1.5231
  922MOL0     H24457   2.012   1.265   9.772 -1.7925  0.3359 -0.9071
  922MOL0     H24458   1.928   1.046   9.800  2.3030  5.0546 -3.1714
  922MOL0     H24459   1.928   0.925   9.689  2.4721 -0.5199  2.5983
  922MOL0     H24460   1.715   0.898   9.817 -2.5901  3.5497  1.8105
  922MOL0     H24461   1.682   0.921   9.642 -0.0113 -2.2247  0.1940
  922MOL0     H24462   1.527   1.055   9.754 -0.0545 -3.4818 -0.6352
  922MOL0     H24463   1.643   1.173   9.693 -1.5376 -0.2999  0.7291
  922MOL0     H24464   1.775   1.178   9.906 -0.4421  1.5548  1.2143
  922MOL0     H24465   1.616   1.245   9.915  2.5439  1.5284  2.4682
  922MOL0     H24466   1.530   0.946  10.180 -2.5111  1.4876 -1.2476
  922MOL0     H24467   2.031   1.077   9.390 -0.2668 -1.3219  1.0581
  922MOL0     H24468   2.358   1.226   9.283  0.3013 -0.7787  0.6272
  922MOL0     H24469   2.269   1.075   9.279  2.2506 -0.0143 -0.3534
  922MOL0     H24470   2.198   1.228   9.224 -0.0826  0.1858  0.8322
  923MOL0     O24471   3.309   6.850   5.645  0.9914  0.2120 -0.3341
  923MOL0     C24472   3.216   6.797   5.717  0.2431  0.3358  0.7033
  923MOL0     O24473   3.222   6.691   5.808  0.6765 -0.1369 -0.2509
  923MOL0     C24474   3.342   6.648   5.854 -1.4984  0.0746  0.4720
  923MOL0     C24475   3.449   6.728   5.890 -0.0244 -0.6514 -0.6221
  923MOL0     C24476   3.574   6.668   5.912 -0.4237  0.5645  0.1701
  923MOL0     C24477   3.592   6.524   5.901 -0.0825 -0.2982 -0.3597
  923MOL0     O24478   3.725   6.479   5.937  0.0707  0.2151 -0.7551
  923MOL0     C24479   3.754   6.344   5.924  0.1828 -0.4442  0.4621
  923MOL0     C24480   3.899   6.302   5.933 -1.2094 -0.3898  0.1076
  923MOL0     C24481   3.924   6.145   5.981  0.4432 -0.4528 -0.3417
  923MOL0     C24482   4.065   6.106   6.003  0.9785  0.4773 -0.1709
  923MOL0     C24483   4.092   5.967   6.050 -0.3350 -0.1839  0.6858
  923MOL0     C24484   4.015   5.917   6.175  0.8493 -0.2221 -0.2937
  923MOL0     C24485   4.076   5.790   6.234  0.9728  0.9558 -0.7507
  923MOL0     C24486   4.053   5.670   6.140  0.3035  0.0259 -0.1151
  923MOL0     N24487   4.085   5.546   6.202 -0.0949 -0.0478 -0.1113
  923MOL0     C24488   4.061   5.511   6.336 -0.1580 -0.6204  0.5217
  923MOL0     C24489   4.112   5.387   6.344 -0.1757 -0.2835 -0.4840
  923MOL0     C24490   4.118   5.302   6.462 -0.3980 -0.2576 -1.1388
  923MOL0     C24491   4.242   5.314   6.555  0.2747  0.5319 -1.3017
  923MOL0     C24492   4.204   5.260   6.694  0.1823  0.5771 -0.3080
  923MOL0     C24493   4.306   5.300   6.802 -0.7870 -0.3112  0.5683
  923MOL0     O24494   4.236   5.340   6.926 -1.2977 -0.2393  0.5928
  923MOL0     C24495   4.304   5.295   7.035  0.0292  0.1949 -0.2966
  923MOL0     C24496   4.328   5.161   7.084 -0.0720  0.2813 -0.0800
  923MOL0     C24497   4.404   5.136   7.203 -0.1146 -0.3325  0.2213
  923MOL0     C24498   4.460   5.243   7.273  0.6869  0.2914  0.1386
  923MOL0     C24499   4.534   5.227   7.400  0.6376 -0.1856  0.2005
  923MOL0     O24500   4.600   5.337   7.451 -0.4956  0.7182 -0.4056
  923MOL0     C24501   4.680   5.325   7.563  0.2091 -0.0719 -0.4569
  923MOL0     C24502   4.774   5.423   7.583 -0.6597  0.0341  0.1549
  923MOL0     C24503   4.845   5.432   7.704 -0.5220  0.2445  0.1914
  923MOL0     C24504   4.801   5.359   7.817  0.0046 -0.2194  0.0066
  923MOL0     O24505   4.859   5.376   7.942  0.4907 -0.4937 -0.2309
  923MOL0     C24506   4.958   5.486   7.954  0.0314 -0.3848 -0.3120
  923MOL0     C24507   4.969   5.523   8.104 -0.2885 -0.1191 -0.0120
  923MOL0     C24508   5.087   5.611   8.131 -0.4153  0.0439 -0.0428
  923MOL0     C24509   5.219   5.556   8.081  0.0221  0.5595 -0.8062
  923MOL0     C24510   5.346   5.593   8.170 -0.2477  0.3649  0.2062
  923MOL0     C24511   5.473   5.531   8.123 -0.0339  0.3485 -1.1648
  923MOL0     C24512   5.516   5.595   7.984 -0.3428  0.8087  0.2135
  923MOL0     C24513   5.475   5.512   7.861 -0.3327 -1.5042 -0.1665
  923MOL0    Cl24514   5.535   5.612   7.729  0.3607  0.2452 -0.1899
  923MOL0     C24515   4.700   5.258   7.797  0.2219  0.2909  0.4096
  923MOL0     C24516   4.644   5.238   7.671  0.9620  0.3644 -0.1026
  923MOL0     O24517   4.547   5.112   7.434  0.5641 -0.1785 -0.3048
  923MOL0     C24518   4.445   5.377   7.220 -0.2776 -1.0045  0.6791
  923MOL0     C24519   4.368   5.396   7.112  0.2611  0.3198 -0.1322
  923MOL0     N24520   4.168   5.350   6.224  0.4182 -0.0564  0.2581
  923MOL0     N24521   4.134   5.444   6.133  0.5056 -0.0659  0.8825
  923MOL0     C24522   3.475   6.450   5.877 -0.3483 -0.7474 -0.0917
  923MOL0     C24523   3.348   6.507   5.863 -0.9149 -0.3480  0.0564
  923MOL0     C24524   3.070   6.841   5.686 -0.3861  0.0717 -0.7539
  923MOL0     C24525   3.051   6.920   5.571 -0.3442  0.9530  0.5425
  923MOL0     C24526   2.927   6.959   5.532 -0.2234  0.5725  0.6485
  923MOL0     C24527   2.811   6.941   5.611 -0.4676 -0.6273  0.2329
  923MOL0     O24528   2.688   6.985   5.583  0.2756  0.0412  0.2827
  923MOL0     C24529   2.650   7.119   5.627  0.3905 -0.5991  0.3496
  923MOL0     C24530   2.497   7.128   5.585 -0.1514 -0.1007 -0.0910
  923MOL0     C24531   2.471   7.267   5.528 -0.3309 -0.0868  0.4194
  923MOL0     C24532   2.335   7.268   5.454 -0.0398 -0.0764 -0.4469
  923MOL0     C24533   2.339   7.252   5.316 -0.0164 -0.5058  0.4290
  923MOL0     C24534   2.353   7.247   5.197  0.2484  0.6251  0.4722
  923MOL0     C24535   2.829   6.875   5.729  0.3013  0.6653  0.6276
  923MOL0     C24536   2.952   6.819   5.768 -0.3961 -1.6572 -0.7473
  923MOL0     C24537   2.947   6.745   5.899 -0.1114  0.0826  0.0330
  923MOL0     H24538   3.434   6.835   5.890 -4.2879 -1.0436  1.4673
  923MOL0     H24539   3.648   6.731   5.960  1.3494 -1.6350  0.4601
  923MOL0     H24540   3.705   6.295   6.009  4.6847 -0.1553  3.5857
  923MOL0     H24541   3.719   6.311   5.826  0.7820  0.9449 -0.2541
  923MOL0     H24542   3.946   6.361   6.013  0.1249 -1.0188 -0.1671
  923MOL0     H24543   3.949   6.320   5.838  0.6873 -1.8898  0.7301
  923MOL0     H24544   3.892   6.087   5.893  3.2455 -0.5950 -1.3832
  923MOL0     H24545   3.868   6.128   6.073  0.7317  4.7692  1.0915
  923MOL0     H24546   4.103   6.110   5.900  0.2344 -3.0772 -0.7269
  923MOL0     H24547   4.117   6.181   6.063  2.6737  0.2328 -1.2672
  923MOL0     H24548   4.059   5.899   5.971  0.8609  0.3373 -0.2893
  923MOL0     H24549   4.201   5.955   6.058 -0.2440  1.4656  2.3399
  923MOL0     H24550   4.023   5.998   6.248  1.9491 -0.2750 -0.3302
  923MOL0     H24551   3.914   5.884   6.148  1.6553 -2.0408 -1.3089
  923MOL0     H24552   4.029   5.776   6.332 -0.7724  3.1137 -1.2045
  923MOL0     H24553   4.183   5.814   6.241  0.8741  1.0211  1.4509
  923MOL0     H24554   3.948   5.667   6.109  0.9227 -0.1170 -2.2949
  923MOL0     H24555   4.120   5.678   6.055 -0.3059  0.5138 -0.5624
  923MOL0     H24556   4.012   5.563   6.417  2.2510  0.4557  1.3850
  923MOL0     H24557   4.025   5.326   6.515 -1.3934 -2.4264 -1.8010
  923MOL0     H24558   4.098   5.198   6.435 -2.6457 -0.5024  1.0924
  923MOL0     H24559   4.327   5.261   6.510 -0.6263 -2.6348  0.4066
  923MOL0     H24560   4.262   5.421   6.559  1.5001  0.3259 -1.4688
  923MOL0     H24561   4.211   5.151   6.689  1.0966  0.6678 -1.6992
  923MOL0     H24562   4.107   5.302   6.721 -0.4812 -0.5460 -0.9018
  923MOL0     H24563   4.373   5.381   6.771 -0.4273 -0.5432  0.7266
  923MOL0     H24564   4.366   5.209   6.814 -1.6152 -0.9216  0.1807
  923MOL0     H24565   4.295   5.082   7.017  0.0528  1.4849 -1.6337
  923MOL0     H24566   4.416   5.039   7.251  0.8972 -1.1516 -1.5758
  923MOL0     H24567   4.789   5.507   7.515 -1.9638  2.4225  2.6445
  923MOL0     H24568   4.908   5.518   7.725  1.5788 -1.8141  3.0438
  923MOL0     H24569   5.052   5.463   7.903 -0.3163  2.1223 -2.2541
  923MOL0     H24570   4.928   5.578   7.904  1.6310  0.5231  0.3239
  923MOL0     H24571   4.874   5.564   8.137  1.3690  2.0922  2.4333
  923MOL0     H24572   4.976   5.435   8.168 -0.5300  0.1839  0.4311
  923MOL0     H24573   5.069   5.711   8.091 -3.1109 -0.0521  0.6973
  923MOL0     H24574   5.093   5.626   8.239  4.8539 -0.5960  0.0149
  923MOL0     H24575   5.238   5.591   7.979  1.5819  2.2229  0.0077
  923MOL0     H24576   5.223   5.449   8.060  4.7677  0.6851 -1.6506
  923MOL0     H24577   5.329   5.540   8.264  1.3629 -1.2305 -0.3299
  923MOL0     H24578   5.364   5.701   8.179 -0.1532  0.7396 -3.1474
  923MOL0     H24579   5.550   5.558   8.197  0.8084  0.2173 -1.9709
  923MOL0     H24580   5.475   5.423   8.109 -1.2321  0.0054  0.9582
  923MOL0     H24581   5.624   5.597   7.972 -0.2830 -3.1202 -1.3659
  923MOL0     H24582   5.475   5.697   7.987 -2.3557  0.0338  0.8516
  923MOL0     H24583   5.533   5.419   7.866  1.8656 -0.1835  0.1585
  923MOL0     H24584   5.366   5.497   7.857 -0.7908  1.2528  0.4030
  923MOL0     H24585   4.673   5.203   7.886 -1.0517 -2.7280 -1.6719
  923MOL0     H24586   4.558   5.174   7.655  0.3746  1.4472 -1.5581
  923MOL0     H24587   4.485   5.469   7.261 -0.6521 -0.9599  0.9433
  923MOL0     H24588   4.355   5.493   7.064  0.8606  0.1466 -0.6487
  923MOL0     H24589   3.483   6.342   5.882 -0.1940 -0.8845 -2.2568
  923MOL0     H24590   3.262   6.442   5.859 -1.4339  0.3470 -0.1711
  923MOL0     H24591   3.140   6.928   5.511 -1.2653  2.1235 -0.7341
  923MOL0     H24592   2.933   7.024   5.445  1.3920 -0.0094  0.2989
  923MOL0     H24593   2.713   7.193   5.579 -0.0593 -0.3052  0.2061
  923MOL0     H24594   2.640   7.119   5.736 -2.5355  0.2354  0.1780
  923MOL0     H24595   2.427   7.103   5.666 -2.4492  2.1602 -1.2366
  923MOL0     H24596   2.482   7.047   5.512  1.6617 -1.1131  0.5981
  923MOL0     H24597   2.553   7.291   5.460 -0.1786  0.2115  0.7016
  923MOL0     H24598   2.472   7.343   5.607  3.6701  0.4899  0.0284
  923MOL0     H24599   2.288   7.177   5.494  1.3106  0.3877  2.4575
  923MOL0     H24600   2.275   7.358   5.468  1.5485  1.4004 -2.5480
  923MOL0     H24601   2.342   7.269   5.092 -1.8423  0.2947  0.5794
  923MOL0     H24602   2.751   6.861   5.803  0.5811  1.2402  1.0353
  923MOL0     H24603   3.009   6.803   5.967  0.3222  1.2575 -1.3207
  923MOL0     H24604   2.845   6.738   5.938  0.8761 -3.9087  2.4926
  923MOL0     H24605   3.004   6.652   5.891  2.4557  1.6837 -2.2109
  924MOL0     O24606   7.891  10.361   4.098 -0.0198  0.1920  0.0360
  924MOL0     C24607   8.005  10.401   4.109 -1.0521 -0.3408 -0.8260
  924MOL0     O24608   8.051  10.488   4.208  0.0531  0.2045  0.2537
  924MOL0     C24609   7.985  10.507   4.321 -0.1570  0.0994  0.1488
  924MOL0     C24610   7.993  10.410   4.419 -0.0691 -0.6690 -0.5598
  924MOL0     C24611   7.923  10.430   4.540  0.3930  0.0608 -0.4613
  924MOL0     C24612   7.844  10.544   4.561 -0.0556 -0.8278  0.3195
  924MOL0     O24613   7.743  10.564   4.654 -0.0916 -0.4805  0.1683
  924MOL0     C24614   7.710  10.459   4.757  0.4839 -0.0390  0.1783
  924MOL0     C24615   7.564  10.481   4.811 -0.5798 -0.6783 -0.2977
  924MOL0     C24616   7.571  10.559   4.937 -0.5499  0.1896  0.2870
  924MOL0     C24617   7.505  10.484   5.053  0.3430 -0.1592 -0.2922
  924MOL0     C24618   7.497  10.559   5.183  0.2863 -0.3245  0.4686
  924MOL0     C24619   7.490  10.474   5.307  0.8981  0.0596  0.3637
  924MOL0     C24620   7.407  10.551   5.414  0.9309  0.6727 -0.6881
  924MOL0     C24621   7.389  10.467   5.533 -0.0197 -0.4328  0.6016
  924MOL0     N24622   7.516  10.440   5.602 -0.7967  0.3198  0.1879
  924MOL0     C24623   7.568  10.526   5.693  0.1990 -0.0952 -0.8545
  924MOL0     C24624   7.682  10.473   5.726 -0.1562  0.3694  0.2291
  924MOL0     C24625   7.797  10.531   5.812  0.7171 -0.2044  0.2415
  924MOL0     C24626   7.905  10.423   5.833 -1.0040 -0.2284 -1.0152
  924MOL0     C24627   8.017  10.450   5.930 -0.0722  0.7989  0.5224
  924MOL0     C24628   7.988  10.429   6.081  0.1856 -0.1644 -0.3044
  924MOL0     O24629   7.894  10.314   6.105  0.7480 -0.2491 -0.0622
  924MOL0     C24630   7.946  10.204   6.167  0.4260  1.0499 -1.0645
  924MOL0     C24631   8.031  10.208   6.277 -0.4594 -0.3741  0.3483
  924MOL0     C24632   8.094  10.091   6.326  0.7373 -0.3822 -1.0240
  924MOL0     C24633   8.069   9.966   6.266 -0.5285  0.3934  0.1110
  924MOL0     C24634   8.123   9.831   6.314  1.2038 -0.5644 -0.4572
  924MOL0     O24635   8.210   9.842   6.417  0.3269 -0.0714  0.4468
  924MOL0     C24636   8.240   9.726   6.479  0.4991 -0.4065 -0.4062
  924MOL0     C24637   8.145   9.629   6.515  0.2729  0.2260  0.5294
  924MOL0     C24638   8.177   9.507   6.583  0.4671 -0.1032  0.6316
  924MOL0     C24639   8.310   9.477   6.615  0.3977 -0.7778 -0.5458
  924MOL0     O24640   8.356   9.367   6.676  0.3737  1.3854 -0.4113
  924MOL0     C24641   8.265   9.258   6.698 -0.0085  0.0397  0.2263
  924MOL0     C24642   8.333   9.140   6.758 -0.2325  0.3206  0.2182
  924MOL0     C24643   8.237   9.052   6.837  0.2829  0.3257 -0.7381
  924MOL0     C24644   8.295   8.916   6.874 -1.1432  1.5013 -0.8882
  924MOL0     C24645   8.218   8.838   6.988 -0.0192 -0.8066  0.9182
  924MOL0     C24646   8.191   8.692   6.943  0.1607  0.2304  0.6479
  924MOL0     C24647   8.127   8.620   7.061  1.0162 -0.9759 -1.3333
  924MOL0     C24648   8.238   8.527   7.133  0.5618  0.5227  0.2973
  924MOL0    Cl24649   8.145   8.390   7.201  0.1977 -0.6116 -0.5213
  924MOL0     C24650   8.407   9.576   6.601  0.5133 -0.1345  0.5804
  924MOL0     C24651   8.373   9.697   6.521  0.4451  0.1222  0.4360
  924MOL0     O24652   8.089   9.730   6.255 -0.1145  0.2514 -1.2499
  924MOL0     C24653   7.975   9.959   6.157  0.0521 -0.4240 -0.4296
  924MOL0     C24654   7.924  10.075   6.106 -0.5542 -0.0628  0.4611
  924MOL0     N24655   7.682  10.343   5.660  0.8202 -0.0322 -0.7938
  924MOL0     N24656   7.583  10.329   5.575 -0.0382  0.0957 -0.1882
  924MOL0     C24657   7.861  10.653   4.470  0.9238  1.2730  0.0769
  924MOL0     C24658   7.930  10.630   4.349  0.4047  0.1442 -0.7967
  924MOL0     C24659   8.110  10.364   4.009 -0.1403 -0.0474 -0.1239
  924MOL0     C24660   8.108  10.436   3.892 -0.1160 -0.2379 -0.3829
  924MOL0     C24661   8.178  10.406   3.781  0.2043  1.3171 -0.3661
  924MOL0     C24662   8.270  10.299   3.793  0.1893 -0.1381 -0.2733
  924MOL0     O24663   8.353  10.280   3.683  0.1351 -0.0522  0.1292
  924MOL0     C24664   8.476  10.211   3.698 -0.4189 -0.3481 -0.2744
  924MOL0     C24665   8.589  10.294   3.769  0.4804 -0.1880  0.2568
  924MOL0     C24666   8.623  10.417   3.676  1.1498  0.7722 -0.4231
  924MOL0     C24667   8.690  10.540   3.728 -0.3395  1.3974 -0.3012
  924MOL0     C24668   8.833  10.506   3.715  0.9975  0.7853  0.2612
  924MOL0     C24669   8.951  10.491   3.724  0.1638 -0.0216 -0.5609
  924MOL0     C24670   8.286  10.235   3.914  0.0360 -0.1763  0.4604
  924MOL0     C24671   8.202  10.260   4.024  0.1353  0.5465 -0.0759
  924MOL0     C24672   8.216  10.178   4.147  0.5825  0.0651  0.7006
  924MOL0     H24673   8.049  10.319   4.399 -1.3167 -1.5696 -0.0632
  924MOL0     H24674   7.917  10.343   4.605 -2.4505  0.5401  0.0505
  924MOL0     H24675   7.717  10.367   4.698  3.2677 -0.8152  1.5285
  924MOL0     H24676   7.785  10.453   4.837  2.5020 -3.9967 -1.6997
  924MOL0     H24677   7.506  10.391   4.833 -1.2503  0.5825  4.0921
  924MOL0     H24678   7.503  10.528   4.734 -2.5274 -1.1893  0.8732
  924MOL0     H24679   7.517  10.650   4.911 -1.3135 -0.1755  0.5427
  924MOL0     H24680   7.674  10.580   4.965  0.5133 -1.2181 -2.2632
  924MOL0     H24681   7.403  10.457   5.025 -0.6906 -0.2290  3.0548
  924MOL0     H24682   7.562  10.392   5.072 -0.0757 -0.8118 -2.0408
  924MOL0     H24683   7.591  10.615   5.188 -0.1037  0.2752  1.2038
  924MOL0     H24684   7.408  10.622   5.179 -1.5846 -2.8743 -2.8262
  924MOL0     H24685   7.462  10.374   5.274  0.2253  1.4811 -4.1042
  924MOL0     H24686   7.594  10.472   5.341  1.5487  1.1780 -1.4352
  924MOL0     H24687   7.308  10.580   5.379  0.1218 -0.8889  0.1998
  924MOL0     H24688   7.467  10.640   5.433 -0.6863  1.8045 -0.7236
  924MOL0     H24689   7.316  10.511   5.602 -1.7829 -5.2652  2.2547
  924MOL0     H24690   7.356  10.366   5.508  3.5155 -1.8598  1.1595
  924MOL0     H24691   7.540  10.627   5.722 -0.6357 -0.1232 -1.5635
  924MOL0     H24692   7.828  10.626   5.766 -0.4696  0.6257  1.1057
  924MOL0     H24693   7.765  10.562   5.911  3.0058  2.7728  0.2014
  924MOL0     H24694   7.862  10.324   5.852 -0.8969  0.2175  2.1467
  924MOL0     H24695   7.960  10.412   5.739  1.6366 -1.7990  0.5699
  924MOL0     H24696   8.055  10.552   5.931 -0.1775  0.8487 -0.1490
  924MOL0     H24697   8.097  10.377   5.911 -0.7933  0.5015 -1.5898
  924MOL0     H24698   7.949  10.520   6.127  0.9491  0.4734 -0.8920
  924MOL0     H24699   8.085  10.397   6.123  0.3410 -0.8529 -1.1582
  924MOL0     H24700   8.063  10.298   6.329  1.8725 -0.9774  0.0573
  924MOL0     H24701   8.162  10.091   6.411  0.0142  3.9731 -0.2165
  924MOL0     H24702   8.039   9.640   6.498  0.2314 -2.6392 -1.8016
  924MOL0     H24703   8.094   9.440   6.602  0.3641  0.0263  0.6446
  924MOL0     H24704   8.189   9.293   6.768 -1.0644  0.5509 -1.1372
  924MOL0     H24705   8.216   9.229   6.605 -2.8372  0.5706  1.4646
  924MOL0     H24706   8.387   9.081   6.683 -2.5359 -0.7540 -0.6897
  924MOL0     H24707   8.404   9.174   6.834 -0.7001  0.2570  0.6914
  924MOL0     H24708   8.191   9.096   6.925  0.8476  2.6809 -1.5490
  924MOL0     H24709   8.148   9.024   6.779 -0.7098 -2.3670  1.8300
  924MOL0     H24710   8.394   8.933   6.918  0.4422 -5.3351 -0.7197
  924MOL0     H24711   8.296   8.855   6.783 -0.1060 -0.1104  0.1602
  924MOL0     H24712   8.124   8.892   7.000 -0.1445 -1.0600  1.0894
  924MOL0     H24713   8.267   8.858   7.083  1.7621  2.8900 -0.5646
  924MOL0     H24714   8.116   8.683   6.864 -0.2631  0.0944  1.0585
  924MOL0     H24715   8.286   8.645   6.917  0.9018  0.1436  3.2223
  924MOL0     H24716   8.057   8.548   7.018 -1.2572 -0.6824  1.5748
  924MOL0     H24717   8.071   8.681   7.132 -0.3322 -4.4640  0.8302
  924MOL0     H24718   8.310   8.488   7.060  0.5590  1.2437 -0.1037
  924MOL0     H24719   8.285   8.585   7.212  0.1704 -0.1203  1.0112
  924MOL0     H24720   8.507   9.570   6.643 -0.0971  0.9635  2.3415
  924MOL0     H24721   8.463   9.757   6.508  3.3056 -3.2252  2.6216
  924MOL0     H24722   7.943   9.862   6.119 -1.7553 -0.1665  0.3702
  924MOL0     H24723   7.858  10.068   6.020 -0.6989 -0.9905  0.6315
  924MOL0     H24724   7.798  10.737   4.495 -0.1003 -0.0045  2.0572
  924MOL0     H24725   7.932  10.720   4.288 -2.5037  0.8544 -0.0151
  924MOL0     H24726   8.041  10.521   3.878 -0.8897 -0.8247 -0.2972
  924MOL0     H24727   8.176  10.448   3.681  1.9453  1.8896 -0.2025
  924MOL0     H24728   8.503  10.204   3.592  0.8103  1.4153 -0.1138
  924MOL0     H24729   8.446  10.115   3.741 -2.9285 -1.1741 -3.4706
  924MOL0     H24730   8.663  10.218   3.797 -2.1526 -2.5213  1.3892
  924MOL0     H24731   8.551  10.333   3.863 -2.8644  0.3196 -1.1709
  924MOL0     H24732   8.526  10.453   3.639  0.9558  1.6865  0.9024
  924MOL0     H24733   8.674  10.370   3.591  0.2887 -1.4057  0.2021
  924MOL0     H24734   8.660  10.623   3.663 -0.7703  2.1724  0.8424
  924MOL0     H24735   8.653  10.569   3.827 -0.4063  1.8668 -0.4583
  924MOL0     H24736   9.058  10.483   3.727  0.2833  0.7192 -1.8998
  924MOL0     H24737   8.341  10.142   3.908 -3.1655 -2.1135 -1.7258
  924MOL0     H24738   8.215  10.077   4.104 -0.5319  1.6011 -3.3465
  924MOL0     H24739   8.317  10.195   4.186  1.0325  1.5266 -0.9477
  924MOL0     H24740   8.141  10.205   4.222 -0.1279  0.3467 -0.0906
  925MOL0     O24741   1.591   7.638   0.383 -0.1631 -0.2592 -0.7071
  925MOL0     C24742   1.547   7.570   0.469  0.0881  0.4369 -0.6841
  925MOL0     O24743   1.527   7.614   0.597 -0.5950 -0.1687 -0.0934
  925MOL0     C24744   1.576   7.741   0.625  0.2151  0.1493 -0.2442
  925MOL0     C24745   1.709   7.784   0.621  0.3934 -0.0481  0.1143
  925MOL0     C24746   1.734   7.919   0.653  0.5719 -0.8784  0.9907
  925MOL0     C24747   1.637   8.009   0.688 -0.3425  0.4699  0.0881
  925MOL0     O24748   1.662   8.132   0.743  0.6511  0.1749 -0.3263
  925MOL0     C24749   1.780   8.206   0.711 -1.0279  0.4865  0.7084
  925MOL0     C24750   1.892   8.177   0.816  0.3845 -1.2587  0.2849
  925MOL0     C24751   2.005   8.292   0.820  0.5806  0.6201 -0.5926
  925MOL0     C24752   1.964   8.429   0.868  0.6116 -0.4567  0.3940
  925MOL0     C24753   1.941   8.449   1.019  0.6441  0.5913 -1.2290
  925MOL0     C24754   2.054   8.414   1.120 -0.4861 -0.4872  0.0159
  925MOL0     C24755   2.180   8.505   1.091 -0.6028 -0.6608  0.1469
  925MOL0     C24756   2.276   8.514   1.211  0.2073 -0.5957 -0.0609
  925MOL0     N24757   2.223   8.598   1.327  0.4469  0.5605  0.1714
  925MOL0     C24758   2.299   8.654   1.425  0.7311  0.4576 -0.3266
  925MOL0     C24759   2.220   8.728   1.504  0.8471  0.0886 -1.3930
  925MOL0     C24760   2.263   8.794   1.633 -0.5066 -1.2355  0.1003
  925MOL0     C24761   2.154   8.808   1.749 -0.5586  0.5810 -0.4157
  925MOL0     C24762   2.211   8.874   1.867 -0.2737  0.0177 -0.9264
  925MOL0     C24763   2.130   8.867   1.995  0.4919 -0.4229 -0.7527
  925MOL0     O24764   2.146   8.741   2.066 -0.4327  0.1586  0.2522
  925MOL0     C24765   2.058   8.716   2.159 -0.2348 -0.1388  0.6280
  925MOL0     C24766   2.016   8.810   2.253  0.5231  0.3511  0.0615
  925MOL0     C24767   1.936   8.782   2.366  0.4648  0.2521 -0.0083
  925MOL0     C24768   1.881   8.649   2.370 -0.6326 -0.4306 -0.5026
  925MOL0     C24769   1.767   8.618   2.460  0.0337  0.1738 -0.1897
  925MOL0     O24770   1.706   8.488   2.446 -0.0880 -0.5069 -0.5013
  925MOL0     C24771   1.601   8.454   2.529  0.2880 -0.5509 -0.3388
  925MOL0     C24772   1.474   8.505   2.508 -0.2078 -0.7422  0.9389
  925MOL0     C24773   1.371   8.460   2.586 -0.4776  0.0053  0.0670
  925MOL0     C24774   1.394   8.373   2.691  0.3450 -0.9475  0.2374
  925MOL0     O24775   1.296   8.323   2.770  0.7686  0.3919 -0.3670
  925MOL0     C24776   1.187   8.261   2.687  0.3709  1.0274 -1.1317
  925MOL0     C24777   1.149   8.126   2.746 -0.4427 -0.9425  0.2559
  925MOL0     C24778   1.273   8.034   2.751 -0.3205 -0.4741 -0.1361
  925MOL0     C24779   1.217   7.895   2.743 -0.5764 -0.0939  0.0417
  925MOL0     C24780   1.309   7.772   2.769 -0.7307  1.0537  0.4063
  925MOL0     C24781   1.388   7.775   2.900  0.5063  0.4865 -0.3415
  925MOL0     C24782   1.295   7.733   3.021 -0.3056 -0.2890 -0.7827
  925MOL0     C24783   1.380   7.718   3.148  1.0676 -0.6388 -0.0533
  925MOL0    Cl24784   1.472   7.563   3.122  0.4677 -0.1827  0.1458
  925MOL0     C24785   1.528   8.340   2.716 -0.7064  0.2111  0.1741
  925MOL0     C24786   1.636   8.378   2.635 -0.3280  0.8264  0.1250
  925MOL0     O24787   1.727   8.704   2.530 -0.7353 -0.5590  0.3259
  925MOL0     C24788   1.939   8.552   2.281  0.2985 -0.3144  0.6793
  925MOL0     C24789   2.033   8.589   2.177  0.0351 -0.1795  0.1205
  925MOL0     N24790   2.099   8.734   1.448  0.1466  0.7801  0.6585
  925MOL0     N24791   2.095   8.653   1.341  0.5860 -0.4005  0.6844
  925MOL0     C24792   1.507   7.968   0.694 -0.3059 -0.5453  0.4326
  925MOL0     C24793   1.473   7.840   0.647  1.3390  1.1410 -0.8755
  925MOL0     C24794   1.520   7.430   0.452  0.5060  0.4364  0.0676
  925MOL0     C24795   1.533   7.344   0.561  0.2500 -0.3326  0.2502
  925MOL0     C24796   1.492   7.209   0.553  0.6035 -0.9443 -0.2545
  925MOL0     C24797   1.446   7.158   0.431 -0.3660  0.8385 -0.0825
  925MOL0     O24798   1.419   7.021   0.415  0.5331  0.1251  0.0073
  925MOL0     C24799   1.452   6.931   0.518  1.1595  0.7575 -0.7721
  925MOL0     C24800   1.414   6.788   0.498  0.0951  0.1791  0.4380
  925MOL0     C24801   1.345   6.739   0.623  0.2862  0.0072 -0.1965
  925MOL0     C24802   1.274   6.604   0.598  0.5162  0.3258 -0.6456
  925MOL0     C24803   1.376   6.492   0.581  0.3649  0.0531  0.1796
  925MOL0     C24804   1.463   6.405   0.567 -0.2282 -0.2562 -0.2871
  925MOL0     C24805   1.439   7.242   0.318 -0.6358 -0.7452 -0.0291
  925MOL0     C24806   1.471   7.382   0.324 -0.2047 -0.1234  0.4870
  925MOL0     C24807   1.442   7.465   0.207  0.3680 -0.1630 -0.1517
  925MOL0     H24808   1.791   7.721   0.589  2.0669  2.2439 -0.4452
  925MOL0     H24809   1.834   7.961   0.658  0.0231  0.5008  0.7437
  925MOL0     H24810   1.817   8.213   0.608  1.8612 -4.3582  1.1265
  925MOL0     H24811   1.746   8.307   0.732  0.1246  0.8053  1.1180
  925MOL0     H24812   1.943   8.082   0.799  1.6011 -0.6993  0.7074
  925MOL0     H24813   1.850   8.176   0.917  2.0990  1.1816  1.1178
  925MOL0     H24814   2.030   8.304   0.714  0.1019  0.2181 -0.7583
  925MOL0     H24815   2.093   8.259   0.874 -1.0618 -0.1909  1.7443
  925MOL0     H24816   2.041   8.499   0.834  1.5303 -0.4062  2.4630
  925MOL0     H24817   1.871   8.451   0.815  1.1782 -2.4221 -1.5454
  925MOL0     H24818   1.915   8.553   1.037 -0.6149  0.0454  0.2939
  925MOL0     H24819   1.855   8.384   1.040 -1.3221  2.0104 -4.1697
  925MOL0     H24820   2.021   8.429   1.223 -2.4272 -3.7884  0.0365
  925MOL0     H24821   2.078   8.307   1.115  0.4679 -0.3173  0.6985
  925MOL0     H24822   2.141   8.606   1.073  1.4097  0.4505  1.6446
  925MOL0     H24823   2.237   8.469   1.005 -2.9537 -1.8874 -1.0078
  925MOL0     H24824   2.298   8.410   1.236 -2.4916 -1.4725 -0.9614
  925MOL0     H24825   2.372   8.558   1.183 -0.9039  2.7543  0.8777
  925MOL0     H24826   2.408   8.653   1.422  0.7580 -2.3103 -3.0332
  925MOL0     H24827   2.344   8.735   1.676  1.3923  1.9529  1.2621
  925MOL0     H24828   2.301   8.896   1.622  2.2900 -1.6976  3.7429
  925MOL0     H24829   2.086   8.890   1.724 -1.4827  0.4188  1.4166
  925MOL0     H24830   2.087   8.722   1.762 -1.0737  0.8313 -1.2749
  925MOL0     H24831   2.236   8.975   1.833  1.9648 -0.1361  0.0823
  925MOL0     H24832   2.311   8.833   1.887 -0.5156 -1.0036 -1.6957
  925MOL0     H24833   2.026   8.882   1.964 -0.5029 -0.5245  2.1726
  925MOL0     H24834   2.156   8.952   2.059  0.8536 -0.0363 -1.3986
  925MOL0     H24835   2.046   8.913   2.239  1.3077  0.5088  2.4483
  925MOL0     H24836   1.893   8.859   2.431 -0.9450  1.0005 -1.7333
  925MOL0     H24837   1.473   8.572   2.423 -1.8601 -1.0908  0.6456
  925MOL0     H24838   1.272   8.501   2.571 -0.5989  2.0539  4.8459
  925MOL0     H24839   1.100   8.327   2.696  0.6695  1.1475  1.5803
  925MOL0     H24840   1.218   8.251   2.582  2.2499  0.5124 -0.5594
  925MOL0     H24841   1.086   8.123   2.836 -0.2230 -1.5134  0.3956
  925MOL0     H24842   1.086   8.082   2.669 -1.1660  0.9348 -0.2842
  925MOL0     H24843   1.331   8.052   2.660 -0.0235  4.5392  0.7741
  925MOL0     H24844   1.325   8.069   2.841 -0.3576  1.0082 -0.6680
  925MOL0     H24845   1.182   7.881   2.641  0.3201 -2.7703  0.0049
  925MOL0     H24846   1.129   7.879   2.807 -0.1134  0.4134  0.8107
  925MOL0     H24847   1.379   7.759   2.686 -1.1447 -2.2294  0.4371
  925MOL0     H24848   1.245   7.684   2.761 -0.5470  1.0708 -1.5339
  925MOL0     H24849   1.473   7.707   2.891  1.1986  1.1529  0.8649
  925MOL0     H24850   1.428   7.874   2.921  0.3562  0.0056  2.7736
  925MOL0     H24851   1.238   7.642   3.001 -1.6107  0.2129  0.4513
  925MOL0     H24852   1.222   7.811   3.045  2.5505  2.0045  1.1579
  925MOL0     H24853   1.446   7.798   3.183 -2.6544  2.2651  1.1444
  925MOL0     H24854   1.310   7.704   3.231  1.6115 -1.1629  0.3257
  925MOL0     H24855   1.533   8.273   2.801 -4.9740 -1.1602 -0.3979
  925MOL0     H24856   1.741   8.359   2.654 -0.0490  2.7957  0.7803
  925MOL0     H24857   1.902   8.450   2.291  0.4672 -0.5819 -1.1000
  925MOL0     H24858   2.075   8.512   2.114 -1.1494 -1.5836  0.9702
  925MOL0     H24859   1.443   8.052   0.719  0.2732 -0.0758  0.3584
  925MOL0     H24860   1.374   7.797   0.640  1.8599 -0.0727 -1.0011
  925MOL0     H24861   1.575   7.376   0.656 -0.7247  1.2389  0.1937
  925MOL0     H24862   1.508   7.149   0.641  1.2515 -3.6352 -2.0812
  925MOL0     H24863   1.407   6.969   0.611  2.4382  1.4170 -0.3918
  925MOL0     H24864   1.559   6.938   0.540  1.8135  0.1663 -3.4229
  925MOL0     H24865   1.503   6.729   0.474 -0.1378 -0.7405  1.7474
  925MOL0     H24866   1.351   6.789   0.408  0.6885  1.3996  0.0119
  925MOL0     H24867   1.265   6.810   0.646  0.5100  1.1611 -2.6096
  925MOL0     H24868   1.420   6.735   0.702  1.5637  0.3065 -1.3451
  925MOL0     H24869   1.224   6.586   0.693  2.5107 -2.3086  0.0286
  925MOL0     H24870   1.202   6.618   0.517  2.0288  1.0140 -1.9298
  925MOL0     H24871   1.538   6.329   0.555 -1.2703 -1.1821 -1.1518
  925MOL0     H24872   1.417   7.198   0.222 -1.1627 -0.4863 -0.0282
  925MOL0     H24873   1.529   7.525   0.178 -0.8086  2.4993  1.4753
  925MOL0     H24874   1.419   7.402   0.120  2.5241 -0.0053 -0.9258
  925MOL0     H24875   1.360   7.532   0.230  1.7442  1.3359  0.5756
  926MOL0     O24876   4.150  10.869  10.471  0.4015 -0.3840 -0.2305
  926MOL0     C24877   4.188  10.980  10.488  0.0564  0.7626 -0.2667
  926MOL0     O24878   4.247  11.061  10.393 -0.6239  0.2690  0.6514
  926MOL0     C24879   4.268  11.015  10.272 -0.1719 -0.1426  1.1582
  926MOL0     C24880   4.395  10.981  10.242  0.8653 -0.9246 -0.5950
  926MOL0     C24881   4.411  10.908  10.123 -0.4671  0.2440  0.0408
  926MOL0     C24882   4.301  10.881  10.044  0.6393  0.4491  0.1663
  926MOL0     O24883   4.342  10.826   9.922  0.3984 -1.0132 -0.4314
  926MOL0     C24884   4.253  10.744   9.846  0.2697  0.2372  0.3714
  926MOL0     C24885   4.200  10.620   9.915 -0.3666  0.4466 -0.0200
  926MOL0     C24886   4.173  10.506   9.811  0.4042  1.0132  0.7853
  926MOL0     C24887   4.064  10.546   9.718 -0.0169  0.3965 -0.7876
  926MOL0     C24888   3.960  10.432   9.718 -0.0398  0.7090  1.2823
  926MOL0     C24889   3.841  10.459   9.640  0.1235  0.6515 -1.4323
  926MOL0     C24890   3.755  10.328   9.607  0.4901  0.3605 -0.0011
  926MOL0     C24891   3.700  10.257   9.731  1.1062  0.2426  0.1825
  926MOL0     N24892   3.596  10.162   9.689 -0.0027 -0.6250 -0.5922
  926MOL0     C24893   3.611  10.077   9.582 -0.6964 -0.2928 -0.2078
  926MOL0     C24894   3.496  10.010   9.573  0.4319 -1.0862  0.0684
  926MOL0     C24895   3.491   9.882   9.498  0.4486  0.3915  0.6128
  926MOL0     C24896   3.330   9.859   9.483 -0.6178 -0.0311 -0.2101
  926MOL0     C24897   3.295   9.729   9.411 -0.7409 -0.2462 -0.0377
  926MOL0     C24898   3.336   9.690   9.270  0.7392 -0.3588 -0.7998
  926MOL0     O24899   3.233   9.713   9.177  0.1292 -0.3963  0.6883
  926MOL0     C24900   3.139   9.617   9.152 -0.3567 -0.1301  0.0546
  926MOL0     C24901   3.135   9.495   9.229 -0.9491 -0.5139  0.2453
  926MOL0     C24902   3.036   9.394   9.215  0.2076 -0.5512 -0.2906
  926MOL0     C24903   2.939   9.418   9.118 -0.4582 -0.3956 -0.3435
  926MOL0     C24904   2.827   9.329   9.097  0.2500  0.3725 -0.4839
  926MOL0     O24905   2.798   9.235   9.198 -0.5210 -1.0587  0.0199
  926MOL0     C24906   2.670   9.190   9.221  0.3348 -0.3416 -0.2223
  926MOL0     C24907   2.556   9.244   9.164 -0.0167 -0.6749 -0.1564
  926MOL0     C24908   2.436   9.199   9.195 -0.2350  0.5356 -0.3809
  926MOL0     C24909   2.415   9.108   9.292  0.4799 -0.6975 -0.7622
  926MOL0     O24910   2.281   9.073   9.324 -0.2034 -0.0240  0.2621
  926MOL0     C24911   2.268   8.956   9.412 -0.0610  0.4181  0.0360
  926MOL0     C24912   2.121   8.910   9.405 -0.0977 -0.8114  1.0246
  926MOL0     C24913   2.095   8.791   9.494  0.0342  0.5699  1.0268
  926MOL0     C24914   2.003   8.690   9.430  0.2482  0.1778  0.0307
  926MOL0     C24915   1.849   8.749   9.416 -0.2808  0.1102 -0.3131
  926MOL0     C24916   1.788   8.695   9.286  1.4970  0.3172  0.6992
  926MOL0     C24917   1.790   8.539   9.264 -0.0236 -1.0860  0.7939
  926MOL0     C24918   1.713   8.508   9.133 -0.4181  0.8623  0.0149
  926MOL0    Cl24919   1.546   8.554   9.154 -0.1466  0.4735 -0.5191
  926MOL0     C24920   2.527   9.061   9.357  0.3401  0.1222 -0.1459
  926MOL0     C24921   2.653   9.090   9.313 -0.3176 -0.7592  0.3887
  926MOL0     O24922   2.776   9.328   8.996  0.1118  0.1057  0.4364
  926MOL0     C24923   2.951   9.528   9.035 -0.5014  0.5089 -1.0247
  926MOL0     C24924   3.046   9.630   9.048 -0.1563 -0.5008  0.5263
  926MOL0     N24925   3.409  10.058   9.667  0.1830  0.0971 -0.1907
  926MOL0     N24926   3.468  10.153   9.738 -0.0528  0.0903  0.5785
  926MOL0     C24927   4.176  10.927  10.073 -1.4117 -0.4966  0.9681
  926MOL0     C24928   4.157  10.993  10.191 -0.7392  0.1417 -0.4556
  926MOL0     C24929   4.188  11.029  10.630  0.6462 -0.1038  1.2127
  926MOL0     C24930   4.209  11.170  10.663  0.0921  0.2834  0.4800
  926MOL0     C24931   4.205  11.211  10.795 -0.0349 -0.4575  0.1913
  926MOL0     C24932   4.166  11.136  10.899  0.1914 -0.2276  0.3530
  926MOL0     O24933   4.160  11.164  11.028  1.1924 -0.6745  0.6121
  926MOL0     C24934   4.209  11.287  11.072  0.3728 -0.3552 -0.4603
  926MOL0     C24935   4.199  11.287  11.220  0.0518 -1.6818  0.3925
  926MOL0     C24936   4.284  11.389  11.299  0.0630 -0.4615 -0.1997
  926MOL0     C24937   4.198  11.506  11.349 -0.1850 -1.2020 -0.1530
  926MOL0     C24938   4.277  11.614  11.404 -0.0337  0.1864 -0.0274
  926MOL0     C24939   4.336  11.706  11.462 -0.6223  0.9047  0.8031
  926MOL0     C24940   4.131  11.007  10.871 -0.5089 -0.4178  1.0058
  926MOL0     C24941   4.146  10.948  10.747  0.4687  0.0981  0.0969
  926MOL0     C24942   4.144  10.791  10.751 -0.6823 -0.2552  0.3171
  926MOL0     H24943   4.480  11.010  10.303  1.3553 -0.4153 -1.4847
  926MOL0     H24944   4.505  10.860  10.098 -2.2509 -3.5235 -0.1184
  926MOL0     H24945   4.164  10.797   9.812  0.6214  1.7252  1.6492
  926MOL0     H24946   4.316  10.709   9.764 -2.0611 -1.2320 -0.9076
  926MOL0     H24947   4.110  10.648   9.972  0.9522  2.8045  1.0653
  926MOL0     H24948   4.273  10.586   9.989  0.7027  2.9220  0.1728
  926MOL0     H24949   4.154  10.413   9.865  2.9326  0.4142  0.7663
  926MOL0     H24950   4.267  10.481   9.759  2.3257  0.4458  4.2469
  926MOL0     H24951   4.003  10.626   9.760 -4.2668 -2.7652 -0.2772
  926MOL0     H24952   4.115  10.574   9.625  4.7651  0.5199  1.5724
  926MOL0     H24953   4.016  10.347   9.677 -1.7619 -1.4855  3.2355
  926MOL0     H24954   3.925  10.417   9.820 -1.5848 -0.9469  0.5696
  926MOL0     H24955   3.782  10.529   9.700  0.4797 -0.3674  0.1680
  926MOL0     H24956   3.867  10.499   9.542  3.8264 -1.5533 -1.5387
  926MOL0     H24957   3.817  10.260   9.548 -0.1321 -1.0402  0.9241
  926MOL0     H24958   3.666  10.362   9.552  0.1435  1.9215  1.4394
  926MOL0     H24959   3.771  10.198   9.790  1.1650  1.1916  1.1006
  926MOL0     H24960   3.661  10.330   9.802 -1.9024  0.1465 -1.2280
  926MOL0     H24961   3.700  10.055   9.525 -1.8769 -3.2782 -1.0671
  926MOL0     H24962   3.548   9.882   9.405  2.4100  1.7070  1.7390
  926MOL0     H24963   3.527   9.800   9.560  0.1098  1.6711  2.5829
  926MOL0     H24964   3.277   9.848   9.578  1.3996 -1.4238  0.8427
  926MOL0     H24965   3.302   9.940   9.415 -3.0331 -0.0080  0.7084
  926MOL0     H24966   3.186   9.723   9.411 -1.0478  3.1488 -0.1217
  926MOL0     H24967   3.326   9.648   9.477 -3.6399 -2.1811 -0.8900
  926MOL0     H24968   3.376   9.588   9.276 -2.2438 -1.5492  1.3227
  926MOL0     H24969   3.420   9.751   9.234  0.8645 -1.6653 -2.8689
  926MOL0     H24970   3.212   9.477   9.304 -0.2564 -0.0059 -0.3362
  926MOL0     H24971   3.029   9.304   9.275  0.4333 -0.8483 -0.7038
  926MOL0     H24972   2.557   9.329   9.095  0.5135  0.9965  1.8165
  926MOL0     H24973   2.358   9.245   9.135 -1.8512  0.8743  1.8391
  926MOL0     H24974   2.328   8.868   9.387 -0.4607  0.1784 -0.0881
  926MOL0     H24975   2.293   8.976   9.517  4.4052 -0.2102 -0.6879
  926MOL0     H24976   2.053   8.990   9.434  0.0914 -0.0646 -0.4726
  926MOL0     H24977   2.095   8.881   9.303  2.1284  1.0058 -0.1676
  926MOL0     H24978   2.194   8.749   9.514  0.4099  1.1390  0.4325
  926MOL0     H24979   2.062   8.822   9.593 -3.2839 -0.9444  0.5249
  926MOL0     H24980   1.992   8.595   9.484  0.3118  0.0314 -0.2129
  926MOL0     H24981   2.046   8.661   9.334  0.8558 -2.5182  1.0321
  926MOL0     H24982   1.839   8.858   9.413 -0.6704  0.3213  3.5241
  926MOL0     H24983   1.792   8.711   9.501  0.3651  0.9694  0.5253
  926MOL0     H24984   1.682   8.722   9.290  1.6410  1.0086  0.1131
  926MOL0     H24985   1.833   8.747   9.201 -1.0905 -2.3301 -2.5846
  926MOL0     H24986   1.755   8.492   9.357 -1.6668  2.8230  2.3744
  926MOL0     H24987   1.889   8.503   9.235  0.2389 -0.5750  1.0387
  926MOL0     H24988   1.750   8.562   9.045 -1.7319 -0.0409 -1.1303
  926MOL0     H24989   1.706   8.402   9.111  2.0099  0.2566  1.7490
  926MOL0     H24990   2.529   8.988   9.437 -0.8366 -2.1832 -2.1073
  926MOL0     H24991   2.736   9.033   9.352 -0.2117 -0.2565  0.9110
  926MOL0     H24992   2.874   9.543   8.960 -1.2709 -1.6378 -0.7354
  926MOL0     H24993   3.051   9.710   8.975 -0.2625  0.0240  1.0867
  926MOL0     H24994   4.089  10.916  10.010 -2.0411 -2.3279  2.0852
  926MOL0     H24995   4.058  11.023  10.224  0.4989  4.7683 -0.2404
  926MOL0     H24996   4.230  11.241  10.583 -1.0548 -0.0137 -0.1034
  926MOL0     H24997   4.226  11.313  10.825 -2.5899  0.1448  0.0797
  926MOL0     H24998   4.142  11.361  11.028  0.1574 -1.5093 -2.1699
  926MOL0     H24999   4.308  11.300  11.029 -0.9339 -1.6655 -4.2271
  926MOL0     H25000   4.225  11.185  11.250 -0.0182 -1.8067  0.0294
  926MOL0     H25001   4.095  11.308  11.244  0.4987 -0.0122  1.0043
  926MOL0     H25002   4.368  11.414  11.234 -1.0412 -1.0227 -1.9139
  926MOL0     H25003   4.326  11.347  11.390 -1.8834 -0.2890  0.8285
  926MOL0     H25004   4.123  11.546  11.280  0.3599  0.9434  0.4206
  926MOL0     H25005   4.146  11.463  11.435  1.6535 -1.5352  0.8505
  926MOL0     H25006   4.370  11.783  11.527 -3.0346  2.1943  0.6715
  926MOL0     H25007   4.106  10.949  10.959 -2.4462  1.2292  1.6123
  926MOL0     H25008   4.111  10.739  10.661 -1.9819 -0.7679  1.0579
  926MOL0     H25009   4.240  10.743  10.770 -0.6634 -1.2112 -1.8513
  926MOL0     H25010   4.094  10.743  10.836 -0.5419 -2.5653 -0.8288
  927MOL0     O25011   0.334   3.262  10.917  0.4543  0.7250  0.5002
  927MOL0     C25012   0.226   3.297  10.961  0.5480  0.3789  0.2220
  927MOL0     O25013   0.104   3.241  10.932  0.6406  0.2544 -0.2387
  927MOL0     C25014   0.085   3.147  10.823  0.0952  0.2579  0.0309
  927MOL0     C25015   0.013   3.040  10.849  1.1877 -0.3084  0.6254
  927MOL0     C25016   0.008   2.937  10.759  1.0371  0.4414 -0.0918
  927MOL0     C25017   0.077   2.942  10.636 -0.0717 -0.0875  0.5230
  927MOL0     O25018   0.073   2.825  10.553  0.1372 -0.4362 -0.3388
  927MOL0     C25019   0.111   2.839  10.415 -0.4369  0.0970 -0.5598
  927MOL0     C25020   0.078   2.714  10.349  0.5546  0.3833  0.5393
  927MOL0     C25021   0.158   2.579  10.399  0.2087  0.2028  0.6511
  927MOL0     C25022   0.131   2.528  10.546  0.6698 -0.0838  0.1737
  927MOL0     C25023  -0.022   2.534  10.579  0.6996  0.7625 -0.4722
  927MOL0     C25024  -0.083   2.447  10.691  0.0529  0.9824  0.3309
  927MOL0     C25025  -0.001   2.447  10.819 -0.3776  0.6058 -0.3021
  927MOL0     C25026  -0.075   2.412  10.954  0.0243 -0.4737  0.1948
  927MOL0     N25027  -0.011   2.475  11.074 -0.4014  0.0820 -0.2346
  927MOL0     C25028  -0.045   2.582  11.150  1.0027  0.6559 -0.0537
  927MOL0     C25029   0.042   2.585  11.256 -0.0570  0.1011 -1.0300
  927MOL0     C25030   0.061   2.695  11.360 -0.4432  0.1809  0.3936
  927MOL0     C25031   0.182   2.775  11.310 -0.1180 -0.6544  0.1479
  927MOL0     C25032   0.151   2.842  11.181  0.0014 -0.5816  0.3017
  927MOL0     C25033   0.263   2.946  11.132  0.0571 -0.5371 -0.4268
  927MOL0     O25034   0.383   2.876  11.160  0.1745 -0.2906  0.5687
  927MOL0     C25035   0.505   2.938  11.132  0.3290 -0.9091 -0.5576
  927MOL0     C25036   0.526   3.072  11.098 -0.0206 -0.1203  0.1395
  927MOL0     C25037   0.657   3.120  11.065 -1.0005 -0.0275  0.8819
  927MOL0     C25038   0.763   3.028  11.069 -0.1278 -1.0792  1.0249
  927MOL0     C25039   0.902   3.077  11.053 -0.0614 -0.8794 -0.4070
  927MOL0     O25040   1.007   2.993  11.051 -0.1492  0.6432  0.0469
  927MOL0     C25041   1.138   3.040  11.028  0.1416 -0.0998 -0.2043
  927MOL0     C25042   1.229   2.966  11.093 -0.3978  0.4219  0.7739
  927MOL0     C25043   1.365   2.982  11.075  0.5901 -0.1365 -0.1363
  927MOL0     C25044   1.411   3.080  10.984  0.1483  0.0702 -0.6341
  927MOL0     O25045   1.541   3.111  10.967  0.5539  0.0211  0.1346
  927MOL0     C25046   1.650   3.010  10.955 -1.1340 -0.1506  0.7044
  927MOL0     C25047   1.633   2.936  10.824 -0.0153 -0.2832  0.1795
  927MOL0     C25048   1.750   2.865  10.764 -0.4232  0.0827 -0.3030
  927MOL0     C25049   1.820   2.753  10.849 -1.0479  0.3114 -0.1185
  927MOL0     C25050   1.947   2.698  10.768  0.3032 -0.6956  1.1235
  927MOL0     C25051   2.021   2.576  10.837  0.1848  0.2327 -0.5526
  927MOL0     C25052   2.110   2.516  10.733  0.4290 -0.4786 -0.5175
  927MOL0     C25053   2.037   2.418  10.644  0.6021  0.0932  0.0782
  927MOL0    Cl25054   2.159   2.347  10.547 -0.8960 -0.3248  0.3043
  927MOL0     C25055   1.323   3.161  10.911  0.1934  0.3425  0.5088
  927MOL0     C25056   1.182   3.142  10.941  0.8537  0.3343  0.3889
  927MOL0     O25057   0.922   3.203  11.051 -0.1733  0.5606 -0.1602
  927MOL0     C25058   0.731   2.892  11.090 -0.0909 -0.0754 -0.6015
  927MOL0     C25059   0.604   2.847  11.124 -0.4858 -0.5572  1.1941
  927MOL0     N25060   0.118   2.470  11.259  0.6448 -0.5410  0.6741
  927MOL0     N25061   0.095   2.405  11.142 -0.3143  0.3255 -0.8214
  927MOL0     C25062   0.155   3.053  10.609 -0.2681 -0.5022 -0.4480
  927MOL0     C25063   0.157   3.152  10.707 -0.7815  0.4185  0.0413
  927MOL0     C25064   0.232   3.385  11.077 -0.6657  0.1106 -0.2670
  927MOL0     C25065   0.147   3.366  11.186  0.1182  0.3628 -1.2074
  927MOL0     C25066   0.143   3.455  11.297 -0.4125  0.6353  0.2490
  927MOL0     C25067   0.229   3.560  11.306  0.1323  0.3283  0.1248
  927MOL0     O25068   0.246   3.637  11.409 -0.1423 -0.0529 -0.4029
  927MOL0     C25069   0.128   3.680  11.480  0.6352 -0.2086 -0.1834
  927MOL0     C25070   0.029   3.754  11.384  0.3369 -0.9286 -0.4674
  927MOL0     C25071  -0.102   3.810  11.445 -0.3082  0.0656 -0.4100
  927MOL0     C25072  -0.208   3.687  11.450  0.7741  0.2097 -0.3436
  927MOL0     C25073  -0.247   3.648  11.313 -1.0657 -0.2648  0.4533
  927MOL0     C25074  -0.276   3.609  11.200  0.4576 -0.0754  0.6062
  927MOL0     C25075   0.323   3.573  11.202 -0.4848  0.3832 -0.9582
  927MOL0     C25076   0.328   3.492  11.091 -0.7460  0.2777  0.3861
  927MOL0     C25077   0.426   3.537  10.980  0.8872  0.1502 -0.4466
  927MOL0     H25078  -0.042   3.036  10.942  0.6699 -1.7886  0.2723
  927MOL0     H25079  -0.055   2.853  10.786 -0.5929  1.7580  0.4334
  927MOL0     H25080   0.074   2.925  10.358  0.0550 -0.4983 -1.7947
  927MOL0     H25081   0.218   2.862  10.417 -0.9600  3.1551  2.0894
  927MOL0     H25082   0.092   2.735  10.242 -0.0685 -0.5405  0.2553
  927MOL0     H25083  -0.028   2.702  10.372  1.2455 -0.6280  3.5521
  927MOL0     H25084   0.264   2.597  10.377 -0.2377  1.0271 -0.9724
  927MOL0     H25085   0.131   2.494  10.336 -1.8600  0.3909  1.2366
  927MOL0     H25086   0.182   2.434  10.567  1.6977  0.3184 -0.4398
  927MOL0     H25087   0.182   2.600  10.610  0.3088  0.8515 -0.5568
  927MOL0     H25088  -0.058   2.633  10.607  1.2833  0.1904  2.6548
  927MOL0     H25089  -0.069   2.510  10.484  1.1910 -1.4545 -0.2128
  927MOL0     H25090  -0.183   2.488  10.704  0.0134  0.1633  3.2886
  927MOL0     H25091  -0.093   2.343  10.660 -1.9085  1.1510  0.2567
  927MOL0     H25092   0.028   2.552  10.827 -1.8300  1.0467 -0.6722
  927MOL0     H25093   0.090   2.386  10.812 -1.4040 -1.1379  0.8226
  927MOL0     H25094  -0.178   2.448  10.945 -0.2732 -0.9780  1.3615
  927MOL0     H25095  -0.075   2.303  10.950  2.5688 -0.5022 -1.7352
  927MOL0     H25096  -0.105   2.667  11.118 -1.3808 -0.6052  0.7898
  927MOL0     H25097  -0.027   2.760  11.364 -2.1141 -1.7170 -2.1739
  927MOL0     H25098   0.085   2.646  11.455 -0.2174 -3.2725 -1.2916
  927MOL0     H25099   0.204   2.850  11.386 -5.3148 -1.7673  3.2072
  927MOL0     H25100   0.269   2.715  11.282 -0.8295 -0.4259 -2.8733
  927MOL0     H25101   0.068   2.913  11.187 -0.0105 -0.4025 -1.4393
  927MOL0     H25102   0.133   2.780  11.092  3.1082  0.6092 -1.3279
  927MOL0     H25103   0.269   3.037  11.193  3.8766 -0.2762 -0.9058
  927MOL0     H25104   0.248   2.979  11.029 -0.1378  0.1732 -0.1751
  927MOL0     H25105   0.444   3.143  11.109 -0.5187 -0.9780  2.9269
  927MOL0     H25106   0.672   3.226  11.047  1.7514  0.3212  4.2469
  927MOL0     H25107   1.193   2.897  11.169 -1.2217  1.5828  1.4791
  927MOL0     H25108   1.442   2.929  11.130 -0.3718 -1.0158  0.3970
  927MOL0     H25109   1.742   3.070  10.956 -2.2084  1.5825  0.3484
  927MOL0     H25110   1.648   2.931  11.031 -2.3057 -4.7029 -3.5805
  927MOL0     H25111   1.545   2.872  10.836 -0.9540  1.1673  1.5990
  927MOL0     H25112   1.608   3.011  10.748 -2.3623 -1.1990 -0.0353
  927MOL0     H25113   1.725   2.826  10.665 -0.9492  2.4591 -1.1743
  927MOL0     H25114   1.827   2.939  10.741  0.6406 -0.3387  1.6844
  927MOL0     H25115   1.742   2.677  10.861 -2.5241  1.8600  0.5379
  927MOL0     H25116   1.855   2.788  10.946 -0.1174  0.8783 -0.6442
  927MOL0     H25117   2.016   2.778  10.740  0.4448 -1.8097 -2.0889
  927MOL0     H25118   1.900   2.661  10.677 -1.4528  2.9995  0.3469
  927MOL0     H25119   2.087   2.615  10.916  1.6612 -1.2316 -1.0077
  927MOL0     H25120   1.956   2.498  10.877  0.3716  0.4325  0.1482
  927MOL0     H25121   2.184   2.458  10.791 -0.3402  0.1024  1.1006
  927MOL0     H25122   2.162   2.574  10.657 -1.1193 -0.1960 -1.3892
  927MOL0     H25123   1.985   2.337  10.696  0.1562  1.2403  1.5070
  927MOL0     H25124   1.964   2.474  10.585  1.9862  2.2385  0.2953
  927MOL0     H25125   1.350   3.241  10.843  0.5116 -1.9919 -2.2722
  927MOL0     H25126   1.113   3.206  10.886  0.4324 -0.8304 -0.4775
  927MOL0     H25127   0.808   2.818  11.108  0.3206  0.6913  0.9969
  927MOL0     H25128   0.593   2.744  11.155  0.0714 -1.1053 -0.3885
  927MOL0     H25129   0.211   3.061  10.516 -1.3041 -1.3225 -1.1632
  927MOL0     H25130   0.228   3.232  10.691 -1.2177  0.6966 -0.5336
  927MOL0     H25131   0.078   3.283  11.174  0.3572 -0.1388  0.6271
  927MOL0     H25132   0.089   3.433  11.389  0.5518  2.6753  1.3803
  927MOL0     H25133   0.151   3.753  11.559 -0.1308 -1.1033  0.8952
  927MOL0     H25134   0.089   3.591  11.529 -0.1627 -0.1482 -0.6871
  927MOL0     H25135   0.005   3.691  11.298 -0.4336 -3.3603  1.4045
  927MOL0     H25136   0.083   3.840  11.344  0.3181  0.7772  2.8228
  927MOL0     H25137  -0.140   3.896  11.389  0.8335 -0.4032 -1.9848
  927MOL0     H25138  -0.081   3.831  11.550 -2.6185 -0.5396  0.2099
  927MOL0     H25139  -0.169   3.600  11.503 -0.7444 -2.1537 -2.8509
  927MOL0     H25140  -0.299   3.707  11.508  1.7982  2.5713  0.5685
  927MOL0     H25141  -0.290   3.588  11.095 -0.0051 -0.0853  0.6664
  927MOL0     H25142   0.398   3.651  11.214  1.6889 -1.6529 -0.5671
  927MOL0     H25143   0.518   3.481  11.001  1.9609  1.9816 -0.0734
  927MOL0     H25144   0.382   3.512  10.884 -1.7941 -0.5357  0.8690
  927MOL0     H25145   0.448   3.644  10.978  0.6522  0.1914 -0.8653
  928MOL0     O25146   8.846   3.671   9.481  0.5901 -0.2031 -0.4833
  928MOL0     C25147   8.862   3.788   9.515  0.1010 -0.8242 -0.3373
  928MOL0     O25148   8.935   3.878   9.452 -0.4137 -0.1527  0.4823
  928MOL0     C25149   8.967   3.848   9.318 -0.3070 -0.3645  0.2674
  928MOL0     C25150   8.878   3.846   9.215  0.4501  0.5878 -0.1788
  928MOL0     C25151   8.905   3.785   9.091  0.9245  0.7645 -0.0120
  928MOL0     C25152   9.029   3.756   9.056 -1.2496 -0.3625  0.3851
  928MOL0     O25153   9.074   3.691   8.941 -0.3126 -0.0665  0.0616
  928MOL0     C25154   8.977   3.666   8.839  0.1698  0.1603  0.6283
  928MOL0     C25155   8.915   3.527   8.871 -0.1403 -0.4419 -0.7839
  928MOL0     C25156   8.946   3.409   8.775  0.6245  0.4401 -0.0825
  928MOL0     C25157   8.910   3.278   8.847 -0.8214 -0.1158 -0.2821
  928MOL0     C25158   8.942   3.161   8.760 -0.3256 -0.0614  0.3452
  928MOL0     C25159   8.884   3.033   8.819 -0.0064 -0.2320 -0.1320
  928MOL0     C25160   8.914   2.911   8.728 -0.6417  0.1320 -0.0892
  928MOL0     C25161   8.831   2.784   8.760 -0.6534  0.9263 -0.7775
  928MOL0     N25162   8.869   2.703   8.885  0.3181  0.6784 -0.3406
  928MOL0     C25163   8.854   2.564   8.917  0.5207 -0.1244  1.1868
  928MOL0     C25164   8.923   2.542   9.033 -0.1947 -1.1037  0.7361
  928MOL0     C25165   8.919   2.425   9.119 -0.0037  0.4814  0.5434
  928MOL0     C25166   8.946   2.297   9.038  1.2331 -0.5194 -0.2031
  928MOL0     C25167   9.082   2.307   8.975 -0.9708  0.1958  1.0744
  928MOL0     C25168   9.124   2.176   8.922 -0.2239  0.4805 -0.4883
  928MOL0     O25169   9.264   2.165   8.881 -0.5496 -0.7535  0.1605
  928MOL0     C25170   9.316   2.058   8.821 -0.2668 -1.1148  0.2785
  928MOL0     C25171   9.407   2.086   8.720 -0.6392 -1.6269 -0.6681
  928MOL0     C25172   9.469   1.990   8.643  0.4825  0.3817  0.9766
  928MOL0     C25173   9.435   1.850   8.664  0.1540  0.2593 -0.3037
  928MOL0     C25174   9.512   1.741   8.592 -0.6553  0.3918 -0.1562
  928MOL0     O25175   9.460   1.617   8.603  0.5798 -1.0148 -0.3300
  928MOL0     C25176   9.480   1.535   8.493 -0.8736  0.6079 -0.2985
  928MOL0     C25177   9.470   1.575   8.360  0.9384 -0.6922  0.5615
  928MOL0     C25178   9.497   1.471   8.258  0.1102 -0.4706 -0.5649
  928MOL0     C25179   9.527   1.338   8.286 -0.6560 -1.0956  0.9248
  928MOL0     O25180   9.533   1.239   8.189  1.2201  0.0608 -0.6563
  928MOL0     C25181   9.537   1.290   8.049  0.4666  0.2660  0.1497
  928MOL0     C25182   9.579   1.174   7.957 -0.4257  0.1382  0.0112
  928MOL0     C25183   9.585   1.201   7.805 -0.9986 -0.4214 -0.0270
  928MOL0     C25184   9.639   1.078   7.731 -0.0686 -0.4029 -0.4862
  928MOL0     C25185   9.635   1.108   7.580 -0.1722  0.1887 -0.7041
  928MOL0     C25186   9.501   1.123   7.519  0.7297  0.3424  0.1434
  928MOL0     C25187   9.507   1.122   7.358 -0.0668  0.5725 -0.4795
  928MOL0     C25188   9.519   0.975   7.321 -0.0028 -0.6897  0.2018
  928MOL0    Cl25189   9.562   0.961   7.144 -0.4469  0.6593 -0.3849
  928MOL0     C25190   9.524   1.308   8.421 -0.2568  0.3189  0.2388
  928MOL0     C25191   9.516   1.403   8.523  0.7614 -0.6669  0.3413
  928MOL0     O25192   9.619   1.760   8.537  0.0475  0.0357 -0.2237
  928MOL0     C25193   9.344   1.825   8.769 -0.1149  0.2410  0.3493
  928MOL0     C25194   9.273   1.925   8.839 -1.1121  0.3018 -0.9013
  928MOL0     N25195   8.985   2.660   9.068 -0.3630 -0.4393 -0.0865
  928MOL0     N25196   8.961   2.747   8.976  0.1348  0.9810 -0.4382
  928MOL0     C25197   9.135   3.753   9.153  0.1315  0.2741  0.4700
  928MOL0     C25198   9.100   3.805   9.282  0.2033  0.9762 -0.6526
  928MOL0     C25199   8.794   3.828   9.645  0.6066 -0.1147 -0.6400
  928MOL0     C25200   8.778   3.742   9.757  0.1762 -0.9368  0.1449
  928MOL0     C25201   8.703   3.784   9.868 -0.4175  0.4445  0.9180
  928MOL0     C25202   8.638   3.902   9.873  0.9965 -0.0937  0.1976
  928MOL0     O25203   8.563   3.959   9.989  0.4329 -0.1230  0.3415
  928MOL0     C25204   8.587   3.893  10.114  0.3682 -0.7292 -0.2192
  928MOL0     C25205   8.468   3.793  10.161 -0.6957  0.2898 -0.4304
  928MOL0     C25206   8.333   3.858  10.154  0.5180  0.2309 -0.2040
  928MOL0     C25207   8.210   3.775  10.209  1.0371  0.3157 -0.1953
  928MOL0     C25208   8.093   3.816  10.132  0.5803 -1.4016  0.6272
  928MOL0     C25209   7.982   3.830  10.075  0.2173  0.4277 -0.9648
  928MOL0     C25210   8.647   3.988   9.757 -0.0001  0.3713  0.5790
  928MOL0     C25211   8.727   3.961   9.644 -0.5947  0.4411  0.1154
  928MOL0     C25212   8.726   4.057   9.523 -0.6576  0.3170 -0.0365
  928MOL0     H25213   8.787   3.894   9.249 -0.2908 -0.4378 -0.6612
  928MOL0     H25214   8.822   3.777   9.022 -2.3203 -3.4490  3.7448
  928MOL0     H25215   8.904   3.746   8.822  0.8188  0.8798  1.1484
  928MOL0     H25216   9.036   3.658   8.747  2.4483 -1.4799  2.1330
  928MOL0     H25217   8.807   3.532   8.886  0.0723 -2.5635  2.7047
  928MOL0     H25218   8.961   3.509   8.969 -0.3626  3.0887  0.1235
  928MOL0     H25219   9.049   3.407   8.740  0.6159 -0.4492 -0.0873
  928MOL0     H25220   8.876   3.403   8.691  2.2579 -0.1332 -1.4637
  928MOL0     H25221   8.955   3.272   8.947 -2.1701  2.0841  0.5527
  928MOL0     H25222   8.804   3.277   8.876 -1.2681  0.0664 -1.7987
  928MOL0     H25223   8.919   3.180   8.655  2.9109  0.8942 -0.3042
  928MOL0     H25224   9.050   3.147   8.753 -0.3905 -4.1228  3.7820
  928MOL0     H25225   8.939   3.009   8.911  0.6550  0.1416 -0.4275
  928MOL0     H25226   8.782   3.070   8.837  1.3718  3.0775  1.7748
  928MOL0     H25227   9.022   2.890   8.725 -1.3051 -4.0346  0.1899
  928MOL0     H25228   8.891   2.936   8.624 -2.0716 -0.7946 -0.0136
  928MOL0     H25229   8.724   2.805   8.764 -1.3257 -2.2592  1.1191
  928MOL0     H25230   8.831   2.721   8.671  0.4499 -3.5237  2.0368
  928MOL0     H25231   8.776   2.499   8.878 -1.5376  1.0239  3.1198
  928MOL0     H25232   8.986   2.439   9.204 -0.5112  2.2540  0.6774
  928MOL0     H25233   8.824   2.423   9.174 -0.2379  0.4754  0.1391
  928MOL0     H25234   8.948   2.212   9.108  2.7941 -1.6527 -1.5476
  928MOL0     H25235   8.867   2.277   8.965  1.1454  3.9408 -1.6175
  928MOL0     H25236   9.150   2.333   9.057  0.7156 -1.2905  0.2169
  928MOL0     H25237   9.082   2.374   8.889  1.3551 -0.8670  0.1680
  928MOL0     H25238   9.061   2.144   8.839 -1.5309  2.2043 -0.2237
  928MOL0     H25239   9.105   2.099   8.997 -2.2406  2.6280  1.3700
  928MOL0     H25240   9.436   2.190   8.704  0.6666 -1.5324  1.8937
  928MOL0     H25241   9.544   2.008   8.567  0.2688 -0.7009  0.4863
  928MOL0     H25242   9.448   1.676   8.326  1.7278 -1.4208 -2.4929
  928MOL0     H25243   9.476   1.504   8.156 -1.4803  1.6326  0.3735
  928MOL0     H25244   9.436   1.323   8.026  0.0432 -0.6347  0.6393
  928MOL0     H25245   9.618   1.363   8.042  1.7390 -1.2380 -1.9673
  928MOL0     H25246   9.681   1.138   7.974  0.6511  2.8005 -0.3821
  928MOL0     H25247   9.510   1.090   7.963  1.1108 -1.1563  0.3673
  928MOL0     H25248   9.479   1.213   7.779 -0.3701  3.7750 -1.3746
  928MOL0     H25249   9.644   1.291   7.786 -3.1867  3.0537  6.6109
  928MOL0     H25250   9.575   0.992   7.751 -1.8843  1.0936  0.3998
  928MOL0     H25251   9.738   1.053   7.771 -0.4613 -1.8088 -0.3294
  928MOL0     H25252   9.698   1.034   7.529  0.0547 -0.3966  0.4001
  928MOL0     H25253   9.695   1.197   7.557  0.4085 -0.0177 -0.0248
  928MOL0     H25254   9.438   1.041   7.554 -1.3985  0.9920 -1.8790
  928MOL0     H25255   9.445   1.209   7.558  0.0681  1.4450 -2.9350
  928MOL0     H25256   9.564   1.195   7.300 -1.6737  0.0371 -2.8694
  928MOL0     H25257   9.403   1.145   7.332 -0.5864 -1.1386 -0.0376
  928MOL0     H25258   9.605   0.933   7.373  1.6888 -0.7221 -2.4433
  928MOL0     H25259   9.424   0.928   7.345 -0.2289  1.1162  3.3116
  928MOL0     H25260   9.544   1.205   8.449  2.5668 -0.1026 -2.6806
  928MOL0     H25261   9.517   1.371   8.627  1.6602  1.1550  0.9388
  928MOL0     H25262   9.321   1.722   8.793  3.4626 -0.3670  1.8692
  928MOL0     H25263   9.205   1.904   8.921  0.4114 -1.4381 -0.0108
  928MOL0     H25264   9.233   3.727   9.114  0.3998  0.9622  0.6664
  928MOL0     H25265   9.178   3.811   9.358 -1.5781  1.9882  1.1934
  928MOL0     H25266   8.839   3.652   9.753 -0.9537 -1.7200  0.3112
  928MOL0     H25267   8.690   3.710   9.947 -2.0148  0.5696  0.8110
  928MOL0     H25268   8.593   3.966  10.196 -0.4557 -2.1080  1.1327
  928MOL0     H25269   8.679   3.833  10.113 -0.5034 -2.0941 -0.5044
  928MOL0     H25270   8.495   3.775  10.266 -0.0159 -0.6867 -0.7654
  928MOL0     H25271   8.467   3.697  10.108 -0.3624  0.1393 -0.1658
  928MOL0     H25272   8.323   3.859  10.045 -2.3847 -0.9496 -0.0411
  928MOL0     H25273   8.349   3.954  10.205  0.9879 -1.0456  2.2029
  928MOL0     H25274   8.217   3.668  10.188  0.9532  0.3157 -0.2247
  928MOL0     H25275   8.191   3.787  10.316 -2.7241  0.3174 -0.7214
  928MOL0     H25276   7.882   3.838  10.037  0.6566 -2.1010 -2.9595
  928MOL0     H25277   8.587   4.078   9.766 -0.1090  0.4367 -0.5464
  928MOL0     H25278   8.829   4.084   9.497  0.7016 -3.4711  0.6981
  928MOL0     H25279   8.669   4.012   9.441 -0.8883  0.4860  0.0318
  928MOL0     H25280   8.675   4.149   9.550  1.7047  1.0152  2.5496
  929MOL0     O25281  10.844   6.804   8.237  0.0293  0.3633  0.6616
  929MOL0     C25282  10.727   6.821   8.204  0.5948 -0.0966 -0.0270
  929MOL0     O25283  10.634   6.892   8.276  0.4804 -0.1101 -1.1809
  929MOL0     C25284  10.677   6.987   8.366  0.6991 -0.2068 -0.1255
  929MOL0     C25285  10.793   7.068   8.345  0.6182  1.3691 -0.7981
  929MOL0     C25286  10.830   7.160   8.443  0.1028  0.9373 -0.4011
  929MOL0     C25287  10.758   7.167   8.559  0.0782  0.3394  1.1523
  929MOL0     O25288  10.787   7.241   8.669  0.2288 -0.0918 -0.4228
  929MOL0     C25289  10.925   7.238   8.706 -0.1622  0.6214  0.7295
  929MOL0     C25290  10.946   7.355   8.802 -0.3014  0.2589  0.5164
  929MOL0     C25291  10.901   7.334   8.944  0.6030 -0.3342  0.2423
  929MOL0     C25292  10.873   7.474   9.018  0.7495  0.4147  0.1087
  929MOL0     C25293  10.887   7.458   9.177 -0.3327 -0.4874 -0.5251
  929MOL0     C25294  10.795   7.363   9.242 -0.8785  0.1392 -0.6303
  929MOL0     C25295  10.845   7.358   9.396  0.2317  0.2011 -0.0804
  929MOL0     C25296  10.739   7.274   9.480 -0.2452 -1.2704  0.1694
  929MOL0     N25297  10.771   7.317   9.622 -0.0184  0.3576 -0.7287
  929MOL0     C25298  10.727   7.431   9.682  1.7174 -0.3487 -0.1120
  929MOL0     C25299  10.785   7.444   9.799 -1.0844 -0.1567  0.0453
  929MOL0     C25300  10.784   7.557   9.891  0.7474  0.5471  0.2569
  929MOL0     C25301  10.665   7.556   9.996 -0.2875 -0.3883  0.3991
  929MOL0     C25302  10.716   7.489  10.129  0.0749  0.3868  1.1813
  929MOL0     C25303  10.791   7.579  10.229  1.1234  0.0474 -0.7395
  929MOL0     O25304  10.848   7.503  10.339  0.2969  0.0932  0.3616
  929MOL0     C25305  10.963   7.553  10.392  0.3534 -0.4909 -0.4197
  929MOL0     C25306  10.956   7.604  10.522 -0.1450  1.1948 -0.3230
  929MOL0     C25307  11.065   7.639  10.589 -0.1220  0.2185  0.3650
  929MOL0     C25308  11.194   7.644  10.521  0.7624  0.0287  0.3196
  929MOL0     C25309  11.320   7.678  10.597 -0.9186  0.1724  0.1056
  929MOL0     O25310  11.312   7.753  10.714  0.3093 -0.7744  0.3345
  929MOL0     C25311  11.437   7.774  10.779  0.6144 -0.1296  0.7223
  929MOL0     C25312  11.515   7.670  10.839  0.1122 -0.2735 -0.5919
  929MOL0     C25313  11.620   7.698  10.934 -0.5503  0.5268 -0.0833
  929MOL0     C25314  11.645   7.833  10.973  0.2774  0.1503 -0.0961
  929MOL0     O25315  11.726   7.881  11.073 -0.2638 -0.5317 -0.1535
  929MOL0     C25316  11.838   7.810  11.118 -0.4706 -0.0185 -0.2240
  929MOL0     C25317  11.942   7.908  11.177  0.4895 -0.0152  0.7390
  929MOL0     C25318  12.050   7.824  11.242 -0.0824  0.2677 -0.4599
  929MOL0     C25319  12.180   7.897  11.233  0.9578  0.5897  0.8528
  929MOL0     C25320  12.231   7.942  11.369  0.5757 -0.4574  0.1754
  929MOL0     C25321  12.136   8.063  11.417 -0.0518  0.9916  0.8243
  929MOL0     C25322  12.228   8.129  11.530  0.4461 -0.2986  1.3851
  929MOL0     C25323  12.168   8.264  11.568 -0.7756  0.1285  0.1149
  929MOL0    Cl25324  12.184   8.390  11.441  0.4558  0.1690 -0.3415
  929MOL0     C25325  11.577   7.928  10.903  0.4583  0.1139  0.6992
  929MOL0     C25326  11.472   7.902  10.810 -0.6599 -0.4312  0.0737
  929MOL0     O25327  11.426   7.630  10.544  0.3009 -0.5908  0.2645
  929MOL0     C25328  11.197   7.601  10.384  0.6185  0.2030  0.2387
  929MOL0     C25329  11.083   7.560  10.321 -0.3861  0.0012  0.0069
  929MOL0     N25330  10.858   7.327   9.818 -0.0375  0.5651 -0.2166
  929MOL0     N25331  10.842   7.251   9.718  1.6283  0.3123 -0.3181
  929MOL0     C25332  10.643   7.090   8.573  0.3632 -0.2025 -0.0738
  929MOL0     C25333  10.612   6.998   8.487 -0.1337 -0.1176  0.2473
  929MOL0     C25334  10.680   6.746   8.078 -0.1597  0.6407  0.0574
  929MOL0     C25335  10.542   6.702   8.056  0.2046  0.6617  0.1793
  929MOL0     C25336  10.502   6.630   7.948 -0.3026 -0.7621  0.2478
  929MOL0     C25337  10.593   6.616   7.840  0.1362  0.3152 -0.1890
  929MOL0     O25338  10.570   6.548   7.723  0.6041 -0.9015  0.5264
  929MOL0     C25339  10.440   6.495   7.711 -0.8807  1.1319 -0.5076
  929MOL0     C25340  10.449   6.384   7.605 -0.3614  1.1232  0.3894
  929MOL0     C25341  10.332   6.381   7.503 -0.7802 -0.2537 -0.6838
  929MOL0     C25342  10.344   6.248   7.424  0.2110  0.0737 -1.2210
  929MOL0     C25343  10.277   6.132   7.494  0.1651  0.4438  0.9560
  929MOL0     C25344  10.218   6.044   7.561  0.9628  1.4033  0.4234
  929MOL0     C25345  10.723   6.655   7.857 -0.4057 -1.2222  0.2052
  929MOL0     C25346  10.773   6.723   7.972 -0.5220 -0.5388 -0.4662
  929MOL0     C25347  10.921   6.777   7.957 -0.0309  0.2638 -0.2744
  929MOL0     H25348  10.860   7.068   8.260  2.9968  2.2280  0.9400
  929MOL0     H25349  10.927   7.209   8.445  0.3334  0.5929 -1.8833
  929MOL0     H25350  10.946   7.140   8.751 -1.7123  0.5355  1.3246
  929MOL0     H25351  10.997   7.245   8.624  0.6444 -2.5231  1.0305
  929MOL0     H25352  10.902   7.440   8.748 -0.8208  1.2497  2.4235
  929MOL0     H25353  11.054   7.353   8.817 -0.3583  0.9370  1.0681
  929MOL0     H25354  10.971   7.279   9.007  0.3047 -3.0641 -1.6747
  929MOL0     H25355  10.803   7.285   8.948 -1.5447  3.5287  1.2295
  929MOL0     H25356  10.948   7.547   8.987 -1.6726  2.1261 -2.1768
  929MOL0     H25357  10.783   7.534   9.001  0.8679  0.9490  1.2544
  929MOL0     H25358  10.995   7.449   9.196 -0.2001  0.6906 -0.6359
  929MOL0     H25359  10.870   7.550   9.235  0.9655 -0.8098  0.4250
  929MOL0     H25360  10.692   7.393   9.219 -0.1613  0.6204 -3.6163
  929MOL0     H25361  10.804   7.256   9.218  1.7553  0.9404 -3.8827
  929MOL0     H25362  10.843   7.458   9.440 -0.9314 -0.3371  1.1637
  929MOL0     H25363  10.945   7.314   9.401 -0.2986 -0.9052  2.7048
  929MOL0     H25364  10.640   7.290   9.438  0.0829 -3.5361 -1.6398
  929MOL0     H25365  10.759   7.167   9.472  0.0238 -1.0787 -2.6577
  929MOL0     H25366  10.675   7.511   9.629 -1.3162 -0.9573  1.7315
  929MOL0     H25367  10.883   7.545   9.937  1.5332 -1.1881 -1.6772
  929MOL0     H25368  10.764   7.653   9.842 -0.3410 -0.8388 -2.1859
  929MOL0     H25369  10.635   7.657  10.024  2.1471  1.7585 -3.8254
  929MOL0     H25370  10.592   7.495   9.942  2.7215 -4.4869  0.4528
  929MOL0     H25371  10.775   7.398  10.115  2.5222  1.8754  1.0999
  929MOL0     H25372  10.623   7.457  10.174  0.2134 -1.7527  0.0671
  929MOL0     H25373  10.720   7.652  10.270  1.5493 -1.3330  2.9377
  929MOL0     H25374  10.869   7.632  10.175  0.6996 -0.3491 -1.7555
  929MOL0     H25375  10.863   7.596  10.578  0.4610 -0.4818  0.5111
  929MOL0     H25376  11.076   7.651  10.696  1.0344 -0.8708  0.3901
  929MOL0     H25377  11.490   7.574  10.796 -2.0602  1.5472 -3.8760
  929MOL0     H25378  11.680   7.615  10.972 -1.5071 -0.2688 -0.2696
  929MOL0     H25379  11.809   7.729  11.186  2.3266  1.2576  2.7701
  929MOL0     H25380  11.889   7.771  11.029  0.8151  2.3081 -0.5835
  929MOL0     H25381  11.971   7.971  11.093 -2.9707 -0.0459 -0.6747
  929MOL0     H25382  11.898   7.982  11.244 -1.0761  1.4676 -1.7608
  929MOL0     H25383  12.031   7.798  11.346  2.4458 -1.7384 -0.3930
  929MOL0     H25384  12.053   7.731  11.184 -1.3693  1.5174 -2.6898
  929MOL0     H25385  12.168   7.979  11.161  2.1236 -0.4754 -0.6436
  929MOL0     H25386  12.253   7.828  11.188  1.6152  0.3959  2.1615
  929MOL0     H25387  12.329   7.988  11.355  0.8159 -1.2124 -0.7081
  929MOL0     H25388  12.244   7.863  11.443 -0.9632 -0.6047  0.3316
  929MOL0     H25389  12.102   8.137  11.344 -2.3465  0.7848  1.6243
  929MOL0     H25390  12.054   8.013  11.469  1.4866 -2.0361  0.5522
  929MOL0     H25391  12.331   8.147  11.496 -0.8209 -0.9776 -3.5293
  929MOL0     H25392  12.228   8.050  11.606 -1.9525 -1.6200  0.1145
  929MOL0     H25393  12.064   8.259  11.602 -0.8963  2.2561  0.1623
  929MOL0     H25394  12.224   8.289  11.659  1.1281  1.2895 -1.3184
  929MOL0     H25395  11.591   8.034  10.923 -0.1558 -0.0887  2.3973
  929MOL0     H25396  11.412   7.987  10.778 -0.5628  0.4368  2.0246
  929MOL0     H25397  11.290   7.583  10.331  0.1163  0.1495 -0.6458
  929MOL0     H25398  11.082   7.517  10.222  2.2375  2.2724 -1.1326
  929MOL0     H25399  10.585   7.109   8.662  1.7997  0.2491  0.8030
  929MOL0     H25400  10.529   6.932   8.511  0.2461 -0.5692  0.3391
  929MOL0     H25401  10.479   6.717   8.143 -0.2576 -4.9734  1.1603
  929MOL0     H25402  10.396   6.606   7.945 -1.7249  4.2423  1.1162
  929MOL0     H25403  10.371   6.577   7.688 -2.3958  1.4364  4.1677
  929MOL0     H25404  10.419   6.447   7.807  2.5606  0.8445  0.2403
  929MOL0     H25405  10.469   6.282   7.641  1.1565 -0.2098 -3.6467
  929MOL0     H25406  10.540   6.401   7.547  1.0566  1.5603  2.6216
  929MOL0     H25407  10.347   6.471   7.441  2.6099  0.7551  1.3725
  929MOL0     H25408  10.231   6.391   7.543  0.5918  0.3583  2.9274
  929MOL0     H25409  10.293   6.274   7.331  0.1261  2.8896 -0.4964
  929MOL0     H25410  10.451   6.232   7.409  0.5644  2.1045 -1.1109
  929MOL0     H25411  10.161   5.965   7.604  3.2312 -0.3552  0.4151
  929MOL0     H25412  10.795   6.623   7.782  2.2998  1.6093  1.3779
  929MOL0     H25413  10.924   6.879   7.997  1.3154 -0.4332  1.5202
  929MOL0     H25414  11.001   6.726   8.011  0.5057  1.0822 -0.2628
  929MOL0     H25415  10.961   6.763   7.856 -1.9525 -4.6655 -0.5901
  930MOL0     O25416   0.737   8.047   8.554 -0.8039 -0.1809  0.1609
  930MOL0     C25417   0.737   7.952   8.480  0.2679  0.6228  1.4180
  930MOL0     O25418   0.841   7.900   8.413 -0.6219  0.5007  0.3695
  930MOL0     C25419   0.966   7.945   8.453 -0.2607  0.2757  1.1051
  930MOL0     C25420   1.013   8.072   8.414  0.7189 -0.0060  0.0700
  930MOL0     C25421   1.138   8.116   8.459 -0.0318  0.4964  0.8814
  930MOL0     C25422   1.219   8.036   8.544  0.3680 -0.0007 -0.1962
  930MOL0     O25423   1.342   8.085   8.588 -0.1920  0.0938  0.9177
  930MOL0     C25424   1.329   8.142   8.711 -0.0352 -0.1537 -0.2907
  930MOL0     C25425   1.462   8.203   8.755 -0.0728  0.0514  0.6592
  930MOL0     C25426   1.510   8.331   8.687 -0.3903  0.6700  0.4201
  930MOL0     C25427   1.410   8.445   8.692 -0.7109  1.0630  0.5193
  930MOL0     C25428   1.463   8.597   8.686 -0.2926  0.0411 -0.1076
  930MOL0     C25429   1.487   8.657   8.828  0.0726 -0.5345 -0.7300
  930MOL0     C25430   1.537   8.794   8.803 -0.8387  0.3568 -0.5606
  930MOL0     C25431   1.547   8.864   8.942 -1.2344 -0.3665 -0.0299
  930MOL0     N25432   1.577   9.015   8.945 -0.9838  0.6592  0.0588
  930MOL0     C25433   1.571   9.104   8.837 -0.4193 -0.0032 -0.3742
  930MOL0     C25434   1.578   9.226   8.899 -0.5455  0.3816 -0.0468
  930MOL0     C25435   1.558   9.366   8.844  0.0979  0.1719  0.3508
  930MOL0     C25436   1.656   9.411   8.734  0.3266  0.5508  0.0872
  930MOL0     C25437   1.612   9.530   8.645  0.5897 -0.8762  0.0994
  930MOL0     C25438   1.660   9.506   8.508  0.2533  0.7984  0.7937
  930MOL0     O25439   1.607   9.377   8.458  0.6021  0.8952 -1.2748
  930MOL0     C25440   1.694   9.279   8.417 -0.5550 -1.0165  0.3852
  930MOL0     C25441   1.657   9.145   8.441 -0.6069  0.2787 -0.1172
  930MOL0     C25442   1.744   9.043   8.401  0.4201 -0.0512 -0.0102
  930MOL0     C25443   1.862   9.079   8.326  0.3352  1.0484  0.1490
  930MOL0     C25444   1.963   8.976   8.275 -0.5492  0.3107  0.5303
  930MOL0     O25445   2.094   9.013   8.241  0.3984  0.2827 -0.2345
  930MOL0     C25446   2.164   8.912   8.173  0.3165  0.4656 -0.2812
  930MOL0     C25447   2.280   8.868   8.221 -0.6127 -0.7675  0.1071
  930MOL0     C25448   2.359   8.773   8.166 -0.1225  0.1046  0.1986
  930MOL0     C25449   2.306   8.698   8.053 -0.1802 -0.4279  0.8789
  930MOL0     O25450   2.387   8.600   8.002 -0.0264  0.6741  0.0831
  930MOL0     C25451   2.350   8.523   7.888  0.2320 -0.6902 -0.5418
  930MOL0     C25452   2.386   8.595   7.758  0.1287 -0.2400 -0.9161
  930MOL0     C25453   2.537   8.646   7.757  0.2911  0.4159  0.4447
  930MOL0     C25454   2.587   8.696   7.627 -0.2136  0.7334 -0.1298
  930MOL0     C25455   2.737   8.722   7.623 -0.1162 -0.1294  0.6546
  930MOL0     C25456   2.792   8.780   7.494 -0.1263  0.6131  0.1825
  930MOL0     C25457   2.934   8.822   7.506  0.2402  0.6343  0.4762
  930MOL0     C25458   2.939   8.964   7.586 -0.0511 -0.1865  1.0437
  930MOL0    Cl25459   3.106   9.041   7.599 -0.1375 -0.4933 -0.4153
  930MOL0     C25460   2.193   8.748   7.997  0.1523 -0.6733  0.2110
  930MOL0     C25461   2.120   8.854   8.056  0.0396  0.1214 -0.3552
  930MOL0     O25462   1.926   8.859   8.280  0.8375  0.0270 -0.4171
  930MOL0     C25463   1.893   9.211   8.300 -0.5555  0.0477 -0.6001
  930MOL0     C25464   1.805   9.313   8.344 -0.4801 -0.2108 -0.2846
  930MOL0     N25465   1.605   9.212   9.032 -0.5990  0.4022  0.3006
  930MOL0     N25466   1.603   9.091   9.056 -0.0281 -0.5098  0.1348
  930MOL0     C25467   1.170   7.903   8.571 -0.0538  0.5774 -0.1722
  930MOL0     C25468   1.048   7.857   8.514 -0.0256 -0.6757 -1.2896
  930MOL0     C25469   0.606   7.878   8.476  0.7384  0.6279  0.9717
  930MOL0     C25470   0.615   7.762   8.402  0.4733  0.1606  0.4357
  930MOL0     C25471   0.499   7.689   8.365 -0.5422 -0.9327  0.0473
  930MOL0     C25472   0.381   7.731   8.417  0.4070  0.4428  0.5910
  930MOL0     O25473   0.259   7.669   8.403 -0.5651 -0.5466  0.0075
  930MOL0     C25474   0.237   7.575   8.299  0.4392  0.0936 -0.0172
  930MOL0     C25475   0.194   7.660   8.187 -0.2879 -1.0634  0.5292
  930MOL0     C25476   0.067   7.745   8.200 -0.4895  0.1066  0.4013
  930MOL0     C25477  -0.054   7.652   8.202  0.5643  0.4399 -0.9196
  930MOL0     C25478  -0.081   7.596   8.068 -0.5856 -0.1135  1.0730
  930MOL0     C25479  -0.107   7.559   7.950  0.3906  0.8733  0.2284
  930MOL0     C25480   0.375   7.839   8.494 -0.0787 -0.5462  0.3798
  930MOL0     C25481   0.478   7.922   8.525  1.1631 -0.1611 -0.9605
  930MOL0     C25482   0.452   8.057   8.589  0.2901 -0.2046 -0.5028
  930MOL0     H25483   0.940   8.134   8.363  0.0641 -0.9449 -0.1650
  930MOL0     H25484   1.172   8.215   8.430  2.7499 -0.6390  0.0085
  930MOL0     H25485   1.252   8.218   8.725  0.2023  0.1620 -0.6721
  930MOL0     H25486   1.302   8.064   8.783 -2.1600 -0.9806 -1.8707
  930MOL0     H25487   1.539   8.130   8.728 -0.0558  1.2304 -3.0122
  930MOL0     H25488   1.451   8.226   8.861  2.9294  2.0459  0.6567
  930MOL0     H25489   1.530   8.301   8.583  1.8744  0.7289  0.7828
  930MOL0     H25490   1.611   8.366   8.711 -0.1355  1.5980 -1.7092
  930MOL0     H25491   1.342   8.437   8.606  0.5938 -1.0985 -0.3843
  930MOL0     H25492   1.348   8.433   8.781  0.6584  2.2257  1.6915
  930MOL0     H25493   1.540   8.608   8.609  0.9589  1.1642  1.2391
  930MOL0     H25494   1.376   8.648   8.644  1.1052  1.5750 -1.2625
  930MOL0     H25495   1.388   8.666   8.873  0.3747  1.9094 -0.4230
  930MOL0     H25496   1.557   8.592   8.881  1.0953  0.0882 -1.2753
  930MOL0     H25497   1.474   8.857   8.741 -0.0750  2.1706  0.4203
  930MOL0     H25498   1.636   8.788   8.758 -0.2519  0.6368  0.6292
  930MOL0     H25499   1.453   8.860   8.998 -2.6437  1.9662 -2.0539
  930MOL0     H25500   1.630   8.818   8.997 -0.4325 -0.0485 -0.9362
  930MOL0     H25501   1.551   9.088   8.732  1.6002  0.2856 -0.8376
  930MOL0     H25502   1.456   9.359   8.803  0.2148  4.4773 -1.2080
  930MOL0     H25503   1.555   9.450   8.914  0.7532  1.8846 -1.6030
  930MOL0     H25504   1.748   9.451   8.778 -0.3032 -0.5821  2.6342
  930MOL0     H25505   1.684   9.320   8.680  1.8487  0.3779  1.0771
  930MOL0     H25506   1.666   9.620   8.676  3.7023 -1.9544 -1.6924
  930MOL0     H25507   1.506   9.555   8.653  0.9825  0.7763  0.4963
  930MOL0     H25508   1.768   9.511   8.523  0.3325 -0.5029  0.8059
  930MOL0     H25509   1.631   9.587   8.440  3.4530  2.7692  1.5958
  930MOL0     H25510   1.574   9.123   8.507  1.3805  3.1033  3.7721
  930MOL0     H25511   1.721   8.941   8.428  0.1432  0.2621  0.9822
  930MOL0     H25512   2.321   8.918   8.308  0.1546  0.5095 -0.9468
  930MOL0     H25513   2.459   8.744   8.198  0.2731  0.7356 -0.4177
  930MOL0     H25514   2.397   8.425   7.889 -2.5942 -2.1233  0.0057
  930MOL0     H25515   2.242   8.509   7.883 -0.1740  1.3017  1.0437
  930MOL0     H25516   2.356   8.529   7.676 -2.3597  0.6753 -0.8216
  930MOL0     H25517   2.318   8.681   7.751 -1.8022 -1.5502  0.6294
  930MOL0     H25518   2.535   8.726   7.831 -3.6705 -0.9716  2.1261
  930MOL0     H25519   2.611   8.570   7.787  0.1730  1.7335  4.6886
  930MOL0     H25520   2.534   8.791   7.610 -1.5118  0.7582  3.2046
  930MOL0     H25521   2.558   8.613   7.562  0.9802 -2.3578  2.9470
  930MOL0     H25522   2.779   8.621   7.631  2.2137  0.2590 -3.6759
  930MOL0     H25523   2.766   8.792   7.701 -0.0211  1.0087 -0.3775
  930MOL0     H25524   2.780   8.698   7.424 -2.2302 -0.3845  1.6121
  930MOL0     H25525   2.726   8.863   7.466  0.2966  1.0318  0.4009
  930MOL0     H25526   2.989   8.818   7.412 -0.8476 -1.2543 -0.1218
  930MOL0     H25527   2.992   8.751   7.566  0.2511 -0.6884 -1.0208
  930MOL0     H25528   2.872   9.032   7.534 -1.9225  0.4008  4.0055
  930MOL0     H25529   2.897   8.958   7.687 -0.3833  2.2035  1.0934
  930MOL0     H25530   2.138   8.697   7.919  2.0258 -2.5515  0.0004
  930MOL0     H25531   2.027   8.880   8.006  0.6294  1.9194 -0.6056
  930MOL0     H25532   1.982   9.238   8.244  0.2524 -2.2805 -0.5158
  930MOL0     H25533   1.830   9.417   8.325 -3.0116  0.2985 -1.2928
  930MOL0     H25534   1.234   7.841   8.634  1.9004  3.0824  0.4556
  930MOL0     H25535   1.014   7.758   8.544 -1.1583  0.0332 -0.1685
  930MOL0     H25536   0.714   7.726   8.375  0.7398 -0.1164  1.6948
  930MOL0     H25537   0.505   7.609   8.293  2.3824 -0.5000 -0.3050
  930MOL0     H25538   0.161   7.500   8.322  0.4021 -0.7194 -2.4258
  930MOL0     H25539   0.327   7.529   8.255 -0.3126 -1.1961 -0.2672
  930MOL0     H25540   0.189   7.603   8.093  1.2000  3.6801 -2.8072
  930MOL0     H25541   0.282   7.720   8.164  0.5123 -1.0751  3.2362
  930MOL0     H25542   0.067   7.820   8.121  3.9573  1.1288  1.1410
  930MOL0     H25543   0.081   7.802   8.292  1.4771 -1.0176  0.8476
  930MOL0     H25544  -0.044   7.563   8.265  0.2504  0.4834 -0.8084
  930MOL0     H25545  -0.142   7.698   8.248  1.4399  1.1718  0.0374
  930MOL0     H25546  -0.148   7.536   7.854 -3.3278  0.7799  1.6803
  930MOL0     H25547   0.276   7.870   8.528 -1.6758 -1.1063 -3.2972
  930MOL0     H25548   0.353   8.045   8.634 -0.5228  0.5065 -2.0082
  930MOL0     H25549   0.535   8.091   8.651  2.3166  0.9069 -3.5815
  930MOL0     H25550   0.447   8.130   8.507  2.9208 -1.6334 -2.0694
  931MOL0     O25551  11.529   2.730   7.478  0.6435  0.1457 -1.0024
  931MOL0     C25552  11.620   2.660   7.436  0.6485  0.1648  0.0803
  931MOL0     O25553  11.684   2.555   7.503 -0.0524  0.5720  0.6120
  931MOL0     C25554  11.629   2.502   7.622  0.1523 -0.9263 -0.4251
  931MOL0     C25555  11.583   2.375   7.618  0.7728  0.2673 -0.4937
  931MOL0     C25556  11.531   2.309   7.728 -0.0253  0.8191 -0.5830
  931MOL0     C25557  11.526   2.381   7.847  0.5857  0.3113  0.0354
  931MOL0     O25558  11.479   2.328   7.958 -0.4951 -0.0457  0.4825
  931MOL0     C25559  11.341   2.288   7.948 -0.2490  0.1864 -0.3492
  931MOL0     C25560  11.249   2.375   8.036 -0.3590 -0.0494 -0.3861
  931MOL0     C25561  11.278   2.343   8.191 -0.0149  0.2091  0.9029
  931MOL0     C25562  11.184   2.234   8.243  0.6784 -0.2405 -0.0056
  931MOL0     C25563  11.134   2.254   8.392 -0.4244 -0.9338 -0.2593
  931MOL0     C25564  11.011   2.168   8.438 -0.9421 -0.6682  0.0762
  931MOL0     C25565  10.945   2.184   8.567  0.5720  0.2053  0.9542
  931MOL0     C25566  11.001   2.090   8.673 -0.7279  0.2104  0.4061
  931MOL0     N25567  10.938   2.091   8.802  0.9210 -0.8117 -0.1723
  931MOL0     C25568  10.833   2.004   8.839  0.8004  0.4455  1.3481
  931MOL0     C25569  10.793   2.035   8.964  0.2596 -0.3724  0.1150
  931MOL0     C25570  10.680   1.967   9.035 -0.1087 -1.0946 -0.0789
  931MOL0     C25571  10.714   1.889   9.167  0.4096  0.0363  0.0077
  931MOL0     C25572  10.844   1.800   9.154  0.2395 -0.2249 -0.0329
  931MOL0     C25573  10.829   1.681   9.056 -0.9058  0.1548  0.3810
  931MOL0     O25574  10.740   1.584   9.104  0.1026  0.1860 -0.5182
  931MOL0     C25575  10.745   1.457   9.051 -0.8690 -0.4920  0.7398
  931MOL0     C25576  10.715   1.421   8.921 -0.5077 -0.9752 -0.2748
  931MOL0     C25577  10.697   1.285   8.882 -0.4802 -0.7890  0.1866
  931MOL0     C25578  10.706   1.185   8.982 -0.3242  0.3761 -0.5440
  931MOL0     C25579  10.677   1.035   8.955  0.5915  0.0618  0.3163
  931MOL0     O25580  10.682   0.996   8.828 -1.1672  0.1193  0.1581
  931MOL0     C25581  10.664   0.860   8.792 -0.2807 -0.0536  0.0321
  931MOL0     C25582  10.604   0.827   8.672 -0.1952  0.0429  0.4777
  931MOL0     C25583  10.592   0.697   8.615  0.9315 -0.9267 -0.1169
  931MOL0     C25584  10.665   0.598   8.685  0.1847  0.4271 -1.0450
  931MOL0     O25585  10.682   0.471   8.635  0.3461  0.8456 -0.1054
  931MOL0     C25586  10.564   0.400   8.575  0.0156 -0.7709 -0.7468
  931MOL0     C25587  10.611   0.259   8.539 -0.0833 -0.2439  0.0039
  931MOL0     C25588  10.507   0.148   8.566 -0.1128 -0.0092  0.2354
  931MOL0     C25589  10.406   0.132   8.450 -0.1264 -0.2956 -0.3466
  931MOL0     C25590  10.295   0.039   8.482  0.0022  0.1428  0.6776
  931MOL0     C25591  10.179   0.085   8.386  0.4754  0.1281 -0.0340
  931MOL0     C25592  10.050   0.044   8.462 -1.2785 -0.5550  0.8921
  931MOL0     C25593  10.000   0.140   8.573 -0.4714 -0.6106  0.8679
  931MOL0    Cl25594   9.943   0.288   8.492 -0.3466 -0.8715  0.3801
  931MOL0     C25595  10.710   0.621   8.818  0.5525 -0.0545 -0.2486
  931MOL0     C25596  10.720   0.755   8.860  0.8390 -0.2082  0.6419
  931MOL0     O25597  10.666   0.968   9.052  0.3184  0.5286 -0.1924
  931MOL0     C25598  10.732   1.226   9.118  0.2695  0.8813 -0.1064
  931MOL0     C25599  10.753   1.354   9.147  0.3935  0.3844 -0.1165
  931MOL0     N25600  10.878   2.142   9.007 -0.6905 -0.5937 -0.0401
  931MOL0     N25601  10.959   2.178   8.907  0.3223  0.7822  0.1397
  931MOL0     C25602  11.549   2.521   7.847  0.1426  0.5345 -0.0350
  931MOL0     C25603  11.610   2.578   7.734 -1.1370 -0.0272 -0.6742
  931MOL0     C25604  11.653   2.681   7.293  0.2964  0.5221  0.2661
  931MOL0     C25605  11.774   2.642   7.239  0.3709  0.6821 -0.4843
  931MOL0     C25606  11.806   2.650   7.100 -0.0474  0.5878 -0.0189
  931MOL0     C25607  11.724   2.707   7.016  0.2012 -0.1542  0.6864
  931MOL0     O25608  11.753   2.737   6.884  0.0967  0.0981 -0.4047
  931MOL0     C25609  11.880   2.693   6.824 -0.5834 -0.9528 -0.3345
  931MOL0     C25610  11.899   2.779   6.703 -0.5619  0.4752  0.3164
  931MOL0     C25611  11.925   2.927   6.746  0.4528 -0.5622 -0.3666
  931MOL0     C25612  11.959   3.022   6.631 -0.1264  0.4566 -0.0434
  931MOL0     C25613  12.092   2.977   6.577  0.1219 -1.3052 -0.8115
  931MOL0     C25614  12.198   2.961   6.523  0.3049 -0.5883  0.9598
  931MOL0     C25615  11.610   2.757   7.060 -0.6385 -0.2608 -0.5530
  931MOL0     C25616  11.566   2.747   7.197 -0.0694 -0.1356  0.2922
  931MOL0     C25617  11.418   2.790   7.234  0.0046  0.3577  0.4884
  931MOL0     H25618  11.586   2.324   7.523 -3.2840 -0.5988 -0.3595
  931MOL0     H25619  11.486   2.210   7.728 -3.7140  2.3392  0.0590
  931MOL0     H25620  11.294   2.287   7.849 -2.8549  0.7154  0.7937
  931MOL0     H25621  11.336   2.187   7.990 -0.4179  0.5283  0.4588
  931MOL0     H25622  11.145   2.350   8.017 -0.4229 -0.6895  0.7514
  931MOL0     H25623  11.259   2.484   8.027  3.1623 -0.2755 -0.6354
  931MOL0     H25624  11.268   2.438   8.244  1.6974 -0.5098  2.6460
  931MOL0     H25625  11.384   2.316   8.201 -0.2926 -1.6110 -0.3788
  931MOL0     H25626  11.096   2.243   8.178 -0.1992 -0.4603  1.1125
  931MOL0     H25627  11.214   2.131   8.221 -0.8885 -1.0531  1.3948
  931MOL0     H25628  11.219   2.238   8.459  1.4705 -1.1054 -2.5692
  931MOL0     H25629  11.122   2.362   8.402  2.4902 -0.6367  1.4772
  931MOL0     H25630  10.931   2.190   8.367 -1.7891  0.1456  1.2468
  931MOL0     H25631  11.046   2.066   8.419  2.7864  0.7681 -1.7543
  931MOL0     H25632  10.837   2.169   8.558  0.7637 -0.2201 -1.6737
  931MOL0     H25633  10.942   2.289   8.597  0.2904  0.5688 -0.2541
  931MOL0     H25634  11.020   1.983   8.656 -1.3120 -0.4689  3.3970
  931MOL0     H25635  11.100   2.135   8.686 -0.3957 -0.3540 -0.0988
  931MOL0     H25636  10.798   1.925   8.773  0.5530  1.1893  0.5734
  931MOL0     H25637  10.621   2.056   9.058  2.1102  0.5436 -0.4353
  931MOL0     H25638  10.623   1.906   8.964  0.5093 -2.6011  0.6790
  931MOL0     H25639  10.738   1.954   9.252  3.6316 -0.4118 -0.4315
  931MOL0     H25640  10.623   1.837   9.201 -0.9695  1.0647 -1.9530
  931MOL0     H25641  10.860   1.766   9.256 -2.3220  1.1937  0.9489
  931MOL0     H25642  10.935   1.854   9.126 -0.1368  0.0854 -0.7038
  931MOL0     H25643  10.930   1.642   9.044 -1.7150 -1.8325 -0.3120
  931MOL0     H25644  10.799   1.712   8.955 -1.2526  2.4067  1.1081
  931MOL0     H25645  10.686   1.494   8.846 -0.5297 -1.4969 -0.7879
  931MOL0     H25646  10.690   1.261   8.776  5.7559 -1.6352 -0.4030
  931MOL0     H25647  10.563   0.905   8.609  0.5229 -0.5277 -0.7164
  931MOL0     H25648  10.540   0.680   8.522  2.9354  1.2772 -1.7719
  931MOL0     H25649  10.486   0.400   8.652 -0.2349  1.5632 -0.9292
  931MOL0     H25650  10.516   0.458   8.495  0.9520 -1.2597 -1.6892
  931MOL0     H25651  10.641   0.257   8.434  0.2883 -1.9626  0.1115
  931MOL0     H25652  10.696   0.242   8.607  1.3120  5.2238  0.0880
  931MOL0     H25653  10.548   0.048   8.580 -2.5764 -0.8094  2.6534
  931MOL0     H25654  10.462   0.172   8.663  0.5165  1.3980  0.2089
  931MOL0     H25655  10.471   0.099   8.368  1.3641  1.5779  0.0163
  931MOL0     H25656  10.372   0.233   8.426  3.9585  1.2597 -0.4091
  931MOL0     H25657  10.261   0.056   8.585 -2.8102 -0.3284 -0.0832
  931MOL0     H25658  10.333  -0.063   8.481  1.3853  0.5684  2.5601
  931MOL0     H25659  10.184   0.191   8.358  1.1850  0.1244  0.0677
  931MOL0     H25660  10.197   0.024   8.297  1.6905  1.1878 -0.5430
  931MOL0     H25661  10.070  -0.053   8.508  1.3727 -1.2771 -1.5065
  931MOL0     H25662   9.965   0.022   8.396 -0.9275 -0.9491  0.5717
  931MOL0     H25663   9.927   0.097   8.642 -2.7352  0.4301 -0.7281
  931MOL0     H25664  10.088   0.166   8.632 -1.0820  0.8145  1.1913
  931MOL0     H25665  10.766   0.549   8.877  3.5349  1.9814 -0.3389
  931MOL0     H25666  10.788   0.772   8.943  1.5036  2.3348 -0.3269
  931MOL0     H25667  10.721   1.177   9.214  1.3973  0.7674 -0.0132
  931MOL0     H25668  10.785   1.377   9.249  0.4363 -1.8756  0.4218
  931MOL0     H25669  11.528   2.580   7.936 -0.8303 -0.1161  0.1742
  931MOL0     H25670  11.638   2.683   7.735 -0.6096  0.0148 -4.3998
  931MOL0     H25671  11.846   2.610   7.314 -0.1153 -1.4976 -0.8884
  931MOL0     H25672  11.907   2.623   7.070  1.3053  0.7450  3.8485
  931MOL0     H25673  11.883   2.584   6.814  1.0284 -0.9879  0.1604
  931MOL0     H25674  11.959   2.707   6.899 -2.4007  0.9017  1.3589
  931MOL0     H25675  11.813   2.769   6.636 -0.2816 -0.2311  0.0480
  931MOL0     H25676  11.994   2.741   6.664 -1.0395 -1.8895  1.2364
  931MOL0     H25677  12.007   2.932   6.818  0.2520 -2.2670  0.0323
  931MOL0     H25678  11.840   2.962   6.806  0.2472  1.3180 -1.6724
  931MOL0     H25679  11.879   3.031   6.557 -0.6789  0.2043  0.5125
  931MOL0     H25680  11.966   3.122   6.675 -1.9626  0.2290  0.8657
  931MOL0     H25681  12.277   2.951   6.451 -1.3263  3.5131 -1.7866
  931MOL0     H25682  11.540   2.803   6.991 -1.1396  1.2948  0.9555
  931MOL0     H25683  11.432   2.883   7.289  0.1431 -0.0360  1.1353
  931MOL0     H25684  11.360   2.818   7.146 -3.3209 -0.1056  2.3875
  931MOL0     H25685  11.354   2.716   7.283 -1.7021 -1.4807 -4.0146
  932MOL0     O25686   0.810  10.988   6.051  0.4376  0.1285 -0.2879
  932MOL0     C25687   0.839  11.055   5.954 -0.5682  0.9341 -1.3014
  932MOL0     O25688   0.923  11.016   5.854  0.3054 -0.5551 -0.5229
  932MOL0     C25689   0.963  10.886   5.846 -0.4446 -0.7946 -0.2403
  932MOL0     C25690   1.028  10.805   5.938  0.0008  0.7170 -0.2600
  932MOL0     C25691   1.091  10.684   5.907 -0.0680  0.5123  1.5151
  932MOL0     C25692   1.104  10.649   5.767 -0.1653  0.3297 -1.2468
  932MOL0     O25693   1.159  10.527   5.712  0.6333  0.1634 -0.7460
  932MOL0     C25694   1.209  10.436   5.796 -0.2968  0.2181  0.6395
  932MOL0     C25695   1.310  10.350   5.723  0.8249 -0.2593  0.5630
  932MOL0     C25696   1.404  10.247   5.806 -0.3852  0.4426  0.9016
  932MOL0     C25697   1.468  10.314   5.927 -0.0768 -0.5995  0.3910
  932MOL0     C25698   1.588  10.227   5.980 -0.0654 -0.6017  0.2365
  932MOL0     C25699   1.657  10.296   6.104 -0.3939 -0.1255 -0.1038
  932MOL0     C25700   1.746  10.194   6.179  1.0768  0.6480  0.1141
  932MOL0     C25701   1.804  10.260   6.306  0.5387  0.5851  0.8054
  932MOL0     N25702   1.915  10.343   6.263 -0.1441  0.6794  0.4391
  932MOL0     C25703   2.047  10.307   6.276 -0.6206 -1.3377  0.6215
  932MOL0     C25704   2.115  10.427   6.259 -0.7438  0.0709  0.6674
  932MOL0     C25705   2.261  10.461   6.264  0.3247 -0.0380  0.0372
  932MOL0     C25706   2.326  10.367   6.159 -0.4879  0.1393  0.0866
  932MOL0     C25707   2.481  10.368   6.172  0.4415 -0.0250 -0.4059
  932MOL0     C25708   2.545  10.328   6.308 -0.5129 -0.1083  0.3990
  932MOL0     O25709   2.515  10.186   6.313 -0.7534 -0.1398  0.4136
  932MOL0     C25710   2.621  10.099   6.328 -0.1881 -0.6345  0.4043
  932MOL0     C25711   2.604   9.981   6.264  0.4964  0.7084  0.1797
  932MOL0     C25712   2.706   9.889   6.264 -0.4709 -0.2255 -0.3974
  932MOL0     C25713   2.834   9.922   6.321  0.5809  0.1102 -0.1939
  932MOL0     C25714   2.955   9.839   6.296 -0.1278  0.8683 -0.1172
  932MOL0     O25715   3.069   9.869   6.371 -0.4370  0.4440  1.4948
  932MOL0     C25716   3.178   9.784   6.366 -0.0834 -0.0832 -0.8227
  932MOL0     C25717   3.255   9.733   6.250 -0.7339  0.5196  0.0937
  932MOL0     C25718   3.369   9.650   6.271 -1.5416 -0.3566  0.7251
  932MOL0     C25719   3.416   9.605   6.397  0.1315  0.4037 -0.4295
  932MOL0     O25720   3.530   9.530   6.396 -0.1423  0.2502  0.4360
  932MOL0     C25721   3.608   9.507   6.517  0.1274 -0.5172 -0.2262
  932MOL0     C25722   3.731   9.413   6.478 -0.2414  0.7457  0.1934
  932MOL0     C25723   3.708   9.324   6.355 -0.1037  0.2945  0.1868
  932MOL0     C25724   3.828   9.220   6.337  0.3036 -0.8980 -0.8260
  932MOL0     C25725   3.838   9.166   6.197  0.0521  0.3248  0.0397
  932MOL0     C25726   3.730   9.058   6.159  0.3584 -0.4124 -0.7035
  932MOL0     C25727   3.760   8.908   6.198 -0.6150 -0.1935 -1.0955
  932MOL0     C25728   3.667   8.811   6.135 -0.4255  0.2959 -0.2524
  932MOL0    Cl25729   3.505   8.837   6.209 -0.0524 -0.0211 -0.2332
  932MOL0     C25730   3.336   9.648   6.512  0.5976  0.1653 -0.7520
  932MOL0     C25731   3.220   9.724   6.492 -0.8008  0.2664  0.4808
  932MOL0     O25732   2.948   9.753   6.210  0.0146 -0.7539 -0.6795
  932MOL0     C25733   2.849  10.053   6.388 -0.9968 -0.4639  0.1430
  932MOL0     C25734   2.743  10.139   6.385  0.3181  0.1435  0.1420
  932MOL0     N25735   2.013  10.523   6.243  0.1604 -0.5353 -0.4652
  932MOL0     N25736   1.897  10.475   6.249  0.0507  0.2072  0.1611
  932MOL0     C25737   1.034  10.719   5.673 -0.2060  0.3157  0.2750
  932MOL0     C25738   0.967  10.839   5.709  0.4305  0.3639 -0.2774
  932MOL0     C25739   0.787  11.193   5.946 -0.9354 -0.1648 -0.4945
  932MOL0     C25740   0.851  11.277   5.847  0.3959 -0.1608  0.8725
  932MOL0     C25741   0.835  11.413   5.842  0.1986 -0.2523 -0.2857
  932MOL0     C25742   0.755  11.474   5.944  0.1750  0.1643  1.1742
  932MOL0     O25743   0.740  11.611   5.932 -0.2082 -0.6944 -0.3085
  932MOL0     C25744   0.822  11.688   6.025 -0.2317  0.0703 -0.1123
  932MOL0     C25745   0.857  11.818   5.969  1.0278  0.5831  0.1588
  932MOL0     C25746   0.733  11.903   5.970  0.7172  0.5404  0.4671
  932MOL0     C25747   0.726  12.030   5.886 -0.3100 -0.5968 -0.0301
  932MOL0     C25748   0.764  12.150   5.948 -0.0620 -0.4061  0.2511
  932MOL0     C25749   0.787  12.259   5.988 -0.0415 -0.6015 -0.2451
  932MOL0     C25750   0.679  11.399   6.030 -0.2653 -0.2652 -0.2216
  932MOL0     C25751   0.688  11.256   6.023  0.8883 -0.5390 -0.1818
  932MOL0     C25752   0.598  11.175   6.098 -0.1117  0.2256  0.4689
  932MOL0     H25753   1.012  10.830   6.042  3.5796  0.4815  0.4918
  932MOL0     H25754   1.128  10.614   5.981 -0.8588 -0.1406  1.3160
  932MOL0     H25755   1.259  10.483   5.881  0.2397  2.4785 -0.8473
  932MOL0     H25756   1.133  10.363   5.827 -0.3557 -1.1953 -2.4578
  932MOL0     H25757   1.382  10.414   5.672 -0.5317  1.1109  0.2895
  932MOL0     H25758   1.259  10.291   5.647  1.5175 -1.2789  0.8649
  932MOL0     H25759   1.473  10.215   5.727  1.1831  1.7713  1.6544
  932MOL0     H25760   1.341  10.159   5.821  1.1359 -0.8340  0.0924
  932MOL0     H25761   1.506  10.415   5.907 -2.5463  0.5841  1.2299
  932MOL0     H25762   1.392  10.321   6.006 -0.0175 -0.3356  0.4244
  932MOL0     H25763   1.555  10.124   5.993  0.9225 -0.9962 -0.2775
  932MOL0     H25764   1.665  10.214   5.903 -2.0199 -2.8126 -1.4500
  932MOL0     H25765   1.713  10.386   6.075 -1.5476  1.0899  1.2812
  932MOL0     H25766   1.589  10.343   6.175  1.2653  2.9561 -0.3445
  932MOL0     H25767   1.826  10.142   6.125  1.5647 -0.1660  1.5631
  932MOL0     H25768   1.666  10.126   6.208  0.1308  1.2147 -1.0801
  932MOL0     H25769   1.741  10.321   6.371  4.6026  1.3382  4.4166
  932MOL0     H25770   1.832  10.174   6.368 -2.2313 -2.4828 -1.7862
  932MOL0     H25771   2.091  10.209   6.296  2.6429 -1.0767 -3.6174
  932MOL0     H25772   2.279  10.565   6.239 -0.2660  0.5472  1.8767
  932MOL0     H25773   2.293  10.450   6.368  0.0378  1.2167  0.2648
  932MOL0     H25774   2.294  10.262   6.166  1.8269 -0.7488 -1.4113
  932MOL0     H25775   2.303  10.402   6.058 -0.3431 -2.4015 -0.9023
  932MOL0     H25776   2.529  10.463   6.147  3.3753 -1.2753  0.0026
  932MOL0     H25777   2.515  10.287   6.107  0.0313 -0.0269 -0.6199
  932MOL0     H25778   2.495  10.384   6.388 -2.3843 -1.2926  0.1156
  932MOL0     H25779   2.652  10.347   6.293 -0.7015 -0.7375 -1.9997
  932MOL0     H25780   2.515   9.964   6.204 -0.3197  2.1356  0.9220
  932MOL0     H25781   2.712   9.792   6.216  1.4717 -2.1347  3.2709
  932MOL0     H25782   3.247   9.784   6.154  2.4835 -0.7069 -0.9676
  932MOL0     H25783   3.442   9.615   6.198 -0.7106  4.2983 -1.0424
  932MOL0     H25784   3.647   9.597   6.566  1.5936 -1.5878  0.6655
  932MOL0     H25785   3.538   9.475   6.594 -0.9804  3.6949  0.7673
  932MOL0     H25786   3.817   9.474   6.449  0.8643 -0.2467  1.3079
  932MOL0     H25787   3.759   9.355   6.566  0.5118  2.3675  1.0650
  932MOL0     H25788   3.616   9.267   6.372  0.7644 -0.3168  3.6876
  932MOL0     H25789   3.687   9.386   6.268 -5.9663 -2.3349 -0.7281
  932MOL0     H25790   3.822   9.140   6.411  2.9741  0.9074  1.5670
  932MOL0     H25791   3.912   9.275   6.381 -2.1570 -0.2416  3.6046
  932MOL0     H25792   3.936   9.117   6.202 -0.0119  0.1683 -0.2479
  932MOL0     H25793   3.841   9.246   6.122  2.7243  1.1225  0.8641
  932MOL0     H25794   3.634   9.085   6.204 -0.1485 -1.4639 -1.1254
  932MOL0     H25795   3.719   9.056   6.050  0.5440  0.1842 -0.7372
  932MOL0     H25796   3.762   8.898   6.307  1.5917 -0.5473 -1.1243
  932MOL0     H25797   3.863   8.896   6.161 -0.6264  2.9868 -2.4676
  932MOL0     H25798   3.678   8.837   6.029  2.9862  1.0233  0.1789
  932MOL0     H25799   3.689   8.705   6.151  0.6109  0.5506  0.0417
  932MOL0     H25800   3.356   9.623   6.616  1.4992 -0.4667 -1.0591
  932MOL0     H25801   3.144   9.744   6.567  0.4155  9.9054  0.4093
  932MOL0     H25802   2.938  10.076   6.446 -1.1881  0.7406 -0.0330
  932MOL0     H25803   2.761  10.234   6.433  1.3999 -0.0109  0.0662
  932MOL0     H25804   1.030  10.698   5.566  1.5457  1.9740 -0.1766
  932MOL0     H25805   0.920  10.891   5.626 -2.5772 -4.4326 -1.9921
  932MOL0     H25806   0.929  11.243   5.780 -0.2418  0.7467 -0.3870
  932MOL0     H25807   0.885  11.471   5.765 -1.9670 -0.4779 -1.9341
  932MOL0     H25808   0.911  11.635   6.060 -0.9019  0.7369  2.8668
  932MOL0     H25809   0.764  11.707   6.115  0.1563  1.1228 -0.0777
  932MOL0     H25810   0.902  11.809   5.870 -1.2533  1.2249 -1.0015
  932MOL0     H25811   0.925  11.865   6.040 -0.9809  2.5091  0.9545
  932MOL0     H25812   0.711  11.922   6.076  0.2589 -0.4412  0.5596
  932MOL0     H25813   0.653  11.849   5.920  1.6640  2.6577 -3.7752
  932MOL0     H25814   0.795  12.013   5.803  3.1457  0.3551  2.4147
  932MOL0     H25815   0.626  12.057   5.849  0.7906  1.2708 -1.8530
  932MOL0     H25816   0.786  12.356   6.034  3.1385 -1.2951  1.5728
  932MOL0     H25817   0.619  11.465   6.093  0.5019  0.0899  0.1581
  932MOL0     H25818   0.642  11.145   6.193 -1.8076  2.3245  2.0335
  932MOL0     H25819   0.509  11.234   6.123  0.1743  1.0973 -0.4723
  932MOL0     H25820   0.568  11.088   6.039  0.5326  0.3755 -0.0971
  933MOL0     O25821   1.493   8.551   0.188  0.0922 -0.4394 -0.1594
  933MOL0     C25822   1.517   8.437   0.221  0.4076 -0.1988  0.7173
  933MOL0     O25823   1.495   8.383   0.352 -1.0713 -0.6252 -0.2098
  933MOL0     C25824   1.406   8.435   0.441  0.5565 -0.0381  0.3957
  933MOL0     C25825   1.409   8.401   0.567 -0.3876 -0.7862  0.1249
  933MOL0     C25826   1.304   8.430   0.652  0.5639 -0.3439 -0.0301
  933MOL0     C25827   1.201   8.513   0.625  0.3044 -0.0877 -0.2982
  933MOL0     O25828   1.114   8.565   0.719  0.0064  0.4415  1.1429
  933MOL0     C25829   1.150   8.673   0.797 -0.1485  0.3989  0.8074
  933MOL0     C25830   1.038   8.707   0.899  0.3203 -0.3576  0.0825
  933MOL0     C25831   1.028   8.851   0.954  0.3622 -0.0346 -0.4921
  933MOL0     C25832   0.960   8.937   0.853 -1.3029 -0.6721 -0.5157
  933MOL0     C25833   0.927   9.072   0.905  0.2046  1.3238  0.5121
  933MOL0     C25834   0.899   9.176   0.795 -0.0645  0.6313  0.0940
  933MOL0     C25835   0.820   9.288   0.853  0.5507  0.0947 -0.4469
  933MOL0     C25836   0.914   9.385   0.937  0.0451 -0.1605 -0.0309
  933MOL0     N25837   0.822   9.467   1.014  1.1614  0.2165  0.5193
  933MOL0     C25838   0.818   9.453   1.153 -0.7230  0.8392 -0.5084
  933MOL0     C25839   0.714   9.525   1.195  0.3433 -0.7855 -1.2219
  933MOL0     C25840   0.663   9.560   1.333 -0.5685 -0.1663  0.2421
  933MOL0     C25841   0.609   9.705   1.343 -0.0402 -0.5346 -0.2283
  933MOL0     C25842   0.579   9.750   1.483  0.6124 -0.7031  0.5829
  933MOL0     C25843   0.554   9.895   1.502  0.3250 -0.4449  0.5716
  933MOL0     O25844   0.491   9.906   1.627 -0.0169  0.8977  0.4696
  933MOL0     C25845   0.501  10.018   1.703 -0.4999 -0.2528  0.0495
  933MOL0     C25846   0.554  10.143   1.653  0.9416  0.1335 -0.3380
  933MOL0     C25847   0.555  10.262   1.725  0.1415  0.5273 -0.1714
  933MOL0     C25848   0.518  10.266   1.860  0.1045  0.0255  0.6384
  933MOL0     C25849   0.515  10.391   1.940  0.0783  0.1119 -0.3044
  933MOL0     O25850   0.475  10.370   2.075 -0.2469 -0.3595  0.8079
  933MOL0     C25851   0.503  10.473   2.159 -0.5512 -0.1773  0.0161
  933MOL0     C25852   0.611  10.462   2.242  0.2877  0.3472 -0.4275
  933MOL0     C25853   0.651  10.570   2.328 -0.3563  0.0221  0.1952
  933MOL0     C25854   0.571  10.677   2.332  0.6429  0.1923 -0.2409
  933MOL0     O25855   0.579  10.773   2.425  0.6028 -0.8717  0.7376
  933MOL0     C25856   0.615  10.741   2.559  0.5073  0.2324 -0.6570
  933MOL0     C25857   0.590  10.865   2.645 -0.3552 -0.5887 -0.3200
  933MOL0     C25858   0.439  10.901   2.664 -0.2913  0.1032  0.1389
  933MOL0     C25859   0.416  10.937   2.811  0.4806  0.3384 -0.1918
  933MOL0     C25860   0.497  11.070   2.841  0.0585  0.2448 -0.1045
  933MOL0     C25861   0.480  11.117   2.982  0.0877 -1.3957 -0.0721
  933MOL0     C25862   0.345  11.186   3.000  0.7845  0.0040  0.5262
  933MOL0     C25863   0.342  11.231   3.142 -0.0626 -0.2617  0.4599
  933MOL0    Cl25864   0.354  11.404   3.159  0.4084 -0.8892  0.3266
  933MOL0     C25865   0.457  10.686   2.256 -0.7163 -0.0401 -0.2723
  933MOL0     C25866   0.426  10.591   2.163 -0.4864 -0.3481 -0.1216
  933MOL0     O25867   0.574  10.491   1.896  0.1976 -0.5636  0.0247
  933MOL0     C25868   0.474  10.137   1.916  0.3392  0.8365  0.1320
  933MOL0     C25869   0.464  10.017   1.843  0.3151  0.5675  0.0162
  933MOL0     N25870   0.663   9.595   1.082 -1.0505 -0.5613 -0.7962
  933MOL0     N25871   0.728   9.565   0.977  0.7856  0.2886 -0.2322
  933MOL0     C25872   1.189   8.549   0.494 -0.0524 -1.2621  0.2027
  933MOL0     C25873   1.286   8.505   0.405 -1.2542 -1.1867 -0.4128
  933MOL0     C25874   1.589   8.361   0.118 -0.0187  0.9509  0.0580
  933MOL0     C25875   1.617   8.425   0.003  0.4624 -0.4243 -0.3772
  933MOL0     C25876   1.691   8.367  -0.106  0.3410 -0.2306  0.1418
  933MOL0     C25877   1.720   8.230  -0.094 -0.3713  0.0307  0.5379
  933MOL0     O25878   1.785   8.175  -0.202  1.2834 -0.4607  0.5006
  933MOL0     C25879   1.818   8.037  -0.207 -0.2221  0.0330 -0.1059
  933MOL0     C25880   1.884   8.012  -0.348 -0.1001  0.1120  0.6010
  933MOL0     C25881   2.017   8.082  -0.349 -0.5171 -0.7937  0.2415
  933MOL0     C25882   2.121   8.029  -0.243  0.1027 -0.7037 -0.1811
  933MOL0     C25883   2.258   8.025  -0.288 -0.1913 -0.3044  0.6643
  933MOL0     C25884   2.369   8.042  -0.342  0.5414 -0.5226  0.2723
  933MOL0     C25885   1.710   8.166   0.032  0.1181 -0.5631 -0.2712
  933MOL0     C25886   1.630   8.227   0.131 -0.5935  1.2643 -0.1517
  933MOL0     C25887   1.623   8.144   0.256 -0.7167  0.1273 -0.7838
  933MOL0     H25888   1.492   8.347   0.612  1.0633  1.2017 -0.0818
  933MOL0     H25889   1.319   8.386   0.750 -1.7090 -1.6526 -0.1899
  933MOL0     H25890   1.249   8.664   0.844  0.2605 -0.6777 -0.2135
  933MOL0     H25891   1.161   8.749   0.720  1.9992 -0.8822 -0.2678
  933MOL0     H25892   1.036   8.635   0.982 -0.6947 -1.6592 -1.0041
  933MOL0     H25893   0.943   8.681   0.849 -0.3227  3.0054 -0.6542
  933MOL0     H25894   1.128   8.883   0.984  0.3762 -1.1683  0.7302
  933MOL0     H25895   0.979   8.854   1.052  0.0945 -1.2052 -0.5846
  933MOL0     H25896   1.030   8.949   0.770  1.2309  3.0608  1.8585
  933MOL0     H25897   0.863   8.902   0.817 -4.0197  4.2797  1.0358
  933MOL0     H25898   0.841   9.056   0.971  1.3190 -1.2959  1.4755
  933MOL0     H25899   1.015   9.100   0.964  0.6079 -0.5906  0.8947
  933MOL0     H25900   0.994   9.221   0.766 -0.0968  1.3634  1.0548
  933MOL0     H25901   0.852   9.122   0.712 -1.5007 -2.1563  2.5276
  933MOL0     H25902   0.751   9.256   0.932  0.7823  0.1661 -0.2101
  933MOL0     H25903   0.785   9.358   0.777  0.6067  0.1475 -0.4241
  933MOL0     H25904   0.981   9.332   1.005  0.5667  1.7610  0.9980
  933MOL0     H25905   0.979   9.446   0.874 -1.5469  1.5749 -0.0679
  933MOL0     H25906   0.874   9.393   1.224 -1.2022  2.3244  1.1911
  933MOL0     H25907   0.578   9.496   1.355  0.3312 -1.2113  0.7622
  933MOL0     H25908   0.744   9.540   1.403  1.3991 -0.9376 -2.0959
  933MOL0     H25909   0.682   9.770   1.294 -1.5623  1.1006 -0.4454
  933MOL0     H25910   0.515   9.712   1.287  0.7860  2.0717 -1.4842
  933MOL0     H25911   0.658   9.719   1.551 -0.4498 -0.5622  1.9210
  933MOL0     H25912   0.494   9.686   1.511  0.3261 -1.4850 -1.8315
  933MOL0     H25913   0.487   9.924   1.420  0.3401 -0.9094  0.3930
  933MOL0     H25914   0.646   9.952   1.493 -0.3882  0.8530  1.1867
  933MOL0     H25915   0.579  10.148   1.548  0.1221 -0.6691 -0.5862
  933MOL0     H25916   0.583  10.351   1.670  1.1639  1.1043  1.2220
  933MOL0     H25917   0.679  10.379   2.226  0.1292  0.2274 -0.4652
  933MOL0     H25918   0.746  10.561   2.381  0.8099 -3.1052 -2.1526
  933MOL0     H25919   0.565  10.653   2.600 -4.4642  1.3675 -3.3889
  933MOL0     H25920   0.722  10.718   2.568  0.5324 -1.1919 -3.4469
  933MOL0     H25921   0.642  10.844   2.739 -0.9702 -0.3862  0.0662
  933MOL0     H25922   0.640  10.948   2.594  0.7863 -1.3771 -0.5217
  933MOL0     H25923   0.404  10.967   2.584 -1.5188  1.4722  1.7353
  933MOL0     H25924   0.392  10.803   2.652  2.6038 -1.1769 -1.7547
  933MOL0     H25925   0.445  10.853   2.875 -2.2510  0.2812  1.1036
  933MOL0     H25926   0.313  10.964   2.832  0.2445 -0.4254 -0.3302
  933MOL0     H25927   0.481  11.149   2.767  0.2364 -0.1607 -0.5868
  933MOL0     H25928   0.603  11.041   2.833  0.3692  0.9891  1.0836
  933MOL0     H25929   0.488  11.032   3.049  2.7911  0.2159  1.8793
  933MOL0     H25930   0.565  11.184   3.001 -1.1172  0.3630 -0.5482
  933MOL0     H25931   0.263  11.114   2.998 -3.1647  4.0996 -0.3664
  933MOL0     H25932   0.322  11.251   2.915  1.3880 -1.8457 -1.1683
  933MOL0     H25933   0.244  11.197   3.178 -1.5155  1.1031 -1.9266
  933MOL0     H25934   0.422  11.182   3.198 -1.1944 -0.3254  2.0941
  933MOL0     H25935   0.404  10.780   2.266  2.4794  1.8444  0.6697
  933MOL0     H25936   0.353  10.600   2.083 -1.0223 -0.7732  0.3099
  933MOL0     H25937   0.421  10.129   2.011 -1.3812 -2.4310 -0.9429
  933MOL0     H25938   0.438   9.922   1.887  1.6110  0.7874  1.3409
  933MOL0     H25939   1.107   8.611   0.459  0.8682 -0.5188 -0.7219
  933MOL0     H25940   1.274   8.523   0.299  0.6972 -0.2239 -0.5244
  933MOL0     H25941   1.579   8.526  -0.008 -2.9554 -1.5306  0.0736
  933MOL0     H25942   1.722   8.418  -0.197  0.8206 -0.3822  0.2188
  933MOL0     H25943   1.727   7.978  -0.204 -1.0462  1.2954  0.4037
  933MOL0     H25944   1.894   8.014  -0.131  4.2257  3.0174 -3.1532
  933MOL0     H25945   1.834   8.069  -0.426  2.4526  2.6807  0.6529
  933MOL0     H25946   1.904   7.909  -0.379  2.6918  0.6686  0.2355
  933MOL0     H25947   1.985   8.186  -0.337 -1.8741 -1.3492  1.8709
  933MOL0     H25948   2.048   8.072  -0.453  0.9742  2.7638  0.2107
  933MOL0     H25949   2.120   8.109  -0.169  1.1776  1.6832 -2.5702
  933MOL0     H25950   2.097   7.929  -0.205 -0.3546 -2.4645 -4.4835
  933MOL0     H25951   2.471   8.048  -0.376  1.5685 -0.4016  3.0824
  933MOL0     H25952   1.763   8.073   0.049 -1.7067 -2.2228 -2.9255
  933MOL0     H25953   1.534   8.164   0.317 -0.3137 -1.7380  0.5087
  933MOL0     H25954   1.628   8.037   0.232  1.4966  0.0581 -0.1889
  933MOL0     H25955   1.711   8.183   0.306  3.2805 -1.9889 -5.3061
  934MOL0     O25956   2.352   6.538   5.665 -0.0964 -0.4510 -0.8312
  934MOL0     C25957   2.304   6.550   5.779  0.1830  0.0793  0.2167
  934MOL0     O25958   2.282   6.447   5.868  0.3935  0.2055 -0.2946
  934MOL0     C25959   2.315   6.319   5.829  0.5359  0.3388  0.2063
  934MOL0     C25960   2.380   6.235   5.923  0.5793 -0.0792 -0.2328
  934MOL0     C25961   2.422   6.105   5.882  0.3462 -0.4690 -0.1532
  934MOL0     C25962   2.374   6.047   5.761 -0.0630  0.1949 -1.5668
  934MOL0     O25963   2.398   5.925   5.709  0.7060 -0.3989  0.3345
  934MOL0     C25964   2.495   5.839   5.764  1.1113 -0.5578 -1.1881
  934MOL0     C25965   2.631   5.841   5.688  1.0613  0.7304 -0.3752
  934MOL0     C25966   2.723   5.965   5.707 -0.0633  0.7459  1.0295
  934MOL0     C25967   2.870   5.957   5.640  0.5762  0.6428 -0.4432
  934MOL0     C25968   2.933   6.103   5.602 -0.6531 -0.3570  0.2384
  934MOL0     C25969   3.065   6.114   5.532 -0.9187  1.4581  0.5988
  934MOL0     C25970   3.182   6.051   5.607  0.0462 -0.6782 -0.9278
  934MOL0     C25971   3.210   6.120   5.749  0.1483 -0.6719 -0.5005
  934MOL0     N25972   3.290   6.029   5.832  0.6576  0.1819 -0.3575
  934MOL0     C25973   3.420   6.031   5.846 -0.0740  0.4244 -0.3137
  934MOL0     C25974   3.455   5.947   5.948  0.1786 -1.4913 -0.4251
  934MOL0     C25975   3.602   5.930   5.991  0.4328  0.0028  0.8960
  934MOL0     C25976   3.607   5.841   6.101 -0.4719  0.2654  0.5825
  934MOL0     C25977   3.581   5.681   6.059 -0.1960 -0.4589 -0.2759
  934MOL0     C25978   3.592   5.603   6.196  1.2466 -1.3947 -0.4589
  934MOL0     O25979   3.710   5.523   6.211 -0.2675  0.2181 -0.0034
  934MOL0     C25980   3.713   5.408   6.130 -0.6104 -0.1419 -0.1408
  934MOL0     C25981   3.823   5.330   6.120 -0.5708  0.4435  0.3515
  934MOL0     C25982   3.834   5.221   6.038  0.3615  0.0916 -0.7742
  934MOL0     C25983   3.732   5.184   5.947 -0.1475  0.8388 -0.0932
  934MOL0     C25984   3.735   5.059   5.859  0.9035 -1.3429  0.5155
  934MOL0     O25985   3.840   4.970   5.872  0.1107 -0.5558  0.2625
  934MOL0     C25986   3.839   4.874   5.785 -0.6544  0.6379  0.6585
  934MOL0     C25987   3.789   4.747   5.813 -0.0076  0.6092 -0.3323
  934MOL0     C25988   3.791   4.641   5.711 -0.2454 -0.1740  0.5548
  934MOL0     C25989   3.851   4.656   5.581  0.1132 -0.5470 -0.4330
  934MOL0     O25990   3.846   4.577   5.461  0.5737 -0.4835 -0.4333
  934MOL0     C25991   3.776   4.459   5.476  0.3521  0.1981  0.8538
  934MOL0     C25992   3.768   4.397   5.334 -0.4691  0.2722  0.0105
  934MOL0     C25993   3.913   4.391   5.261  1.4194  0.6968 -0.2586
  934MOL0     C25994   3.917   4.283   5.155 -0.7616  0.7289  0.3153
  934MOL0     C25995   4.065   4.247   5.119 -0.2791  0.2585 -0.0845
  934MOL0     C25996   4.088   4.161   4.987  0.2110 -0.7455  0.0014
  934MOL0     C25997   4.226   4.107   4.995  0.3328 -0.1886 -0.0668
  934MOL0     C25998   4.267   4.016   4.881  0.3735  0.8255 -0.7054
  934MOL0    Cl25999   4.379   3.889   4.912  0.4412 -0.0461  0.3148
  934MOL0     C26000   3.923   4.774   5.569 -0.4898 -0.1657  0.3160
  934MOL0     C26001   3.906   4.887   5.662 -0.2552 -0.8430  0.3988
  934MOL0     O26002   3.651   5.059   5.769  0.3061 -0.2808  0.2498
  934MOL0     C26003   3.623   5.271   5.950  0.4575 -0.1352 -0.1863
  934MOL0     C26004   3.607   5.369   6.043  1.0708  0.0246  0.1226
  934MOL0     N26005   3.337   5.882   5.992 -1.0460 -0.2428 -0.0922
  934MOL0     N26006   3.238   5.930   5.916  0.1664 -0.4047 -0.1010
  934MOL0     C26007   2.297   6.120   5.679  0.4463 -0.8906  0.1454
  934MOL0     C26008   2.271   6.257   5.712  0.5632  0.8042  0.1074
  934MOL0     C26009   2.260   6.680   5.820 -0.6070 -0.4722 -0.8102
  934MOL0     C26010   2.125   6.687   5.866 -0.5215  0.3751 -0.3439
  934MOL0     C26011   2.058   6.808   5.881  0.2709  0.1369  0.1436
  934MOL0     C26012   2.139   6.923   5.883 -0.4005 -0.7750 -0.0267
  934MOL0     O26013   2.101   7.041   5.934 -0.1724 -0.3746 -0.2995
  934MOL0     C26014   2.050   7.138   5.837  0.4878  0.5854 -0.3761
  934MOL0     C26015   2.169   7.229   5.790  0.2986  0.2344  0.7589
  934MOL0     C26016   2.116   7.364   5.745 -0.1703  0.7235 -0.6327
  934MOL0     C26017   2.018   7.358   5.624  0.1778  0.1327  0.0528
  934MOL0     C26018   2.005   7.494   5.572 -0.2283  0.0533  0.0162
  934MOL0     C26019   2.016   7.610   5.529 -0.0590  0.3279  0.3888
  934MOL0     C26020   2.271   6.918   5.837 -0.7827 -0.1951 -0.1312
  934MOL0     C26021   2.337   6.802   5.800  0.6488  0.1339  0.5055
  934MOL0     C26022   2.487   6.802   5.766  0.3417 -1.1249  0.2138
  934MOL0     H26023   2.408   6.282   6.016 -0.5997  1.3784 -0.5906
  934MOL0     H26024   2.474   6.039   5.951  0.3025  0.0155  0.3578
  934MOL0     H26025   2.500   5.844   5.873 -0.9710 -1.7397 -0.9737
  934MOL0     H26026   2.450   5.741   5.743  1.6935 -0.7961 -1.3264
  934MOL0     H26027   2.601   5.824   5.584 -3.5272 -2.3407  1.1416
  934MOL0     H26028   2.687   5.750   5.707 -2.0609 -1.3137 -0.2632
  934MOL0     H26029   2.730   5.990   5.813  1.1014 -0.3424  1.2253
  934MOL0     H26030   2.678   6.055   5.663  0.6477  1.4902  1.7835
  934MOL0     H26031   2.940   5.920   5.716  0.9474 -0.1828 -1.1726
  934MOL0     H26032   2.874   5.898   5.548 -0.3217  1.5131 -1.0523
  934MOL0     H26033   2.868   6.156   5.531 -0.2804  2.6412  1.9391
  934MOL0     H26034   2.930   6.176   5.683 -1.7528  0.7736 -0.7693
  934MOL0     H26035   3.052   6.060   5.437  4.3840  0.3262  0.2345
  934MOL0     H26036   3.093   6.216   5.507 -0.1412  0.8858 -0.9880
  934MOL0     H26037   3.275   6.058   5.550  1.3615 -0.4357  1.1615
  934MOL0     H26038   3.159   5.948   5.636 -2.8716  0.3275  0.8114
  934MOL0     H26039   3.265   6.210   5.721  0.2925  0.7213  3.5939
  934MOL0     H26040   3.119   6.142   5.805  0.0886  1.0316 -1.2258
  934MOL0     H26041   3.488   6.096   5.793 -1.8284 -0.2298 -3.6424
  934MOL0     H26042   3.660   5.887   5.908 -1.8397 -2.0385  0.2427
  934MOL0     H26043   3.634   6.031   6.017 -0.8340  0.4275  0.8701
  934MOL0     H26044   3.702   5.855   6.155  0.9671 -0.5327 -1.6131
  934MOL0     H26045   3.526   5.874   6.167  2.1318  3.3356  2.5729
  934MOL0     H26046   3.663   5.647   5.995 -0.0109 -1.2707  0.3768
  934MOL0     H26047   3.483   5.668   6.013 -0.3894 -1.0115  0.2758
  934MOL0     H26048   3.500   5.553   6.229  0.3220 -0.0489 -0.9326
  934MOL0     H26049   3.595   5.672   6.281  0.3573 -1.9295  0.0349
  934MOL0     H26050   3.907   5.347   6.187 -0.2144  0.9256 -0.1978
  934MOL0     H26051   3.928   5.169   6.051  0.8357  1.3818  1.8254
  934MOL0     H26052   3.721   4.737   5.897 -5.7787 -0.2480 -4.5028
  934MOL0     H26053   3.747   4.544   5.731  0.8659 -0.2574  2.8879
  934MOL0     H26054   3.835   4.392   5.539  1.7986  0.0645 -0.5708
  934MOL0     H26055   3.668   4.465   5.494 -0.4438  1.2370 -3.2385
  934MOL0     H26056   3.718   4.301   5.351 -0.1804 -0.1738 -1.5209
  934MOL0     H26057   3.704   4.459   5.271  0.7782  0.1722 -1.4067
  934MOL0     H26058   3.937   4.490   5.221  4.2092  1.0814  2.0558
  934MOL0     H26059   3.990   4.365   5.334  1.5056 -1.2664 -0.9987
  934MOL0     H26060   3.864   4.309   5.063  1.3656 -0.3541 -1.3268
  934MOL0     H26061   3.873   4.190   5.190  3.1601 -1.4013  0.1772
  934MOL0     H26062   4.093   4.190   5.209 -1.7686 -2.0846 -1.0027
  934MOL0     H26063   4.128   4.335   5.124  2.0924 -1.3910  1.0498
  934MOL0     H26064   4.023   4.076   4.966 -0.3364 -0.9019  2.1059
  934MOL0     H26065   4.087   4.224   4.897  4.2084  2.3906  1.8289
  934MOL0     H26066   4.228   4.049   5.088  2.1716  0.4255  0.3203
  934MOL0     H26067   4.306   4.181   4.997  0.0872  0.1543 -1.8299
  934MOL0     H26068   4.178   3.972   4.837  1.4106 -1.1092 -0.9674
  934MOL0     H26069   4.324   4.075   4.808  0.4804  0.2046 -1.1277
  934MOL0     H26070   3.991   4.794   5.487 -0.0288  2.8727  1.3104
  934MOL0     H26071   3.957   4.981   5.643  0.5661 -1.3003  0.3342
  934MOL0     H26072   3.536   5.259   5.886 -0.5482  3.0398  0.3699
  934MOL0     H26073   3.510   5.416   6.049 -0.7276 -3.5428  2.3864
  934MOL0     H26074   2.281   6.071   5.583  1.2570 -3.2142  1.1155
  934MOL0     H26075   2.218   6.313   5.635  3.1968  1.7084 -1.1751
  934MOL0     H26076   2.057   6.603   5.867 -0.8596  0.6216 -1.4231
  934MOL0     H26077   1.954   6.811   5.914  0.7697  0.3338  1.7682
  934MOL0     H26078   1.973   7.205   5.876  0.3971  0.3900 -0.2120
  934MOL0     H26079   2.001   7.080   5.758  1.2766  0.2128 -0.5976
  934MOL0     H26080   2.216   7.189   5.699 -1.1763  2.8287 -1.2842
  934MOL0     H26081   2.248   7.238   5.865  0.8829 -0.1940  0.2097
  934MOL0     H26082   2.198   7.433   5.724  0.9270  0.2023  1.6550
  934MOL0     H26083   2.067   7.422   5.824  0.5821  2.7361 -1.5649
  934MOL0     H26084   2.063   7.284   5.558 -4.6365 -1.6188 -1.6625
  934MOL0     H26085   1.917   7.322   5.647 -0.2463 -2.0447 -4.3458
  934MOL0     H26086   2.014   7.708   5.485 -1.7847  0.2265  0.1771
  934MOL0     H26087   2.316   7.016   5.832 -0.9207  0.3806  4.8998
  934MOL0     H26088   2.531   6.762   5.858 -0.5455 -0.0260  1.1411
  934MOL0     H26089   2.516   6.751   5.674  0.3197  0.9319 -0.9888
  934MOL0     H26090   2.514   6.907   5.752 -1.4048 -0.8591 -1.5198
  935MOL0     O26091   7.252   8.125   2.167 -0.0450 -0.0744  0.0711
  935MOL0     C26092   7.353   8.179   2.120 -0.0377 -0.0271 -0.0317
  935MOL0     O26093   7.476   8.129   2.145  0.1314  0.5760 -0.0818
  935MOL0     C26094   7.503   8.034   2.242 -0.7342 -0.4489  0.9582
  935MOL0     C26095   7.420   8.010   2.358 -0.5676 -0.4700  0.1605
  935MOL0     C26096   7.448   7.904   2.447 -0.4400 -0.4669  0.2119
  935MOL0     C26097   7.554   7.824   2.437 -0.1944 -0.2494 -0.1882
  935MOL0     O26098   7.582   7.723   2.525  0.0349  0.1515  0.1803
  935MOL0     C26099   7.528   7.721   2.659  0.3605  0.2917  0.1544
  935MOL0     C26100   7.637   7.655   2.752 -0.1551 -0.1442  0.6199
  935MOL0     C26101   7.569   7.580   2.873 -0.1027 -0.8775  1.6118
  935MOL0     C26102   7.482   7.666   2.956  1.0955  0.4385 -0.1897
  935MOL0     C26103   7.439   7.584   3.074 -0.0617  0.1425 -0.7812
  935MOL0     C26104   7.319   7.490   3.040  0.3701 -0.5179  0.8314
  935MOL0     C26105   7.289   7.378   3.144  0.4882  0.0609  0.2805
  935MOL0     C26106   7.370   7.254   3.102 -0.8411  0.2594 -0.7421
  935MOL0     N26107   7.347   7.151   3.202  0.5863  0.3114 -1.0816
  935MOL0     C26108   7.443   7.084   3.272 -0.1996 -0.0836  0.0931
  935MOL0     C26109   7.392   6.960   3.295  0.1338  0.1141 -0.1186
  935MOL0     C26110   7.473   6.835   3.330  0.8003 -0.6793  0.0865
  935MOL0     C26111   7.578   6.859   3.454  0.2188 -0.1630  0.1470
  935MOL0     C26112   7.633   6.731   3.525  0.1486 -0.8945 -0.1750
  935MOL0     C26113   7.643   6.593   3.448 -0.0421 -0.5646 -0.2119
  935MOL0     O26114   7.691   6.610   3.315 -1.3876 -0.6308  1.4431
  935MOL0     C26115   7.810   6.672   3.309  0.0063 -0.6249  0.0525
  935MOL0     C26116   7.932   6.625   3.363  0.7232  0.5913 -0.4724
  935MOL0     C26117   8.051   6.688   3.347 -1.1269 -0.2863  1.0869
  935MOL0     C26118   8.059   6.807   3.272  0.7921 -0.1492  0.2272
  935MOL0     C26119   8.181   6.883   3.250  0.7398  0.6746 -0.0630
  935MOL0     O26120   8.288   6.809   3.284 -0.2665  0.2802 -0.1531
  935MOL0     C26121   8.410   6.862   3.263 -0.1157  0.2201  0.7291
  935MOL0     C26122   8.466   6.956   3.362 -0.7088  0.4869  0.1624
  935MOL0     C26123   8.579   7.035   3.322  0.5032  0.4438  0.0859
  935MOL0     C26124   8.648   7.012   3.199  0.2493  0.3279 -0.6080
  935MOL0     O26125   8.770   7.085   3.180  0.9699 -0.1164  1.0162
  935MOL0     C26126   8.754   7.223   3.140  0.0227  1.2454  0.6961
  935MOL0     C26127   8.895   7.289   3.133  0.0311 -0.8995  0.7598
  935MOL0     C26128   8.895   7.435   3.109  0.3116 -0.3727 -0.4855
  935MOL0     C26129   8.867   7.469   2.960 -0.3776  0.5112  0.0581
  935MOL0     C26130   8.876   7.634   2.945  0.4283  0.1806  0.3207
  935MOL0     C26131   8.858   7.686   2.800  0.2480 -0.6623 -0.2697
  935MOL0     C26132   8.951   7.632   2.696  0.2239  0.1585  0.7498
  935MOL0     C26133   8.936   7.698   2.558 -0.0275  0.0931  0.3651
  935MOL0    Cl26134   8.949   7.575   2.423  0.4642 -0.5275 -0.0815
  935MOL0     C26135   8.603   6.905   3.120  0.3225 -1.0556  1.0393
  935MOL0     C26136   8.481   6.832   3.142  0.4030 -0.3014 -0.0731
  935MOL0     O26137   8.183   6.990   3.192  0.8625 -0.4232  0.8106
  935MOL0     C26138   7.939   6.849   3.207 -0.8173 -0.6027 -0.2227
  935MOL0     C26139   7.822   6.778   3.218  0.6214  1.0613  1.2205
  935MOL0     N26140   7.264   6.944   3.243  0.3067  0.4511 -0.9147
  935MOL0     N26141   7.245   7.059   3.194  0.1228  0.6627  0.3054
  935MOL0     C26142   7.639   7.842   2.329  0.5725  0.4381  0.1193
  935MOL0     C26143   7.618   7.954   2.244 -0.1123  0.8532 -0.4433
  935MOL0     C26144   7.332   8.279   2.006  0.5007 -0.5364  0.4917
  935MOL0     C26145   7.205   8.321   1.965  0.5475 -0.8375  0.2005
  935MOL0     C26146   7.179   8.416   1.864  0.2126  0.8619  0.6973
  935MOL0     C26147   7.291   8.467   1.801 -0.7976 -0.1896  0.9621
  935MOL0     O26148   7.254   8.543   1.703 -0.8790 -0.3316  0.4891
  935MOL0     C26149   7.316   8.543   1.574 -0.8221 -1.1579 -0.0910
  935MOL0     C26150   7.261   8.668   1.507 -0.4583 -0.3219  0.2321
  935MOL0     C26151   7.352   8.796   1.551  0.5323 -0.6348  0.3552
  935MOL0     C26152   7.289   8.932   1.529  0.4826  0.6128 -0.2369
  935MOL0     C26153   7.375   9.030   1.573  0.5552 -0.8351  1.0485
  935MOL0     C26154   7.465   9.104   1.600  0.4513  0.0155 -0.4324
  935MOL0     C26155   7.421   8.436   1.837 -0.4078 -0.1771  0.4164
  935MOL0     C26156   7.450   8.343   1.941  0.1368  0.0189  0.4340
  935MOL0     C26157   7.600   8.316   1.975  0.6924 -0.1831  0.0701
  935MOL0     H26158   7.326   8.064   2.362 -0.5591 -0.3031 -1.3439
  935MOL0     H26159   7.379   7.886   2.529 -3.2692  2.3233 -1.3118
  935MOL0     H26160   7.502   7.820   2.699  0.0393 -0.5368  2.1066
  935MOL0     H26161   7.434   7.665   2.669  0.7178 -0.2992  0.2234
  935MOL0     H26162   7.711   7.720   2.799 -0.3497 -0.9889  2.1751
  935MOL0     H26163   7.686   7.579   2.689 -0.7216  0.7701 -0.9655
  935MOL0     H26164   7.644   7.532   2.937 -0.1927 -0.7725  1.7987
  935MOL0     H26165   7.509   7.494   2.842 -0.0195  0.3960 -2.7262
  935MOL0     H26166   7.540   7.750   2.996  2.9428 -0.9057  0.1197
  935MOL0     H26167   7.394   7.699   2.901  2.0263  2.0435 -0.7896
  935MOL0     H26168   7.516   7.519   3.115 -1.9105 -1.6689 -0.0024
  935MOL0     H26169   7.398   7.648   3.152  4.5472  0.1173  2.0415
  935MOL0     H26170   7.231   7.555   3.045  2.2375  2.1939  0.9039
  935MOL0     H26171   7.332   7.442   2.943  2.8846  2.9390 -0.7438
  935MOL0     H26172   7.182   7.359   3.139  0.3763 -0.5309  3.2604
  935MOL0     H26173   7.313   7.404   3.248 -0.6723 -2.4152  1.2317
  935MOL0     H26174   7.342   7.232   2.999 -0.7366  1.6506 -1.0945
  935MOL0     H26175   7.479   7.266   3.106 -0.7986  0.9710 -2.7931
  935MOL0     H26176   7.547   7.116   3.271 -0.3992  0.5982  0.3670
  935MOL0     H26177   7.398   6.760   3.360 -0.4156  1.4624  2.9146
  935MOL0     H26178   7.530   6.802   3.243  0.2508 -2.0159  0.2005
  935MOL0     H26179   7.660   6.910   3.403 -2.0280  0.8152 -2.7661
  935MOL0     H26180   7.550   6.922   3.539 -2.3004  0.3362 -0.9750
  935MOL0     H26181   7.577   6.717   3.617 -1.2201  4.0439  0.0228
  935MOL0     H26182   7.736   6.751   3.554  0.7392 -1.6352 -1.6301
  935MOL0     H26183   7.549   6.540   3.433  0.2928 -0.4708 -3.3531
  935MOL0     H26184   7.693   6.516   3.507  0.1054 -0.6168 -0.4074
  935MOL0     H26185   7.924   6.535   3.423 -1.8960  0.8406 -0.3200
  935MOL0     H26186   8.145   6.664   3.396 -0.0431 -0.3749 -0.9348
  935MOL0     H26187   8.420   6.968   3.460  1.1176 -0.9243  1.2449
  935MOL0     H26188   8.593   7.131   3.371  1.8581  2.7736 -4.2655
  935MOL0     H26189   8.704   7.238   3.044 -0.2153  0.5748  0.7141
  935MOL0     H26190   8.682   7.264   3.212 -0.2245 -2.5320  2.8676
  935MOL0     H26191   8.963   7.272   3.217  2.1275  2.0610 -0.1779
  935MOL0     H26192   8.951   7.249   3.048  0.9141  1.9781 -0.1319
  935MOL0     H26193   8.817   7.490   3.162 -0.2647  0.3718 -2.0506
  935MOL0     H26194   8.992   7.469   3.147  0.6818 -1.5733 -0.3012
  935MOL0     H26195   8.767   7.434   2.931  0.2222 -1.6057  0.3730
  935MOL0     H26196   8.942   7.421   2.897 -0.4318  0.9186 -0.3191
  935MOL0     H26197   8.979   7.656   2.974  0.2164  1.2304  0.3066
  935MOL0     H26198   8.807   7.684   3.014 -0.2810 -1.2986  0.7518
  935MOL0     H26199   8.750   7.680   2.785  0.4589 -0.0202 -2.4494
  935MOL0     H26200   8.893   7.787   2.824  2.1161 -0.3937 -3.5025
  935MOL0     H26201   8.921   7.528   2.677 -0.0667  0.7221 -2.2835
  935MOL0     H26202   9.057   7.635   2.721  0.1935 -1.7678  1.2906
  935MOL0     H26203   8.850   7.763   2.540  0.6072 -0.0102 -4.4962
  935MOL0     H26204   9.028   7.758   2.550  0.3320 -0.5992 -1.3664
  935MOL0     H26205   8.654   6.881   3.027  0.2645 -1.8701  1.2101
  935MOL0     H26206   8.441   6.752   3.081  0.4883 -0.3197 -0.1044
  935MOL0     H26207   7.939   6.930   3.135 -0.6105 -1.6412 -1.4323
  935MOL0     H26208   7.740   6.816   3.158  0.9789 -1.9580 -1.4657
  935MOL0     H26209   7.730   7.784   2.326  1.1977  1.3733  0.4561
  935MOL0     H26210   7.688   7.969   2.162 -0.6586 -0.1357 -1.1147
  935MOL0     H26211   7.119   8.290   2.024 -1.5375  2.1502 -1.0150
  935MOL0     H26212   7.080   8.429   1.821 -0.8150  2.0567  3.2271
  935MOL0     H26213   7.285   8.460   1.510 -0.2518 -1.9789  0.6834
  935MOL0     H26214   7.424   8.552   1.563 -1.0146  2.9598 -0.0413
  935MOL0     H26215   7.155   8.683   1.530 -0.4188 -0.4807  0.5245
  935MOL0     H26216   7.269   8.659   1.398 -2.7271 -2.0549  0.1289
  935MOL0     H26217   7.452   8.777   1.511  1.0021 -0.0086  1.1886
  935MOL0     H26218   7.363   8.775   1.658  0.1272 -3.5563 -0.1053
  935MOL0     H26219   7.267   8.941   1.422 -2.4642  2.3359  0.3950
  935MOL0     H26220   7.190   8.921   1.574  1.2887  2.5436  2.2696
  935MOL0     H26221   7.558   9.151   1.628  0.0549  0.2797  0.4854
  935MOL0     H26222   7.504   8.498   1.807  0.5596  0.4057  3.9014
  935MOL0     H26223   7.627   8.216   1.937 -2.9349 -0.5161 -2.0736
  935MOL0     H26224   7.649   8.401   1.926 -0.6647 -0.2298 -1.4665
  935MOL0     H26225   7.624   8.320   2.081 -3.9616  2.7211  1.2791
  936MOL0     O26226  10.566  10.034   4.053  0.5690 -0.1267  0.1308
  936MOL0     C26227  10.558   9.991   3.939 -0.2282 -0.1817  0.2564
  936MOL0     O26228  10.443   9.930   3.882 -0.0829 -0.9150  0.0679
  936MOL0     C26229  10.336   9.931   3.959  0.5422 -0.0863  0.3538
  936MOL0     C26230  10.254  10.049   3.973  0.3644 -0.0448  0.0452
  936MOL0     C26231  10.153  10.032   4.071  0.7729 -0.5342  1.1308
  936MOL0     C26232  10.119   9.923   4.137 -1.3543  0.1105  0.4982
  936MOL0     O26233  10.022   9.904   4.228  0.1521  0.4680  0.0006
  936MOL0     C26234   9.974  10.017   4.305 -0.4929  0.0738  0.6897
  936MOL0     C26235   9.860   9.976   4.399  0.3866 -0.4497 -0.2773
  936MOL0     C26236   9.883   9.904   4.536  0.2756 -0.2372 -0.4342
  936MOL0     C26237   9.909   9.760   4.504  0.1090  0.8815  0.0623
  936MOL0     C26238   9.911   9.670   4.627 -0.1318  0.1843  0.1423
  936MOL0     C26239  10.009   9.716   4.737 -0.5831  0.3640  0.4689
  936MOL0     C26240  10.037   9.607   4.849 -0.0782  1.0097  0.7766
  936MOL0     C26241   9.917   9.557   4.924 -0.1386 -0.8781 -0.5373
  936MOL0     N26242   9.970   9.460   5.028 -0.4334  1.5576 -0.0775
  936MOL0     C26243  10.063   9.482   5.124 -0.1986 -0.0002  0.0790
  936MOL0     C26244  10.071   9.374   5.202  0.3200  0.9613 -0.4246
  936MOL0     C26245  10.150   9.345   5.321  0.3748 -0.7490  0.2705
  936MOL0     C26246  10.280   9.255   5.282  0.4111  0.1746 -0.5792
  936MOL0     C26247  10.349   9.199   5.405  0.5489  0.1429  0.5031
  936MOL0     C26248  10.485   9.153   5.352 -0.6388  0.2916 -0.1608
  936MOL0     O26249  10.560   9.115   5.457 -0.0114  0.4474  0.5490
  936MOL0     C26250  10.578   8.980   5.462  0.7079 -0.4769  0.3726
  936MOL0     C26251  10.687   8.922   5.400  1.1132  0.9809 -0.3893
  936MOL0     C26252  10.704   8.780   5.400  0.0800  0.5396 -0.8339
  936MOL0     C26253  10.603   8.700   5.462  0.3975 -0.5378  0.8527
  936MOL0     C26254  10.621   8.554   5.472 -0.0079 -0.0556 -0.2083
  936MOL0     O26255  10.537   8.481   5.549 -0.5079 -0.3850 -0.1114
  936MOL0     C26256  10.552   8.344   5.522  0.4482  0.9314  0.9495
  936MOL0     C26257  10.455   8.265   5.465 -0.4919 -0.5365  0.8997
  936MOL0     C26258  10.466   8.129   5.453  0.9454 -0.3832 -0.3115
  936MOL0     C26259  10.573   8.058   5.502  0.1243  0.0116  0.3760
  936MOL0     O26260  10.596   7.919   5.495 -0.3146  0.0512 -0.5751
  936MOL0     C26261  10.538   7.847   5.383  0.3525  0.9775 -0.0242
  936MOL0     C26262  10.455   7.733   5.443  0.3040 -0.3804  0.2536
  936MOL0     C26263  10.385   7.645   5.342  0.3428 -0.1941  0.1166
  936MOL0     C26264  10.463   7.522   5.313 -0.1297 -0.5089  0.2004
  936MOL0     C26265  10.419   7.443   5.190  0.6140  0.3557  0.8110
  936MOL0     C26266  10.460   7.290   5.201 -0.1823 -0.8019 -0.2119
  936MOL0     C26267  10.434   7.201   5.080  0.4915  1.0839 -0.8759
  936MOL0     C26268  10.437   7.050   5.108 -0.8108 -1.0846  0.0986
  936MOL0    Cl26269  10.321   7.000   5.230  0.0680  0.2080  0.2159
  936MOL0     C26270  10.670   8.134   5.556  0.1082 -0.5250 -0.3662
  936MOL0     C26271  10.662   8.268   5.575 -0.5544  0.3856 -0.0723
  936MOL0     O26272  10.725   8.513   5.423  0.6888 -0.8700 -0.0252
  936MOL0     C26273  10.498   8.760   5.533 -0.5426  0.2510  1.0518
  936MOL0     C26274  10.486   8.902   5.525 -0.2713 -0.0649 -0.0960
  936MOL0     N26275   9.995   9.269   5.146  0.1029 -0.2012  0.4105
  936MOL0     N26276   9.931   9.327   5.044 -0.3141  0.2969 -0.9574
  936MOL0     C26277  10.197   9.813   4.117 -0.0361  1.0100  0.4528
  936MOL0     C26278  10.313   9.812   4.033 -1.2204 -0.2385 -0.7520
  936MOL0     C26279  10.682  10.013   3.854  0.8442  0.4622 -0.1714
  936MOL0     C26280  10.798  10.038   3.934  0.5579  0.2647  0.9184
  936MOL0     C26281  10.918  10.079   3.866  0.5638 -0.5969  0.0899
  936MOL0     C26282  10.923  10.094   3.720 -0.5048  0.4385 -0.6161
  936MOL0     O26283  11.042  10.116   3.656 -0.2747 -0.0132 -0.6157
  936MOL0     C26284  11.038  10.184   3.532  0.1553 -1.3155 -0.1604
  936MOL0     C26285  11.181  10.187   3.473  0.0944 -0.2542 -0.0137
  936MOL0     C26286  11.245  10.048   3.440 -0.6693 -0.3361 -0.0737
  936MOL0     C26287  11.342  10.070   3.328 -0.8261  0.6046  0.5005
  936MOL0     C26288  11.370   9.942   3.263 -0.2221  0.6922 -0.0961
  936MOL0     C26289  11.386   9.834   3.217  0.2736 -0.3705 -0.6528
  936MOL0     C26290  10.806  10.049   3.653 -0.4269  0.1906  0.3077
  936MOL0     C26291  10.689  10.014   3.716  0.1930 -0.4676 -0.3136
  936MOL0     C26292  10.570   9.991   3.627 -0.2073 -0.0047  0.1348
  936MOL0     H26293  10.269  10.137   3.911 -0.2752  1.2409  1.6100
  936MOL0     H26294  10.092  10.119   4.094  2.4780  0.9896  0.1348
  936MOL0     H26295  10.056  10.069   4.355  0.6827 -0.1525 -0.9312
  936MOL0     H26296   9.943  10.093   4.232 -0.0953 -1.1245 -0.7925
  936MOL0     H26297   9.787   9.914   4.345 -2.0051  0.3001  1.9032
  936MOL0     H26298   9.829  10.079   4.419 -2.7735 -1.1620 -0.9426
  936MOL0     H26299   9.803   9.895   4.610  1.8373 -4.6558  1.0917
  936MOL0     H26300   9.971   9.942   4.589 -0.4062  0.0751  0.4959
  936MOL0     H26301   9.843   9.727   4.424 -0.8100  0.8131  0.8347
  936MOL0     H26302  10.014   9.759   4.473 -0.0344 -3.2684 -0.8659
  936MOL0     H26303   9.809   9.669   4.665 -1.0807 -1.4194 -2.1670
  936MOL0     H26304   9.940   9.569   4.594  2.2234  0.5734  0.7943
  936MOL0     H26305  10.106   9.714   4.685 -0.6720 -2.0908  0.2610
  936MOL0     H26306   9.986   9.816   4.774  1.3571  1.1889 -0.4208
  936MOL0     H26307  10.096   9.659   4.925  1.5807 -1.7854  1.5274
  936MOL0     H26308  10.098   9.527   4.807  0.1963  2.3976 -1.6341
  936MOL0     H26309   9.860   9.637   4.971  2.2030  1.4328 -1.4326
  936MOL0     H26310   9.849   9.513   4.850  0.4195 -0.9544 -1.0129
  936MOL0     H26311  10.105   9.582   5.136 -0.3049  0.1343 -0.6580
  936MOL0     H26312  10.197   9.425   5.380  0.2640 -0.0763 -0.5389
  936MOL0     H26313  10.081   9.302   5.394 -1.1627 -0.4687 -0.9674
  936MOL0     H26314  10.251   9.177   5.211 -0.0724  1.2402 -1.5631
  936MOL0     H26315  10.349   9.322   5.230  0.7460  1.5504  1.4991
  936MOL0     H26316  10.299   9.106   5.433 -1.6083  1.3942  1.0144
  936MOL0     H26317  10.360   9.277   5.481 -0.7347  0.5449  0.2959
  936MOL0     H26318  10.542   9.232   5.302 -1.4998  0.4113 -1.0025
  936MOL0     H26319  10.468   9.076   5.276 -1.0479  3.5260 -3.6403
  936MOL0     H26320  10.761   8.977   5.343  0.9887 -1.7742 -3.5465
  936MOL0     H26321  10.795   8.735   5.362  0.4288 -0.8550  1.4800
  936MOL0     H26322  10.370   8.324   5.429 -1.4545 -3.2770 -1.7757
  936MOL0     H26323  10.385   8.083   5.399  0.0175  2.3297 -1.4069
  936MOL0     H26324  10.468   7.917   5.335 -0.9281  1.3188  2.1807
  936MOL0     H26325  10.608   7.791   5.320  1.4581  2.7925 -0.4920
  936MOL0     H26326  10.509   7.673   5.517 -0.7900 -1.3028  0.3343
  936MOL0     H26327  10.386   7.788   5.508  0.3695  1.1130 -0.8832
  936MOL0     H26328  10.287   7.609   5.374 -0.2264 -3.6010 -4.5016
  936MOL0     H26329  10.378   7.695   5.245  3.8896 -0.1527 -0.2554
  936MOL0     H26330  10.455   7.456   5.400 -6.9745  0.4583  0.8177
  936MOL0     H26331  10.567   7.557   5.311 -0.4481  0.4260 -0.7331
  936MOL0     H26332  10.458   7.493   5.101 -2.5883  2.9726  0.6761
  936MOL0     H26333  10.312   7.439   5.167  1.2764 -0.7756 -2.6535
  936MOL0     H26334  10.568   7.288   5.212  0.3619 -0.2162 -4.1098
  936MOL0     H26335  10.428   7.245   5.296  0.0301 -3.1377 -1.1938
  936MOL0     H26336  10.501   7.224   4.997 -1.6588  4.9673 -1.7624
  936MOL0     H26337  10.335   7.223   5.041 -0.4897  1.5018  1.6730
  936MOL0     H26338  10.407   6.998   5.017  5.6873 -4.4630 -0.6762
  936MOL0     H26339  10.542   7.022   5.119 -1.4264 -2.9391  2.0370
  936MOL0     H26340  10.761   8.082   5.585 -0.6801 -0.9905  1.4264
  936MOL0     H26341  10.736   8.325   5.631 -1.3472  0.5198  0.8531
  936MOL0     H26342  10.420   8.695   5.571 -2.4116  0.1676 -2.4803
  936MOL0     H26343  10.394   8.946   5.563 -1.0716 -0.2821 -1.6770
  936MOL0     H26344  10.161   9.730   4.175 -1.6056  2.0380  1.0160
  936MOL0     H26345  10.372   9.721   4.029  1.1407  0.6612  4.7668
  936MOL0     H26346  10.798  10.047   4.042  0.9263  2.5677  0.7811
  936MOL0     H26347  11.007  10.110   3.920 -0.6096 -1.3199  2.6274
  936MOL0     H26348  10.995  10.284   3.544 -1.5985 -2.1829  1.4360
  936MOL0     H26349  10.966  10.124   3.475 -0.6169 -0.7154  0.1493
  936MOL0     H26350  11.241  10.245   3.544  0.2413 -0.1428 -0.2250
  936MOL0     H26351  11.168  10.252   3.385 -3.9320 -1.2109 -0.3339
  936MOL0     H26352  11.166   9.976   3.418  0.8278 -1.7351 -1.0879
  936MOL0     H26353  11.303  10.019   3.528  0.9005  0.1414 -0.9081
  936MOL0     H26354  11.297  10.136   3.253 -0.7616  2.0246  1.6658
  936MOL0     H26355  11.432  10.121   3.364  0.8504 -1.5534 -0.4247
  936MOL0     H26356  11.389   9.737   3.172  0.5401 -0.8032  0.2620
  936MOL0     H26357  10.814  10.042   3.546  2.1669  1.0466  0.3880
  936MOL0     H26358  10.532   9.888   3.638  0.8810 -0.2160  2.5069
  936MOL0     H26359  10.497  10.066   3.660  1.2228  0.7239  1.7880
  936MOL0     H26360  10.600  10.004   3.523  0.4305  2.6250  0.5909
  937MOL0     O26361   0.661   8.185   1.646 -0.1416  0.6946  0.4259
  937MOL0     C26362   0.759   8.168   1.715  0.7593 -0.1203  0.5669
  937MOL0     O26363   0.791   8.234   1.819 -0.3193 -0.5687 -0.7853
  937MOL0     C26364   0.728   8.352   1.842 -0.1434  0.1191  0.8161
  937MOL0     C26365   0.722   8.452   1.745  0.4798  0.0153  0.5929
  937MOL0     C26366   0.637   8.564   1.766 -0.1273 -0.1662  0.0286
  937MOL0     C26367   0.568   8.581   1.887  0.7302 -0.3745  0.0374
  937MOL0     O26368   0.514   8.707   1.903 -0.4601  0.2910  1.1070
  937MOL0     C26369   0.473   8.749   2.042 -0.7559  0.5549 -0.8886
  937MOL0     C26370   0.597   8.822   2.112 -0.5729  0.2114 -0.6554
  937MOL0     C26371   0.667   8.941   2.049  0.1948  0.3032 -0.7970
  937MOL0     C26372   0.588   9.076   2.033 -0.5602 -0.3849  0.6464
  937MOL0     C26373   0.540   9.131   2.174 -0.3985  0.0802 -0.5413
  937MOL0     C26374   0.488   9.273   2.165  0.5967 -0.3456  0.4733
  937MOL0     C26375   0.469   9.340   2.304 -0.3426 -0.6939 -1.0704
  937MOL0     C26376   0.594   9.412   2.334 -1.2171 -0.1520  0.0114
  937MOL0     N26377   0.586   9.447   2.478  0.0188 -0.1009 -0.2634
  937MOL0     C26378   0.693   9.448   2.558 -0.0714 -1.4276 -0.1575
  937MOL0     C26379   0.649   9.502   2.676 -0.2322  0.6410  0.1108
  937MOL0     C26380   0.728   9.520   2.799  0.0619  0.2074  0.4123
  937MOL0     C26381   0.865   9.587   2.759 -0.0458  0.2363  0.5780
  937MOL0     C26382   0.916   9.692   2.861  0.3605 -0.2237  0.1496
  937MOL0     C26383   1.071   9.726   2.866  0.3445  0.6276 -0.4822
  937MOL0     O26384   1.126   9.614   2.935  0.2526  0.0893  0.4224
  937MOL0     C26385   1.120   9.606   3.068 -1.4668  0.5387  1.3275
  937MOL0     C26386   1.186   9.497   3.130  0.0605  0.0067  0.1821
  937MOL0     C26387   1.164   9.480   3.267  0.7700  0.2961  0.0194
  937MOL0     C26388   1.079   9.564   3.345  0.5544  0.3734  0.3413
  937MOL0     C26389   1.057   9.548   3.491  0.3906  0.9790 -0.3495
  937MOL0     O26390   0.986   9.650   3.559 -0.3155  0.1593  0.4044
  937MOL0     C26391   0.968   9.614   3.694  0.3827  0.3570 -0.1426
  937MOL0     C26392   0.878   9.507   3.721  0.2938  0.3973  1.0165
  937MOL0     C26393   0.873   9.468   3.855  0.8854 -0.1405 -0.1670
  937MOL0     C26394   0.950   9.534   3.952  0.6283 -0.9440 -0.7499
  937MOL0     O26395   0.904   9.495   4.081  0.2413 -0.5249 -0.4264
  937MOL0     C26396   1.005   9.505   4.186 -0.4210 -0.3620 -0.3346
  937MOL0     C26397   0.907   9.530   4.304  0.3504  1.2834 -0.5853
  937MOL0     C26398   0.867   9.403   4.380 -0.7807 -0.2551 -0.2529
  937MOL0     C26399   0.778   9.303   4.298  0.4972  0.6481  0.7095
  937MOL0     C26400   0.728   9.184   4.382  0.2102  0.3569 -1.0586
  937MOL0     C26401   0.632   9.081   4.321  0.2818 -0.3858 -0.2051
  937MOL0     C26402   0.702   8.979   4.231  0.1906  0.0318  1.0505
  937MOL0     C26403   0.600   8.889   4.152 -0.1090 -0.1220 -0.8964
  937MOL0    Cl26404   0.503   8.987   4.045  0.1029  0.0429 -0.1355
  937MOL0     C26405   1.027   9.648   3.924 -0.4956  0.5999  0.0848
  937MOL0     C26406   1.042   9.685   3.795  0.5330 -0.1544  0.5348
  937MOL0     O26407   1.099   9.441   3.546  0.0341  1.2264 -0.1737
  937MOL0     C26408   1.033   9.675   3.279  0.1477  0.3674 -0.3105
  937MOL0     C26409   1.058   9.701   3.149 -0.1747  0.3471  0.0896
  937MOL0     N26410   0.525   9.548   2.659  0.6779 -0.0035  0.4138
  937MOL0     N26411   0.488   9.519   2.540  0.3300  0.5579  0.5180
  937MOL0     C26412   0.585   8.487   1.985  0.0750 -0.0557 -0.7091
  937MOL0     C26413   0.663   8.368   1.960  0.1653 -0.1937  0.1217
  937MOL0     C26414   0.838   8.049   1.690  0.8335 -0.7490 -0.3868
  937MOL0     C26415   0.904   7.984   1.801 -0.0771 -0.6325  0.6549
  937MOL0     C26416   0.969   7.867   1.770  0.8668  0.1120  0.1233
  937MOL0     C26417   0.969   7.808   1.643  0.8223 -0.2013  0.2977
  937MOL0     O26418   1.038   7.693   1.609 -0.3708  0.1856  0.1566
  937MOL0     C26419   1.104   7.622   1.718 -0.0531  0.7524 -1.1393
  937MOL0     C26420   1.186   7.523   1.636  0.2693  0.5119  0.1181
  937MOL0     C26421   1.224   7.396   1.720 -0.5466 -0.4998  0.2993
  937MOL0     C26422   1.347   7.321   1.650  0.3397  0.1693 -0.1657
  937MOL0     C26423   1.392   7.209   1.730 -0.7439 -0.3643  0.9595
  937MOL0     C26424   1.438   7.104   1.790  0.9684 -0.4729  0.3807
  937MOL0     C26425   0.892   7.865   1.540  0.3370 -0.0275  0.3336
  937MOL0     C26426   0.839   7.990   1.556  0.1052 -0.1627 -0.1450
  937MOL0     C26427   0.791   8.063   1.430  0.3967 -0.3173  0.8126
  937MOL0     H26428   0.777   8.440   1.652 -0.9629 -0.6960 -0.1966
  937MOL0     H26429   0.631   8.641   1.690 -0.2476 -0.9825 -0.8045
  937MOL0     H26430   0.384   8.811   2.027 -2.3767 -0.9256  1.8122
  937MOL0     H26431   0.434   8.664   2.098  3.4425 -1.3569 -0.5263
  937MOL0     H26432   0.669   8.741   2.125  1.1158  1.9592  1.6294
  937MOL0     H26433   0.551   8.857   2.205  0.0877  2.1227 -1.0004
  937MOL0     H26434   0.699   8.924   1.946  0.3037  0.2444 -0.7540
  937MOL0     H26435   0.757   8.963   2.108 -1.2955  0.8358  1.3982
  937MOL0     H26436   0.654   9.150   1.986  0.5833 -1.8955 -0.2245
  937MOL0     H26437   0.502   9.067   1.967 -0.4474 -0.1546  0.4677
  937MOL0     H26438   0.455   9.071   2.208 -0.2921  1.8371  3.4037
  937MOL0     H26439   0.620   9.112   2.247 -0.6091  1.7265  0.1553
  937MOL0     H26440   0.562   9.325   2.104  1.4178 -2.9405 -0.8935
  937MOL0     H26441   0.390   9.279   2.118  0.3833 -3.6471  0.2186
  937MOL0     H26442   0.460   9.252   2.369  1.3431 -0.8228 -0.9781
  937MOL0     H26443   0.385   9.408   2.320  1.7765  1.7566  0.0862
  937MOL0     H26444   0.679   9.346   2.319 -1.1411 -0.0090 -0.1796
  937MOL0     H26445   0.588   9.497   2.266  0.9664  0.5062  0.5826
  937MOL0     H26446   0.793   9.417   2.529 -0.4320 -1.6766 -1.1664
  937MOL0     H26447   0.678   9.589   2.867  2.0666  2.6277 -0.4200
  937MOL0     H26448   0.756   9.426   2.848  0.0717  1.0088  2.0201
  937MOL0     H26449   0.941   9.512   2.733  0.0194  0.1971  0.8787
  937MOL0     H26450   0.850   9.653   2.673 -1.5066  2.4045  2.3812
  937MOL0     H26451   0.888   9.672   2.965 -0.8553 -0.9168 -0.2805
  937MOL0     H26452   0.867   9.787   2.839  4.0163  2.5541  2.8350
  937MOL0     H26453   1.089   9.818   2.922 -0.9087  1.0982 -0.8331
  937MOL0     H26454   1.128   9.745   2.774 -2.1215  3.8810 -1.5379
  937MOL0     H26455   1.234   9.423   3.067 -0.1611  0.1193 -0.1240
  937MOL0     H26456   1.214   9.394   3.311  0.1600 -1.0628 -1.8388
  937MOL0     H26457   0.804   9.470   3.651  0.2677 -2.4628  2.3774
  937MOL0     H26458   0.814   9.382   3.883  2.1902 -1.4969 -1.3911
  937MOL0     H26459   1.056   9.412   4.215  4.2798  1.6209 -1.2262
  937MOL0     H26460   1.086   9.573   4.159  0.2927 -1.2019 -0.3536
  937MOL0     H26461   0.951   9.588   4.385 -1.0644  1.4821  0.0766
  937MOL0     H26462   0.821   9.584   4.262  0.8692  1.2019 -1.8019
  937MOL0     H26463   0.956   9.367   4.431 -0.6283 -2.4199 -1.9021
  937MOL0     H26464   0.805   9.439   4.463  1.8887  0.5370  1.5420
  937MOL0     H26465   0.844   9.272   4.216 -1.8432 -1.2781 -0.5884
  937MOL0     H26466   0.692   9.358   4.257 -0.6214 -0.7203  1.1263
  937MOL0     H26467   0.681   9.235   4.467 -1.1982 -0.5340 -1.2707
  937MOL0     H26468   0.814   9.132   4.425 -2.1827 -2.2350  1.0114
  937MOL0     H26469   0.564   9.032   4.392 -1.6652 -1.9166 -2.9141
  937MOL0     H26470   0.557   9.140   4.267 -0.6501 -0.3024  1.1182
  937MOL0     H26471   0.772   8.916   4.287  0.6776  1.8778  2.6408
  937MOL0     H26472   0.758   9.030   4.152 -1.4892  2.3972  1.2805
  937MOL0     H26473   0.663   8.830   4.084  0.1492 -2.9478  1.5836
  937MOL0     H26474   0.551   8.822   4.222 -0.1276  2.8098  2.1200
  937MOL0     H26475   1.070   9.719   3.994 -0.6829  0.4981  0.3056
  937MOL0     H26476   1.109   9.764   3.761 -0.5173  0.2099 -0.7701
  937MOL0     H26477   0.965   9.748   3.321  2.9198  3.5991 -1.0152
  937MOL0     H26478   1.005   9.786   3.106 -1.6587 -0.4209  0.3341
  937MOL0     H26479   0.558   8.494   2.089  0.6219  0.2995 -0.5877
  937MOL0     H26480   0.674   8.303   2.046 -3.2165 -2.7337 -1.1726
  937MOL0     H26481   0.912   8.029   1.900  2.7649  2.5243 -0.7922
  937MOL0     H26482   1.010   7.820   1.859  0.2107 -0.6887  0.0162
  937MOL0     H26483   1.025   7.571   1.774  2.0115 -1.5528 -0.1270
  937MOL0     H26484   1.165   7.677   1.791 -0.4204 -2.2433  1.6353
  937MOL0     H26485   1.282   7.561   1.600  0.7129 -1.6081 -1.0502
  937MOL0     H26486   1.128   7.485   1.552 -3.1954  0.3761  2.3483
  937MOL0     H26487   1.137   7.331   1.728  0.9239 -2.3052  3.4857
  937MOL0     H26488   1.254   7.418   1.823 -2.8855 -1.2993  1.2289
  937MOL0     H26489   1.312   7.272   1.559 -0.5302  2.8523 -1.3783
  937MOL0     H26490   1.420   7.396   1.619  2.2306 -1.1745  0.8666
  937MOL0     H26491   1.488   7.024   1.841  3.3242 -1.0844 -2.5605
  937MOL0     H26492   0.890   7.814   1.444 -0.7538 -2.4677  1.5538
  937MOL0     H26493   0.685   8.081   1.415  0.6950  0.2125 -0.8254
  937MOL0     H26494   0.836   8.162   1.438  1.8342 -0.8321 -0.3963
  937MOL0     H26495   0.824   8.021   1.335  0.0319  0.4796  0.3311
  938MOL0     O26496   0.535   8.382   5.243 -0.2012 -0.8238  0.4981
  938MOL0     C26497   0.645   8.364   5.194 -0.3598 -0.3286 -0.4004
  938MOL0     O26498   0.700   8.442   5.097  0.3994  0.6142 -0.4459
  938MOL0     C26499   0.658   8.570   5.083  0.0807 -0.4476  0.7264
  938MOL0     C26500   0.531   8.591   5.016 -0.0183 -0.4627 -0.8046
  938MOL0     C26501   0.477   8.711   4.999  0.1890 -0.4445  0.3984
  938MOL0     C26502   0.533   8.824   5.065 -0.5259  1.0063  0.1912
  938MOL0     O26503   0.481   8.947   5.043 -0.0842 -0.4189  0.5350
  938MOL0     C26504   0.462   9.028   5.163  0.3591 -0.5151 -0.0413
  938MOL0     C26505   0.315   9.071   5.153 -0.3452  0.3068 -0.2536
  938MOL0     C26506   0.228   8.952   5.211  0.8450 -0.7004  1.2234
  938MOL0     C26507   0.199   8.968   5.365  0.3471 -0.0224  0.8005
  938MOL0     C26508   0.105   9.077   5.410  0.6790  0.3995 -0.3383
  938MOL0     C26509   0.014   9.024   5.522 -0.0687  0.0555 -0.6273
  938MOL0     C26510  -0.061   9.148   5.592  0.4222  0.0006 -0.4558
  938MOL0     C26511  -0.174   9.102   5.678 -0.4497  0.3472  0.2088
  938MOL0     N26512  -0.221   9.221   5.747 -0.0051 -0.0970  0.1532
  938MOL0     C26513  -0.305   9.334   5.703 -0.0354  0.6243  0.4442
  938MOL0     C26514  -0.292   9.428   5.800 -0.7598 -0.9482  0.6270
  938MOL0     C26515  -0.375   9.552   5.792  0.2558 -0.7640 -0.4463
  938MOL0     C26516  -0.345   9.627   5.663  0.4058 -0.1318 -0.6273
  938MOL0     C26517  -0.192   9.649   5.634  0.0522  0.6279  0.0200
  938MOL0     C26518  -0.169   9.748   5.515  0.3947 -0.4753  1.2878
  938MOL0     O26519  -0.033   9.791   5.532  0.3437  0.4030  0.3393
  938MOL0     C26520   0.071   9.726   5.471 -0.0117 -0.4339 -0.0103
  938MOL0     C26521   0.065   9.597   5.416  0.5086  0.1323 -0.1858
  938MOL0     C26522   0.172   9.548   5.343  0.6425 -0.1821 -0.0582
  938MOL0     C26523   0.297   9.609   5.343  0.2344  0.5103  0.7703
  938MOL0     C26524   0.412   9.535   5.291 -0.2629 -0.6136 -0.5055
  938MOL0     O26525   0.529   9.594   5.312 -0.1947 -0.4555  0.2625
  938MOL0     C26526   0.654   9.532   5.308  0.0918 -0.5371  0.3222
  938MOL0     C26527   0.678   9.396   5.327 -0.2496  0.3055  1.0883
  938MOL0     C26528   0.812   9.348   5.323 -0.1130  0.1484 -0.2609
  938MOL0     C26529   0.915   9.435   5.300 -0.2121  0.1460 -0.2125
  938MOL0     O26530   1.040   9.381   5.318  0.1870 -0.9874 -0.2317
  938MOL0     C26531   1.120   9.444   5.425  0.3332  0.8761  0.0728
  938MOL0     C26532   1.231   9.339   5.449 -0.1031 -0.4210 -0.0865
  938MOL0     C26533   1.340   9.323   5.343 -0.1179 -0.3899  0.2130
  938MOL0     C26534   1.305   9.222   5.227  0.2355 -0.7065 -1.0036
  938MOL0     C26535   1.423   9.172   5.150 -0.0326 -0.7098  0.0284
  938MOL0     C26536   1.493   9.281   5.070  0.7311 -0.8547  0.5605
  938MOL0     C26537   1.572   9.222   4.950 -0.2890 -0.0446  0.3069
  938MOL0     C26538   1.690   9.133   4.991 -0.0318  0.8624 -0.4239
  938MOL0    Cl26539   1.801   9.225   5.099  0.6469  0.0217  0.0322
  938MOL0     C26540   0.884   9.566   5.273 -0.1925  0.5744 -0.2629
  938MOL0     C26541   0.757   9.620   5.276  0.4491  1.0744 -0.0390
  938MOL0     O26542   0.402   9.420   5.254  1.0192 -0.5963 -0.1632
  938MOL0     C26543   0.310   9.735   5.407  0.0465 -1.1643 -0.6536
  938MOL0     C26544   0.195   9.790   5.476 -0.4061  0.0023  0.1995
  938MOL0     N26545  -0.213   9.374   5.900  0.7932 -0.1159 -1.1053
  938MOL0     N26546  -0.169   9.260   5.866 -1.1232  0.0884 -1.0155
  938MOL0     C26547   0.658   8.815   5.127  0.1186  0.7922 -0.4691
  938MOL0     C26548   0.728   8.685   5.120  0.9335 -0.0006  1.0089
  938MOL0     C26549   0.723   8.252   5.242 -0.7658  0.1642  0.3285
  938MOL0     C26550   0.658   8.132   5.292 -0.0765 -0.3529 -0.8268
  938MOL0     C26551   0.727   8.016   5.326 -0.3698 -0.3386 -0.1175
  938MOL0     C26552   0.857   8.007   5.285  0.1030  0.5314 -0.3380
  938MOL0     O26553   0.911   7.895   5.330  1.2734  1.2865  0.5050
  938MOL0     C26554   1.034   7.850   5.263  0.0373  0.1784 -1.0132
  938MOL0     C26555   1.015   7.783   5.131  0.1769  0.1370  0.7758
  938MOL0     C26556   0.958   7.634   5.165 -0.0508  0.6470 -0.5347
  938MOL0     C26557   0.978   7.533   5.044 -0.0903 -0.1244 -0.6973
  938MOL0     C26558   0.983   7.590   4.910  1.1461 -0.4889 -0.6292
  938MOL0     C26559   0.971   7.632   4.795  0.8103  0.3427  0.1317
  938MOL0     C26560   0.927   8.122   5.246 -1.2549 -0.0960 -0.3497
  938MOL0     C26561   0.862   8.247   5.217 -0.4565 -0.4409  0.4348
  938MOL0     C26562   0.957   8.360   5.178  0.0448 -0.0874 -0.9606
  938MOL0     H26563   0.466   8.512   4.979  0.3451 -1.0336 -0.2582
  938MOL0     H26564   0.388   8.727   4.939  1.7289  1.2147 -1.6040
  938MOL0     H26565   0.481   8.981   5.260  1.2301  2.1891  1.2049
  938MOL0     H26566   0.529   9.115   5.169 -1.4817  1.1614 -2.2111
  938MOL0     H26567   0.301   9.092   5.046 -1.0194  1.4150  0.0309
  938MOL0     H26568   0.302   9.164   5.209  1.0816 -0.1076  0.8141
  938MOL0     H26569   0.276   8.858   5.181  0.8357 -0.3387  0.0381
  938MOL0     H26570   0.132   8.958   5.159  1.1548 -1.5339  0.5380
  938MOL0     H26571   0.154   8.872   5.392  1.1402 -0.0657  2.0395
  938MOL0     H26572   0.292   8.961   5.421  0.2992 -1.7061  0.7253
  938MOL0     H26573   0.160   9.163   5.448 -3.7194  2.7763  1.3677
  938MOL0     H26574   0.031   9.104   5.334 -0.0022 -4.5267 -1.8153
  938MOL0     H26575  -0.057   8.947   5.490 -0.1633 -2.2083  4.1653
  938MOL0     H26576   0.070   8.975   5.602 -2.2804  1.8323  2.2094
  938MOL0     H26577  -0.103   9.208   5.511 -0.2040  1.4605  0.8835
  938MOL0     H26578   0.019   9.199   5.647  2.4985 -1.7369 -1.6941
  938MOL0     H26579  -0.247   9.048   5.617  1.5646  0.7983 -2.8007
  938MOL0     H26580  -0.135   9.033   5.753  0.7236  1.6347  0.8250
  938MOL0     H26581  -0.371   9.317   5.618  0.6585  3.1374 -0.6774
  938MOL0     H26582  -0.478   9.518   5.809  0.6404 -1.1507  1.2722
  938MOL0     H26583  -0.356   9.609   5.884 -0.4453  0.6243 -1.1242
  938MOL0     H26584  -0.406   9.580   5.585 -2.8634  2.8316 -0.0998
  938MOL0     H26585  -0.377   9.731   5.672  4.3001  1.1903 -0.3192
  938MOL0     H26586  -0.148   9.554   5.603 -3.7691 -0.2484 -3.8264
  938MOL0     H26587  -0.148   9.692   5.724  1.8919 -2.8281  0.9485
  938MOL0     H26588  -0.243   9.828   5.525 -1.3726 -1.5342 -1.8998
  938MOL0     H26589  -0.183   9.708   5.415 -0.0463  2.2891  0.1491
  938MOL0     H26590  -0.025   9.538   5.430  2.2750 -2.4079  1.3883
  938MOL0     H26591   0.173   9.457   5.284 -2.1504 -0.4755  0.2212
  938MOL0     H26592   0.597   9.326   5.345 -0.7696  0.4646 -0.4466
  938MOL0     H26593   0.831   9.243   5.338 -0.4946 -0.0763 -1.2836
  938MOL0     H26594   1.170   9.540   5.412  1.9363  0.1008  0.3444
  938MOL0     H26595   1.066   9.451   5.520  0.2945 -1.6321  0.2879
  938MOL0     H26596   1.282   9.372   5.540  3.0646 -2.3253 -1.0013
  938MOL0     H26597   1.178   9.244   5.459  1.0264 -1.0102  0.6241
  938MOL0     H26598   1.367   9.422   5.305  0.8944 -0.3283  1.0189
  938MOL0     H26599   1.423   9.281   5.401  0.7458  1.1093  0.1020
  938MOL0     H26600   1.238   9.277   5.160  2.6181  3.8541 -0.0556
  938MOL0     H26601   1.254   9.131   5.262  1.1166 -1.4531 -1.5980
  938MOL0     H26602   1.393   9.089   5.086  0.6409  0.1319 -1.4097
  938MOL0     H26603   1.496   9.138   5.225  0.1546 -0.2599  0.0554
  938MOL0     H26604   1.411   9.342   5.030 -2.3782 -3.7867  1.9946
  938MOL0     H26605   1.553   9.356   5.123 -1.9456  2.3426 -0.5702
  938MOL0     H26606   1.615   9.301   4.888  0.4003  1.0829  2.1547
  938MOL0     H26607   1.504   9.169   4.882 -0.6769 -1.0143  1.4089
  938MOL0     H26608   1.638   9.049   5.038 -3.1016  0.6184 -3.8095
  938MOL0     H26609   1.752   9.094   4.910  0.8151  1.6979 -0.1977
  938MOL0     H26610   0.962   9.628   5.230  1.0827  1.0451  2.5021
  938MOL0     H26611   0.729   9.725   5.263 -2.6742  0.4238  0.5743
  938MOL0     H26612   0.404   9.788   5.395  0.9463 -2.9630 -1.9425
  938MOL0     H26613   0.202   9.888   5.522  0.0693  1.8001 -3.3226
  938MOL0     H26614   0.702   8.906   5.165  2.5889 -1.1767  1.7662
  938MOL0     H26615   0.826   8.677   5.167  0.4270  0.9102  2.2718
  938MOL0     H26616   0.554   8.137   5.319 -0.6895 -1.3783 -2.7618
  938MOL0     H26617   0.689   7.932   5.383  0.9653 -1.8458 -1.3743
  938MOL0     H26618   1.075   7.773   5.330 -1.1625 -0.0378 -0.5120
  938MOL0     H26619   1.097   7.935   5.235 -1.0811  1.1117 -0.7163
  938MOL0     H26620   1.107   7.775   5.073  0.7834  3.7788  1.0542
  938MOL0     H26621   0.943   7.837   5.070 -0.7643  0.5461  2.1999
  938MOL0     H26622   0.860   7.632   5.214  0.5013  1.6104  0.6683
  938MOL0     H26623   1.021   7.593   5.245  0.4489  0.9012 -0.7967
  938MOL0     H26624   1.073   7.484   5.066 -0.7733 -1.2625 -0.1701
  938MOL0     H26625   0.884   7.476   5.041  0.7662 -1.5481 -1.9961
  938MOL0     H26626   0.954   7.654   4.692  1.0398 -2.5567 -0.6216
  938MOL0     H26627   1.032   8.121   5.220 -1.8113  2.6884 -3.3943
  938MOL0     H26628   0.943   8.366   5.069 -2.5235 -0.7292 -0.7327
  938MOL0     H26629   0.921   8.444   5.239  0.9895 -0.5280  0.2304
  938MOL0     H26630   1.057   8.334   5.213 -1.4492 -3.3047  1.3776
  939MOL0     O26631   6.041   7.521   7.184 -0.1239 -1.1467  0.1962
  939MOL0     C26632   5.999   7.632   7.137 -1.2496 -0.0432  1.4424
  939MOL0     O26633   6.023   7.752   7.202 -0.0974  0.1498  0.3516
  939MOL0     C26634   6.073   7.742   7.331 -0.3289  0.0690  0.3644
  939MOL0     C26635   6.213   7.706   7.343  0.0887  0.4744 -0.4588
  939MOL0     C26636   6.262   7.655   7.467  0.2866  0.3114  1.7096
  939MOL0     C26637   6.184   7.667   7.574  0.6577 -0.0787  0.1097
  939MOL0     O26638   6.252   7.648   7.693 -0.1269 -0.2211  0.0722
  939MOL0     C26639   6.218   7.742   7.796 -0.5228  0.2687  0.5859
  939MOL0     C26640   6.257   7.888   7.753 -0.2828 -0.1850 -0.0595
  939MOL0     C26641   6.283   7.983   7.877 -0.9270 -1.1332 -0.2975
  939MOL0     C26642   6.317   8.124   7.836  0.4720 -0.2458  0.3282
  939MOL0     C26643   6.293   8.225   7.952 -0.5465  0.2103 -0.2714
  939MOL0     C26644   6.337   8.359   7.898  0.4537  0.0265 -0.9050
  939MOL0     C26645   6.294   8.474   7.998 -0.9520 -0.1096  0.1819
  939MOL0     C26646   6.339   8.430   8.137 -0.1524  0.0620 -0.1090
  939MOL0     N26647   6.347   8.552   8.223  0.3033  0.0694  0.3048
  939MOL0     C26648   6.281   8.576   8.338  0.0676  0.5124  0.0927
  939MOL0     C26649   6.323   8.702   8.381  0.9970  0.1272 -0.5959
  939MOL0     C26650   6.264   8.767   8.502 -0.8113  0.6867  0.7199
  939MOL0     C26651   6.320   8.696   8.629  0.8609  0.1211 -1.0517
  939MOL0     C26652   6.477   8.655   8.639  0.3250  0.2255 -0.7781
  939MOL0     C26653   6.571   8.766   8.592  0.7348  0.4413  0.4287
  939MOL0     O26654   6.613   8.861   8.693  0.3109  0.8464 -0.8124
  939MOL0     C26655   6.717   8.949   8.648 -0.0299 -0.2139  0.1215
  939MOL0     C26656   6.683   9.071   8.584 -0.1242 -0.1578  0.3013
  939MOL0     C26657   6.780   9.160   8.541 -0.3722  0.3782 -0.1238
  939MOL0     C26658   6.914   9.129   8.549 -0.0815 -0.3321  0.0257
  939MOL0     C26659   7.026   9.210   8.498 -0.8794 -1.3277 -0.1599
  939MOL0     O26660   6.992   9.331   8.453 -0.0212 -0.5181 -0.5302
  939MOL0     C26661   7.100   9.404   8.428  0.9766  0.2740  0.7820
  939MOL0     C26662   7.139   9.419   8.299 -0.4773 -1.6652  0.3762
  939MOL0     C26663   7.249   9.492   8.266  1.0898 -0.1616  0.0345
  939MOL0     C26664   7.326   9.556   8.359  0.4066 -0.4745 -0.6654
  939MOL0     O26665   7.445   9.605   8.326 -0.2564  0.7108  0.1921
  939MOL0     C26666   7.538   9.660   8.429  0.1285 -0.0168 -0.2399
  939MOL0     C26667   7.512   9.807   8.458  0.2197  0.6476 -0.6220
  939MOL0     C26668   7.560   9.902   8.351 -0.9565  0.7510  0.1972
  939MOL0     C26669   7.713   9.934   8.348  0.0545  0.2722  0.2259
  939MOL0     C26670   7.747  10.029   8.236 -0.0585 -0.0356 -0.4415
  939MOL0     C26671   7.900  10.049   8.236 -0.5238 -0.0413  0.3811
  939MOL0     C26672   7.927  10.175   8.142 -0.5944 -0.4251  0.3855
  939MOL0     C26673   8.082  10.193   8.127 -0.5006 -0.3985 -0.6617
  939MOL0    Cl26674   8.161  10.057   8.040  0.0821 -0.0145 -0.0584
  939MOL0     C26675   7.285   9.548   8.501  0.6611  0.3180  0.3692
  939MOL0     C26676   7.171   9.472   8.532  0.0244 -0.3211  0.5350
  939MOL0     O26677   7.144   9.171   8.493  0.3662 -0.4306 -1.0757
  939MOL0     C26678   6.952   9.006   8.608 -0.2199 -0.8778  0.5876
  939MOL0     C26679   6.852   8.916   8.653  0.7006 -0.7119  0.2637
  939MOL0     N26680   6.428   8.746   8.298  0.0197 -0.1112  0.1736
  939MOL0     N26681   6.434   8.657   8.204 -0.5259  0.0602 -0.5566
  939MOL0     C26682   6.045   7.715   7.561  0.7664  0.0871  0.3807
  939MOL0     C26683   5.993   7.756   7.443  0.0696 -1.3042 -0.7448
  939MOL0     C26684   5.952   7.647   7.002  0.2316  0.1143 -0.8244
  939MOL0     C26685   6.000   7.749   6.913 -0.8959  0.4114  1.0771
  939MOL0     C26686   5.954   7.758   6.785  0.9304 -0.7954 -0.0087
  939MOL0     C26687   5.880   7.664   6.722  0.3197 -0.4133  0.3528
  939MOL0     O26688   5.847   7.677   6.585 -0.1684 -0.1326  0.3201
  939MOL0     C26689   5.758   7.581   6.520  0.4769 -0.4884 -0.8764
  939MOL0     C26690   5.728   7.568   6.370  0.0403  1.0495  1.0395
  939MOL0     C26691   5.601   7.484   6.329 -1.3616 -0.7067 -1.0400
  939MOL0     C26692   5.582   7.490   6.171 -0.2670  0.3867 -0.7845
  939MOL0     C26693   5.558   7.618   6.102  0.7124  0.6066 -0.3456
  939MOL0     C26694   5.531   7.720   6.049  0.2317 -0.7925  0.7779
  939MOL0     C26695   5.836   7.555   6.800 -0.5643 -0.4451 -0.2891
  939MOL0     C26696   5.870   7.543   6.941 -0.5840 -0.7610  0.1585
  939MOL0     C26697   5.799   7.431   7.028  0.5873 -0.2988 -0.4898
  939MOL0     H26698   6.277   7.709   7.256  0.4157 -3.5692 -0.5686
  939MOL0     H26699   6.365   7.632   7.491 -0.3051 -0.3018  3.8590
  939MOL0     H26700   6.112   7.738   7.824 -1.1470  1.2063 -1.4270
  939MOL0     H26701   6.281   7.714   7.881  1.4278 -1.4621 -1.3322
  939MOL0     H26702   6.176   7.934   7.696 -0.0532  0.5264  0.1677
  939MOL0     H26703   6.339   7.882   7.681 -2.1307  1.4891 -2.4676
  939MOL0     H26704   6.371   7.939   7.924 -0.0512 -0.8484 -1.6278
  939MOL0     H26705   6.197   7.974   7.944 -1.8045 -2.3094 -1.5017
  939MOL0     H26706   6.423   8.142   7.814  0.1432  1.5525 -0.0067
  939MOL0     H26707   6.267   8.165   7.748 -0.2661  0.3713  1.0229
  939MOL0     H26708   6.190   8.219   7.989  0.5213 -2.7978  2.7512
  939MOL0     H26709   6.349   8.199   8.043 -0.4795  0.4262 -0.2490
  939MOL0     H26710   6.446   8.351   7.886  0.6252  0.1626  0.3672
  939MOL0     H26711   6.296   8.372   7.798  0.1612  4.6219 -0.4021
  939MOL0     H26712   6.185   8.476   8.000 -0.9510 -0.6244  1.2214
  939MOL0     H26713   6.339   8.573   7.986 -3.6479  1.6158  2.7643
  939MOL0     H26714   6.272   8.353   8.178  3.6801 -2.7961  1.4240
  939MOL0     H26715   6.439   8.386   8.136 -0.4850 -0.7285  0.3436
  939MOL0     H26716   6.195   8.519   8.372  1.3947 -1.3590  0.5138
  939MOL0     H26717   6.289   8.873   8.490  3.5879 -0.3631 -1.1694
  939MOL0     H26718   6.155   8.753   8.501 -0.9439  0.8945  3.3222
  939MOL0     H26719   6.289   8.751   8.719  0.4321 -0.8683 -0.5812
  939MOL0     H26720   6.270   8.601   8.650  1.1301  0.2733  0.3711
  939MOL0     H26721   6.486   8.566   8.577 -1.4210 -2.2667  2.2433
  939MOL0     H26722   6.490   8.644   8.747  0.3496  0.4203 -0.7607
  939MOL0     H26723   6.526   8.828   8.514 -0.2342  1.9718  2.1180
  939MOL0     H26724   6.649   8.702   8.549  2.6096  1.2317  2.4474
  939MOL0     H26725   6.579   9.101   8.577  0.3869  1.2588 -2.6423
  939MOL0     H26726   6.745   9.251   8.494 -0.5595 -0.4935 -1.7386
  939MOL0     H26727   7.079   9.372   8.222  0.6834 -3.7008  0.6550
  939MOL0     H26728   7.284   9.491   8.163  4.0386 -0.9641  0.9608
  939MOL0     H26729   7.541   9.596   8.517 -1.4468  0.8389  0.4700
  939MOL0     H26730   7.639   9.670   8.388 -0.7017  2.6346 -1.8970
  939MOL0     H26731   7.406   9.830   8.474 -0.7922 -2.2138 -2.4993
  939MOL0     H26732   7.568   9.820   8.551  0.0786 -3.0032  0.1230
  939MOL0     H26733   7.538   9.857   8.253  2.5434  1.8514 -1.2463
  939MOL0     H26734   7.497   9.991   8.361 -1.3579  0.6196 -0.9850
  939MOL0     H26735   7.764   9.837   8.337 -0.9009 -0.1656 -0.4731
  939MOL0     H26736   7.732   9.983   8.444  2.7033  0.3982 -0.2832
  939MOL0     H26737   7.691  10.118   8.266 -0.3716 -1.0794  2.3501
  939MOL0     H26738   7.716  10.000   8.136  1.0415 -1.3575 -0.4256
  939MOL0     H26739   7.937  10.078   8.335 -0.3128  0.1037  0.2602
  939MOL0     H26740   7.952   9.961   8.197 -0.1555  0.8093 -1.0960
  939MOL0     H26741   7.890  10.263   8.195  2.6781 -0.3897  2.9209
  939MOL0     H26742   7.882  10.165   8.043  0.6556 -1.5317 -0.1017
  939MOL0     H26743   8.108  10.288   8.080 -1.8122  0.1604 -0.2996
  939MOL0     H26744   8.131  10.200   8.224 -3.5444  2.3024  0.8536
  939MOL0     H26745   7.341   9.584   8.587  0.2495  1.9993 -0.0211
  939MOL0     H26746   7.146   9.465   8.638  4.2392 -2.2860  1.6329
  939MOL0     H26747   7.053   8.972   8.626 -0.1913 -1.0555  0.1194
  939MOL0     H26748   6.869   8.815   8.689 -0.2083 -1.1067 -0.3791
  939MOL0     H26749   5.990   7.719   7.655 -1.2401  0.4583 -0.7619
  939MOL0     H26750   5.893   7.790   7.418  0.2451  1.5481  1.8251
  939MOL0     H26751   6.065   7.830   6.945 -1.1468  1.0725 -0.0220
  939MOL0     H26752   5.969   7.851   6.732 -0.4920 -1.0246 -0.8530
  939MOL0     H26753   5.671   7.566   6.584  1.6570  3.0127  1.8803
  939MOL0     H26754   5.817   7.489   6.529  1.8650  0.4701  0.4977
  939MOL0     H26755   5.815   7.532   6.314  1.3293  1.8786  2.4215
  939MOL0     H26756   5.721   7.667   6.325  1.2132  0.3677 -0.8208
  939MOL0     H26757   5.513   7.530   6.376 -1.8185 -1.7595 -0.8302
  939MOL0     H26758   5.601   7.384   6.373 -2.0624  0.8506  2.9826
  939MOL0     H26759   5.678   7.457   6.130  0.1779 -0.1931  0.6596
  939MOL0     H26760   5.502   7.420   6.143 -0.3380  0.8454 -1.7882
  939MOL0     H26761   5.522   7.808   5.989  1.7253 -0.8943  0.3528
  939MOL0     H26762   5.775   7.476   6.757 -1.3183  0.0588 -0.1727
  939MOL0     H26763   5.696   7.411   6.998 -0.5726 -0.1180  2.8995
  939MOL0     H26764   5.856   7.338   7.034 -0.0867 -0.7491 -0.9838
  939MOL0     H26765   5.804   7.465   7.132 -0.7036  4.0456 -1.6090
  940MOL0     O26766   7.683   7.814   8.652  0.0895  0.1280 -0.2337
  940MOL0     C26767   7.609   7.910   8.671  1.3521  0.9187  0.5177
  940MOL0     O26768   7.473   7.910   8.652  0.8679 -0.4430  0.7449
  940MOL0     C26769   7.412   7.809   8.587  0.2881  0.1320 -0.1221
  940MOL0     C26770   7.404   7.799   8.445 -0.6961 -0.6362 -0.5703
  940MOL0     C26771   7.337   7.692   8.395  0.8296  0.9597  0.1108
  940MOL0     C26772   7.277   7.589   8.471  0.2319  0.2279  0.4075
  940MOL0     O26773   7.228   7.476   8.412  0.7904 -0.2973  0.1959
  940MOL0     C26774   7.089   7.492   8.381  0.1372  0.2433  0.3287
  940MOL0     C26775   7.019   7.373   8.311  1.0815 -1.3134  0.4882
  940MOL0     C26776   7.054   7.243   8.377  0.5307 -0.1617  0.1098
  940MOL0     C26777   7.003   7.230   8.527  1.3310 -0.3284 -0.0537
  940MOL0     C26778   7.028   7.089   8.583  0.1894 -1.0341 -0.9416
  940MOL0     C26779   6.915   7.007   8.535  0.6451  0.6232 -0.8976
  940MOL0     C26780   6.917   6.854   8.593 -0.4811 -0.1313  0.5837
  940MOL0     C26781   6.943   6.844   8.741 -0.5215  0.1790  0.0874
  940MOL0     N26782   6.919   6.702   8.797 -0.2508 -1.0615  0.6668
  940MOL0     C26783   6.977   6.588   8.754 -0.5301 -0.6577  0.5470
  940MOL0     C26784   6.970   6.504   8.856 -0.2879  0.1988  0.9244
  940MOL0     C26785   7.043   6.375   8.875  0.6278 -0.7504 -0.1492
  940MOL0     C26786   6.981   6.270   8.793  0.1841  0.7433 -0.0880
  940MOL0     C26787   7.092   6.162   8.796 -0.0527 -0.4120 -0.7025
  940MOL0     C26788   7.032   6.041   8.724  0.1817 -0.2686 -0.3057
  940MOL0     O26789   7.131   5.934   8.752 -0.6061 -0.3774  0.8211
  940MOL0     C26790   7.185   5.844   8.664  0.2290  0.4904 -0.0286
  940MOL0     C26791   7.288   5.760   8.719  0.7369  0.4878 -0.3749
  940MOL0     C26792   7.345   5.664   8.632  0.1999  0.0983  0.1211
  940MOL0     C26793   7.312   5.648   8.493  0.3055  0.0213 -0.1338
  940MOL0     C26794   7.386   5.558   8.402  0.6469  0.0469  0.9827
  940MOL0     O26795   7.479   5.471   8.458  0.0895 -0.2486 -0.5047
  940MOL0     C26796   7.578   5.420   8.377  0.2258 -0.4234 -0.1710
  940MOL0     C26797   7.711   5.458   8.401 -0.1138 -0.1559  0.7798
  940MOL0     C26798   7.810   5.427   8.301  0.0247 -1.2948  0.1362
  940MOL0     C26799   7.776   5.365   8.187 -0.9146  0.4010 -0.4071
  940MOL0     O26800   7.881   5.344   8.096 -0.4084  0.6901  0.1722
  940MOL0     C26801   7.855   5.289   7.960  0.4072  0.3297 -0.8751
  940MOL0     C26802   7.972   5.256   7.877  0.3721  0.1157  0.5221
  940MOL0     C26803   8.046   5.382   7.813 -0.2280  0.3537 -1.2502
  940MOL0     C26804   7.998   5.417   7.675 -0.4778 -0.5937 -0.9715
  940MOL0     C26805   8.110   5.500   7.601  1.1280 -0.2636  0.4335
  940MOL0     C26806   8.240   5.430   7.556  0.0385  0.0629  0.5320
  940MOL0     C26807   8.335   5.522   7.489  0.1757  0.1171 -0.4356
  940MOL0     C26808   8.479   5.472   7.485  0.2592 -0.2504 -0.6151
  940MOL0    Cl26809   8.574   5.547   7.360 -0.2887 -0.4519  0.3856
  940MOL0     C26810   7.640   5.333   8.161 -1.2118  0.9078  0.7066
  940MOL0     C26811   7.539   5.357   8.256 -0.7045 -0.4563 -0.1230
  940MOL0     O26812   7.366   5.572   8.276 -0.3052 -0.0425  0.8165
  940MOL0     C26813   7.210   5.728   8.444 -0.1565 -0.0494 -0.2716
  940MOL0     C26814   7.151   5.824   8.525  0.0336  0.4326 -1.0224
  940MOL0     N26815   6.889   6.559   8.947 -0.5022 -0.7325 -0.2045
  940MOL0     N26816   6.863   6.680   8.913  0.7070 -0.1181 -0.3307
  940MOL0     C26817   7.268   7.613   8.613  0.6299  0.4670  0.0960
  940MOL0     C26818   7.326   7.728   8.667 -0.4518  0.1530  0.2598
  940MOL0     C26819   7.680   8.036   8.717  0.5552  0.2955  0.9212
  940MOL0     C26820   7.598   8.124   8.791  0.0660  0.8346  1.2345
  940MOL0     C26821   7.650   8.251   8.818 -0.3809 -0.0792  0.2811
  940MOL0     C26822   7.783   8.285   8.780  0.9182  0.2756  0.5185
  940MOL0     O26823   7.824   8.410   8.828 -0.3138  0.2717  0.1838
  940MOL0     C26824   7.959   8.445   8.807  0.2095 -0.2780  0.2813
  940MOL0     C26825   7.976   8.594   8.831  0.3840 -0.7937  0.1376
  940MOL0     C26826   7.956   8.626   8.985 -0.0333 -0.1933  0.1915
  940MOL0     C26827   7.960   8.780   9.022 -0.0115  0.8459 -0.7592
  940MOL0     C26828   8.081   8.853   8.982  0.5661 -0.3105 -0.1616
  940MOL0     C26829   8.191   8.909   8.964  0.4072 -0.2771 -0.7287
  940MOL0     C26830   7.859   8.195   8.701 -0.4718 -0.1351 -0.7003
  940MOL0     C26831   7.804   8.072   8.668 -0.4531  0.2923  0.0477
  940MOL0     C26832   7.900   7.993   8.567  0.6584 -0.5789  0.2608
  940MOL0     H26833   7.465   7.869   8.388  1.1505  1.5522  3.6330
  940MOL0     H26834   7.331   7.687   8.287  0.8217  2.5158  0.0104
  940MOL0     H26835   7.035   7.518   8.472  1.1988  1.3050  0.6868
  940MOL0     H26836   7.085   7.576   8.310  0.7323  0.0371  0.0353
  940MOL0     H26837   7.043   7.380   8.204 -2.2452  1.6525 -0.2625
  940MOL0     H26838   6.911   7.389   8.313  1.2974  0.8482 -1.2720
  940MOL0     H26839   7.163   7.234   8.383  0.5683  0.9188  1.7907
  940MOL0     H26840   7.021   7.166   8.308  2.7572  0.0945 -1.3407
  940MOL0     H26841   7.051   7.311   8.583  1.3534 -0.4324  0.0760
  940MOL0     H26842   6.897   7.252   8.538  1.2078  0.5951 -2.5016
  940MOL0     H26843   7.112   7.040   8.534 -0.8967 -1.5273 -2.4015
  940MOL0     H26844   7.042   7.078   8.690  1.4628 -2.2106 -1.2047
  940MOL0     H26845   6.819   7.047   8.569  1.8032  2.4784  0.3549
  940MOL0     H26846   6.910   6.998   8.426 -1.4213 -2.2596 -0.6851
  940MOL0     H26847   6.991   6.805   8.530 -0.4279  4.2328 -3.3113
  940MOL0     H26848   6.818   6.810   8.579 -1.0023  0.5495  1.8951
  940MOL0     H26849   7.047   6.866   8.765 -1.0453  1.9168  0.8874
  940MOL0     H26850   6.883   6.908   8.805 -0.1581 -1.3827  2.1012
  940MOL0     H26851   7.024   6.585   8.656 -0.4994 -1.7825  0.5890
  940MOL0     H26852   7.150   6.387   8.856 -0.0978  2.8610 -3.2369
  940MOL0     H26853   7.020   6.354   8.980 -1.3350  0.5790 -0.2678
  940MOL0     H26854   6.899   6.230   8.854  1.1039  3.0603  2.9241
  940MOL0     H26855   6.948   6.315   8.699 -0.4146  4.4946  1.7234
  940MOL0     H26856   7.118   6.115   8.891  1.5851 -1.6047 -1.6966
  940MOL0     H26857   7.190   6.188   8.755  0.6110 -0.2838  0.8972
  940MOL0     H26858   7.023   6.062   8.617 -0.1700 -0.3400 -0.2918
  940MOL0     H26859   6.946   6.003   8.778  0.1017 -0.6442 -0.6900
  940MOL0     H26860   7.309   5.776   8.825 -0.5861  1.8995 -0.2808
  940MOL0     H26861   7.420   5.599   8.676  0.1176 -0.7167 -0.9086
  940MOL0     H26862   7.743   5.510   8.490  0.4838  0.7894  0.0298
  940MOL0     H26863   7.908   5.462   8.333 -1.9573  3.4563  1.9651
  940MOL0     H26864   7.802   5.196   7.983  2.1466 -0.2396  1.1098
  940MOL0     H26865   7.803   5.359   7.893  1.7694  2.3832  0.1198
  940MOL0     H26866   8.042   5.192   7.931 -0.1735 -0.7635  0.2079
  940MOL0     H26867   7.927   5.193   7.800 -0.9374  0.1745  1.2155
  940MOL0     H26868   8.029   5.473   7.872 -4.0025  0.8284 -2.7987
  940MOL0     H26869   8.155   5.368   7.805 -0.4655 -1.3111 -1.9778
  940MOL0     H26870   7.908   5.478   7.689  0.2790  0.4668 -0.5999
  940MOL0     H26871   7.983   5.330   7.611  2.1575 -1.6680 -0.2272
  940MOL0     H26872   8.128   5.585   7.668  0.3109  0.9750 -0.8578
  940MOL0     H26873   8.067   5.562   7.522  0.2944  2.1713  2.6116
  940MOL0     H26874   8.290   5.383   7.641  1.3826 -0.0711 -0.2987
  940MOL0     H26875   8.205   5.356   7.483  0.6524  2.5123 -2.4344
  940MOL0     H26876   8.351   5.605   7.557  0.2008 -1.3467  1.4167
  940MOL0     H26877   8.298   5.566   7.396  2.4050  1.6792 -0.6587
  940MOL0     H26878   8.528   5.492   7.581 -2.5638 -0.5799  1.0032
  940MOL0     H26879   8.489   5.364   7.472 -0.7725 -0.7325  1.9817
  940MOL0     H26880   7.618   5.302   8.059  5.6671 -0.4746 -0.8555
  940MOL0     H26881   7.436   5.336   8.231 -0.5630  0.5030 -1.6466
  940MOL0     H26882   7.196   5.724   8.337  1.6189  0.1576 -0.5547
  940MOL0     H26883   7.075   5.897   8.498 -0.0186  0.5990 -0.4462
  940MOL0     H26884   7.233   7.542   8.687  1.1140  1.1783  1.0289
  940MOL0     H26885   7.344   7.742   8.773 -0.9813 -3.4177  0.9213
  940MOL0     H26886   7.498   8.107   8.831 -0.3439  1.6260  0.5722
  940MOL0     H26887   7.598   8.320   8.883  2.3234  1.0440  1.4050
  940MOL0     H26888   8.000   8.417   8.710  0.4876  0.3692  0.2037
  940MOL0     H26889   8.021   8.392   8.880 -1.8424  1.0701  3.2143
  940MOL0     H26890   7.904   8.647   8.768  0.4617 -0.5035  0.2961
  940MOL0     H26891   8.077   8.613   8.795  0.0968  0.1419 -0.2004
  940MOL0     H26892   8.033   8.570   9.037  1.5350  0.6788 -1.1099
  940MOL0     H26893   7.855   8.592   9.012 -0.3708 -1.1907 -2.0503
  940MOL0     H26894   7.877   8.842   8.987 -1.0125  0.6882  1.1807
  940MOL0     H26895   7.955   8.781   9.132  1.0827  1.4275 -0.6891
  940MOL0     H26896   8.287   8.954   8.955 -0.6351  2.0671 -1.0100
  940MOL0     H26897   7.956   8.228   8.665 -0.4237  1.3064  0.6034
  940MOL0     H26898   7.947   7.913   8.624  1.6990  0.3177  0.6896
  940MOL0     H26899   7.848   7.960   8.476 -0.4025  0.8614  0.2987
  940MOL0     H26900   7.983   8.059   8.541  1.6648 -0.8584  2.5368
  941MOL0     O26901   0.596  10.260   1.016  0.5706  0.2724  0.7695
  941MOL0     C26902   0.544  10.163   1.076  0.4922 -0.5443  0.5072
  941MOL0     O26903   0.601  10.099   1.182  0.2199  0.9644  0.9103
  941MOL0     C26904   0.691  10.163   1.255  0.5108  0.4818  0.2793
  941MOL0     C26905   0.815  10.109   1.285  0.1988 -0.3988 -0.1126
  941MOL0     C26906   0.896  10.167   1.390 -0.9611 -0.1718  0.2016
  941MOL0     C26907   0.860  10.292   1.448 -0.8623 -0.0365 -0.5113
  941MOL0     O26908   0.948  10.346   1.537 -0.0596 -0.0297 -0.0594
  941MOL0     C26909   0.927  10.315   1.676 -0.2436  0.3127  0.5526
  941MOL0     C26910   1.033  10.383   1.760 -0.3162 -0.6587  0.4687
  941MOL0     C26911   1.161  10.294   1.769  0.8532 -0.0233  0.5276
  941MOL0     C26912   1.303  10.361   1.797 -0.5712 -0.4822  0.5363
  941MOL0     C26913   1.414  10.252   1.797 -0.0264 -0.4753  0.7626
  941MOL0     C26914   1.428  10.173   1.667  0.0216 -0.3306 -0.9951
  941MOL0     C26915   1.426  10.261   1.550 -0.6745  0.6941  0.7404
  941MOL0     C26916   1.447  10.190   1.413 -0.2375  0.5621 -0.6323
  941MOL0     N26917   1.369  10.069   1.391 -0.7213  0.2364  0.2333
  941MOL0     C26918   1.239  10.050   1.350 -0.0147 -0.8337 -1.2392
  941MOL0     C26919   1.236   9.930   1.285 -0.9382 -0.4472  0.2130
  941MOL0     C26920   1.117   9.860   1.234  0.5039  0.2063  0.4568
  941MOL0     C26921   1.090   9.879   1.083 -0.4978 -1.7014 -0.3472
  941MOL0     C26922   0.960   9.817   1.019 -0.0313 -0.8356 -0.9628
  941MOL0     C26923   0.927   9.871   0.880 -0.2229  0.4477  0.1699
  941MOL0     O26924   1.039   9.852   0.783 -0.3294 -0.3917  0.2727
  941MOL0     C26925   1.060   9.731   0.730 -0.2463 -0.3100  0.4939
  941MOL0     C26926   0.972   9.677   0.633 -0.3778  0.3512  0.6246
  941MOL0     C26927   1.012   9.561   0.575  0.4873 -0.1318 -0.4928
  941MOL0     C26928   1.127   9.485   0.612 -0.4455 -0.2468  0.0481
  941MOL0     C26929   1.162   9.360   0.553  0.3673 -0.7827  0.4603
  941MOL0     O26930   1.069   9.301   0.476  0.2638 -0.5336 -0.1433
  941MOL0     C26931   1.096   9.187   0.408 -0.2312 -0.9725  0.6370
  941MOL0     C26932   1.216   9.151   0.348 -0.4960  0.5467  1.1200
  941MOL0     C26933   1.237   9.023   0.295 -0.4894  0.3946 -0.4371
  941MOL0     C26934   1.138   8.920   0.308  0.5446  0.4333 -0.2171
  941MOL0     O26935   1.145   8.790   0.262 -0.3360 -0.3112  0.8127
  941MOL0     C26936   1.225   8.761   0.149  0.1845  0.7246  0.4442
  941MOL0     C26937   1.210   8.848   0.027 -0.1407  0.1976  0.1234
  941MOL0     C26938   1.264   8.770  -0.095  0.3674 -0.9325  0.5037
  941MOL0     C26939   1.182   8.805  -0.222  0.6213 -0.2266  1.1854
  941MOL0     C26940   1.254   8.751  -0.350  0.6185  0.2394 -0.4368
  941MOL0     C26941   1.152   8.741  -0.468 -0.2608  0.2166 -0.4218
  941MOL0     C26942   1.220   8.670  -0.591 -0.1520 -0.3428  0.1494
  941MOL0     C26943   1.187   8.523  -0.579 -0.9114 -0.5659 -0.2432
  941MOL0    Cl26944   1.025   8.495  -0.634  0.0286 -0.1275  0.0692
  941MOL0     C26945   1.010   8.957   0.362 -0.5470 -0.3506 -0.0505
  941MOL0     C26946   0.999   9.088   0.415  0.2648  0.1353  0.9439
  941MOL0     O26947   1.276   9.318   0.574  0.5070 -0.8557  0.5675
  941MOL0     C26948   1.203   9.553   0.708  0.7794 -0.0462 -0.2869
  941MOL0     C26949   1.171   9.677   0.768 -0.1827  1.1213  0.1926
  941MOL0     N26950   1.370   9.882   1.286 -0.0233 -0.5105  0.3153
  941MOL0     N26951   1.441   9.959   1.356 -0.3211  0.0516 -0.6785
  941MOL0     C26952   0.734  10.350   1.416  1.0168 -0.3934 -0.4732
  941MOL0     C26953   0.649  10.279   1.330  0.8357  0.4238 -0.0055
  941MOL0     C26954   0.410  10.133   1.024 -0.3845  0.7250 -0.0583
  941MOL0     C26955   0.335  10.244   0.979  0.3984 -0.4827 -0.3178
  941MOL0     C26956   0.195  10.230   0.969 -0.7345  0.4057 -0.4054
  941MOL0     C26957   0.145  10.098   0.961  0.1165 -0.1640  0.0247
  941MOL0     O26958   0.023  10.056   0.914 -0.3825 -0.0448  0.0890
  941MOL0     C26959  -0.073  10.156   0.899  0.4784  0.8135 -0.6784
  941MOL0     C26960  -0.083  10.204   0.764  0.1267 -0.3685  0.0802
  941MOL0     C26961  -0.175  10.332   0.738 -0.5562  0.1269 -0.4225
  941MOL0     C26962  -0.231  10.342   0.602 -0.7374  0.4728  0.5647
  941MOL0     C26963  -0.122  10.378   0.509 -0.2898 -0.0730 -0.7730
  941MOL0     C26964  -0.026  10.403   0.446 -0.4922  0.9373  0.8966
  941MOL0     C26965   0.229   9.987   0.997  0.8075 -0.4686 -0.3241
  941MOL0     C26966   0.360  10.001   1.028 -0.1730 -0.5801 -0.8587
  941MOL0     C26967   0.442   9.878   1.051 -0.8796 -0.1588  0.2067
  941MOL0     H26968   0.850  10.020   1.235  1.2328  0.4275 -0.9157
  941MOL0     H26969   0.983  10.117   1.431 -1.4639 -2.5006 -1.3850
  941MOL0     H26970   0.828  10.356   1.699  0.3722  1.0866  1.9174
  941MOL0     H26971   0.924  10.210   1.704 -0.9557 -0.0676 -0.8957
  941MOL0     H26972   0.996  10.403   1.861 -3.8755 -2.9135 -0.2155
  941MOL0     H26973   1.038  10.480   1.709 -2.5640  0.5289  2.3357
  941MOL0     H26974   1.180  10.228   1.684  4.5502 -1.4800  2.2429
  941MOL0     H26975   1.161  10.233   1.860  3.0016 -0.7788  0.0758
  941MOL0     H26976   1.328  10.443   1.729 -2.2903  0.2828  0.7811
  941MOL0     H26977   1.308  10.414   1.893  1.3610 -1.7788  1.2268
  941MOL0     H26978   1.511  10.302   1.811  0.1520 -0.8016  0.6907
  941MOL0     H26979   1.392  10.172   1.867  0.9467 -2.7385 -1.3705
  941MOL0     H26980   1.525  10.123   1.665 -0.3872 -1.1496 -0.7422
  941MOL0     H26981   1.350  10.098   1.655 -0.4723 -0.4306  2.0709
  941MOL0     H26982   1.506  10.335   1.558  0.2765 -0.0708 -1.0760
  941MOL0     H26983   1.323  10.297   1.540  0.0094  2.5218 -0.3165
  941MOL0     H26984   1.421  10.244   1.321  1.4995 -1.3325 -2.3128
  941MOL0     H26985   1.555  10.175   1.410  0.5166  2.2690  5.0006
  941MOL0     H26986   1.161  10.125   1.348  2.1531  1.9036  2.2743
  941MOL0     H26987   1.132   9.752   1.237  1.1596  0.1717 -1.9935
  941MOL0     H26988   1.024   9.898   1.278 -1.5409 -0.8839 -2.5399
  941MOL0     H26989   1.088   9.987   1.066  0.3396 -1.2042  2.2362
  941MOL0     H26990   1.178   9.841   1.030  0.9086  3.3913 -2.2034
  941MOL0     H26991   0.872   9.841   1.078 -0.2528 -1.1211 -1.1766
  941MOL0     H26992   0.979   9.709   1.015  1.7491 -0.8200  2.7199
  941MOL0     H26993   0.921   9.980   0.886  2.7833  0.6334  2.1565
  941MOL0     H26994   0.847   9.821   0.825  1.6466  0.0513 -2.3676
  941MOL0     H26995   0.892   9.736   0.589  1.9790  2.3567 -1.3565
  941MOL0     H26996   0.947   9.518   0.499 -2.6962 -0.0376  1.9735
  941MOL0     H26997   1.305   9.213   0.338  2.2577 -2.6323  3.6216
  941MOL0     H26998   1.325   8.985   0.243  1.6885  1.1363  2.4109
  941MOL0     H26999   1.333   8.745   0.161 -0.2762 -1.7243  1.8394
  941MOL0     H27000   1.183   8.667   0.112 -1.4198  2.3775 -2.3009
  941MOL0     H27001   1.110   8.885   0.002  0.2345  1.4221  0.3470
  941MOL0     H27002   1.266   8.942   0.034  0.8643 -0.3924  0.2481
  941MOL0     H27003   1.369   8.787  -0.118  0.1502 -0.2368 -0.0274
  941MOL0     H27004   1.272   8.662  -0.085 -0.7349 -0.8882  2.3091
  941MOL0     H27005   1.163   8.912  -0.233  3.7798  0.3964  0.8501
  941MOL0     H27006   1.085   8.755  -0.210  0.7537 -0.3448  1.7786
  941MOL0     H27007   1.281   8.647  -0.331  1.4887  0.8298  1.8324
  941MOL0     H27008   1.343   8.812  -0.370  2.6004 -2.6235 -0.9337
  941MOL0     H27009   1.061   8.688  -0.438 -0.6898  1.3569  0.3718
  941MOL0     H27010   1.111   8.832  -0.513 -2.4350 -0.9484 -0.9413
  941MOL0     H27011   1.326   8.693  -0.584 -0.1156 -0.8066  1.3063
  941MOL0     H27012   1.181   8.705  -0.688  0.7254  1.2965  0.3490
  941MOL0     H27013   1.253   8.472  -0.649 -0.1064 -1.4469  1.1104
  941MOL0     H27014   1.205   8.471  -0.484  0.7043 -1.2007 -0.8508
  941MOL0     H27015   0.922   8.896   0.343  1.1582 -1.8705 -4.3076
  941MOL0     H27016   0.907   9.110   0.469 -0.1226 -1.3920  0.9479
  941MOL0     H27017   1.275   9.499   0.767 -0.8389 -1.9956  0.0053
  941MOL0     H27018   1.238   9.721   0.841  2.7219  0.1879 -1.7587
  941MOL0     H27019   0.705  10.440   1.469  1.1284 -0.5781 -0.0938
  941MOL0     H27020   0.549  10.318   1.311  1.5033  1.8756 -0.6037
  941MOL0     H27021   0.378  10.343   0.975  0.0361 -0.3513 -1.0861
  941MOL0     H27022   0.145  10.322   0.941  0.6545  0.9514 -1.1825
  941MOL0     H27023  -0.063  10.244   0.963  1.6299  0.8491 -0.8925
  941MOL0     H27024  -0.177  10.125   0.918  1.2396 -1.4515  0.1104
  941MOL0     H27025  -0.118  10.117   0.708 -1.0588 -1.4538  2.3732
  941MOL0     H27026   0.015  10.233   0.724 -0.3716  1.0839 -0.1563
  941MOL0     H27027  -0.112  10.421   0.754  2.3728 -1.6157 -1.4992
  941MOL0     H27028  -0.254  10.335   0.814 -0.4443 -0.2002 -0.2918
  941MOL0     H27029  -0.279  10.252   0.562  0.3464  0.6132 -1.1870
  941MOL0     H27030  -0.307  10.420   0.590  0.5497  1.8514  1.0161
  941MOL0     H27031   0.065  10.425   0.394 -1.0723  3.0988  0.6955
  941MOL0     H27032   0.180   9.890   1.000  2.4280 -1.4268 -2.2834
  941MOL0     H27033   0.532   9.877   0.989 -0.3981 -0.7494  0.9031
  941MOL0     H27034   0.475   9.845   1.149  0.2556 -0.6422 -0.3143
  941MOL0     H27035   0.386   9.787   1.029 -2.0275  0.6516 -0.3545
  942MOL0     O27036   2.808   1.661  11.423 -0.3250 -0.2782 -0.3981
  942MOL0     C27037   2.887   1.577  11.402 -0.0208  0.2741  0.9670
  942MOL0     O27038   2.900   1.457  11.474  0.2640 -0.5593 -0.1298
  942MOL0     C27039   2.798   1.429  11.565  0.2316 -0.4093  0.6885
  942MOL0     C27040   2.836   1.408  11.703  0.5030  0.1915  0.5962
  942MOL0     C27041   2.734   1.367  11.791 -0.0587 -0.9625  0.0081
  942MOL0     C27042   2.599   1.341  11.744  0.0160  0.7002 -1.3148
  942MOL0     O27043   2.504   1.300  11.835  0.3410  0.6670 -0.4207
  942MOL0     C27044   2.481   1.354  11.963 -0.3463 -0.3203  1.0699
  942MOL0     C27045   2.515   1.248  12.068 -0.2783 -0.0053 -1.4487
  942MOL0     C27046   2.486   1.309  12.210  1.9039  0.1318 -0.2252
  942MOL0     C27047   2.331   1.336  12.245  0.3919 -0.7071  0.3830
  942MOL0     C27048   2.309   1.381  12.398 -1.1223 -0.8660  0.4608
  942MOL0     C27049   2.169   1.429  12.420  0.7535 -0.9296  0.2419
  942MOL0     C27050   2.140   1.442  12.571 -0.4926 -0.0427 -0.0496
  942MOL0     C27051   2.053   1.566  12.614 -0.3123 -0.5864 -0.0771
  942MOL0     N27052   1.912   1.535  12.605 -0.6435  0.3316 -0.0092
  942MOL0     C27053   1.860   1.447  12.515  0.0548  0.4679 -0.7465
  942MOL0     C27054   1.740   1.419  12.578 -0.7489 -0.0817  0.8753
  942MOL0     C27055   1.659   1.306  12.533 -0.6405 -0.5001 -0.7068
  942MOL0     C27056   1.511   1.303  12.581  0.3539 -0.2759  0.8740
  942MOL0     C27057   1.432   1.197  12.510 -0.5317 -0.1981  0.7176
  942MOL0     C27058   1.304   1.145  12.570 -0.5233  0.0231  0.3710
  942MOL0     O27059   1.278   1.012  12.511 -0.2464  0.1886  0.7847
  942MOL0     C27060   1.153   0.952  12.526  0.1155  0.1023  0.1523
  942MOL0     C27061   1.146   0.818  12.482 -0.1341 -0.2336  0.0031
  942MOL0     C27062   1.033   0.756  12.526 -0.8291  0.0595  0.7979
  942MOL0     C27063   0.920   0.817  12.587 -1.7207 -0.2068 -0.6980
  942MOL0     C27064   0.797   0.740  12.609 -0.0797 -0.3765 -0.3719
  942MOL0     O27065   0.806   0.612  12.590  0.0054  0.0337  0.8726
  942MOL0     C27066   0.701   0.536  12.635 -0.1831 -0.1646  0.3158
  942MOL0     C27067   0.572   0.562  12.599 -0.7833 -0.3191 -0.4273
  942MOL0     C27068   0.469   0.479  12.654 -0.1471 -0.0905  0.7948
  942MOL0     C27069   0.495   0.395  12.761  0.0680 -0.2018  0.0686
  942MOL0     O27070   0.392   0.320  12.836 -0.2395 -0.1311  0.7293
  942MOL0     C27071   0.386   0.322  12.975 -0.1906  0.7908  0.7572
  942MOL0     C27072   0.271   0.234  13.015 -0.7860 -0.6465  0.0297
  942MOL0     C27073   0.184   0.299  13.136  0.3594  0.7232  0.0887
  942MOL0     C27074   0.059   0.215  13.191 -0.7385  0.1076 -0.2052
  942MOL0     C27075  -0.022   0.278  13.296 -0.3260 -0.4092  0.2848
  942MOL0     C27076  -0.114   0.182  13.361 -0.1364 -1.0547  0.1676
  942MOL0     C27077  -0.216   0.252  13.447  0.1963  0.5730 -0.4001
  942MOL0     C27078  -0.312   0.144  13.517 -0.5839 -0.1781 -0.2748
  942MOL0    Cl27079  -0.225   0.073  13.651  0.2718 -0.1128 -0.2867
  942MOL0     C27080   0.626   0.392  12.811  0.8124 -0.2672 -0.4074
  942MOL0     C27081   0.729   0.459  12.748  0.3540 -0.1010 -0.6224
  942MOL0     O27082   0.700   0.803  12.661 -0.2534  0.9353  0.2773
  942MOL0     C27083   0.928   0.951  12.619 -0.9447  0.4757  1.1912
  942MOL0     C27084   1.050   1.019  12.593 -0.2766  0.0947 -0.3158
  942MOL0     N27085   1.725   1.499  12.695  0.1907 -0.3928  0.7734
  942MOL0     N27086   1.829   1.563  12.706 -0.4786  0.4550 -0.1041
  942MOL0     C27087   2.572   1.352  11.612  0.7929  0.5789 -0.7322
  942MOL0     C27088   2.674   1.385  11.523 -0.9181 -0.1368  0.6730
  942MOL0     C27089   2.967   1.581  11.278  0.2115 -0.5164 -0.4520
  942MOL0     C27090   2.997   1.455  11.220  0.1061  0.4949  0.3878
  942MOL0     C27091   3.070   1.452  11.103 -0.4054  0.1043 -1.3021
  942MOL0     C27092   3.115   1.568  11.048  0.2116  0.2487 -0.1754
  942MOL0     O27093   3.198   1.565  10.938 -0.1838  0.5079 -0.5018
  942MOL0     C27094   3.214   1.445  10.859  0.0157 -0.2549 -0.5316
  942MOL0     C27095   3.080   1.409  10.777  0.3775  0.3054 -0.7869
  942MOL0     C27096   3.029   1.535  10.703  0.3380 -1.0815  0.0339
  942MOL0     C27097   2.907   1.523  10.603 -0.4521 -0.4233  0.7028
  942MOL0     C27098   2.935   1.449  10.478  0.8337 -1.4200 -0.6295
  942MOL0     C27099   2.954   1.393  10.366  0.7054 -0.4023 -1.2389
  942MOL0     C27100   3.084   1.691  11.103 -0.6778  0.8204 -0.3012
  942MOL0     C27101   3.011   1.701  11.216 -0.6069  0.0980 -0.3928
  942MOL0     C27102   3.000   1.834  11.283  0.0773  0.8808 -0.8783
  942MOL0     H27103   2.935   1.435  11.737  0.6514  1.5970 -0.7912
  942MOL0     H27104   2.775   1.348  11.889  0.8100  0.7143  0.0174
  942MOL0     H27105   2.553   1.436  11.973  1.2214 -0.6596 -4.2463
  942MOL0     H27106   2.379   1.394  11.971  0.2285  1.1072  1.6439
  942MOL0     H27107   2.619   1.214  12.064  0.4012  1.7140  0.2445
  942MOL0     H27108   2.444   1.166  12.053 -0.5713  0.2929 -1.6827
  942MOL0     H27109   2.536   1.406  12.213  3.7913 -0.7909 -0.2086
  942MOL0     H27110   2.521   1.256  12.299 -0.2108  5.4081  4.2743
  942MOL0     H27111   2.286   1.418  12.189 -0.1727 -0.3819  1.2995
  942MOL0     H27112   2.266   1.250  12.225 -1.8175  0.7692  0.7947
  942MOL0     H27113   2.345   1.298  12.459  0.7566 -0.3652  0.1043
  942MOL0     H27114   2.366   1.475  12.408 -3.3878  0.4393  2.0338
  942MOL0     H27115   2.149   1.520  12.362  3.7831  0.4255  1.1110
  942MOL0     H27116   2.118   1.342  12.378  2.4669 -1.6735 -0.3561
  942MOL0     H27117   2.234   1.453  12.625 -2.1277  1.7738  2.6856
  942MOL0     H27118   2.109   1.345  12.611  3.5998 -0.0800  3.7347
  942MOL0     H27119   2.066   1.566  12.722 -2.1800 -1.6880  0.1931
  942MOL0     H27120   2.092   1.652  12.558  1.4310 -0.8721  0.6352
  942MOL0     H27121   1.910   1.400  12.430 -3.2222  0.4745 -2.8616
  942MOL0     H27122   1.658   1.304  12.424 -4.9075  1.5029 -0.9176
  942MOL0     H27123   1.699   1.220  12.587 -0.8053  0.3302  0.8148
  942MOL0     H27124   1.497   1.285  12.688  1.5415  1.3347  1.3382
  942MOL0     H27125   1.458   1.397  12.563 -1.9485 -1.7679 -0.6875
  942MOL0     H27126   1.502   1.114  12.495 -1.4559 -1.5877  3.3133
  942MOL0     H27127   1.400   1.235  12.413 -1.6257  1.8515  1.8079
  942MOL0     H27128   1.230   1.221  12.544  0.0872  0.5926  0.2967
  942MOL0     H27129   1.314   1.127  12.678  1.6927 -3.6365 -0.2775
  942MOL0     H27130   1.233   0.781  12.428 -0.9662 -2.5761  0.1507
  942MOL0     H27131   1.012   0.651  12.515 -1.7568  0.2867  0.2813
  942MOL0     H27132   0.543   0.626  12.517  1.1788  1.2129 -0.0105
  942MOL0     H27133   0.370   0.480  12.610  0.1734 -2.3897 -0.1558
  942MOL0     H27134   0.477   0.289  13.024 -0.5658 -2.0712 -0.3176
  942MOL0     H27135   0.362   0.426  13.001  0.4496  1.0221  0.4332
  942MOL0     H27136   0.203   0.235  12.929  0.0627 -0.1776 -0.6539
  942MOL0     H27137   0.315   0.137  13.036  1.5498  0.1030 -1.0885
  942MOL0     H27138   0.255   0.303  13.220 -1.0035 -0.7014  1.3808
  942MOL0     H27139   0.159   0.403  13.113  1.3947  1.3203  1.4876
  942MOL0     H27140   0.092   0.116  13.222 -3.6533 -0.5823  1.0468
  942MOL0     H27141  -0.010   0.205  13.106 -0.0424 -3.1779 -0.5067
  942MOL0     H27142  -0.080   0.361  13.254 -3.1552 -1.7284  1.3351
  942MOL0     H27143   0.054   0.315  13.365  0.7253 -2.1717  0.1349
  942MOL0     H27144  -0.167   0.128  13.282  1.7662  1.3883 -3.0067
  942MOL0     H27145  -0.063   0.108  13.424  0.4621 -0.3104  0.5766
  942MOL0     H27146  -0.279   0.321  13.390 -0.4864 -1.8285 -2.7656
  942MOL0     H27147  -0.170   0.306  13.531 -0.3147 -0.5309  0.6299
  942MOL0     H27148  -0.400   0.189  13.563 -1.2480  0.1018 -1.7826
  942MOL0     H27149  -0.348   0.069  13.446  0.3484 -0.8865 -0.0350
  942MOL0     H27150   0.640   0.322  12.894 -2.1750  0.2842  0.6884
  942MOL0     H27151   0.832   0.443  12.779  0.2183  1.1179  0.5691
  942MOL0     H27152   0.853   1.015  12.664 -0.1777  2.3199 -0.0319
  942MOL0     H27153   1.060   1.122  12.627 -2.3768  0.3311 -0.2582
  942MOL0     H27154   2.471   1.344  11.572  1.3214 -1.6090 -1.8077
  942MOL0     H27155   2.649   1.386  11.417 -0.8889 -1.8354  0.6285
  942MOL0     H27156   2.959   1.360  11.257 -2.8273  1.2813 -0.2865
  942MOL0     H27157   3.080   1.353  11.060 -1.3073  0.2762 -1.9459
  942MOL0     H27158   3.250   1.359  10.916 -1.6982  1.2202  3.1022
  942MOL0     H27159   3.292   1.464  10.785 -2.3806 -0.5165 -3.2860
  942MOL0     H27160   3.003   1.374  10.846  2.0082 -0.3141  0.7764
  942MOL0     H27161   3.111   1.330  10.708  0.4287 -2.9938  2.7048
  942MOL0     H27162   3.113   1.576  10.645 -0.3372  1.4088  0.6601
  942MOL0     H27163   2.988   1.618  10.762 -1.2048 -0.8053 -1.3442
  942MOL0     H27164   2.822   1.477  10.654  0.4319 -2.9339  0.0772
  942MOL0     H27165   2.879   1.624  10.570  1.7677  0.2731  0.7919
  942MOL0     H27166   2.977   1.345  10.272 -0.8789  1.2003 -2.5064
  942MOL0     H27167   3.129   1.780  11.060 -0.6170  0.3813 -1.1521
  942MOL0     H27168   3.064   1.842  11.371 -0.3727 -0.5125 -0.3943
  942MOL0     H27169   3.004   1.914  11.209 -2.3034  1.3052 -0.6355
  942MOL0     H27170   2.897   1.848  11.316  1.0552  2.4791  1.8106
  943MOL0     O27171   5.312   0.836   9.643 -0.5166  1.0279 -0.3942
  943MOL0     C27172   5.340   0.813   9.766 -0.0689  0.2727  0.0054
  943MOL0     O27173   5.242   0.796   9.869  0.1831 -1.0501 -0.1890
  943MOL0     C27174   5.105   0.813   9.843 -0.0522  0.7084 -0.5060
  943MOL0     C27175   5.064   0.911   9.753  0.3688  0.3926 -0.7852
  943MOL0     C27176   4.926   0.934   9.734  0.0609 -0.1229  0.7641
  943MOL0     C27177   4.833   0.861   9.797 -0.8568 -0.0605 -0.4074
  943MOL0     O27178   4.700   0.880   9.767  0.4819 -0.2901 -0.0432
  943MOL0     C27179   4.601   0.845   9.863  0.2863 -0.0270 -0.0107
  943MOL0     C27180   4.514   0.974   9.900 -0.2993  0.0889  0.8896
  943MOL0     C27181   4.569   1.042  10.027  1.3191 -0.0059  1.0221
  943MOL0     C27182   4.468   1.144  10.073 -0.4821 -0.2737  0.4105
  943MOL0     C27183   4.456   1.280   9.975 -0.9776  0.2658 -0.2133
  943MOL0     C27184   4.390   1.389  10.060  0.6923  0.6710 -0.7028
  943MOL0     C27185   4.239   1.359  10.094 -0.3437  1.1046  0.3023
  943MOL0     C27186   4.200   1.486  10.171  0.1062 -0.4846 -0.5242
  943MOL0     N27187   4.070   1.474  10.244 -0.1813  0.7723  0.2515
  943MOL0     C27188   4.046   1.422  10.368  0.0941  0.0613 -0.1476
  943MOL0     C27189   3.914   1.410  10.387 -0.0532  1.1604  0.2106
  943MOL0     C27190   3.848   1.361  10.513  0.2924 -0.3801  0.7297
  943MOL0     C27191   3.801   1.215  10.485 -0.1666 -0.0456 -0.1242
  943MOL0     C27192   3.742   1.156  10.614 -0.1936  0.1591 -1.1170
  943MOL0     C27193   3.853   1.082  10.692  0.2137 -0.2664 -0.1956
  943MOL0     O27194   3.780   1.025  10.806 -0.7218 -0.1059 -0.8171
  943MOL0     C27195   3.766   0.886  10.804  0.0971  0.0499 -0.3665
  943MOL0     C27196   3.806   0.797  10.706 -0.1202  0.0279 -0.0148
  943MOL0     C27197   3.776   0.659  10.720 -1.2061  0.1261  0.3731
  943MOL0     C27198   3.710   0.608  10.835  0.8763  1.1326  1.4540
  943MOL0     C27199   3.704   0.461  10.855  0.1042 -0.1070 -1.0672
  943MOL0     O27200   3.776   0.378  10.774  0.5648 -0.3731  0.6007
  943MOL0     C27201   3.774   0.247  10.790 -0.6291 -0.1914  0.9798
  943MOL0     C27202   3.655   0.182  10.763 -0.5449 -0.2567 -0.3321
  943MOL0     C27203   3.645   0.045  10.761 -0.0647  0.1043 -0.2934
  943MOL0     C27204   3.752  -0.034  10.815 -1.1646  0.2496  0.2312
  943MOL0     O27205   3.725  -0.164  10.842  0.2993 -0.2235 -0.0612
  943MOL0     C27206   3.828  -0.250  10.883  0.1452 -1.6641  0.1864
  943MOL0     C27207   3.778  -0.386  10.898  0.3531  0.3272  0.3241
  943MOL0     C27208   3.730  -0.454  10.772 -0.5426 -0.0915  0.4691
  943MOL0     C27209   3.720  -0.614  10.793 -0.2203 -0.2178 -0.9573
  943MOL0     C27210   3.688  -0.669  10.651  0.8045  0.8009 -0.6913
  943MOL0     C27211   3.648  -0.819  10.642 -0.1039 -0.0482  0.4148
  943MOL0     C27212   3.766  -0.917  10.673 -0.5569  0.1991 -0.6578
  943MOL0     C27213   3.743  -1.005  10.797 -0.3619 -0.9149  0.7076
  943MOL0    Cl27214   3.628  -1.138  10.788 -0.5817 -0.2741 -0.0755
  943MOL0     C27215   3.871   0.034  10.838  0.1058  0.0751  0.5364
  943MOL0     C27216   3.892   0.171  10.816  0.3008 -0.5969 -1.2143
  943MOL0     O27217   3.640   0.419  10.955 -0.2509  0.0087 -0.3072
  943MOL0     C27218   3.667   0.694  10.932  0.0936 -0.2891 -0.8460
  943MOL0     C27219   3.705   0.828  10.919 -0.3506 -0.1768  0.6266
  943MOL0     N27220   3.848   1.458  10.273  0.0470 -0.0373  0.9158
  943MOL0     N27221   3.948   1.492  10.184 -0.7612 -0.2040  0.5388
  943MOL0     C27222   4.876   0.760   9.886 -0.5810  0.7069  0.9818
  943MOL0     C27223   5.014   0.739   9.903 -0.5357 -0.2711  0.2448
  943MOL0     C27224   5.479   0.791   9.815 -0.5225  1.0541 -0.3727
  943MOL0     C27225   5.505   0.801   9.951 -0.4696 -0.5137 -0.1223
  943MOL0     C27226   5.640   0.794   9.999 -0.2437 -0.1732 -0.0390
  943MOL0     C27227   5.755   0.788   9.914  1.1997  0.0067  0.1333
  943MOL0     O27228   5.888   0.814   9.943  0.7360 -0.4001 -0.2069
  943MOL0     C27229   5.927   0.849  10.078  0.3422  0.5772  0.6061
  943MOL0     C27230   6.081   0.858  10.078  0.1776 -0.7604  1.0887
  943MOL0     C27231   6.107   0.979   9.974  0.9235  0.2855  0.3013
  943MOL0     C27232   6.249   1.028  10.004 -0.3706  0.3699  0.0712
  943MOL0     C27233   6.281   1.079  10.143 -0.2946  0.9201 -0.1926
  943MOL0     C27234   6.298   1.140  10.250 -0.4588  0.5010 -0.4329
  943MOL0     C27235   5.724   0.783   9.785  0.1863  0.5718 -0.9404
  943MOL0     C27236   5.591   0.776   9.733  0.2163 -0.4703 -0.1435
  943MOL0     C27237   5.578   0.759   9.581  0.3246  0.9487  1.1256
  943MOL0     H27238   5.132   0.978   9.702  0.9188  1.9633  1.8368
  943MOL0     H27239   4.903   0.994   9.646 -0.0793 -1.3210 -0.0411
  943MOL0     H27240   4.531   0.776   9.816  3.6134 -1.8043 -2.7605
  943MOL0     H27241   4.629   0.791   9.954 -0.6290  2.0716  1.5962
  943MOL0     H27242   4.414   0.937   9.924 -1.5586  0.4335 -3.0494
  943MOL0     H27243   4.495   1.030   9.808 -3.0524 -3.4933 -0.9685
  943MOL0     H27244   4.662   1.093  10.000  1.5886 -2.5947 -4.2979
  943MOL0     H27245   4.590   0.962  10.098 -1.5352 -1.6416  0.1859
  943MOL0     H27246   4.366   1.105  10.080  0.1791 -1.9956  1.1062
  943MOL0     H27247   4.497   1.173  10.175 -3.4000 -1.4013  1.6970
  943MOL0     H27248   4.558   1.313   9.953 -0.5731 -0.1537  0.9388
  943MOL0     H27249   4.413   1.256   9.877  0.5561 -3.4529 -0.1694
  943MOL0     H27250   4.444   1.405  10.154 -2.1104 -0.9719  1.3523
  943MOL0     H27251   4.397   1.483  10.004 -0.4211  1.3310  0.2283
  943MOL0     H27252   4.223   1.261  10.140 -0.6694  0.6288 -0.7928
  943MOL0     H27253   4.183   1.352  10.000 -1.1534  0.0501  0.8420
  943MOL0     H27254   4.268   1.515  10.251 -1.2725  1.3698  0.0644
  943MOL0     H27255   4.195   1.563  10.093 -1.1866 -2.7517 -2.8425
  943MOL0     H27256   4.122   1.386  10.436  1.3693  0.3515 -1.3541
  943MOL0     H27257   3.910   1.369  10.602  3.4892 -0.9185 -1.2964
  943MOL0     H27258   3.762   1.426  10.530 -0.3173 -0.5579 -1.3852
  943MOL0     H27259   3.733   1.221  10.400 -0.3167 -2.7794 -0.2634
  943MOL0     H27260   3.884   1.157  10.445  1.0506 -0.6655  2.9972
  943MOL0     H27261   3.664   1.080  10.601  0.1757 -0.9922  2.2014
  943MOL0     H27262   3.690   1.226  10.681  1.4791 -1.5808  2.2464
  943MOL0     H27263   3.935   1.150  10.716  1.2054  0.3383 -4.4805
  943MOL0     H27264   3.903   1.005  10.633 -1.3758 -2.7237  1.4288
  943MOL0     H27265   3.849   0.830  10.612 -0.5244  0.8145  0.0664
  943MOL0     H27266   3.786   0.596  10.632  0.0922 -0.7334  1.1014
  943MOL0     H27267   3.567   0.241  10.739 -0.0672 -0.8808 -4.0952
  943MOL0     H27268   3.546   0.001  10.752 -0.9400  1.8195  0.4766
  943MOL0     H27269   3.915  -0.250  10.816  0.2254 -1.2444  0.2898
  943MOL0     H27270   3.872  -0.227  10.980  6.8086 -1.4219 -2.4019
  943MOL0     H27271   3.862  -0.453  10.923 -0.0312 -1.5859 -3.0019
  943MOL0     H27272   3.705  -0.392  10.980 -0.4189 -1.1889 -0.4241
  943MOL0     H27273   3.630  -0.425  10.737  0.0254 -0.1597 -1.3249
  943MOL0     H27274   3.813  -0.438  10.703  0.6143 -0.7794  1.6662
  943MOL0     H27275   3.633  -0.617  10.860  0.0112  1.3378 -0.5507
  943MOL0     H27276   3.799  -0.659  10.854 -2.1438  1.1897  2.9271
  943MOL0     H27277   3.768  -0.643  10.581  1.9768 -0.6501  0.0497
  943MOL0     H27278   3.602  -0.606  10.625 -0.1851  0.1991  0.9393
  943MOL0     H27279   3.565  -0.842  10.709  0.1229 -1.9192  0.1161
  943MOL0     H27280   3.619  -0.837  10.538 -0.4970 -0.0284  0.5195
  943MOL0     H27281   3.858  -0.857  10.684  0.9638 -2.4256  3.2018
  943MOL0     H27282   3.795  -0.981  10.590  1.4505 -2.8018  2.0715
  943MOL0     H27283   3.834  -1.061  10.820  0.6535 -0.3912 -1.6877
  943MOL0     H27284   3.713  -0.951  10.887  3.1692 -1.1086  2.1740
  943MOL0     H27285   3.949  -0.036  10.867 -0.9136 -1.3089  0.0405
  943MOL0     H27286   3.995   0.206  10.818  0.6136 -1.4865  1.4196
  943MOL0     H27287   3.621   0.659  11.023  2.8173  0.3506  0.9098
  943MOL0     H27288   3.682   0.908  10.990  4.0840 -0.0118  2.2268
  943MOL0     H27289   4.806   0.704   9.947 -2.0728 -0.1020 -1.3226
  943MOL0     H27290   5.061   0.666   9.968  3.7872  0.7107 -1.4380
  943MOL0     H27291   5.431   0.806  10.030  0.7433 -3.4645  1.3500
  943MOL0     H27292   5.652   0.812  10.105 -3.9642  3.5711  0.0457
  943MOL0     H27293   5.896   0.773  10.151 -0.8746  2.1057  1.7398
  943MOL0     H27294   5.885   0.941  10.119 -0.4040  0.8083 -0.6487
  943MOL0     H27295   6.131   0.763  10.062 -0.5787 -1.3897  2.3186
  943MOL0     H27296   6.114   0.883  10.179  0.8850  3.2020  0.0596
  943MOL0     H27297   6.033   1.057   9.996  0.6771  1.7975 -4.5256
  943MOL0     H27298   6.089   0.931   9.877 -0.8534 -1.3684  1.3779
  943MOL0     H27299   6.318   0.947   9.981 -0.4045 -0.1318  1.6121
  943MOL0     H27300   6.278   1.108   9.935  1.6339 -1.7602 -1.6891
  943MOL0     H27301   6.304   1.188  10.346 -0.8389 -1.2208  0.5047
  943MOL0     H27302   5.819   0.774   9.733  2.4859  0.1007  2.9420
  943MOL0     H27303   5.654   0.686   9.551 -1.1932 -0.1022 -0.3053
  943MOL0     H27304   5.488   0.708   9.544  1.9494 -1.4767  0.2405
  943MOL0     H27305   5.591   0.857   9.536  2.1012  0.8050  1.2664
  944MOL0     O27306  10.828   3.996   9.656  0.5317  0.0320  0.7078
  944MOL0     C27307  10.892   3.983   9.757  0.2660 -0.3844 -0.2995
  944MOL0     O27308  10.941   3.869   9.807  0.7967 -0.1589  0.2575
  944MOL0     C27309  10.922   3.755   9.730 -0.6353  0.2963  0.9897
  944MOL0     C27310  10.807   3.669   9.744  0.0156  0.4839 -0.5812
  944MOL0     C27311  10.786   3.555   9.658  0.7775 -0.0732 -0.2927
  944MOL0     C27312  10.863   3.542   9.542 -0.0512  0.6283 -0.7554
  944MOL0     O27313  10.862   3.435   9.459  0.9200  0.2744 -0.4108
  944MOL0     C27314  10.741   3.352   9.443 -0.7213 -1.0230 -0.4554
  944MOL0     C27315  10.723   3.247   9.548  0.7697 -0.9737 -0.3890
  944MOL0     C27316  10.775   3.112   9.505  0.3612  0.8122 -0.2457
  944MOL0     C27317  10.926   3.110   9.528 -0.4993 -0.0499 -0.8579
  944MOL0     C27318  10.983   2.969   9.499 -0.5178 -0.2656 -0.5343
  944MOL0     C27319  10.957   2.880   9.622  0.2153 -1.1769  0.3330
  944MOL0     C27320  11.035   2.746   9.616 -0.4431  0.4859  0.1248
  944MOL0     C27321  11.182   2.751   9.649  0.9349 -0.0177 -0.2119
  944MOL0     N27322  11.243   2.626   9.611 -0.4660 -0.0131  0.1518
  944MOL0     C27323  11.201   2.506   9.646  0.5695  0.4206  0.3514
  944MOL0     C27324  11.301   2.418   9.614 -0.8019 -1.1725 -0.6861
  944MOL0     C27325  11.298   2.269   9.617 -0.1142 -0.0076  0.2960
  944MOL0     C27326  11.320   2.207   9.474  0.4412 -0.3059 -0.3582
  944MOL0     C27327  11.208   2.251   9.372 -0.6076  0.1645  0.3317
  944MOL0     C27328  11.184   2.132   9.275  0.9752 -0.6655 -0.1903
  944MOL0     O27329  11.304   2.117   9.193  0.0169 -0.3541 -0.3409
  944MOL0     C27330  11.283   2.054   9.075 -0.3632 -0.3338  0.5395
  944MOL0     C27331  11.346   2.105   8.962 -0.6243  0.5096  0.0748
  944MOL0     C27332  11.336   2.037   8.848  0.1449  0.5081 -0.0825
  944MOL0     C27333  11.260   1.921   8.840  0.8631  0.6617 -0.0938
  944MOL0     C27334  11.250   1.850   8.708 -0.0000 -0.2785  0.1232
  944MOL0     O27335  11.282   1.918   8.595  0.6402  0.4011  0.4354
  944MOL0     C27336  11.280   1.860   8.472 -0.4107  0.1388  1.8682
  944MOL0     C27337  11.231   1.734   8.425  0.8065  0.4633 -0.3485
  944MOL0     C27338  11.255   1.689   8.298  0.9770 -0.8396 -0.1168
  944MOL0     C27339  11.320   1.770   8.206 -0.7240  0.7590  0.0535
  944MOL0     O27340  11.316   1.729   8.076  0.6667  0.0782  0.0797
  944MOL0     C27341  11.439   1.691   8.016  0.8148 -0.6401 -0.7634
  944MOL0     C27342  11.459   1.726   7.864  0.3058  0.6561 -0.0169
  944MOL0     C27343  11.482   1.874   7.826 -0.5733 -0.2813  0.6297
  944MOL0     C27344  11.508   1.891   7.672  0.4070  0.5331 -0.9411
  944MOL0     C27345  11.370   1.863   7.614  0.0588 -0.1192  0.2198
  944MOL0     C27346  11.373   1.902   7.468 -1.1169 -0.1831  0.4332
  944MOL0     C27347  11.245   1.899   7.391  0.4955 -0.1217  0.2006
  944MOL0     C27348  11.246   1.901   7.234  0.0787 -0.0675 -0.1155
  944MOL0    Cl27349  11.080   1.939   7.165  0.1588  0.0523  0.1941
  944MOL0     C27350  11.371   1.889   8.247  0.1459 -0.3034  0.1101
  944MOL0     C27351  11.350   1.940   8.376 -0.9221 -0.7048 -0.7844
  944MOL0     O27352  11.227   1.727   8.714  0.3749 -0.9568 -0.5435
  944MOL0     C27353  11.190   1.872   8.954 -0.1712  0.1110  0.4316
  944MOL0     C27354  11.210   1.936   9.075 -0.4910  1.2191  0.1738
  944MOL0     N27355  11.404   2.500   9.562 -0.0823 -0.6673 -0.0483
  944MOL0     N27356  11.363   2.624   9.568  0.0381 -0.1307 -0.0049
  944MOL0     C27357  10.976   3.616   9.535 -0.9242  0.4834  0.7512
  944MOL0     C27358  11.003   3.721   9.624 -0.4816 -0.4173 -0.1419
  944MOL0     C27359  10.923   4.109   9.836 -0.5117 -0.2218 -0.0536
  944MOL0     C27360  11.025   4.099   9.922 -0.6792 -0.0653  0.0044
  944MOL0     C27361  11.069   4.207  10.004  0.1578  0.1660 -0.2768
  944MOL0     C27362  10.988   4.325  10.004  0.6729 -1.4457 -0.8080
  944MOL0     O27363  11.004   4.449  10.067 -0.3887 -0.2821 -0.0341
  944MOL0     C27364  11.103   4.439  10.167  0.4187  0.3335 -0.1432
  944MOL0     C27365  11.114   4.553  10.269  0.2118 -0.2191 -0.3857
  944MOL0     C27366  10.981   4.591  10.334 -0.8026  0.7779  0.2421
  944MOL0     C27367  10.986   4.708  10.438  0.2272  0.3033 -0.5157
  944MOL0     C27368  11.059   4.825  10.402 -0.4641  0.5973 -0.0739
  944MOL0     C27369  11.144   4.905  10.369  0.2153  0.0930  0.9296
  944MOL0     C27370  10.888   4.339   9.905 -0.7388  0.1760  0.5833
  944MOL0     C27371  10.854   4.235   9.817  0.0226  0.7758  0.5167
  944MOL0     C27372  10.729   4.260   9.721 -0.1434 -0.2029 -0.1391
  944MOL0     H27373  10.745   3.698   9.829  0.7522 -2.1087  0.9705
  944MOL0     H27374  10.698   3.493   9.666 -0.2290  1.0353 -2.2085
  944MOL0     H27375  10.649   3.410   9.444 -2.7217 -3.9135 -1.5856
  944MOL0     H27376  10.748   3.302   9.346  1.8376 -0.3415 -0.7133
  944MOL0     H27377  10.615   3.236   9.563  0.5887 -1.0467 -1.6547
  944MOL0     H27378  10.763   3.284   9.643 -4.4222  2.9883  0.7451
  944MOL0     H27379  10.754   3.084   9.401  2.2370 -0.7547 -0.2533
  944MOL0     H27380  10.728   3.048   9.581 -0.1810  2.3221  0.7367
  944MOL0     H27381  10.965   3.187   9.460 -1.6116  0.4277 -0.9683
  944MOL0     H27382  10.955   3.143   9.628  4.5265  3.4651 -3.0194
  944MOL0     H27383  10.951   2.930   9.403  2.5473 -1.0003 -1.3831
  944MOL0     H27384  11.092   2.976   9.487 -0.7063 -0.5515 -2.8677
  944MOL0     H27385  10.993   2.931   9.712  0.2129  3.6648 -2.0360
  944MOL0     H27386  10.849   2.862   9.625 -0.2757 -0.3969 -4.6276
  944MOL0     H27387  11.019   2.708   9.515 -2.2315  0.1164  0.5161
  944MOL0     H27388  10.984   2.680   9.686  0.0598  0.1642  0.1929
  944MOL0     H27389  11.233   2.843   9.616  2.2129  0.3619  2.5223
  944MOL0     H27390  11.194   2.762   9.757 -0.1367 -0.0230 -0.0901
  944MOL0     H27391  11.112   2.478   9.701  1.7339  2.7960  3.7911
  944MOL0     H27392  11.374   2.232   9.687 -0.5081 -0.1633  0.6444
  944MOL0     H27393  11.207   2.227   9.661  0.7334 -1.0728  1.0654
  944MOL0     H27394  11.421   2.227   9.436  0.1733 -0.4024 -1.1400
  944MOL0     H27395  11.301   2.100   9.487 -0.1880 -0.2648 -0.8716
  944MOL0     H27396  11.249   2.342   9.329  0.1765  0.1235  0.9736
  944MOL0     H27397  11.110   2.273   9.415 -0.4997  0.7081  0.3040
  944MOL0     H27398  11.093   2.139   9.216  0.8501 -0.0506  0.0644
  944MOL0     H27399  11.178   2.047   9.344 -2.1327  1.3237  2.3215
  944MOL0     H27400  11.420   2.184   8.969 -2.2558  2.5842 -3.2922
  944MOL0     H27401  11.399   2.062   8.763  0.3372  2.1648  0.5100
  944MOL0     H27402  11.189   1.668   8.500  1.1678  0.4292 -0.1759
  944MOL0     H27403  11.223   1.590   8.266  2.4763 -1.1700 -0.6576
  944MOL0     H27404  11.519   1.738   8.074 -0.3108 -1.0288  1.1882
  944MOL0     H27405  11.457   1.586   8.041  1.0537 -0.4680 -0.1904
  944MOL0     H27406  11.545   1.675   7.819  0.4574  1.6431 -0.8762
  944MOL0     H27407  11.379   1.684   7.803  0.3474  3.4507 -2.1688
  944MOL0     H27408  11.399   1.940   7.852 -1.3233 -1.3755  1.0860
  944MOL0     H27409  11.569   1.906   7.885  1.5408 -2.5105 -1.0798
  944MOL0     H27410  11.575   1.810   7.638 -0.7651 -1.1203  0.5080
  944MOL0     H27411  11.548   1.986   7.636  1.4760 -1.3279 -5.3590
  944MOL0     H27412  11.287   1.912   7.665 -5.0291 -2.4411 -4.7097
  944MOL0     H27413  11.351   1.755   7.615  3.4271 -0.8233  1.1686
  944MOL0     H27414  11.422   2.000   7.469  0.6244 -0.7267 -4.6968
  944MOL0     H27415  11.449   1.844   7.415 -1.2016 -1.5882  1.7906
  944MOL0     H27416  11.191   1.985   7.431  1.9641  0.6215  0.6585
  944MOL0     H27417  11.205   1.802   7.421  2.1692 -0.5328  1.2035
  944MOL0     H27418  11.326   1.967   7.198  3.2147 -2.6043  1.6112
  944MOL0     H27419  11.271   1.799   7.202  1.1877 -0.2221  1.1443
  944MOL0     H27420  11.426   1.953   8.178  0.5005  0.0253  0.6839
  944MOL0     H27421  11.397   2.032   8.407 -2.3553 -1.0376  2.9310
  944MOL0     H27422  11.150   1.771   8.956  3.7991 -1.6522  1.5047
  944MOL0     H27423  11.165   1.900   9.166  3.4078  0.5343  2.0515
  944MOL0     H27424  11.042   3.605   9.449 -1.8001  1.9051 -0.1525
  944MOL0     H27425  11.094   3.781   9.621 -0.3677 -0.5418  0.5327
  944MOL0     H27426  11.089   4.012   9.931 -2.4427 -1.2699  1.6438
  944MOL0     H27427  11.151   4.205  10.074  0.4596  2.0582 -0.5262
  944MOL0     H27428  11.193   4.436  10.105  2.5015 -1.8053  2.6793
  944MOL0     H27429  11.098   4.349  10.229  0.8049  1.0717  1.0059
  944MOL0     H27430  11.165   4.639  10.226 -2.7559  3.3985  2.6284
  944MOL0     H27431  11.167   4.518  10.358 -2.9445 -3.3743  0.5140
  944MOL0     H27432  10.932   4.496  10.360  1.9150 -1.3098 -1.6655
  944MOL0     H27433  10.919   4.637  10.257 -1.9342 -0.8465  0.1144
  944MOL0     H27434  10.882   4.725  10.468  0.3415  0.4191 -0.1796
  944MOL0     H27435  11.033   4.676  10.532 -2.1608  2.3802  1.5347
  944MOL0     H27436  11.216   4.973  10.327 -0.8272 -0.4395 -1.9701
  944MOL0     H27437  10.820   4.423   9.894 -0.8954 -0.2640 -3.0072
  944MOL0     H27438  10.664   4.335   9.767  2.1765  0.9944  1.3846
  944MOL0     H27439  10.758   4.286   9.619  1.3358 -1.4347 -0.0638
  944MOL0     H27440  10.667   4.169   9.719 -1.3608  0.6123 -2.3539
  945MOL0     O27441   5.913   2.211   2.635  0.9719 -0.5074 -0.6566
  945MOL0     C27442   5.855   2.260   2.734 -0.5686  0.5431  0.2267
  945MOL0     O27443   5.902   2.360   2.820 -0.0843 -0.6077 -0.4202
  945MOL0     C27444   6.036   2.386   2.824 -1.2383  0.5804  0.5980
  945MOL0     C27445   6.136   2.292   2.791  0.6656 -0.3041 -0.6315
  945MOL0     C27446   6.270   2.334   2.761 -0.4818  0.2762 -0.3634
  945MOL0     C27447   6.311   2.467   2.779 -0.4606  0.6207 -0.3629
  945MOL0     O27448   6.434   2.529   2.756  0.4723 -0.7126  0.2406
  945MOL0     C27449   6.517   2.462   2.662 -0.4694  0.6699 -0.7768
  945MOL0     C27450   6.642   2.406   2.729  1.0869  0.2670 -0.4139
  945MOL0     C27451   6.607   2.275   2.802 -0.0505 -0.0635 -0.6825
  945MOL0     C27452   6.733   2.202   2.843 -0.3920 -0.5352 -0.6831
  945MOL0     C27453   6.809   2.278   2.958 -0.7789  0.7139 -1.0428
  945MOL0     C27454   6.964   2.242   2.960  1.3260  1.1673  0.0592
  945MOL0     C27455   7.046   2.312   2.861 -0.7131 -0.2464 -0.0025
  945MOL0     C27456   7.188   2.277   2.866 -0.3286  0.0652 -0.4766
  945MOL0     N27457   7.246   2.337   2.991 -0.1518  0.2672 -0.6390
  945MOL0     C27458   7.244   2.471   3.025 -0.3079  0.3027  0.5991
  945MOL0     C27459   7.311   2.467   3.139  0.6409 -0.5236  0.0942
  945MOL0     C27460   7.350   2.586   3.214 -0.1301  0.4315  0.5661
  945MOL0     C27461   7.459   2.560   3.315 -0.1070 -0.7440  0.1020
  945MOL0     C27462   7.478   2.686   3.403  0.1627 -0.1897 -0.0935
  945MOL0     C27463   7.402   2.675   3.529  0.0832  0.0050 -0.3918
  945MOL0     O27464   7.410   2.802   3.593  0.2085 -0.1121  0.1031
  945MOL0     C27465   7.369   2.825   3.728 -1.2280 -0.3245 -0.2479
  945MOL0     C27466   7.333   2.728   3.823  0.8486  0.4563  0.0847
  945MOL0     C27467   7.298   2.753   3.952 -0.6704  0.5079 -0.5998
  945MOL0     C27468   7.300   2.880   4.005  1.1453  0.1513  0.1938
  945MOL0     C27469   7.274   2.907   4.151 -0.0721  0.0920  0.3167
  945MOL0     O27470   7.239   2.806   4.239 -0.5729 -0.2012  0.0743
  945MOL0     C27471   7.207   2.830   4.371  1.6821 -0.1922 -0.2354
  945MOL0     C27472   7.297   2.882   4.463  0.9229  0.1500  0.3752
  945MOL0     C27473   7.240   2.892   4.595 -1.2656  0.4631  0.3472
  945MOL0     C27474   7.107   2.869   4.629 -0.5178  0.3999 -0.0324
  945MOL0     O27475   7.068   2.874   4.764  0.3591 -0.2178  0.6715
  945MOL0     C27476   6.955   2.788   4.806 -0.1681  0.1966 -0.3056
  945MOL0     C27477   6.955   2.765   4.956 -0.0384  0.3454 -0.0277
  945MOL0     C27478   7.066   2.673   5.005  0.4442 -0.9927  0.5290
  945MOL0     C27479   7.198   2.745   5.010 -0.1385 -0.0734 -0.3897
  945MOL0     C27480   7.314   2.656   5.058 -0.0991  0.4965  0.0779
  945MOL0     C27481   7.301   2.599   5.202  0.3194  0.8692  0.2954
  945MOL0     C27482   7.276   2.698   5.321 -1.0842 -1.1594 -0.4721
  945MOL0     C27483   7.345   2.836   5.327  0.4096 -0.0611  1.0067
  945MOL0    Cl27484   7.293   2.915   5.482 -0.2423 -0.2042  0.4793
  945MOL0     C27485   7.022   2.831   4.530  0.3714 -0.5518  1.0370
  945MOL0     C27486   7.068   2.802   4.400  0.0630 -0.4721 -0.3451
  945MOL0     O27487   7.282   3.028   4.176  0.5189  0.0462 -0.2302
  945MOL0     C27488   7.325   2.984   3.909 -0.1625 -0.6550 -0.7972
  945MOL0     C27489   7.362   2.955   3.776 -0.0008  0.5969  0.0521
  945MOL0     N27490   7.335   2.340   3.186 -0.0945 -0.2733  0.0379
  945MOL0     N27491   7.280   2.261   3.096  0.2660  0.5921  0.1911
  945MOL0     C27492   6.212   2.552   2.821 -1.3422  0.4102 -0.4219
  945MOL0     C27493   6.081   2.515   2.840  0.4224  0.5551 -0.8083
  945MOL0     C27494   5.725   2.193   2.777 -0.7805 -0.4927 -0.1315
  945MOL0     C27495   5.704   2.184   2.913  0.5834 -0.9178  0.0806
  945MOL0     C27496   5.600   2.104   2.952  0.2837  0.1141  0.3697
  945MOL0     C27497   5.510   2.043   2.869  0.6314 -0.2299  0.9354
  945MOL0     O27498   5.394   1.976   2.900 -0.1996  0.1444 -0.0524
  945MOL0     C27499   5.293   2.070   2.954 -1.1634 -0.8333  0.2209
  945MOL0     C27500   5.243   2.181   2.853  0.2700  0.6560 -0.5158
  945MOL0     C27501   5.175   2.139   2.721 -0.3635 -0.0349  0.2558
  945MOL0     C27502   5.030   2.086   2.755  0.0837  0.0995 -0.4387
  945MOL0     C27503   4.950   2.195   2.820  0.1735  0.5886 -0.3401
  945MOL0     C27504   4.887   2.295   2.853  0.5176 -0.1035  1.2912
  945MOL0     C27505   5.542   2.053   2.738  0.0171 -0.4595  0.4918
  945MOL0     C27506   5.649   2.124   2.682  0.3163 -0.4006 -0.5443
  945MOL0     C27507   5.675   2.117   2.536 -0.1226  0.3678  0.0329
  945MOL0     H27508   6.105   2.188   2.803 -2.1519  0.5238  0.0190
  945MOL0     H27509   6.335   2.253   2.731 -0.1939  1.2720 -2.6308
  945MOL0     H27510   6.461   2.381   2.615  0.1062 -0.8941  1.1293
  945MOL0     H27511   6.552   2.534   2.587 -2.6889  4.9736  1.8783
  945MOL0     H27512   6.684   2.494   2.778 -1.2405  2.3020 -1.8876
  945MOL0     H27513   6.720   2.378   2.658  0.7349 -2.6846  0.2223
  945MOL0     H27514   6.562   2.207   2.730  1.6752 -0.8812 -1.0373
  945MOL0     H27515   6.531   2.294   2.878 -1.3004 -0.4930 -1.7824
  945MOL0     H27516   6.715   2.098   2.871 -3.1909 -0.3444 -1.3939
  945MOL0     H27517   6.795   2.199   2.753  1.8746 -1.2454  0.8255
  945MOL0     H27518   6.804   2.387   2.954  0.9081  0.8598 -0.2291
  945MOL0     H27519   6.753   2.237   3.043 -0.0708 -0.9483 -1.3357
  945MOL0     H27520   7.004   2.251   3.062  2.7725 -3.0717  0.0387
  945MOL0     H27521   6.963   2.133   2.948 -3.0848  0.6467  2.7391
  945MOL0     H27522   7.022   2.419   2.863  1.0757  0.1693  0.2800
  945MOL0     H27523   7.015   2.282   2.761 -3.6348 -0.1235  0.7465
  945MOL0     H27524   7.215   2.171   2.860  0.5321  0.3660 -3.4865
  945MOL0     H27525   7.247   2.324   2.787  1.2038 -0.4868  0.3135
  945MOL0     H27526   7.205   2.552   2.963 -0.9960  0.5084  1.2734
  945MOL0     H27527   7.391   2.652   3.137  0.5982 -0.5577  0.0731
  945MOL0     H27528   7.264   2.637   3.257  0.5381  1.4964  0.6914
  945MOL0     H27529   7.415   2.479   3.374 -2.3241  1.7408  2.0865
  945MOL0     H27530   7.554   2.518   3.281  0.1202 -2.4826  2.6034
  945MOL0     H27531   7.435   2.774   3.355 -0.4554  1.1551  2.7210
  945MOL0     H27532   7.584   2.698   3.430 -0.5771  3.3003  1.8991
  945MOL0     H27533   7.450   2.599   3.592  2.1093  0.6479 -1.0846
  945MOL0     H27534   7.300   2.636   3.532  0.0569  0.0986  1.9540
  945MOL0     H27535   7.332   2.623   3.796 -0.1504  0.5629 -0.3415
  945MOL0     H27536   7.262   2.667   4.008 -1.9245 -3.3636 -6.4240
  945MOL0     H27537   7.398   2.902   4.428  0.7089 -1.2007 -1.1368
  945MOL0     H27538   7.318   2.929   4.661  1.8162  0.6976 -3.1084
  945MOL0     H27539   6.858   2.836   4.792 -2.7284 -3.9861  1.1452
  945MOL0     H27540   6.942   2.694   4.752  1.3719 -0.2932  0.1184
  945MOL0     H27541   6.961   2.864   5.001  0.0115 -0.5081  1.9285
  945MOL0     H27542   6.860   2.721   4.990  1.1652 -0.1266  2.9864
  945MOL0     H27543   7.032   2.637   5.103 -2.5774 -0.2519 -0.1429
  945MOL0     H27544   7.073   2.591   4.932 -2.1918 -0.3084 -0.6139
  945MOL0     H27545   7.185   2.837   5.068 -1.2424 -1.4090  1.6310
  945MOL0     H27546   7.224   2.784   4.912 -0.8084  4.4812  1.0261
  945MOL0     H27547   7.413   2.695   5.033 -0.5915  1.0205 -1.1332
  945MOL0     H27548   7.304   2.564   5.000 -1.1522 -0.0179  1.0309
  945MOL0     H27549   7.225   2.520   5.198  1.1993 -0.0112  0.4561
  945MOL0     H27550   7.401   2.555   5.207  1.5268  3.1301 -2.0593
  945MOL0     H27551   7.286   2.633   5.409 -2.2706 -2.0877 -1.0029
  945MOL0     H27552   7.172   2.733   5.322 -0.5570  0.7530 -3.0615
  945MOL0     H27553   7.453   2.844   5.311 -0.0941  1.1259 -3.1375
  945MOL0     H27554   7.306   2.898   5.245 -0.7017  0.8932  2.1996
  945MOL0     H27555   6.920   2.806   4.555  0.2735 -0.6314  0.5626
  945MOL0     H27556   6.998   2.763   4.326 -0.8082  0.0890  0.1666
  945MOL0     H27557   7.316   3.087   3.943 -4.8413 -1.2669  0.5305
  945MOL0     H27558   7.402   3.035   3.715 -1.1596  0.7610 -0.5167
  945MOL0     H27559   6.230   2.659   2.831  1.8068 -0.0619  0.1871
  945MOL0     H27560   6.013   2.595   2.868  1.0399  1.2379 -1.2355
  945MOL0     H27561   5.785   2.202   2.983  0.8753 -4.8266  0.9729
  945MOL0     H27562   5.586   2.098   3.060 -1.2542  1.9167  0.3345
  945MOL0     H27563   5.335   2.126   3.039  2.6847 -0.3929 -1.7663
  945MOL0     H27564   5.211   2.004   2.984 -3.6140  1.1514 -1.6136
  945MOL0     H27565   5.333   2.235   2.820 -0.0464  1.5236  0.0252
  945MOL0     H27566   5.189   2.254   2.913  1.5493  0.4566  0.9332
  945MOL0     H27567   5.230   2.067   2.660  0.5126  1.5403 -0.8681
  945MOL0     H27568   5.159   2.231   2.664 -0.2415  1.6742  2.8126
  945MOL0     H27569   4.973   2.049   2.669  0.6244 -2.1392  0.0913
  945MOL0     H27570   5.026   1.999   2.821  0.5746  1.7071  1.8471
  945MOL0     H27571   4.819   2.377   2.862 -1.0635 -0.4289 -4.1027
  945MOL0     H27572   5.482   1.994   2.670 -0.4914  1.2869 -0.6525
  945MOL0     H27573   5.597   2.084   2.467  0.3160  2.2547 -1.4478
  945MOL0     H27574   5.717   2.211   2.499 -2.7422  1.8499  0.5985
  945MOL0     H27575   5.750   2.039   2.520 -1.5732 -0.7901 -1.4672
  946MOL0     O27576  10.381   3.366   9.404 -0.0412  0.4784 -0.7590
  946MOL0     C27577  10.277   3.346   9.474  0.1268 -1.0543 -0.2940
  946MOL0     O27578  10.239   3.219   9.523 -0.8967 -0.2168 -0.0580
  946MOL0     C27579  10.308   3.110   9.474  0.1490  0.6079 -0.6506
  946MOL0     C27580  10.396   3.047   9.562  0.7038 -0.3962 -0.0504
  946MOL0     C27581  10.457   2.924   9.527 -0.6248 -0.0741 -0.2761
  946MOL0     C27582  10.452   2.874   9.404 -0.9849 -0.6878  0.0395
  946MOL0     O27583  10.520   2.759   9.370 -0.5578  0.6231 -0.9731
  946MOL0     C27584  10.628   2.762   9.272 -0.1357 -0.8018 -0.6191
  946MOL0     C27585  10.748   2.679   9.329  0.5028  0.0730  0.5652
  946MOL0     C27586  10.709   2.537   9.382  0.1163  0.1680 -0.2799
  946MOL0     C27587  10.818   2.426   9.356  0.1216  0.3086  0.3553
  946MOL0     C27588  10.762   2.294   9.401 -0.5016  0.2200  0.3860
  946MOL0     C27589  10.795   2.276   9.548  0.2797 -0.0790  0.2445
  946MOL0     C27590  10.732   2.148   9.602 -0.7886  0.1673 -0.2716
  946MOL0     C27591  10.833   2.026   9.580  0.5934  0.0702 -0.3615
  946MOL0     N27592  10.765   1.897   9.562  0.6751 -0.5367 -0.3651
  946MOL0     C27593  10.649   1.871   9.498  0.9287  0.2380 -0.5965
  946MOL0     C27594  10.620   1.741   9.513 -0.6744 -0.0127  0.5080
  946MOL0     C27595  10.500   1.682   9.456 -0.0702  0.8544 -0.3889
  946MOL0     C27596  10.418   1.574   9.545  0.1894 -0.3123  0.4278
  946MOL0     C27597  10.351   1.633   9.669 -0.3928 -0.6592  0.7592
  946MOL0     C27598  10.206   1.689   9.642 -0.8684 -0.3973  1.5459
  946MOL0     O27599  10.142   1.731   9.766 -0.1486 -0.5652  0.0279
  946MOL0     C27600  10.005   1.711   9.774  1.1440 -0.4864 -0.4319
  946MOL0     C27601   9.949   1.751   9.896  0.5588  1.4274  0.1722
  946MOL0     C27602   9.798   1.758   9.916  0.0559  0.0777 -0.7098
  946MOL0     C27603   9.713   1.715   9.818  0.7169 -0.1904  0.0197
  946MOL0     C27604   9.565   1.717   9.828 -0.4463  0.2562  0.3536
  946MOL0     O27605   9.499   1.728   9.949  0.4484  0.6500  0.0439
  946MOL0     C27606   9.373   1.780   9.945  1.4475  1.1511 -0.3800
  946MOL0     C27607   9.336   1.899   9.888 -0.5649 -0.1245  0.2533
  946MOL0     C27608   9.203   1.949   9.876  0.1733  0.0852 -0.2440
  946MOL0     C27609   9.100   1.877   9.943 -1.1322  0.0897  0.6457
  946MOL0     O27610   8.973   1.933   9.943 -0.8190  0.0961  0.3541
  946MOL0     C27611   8.862   1.848   9.925 -0.2839  0.0115  0.4712
  946MOL0     C27612   8.732   1.936   9.913 -0.9388  0.4092  0.1253
  946MOL0     C27613   8.610   1.849   9.934 -0.1265  0.3051 -0.1844
  946MOL0     C27614   8.563   1.786   9.801  0.3043 -0.4923 -0.6405
  946MOL0     C27615   8.439   1.709   9.857 -0.2600 -0.0171  0.0033
  946MOL0     C27616   8.318   1.787   9.906 -0.1982  0.9740 -0.0318
  946MOL0     C27617   8.257   1.867   9.786  0.3728 -0.1403  0.6586
  946MOL0     C27618   8.125   1.929   9.829  0.7973  0.2089 -0.0048
  946MOL0    Cl27619   8.162   2.035   9.973  0.4154 -0.0109  0.6839
  946MOL0     C27620   9.135   1.766  10.014  0.4637 -0.1535 -0.0453
  946MOL0     C27621   9.265   1.717  10.011  0.3356  0.7509  0.2478
  946MOL0     O27622   9.507   1.717   9.715  0.4050  0.2210 -0.3156
  946MOL0     C27623   9.775   1.687   9.691  0.3617  0.8440  0.7863
  946MOL0     C27624   9.917   1.695   9.672 -0.6230 -1.0852 -0.1321
  946MOL0     N27625  10.718   1.682   9.593 -0.0034 -0.2526 -0.1069
  946MOL0     N27626  10.805   1.776   9.621 -0.2856  0.3254  0.7695
  946MOL0     C27627  10.382   2.952   9.305  0.0922  0.7168 -0.1817
  946MOL0     C27628  10.301   3.058   9.343  0.2427 -0.0435 -0.4198
  946MOL0     C27629  10.221   3.471   9.534 -0.6790 -0.2378 -0.5280
  946MOL0     C27630  10.190   3.458   9.667 -0.4404  0.3360  0.8386
  946MOL0     C27631  10.132   3.565   9.737 -1.0150  0.5482  0.5285
  946MOL0     C27632  10.115   3.688   9.685 -1.0330  0.3575 -0.3243
  946MOL0     O27633  10.068   3.794   9.761 -0.1668 -0.4567  0.6975
  946MOL0     C27634  10.093   3.799   9.905  0.4183  0.1118 -0.6626
  946MOL0     C27635  10.063   3.946   9.955  0.6184  0.4342 -0.7818
  946MOL0     C27636  10.081   3.933  10.107 -1.3030  0.1178  0.9212
  946MOL0     C27637  10.039   4.063  10.176 -1.6488  0.7972  0.9293
  946MOL0     C27638   9.897   4.081  10.186 -0.2223  0.5036  0.2710
  946MOL0     C27639   9.777   4.084  10.205  0.8687  0.7138  0.5821
  946MOL0     C27640  10.137   3.708   9.552 -0.4381 -0.7426 -0.1325
  946MOL0     C27641  10.190   3.597   9.471  0.5196 -0.7180 -0.0874
  946MOL0     C27642  10.205   3.612   9.324 -0.4960  0.4190 -0.1491
  946MOL0     H27643  10.401   3.088   9.662 -1.1872 -2.4901  0.9984
  946MOL0     H27644  10.523   2.875   9.597  0.7691  1.4982 -0.4029
  946MOL0     H27645  10.593   2.731   9.173  0.6662 -1.9398 -0.5623
  946MOL0     H27646  10.665   2.865   9.275 -2.0297 -0.0833  1.5901
  946MOL0     H27647  10.794   2.737   9.409 -0.6326 -2.4659  3.2353
  946MOL0     H27648  10.818   2.672   9.245 -3.0604 -0.8028 -2.6249
  946MOL0     H27649  10.612   2.501   9.347 -0.6496  1.4365  0.4472
  946MOL0     H27650  10.702   2.550   9.491  1.0628 -1.5089  0.0088
  946MOL0     H27651  10.837   2.424   9.248 -1.2165  3.6716 -0.0728
  946MOL0     H27652  10.913   2.451   9.402  0.4262 -0.3720  0.1058
  946MOL0     H27653  10.655   2.290   9.380 -0.8352 -0.8093  2.0897
  946MOL0     H27654  10.798   2.206   9.346 -3.6805 -2.1642  1.7856
  946MOL0     H27655  10.902   2.275   9.572  0.6706  3.2394 -0.8059
  946MOL0     H27656  10.755   2.357   9.610  1.5494 -1.3873  2.8909
  946MOL0     H27657  10.630   2.131   9.567 -1.4350  2.6346  0.2030
  946MOL0     H27658  10.732   2.157   9.711  3.3168 -1.8545  0.1152
  946MOL0     H27659  10.898   2.049   9.495 -0.2787 -0.4215 -1.1891
  946MOL0     H27660  10.900   2.010   9.664  1.7552 -1.9677 -1.5962
  946MOL0     H27661  10.583   1.948   9.461  1.0961  0.7618  0.1610
  946MOL0     H27662  10.425   1.757   9.428  0.6568  1.6222 -0.2988
  946MOL0     H27663  10.531   1.628   9.366  1.2507 -0.3907  0.7782
  946MOL0     H27664  10.339   1.540   9.478  0.9595 -2.4573  0.5223
  946MOL0     H27665  10.484   1.491   9.573 -0.1288 -0.3170  1.1849
  946MOL0     H27666  10.398   1.717   9.722  1.4744 -2.2653  1.7878
  946MOL0     H27667  10.336   1.568   9.756 -2.1834  1.2296  1.9723
  946MOL0     H27668  10.155   1.619   9.576 -2.0932  0.8489  1.1198
  946MOL0     H27669  10.217   1.779   9.581 -0.7170 -2.4088 -1.6450
  946MOL0     H27670  10.011   1.786   9.978  2.3721  2.6543 -1.6194
  946MOL0     H27671   9.765   1.778  10.018  4.6669 -0.3961  1.1294
  946MOL0     H27672   9.413   1.968   9.853 -1.5378  1.2115  0.6716
  946MOL0     H27673   9.183   2.045   9.829  4.0475  0.7604 -0.8565
  946MOL0     H27674   8.875   1.769   9.851 -1.9563 -0.0892  0.2544
  946MOL0     H27675   8.852   1.800  10.023 -0.2132 -0.0350  0.4546
  946MOL0     H27676   8.723   2.017   9.986 -0.5574  1.6311 -1.1393
  946MOL0     H27677   8.742   1.988   9.817  1.4886  3.3445  1.7597
  946MOL0     H27678   8.632   1.776  10.014 -2.8440 -0.5579 -0.1055
  946MOL0     H27679   8.545   1.926   9.977  0.9331  1.5152 -0.7047
  946MOL0     H27680   8.633   1.714   9.760 -3.8715 -3.2914 -3.7174
  946MOL0     H27681   8.538   1.855   9.720  1.8727 -0.1820 -0.8904
  946MOL0     H27682   8.483   1.650   9.939  2.5262 -0.4324 -1.6594
  946MOL0     H27683   8.412   1.647   9.772  0.0693 -0.6986  0.3867
  946MOL0     H27684   8.245   1.724   9.957  2.4963 -1.4353  1.0936
  946MOL0     H27685   8.345   1.861   9.983  0.9419  1.1581 -0.5937
  946MOL0     H27686   8.243   1.808   9.695 -0.0914  2.4718 -1.1030
  946MOL0     H27687   8.320   1.949   9.749 -1.3223  1.2637  0.7116
  946MOL0     H27688   8.087   1.988   9.745  2.9432  1.8057  0.0813
  946MOL0     H27689   8.041   1.862   9.849  1.1480 -0.1212  0.3636
  946MOL0     H27690   9.065   1.706  10.071  1.0103  0.0638  0.8854
  946MOL0     H27691   9.297   1.634  10.073  2.4119  0.4652 -1.1032
  946MOL0     H27692   9.719   1.660   9.602  3.1993  1.2355 -1.2611
  946MOL0     H27693   9.948   1.674   9.570 -1.6542  2.9157 -1.4512
  946MOL0     H27694  10.385   2.913   9.204 -2.2222 -2.0130  0.6742
  946MOL0     H27695  10.252   3.105   9.258 -0.8823 -1.9187 -0.8755
  946MOL0     H27696  10.216   3.377   9.734  0.3721  0.4895  0.7165
  946MOL0     H27697  10.112   3.558   9.844  0.1791  1.7302  0.8552
  946MOL0     H27698  10.186   3.749   9.935 -0.9091 -3.2932 -1.6839
  946MOL0     H27699  10.016   3.729   9.938 -2.7851  2.7610 -1.9890
  946MOL0     H27700   9.963   3.986   9.938  1.6274  1.7410 -5.0750
  946MOL0     H27701  10.138   4.010   9.907  4.0859 -1.5044  1.6427
  946MOL0     H27702  10.187   3.906  10.115 -1.0306 -1.0457 -3.5614
  946MOL0     H27703  10.017   3.854  10.146 -1.0275 -0.4269  0.2784
  946MOL0     H27704  10.081   4.056  10.277  0.5624 -1.9310 -0.0359
  946MOL0     H27705  10.072   4.144  10.110 -0.9918  0.9158  1.3949
  946MOL0     H27706   9.672   4.103  10.209  0.5941 -0.7303  0.9466
  946MOL0     H27707  10.105   3.803   9.508  1.4134 -0.3857 -0.8067
  946MOL0     H27708  10.127   3.679   9.285 -3.6734 -1.7589  1.9803
  946MOL0     H27709  10.308   3.636   9.296 -0.9504  1.2770 -1.1379
  946MOL0     H27710  10.194   3.517   9.271  1.1189  1.0407 -1.6923
  947MOL0     O27711   6.908   6.705   9.801  0.2790 -0.5422  0.0381
  947MOL0     C27712   6.811   6.661   9.853  0.4681  1.2182  0.5073
  947MOL0     O27713   6.756   6.712   9.967  0.5687  0.0067  0.5305
  947MOL0     C27714   6.809   6.809  10.044 -0.1825 -0.7595 -0.6849
  947MOL0     C27715   6.935   6.801  10.105  0.5456 -0.8896  0.6859
  947MOL0     C27716   6.987   6.906  10.187  0.8385 -0.8561 -0.2231
  947MOL0     C27717   6.909   7.025  10.197  0.5364  0.6969  0.0447
  947MOL0     O27718   6.964   7.122  10.272 -0.0070  0.6414  0.6722
  947MOL0     C27719   6.875   7.194  10.364 -0.4241 -0.0187 -0.0303
  947MOL0     C27720   6.832   7.336  10.303  0.8841  0.6975 -0.3399
  947MOL0     C27721   6.934   7.427  10.234 -0.0370 -0.3299 -0.2014
  947MOL0     C27722   6.866   7.550  10.181 -0.0022 -0.1470 -0.8127
  947MOL0     C27723   6.797   7.641  10.288  0.9911 -0.3963  0.8792
  947MOL0     C27724   6.765   7.782  10.227 -0.0984 -0.2010  0.2442
  947MOL0     C27725   6.675   7.873  10.306 -1.0254 -0.2035  0.7429
  947MOL0     C27726   6.643   8.016  10.239 -1.1570  0.4913 -0.0864
  947MOL0     N27727   6.530   8.080  10.301 -0.0494 -0.5349  0.3900
  947MOL0     C27728   6.461   8.183  10.240 -0.7042 -0.1906 -0.2318
  947MOL0     C27729   6.350   8.198  10.321  0.7672 -0.0521 -0.1981
  947MOL0     C27730   6.237   8.294  10.288 -0.0072  0.3564 -0.5488
  947MOL0     C27731   6.134   8.313  10.402  0.4838 -0.3006  0.5570
  947MOL0     C27732   6.201   8.372  10.526 -0.0320  0.6700 -0.6661
  947MOL0     C27733   6.095   8.419  10.627 -0.0745  0.6166 -0.5021
  947MOL0     O27734   6.006   8.529  10.590  0.4323 -0.7040 -0.0791
  947MOL0     C27735   5.883   8.542  10.666 -0.6202 -1.3678  1.4067
  947MOL0     C27736   5.816   8.656  10.613  1.2680  0.0145 -0.5428
  947MOL0     C27737   5.693   8.685  10.673 -0.0769 -0.1929 -0.2912
  947MOL0     C27738   5.643   8.620  10.785 -0.0420  0.1380 -0.0942
  947MOL0     C27739   5.518   8.676  10.848  0.1394 -0.5801  0.7230
  947MOL0     O27740   5.477   8.604  10.959  0.2811  0.1415 -0.4114
  947MOL0     C27741   5.360   8.632  11.007  0.8302 -0.1836 -0.1065
  947MOL0     C27742   5.235   8.588  10.947 -0.9732 -1.4212  0.5821
  947MOL0     C27743   5.113   8.599  11.018 -0.3854 -0.0833  0.7924
  947MOL0     C27744   5.116   8.650  11.153 -0.3980  0.9509  1.0211
  947MOL0     O27745   5.002   8.679  11.217  1.3293  0.6057 -0.9016
  947MOL0     C27746   4.998   8.668  11.364 -0.1448 -1.0979 -0.3638
  947MOL0     C27747   4.871   8.681  11.424  0.4725  0.4850  0.6514
  947MOL0     C27748   4.810   8.820  11.412 -0.0507 -0.7552 -0.5585
  947MOL0     C27749   4.673   8.838  11.475 -0.0553  0.0813 -0.5679
  947MOL0     C27750   4.627   8.988  11.479 -0.3134  0.9937  0.5814
  947MOL0     C27751   4.575   9.039  11.336  0.7638 -0.3288  0.2742
  947MOL0     C27752   4.481   9.161  11.316 -1.2379 -0.1571 -0.3794
  947MOL0     C27753   4.343   9.133  11.345 -0.5000 -0.4112 -0.1596
  947MOL0    Cl27754   4.261   9.298  11.342  0.0021 -0.0497  0.4486
  947MOL0     C27755   5.245   8.673  11.208 -0.3645  0.3655 -0.0215
  947MOL0     C27756   5.366   8.662  11.147  0.8803 -0.4094 -0.6591
  947MOL0     O27757   5.457   8.774  10.796 -0.1388  0.7288  0.4036
  947MOL0     C27758   5.714   8.517  10.835 -0.2835 -0.3289 -0.3590
  947MOL0     C27759   5.828   8.470  10.765 -0.4558  0.5610  1.1576
  947MOL0     N27760   6.347   8.109  10.418  1.1258  0.4231 -0.2570
  947MOL0     N27761   6.461   8.052  10.415 -0.5908  0.6710  0.0736
  947MOL0     C27762   6.782   7.034  10.136  0.5103  0.1597 -0.2960
  947MOL0     C27763   6.740   6.925  10.056 -0.3578  0.6784  0.0775
  947MOL0     C27764   6.738   6.540   9.794  0.0661  0.0986 -0.0420
  947MOL0     C27765   6.601   6.555   9.783 -0.2491 -0.0403  0.3165
  947MOL0     C27766   6.526   6.453   9.736 -0.3613 -0.3395  0.0666
  947MOL0     C27767   6.579   6.333   9.697  0.5632  0.4655 -1.2281
  947MOL0     O27768   6.493   6.238   9.652 -0.0885 -0.1261  0.2099
  947MOL0     C27769   6.423   6.162   9.747 -0.1338  0.1603 -0.2584
  947MOL0     C27770   6.358   6.040   9.662 -0.0018 -0.7494  0.2949
  947MOL0     C27771   6.460   5.944   9.591  0.2566  0.0706  0.1843
  947MOL0     C27772   6.397   5.837   9.495  0.3334 -0.3042  0.6974
  947MOL0     C27773   6.473   5.830   9.368 -0.6278 -0.1658 -0.9745
  947MOL0     C27774   6.540   5.828   9.273  0.2157  0.6996  0.7351
  947MOL0     C27775   6.721   6.311   9.714  0.1627  0.2171  0.8608
  947MOL0     C27776   6.802   6.415   9.764 -0.8188 -0.6385  0.0118
  947MOL0     C27777   6.950   6.389   9.796 -0.5703 -0.5333  0.6384
  947MOL0     H27778   6.987   6.706  10.092 -0.0860 -1.4085  1.8319
  947MOL0     H27779   7.084   6.897  10.234  0.5840  0.4399  0.6061
  947MOL0     H27780   6.790   7.136  10.400 -1.2427  1.3950  0.3908
  947MOL0     H27781   6.935   7.209  10.454  0.2522  0.9967 -0.6258
  947MOL0     H27782   6.788   7.385  10.391  4.1485  1.5254  0.9731
  947MOL0     H27783   6.750   7.327  10.231  0.4561  0.5109  0.1643
  947MOL0     H27784   6.995   7.373  10.162  2.6647  2.8609 -0.5897
  947MOL0     H27785   7.010   7.452  10.309 -1.6017 -0.0331  1.3735
  947MOL0     H27786   6.953   7.598  10.135 -0.2505 -0.2849 -1.4324
  947MOL0     H27787   6.789   7.531  10.106 -2.3352  3.3837  0.4510
  947MOL0     H27788   6.702   7.593  10.315  0.1938  1.0871  0.8281
  947MOL0     H27789   6.853   7.649  10.382 -2.2249  0.7758  2.8447
  947MOL0     H27790   6.860   7.835  10.213  2.1168 -4.1340 -1.3219
  947MOL0     H27791   6.715   7.771  10.130  0.6641  1.0296 -0.3085
  947MOL0     H27792   6.709   7.899  10.407 -2.4786  0.6559  1.0410
  947MOL0     H27793   6.582   7.816  10.305 -0.9348 -0.6637 -4.5267
  947MOL0     H27794   6.737   8.071  10.247  1.7472 -3.6009 -2.4055
  947MOL0     H27795   6.630   8.005  10.131 -0.5009 -5.2137  0.1519
  947MOL0     H27796   6.476   8.225  10.141  0.6236 -3.0578 -1.3536
  947MOL0     H27797   6.266   8.398  10.270 -3.4656  1.6882  0.7088
  947MOL0     H27798   6.195   8.260  10.193 -0.7209  3.1775 -1.3320
  947MOL0     H27799   6.056   8.379  10.363 -0.9233 -3.0188 -1.6129
  947MOL0     H27800   6.094   8.215  10.431 -0.6707  0.3560  1.2491
  947MOL0     H27801   6.278   8.445  10.499  3.4979 -2.7202 -0.8544
  947MOL0     H27802   6.261   8.296  10.577  0.0935 -0.4300 -2.3414
  947MOL0     H27803   6.149   8.441  10.719  0.4824  0.5347 -0.8101
  947MOL0     H27804   6.032   8.331  10.643 -1.1933  1.0066 -2.4638
  947MOL0     H27805   5.850   8.722  10.534  0.2029 -0.0208 -1.0551
  947MOL0     H27806   5.642   8.775  10.638  2.0782  1.9263  1.6758
  947MOL0     H27807   5.247   8.569  10.841 -0.4227 -1.5165  0.6580
  947MOL0     H27808   5.017   8.579  10.971 -1.0902  1.1975  1.5920
  947MOL0     H27809   5.037   8.567  11.380 -1.6749 -1.6589 -0.0203
  947MOL0     H27810   5.070   8.742  11.401  0.9414 -1.8945 -0.8370
  947MOL0     H27811   4.809   8.607  11.372 -0.0869  1.3625  0.0353
  947MOL0     H27812   4.882   8.646  11.527  2.5326  1.6227  0.8669
  947MOL0     H27813   4.880   8.893  11.454  0.5668 -1.0109 -1.1200
  947MOL0     H27814   4.795   8.843  11.306 -3.6546  2.5741  0.4374
  947MOL0     H27815   4.680   8.802  11.578  3.6721  2.5872  0.2416
  947MOL0     H27816   4.599   8.775  11.425  2.0735 -2.2697 -1.0292
  947MOL0     H27817   4.706   9.049  11.524 -0.5830 -0.6531  3.6069
  947MOL0     H27818   4.540   8.983  11.545  1.9991 -1.2448  3.8233
  947MOL0     H27819   4.668   9.059  11.282 -0.5207 -0.6820 -2.2293
  947MOL0     H27820   4.529   8.957  11.280 -0.5191  1.2619 -1.0999
  947MOL0     H27821   4.488   9.198  11.214 -3.1346  0.2623 -0.4086
  947MOL0     H27822   4.523   9.239  11.380  0.0314  0.4737 -1.9346
  947MOL0     H27823   4.297   9.066  11.272 -2.0295 -1.3655  1.6126
  947MOL0     H27824   4.331   9.094  11.446  1.4170  3.5162  1.8089
  947MOL0     H27825   5.248   8.720  11.306 -1.3566  0.6202 -0.0959
  947MOL0     H27826   5.461   8.660  11.200  0.1593 -0.9845  0.6731
  947MOL0     H27827   5.683   8.465  10.925 -0.7120  2.1490  1.0109
  947MOL0     H27828   5.885   8.391  10.813  0.3077 -0.8690 -1.8739
  947MOL0     H27829   6.712   7.116  10.140  1.2614  0.7431  2.3590
  947MOL0     H27830   6.645   6.923  10.004  1.1651 -1.4850 -2.8837
  947MOL0     H27831   6.558   6.648   9.818  0.4623 -0.0811  1.3559
  947MOL0     H27832   6.418   6.449   9.728 -0.2573 -2.1956 -0.9945
  947MOL0     H27833   6.348   6.232   9.786 -0.6616  0.6114 -2.0065
  947MOL0     H27834   6.480   6.114   9.826  1.0807 -0.5088 -1.5040
  947MOL0     H27835   6.303   6.090   9.581  1.1594 -1.6736 -1.1070
  947MOL0     H27836   6.283   5.992   9.726  1.1543 -1.0771  1.4389
  947MOL0     H27837   6.522   5.901   9.670 -2.1792  3.2304  4.2081
  947MOL0     H27838   6.521   6.011   9.529  0.7013 -1.5119 -1.1854
  947MOL0     H27839   6.377   5.739   9.539  0.4276 -1.1106 -0.9766
  947MOL0     H27840   6.301   5.881   9.466  1.1318  1.8963  1.1741
  947MOL0     H27841   6.600   5.815   9.185  1.9402  1.4008  1.7601
  947MOL0     H27842   6.756   6.212   9.686 -0.6619 -0.4762  2.1981
  947MOL0     H27843   6.967   6.448   9.886 -1.9767  1.1348 -0.1186
  947MOL0     H27844   6.975   6.284   9.806 -0.8249 -0.5010  1.7131
  947MOL0     H27845   6.997   6.431   9.706 -2.4574 -1.5122 -0.8838
  948MOL0     O27846   1.892   7.410   9.056 -0.1111 -0.3294  0.7516
  948MOL0     C27847   1.881   7.455   9.173 -0.5175  0.3350 -0.6559
  948MOL0     O27848   1.934   7.572   9.224  0.3669 -0.0510 -0.0917
  948MOL0     C27849   2.035   7.633   9.165  0.2347  0.0892 -0.8186
  948MOL0     C27850   2.023   7.768   9.126 -0.1999  0.7050  0.9205
  948MOL0     C27851   2.132   7.834   9.066 -0.7981  0.4250  0.0163
  948MOL0     C27852   2.252   7.752   9.038 -0.2427  0.0614 -0.9269
  948MOL0     O27853   2.360   7.794   8.976 -0.0472  0.1653 -0.8622
  948MOL0     C27854   2.376   7.931   8.937  0.3100  0.1263 -1.2857
  948MOL0     C27855   2.518   7.954   8.870 -0.5185 -0.2899 -0.1250
  948MOL0     C27856   2.580   7.820   8.819 -0.3417  0.7381  1.0476
  948MOL0     C27857   2.735   7.822   8.787  0.2569 -0.1163 -0.3636
  948MOL0     C27858   2.785   7.696   8.727  0.4533  1.0306 -0.3424
  948MOL0     C27859   2.937   7.680   8.714 -0.3222 -0.6041 -0.0244
  948MOL0     C27860   2.961   7.569   8.611  0.5909 -0.5303 -0.1233
  948MOL0     C27861   3.103   7.562   8.559 -0.3695 -0.1807  0.1973
  948MOL0     N27862   3.142   7.679   8.488  0.3854 -0.6332 -0.4552
  948MOL0     C27863   3.109   7.717   8.366 -0.1137 -0.5564  0.6147
  948MOL0     C27864   3.174   7.836   8.344  0.0422  0.4144  0.3139
  948MOL0     C27865   3.180   7.921   8.221  0.3126  0.4091  1.1545
  948MOL0     C27866   3.291   7.876   8.126  0.3404  0.4139 -0.3112
  948MOL0     C27867   3.302   7.980   8.014 -0.9271  0.9832  0.0170
  948MOL0     C27868   3.413   7.937   7.924 -0.5501 -0.1184 -0.4133
  948MOL0     O27869   3.433   8.028   7.814 -0.0701  0.3159  0.3535
  948MOL0     C27870   3.454   8.162   7.848 -0.3749 -0.6938 -0.3084
  948MOL0     C27871   3.353   8.258   7.820 -0.0038  0.5820 -0.1842
  948MOL0     C27872   3.360   8.390   7.856  0.1564 -0.7665 -0.7049
  948MOL0     C27873   3.467   8.440   7.930  0.7734  0.6498 -0.3182
  948MOL0     C27874   3.458   8.583   7.969  0.4986  0.5770  0.0032
  948MOL0     O27875   3.341   8.648   7.944 -0.2529 -0.8326 -0.0302
  948MOL0     C27876   3.338   8.788   7.947 -0.8469 -0.1304 -0.2908
  948MOL0     C27877   3.281   8.861   8.055 -0.1637  0.1820  0.5906
  948MOL0     C27878   3.283   9.000   8.050 -0.0182  0.7730  0.2177
  948MOL0     C27879   3.360   9.062   7.955  0.8006  0.1137  0.2463
  948MOL0     O27880   3.383   9.198   7.957  0.3801 -0.6107 -0.4081
  948MOL0     C27881   3.268   9.264   7.904  0.8104  1.0603  0.5403
  948MOL0     C27882   3.309   9.374   7.810 -0.2940 -0.4161 -0.0278
  948MOL0     C27883   3.333   9.515   7.883 -0.0520  0.4132 -0.5082
  948MOL0     C27884   3.429   9.512   8.008 -0.2055 -0.4990  0.0822
  948MOL0     C27885   3.487   9.645   8.061 -0.5081  0.1115 -0.1778
  948MOL0     C27886   3.378   9.745   8.096  0.2686 -0.0864  0.6544
  948MOL0     C27887   3.423   9.891   8.097 -0.5878  0.1450 -0.4337
  948MOL0     C27888   3.318   9.992   8.148 -1.6007 -0.2244 -0.5940
  948MOL0    Cl27889   3.198  10.005   8.003  0.0679  0.5619 -0.3358
  948MOL0     C27890   3.412   8.990   7.850  0.6308 -0.2924 -0.3999
  948MOL0     C27891   3.405   8.852   7.837  0.7720  0.1447  0.4192
  948MOL0     O27892   3.553   8.630   8.022 -0.1301 -0.8174 -0.9031
  948MOL0     C27893   3.583   8.359   7.948  0.1530  0.6431 -0.8689
  948MOL0     C27894   3.573   8.217   7.913  0.7216  1.6112  0.1112
  948MOL0     N27895   3.248   7.870   8.459 -0.0449 -0.9171 -0.3650
  948MOL0     N27896   3.221   7.776   8.546 -0.8508 -0.2683  0.6518
  948MOL0     C27897   2.256   7.617   9.070  0.4026 -0.3797  0.0856
  948MOL0     C27898   2.147   7.552   9.135 -0.3619 -0.0247  0.2533
  948MOL0     C27899   1.820   7.365   9.272  0.4905 -0.6874  0.3735
  948MOL0     C27900   1.846   7.388   9.406  0.4565 -0.1090 -0.0686
  948MOL0     C27901   1.775   7.299   9.498 -0.8388 -0.2476  0.7205
  948MOL0     C27902   1.682   7.209   9.459  0.0901  0.0575 -1.1286
  948MOL0     O27903   1.597   7.137   9.539 -0.1227 -0.7265 -0.3597
  948MOL0     C27904   1.658   7.074   9.658 -0.1970  0.0651  1.1344
  948MOL0     C27905   1.557   7.067   9.768  0.4142  0.0455 -0.5499
  948MOL0     C27906   1.526   7.208   9.825 -0.0995 -1.0290  0.4354
  948MOL0     C27907   1.630   7.243   9.932  0.1714 -0.2689 -0.5588
  948MOL0     C27908   1.728   7.343   9.894  0.3151 -0.4297 -0.2046
  948MOL0     C27909   1.791   7.444   9.869 -0.5227 -0.8532 -1.0599
  948MOL0     C27910   1.652   7.207   9.328 -0.4640  1.1448 -0.7890
  948MOL0     C27911   1.714   7.278   9.230 -0.0833 -0.0536 -0.3268
  948MOL0     C27912   1.670   7.257   9.084 -0.4138  0.7018  0.1750
  948MOL0     H27913   1.925   7.814   9.139 -0.1515  0.3311  2.9060
  948MOL0     H27914   2.131   7.936   9.028 -1.1718 -0.7384 -3.4934
  948MOL0     H27915   2.289   7.967   8.880  1.7022  2.0764 -2.2860
  948MOL0     H27916   2.375   7.998   9.024  1.0959  0.4186 -1.5001
  948MOL0     H27917   2.577   7.996   8.953 -1.2535  0.5060  0.0010
  948MOL0     H27918   2.513   8.026   8.788  2.4573 -4.1529 -4.1721
  948MOL0     H27919   2.529   7.773   8.734  3.0463 -2.2959  0.4714
  948MOL0     H27920   2.558   7.732   8.881  3.5363 -1.9237 -0.9427
  948MOL0     H27921   2.754   7.902   8.715  1.0521 -2.7445 -3.3544
  948MOL0     H27922   2.784   7.839   8.883 -2.8986 -1.3567  1.6094
  948MOL0     H27923   2.745   7.609   8.781  0.5200  1.2516  0.0677
  948MOL0     H27924   2.751   7.688   8.623  0.0527 -0.7373 -0.1149
  948MOL0     H27925   2.975   7.773   8.670  0.3469 -0.6971  0.3398
  948MOL0     H27926   2.989   7.650   8.806  2.0184  0.3200 -0.9670
  948MOL0     H27927   2.909   7.583   8.516 -1.3869  2.1620  1.2018
  948MOL0     H27928   2.943   7.474   8.663  2.7997  0.6497  3.0801
  948MOL0     H27929   3.173   7.577   8.642 -0.6807 -0.1424  0.4554
  948MOL0     H27930   3.132   7.465   8.518  2.8446  0.4965  0.6144
  948MOL0     H27931   3.051   7.662   8.292 -0.2683 -0.6893  0.8307
  948MOL0     H27932   3.083   7.916   8.170  1.2595 -3.3774 -0.5576
  948MOL0     H27933   3.182   8.028   8.245  2.2688 -0.0827  3.6044
  948MOL0     H27934   3.393   7.875   8.165  2.6739  3.8206 -5.1843
  948MOL0     H27935   3.258   7.780   8.085 -3.5434  1.8173 -0.8857
  948MOL0     H27936   3.335   8.075   8.058 -0.9573  1.6109 -1.2402
  948MOL0     H27937   3.203   7.990   7.967 -1.7832 -0.5778  1.4031
  948MOL0     H27938   3.394   7.843   7.872 -0.7119 -0.1920 -0.2206
  948MOL0     H27939   3.504   7.919   7.983  0.6125 -2.4864 -2.7087
  948MOL0     H27940   3.262   8.214   7.780  1.2214 -4.4777  1.8325
  948MOL0     H27941   3.291   8.464   7.817  2.3789  1.1051 -1.3132
  948MOL0     H27942   3.235   8.819   8.144 -0.0498  3.7380  2.5246
  948MOL0     H27943   3.251   9.058   8.136 -3.6229  4.1807 -2.9978
  948MOL0     H27944   3.195   9.202   7.850  1.1678  0.6868  0.4761
  948MOL0     H27945   3.203   9.304   7.982  0.5548 -0.2657  1.0402
  948MOL0     H27946   3.393   9.346   7.745  1.8345 -2.5154  3.2838
  948MOL0     H27947   3.230   9.397   7.738  0.7633  1.2996 -0.7132
  948MOL0     H27948   3.381   9.587   7.815  1.7920 -0.2560  0.0215
  948MOL0     H27949   3.232   9.550   7.904  0.1432  0.7538 -0.1125
  948MOL0     H27950   3.521   9.453   8.001  1.5562  1.9830  0.5243
  948MOL0     H27951   3.375   9.473   8.095 -1.7832  2.9351  0.8335
  948MOL0     H27952   3.551   9.683   7.980  0.4253 -2.2910 -0.6333
  948MOL0     H27953   3.554   9.635   8.146  1.2341  0.6748 -1.4163
  948MOL0     H27954   3.295   9.738   8.024  1.1953  0.6128 -0.5082
  948MOL0     H27955   3.347   9.717   8.197  1.2753 -0.4365  0.8795
  948MOL0     H27956   3.455   9.925   7.998 -0.0466  3.6413  0.8072
  948MOL0     H27957   3.513   9.907   8.157  0.3203 -0.5932 -1.5509
  948MOL0     H27958   3.262   9.956   8.234 -1.2428  1.4476  0.3593
  948MOL0     H27959   3.349  10.096   8.158 -5.1095  0.8565  0.5140
  948MOL0     H27960   3.467   9.037   7.769  0.6591 -0.1250 -0.2846
  948MOL0     H27961   3.459   8.803   7.756  2.0394  2.6964 -0.3736
  948MOL0     H27962   3.672   8.393   8.000  1.2312 -1.8616 -0.9360
  948MOL0     H27963   3.664   8.163   7.935 -1.0507 -3.3338 -2.8691
  948MOL0     H27964   2.340   7.560   9.029  0.5060 -1.1278  1.3010
  948MOL0     H27965   2.155   7.446   9.156 -1.3649  0.2396  2.2503
  948MOL0     H27966   1.916   7.462   9.445  1.3415 -0.3270 -1.2073
  948MOL0     H27967   1.780   7.314   9.605 -1.2566 -3.8997  1.3702
  948MOL0     H27968   1.748   7.124   9.693 -0.2164  1.7939 -1.0671
  948MOL0     H27969   1.703   6.975   9.644  1.9166  1.3388 -2.1724
  948MOL0     H27970   1.603   7.005   9.846 -0.9437 -2.5003 -1.6364
  948MOL0     H27971   1.466   7.015   9.735  2.3969 -4.0902 -0.1277
  948MOL0     H27972   1.422   7.219   9.858 -1.3367 -0.6552 -3.0700
  948MOL0     H27973   1.538   7.273   9.737  0.4427 -1.8983 -0.1519
  948MOL0     H27974   1.604   7.283  10.031  2.0856 -1.2162  0.3723
  948MOL0     H27975   1.690   7.153   9.948  0.9501  0.4994  1.1514
  948MOL0     H27976   1.847   7.535   9.859 -1.7141  0.0771  0.4007
  948MOL0     H27977   1.578   7.138   9.289  0.3418  0.2455 -0.7640
  948MOL0     H27978   1.570   7.215   9.073 -1.8110  3.7590  0.2431
  948MOL0     H27979   1.651   7.357   9.043  1.8322  1.6463  1.2307
  948MOL0     H27980   1.744   7.199   9.029  0.1860  0.6773  0.9748
  949MOL0     O27981   9.552   2.461   3.759 -0.3936  1.4379  0.0602
  949MOL0     C27982   9.549   2.469   3.635  0.6914  0.8163  0.4060
  949MOL0     O27983   9.421   2.472   3.568  0.2621  0.5661 -0.1814
  949MOL0     C27984   9.305   2.513   3.622  0.0637 -1.0285  0.4402
  949MOL0     C27985   9.266   2.640   3.592 -0.7466 -0.1129 -0.1686
  949MOL0     C27986   9.146   2.682   3.656 -0.7511 -0.0227 -0.9398
  949MOL0     C27987   9.069   2.606   3.748  0.1069  0.9015  1.1692
  949MOL0     O27988   8.962   2.637   3.820  0.2909 -0.8945 -0.7623
  949MOL0     C27989   8.861   2.700   3.728 -0.2215 -0.0481 -0.0751
  949MOL0     C27990   8.821   2.627   3.601  0.2321  0.2711  0.0465
  949MOL0     C27991   8.779   2.486   3.639 -0.3574  0.5045  0.6979
  949MOL0     C27992   8.702   2.418   3.520 -0.3432  0.4879  0.4533
  949MOL0     C27993   8.734   2.269   3.507 -0.5198 -0.4426  0.9309
  949MOL0     C27994   8.881   2.246   3.466 -0.1287  0.0372  0.4280
  949MOL0     C27995   8.930   2.106   3.524  0.3774 -0.4488  0.5081
  949MOL0     C27996   9.078   2.098   3.502 -0.5650 -1.1637  0.0518
  949MOL0     N27997   9.103   2.094   3.357 -0.3605  0.5702 -0.2169
  949MOL0     C27998   9.059   2.001   3.274  0.0220  0.3993 -0.0477
  949MOL0     C27999   9.122   2.030   3.150 -0.4688 -0.7322  0.4907
  949MOL0     C28000   9.115   1.961   3.018 -0.0826  0.6760 -0.5794
  949MOL0     C28001   9.037   2.030   2.905 -0.0250  1.0854  0.7441
  949MOL0     C28002   9.030   1.941   2.779  0.2698  0.8371 -0.0451
  949MOL0     C28003   8.914   1.841   2.797 -0.5157 -0.3839 -0.4333
  949MOL0     O28004   8.800   1.924   2.773  0.8251  0.2289 -0.4558
  949MOL0     C28005   8.676   1.875   2.802 -0.8060  0.3170 -0.0502
  949MOL0     C28006   8.575   1.972   2.795 -0.0103 -0.0700 -1.0125
  949MOL0     C28007   8.444   1.942   2.817  0.3409  0.5638  0.0537
  949MOL0     C28008   8.414   1.814   2.870 -0.9102  0.3546  0.3129
  949MOL0     C28009   8.281   1.772   2.889  0.3850  0.2210  0.2202
  949MOL0     O28010   8.187   1.840   2.813  0.2372  0.0578 -0.7285
  949MOL0     C28011   8.064   1.785   2.801 -0.7555 -0.6678 -0.6963
  949MOL0     C28012   8.036   1.702   2.691  0.7890  0.0794 -0.4556
  949MOL0     C28013   7.905   1.664   2.667  0.3063 -0.9826  0.6427
  949MOL0     C28014   7.805   1.700   2.762 -0.2869  0.3853  0.1557
  949MOL0     O28015   7.672   1.654   2.745 -0.1962  0.2241 -0.1036
  949MOL0     C28016   7.654   1.522   2.686 -0.0781 -0.3136  0.6444
  949MOL0     C28017   7.509   1.482   2.721 -0.0421 -0.4938  0.7965
  949MOL0     C28018   7.417   1.494   2.597  0.3523 -0.6136  0.0196
  949MOL0     C28019   7.271   1.452   2.628 -0.7244  0.1540 -0.3561
  949MOL0     C28020   7.187   1.496   2.508  0.2414  0.8186 -0.3606
  949MOL0     C28021   7.043   1.452   2.533  0.9294 -0.4213  0.6600
  949MOL0     C28022   6.948   1.501   2.432  0.6870 -0.4866 -0.1382
  949MOL0     C28023   6.812   1.432   2.460  0.4542 -0.4732  0.1162
  949MOL0    Cl28024   6.711   1.440   2.303 -0.2233 -0.4290 -0.5384
  949MOL0     C28025   7.837   1.781   2.871  0.3291  0.7815 -1.0823
  949MOL0     C28026   7.968   1.824   2.891 -0.5245  0.7787 -0.1931
  949MOL0     O28027   8.250   1.677   2.968 -0.5991 -0.1458 -0.2234
  949MOL0     C28028   8.518   1.720   2.887  0.3051 -0.3297 -1.0544
  949MOL0     C28029   8.652   1.739   2.845 -0.1988 -0.0619 -0.0534
  949MOL0     N28030   9.200   2.149   3.173 -0.9521 -0.9567  0.1961
  949MOL0     N28031   9.188   2.176   3.296  0.5126  0.4589  0.6952
  949MOL0     C28032   9.130   2.488   3.788 -0.0782  0.8655 -0.3759
  949MOL0     C28033   9.240   2.430   3.719  0.2856 -0.5628 -0.8323
  949MOL0     C28034   9.680   2.466   3.564  0.2180  0.0600  0.1955
  949MOL0     C28035   9.781   2.544   3.624  0.3478  0.2772 -0.5029
  949MOL0     C28036   9.911   2.540   3.564 -0.2441 -0.3998  0.2991
  949MOL0     C28037   9.941   2.468   3.448  0.4101  0.2809 -0.4577
  949MOL0     O28038  10.061   2.465   3.386 -0.3878  0.6789 -0.2816
  949MOL0     C28039  10.095   2.340   3.303 -0.6428 -0.8227  0.0943
  949MOL0     C28040  10.230   2.375   3.246 -0.0737 -0.5684  1.1917
  949MOL0     C28041  10.286   2.280   3.147  0.3724 -0.0117 -0.5471
  949MOL0     C28042  10.417   2.301   3.090 -0.6816  0.2504  0.3428
  949MOL0     C28043  10.430   2.447   3.057 -0.2067  0.7456 -1.1869
  949MOL0     C28044  10.457   2.559   3.022 -0.4121 -0.3323 -0.7346
  949MOL0     C28045   9.829   2.406   3.387 -0.5570 -0.0721  0.0614
  949MOL0     C28046   9.706   2.390   3.449  0.7943  0.1258 -0.4907
  949MOL0     C28047   9.607   2.294   3.381  0.8949  0.7335  0.3090
  949MOL0     H28048   9.328   2.704   3.531 -0.3063 -2.9217 -2.9218
  949MOL0     H28049   9.114   2.783   3.636 -1.0262  0.6104  2.2612
  949MOL0     H28050   8.765   2.707   3.780 -1.1096  1.0377 -1.7611
  949MOL0     H28051   8.889   2.803   3.702  0.4869 -0.1252  0.3476
  949MOL0     H28052   8.910   2.616   3.537 -1.2558  0.9218 -2.2668
  949MOL0     H28053   8.743   2.672   3.539  1.4532  1.8670 -0.4241
  949MOL0     H28054   8.715   2.496   3.727  0.6277  1.7608  1.3060
  949MOL0     H28055   8.864   2.429   3.677  0.3254  1.9484  1.4479
  949MOL0     H28056   8.594   2.433   3.533 -0.9403 -0.7489 -2.2765
  949MOL0     H28057   8.720   2.458   3.420 -3.4011 -0.0597 -0.4303
  949MOL0     H28058   8.713   2.218   3.602  0.0962 -0.0860  1.2606
  949MOL0     H28059   8.660   2.222   3.442 -0.8962  2.0396 -0.5686
  949MOL0     H28060   8.905   2.250   3.359  0.4714 -0.9343  0.5178
  949MOL0     H28061   8.945   2.327   3.502  1.8980  0.2058 -3.1605
  949MOL0     H28062   8.879   2.020   3.479  1.3587 -1.8565  1.9546
  949MOL0     H28063   8.897   2.097   3.628 -3.8673 -1.1667 -0.6786
  949MOL0     H28064   9.123   2.192   3.535  0.4251 -1.0834 -1.4286
  949MOL0     H28065   9.136   2.025   3.559  4.5110  2.1861 -0.1428
  949MOL0     H28066   8.978   1.934   3.301 -0.7544  2.4793  3.4593
  949MOL0     H28067   9.216   1.939   2.980 -0.0682  4.4628 -3.2165
  949MOL0     H28068   9.062   1.866   3.027  0.6652  0.3664  1.0313
  949MOL0     H28069   8.938   2.060   2.939 -0.9627  0.0545 -0.9201
  949MOL0     H28070   9.091   2.122   2.880  3.3027 -0.6654  0.8483
  949MOL0     H28071   9.128   1.897   2.758  0.4465  0.5650  1.2653
  949MOL0     H28072   9.004   2.005   2.694 -2.0808 -1.6872 -1.3817
  949MOL0     H28073   8.916   1.803   2.900 -0.1969  3.4604  1.1433
  949MOL0     H28074   8.935   1.765   2.722  0.3803 -3.1419  2.4031
  949MOL0     H28075   8.603   2.072   2.762  1.3443  0.2873  0.9989
  949MOL0     H28076   8.356   2.004   2.806 -0.4666 -0.7879 -1.4774
  949MOL0     H28077   8.117   1.672   2.626  0.6235  1.6955 -1.4588
  949MOL0     H28078   7.874   1.595   2.590 -2.3745 -0.1313  0.8733
  949MOL0     H28079   7.680   1.515   2.580  2.1243 -1.8203  1.2048
  949MOL0     H28080   7.729   1.455   2.728  2.2095  2.2470  0.9320
  949MOL0     H28081   7.501   1.382   2.763  2.0053 -0.5226  1.2139
  949MOL0     H28082   7.461   1.544   2.796 -1.2010 -0.5246  0.1056
  949MOL0     H28083   7.416   1.601   2.578 -0.9679 -0.5045  0.5696
  949MOL0     H28084   7.449   1.433   2.512 -0.6985 -1.8139  0.4456
  949MOL0     H28085   7.233   1.500   2.718 -0.3034  0.2068 -0.2064
  949MOL0     H28086   7.271   1.344   2.647  2.8310 -0.6768 -3.7982
  949MOL0     H28087   7.222   1.452   2.414  0.5527 -1.8418  0.9301
  949MOL0     H28088   7.187   1.605   2.498 -1.1604  1.2473  3.0647
  949MOL0     H28089   7.036   1.342   2.537 -2.6194 -0.2853  0.6852
  949MOL0     H28090   7.006   1.480   2.632  2.2715 -2.1290  1.7340
  949MOL0     H28091   6.978   1.473   2.331 -1.2107  2.6970 -1.7446
  949MOL0     H28092   6.937   1.610   2.435  2.9188 -0.2106 -0.6735
  949MOL0     H28093   6.829   1.329   2.493  1.3690 -0.1002  0.8691
  949MOL0     H28094   6.757   1.493   2.532  0.2060  0.9528 -1.2447
  949MOL0     H28095   7.771   1.812   2.951  3.1102  0.1279  1.6711
  949MOL0     H28096   7.988   1.884   2.979 -5.0969  0.7022  1.1999
  949MOL0     H28097   8.493   1.619   2.919  0.2391  0.4535  1.5664
  949MOL0     H28098   8.730   1.666   2.862  0.4141  0.9303  1.6177
  949MOL0     H28099   9.076   2.429   3.861  0.0148  0.5129 -0.5911
  949MOL0     H28100   9.271   2.326   3.724  1.3134 -0.3252 -1.8644
  949MOL0     H28101   9.752   2.604   3.710  0.6284 -2.4511  1.6458
  949MOL0     H28102   9.982   2.599   3.620  2.0428 -1.9420 -0.8288
  949MOL0     H28103  10.026   2.326   3.219  0.3958  0.0155 -0.9289
  949MOL0     H28104  10.102   2.249   3.364 -1.2996 -0.0731  1.3492
  949MOL0     H28105  10.297   2.379   3.333  0.4113 -3.0855  0.9915
  949MOL0     H28106  10.207   2.471   3.199 -2.8632 -0.1669  3.1008
  949MOL0     H28107  10.217   2.294   3.063 -0.1478 -0.1971 -0.1518
  949MOL0     H28108  10.283   2.178   3.186 -0.1185 -0.0979 -0.8080
  949MOL0     H28109  10.492   2.259   3.156  0.5776  1.8164 -0.0240
  949MOL0     H28110  10.417   2.248   2.994 -0.2085 -1.6374  1.3526
  949MOL0     H28111  10.486   2.658   2.992  0.1104  0.2431  1.4628
  949MOL0     H28112   9.844   2.345   3.298  0.5486 -1.9680  1.4448
  949MOL0     H28113   9.637   2.264   3.280  3.7362  0.8688  1.0086
  949MOL0     H28114   9.596   2.201   3.437 -1.7501  0.0207 -1.1927
  949MOL0     H28115   9.507   2.337   3.371 -1.2272 -3.6864  0.0414
  950MOL0     O28116   6.985   7.532   3.659 -0.0440 -0.3028  0.2564
  950MOL0     C28117   7.010   7.485   3.545 -0.2888  0.0989 -0.1574
  950MOL0     O28118   7.079   7.546   3.445  0.2440 -0.1482  0.3204
  950MOL0     C28119   7.127   7.675   3.455  0.1267  0.5880 -0.3183
  950MOL0     C28120   7.163   7.759   3.558  0.5273 -0.0124  0.4586
  950MOL0     C28121   7.195   7.895   3.536 -0.0939 -0.3102 -0.6655
  950MOL0     C28122   7.195   7.952   3.406 -0.2581  0.1418 -1.3320
  950MOL0     O28123   7.232   8.081   3.388  0.4745 -0.0664  0.7175
  950MOL0     C28124   7.166   8.162   3.284 -0.1455  0.4342 -0.4635
  950MOL0     C28125   7.062   8.256   3.342 -0.5096 -0.5396 -0.3049
  950MOL0     C28126   6.933   8.189   3.391  0.0432  0.4040  0.1075
  950MOL0     C28127   6.832   8.293   3.422 -0.2153  0.0901  0.1869
  950MOL0     C28128   6.682   8.251   3.428  0.2696 -0.5818 -1.1105
  950MOL0     C28129   6.586   8.361   3.424  0.4211  0.4627 -0.3980
  950MOL0     C28130   6.441   8.300   3.434  0.4178  0.4811  0.9442
  950MOL0     C28131   6.334   8.410   3.410 -1.0385 -0.0941  0.5988
  950MOL0     N28132   6.224   8.393   3.506  0.7547 -0.4744 -0.3406
  950MOL0     C28133   6.089   8.358   3.468  0.1207 -0.4574  0.5746
  950MOL0     C28134   6.012   8.389   3.577 -0.5208 -0.4745  0.7217
  950MOL0     C28135   5.859   8.387   3.582  0.2766 -0.6227  0.5063
  950MOL0     C28136   5.784   8.280   3.506  0.0224 -1.4568 -1.0187
  950MOL0     C28137   5.629   8.299   3.521 -0.3992  0.0966 -0.2355
  950MOL0     C28138   5.557   8.192   3.456  0.6112 -0.2774 -0.4765
  950MOL0     O28139   5.425   8.203   3.503  0.1189 -0.5192 -0.0831
  950MOL0     C28140   5.336   8.267   3.426  0.0161  0.0590  0.2746
  950MOL0     C28141   5.317   8.254   3.290 -0.3808  0.4065 -0.3535
  950MOL0     C28142   5.210   8.315   3.227  1.1876  0.3250 -0.7072
  950MOL0     C28143   5.108   8.379   3.302  0.8036 -0.3692  0.5938
  950MOL0     C28144   4.989   8.431   3.229  0.6578 -0.7290  0.9273
  950MOL0     O28145   4.884   8.489   3.296  0.5355 -0.2758 -0.2408
  950MOL0     C28146   4.761   8.508   3.229 -0.5133 -0.4476  0.1556
  950MOL0     C28147   4.687   8.401   3.187  0.3600 -0.9219  1.1162
  950MOL0     C28148   4.567   8.423   3.108 -0.0095 -0.3700 -0.0826
  950MOL0     C28149   4.520   8.552   3.080  0.0093  0.8437  0.4485
  950MOL0     O28150   4.423   8.597   2.994 -0.0837 -0.3727 -0.5079
  950MOL0     C28151   4.312   8.505   2.979 -0.4022  0.0767 -0.4503
  950MOL0     C28152   4.207   8.567   2.891  0.1498 -0.2657 -0.0188
  950MOL0     C28153   4.072   8.482   2.891 -0.6027  0.6054  0.6415
  950MOL0     C28154   4.057   8.393   2.765  0.5236  0.5998  0.6246
  950MOL0     C28155   3.917   8.335   2.734 -0.1336  0.8478 -0.4528
  950MOL0     C28156   3.848   8.286   2.858 -0.0254 -0.2887  0.6044
  950MOL0     C28157   3.909   8.151   2.915  0.3011  0.4928  0.6530
  950MOL0     C28158   3.832   8.090   3.036 -0.0024 -0.2310  0.0735
  950MOL0    Cl28159   3.805   8.200   3.181 -0.4855 -0.0443  0.2608
  950MOL0     C28160   4.597   8.660   3.121  0.1839  0.3167 -0.2967
  950MOL0     C28161   4.718   8.638   3.195 -0.2114  0.0231  0.4599
  950MOL0     O28162   4.991   8.442   3.105 -0.4164 -0.2477 -0.6766
  950MOL0     C28163   5.123   8.379   3.446  0.3533 -0.6642  0.3666
  950MOL0     C28164   5.236   8.326   3.502  0.2888 -0.1895  0.7312
  950MOL0     N28165   6.097   8.429   3.681 -0.8038  0.1087  0.5993
  950MOL0     N28166   6.221   8.427   3.639 -0.0879  0.0851  0.2129
  950MOL0     C28167   7.170   7.859   3.306 -0.4152 -0.1595  0.5881
  950MOL0     C28168   7.123   7.729   3.329  0.4519 -0.3804 -0.6233
  950MOL0     C28169   6.952   7.349   3.513 -0.6154 -0.4034 -0.9169
  950MOL0     C28170   7.002   7.270   3.406 -0.2258 -0.3691  0.2599
  950MOL0     C28171   6.934   7.146   3.370 -0.7357 -0.2697  0.3277
  950MOL0     C28172   6.813   7.095   3.438 -0.7357  0.2822 -0.8548
  950MOL0     O28173   6.754   6.967   3.415 -0.2978  0.1754  0.7653
  950MOL0     C28174   6.773   6.930   3.272  0.4437  0.8688 -0.3370
  950MOL0     C28175   6.675   6.812   3.232  0.0124  0.0774  0.8326
  950MOL0     C28176   6.540   6.862   3.278 -0.2850 -0.2606 -0.4551
  950MOL0     C28177   6.415   6.805   3.234 -0.2445  0.4546  0.3786
  950MOL0     C28178   6.298   6.878   3.278 -0.5670 -0.6263  0.7869
  950MOL0     C28179   6.201   6.943   3.286  1.4021 -0.2187 -0.2988
  950MOL0     C28180   6.765   7.173   3.538  0.0387  0.5995 -0.8474
  950MOL0     C28181   6.833   7.296   3.575  0.1424  0.1006 -0.0418
  950MOL0     C28182   6.746   7.372   3.677  0.6848 -0.3624 -0.6266
  950MOL0     H28183   7.186   7.721   3.657  2.9353 -2.0238 -0.7559
  950MOL0     H28184   7.226   7.948   3.626  1.8456  0.6407 -1.8329
  950MOL0     H28185   7.249   8.225   3.250 -0.7453  2.4780  1.6131
  950MOL0     H28186   7.129   8.109   3.196  1.4973 -2.7604  0.6160
  950MOL0     H28187   7.040   8.316   3.253 -0.2067  2.2227  1.3625
  950MOL0     H28188   7.115   8.310   3.421  1.6042 -2.8314 -0.0245
  950MOL0     H28189   6.957   8.128   3.479 -1.5732 -2.0886 -1.0610
  950MOL0     H28190   6.901   8.122   3.311 -1.1391  1.4253 -0.3126
  950MOL0     H28191   6.855   8.349   3.513 -0.9513 -0.6297  0.8318
  950MOL0     H28192   6.842   8.375   3.351  0.2106 -0.1364 -0.0169
  950MOL0     H28193   6.665   8.184   3.343  1.1881 -1.9367 -0.2637
  950MOL0     H28194   6.657   8.187   3.513  0.9241  0.0625 -0.4190
  950MOL0     H28195   6.589   8.423   3.514 -3.8476 -0.3772  0.5341
  950MOL0     H28196   6.603   8.424   3.336  1.2032 -0.4781 -0.9370
  950MOL0     H28197   6.431   8.244   3.527 -3.1288  1.4844  1.3045
  950MOL0     H28198   6.433   8.224   3.356 -1.2817  1.9384 -0.3864
  950MOL0     H28199   6.376   8.511   3.413 -0.5628 -0.3066  2.7132
  950MOL0     H28200   6.293   8.398   3.309  1.7069  3.0152 -1.0879
  950MOL0     H28201   6.057   8.328   3.369 -2.5071 -1.0915  1.5342
  950MOL0     H28202   5.840   8.389   3.690  1.0059 -3.0075  0.7438
  950MOL0     H28203   5.823   8.485   3.549  0.3688 -0.9667 -0.6548
  950MOL0     H28204   5.817   8.282   3.402  0.7947  0.3967 -0.7785
  950MOL0     H28205   5.798   8.183   3.554  0.9457 -1.0252 -0.3847
  950MOL0     H28206   5.593   8.399   3.493 -1.2244 -0.5509 -1.6339
  950MOL0     H28207   5.614   8.281   3.628 -2.9682 -1.3664 -0.7554
  950MOL0     H28208   5.606   8.095   3.468  1.4081 -0.1329 -2.2626
  950MOL0     H28209   5.568   8.209   3.349 -1.0094 -0.7807 -0.7559
  950MOL0     H28210   5.385   8.213   3.216  0.3583 -0.5001  0.7854
  950MOL0     H28211   5.206   8.308   3.119 -2.1269 -0.3650 -0.6249
  950MOL0     H28212   4.719   8.298   3.200  4.8043 -0.1741 -1.6489
  950MOL0     H28213   4.509   8.340   3.070  1.7569 -2.1916  0.9915
  950MOL0     H28214   4.343   8.408   2.938 -0.8482 -0.6743  0.9156
  950MOL0     H28215   4.264   8.503   3.077  2.3699 -0.6781  0.9959
  950MOL0     H28216   4.190   8.671   2.920  2.3222 -0.2588  1.4347
  950MOL0     H28217   4.253   8.566   2.792  1.0976  2.4553  0.3080
  950MOL0     H28218   4.069   8.429   2.987  2.8021  0.5948  0.8386
  950MOL0     H28219   3.984   8.547   2.886 -0.8555  0.1983 -0.7697
  950MOL0     H28220   4.129   8.310   2.763  0.4384  0.4413 -3.1391
  950MOL0     H28221   4.078   8.458   2.680 -1.2266  2.9678  1.8885
  950MOL0     H28222   3.908   8.249   2.667 -1.2830 -1.3731  2.3338
  950MOL0     H28223   3.862   8.420   2.692 -1.7178  0.9131  1.5984
  950MOL0     H28224   3.845   8.362   2.937  0.1107 -1.8665  2.1836
  950MOL0     H28225   3.742   8.272   2.832 -0.9696  0.9319  3.4516
  950MOL0     H28226   4.011   8.168   2.950 -0.1036  1.3940  1.4432
  950MOL0     H28227   3.903   8.081   2.831 -0.2497  1.4661 -0.1295
  950MOL0     H28228   3.737   8.043   3.008 -0.6782  0.4176  1.2194
  950MOL0     H28229   3.892   8.005   3.070  0.4371 -2.0690 -4.5276
  950MOL0     H28230   4.571   8.763   3.096 -0.2415  0.7106  1.6032
  950MOL0     H28231   4.788   8.714   3.225 -0.1533  0.3997 -0.5775
  950MOL0     H28232   5.050   8.434   3.505 -2.3392 -0.3825 -2.8871
  950MOL0     H28233   5.249   8.341   3.609  1.8545  0.6485  0.4566
  950MOL0     H28234   7.155   7.891   3.203  1.0663 -1.0162  0.0732
  950MOL0     H28235   7.079   7.670   3.249  0.8607  1.9770 -2.6997
  950MOL0     H28236   7.092   7.310   3.361 -0.1326  0.0071  0.7677
  950MOL0     H28237   6.996   7.092   3.298  1.7206  2.6152  0.0890
  950MOL0     H28238   6.875   6.890   3.259  0.3987 -0.1566  1.8952
  950MOL0     H28239   6.757   7.012   3.202  1.1649  1.2273 -0.0913
  950MOL0     H28240   6.707   6.716   3.272 -4.6665 -1.1166  2.3244
  950MOL0     H28241   6.654   6.810   3.124 -2.1116  2.9885  1.0465
  950MOL0     H28242   6.547   6.967   3.248  0.0752  0.8037  2.9757
  950MOL0     H28243   6.545   6.853   3.387 -1.7815  3.4834  0.0890
  950MOL0     H28244   6.410   6.791   3.126  2.2785 -1.4551  0.4103
  950MOL0     H28245   6.413   6.699   3.263  1.2167 -0.2882 -1.9717
  950MOL0     H28246   6.112   7.003   3.295  3.2517  3.8170 -4.5342
  950MOL0     H28247   6.676   7.145   3.593 -2.1166  2.8037 -2.9841
  950MOL0     H28248   6.735   7.475   3.641  0.2652 -0.9190 -2.1531
  950MOL0     H28249   6.645   7.331   3.688  0.3070  0.0576 -2.2255
  950MOL0     H28250   6.794   7.369   3.775  0.1607  0.0503 -0.3484
  951MOL0     O28251   7.699   1.913   3.718 -0.5418  0.4069  0.0993
  951MOL0     C28252   7.577   1.934   3.703  0.0117  0.2564 -0.2461
  951MOL0     O28253   7.530   2.049   3.648 -0.6862 -0.7156 -0.2491
  951MOL0     C28254   7.592   2.164   3.701 -0.3778  0.5494 -0.0445
  951MOL0     C28255   7.613   2.269   3.609 -0.2276  0.9898  0.6611
  951MOL0     C28256   7.650   2.397   3.663 -0.1152 -0.3798  0.0822
  951MOL0     C28257   7.669   2.419   3.803  0.8003  1.2479  0.2503
  951MOL0     O28258   7.709   2.540   3.862  0.4660  0.3884  0.0894
  951MOL0     C28259   7.715   2.667   3.788  0.1556 -0.0353  0.1149
  951MOL0     C28260   7.793   2.764   3.874  0.3608  0.3300  0.2972
  951MOL0     C28261   7.937   2.714   3.908  0.3743 -0.2166 -0.5205
  951MOL0     C28262   8.024   2.827   3.966 -0.6730 -0.2093 -0.6493
  951MOL0     C28263   8.146   2.780   4.042 -0.7663  0.1169 -1.1122
  951MOL0     C28264   8.259   2.767   3.928  0.4507  0.8471  1.1591
  951MOL0     C28265   8.370   2.675   3.987  0.0342  0.0919 -0.1589
  951MOL0     C28266   8.512   2.695   3.920 -0.5752  0.3672  0.6216
  951MOL0     N28267   8.569   2.826   3.918 -0.1589 -0.2832 -0.2548
  951MOL0     C28268   8.616   2.893   4.029 -0.7862  0.5513 -0.4341
  951MOL0     C28269   8.653   3.016   3.985  0.3635  0.9319  0.1101
  951MOL0     C28270   8.675   3.145   4.060 -0.5311 -0.3987  0.2618
  951MOL0     C28271   8.577   3.152   4.179 -0.1903  0.3374 -0.0503
  951MOL0     C28272   8.599   3.273   4.265  0.1371 -0.1276 -0.9607
  951MOL0     C28273   8.650   3.248   4.407  0.1294 -0.7324 -1.4318
  951MOL0     O28274   8.541   3.196   4.494 -0.0931  0.5194  0.5785
  951MOL0     C28275   8.570   3.155   4.622  0.3652  0.3841  0.5958
  951MOL0     C28276   8.502   3.049   4.675  0.5783  0.3786 -0.2357
  951MOL0     C28277   8.545   2.991   4.798 -0.2912  0.1626  0.3974
  951MOL0     C28278   8.650   3.049   4.865  0.4971 -0.9146 -0.2947
  951MOL0     C28279   8.694   2.980   4.986  0.3477 -0.1304  0.9221
  951MOL0     O28280   8.799   3.037   5.062  0.6561 -0.2924  0.4173
  951MOL0     C28281   8.864   2.957   5.152  0.1955  0.2332 -0.1360
  951MOL0     C28282   9.005   2.970   5.166  0.3131  0.7473  0.4202
  951MOL0     C28283   9.075   2.894   5.252 -0.7917  1.0828 -0.1833
  951MOL0     C28284   9.012   2.797   5.337 -0.7113 -0.5816 -0.5195
  951MOL0     O28285   9.096   2.730   5.428 -0.1181  1.0259  0.1426
  951MOL0     C28286   9.027   2.630   5.495 -0.2777  0.7749  0.0045
  951MOL0     C28287   9.128   2.535   5.548 -0.0232 -0.3974 -0.0944
  951MOL0     C28288   9.036   2.444   5.632 -0.5983  1.0767  0.4294
  951MOL0     C28289   9.116   2.318   5.683  0.0746 -0.2133  0.7103
  951MOL0     C28290   9.220   2.352   5.771  0.4094  0.4305  0.4219
  951MOL0     C28291   9.299   2.228   5.808 -0.2864 -0.9703  0.0218
  951MOL0     C28292   9.383   2.254   5.934  0.4441  0.2640 -0.5185
  951MOL0     C28293   9.456   2.124   5.966 -1.1383  0.4355  1.0413
  951MOL0    Cl28294   9.599   2.101   5.842  0.0694  0.0576 -0.5574
  951MOL0     C28295   8.877   2.806   5.334  1.2985  1.0130 -0.9781
  951MOL0     C28296   8.795   2.874   5.249  0.1693 -0.2110 -0.1279
  951MOL0     O28297   8.656   2.862   4.993  1.1727  0.3732  0.7621
  951MOL0     C28298   8.701   3.179   4.830 -0.5819  0.4773  0.7458
  951MOL0     C28299   8.656   3.224   4.699  0.3267 -0.6952  0.1144
  951MOL0     N28300   8.632   3.020   3.841  0.9271  0.3119 -0.6948
  951MOL0     N28301   8.586   2.910   3.812  0.2114  0.5156 -0.2853
  951MOL0     C28302   7.641   2.313   3.885 -0.4215  0.4860 -0.2177
  951MOL0     C28303   7.605   2.188   3.837 -0.6855 -0.9328  0.8233
  951MOL0     C28304   7.477   1.828   3.745 -1.0049  0.3127 -0.3304
  951MOL0     C28305   7.363   1.820   3.672  0.3479 -0.1280 -0.4263
  951MOL0     C28306   7.266   1.711   3.687 -0.1913  0.2474  0.2528
  951MOL0     C28307   7.287   1.621   3.792 -0.7112 -0.0785  1.1885
  951MOL0     O28308   7.198   1.525   3.792 -0.1017  0.2263 -0.1323
  951MOL0     C28309   7.145   1.481   3.914  0.3109  0.5396 -0.1621
  951MOL0     C28310   7.215   1.353   3.969 -0.3114 -0.4791  1.0781
  951MOL0     C28311   7.132   1.227   3.919 -0.4308  0.3645  0.3560
  951MOL0     C28312   7.180   1.094   3.965 -1.0433  0.1398  0.1888
  951MOL0     C28313   7.328   1.065   3.936  0.0288  0.2767 -0.7688
  951MOL0     C28314   7.439   1.029   3.918 -0.6846  0.2296  0.2622
  951MOL0     C28315   7.394   1.638   3.886  0.7669 -0.0736  0.4467
  951MOL0     C28316   7.492   1.735   3.857  0.0546 -0.6696  0.4506
  951MOL0     C28317   7.615   1.732   3.956 -0.8540  0.3046  0.2588
  951MOL0     H28318   7.600   2.248   3.503 -0.5059 -4.1208  1.4519
  951MOL0     H28319   7.663   2.478   3.592  0.7304  1.2690  2.0324
  951MOL0     H28320   7.766   2.664   3.691  0.4303  0.2959  0.2443
  951MOL0     H28321   7.614   2.702   3.769  0.3190  0.7652  0.6847
  951MOL0     H28322   7.730   2.770   3.963  0.2761 -2.7349  0.5743
  951MOL0     H28323   7.792   2.865   3.835  0.0133 -0.2289 -1.1901
  951MOL0     H28324   7.989   2.682   3.817  2.5361  1.5615  0.0031
  951MOL0     H28325   7.926   2.634   3.982 -0.9427 -0.7450 -1.2545
  951MOL0     H28326   8.048   2.900   3.889  3.1474  0.0138  0.5589
  951MOL0     H28327   7.961   2.876   4.041  0.0875 -1.3133  0.7635
  951MOL0     H28328   8.182   2.853   4.115 -0.3828 -0.2450 -0.9376
  951MOL0     H28329   8.128   2.693   4.106 -1.9004  1.8722  1.0772
  951MOL0     H28330   8.240   2.713   3.835  1.2962  2.0132  0.2709
  951MOL0     H28331   8.286   2.870   3.903 -0.6591  0.9133  0.1256
  951MOL0     H28332   8.340   2.569   3.985 -1.0688  0.3180  1.6436
  951MOL0     H28333   8.391   2.693   4.093 -0.1273  2.0302 -0.4301
  951MOL0     H28334   8.582   2.623   3.963  0.9018  0.0050 -2.1223
  951MOL0     H28335   8.498   2.660   3.817 -1.0985 -0.9679  1.1317
  951MOL0     H28336   8.633   2.860   4.131  0.4628  1.7975 -0.2065
  951MOL0     H28337   8.778   3.155   4.095  0.3546  3.8594 -2.8393
  951MOL0     H28338   8.656   3.231   3.996  5.4260 -1.3567 -3.5173
  951MOL0     H28339   8.481   3.138   4.129 -2.2913  0.9917  3.4637
  951MOL0     H28340   8.581   3.066   4.247 -4.5012  0.8734  1.1969
  951MOL0     H28341   8.513   3.341   4.267  0.9945  1.0525 -2.2354
  951MOL0     H28342   8.681   3.333   4.224  1.0101  2.3636  3.7207
  951MOL0     H28343   8.684   3.346   4.441 -1.7142 -0.6438  0.3374
  951MOL0     H28344   8.739   3.185   4.414  1.1623  0.8972  2.0679
  951MOL0     H28345   8.434   2.999   4.607 -0.0505  1.4821 -0.4371
  951MOL0     H28346   8.496   2.900   4.830 -2.3059  0.9063 -0.3896
  951MOL0     H28347   9.067   3.040   5.112  0.7810  0.6041  0.7721
  951MOL0     H28348   9.182   2.903   5.266 -1.2692  3.7659  3.2785
  951MOL0     H28349   8.977   2.673   5.583 -0.3112  1.5819 -0.3986
  951MOL0     H28350   8.964   2.567   5.431 -1.4639  1.3924  0.5278
  951MOL0     H28351   9.184   2.477   5.474  2.1642  1.0201  0.3580
  951MOL0     H28352   9.195   2.599   5.606 -1.4134  2.1678 -1.1723
  951MOL0     H28353   8.988   2.496   5.715  2.0192  3.6521  0.5073
  951MOL0     H28354   8.966   2.392   5.566  0.7427 -1.3026  0.7714
  951MOL0     H28355   9.151   2.261   5.597  0.2682  1.4047 -0.3174
  951MOL0     H28356   9.048   2.249   5.735  2.8234 -1.2681  3.2128
  951MOL0     H28357   9.168   2.389   5.860  0.5022  0.9788  0.2498
  951MOL0     H28358   9.289   2.431   5.741  0.6042 -0.3221 -1.2202
  951MOL0     H28359   9.217   2.158   5.828 -2.5045  1.1395 -1.1949
  951MOL0     H28360   9.368   2.209   5.725 -1.2161  1.8058 -1.4955
  951MOL0     H28361   9.327   2.296   6.018  0.9574  0.2222 -0.1510
  951MOL0     H28362   9.460   2.327   5.906  2.0417 -1.4682 -0.8202
  951MOL0     H28363   9.510   2.131   6.061 -0.9927 -1.2354  1.1109
  951MOL0     H28364   9.393   2.036   5.978  0.4960 -1.1007 -0.8940
  951MOL0     H28365   8.819   2.751   5.408  1.6138 -0.0319 -1.4816
  951MOL0     H28366   8.688   2.857   5.251  0.3052 -1.1277 -0.5362
  951MOL0     H28367   8.769   3.222   4.903  0.5358 -0.9345  0.5926
  951MOL0     H28368   8.694   3.320   4.664  0.8447 -1.8590 -2.8431
  951MOL0     H28369   7.642   2.331   3.992 -0.9696  0.3059 -0.1817
  951MOL0     H28370   7.580   2.117   3.915  0.8353 -1.9951  0.4092
  951MOL0     H28371   7.347   1.897   3.596 -2.0381 -0.2863 -0.1765
  951MOL0     H28372   7.176   1.710   3.627 -1.9947  2.3241  2.6741
  951MOL0     H28373   7.039   1.454   3.905 -0.0528  2.5197 -3.3602
  951MOL0     H28374   7.146   1.576   3.968  0.0272  0.4584 -0.0073
  951MOL0     H28375   7.230   1.356   4.077 -1.1428  0.7275  1.1809
  951MOL0     H28376   7.316   1.364   3.930 -1.1858  1.2735 -0.8890
  951MOL0     H28377   7.130   1.227   3.809 -3.7241 -1.1463  0.3131
  951MOL0     H28378   7.026   1.240   3.942 -1.6440 -0.2324 -3.8715
  951MOL0     H28379   7.159   1.078   4.071 -1.3354  0.7225  0.2210
  951MOL0     H28380   7.129   1.015   3.908  0.9425  2.0310 -4.8630
  951MOL0     H28381   7.545   1.017   3.906 -0.4453  0.7953  1.6101
  951MOL0     H28382   7.403   1.577   3.976 -1.4261  1.4225  1.7833
  951MOL0     H28383   7.600   1.703   4.060  2.2263 -0.4407  0.5911
  951MOL0     H28384   7.691   1.667   3.912 -0.2966 -0.6325  2.4753
  951MOL0     H28385   7.651   1.835   3.944 -2.9336  1.1440  0.8391
  952MOL0     O28386   4.741   9.646   1.271 -0.1949 -0.0985 -0.1817
  952MOL0     C28387   4.663   9.556   1.287  1.0558 -0.1453  0.3301
  952MOL0     O28388   4.528   9.567   1.300  0.0995  0.3319 -1.0338
  952MOL0     C28389   4.476   9.693   1.306 -0.1566 -0.3915  1.4340
  952MOL0     C28390   4.423   9.766   1.188 -0.4073 -0.9453  0.1360
  952MOL0     C28391   4.370   9.893   1.212 -0.1016  0.5783  0.1124
  952MOL0     C28392   4.374   9.962   1.332 -0.6529  0.2522 -0.7408
  952MOL0     O28393   4.327  10.090   1.357  0.9057 -0.0953  0.2032
  952MOL0     C28394   4.268  10.177   1.262 -0.4314 -0.0982  0.8526
  952MOL0     C28395   4.248  10.318   1.311  0.1638 -0.8544 -0.5866
  952MOL0     C28396   4.216  10.409   1.190 -0.3508 -0.5939  0.0359
  952MOL0     C28397   4.201  10.556   1.232  0.6161 -0.2153 -0.2241
  952MOL0     C28398   4.166  10.629   1.104  0.5649 -0.4256 -0.2911
  952MOL0     C28399   4.162  10.791   1.102 -0.6511 -0.0589 -0.7275
  952MOL0     C28400   4.063  10.865   1.196 -0.1540 -0.0486  0.1301
  952MOL0     C28401   4.022  10.996   1.146 -0.5281 -0.6293  0.2102
  952MOL0     N28402   3.941  11.073   1.242 -0.1688  0.7770 -0.5945
  952MOL0     C28403   3.802  11.104   1.247 -0.5666  0.1169 -0.5504
  952MOL0     C28404   3.794  11.219   1.311  0.6785  0.0901  0.0631
  952MOL0     C28405   3.660  11.287   1.356 -0.1250 -0.8450 -0.2824
  952MOL0     C28406   3.670  11.433   1.314  0.1624  0.0404 -0.2202
  952MOL0     C28407   3.526  11.494   1.300 -0.5401 -0.4743  0.2155
  952MOL0     C28408   3.538  11.651   1.294 -0.2702 -0.6250  0.4681
  952MOL0     O28409   3.396  11.699   1.281  0.2548  0.1298  0.5103
  952MOL0     C28410   3.373  11.824   1.227  1.7686  0.7722 -0.6271
  952MOL0     C28411   3.463  11.927   1.229  0.0880  0.0029  0.3571
  952MOL0     C28412   3.439  12.060   1.174  0.3682  0.4633 -0.0407
  952MOL0     C28413   3.321  12.084   1.109  0.7117  0.3854 -0.1605
  952MOL0     C28414   3.290  12.206   1.029 -0.3252 -0.2689 -0.0775
  952MOL0     O28415   3.384  12.304   1.047 -1.0468 -0.3850 -0.1333
  952MOL0     C28416   3.410  12.400   0.948 -0.6882  0.5305 -0.5272
  952MOL0     C28417   3.469  12.519   0.999  0.2494 -0.5007  0.1165
  952MOL0     C28418   3.508  12.621   0.904 -0.0634  0.1180 -0.3955
  952MOL0     C28419   3.489  12.607   0.771  1.1718 -0.3153  0.2605
  952MOL0     O28420   3.543  12.697   0.679 -0.0034  0.4132  0.1644
  952MOL0     C28421   3.619  12.644   0.564  0.1336  0.7560 -0.0248
  952MOL0     C28422   3.662  12.776   0.493 -0.5325 -0.1501 -0.0768
  952MOL0     C28423   3.757  12.758   0.373 -0.4401  0.3997  0.0797
  952MOL0     C28424   3.685  12.721   0.241  0.9089 -0.4534 -0.1946
  952MOL0     C28425   3.775  12.735   0.118  0.2735 -0.0156  0.1905
  952MOL0     C28426   3.834  12.877   0.099  0.0192  0.8217  0.2176
  952MOL0     C28427   3.720  12.964   0.059  0.2917 -0.2692  0.4147
  952MOL0     C28428   3.767  13.102   0.012 -0.6009 -0.6839 -0.4335
  952MOL0    Cl28429   3.828  13.106  -0.160 -0.0132 -0.4412 -0.0647
  952MOL0     C28430   3.420  12.491   0.725  0.6977  0.0524  0.4533
  952MOL0     C28431   3.395  12.384   0.812  0.0043 -0.5214  1.2200
  952MOL0     O28432   3.188  12.210   0.953 -0.2876 -0.7247 -0.1347
  952MOL0     C28433   3.227  11.983   1.115 -0.8246 -0.1608 -0.1469
  952MOL0     C28434   3.247  11.864   1.179  1.0861  0.8854 -1.0358
  952MOL0     N28435   3.916  11.245   1.369  0.3623  0.1398  0.1851
  952MOL0     N28436   3.998  11.155   1.333  0.0385 -0.4846 -0.0587
  952MOL0     C28437   4.433   9.894   1.444 -0.4289 -1.1715  0.4392
  952MOL0     C28438   4.479   9.759   1.424  0.7070  0.6700 -0.0492
  952MOL0     C28439   4.705   9.408   1.275  1.6217 -0.1311 -0.6382
  952MOL0     C28440   4.600   9.313   1.257 -0.5740 -0.7705 -0.4153
  952MOL0     C28441   4.632   9.174   1.254 -0.5114  1.5136 -0.3131
  952MOL0     C28442   4.759   9.132   1.250 -0.0408 -0.1857  0.1308
  952MOL0     O28443   4.772   8.995   1.237  0.4658 -0.2928 -0.1353
  952MOL0     C28444   4.893   8.932   1.243 -0.2326  0.4416 -0.8978
  952MOL0     C28445   4.877   8.783   1.275  0.5467  0.4410 -0.6021
  952MOL0     C28446   5.017   8.700   1.279  0.4854  0.4242 -0.2458
  952MOL0     C28447   5.087   8.704   1.141  0.7423  0.7764  0.0078
  952MOL0     C28448   5.179   8.806   1.121 -0.5920 -0.5444  0.4150
  952MOL0     C28449   5.238   8.906   1.101 -0.9917  0.0546  0.2589
  952MOL0     C28450   4.864   9.227   1.262  1.0974 -0.4467  0.3682
  952MOL0     C28451   4.837   9.362   1.281  0.3503 -0.0470  0.2857
  952MOL0     C28452   4.957   9.446   1.302  0.4353 -0.0812  0.6016
  952MOL0     H28453   4.417   9.705   1.099 -2.3006 -2.8002  1.4269
  952MOL0     H28454   4.318   9.938   1.128 -0.8246 -2.6679 -1.3378
  952MOL0     H28455   4.342  10.189   1.183 -2.3900 -0.6600 -1.1553
  952MOL0     H28456   4.184  10.129   1.212  1.6049 -2.0590 -0.8910
  952MOL0     H28457   4.342  10.343   1.362  0.6608  1.7714 -2.5712
  952MOL0     H28458   4.170  10.325   1.388  0.5887 -3.8368  0.2266
  952MOL0     H28459   4.121  10.370   1.152 -1.1367  1.4192 -0.1971
  952MOL0     H28460   4.293  10.398   1.113 -1.3350 -0.8982 -0.9324
  952MOL0     H28461   4.127  10.580   1.309  0.6353 -0.7887 -0.0187
  952MOL0     H28462   4.301  10.582   1.269 -0.1240 -0.6213  2.2699
  952MOL0     H28463   4.228  10.601   1.018  0.5696  0.9253 -0.7595
  952MOL0     H28464   4.063  10.596   1.085  0.0739  0.9949 -0.1922
  952MOL0     H28465   4.266  10.822   1.108 -0.4813 -0.7140 -0.2362
  952MOL0     H28466   4.134  10.821   1.000 -0.3966 -1.2863 -1.1740
  952MOL0     H28467   4.108  10.863   1.295  1.3143 -0.3019 -0.5098
  952MOL0     H28468   3.969  10.810   1.203 -0.9109  1.4135  2.9643
  952MOL0     H28469   4.113  11.054   1.129 -0.6855 -0.6861 -0.9136
  952MOL0     H28470   3.969  10.993   1.051  0.1933  2.5754 -0.3816
  952MOL0     H28471   3.709  11.061   1.210 -0.7239 -3.3632  3.1942
  952MOL0     H28472   3.576  11.239   1.306 -2.2177  3.7377 -1.6901
  952MOL0     H28473   3.652  11.269   1.464 -1.9327 -0.9251 -0.3932
  952MOL0     H28474   3.743  11.487   1.374 -0.0026 -0.1650  0.1717
  952MOL0     H28475   3.708  11.428   1.212  1.2378 -2.4711  0.2386
  952MOL0     H28476   3.479  11.474   1.397 -2.3994  2.0629 -0.0616
  952MOL0     H28477   3.460  11.457   1.221 -1.3022  0.5490  0.3437
  952MOL0     H28478   3.600  11.682   1.209  0.5475  0.6112  1.4803
  952MOL0     H28479   3.582  11.697   1.383  2.0595 -2.1348  0.1930
  952MOL0     H28480   3.553  11.916   1.288  1.3363  1.1933 -1.2301
  952MOL0     H28481   3.513  12.139   1.173  0.7139  0.1547  0.6692
  952MOL0     H28482   3.471  12.543   1.105 -1.1491  2.4577 -0.4233
  952MOL0     H28483   3.544  12.719   0.932 -2.5877  1.0471 -0.1096
  952MOL0     H28484   3.703  12.584   0.599 -0.7052 -2.6937 -3.3677
  952MOL0     H28485   3.551  12.577   0.511  1.1015 -1.9389  1.9721
  952MOL0     H28486   3.575  12.833   0.459 -0.0445  0.8635  0.3317
  952MOL0     H28487   3.713  12.848   0.558 -1.8090 -1.3863  2.4440
  952MOL0     H28488   3.809  12.852   0.352  1.4342 -0.4777  0.5861
  952MOL0     H28489   3.835  12.684   0.394 -0.8928 -0.9455 -2.5866
  952MOL0     H28490   3.592  12.779   0.237  0.4777 -0.9053  1.9037
  952MOL0     H28491   3.647  12.619   0.238  1.8306 -0.8113 -0.0266
  952MOL0     H28492   3.739  12.694   0.023  0.0915  2.0442 -0.6988
  952MOL0     H28493   3.860  12.667   0.131 -0.7266 -1.8881 -2.2194
  952MOL0     H28494   3.892  12.917   0.182 -0.2281  0.1382  0.7225
  952MOL0     H28495   3.905  12.862   0.017  2.0716  1.3148  1.8371
  952MOL0     H28496   3.652  12.980   0.143  0.1616 -0.3564  0.3275
  952MOL0     H28497   3.661  12.919  -0.022  1.3745 -2.1611  0.6131
  952MOL0     H28498   3.695  13.183   0.024  1.4735  1.9287 -3.6073
  952MOL0     H28499   3.846  13.141   0.077 -0.3223  0.4784 -1.4213
  952MOL0     H28500   3.400  12.478   0.619 -1.2330 -0.9905  0.8917
  952MOL0     H28501   3.341  12.299   0.772 -2.5574  2.0875 -1.2856
  952MOL0     H28502   3.136  11.999   1.059 -1.2030  0.9321  0.7511
  952MOL0     H28503   3.174  11.783   1.176 -0.2445  2.0256 -0.4742
  952MOL0     H28504   4.445   9.941   1.541  3.0614  2.4701 -1.4580
  952MOL0     H28505   4.520   9.702   1.506  0.8394  0.1597 -0.4651
  952MOL0     H28506   4.493   9.332   1.262  0.0751  3.5536  2.2967
  952MOL0     H28507   4.557   9.100   1.226  2.9886 -1.8999 -1.6418
  952MOL0     H28508   4.955   8.982   1.318 -0.4171  2.0870 -1.7774
  952MOL0     H28509   4.953   8.942   1.152  3.6182 -3.7547  0.7948
  952MOL0     H28510   4.809   8.748   1.196 -0.3130 -0.2808  0.4262
  952MOL0     H28511   4.829   8.772   1.372  1.3585  1.1220 -0.1119
  952MOL0     H28512   4.991   8.594   1.290  0.9276  0.1377 -1.7264
  952MOL0     H28513   5.085   8.736   1.357  1.7924 -0.0404 -1.1412
  952MOL0     H28514   5.142   8.610   1.130  1.1805  0.9483  0.6535
  952MOL0     H28515   5.018   8.707   1.056 -2.1018 -3.7534  1.7702
  952MOL0     H28516   5.311   8.985   1.088 -1.4738  0.2919 -1.2248
  952MOL0     H28517   4.971   9.208   1.257  1.5502  2.0023 -1.7200
  952MOL0     H28518   4.963   9.531   1.233  2.1860 -1.2162 -0.7254
  952MOL0     H28519   4.943   9.488   1.402  0.7455  0.6832  0.3349
  952MOL0     H28520   5.047   9.384   1.306  2.0256  1.9395 -1.3694
  953MOL0     O28521   3.008   8.112   3.467 -0.8648 -0.0637 -0.9484
  953MOL0     C28522   2.905   8.084   3.418 -0.3021 -0.1738  0.0391
  953MOL0     O28523   2.799   8.162   3.394 -0.3894  0.3604 -0.8459
  953MOL0     C28524   2.787   8.280   3.472  0.0500 -0.2067  0.5615
  953MOL0     C28525   2.741   8.388   3.397  0.1115 -1.2202 -0.1201
  953MOL0     C28526   2.709   8.499   3.465  0.1685 -0.2363 -0.0788
  953MOL0     C28527   2.730   8.509   3.605  0.2834  0.1826  0.4365
  953MOL0     O28528   2.682   8.614   3.674 -0.6191 -0.4085 -0.8891
  953MOL0     C28529   2.576   8.584   3.766  0.5629  0.2098  0.8996
  953MOL0     C28530   2.572   8.700   3.865 -0.0446  0.0400  0.1590
  953MOL0     C28531   2.582   8.840   3.809 -1.2475  0.8487 -0.0039
  953MOL0     C28532   2.463   8.870   3.721 -0.5052 -0.3132 -0.5609
  953MOL0     C28533   2.441   9.013   3.660 -1.4113  0.5058 -0.3354
  953MOL0     C28534   2.336   9.100   3.721 -0.0984 -0.0888 -0.1094
  953MOL0     C28535   2.328   9.224   3.641  0.5748 -0.5453  0.6648
  953MOL0     C28536   2.215   9.319   3.690  0.9904 -0.4482  0.2173
  953MOL0     N28537   2.231   9.391   3.812 -0.1473  0.0417 -0.4936
  953MOL0     C28538   2.343   9.421   3.888 -0.0768 -0.3002  0.5598
  953MOL0     C28539   2.304   9.467   4.013  0.2958  1.4277 -0.2427
  953MOL0     C28540   2.401   9.473   4.125 -1.1125 -0.4247  0.9013
  953MOL0     C28541   2.487   9.346   4.146 -0.6274 -0.2481  0.6579
  953MOL0     C28542   2.412   9.215   4.147  0.0165 -0.7298 -0.0862
  953MOL0     C28543   2.338   9.216   4.280 -0.1130  0.1525 -0.1228
  953MOL0     O28544   2.414   9.192   4.407 -0.0753 -0.2496 -0.1315
  953MOL0     C28545   2.501   9.084   4.417  0.4706  0.4814  0.0712
  953MOL0     C28546   2.591   9.091   4.524  0.7221  0.3526 -0.1056
  953MOL0     C28547   2.693   8.996   4.536  0.4813 -0.1836  0.9514
  953MOL0     C28548   2.692   8.881   4.454  0.6491  0.2427 -0.1591
  953MOL0     C28549   2.804   8.781   4.456  0.6276  0.1535 -0.4950
  953MOL0     O28550   2.764   8.658   4.429 -0.6697 -0.5062 -0.2777
  953MOL0     C28551   2.867   8.568   4.405 -0.3562 -0.4539 -0.3179
  953MOL0     C28552   2.965   8.521   4.505  0.1719 -0.2116  0.7743
  953MOL0     C28553   3.074   8.441   4.469  0.6038  0.1538 -0.3882
  953MOL0     C28554   3.083   8.394   4.337 -0.5284 -0.5409  0.3713
  953MOL0     O28555   3.182   8.317   4.284 -0.3487 -0.1559  0.3699
  953MOL0     C28556   3.306   8.311   4.364  0.1469  0.4850  0.1789
  953MOL0     C28557   3.420   8.218   4.313 -0.6335 -0.2767 -0.3081
  953MOL0     C28558   3.358   8.075   4.295 -0.2148  0.0133 -1.0542
  953MOL0     C28559   3.436   7.987   4.212  1.3703 -0.1570  0.3893
  953MOL0     C28560   3.365   7.863   4.164 -0.4659  0.2450  0.3936
  953MOL0     C28561   3.359   7.758   4.272 -0.3913 -0.3466  0.6546
  953MOL0     C28562   3.287   7.632   4.232 -0.0600 -0.2311  0.5198
  953MOL0     C28563   3.306   7.517   4.322 -0.3006  0.3033  0.2586
  953MOL0    Cl28564   3.220   7.552   4.489  0.0347  0.3479  0.6222
  953MOL0     C28565   2.987   8.435   4.241 -0.2195 -0.7090  0.4754
  953MOL0     C28566   2.897   8.535   4.270  0.4215  0.6729 -0.1326
  953MOL0     O28567   2.918   8.817   4.469 -0.2776  0.2427  0.0081
  953MOL0     C28568   2.592   8.870   4.355  0.4377 -0.6016 -0.3309
  953MOL0     C28569   2.499   8.972   4.333 -1.7138 -0.1952 -0.5873
  953MOL0     N28570   2.169   9.451   4.011 -0.0311  0.1151 -0.5953
  953MOL0     N28571   2.128   9.418   3.893 -0.5350  0.0280  0.5200
  953MOL0     C28572   2.787   8.402   3.672 -0.6996 -1.4079  0.0785
  953MOL0     C28573   2.813   8.291   3.607 -0.6053  0.1199  0.2877
  953MOL0     C28574   2.898   7.946   3.344 -1.0197 -0.5184  0.3697
  953MOL0     C28575   2.823   7.941   3.231  0.0377  0.5453  0.9179
  953MOL0     C28576   2.808   7.823   3.158  1.1027  0.2092  0.4633
  953MOL0     C28577   2.861   7.709   3.207  0.5999  1.1106  0.4519
  953MOL0     O28578   2.847   7.579   3.155  0.4398 -0.1011  1.0733
  953MOL0     C28579   2.785   7.557   3.025 -0.3587  0.7731  1.0519
  953MOL0     C28580   2.859   7.451   2.935 -0.6471 -0.4500  0.4798
  953MOL0     C28581   2.824   7.456   2.787  0.0750 -0.1715 -0.3685
  953MOL0     C28582   2.669   7.463   2.760 -0.2956  1.0612  0.7060
  953MOL0     C28583   2.616   7.328   2.763  0.3178  0.8453  0.2781
  953MOL0     C28584   2.552   7.227   2.760 -1.2090  1.1607 -0.0120
  953MOL0     C28585   2.936   7.713   3.324 -0.0679 -0.1681 -1.1280
  953MOL0     C28586   2.961   7.830   3.395  0.4059  0.5362 -0.6518
  953MOL0     C28587   3.015   7.811   3.535  0.4277 -0.3275 -0.4550
  953MOL0     H28588   2.715   8.366   3.294  3.4909 -1.5426 -1.0211
  953MOL0     H28589   2.651   8.570   3.407  2.1686 -0.0140 -1.9467
  953MOL0     H28590   2.479   8.576   3.717 -1.0240 -2.8265  4.1332
  953MOL0     H28591   2.583   8.485   3.812 -1.5788 -2.1957 -3.3795
  953MOL0     H28592   2.649   8.699   3.942 -1.2303 -1.0720  1.3806
  953MOL0     H28593   2.481   8.686   3.925 -2.7637 -0.7434 -3.7794
  953MOL0     H28594   2.674   8.855   3.752  0.0316 -1.3151  1.3649
  953MOL0     H28595   2.579   8.905   3.897 -0.1518  2.6014 -1.2071
  953MOL0     H28596   2.456   8.797   3.640  2.8161 -1.2461 -0.1400
  953MOL0     H28597   2.381   8.863   3.793 -0.6226  1.5484 -0.4536
  953MOL0     H28598   2.536   9.062   3.684 -1.7580 -0.1098  2.7760
  953MOL0     H28599   2.423   9.006   3.553 -0.9204  2.7475 -0.6234
  953MOL0     H28600   2.244   9.041   3.716 -0.0857 -0.1076 -0.1290
  953MOL0     H28601   2.341   9.124   3.828  0.0995 -0.1638 -0.1030
  953MOL0     H28602   2.307   9.213   3.534  1.7863  1.0042  0.2185
  953MOL0     H28603   2.416   9.289   3.647 -0.4426  0.8988  0.3753
  953MOL0     H28604   2.208   9.396   3.614  2.0883 -1.6958 -1.2119
  953MOL0     H28605   2.123   9.259   3.690  0.3859  0.4681  0.2806
  953MOL0     H28606   2.437   9.405   3.836 -1.6391  2.5684 -3.6148
  953MOL0     H28607   2.471   9.556   4.109  0.7347 -1.6934  2.0682
  953MOL0     H28608   2.347   9.494   4.218  2.7817  1.2459  2.9858
  953MOL0     H28609   2.559   9.343   4.063  1.0908 -1.2066  2.1016
  953MOL0     H28610   2.545   9.361   4.237 -1.4662 -0.5105  1.2478
  953MOL0     H28611   2.486   9.136   4.131  0.1394 -0.7286  0.4477
  953MOL0     H28612   2.336   9.217   4.068  0.0732  1.7557 -0.1478
  953MOL0     H28613   2.268   9.132   4.279  0.0761 -0.0133 -1.4168
  953MOL0     H28614   2.272   9.302   4.294 -1.9736 -1.4635  1.6384
  953MOL0     H28615   2.597   9.174   4.594 -2.1894  0.4750  0.1449
  953MOL0     H28616   2.767   9.004   4.615 -0.0155  1.0684  1.3134
  953MOL0     H28617   2.956   8.552   4.609 -2.2930  0.0775  0.5440
  953MOL0     H28618   3.151   8.408   4.538  0.3257  0.1983 -0.0603
  953MOL0     H28619   3.347   8.408   4.393  2.0545 -0.1870 -0.0806
  953MOL0     H28620   3.286   8.267   4.462  1.0664  2.8148  1.4876
  953MOL0     H28621   3.470   8.257   4.224  3.1622 -4.3880 -0.3480
  953MOL0     H28622   3.503   8.211   4.385 -1.0396 -0.0890  0.1787
  953MOL0     H28623   3.353   8.028   4.394  1.2396  2.0356  0.0740
  953MOL0     H28624   3.253   8.083   4.267 -0.8201 -0.5328  0.9273
  953MOL0     H28625   3.535   7.969   4.255  0.9501 -1.0868  1.0043
  953MOL0     H28626   3.461   8.051   4.128  2.1893 -1.9865 -0.8265
  953MOL0     H28627   3.414   7.825   4.074  0.7808  0.1394  1.1069
  953MOL0     H28628   3.263   7.877   4.126 -0.2513 -0.3280 -0.4316
  953MOL0     H28629   3.460   7.727   4.301  0.6849  0.6275 -1.7800
  953MOL0     H28630   3.304   7.807   4.353  2.8769  0.1916  2.7514
  953MOL0     H28631   3.327   7.603   4.135 -0.4749 -0.1454  0.3214
  953MOL0     H28632   3.186   7.671   4.220  0.6248  1.2298 -0.8471
  953MOL0     H28633   3.267   7.422   4.283 -4.7059  2.7819 -2.1956
  953MOL0     H28634   3.414   7.517   4.339  0.1455 -0.0197 -2.1251
  953MOL0     H28635   2.988   8.401   4.138  1.5371  0.8660 -0.0831
  953MOL0     H28636   2.853   8.569   4.177 -2.0732 -0.4740  0.5581
  953MOL0     H28637   2.598   8.780   4.294  2.5666 -0.6274 -0.1622
  953MOL0     H28638   2.427   8.964   4.252 -0.4433 -0.0804 -1.7582
  953MOL0     H28639   2.808   8.428   3.776 -0.3639 -0.8752 -0.1147
  953MOL0     H28640   2.862   8.215   3.667  4.7292 -1.4975 -5.1428
  953MOL0     H28641   2.776   8.028   3.187  0.2637 -0.3168 -1.1390
  953MOL0     H28642   2.739   7.818   3.075  3.2043 -1.1327 -1.3134
  953MOL0     H28643   2.787   7.649   2.966 -0.0996  1.0981  1.5580
  953MOL0     H28644   2.680   7.528   3.037 -0.5936  1.9502  1.9979
  953MOL0     H28645   2.861   7.349   2.975  1.1569  0.5866  3.3305
  953MOL0     H28646   2.965   7.476   2.935 -1.1685  2.3199  2.5027
  953MOL0     H28647   2.851   7.365   2.734 -0.4337 -2.2722  2.7146
  953MOL0     H28648   2.866   7.546   2.741  0.4862 -0.6355 -0.9133
  953MOL0     H28649   2.607   7.522   2.828 -1.7882 -1.3118  1.5419
  953MOL0     H28650   2.669   7.504   2.658  1.3491 -1.4079 -0.3886
  953MOL0     H28651   2.492   7.140   2.742  0.6798  0.1933 -2.2682
  953MOL0     H28652   2.978   7.627   3.374 -0.7916  1.6336  3.0461
  953MOL0     H28653   2.931   7.780   3.597 -0.5100  1.6451 -0.6853
  953MOL0     H28654   3.087   7.728   3.542  1.7136  0.7844 -0.2332
  953MOL0     H28655   3.064   7.901   3.571 -0.1017  1.3057 -3.4676
  954MOL0     O28656   8.357   8.253   6.517 -0.1390 -0.3743 -0.5316
  954MOL0     C28657   8.340   8.286   6.635  1.2456  0.1485  0.0060
  954MOL0     O28658   8.362   8.410   6.693 -0.0119 -0.3373  0.0084
  954MOL0     C28659   8.408   8.513   6.610  0.4434  0.2185 -0.0215
  954MOL0     C28660   8.341   8.642   6.617 -0.0363  0.7103  0.1021
  954MOL0     C28661   8.405   8.751   6.544  0.7069 -0.4090 -0.0021
  954MOL0     C28662   8.530   8.731   6.482 -0.8788  0.0204 -0.4335
  954MOL0     O28663   8.580   8.840   6.416 -0.9395 -0.3989 -0.2976
  954MOL0     C28664   8.621   8.959   6.488  0.6187 -0.5901  0.0770
  954MOL0     C28665   8.705   9.047   6.397 -0.0255 -0.8644 -0.1786
  954MOL0     C28666   8.694   9.197   6.437 -0.0914  0.2118 -0.6171
  954MOL0     C28667   8.747   9.293   6.330 -1.5102 -0.2568 -0.2928
  954MOL0     C28668   8.894   9.275   6.277 -0.6339  0.6225 -0.5744
  954MOL0     C28669   8.918   9.338   6.136  1.2808 -0.8202  0.0510
  954MOL0     C28670   8.967   9.478   6.160  0.6618 -0.7757 -0.3693
  954MOL0     C28671   9.037   9.542   6.035 -0.3055 -0.2480 -0.3403
  954MOL0     N28672   9.083   9.674   6.080 -0.1250 -0.1606 -0.1615
  954MOL0     C28673   9.009   9.781   6.054  0.3917  0.7137  0.1202
  954MOL0     C28674   9.067   9.881   6.120 -0.2901  0.3918 -0.3424
  954MOL0     C28675   9.001  10.022   6.115 -0.1296 -0.4063 -0.0701
  954MOL0     C28676   9.079  10.131   6.189  0.4664  0.5051  0.4474
  954MOL0     C28677   8.993  10.268   6.193 -0.4488  0.4775  1.0183
  954MOL0     C28678   8.998  10.328   6.051 -0.1133  0.2240 -0.2097
  954MOL0     O28679   8.900  10.286   5.973 -0.6290 -1.2397  0.4423
  954MOL0     C28680   8.879  10.372   5.867 -0.0687  0.2792 -0.5965
  954MOL0     C28681   8.905  10.331   5.741  0.4272 -0.0676  0.4907
  954MOL0     C28682   8.877  10.404   5.621  0.5239 -0.7620  0.1912
  954MOL0     C28683   8.824  10.537   5.635  0.4806  0.0667 -0.2556
  954MOL0     C28684   8.775  10.620   5.525 -1.0456 -0.7022 -0.1871
  954MOL0     O28685   8.748  10.747   5.553 -0.4498  0.3314 -0.2414
  954MOL0     C28686   8.684  10.812   5.447  0.5186  0.7717 -0.0093
  954MOL0     C28687   8.557  10.783   5.416  0.0206  0.1763  0.3084
  954MOL0     C28688   8.493  10.850   5.314  0.5907 -0.1300 -0.5903
  954MOL0     C28689   8.572  10.947   5.234 -0.0562  0.4924  0.0981
  954MOL0     O28690   8.509  11.009   5.130 -0.0518 -0.4196 -0.1393
  954MOL0     C28691   8.382  11.067   5.162 -0.6007 -0.8888 -0.5917
  954MOL0     C28692   8.410  11.186   5.258  0.4307  0.5265  0.5615
  954MOL0     C28693   8.284  11.270   5.262 -0.4316  0.2654 -0.9255
  954MOL0     C28694   8.157  11.194   5.312 -0.1362  0.3119  0.5145
  954MOL0     C28695   8.068  11.283   5.396 -0.1382 -0.4514 -0.5061
  954MOL0     C28696   7.967  11.192   5.466 -0.3937 -0.2009 -0.3727
  954MOL0     C28697   7.844  11.163   5.369  0.6510 -1.0666 -0.9511
  954MOL0     C28698   7.763  11.038   5.427  0.1157 -0.3452  0.1620
  954MOL0    Cl28699   7.701  11.069   5.596  0.1675 -0.2407 -0.3389
  954MOL0     C28700   8.705  10.974   5.267  0.1547 -0.1384  0.8644
  954MOL0     C28701   8.754  10.913   5.382 -0.5236 -0.5332 -0.5342
  954MOL0     O28702   8.764  10.559   5.418  0.8031 -0.7786 -0.8571
  954MOL0     C28703   8.806  10.574   5.767  0.1788  0.8527  0.2550
  954MOL0     C28704   8.831  10.500   5.878 -0.1637  0.5703 -0.7892
  954MOL0     N28705   9.186   9.834   6.182 -0.9824  0.1794  0.4070
  954MOL0     N28706   9.198   9.705   6.155  0.1035  0.5533  0.6915
  954MOL0     C28707   8.593   8.602   6.484  0.7678  0.3272  0.3373
  954MOL0     C28708   8.536   8.503   6.555 -0.2705 -0.6624 -0.3346
  954MOL0     C28709   8.286   8.180   6.731 -0.7223  0.1734  0.6357
  954MOL0     C28710   8.194   8.231   6.823 -1.2724  1.1415  0.7823
  954MOL0     C28711   8.143   8.151   6.916  0.1244 -0.8908 -0.0217
  954MOL0     C28712   8.163   8.018   6.913 -0.0911  0.0129  0.3826
  954MOL0     O28713   8.090   7.941   7.002 -0.5834 -0.1098  0.8107
  954MOL0     C28714   8.068   7.792   6.980  0.0463 -0.5884  0.8242
  954MOL0     C28715   7.990   7.758   6.854 -0.2869 -0.5287 -0.3572
  954MOL0     C28716   7.975   7.603   6.827 -0.3549  0.5216  0.2183
  954MOL0     C28717   7.902   7.556   6.694 -0.5812  0.0388  0.1800
  954MOL0     C28718   7.777   7.616   6.698  0.0313 -1.1376  0.0756
  954MOL0     C28719   7.657   7.644   6.683  0.1150 -1.1817  0.5226
  954MOL0     C28720   8.261   7.964   6.828  0.7383  0.9034  0.0591
  954MOL0     C28721   8.317   8.041   6.733  0.5103  1.2691  0.4551
  954MOL0     C28722   8.425   7.974   6.650 -0.7931  0.1133  0.7061
  954MOL0     H28723   8.240   8.661   6.654 -0.7549 -2.3446 -0.0095
  954MOL0     H28724   8.364   8.851   6.539  2.1061  0.7427  5.1464
  954MOL0     H28725   8.531   9.012   6.520 -0.0299 -2.4060  1.4007
  954MOL0     H28726   8.668   8.938   6.584  4.3253 -1.6437 -1.7636
  954MOL0     H28727   8.652   9.038   6.301 -2.7239  0.9701  1.0114
  954MOL0     H28728   8.811   9.021   6.392  0.7240  1.3635  2.0934
  954MOL0     H28729   8.762   9.197   6.523  0.7272 -1.6171 -1.2070
  954MOL0     H28730   8.593   9.221   6.472 -0.2918 -1.4455  0.0335
  954MOL0     H28731   8.679   9.272   6.247 -1.2668  2.4180 -1.2519
  954MOL0     H28732   8.734   9.394   6.370 -1.5228 -1.2956  2.5048
  954MOL0     H28733   8.941   9.336   6.354 -3.8576  5.2206 -1.8017
  954MOL0     H28734   8.933   9.173   6.279  0.5136  1.0299 -0.9812
  954MOL0     H28735   8.997   9.279   6.091  0.2950 -1.1318 -1.3367
  954MOL0     H28736   8.830   9.336   6.071  0.4214 -1.6873  1.1774
  954MOL0     H28737   9.051   9.486   6.231  1.8908 -1.2619 -1.7278
  954MOL0     H28738   8.886   9.547   6.186 -0.7693 -0.5732 -4.6277
  954MOL0     H28739   9.119   9.489   5.987 -0.6041  1.0315 -2.3897
  954MOL0     H28740   8.966   9.547   5.951 -1.0948 -1.3600  0.2394
  954MOL0     H28741   8.917   9.774   5.997 -0.3475 -4.2108  1.4596
  954MOL0     H28742   8.991  10.050   6.010  2.6147  1.2867  0.0301
  954MOL0     H28743   8.903  10.014   6.163 -1.0577  0.8182 -1.6653
  954MOL0     H28744   9.093  10.110   6.295  1.4848  1.9471  0.6195
  954MOL0     H28745   9.177  10.155   6.147  1.1875 -0.8828  1.2705
  954MOL0     H28746   9.036  10.331   6.272  3.4179 -3.2262  2.2551
  954MOL0     H28747   8.886  10.259   6.215 -1.1240 -1.0336 -2.2928
  954MOL0     H28748   9.095  10.313   6.002  1.8389  1.3126  3.0310
  954MOL0     H28749   9.009  10.436   6.070 -0.5747 -0.0066  1.5376
  954MOL0     H28750   8.951  10.235   5.723 -0.9661 -1.3553  3.1526
  954MOL0     H28751   8.880  10.374   5.516 -0.0555  1.0646 -0.3839
  954MOL0     H28752   8.501  10.709   5.472  1.0521 -0.9908 -0.1608
  954MOL0     H28753   8.392  10.821   5.285  1.0304 -1.6757 -0.6769
  954MOL0     H28754   8.344  11.098   5.064 -0.9070 -0.9410 -0.4896
  954MOL0     H28755   8.303  10.998   5.193 -0.5075  0.0051  1.8342
  954MOL0     H28756   8.415  11.139   5.356 -1.0856 -3.1539 -0.9258
  954MOL0     H28757   8.496  11.247   5.228  4.4087 -4.1005  1.3251
  954MOL0     H28758   8.312  11.349   5.331  2.8271  2.6258 -4.5353
  954MOL0     H28759   8.265  11.332   5.173 -1.5376  2.5228  0.7929
  954MOL0     H28760   8.195  11.115   5.376 -3.2053 -1.4517  0.3741
  954MOL0     H28761   8.112  11.147   5.224  1.4216 -0.0411 -0.1334
  954MOL0     H28762   8.029  11.365   5.334 -0.6182 -1.2889 -1.3324
  954MOL0     H28763   8.122  11.344   5.470  0.7486  1.4549 -2.6030
  954MOL0     H28764   8.009  11.093   5.488  0.7247  0.4839  0.6760
  954MOL0     H28765   7.929  11.223   5.564  1.4261 -2.5630  1.1857
  954MOL0     H28766   7.864  11.151   5.262  0.7680  4.1448 -1.7850
  954MOL0     H28767   7.789  11.258   5.368  1.7736 -0.3356  0.8671
  954MOL0     H28768   7.675  11.016   5.366  0.3742 -2.1708  0.4140
  954MOL0     H28769   7.833  10.955   5.429 -1.4332 -1.7329  2.4328
  954MOL0     H28770   8.767  11.043   5.211 -0.2124  1.3769  2.2456
  954MOL0     H28771   8.846  10.942   5.433  0.5362 -1.3076 -1.9240
  954MOL0     H28772   8.745  10.663   5.781 -0.8023  0.0223  1.5101
  954MOL0     H28773   8.807  10.532   5.979 -1.2302  0.4632 -0.9987
  954MOL0     H28774   8.692   8.596   6.440  0.6415  0.3330  0.0559
  954MOL0     H28775   8.594   8.413   6.573 -0.4221 -0.7833 -0.4447
  954MOL0     H28776   8.163   8.334   6.807 -1.0597  0.6523 -4.6220
  954MOL0     H28777   8.082   8.202   6.990  1.0409 -1.0023  0.8377
  954MOL0     H28778   8.014   7.749   7.064 -0.1007 -1.5095  0.2647
  954MOL0     H28779   8.165   7.743   6.965  0.9350  1.0634  0.8104
  954MOL0     H28780   8.044   7.793   6.766  3.1867 -3.0824  0.5417
  954MOL0     H28781   7.898   7.816   6.852  1.8651  3.2278 -1.3213
  954MOL0     H28782   7.910   7.565   6.906 -1.7790  1.5025 -0.4380
  954MOL0     H28783   8.065   7.543   6.839  0.5666  1.7019 -0.5856
  954MOL0     H28784   7.954   7.593   6.605 -2.7835  0.9172 -0.8105
  954MOL0     H28785   7.893   7.447   6.689  0.4594 -0.0076 -1.3014
  954MOL0     H28786   7.563   7.692   6.668  0.0811 -1.6660 -0.9238
  954MOL0     H28787   8.296   7.862   6.840  5.7348  2.6222  3.0297
  954MOL0     H28788   8.474   7.887   6.694  0.5982  1.1139  1.2176
  954MOL0     H28789   8.374   7.921   6.569  0.8658  0.2844 -0.5018
  954MOL0     H28790   8.502   8.045   6.617  0.7014 -1.0574  1.5114
  955MOL0     O28791   5.373   5.008  10.854 -0.1087  0.2969  0.2218
  955MOL0     C28792   5.409   4.965  10.965  1.1897  0.3097 -0.7723
  955MOL0     O28793   5.339   4.968  11.078 -0.4679  0.1135 -0.3137
  955MOL0     C28794   5.243   5.065  11.102  0.7402  1.0098 -0.4369
  955MOL0     C28795   5.203   5.175  11.017 -0.7649  0.3373  0.0815
  955MOL0     C28796   5.084   5.244  11.048 -0.4398 -0.4949 -0.4136
  955MOL0     C28797   5.022   5.227  11.168 -0.3880  0.4268 -0.0095
  955MOL0     O28798   4.912   5.304  11.219  0.0377 -0.1299 -0.4066
  955MOL0     C28799   4.806   5.333  11.116 -0.1123 -0.5657 -0.4284
  955MOL0     C28800   4.785   5.482  11.101 -0.9379 -0.0771  0.2183
  955MOL0     C28801   4.701   5.543  11.214  1.2194 -0.1872  0.7158
  955MOL0     C28802   4.722   5.694  11.220  0.0292  0.0322 -0.5618
  955MOL0     C28803   4.614   5.775  11.130 -0.4502  0.1600 -0.1178
  955MOL0     C28804   4.672   5.906  11.077  0.2186 -0.6891  0.6096
  955MOL0     C28805   4.553   5.979  11.009 -0.5254  0.3316 -0.2594
  955MOL0     C28806   4.489   6.083  11.109  0.3185  0.1772 -0.2987
  955MOL0     N28807   4.519   6.221  11.077 -0.5868  0.0498 -0.4922
  955MOL0     C28808   4.450   6.295  10.986 -0.6839  0.2877  0.2667
  955MOL0     C28809   4.495   6.421  11.000  0.3502 -0.1484 -0.3690
  955MOL0     C28810   4.449   6.537  10.922  0.0019  0.3665 -0.1037
  955MOL0     C28811   4.422   6.661  11.014 -0.5451 -0.1217  0.3645
  955MOL0     C28812   4.351   6.780  10.946 -0.1898  0.6407  0.4457
  955MOL0     C28813   4.247   6.742  10.844  0.2867 -0.7056  0.2087
  955MOL0     O28814   4.128   6.679  10.898 -0.3522  0.0723  0.2254
  955MOL0     C28815   4.044   6.629  10.805  0.0306  0.8572  0.3427
  955MOL0     C28816   4.022   6.492  10.806  0.7924  0.1847  0.7395
  955MOL0     C28817   3.925   6.439  10.714 -0.0678  0.2044  0.8436
  955MOL0     C28818   3.868   6.518  10.617  0.7931 -0.3035  0.3550
  955MOL0     C28819   3.779   6.454  10.511 -1.1793 -0.5337  0.1481
  955MOL0     O28820   3.765   6.317  10.529  0.0784 -0.2321 -0.0226
  955MOL0     C28821   3.696   6.246  10.441  0.0570 -0.3847 -0.4941
  955MOL0     C28822   3.601   6.154  10.481 -0.3564  0.5957  0.5431
  955MOL0     C28823   3.535   6.079  10.384 -0.7185  0.9111  0.7072
  955MOL0     C28824   3.561   6.089  10.247  0.4360 -0.7242  0.3977
  955MOL0     O28825   3.501   6.015  10.146 -0.5076  0.0155  0.0157
  955MOL0     C28826   3.386   5.949  10.183  0.2504  0.7857  0.1172
  955MOL0     C28827   3.313   5.871  10.070 -0.1033 -0.0630  0.0950
  955MOL0     C28828   3.188   5.788  10.102  0.7793  0.6299 -0.4277
  955MOL0     C28829   3.217   5.638  10.104 -1.0375 -0.0598  0.2230
  955MOL0     C28830   3.093   5.558  10.153 -0.1189  0.8055 -0.7611
  955MOL0     C28831   2.997   5.552  10.036  0.4860  0.2124  0.8291
  955MOL0     C28832   2.903   5.430  10.031  0.0391  0.0427 -0.2401
  955MOL0     C28833   2.826   5.406  10.161  0.2822 -0.5373  0.4030
  955MOL0    Cl28834   2.663   5.339  10.116  0.1003  0.0986 -0.1589
  955MOL0     C28835   3.660   6.181  10.212  0.3928  0.0561 -0.3378
  955MOL0     C28836   3.733   6.257  10.307  0.6141  0.8441 -0.5042
  955MOL0     O28837   3.715   6.519  10.430 -0.5668 -0.1323 -0.4870
  955MOL0     C28838   3.896   6.654  10.608 -0.7039  0.0055 -0.1590
  955MOL0     C28839   3.986   6.718  10.700  0.1331  0.4050 -0.4977
  955MOL0     N28840   4.594   6.422  11.097  0.9223  0.3806 -0.0885
  955MOL0     N28841   4.609   6.302  11.145  0.8307 -0.4246  0.3630
  955MOL0     C28842   5.062   5.131  11.257  0.4818  0.6853 -0.3921
  955MOL0     C28843   5.170   5.052  11.232 -0.3048  0.1841  0.6413
  955MOL0     C28844   5.546   4.913  10.976 -0.0728  0.8602 -1.1389
  955MOL0     C28845   5.564   4.797  10.919 -0.0690 -0.4730  0.5125
  955MOL0     C28846   5.690   4.741  10.909  0.0953  0.2521  1.1149
  955MOL0     C28847   5.798   4.822  10.950  0.5796 -0.2534  0.1436
  955MOL0     O28848   5.927   4.793  10.922  0.4426  1.1496 -0.4504
  955MOL0     C28849   5.984   4.696  11.011  0.3242 -0.4862 -0.0325
  955MOL0     C28850   6.134   4.688  10.980 -0.0523  0.6426 -0.2809
  955MOL0     C28851   6.227   4.805  11.030  0.6380  0.7114  0.2560
  955MOL0     C28852   6.380   4.765  11.032 -0.0699  0.1248 -0.5341
  955MOL0     C28853   6.416   4.649  11.113  0.7905  0.1595 -0.2062
  955MOL0     C28854   6.444   4.556  11.185  0.0072  1.1201 -1.0845
  955MOL0     C28855   5.773   4.950  11.012 -0.0906  0.1639 -0.4607
  955MOL0     C28856   5.647   4.999  11.029 -0.0751  1.3317 -0.0919
  955MOL0     C28857   5.617   5.122  11.095 -0.3755 -0.5825 -0.1922
  955MOL0     H28858   5.262   5.202  10.931  2.4005 -4.4309  0.4079
  955MOL0     H28859   5.057   5.319  10.975  2.8906 -0.8403 -2.1766
  955MOL0     H28860   4.840   5.292  11.020 -1.8825  0.3342 -1.5004
  955MOL0     H28861   4.711   5.290  11.150  0.3473 -1.3444 -0.1053
  955MOL0     H28862   4.732   5.508  11.009  0.6883  0.1827 -0.6659
  955MOL0     H28863   4.883   5.530  11.105 -0.1699 -1.6474  1.4788
  955MOL0     H28864   4.749   5.517  11.309  1.2484  1.3110  1.1239
  955MOL0     H28865   4.597   5.515  11.197  1.3093  1.4063 -3.6218
  955MOL0     H28866   4.703   5.723  11.324  4.7218 -0.9907  0.8140
  955MOL0     H28867   4.826   5.723  11.202 -0.0297  0.0089 -0.9378
  955MOL0     H28868   4.582   5.711  11.046 -2.0186 -1.7958  1.8507
  955MOL0     H28869   4.520   5.777  11.185 -0.2688 -1.7270  0.3468
  955MOL0     H28870   4.717   5.957  11.163 -1.1001 -0.2313  1.0537
  955MOL0     H28871   4.750   5.888  11.003 -0.4170 -0.8317 -0.0229
  955MOL0     H28872   4.488   5.901  10.969  1.8612 -2.1758  0.4400
  955MOL0     H28873   4.593   6.028  10.920  2.9016 -1.6093  0.0428
  955MOL0     H28874   4.380   6.072  11.109  0.2928 -0.0194  1.6352
  955MOL0     H28875   4.522   6.057  11.210  0.4773 -4.8121 -1.3805
  955MOL0     H28876   4.377   6.259  10.914  1.1091 -0.1457 -1.4222
  955MOL0     H28877   4.524   6.570  10.850  0.4964 -1.7940 -0.6514
  955MOL0     H28878   4.359   6.500  10.873  1.5735 -3.7239 -0.2970
  955MOL0     H28879   4.372   6.622  11.104  0.9008  1.1013  1.7628
  955MOL0     H28880   4.517   6.703  11.048 -1.2283 -0.4441  2.9020
  955MOL0     H28881   4.428   6.832  10.886  0.6727 -1.0937 -0.0288
  955MOL0     H28882   4.314   6.852  11.019 -1.5443  2.1214 -1.5880
  955MOL0     H28883   4.284   6.678  10.763  0.4859 -2.4371  1.6045
  955MOL0     H28884   4.226   6.842  10.803 -0.0942  0.6574  3.4384
  955MOL0     H28885   4.051   6.435  10.894  0.2151 -2.7127 -0.8227
  955MOL0     H28886   3.901   6.336  10.735 -1.0143  0.3681  0.6159
  955MOL0     H28887   3.578   6.136  10.586 -0.5422 -2.6140  0.0537
  955MOL0     H28888   3.460   6.009  10.421 -2.0081  0.8063 -1.8861
  955MOL0     H28889   3.403   5.874  10.259 -0.0840  1.2135  0.6226
  955MOL0     H28890   3.321   6.028  10.224 -0.8723  0.5204 -1.0619
  955MOL0     H28891   3.295   5.940   9.988  2.7634 -1.4295 -1.8799
  955MOL0     H28892   3.389   5.804  10.028  0.3086  0.3403  0.1959
  955MOL0     H28893   3.133   5.823  10.190  0.5434  0.5240 -0.5326
  955MOL0     H28894   3.127   5.809  10.014  0.2744 -2.2902 -0.8684
  955MOL0     H28895   3.302   5.616  10.168  0.0488  3.1635  0.0615
  955MOL0     H28896   3.249   5.599  10.007  2.3293 -2.5190  2.1063
  955MOL0     H28897   3.050   5.591  10.248  0.8878  1.1962 -0.4204
  955MOL0     H28898   3.124   5.454  10.169 -2.2765  0.3347  0.7455
  955MOL0     H28899   2.941   5.646  10.030  1.4739  0.7777  0.3409
  955MOL0     H28900   3.046   5.559   9.939 -0.2750  2.2028  0.5379
  955MOL0     H28901   2.970   5.348  10.006  1.8013  1.0080  1.0254
  955MOL0     H28902   2.824   5.442   9.958  0.0581  1.0853 -0.1146
  955MOL0     H28903   2.865   5.349  10.246  3.8071 -1.0723 -1.3764
  955MOL0     H28904   2.800   5.506  10.196  0.3142 -0.0165 -0.9923
  955MOL0     H28905   3.683   6.189  10.106 -0.8050  3.5186 -0.4578
  955MOL0     H28906   3.818   6.312  10.269  0.8738 -0.5197 -2.0154
  955MOL0     H28907   3.869   6.706  10.516  4.6422  1.5514 -1.1673
  955MOL0     H28908   3.997   6.824  10.678 -4.0142  1.6283  2.1176
  955MOL0     H28909   5.019   5.135  11.356  1.4094 -0.8574  0.1269
  955MOL0     H28910   5.206   4.978  11.303 -2.0178 -1.1943  0.1561
  955MOL0     H28911   5.479   4.747  10.875 -1.4408 -0.0966  2.6061
  955MOL0     H28912   5.721   4.653  10.854 -0.8327  2.1920 -2.9206
  955MOL0     H28913   5.933   4.602  10.989  0.2761 -0.5817  0.4851
  955MOL0     H28914   5.962   4.732  11.112  1.5944 -3.4810  1.4306
  955MOL0     H28915   6.147   4.686  10.871  0.3136 -2.5587 -0.2696
  955MOL0     H28916   6.177   4.594  11.015  0.4846  1.4515  1.3173
  955MOL0     H28917   6.197   4.814  11.134  0.2800 -2.6138  0.5463
  955MOL0     H28918   6.207   4.896  10.973 -2.3388 -0.8290 -1.4222
  955MOL0     H28919   6.413   4.749  10.929 -0.4028 -1.2866 -0.4483
  955MOL0     H28920   6.416   4.857  11.079 -0.5237 -0.2657  0.6350
  955MOL0     H28921   6.451   4.470  11.247 -2.6215  0.3011 -1.8031
  955MOL0     H28922   5.858   5.006  11.048 -0.9704  1.8534 -0.9355
  955MOL0     H28923   5.709   5.180  11.111 -1.6910  1.0394  2.1882
  955MOL0     H28924   5.551   5.181  11.032  2.4542  1.9692 -1.0105
  955MOL0     H28925   5.571   5.106  11.194 -0.0362 -0.3935 -0.0013
  956MOL0     O28926   7.624   3.994   8.232 -1.1850 -0.3554 -0.4401
  956MOL0     C28927   7.591   4.110   8.238  0.8089 -0.3232 -0.6360
  956MOL0     O28928   7.657   4.229   8.196 -0.7076 -0.2273 -0.7798
  956MOL0     C28929   7.773   4.200   8.139  0.3550  0.2211  0.2164
  956MOL0     C28930   7.787   4.122   8.023  0.2978 -0.4086  0.3491
  956MOL0     C28931   7.913   4.117   7.961  0.1098 -0.4219 -0.0836
  956MOL0     C28932   8.027   4.190   8.016 -0.7728  0.1312 -0.1160
  956MOL0     O28933   8.157   4.186   7.974  0.7198 -0.2667 -0.2878
  956MOL0     C28934   8.181   4.118   7.850 -0.3328  0.6300 -0.3295
  956MOL0     C28935   8.324   4.157   7.842 -0.3266 -0.0465 -0.4911
  956MOL0     C28936   8.389   4.104   7.715 -0.0558  0.0597  0.1883
  956MOL0     C28937   8.528   4.163   7.717  1.5676  1.0991 -1.3384
  956MOL0     C28938   8.608   4.116   7.594 -1.1638  0.2077  0.3156
  956MOL0     C28939   8.741   4.193   7.580 -0.5661  0.6272 -0.5250
  956MOL0     C28940   8.830   4.164   7.457  0.5074  0.3616  0.1670
  956MOL0     C28941   8.895   4.019   7.467  0.2280  0.1107 -0.4935
  956MOL0     N28942   8.938   3.962   7.342  0.8305  0.5395 -0.1942
  956MOL0     C28943   9.067   3.960   7.286  1.0827  1.2097  0.8148
  956MOL0     C28944   9.048   3.908   7.168  0.5487 -0.3209 -0.2681
  956MOL0     C28945   9.150   3.906   7.064 -0.4420  0.7994  0.0889
  956MOL0     C28946   9.128   3.801   6.960 -0.3735  0.7727 -0.2954
  956MOL0     C28947   9.198   3.801   6.824 -0.0503 -0.5299 -0.2393
  956MOL0     C28948   9.139   3.696   6.732 -0.0902  0.3908  0.0311
  956MOL0     O28949   9.216   3.716   6.614  0.5513  0.5324 -0.2247
  956MOL0     C28950   9.259   3.607   6.538  0.4069 -0.5614 -0.4001
  956MOL0     C28951   9.242   3.472   6.573  0.3764 -0.5357 -0.3449
  956MOL0     C28952   9.288   3.382   6.484 -0.4266 -0.0791 -0.0633
  956MOL0     C28953   9.339   3.426   6.358  0.3695 -0.5075  0.7928
  956MOL0     C28954   9.360   3.328   6.255 -0.3875  0.6912 -0.6529
  956MOL0     O28955   9.371   3.382   6.132 -0.4400  0.2877  0.2764
  956MOL0     C28956   9.392   3.311   6.009  0.5902  0.5155  0.7093
  956MOL0     C28957   9.358   3.378   5.883 -0.8362 -0.0400 -0.9488
  956MOL0     C28958   9.385   3.329   5.764 -0.4437 -0.9814 -0.0450
  956MOL0     C28959   9.438   3.204   5.750  0.4952  0.6570  0.3355
  956MOL0     O28960   9.468   3.169   5.617  0.4146  0.2372  0.1187
  956MOL0     C28961   9.501   3.035   5.583 -0.9396  0.3924  0.0331
  956MOL0     C28962   9.447   2.983   5.449 -1.2507  1.0803 -0.1861
  956MOL0     C28963   9.428   2.832   5.447 -1.0433  0.0159  0.7938
  956MOL0     C28964   9.560   2.738   5.456 -1.1642 -0.8348 -0.5209
  956MOL0     C28965   9.536   2.587   5.435 -0.5042 -0.4758 -0.3275
  956MOL0     C28966   9.658   2.504   5.477  0.1246  0.0562  0.5763
  956MOL0     C28967   9.643   2.350   5.449  0.1071  0.6279 -0.1526
  956MOL0     C28968   9.527   2.280   5.536  0.0454  0.3124  1.0403
  956MOL0    Cl28969   9.492   2.106   5.480 -0.2293  0.5052  0.0731
  956MOL0     C28970   9.479   3.132   5.865 -0.1577 -0.3564 -0.4594
  956MOL0     C28971   9.451   3.183   5.993  1.3720  0.2700 -1.0836
  956MOL0     O28972   9.338   3.207   6.272 -0.1185 -0.9234  0.5853
  956MOL0     C28973   9.353   3.562   6.329 -0.5109 -0.0522  0.3696
  956MOL0     C28974   9.328   3.654   6.427 -0.6360  0.1857 -0.2552
  956MOL0     N28975   8.911   3.886   7.143  0.1142 -0.3650 -0.6715
  956MOL0     N28976   8.846   3.931   7.249 -0.6688  0.6397  0.8500
  956MOL0     C28977   8.003   4.254   8.135 -0.3753 -1.6147  0.3411
  956MOL0     C28978   7.882   4.270   8.191 -0.0496 -0.9754  0.0184
  956MOL0     C28979   7.451   4.147   8.281  0.0926 -0.1710 -0.9838
  956MOL0     C28980   7.335   4.077   8.242 -0.6134 -0.6314 -0.1734
  956MOL0     C28981   7.210   4.111   8.295 -1.0682  0.4790  0.8667
  956MOL0     C28982   7.187   4.212   8.379 -0.2586  0.7897  0.4659
  956MOL0     O28983   7.056   4.246   8.402 -0.8098 -0.1342 -0.3721
  956MOL0     C28984   7.026   4.374   8.461 -0.0902 -0.6810  0.5456
  956MOL0     C28985   7.011   4.472   8.341 -0.6441  0.2896  0.3049
  956MOL0     C28986   6.937   4.606   8.374 -0.1873  0.4814  0.7330
  956MOL0     C28987   6.880   4.679   8.256 -0.2344 -0.2666 -0.4323
  956MOL0     C28988   6.820   4.590   8.155 -0.2491 -0.4156  0.7807
  956MOL0     C28989   6.794   4.508   8.065 -0.3822  0.2359  0.9218
  956MOL0     C28990   7.299   4.272   8.427  0.1106 -0.3160 -0.1048
  956MOL0     C28991   7.422   4.254   8.367 -0.8817 -0.2367 -0.1758
  956MOL0     C28992   7.539   4.334   8.428  0.0607 -0.2244  0.0137
  956MOL0     H28993   7.706   4.063   7.982  1.6753 -1.8100 -0.4641
  956MOL0     H28994   7.905   4.050   7.876  0.0097 -1.1711  0.5068
  956MOL0     H28995   8.164   4.011   7.858  1.1552  0.5079  2.4228
  956MOL0     H28996   8.111   4.158   7.776  0.4518 -1.2111 -2.1424
  956MOL0     H28997   8.386   4.119   7.923  1.1970  2.1301 -0.5571
  956MOL0     H28998   8.338   4.265   7.837  0.4704 -0.1038  0.3807
  956MOL0     H28999   8.337   4.144   7.628  0.1430 -1.5482 -0.6992
  956MOL0     H29000   8.386   3.995   7.723 -0.4641  0.0304 -0.3329
  956MOL0     H29001   8.519   4.272   7.721  0.7955  1.0566  3.3272
  956MOL0     H29002   8.590   4.140   7.804 -1.2449  0.2456  0.5991
  956MOL0     H29003   8.620   4.009   7.614 -0.9152 -0.3992 -2.6009
  956MOL0     H29004   8.554   4.140   7.502 -2.2552  2.0578  1.3555
  956MOL0     H29005   8.717   4.299   7.586 -3.4821  0.0016  0.8547
  956MOL0     H29006   8.797   4.168   7.671  0.9053 -0.5020 -1.6899
  956MOL0     H29007   8.894   4.250   7.436 -2.2908  2.5821  0.1040
  956MOL0     H29008   8.768   4.177   7.368 -1.1210  2.2652  1.4854
  956MOL0     H29009   8.983   4.027   7.531  0.6621  3.1500 -1.2795
  956MOL0     H29010   8.822   3.956   7.519 -0.4078  2.9250  2.3339
  956MOL0     H29011   9.161   3.988   7.332  1.7942 -0.1967  0.2748
  956MOL0     H29012   9.150   4.005   7.019  0.2902  0.9698  0.4643
  956MOL0     H29013   9.241   3.889   7.122 -0.2346 -2.0238 -0.9175
  956MOL0     H29014   9.169   3.712   7.009 -0.2412  0.5836 -0.7490
  956MOL0     H29015   9.025   3.766   6.947  0.1944 -2.6722  2.6912
  956MOL0     H29016   9.306   3.793   6.838 -0.1541 -1.9012 -0.1266
  956MOL0     H29017   9.182   3.893   6.767  2.9960  1.6142  2.0141
  956MOL0     H29018   9.031   3.700   6.715 -0.5732 -4.9700 -0.0722
  956MOL0     H29019   9.162   3.599   6.778  2.4894  0.3852 -1.1189
  956MOL0     H29020   9.212   3.440   6.672  2.0255 -1.4769 -0.1092
  956MOL0     H29021   9.286   3.277   6.510 -0.8581 -0.7387 -2.4962
  956MOL0     H29022   9.313   3.477   5.886  0.9919  0.8187  0.8370
  956MOL0     H29023   9.359   3.376   5.670  0.6497  1.7004  0.8711
  956MOL0     H29024   9.610   3.036   5.579 -0.8236 -0.6762  1.8178
  956MOL0     H29025   9.450   2.973   5.658 -0.7699 -0.6524 -0.6881
  956MOL0     H29026   9.354   3.030   5.416 -0.2028  2.7349 -0.9229
  956MOL0     H29027   9.529   3.002   5.378 -1.5268  0.8247 -0.5817
  956MOL0     H29028   9.372   2.795   5.533 -0.0863 -0.3407  1.2789
  956MOL0     H29029   9.370   2.819   5.355  0.0367 -0.4607  0.1626
  956MOL0     H29030   9.604   2.754   5.554 -0.1330 -0.6461 -1.0043
  956MOL0     H29031   9.632   2.776   5.383 -2.2320  2.2125 -0.1309
  956MOL0     H29032   9.489   2.559   5.340  1.5811  2.4046 -2.4112
  956MOL0     H29033   9.460   2.565   5.510  1.2519  2.6167  2.7022
  956MOL0     H29034   9.741   2.548   5.421 -1.8181 -2.0316 -4.5845
  956MOL0     H29035   9.680   2.521   5.582 -0.4311  0.2791  0.6597
  956MOL0     H29036   9.738   2.303   5.475  0.9788  1.8189 -1.1031
  956MOL0     H29037   9.636   2.344   5.340  2.4129  4.1269 -0.6505
  956MOL0     H29038   9.555   2.273   5.642 -1.9343 -0.1064  1.5809
  956MOL0     H29039   9.436   2.341   5.531  0.8832  1.6043  0.9632
  956MOL0     H29040   9.534   3.038   5.854  0.5137 -0.6373  3.8069
  956MOL0     H29041   9.468   3.128   6.085 -1.5595  0.1906 -0.4960
  956MOL0     H29042   9.403   3.600   6.241  2.1221  0.9812  2.1556
  956MOL0     H29043   9.342   3.759   6.406  2.3541 -0.0550  0.1137
  956MOL0     H29044   8.083   4.309   8.184 -2.4957  1.1328  0.9118
  956MOL0     H29045   7.860   4.336   8.273 -1.8888  0.9486 -1.9145
  956MOL0     H29046   7.344   3.995   8.171  0.3241 -0.2560 -0.4956
  956MOL0     H29047   7.127   4.056   8.251  0.3730 -2.0049  1.0586
  956MOL0     H29048   7.075   4.413   8.551 -4.2293  0.5929  2.4867
  956MOL0     H29049   6.926   4.353   8.501 -1.2291 -0.9152 -2.2548
  956MOL0     H29050   6.978   4.416   8.253 -2.5927 -2.1879  2.4523
  956MOL0     H29051   7.112   4.497   8.305 -1.2546 -0.3391 -2.0069
  956MOL0     H29052   7.003   4.676   8.427  1.4974  1.0617 -1.9079
  956MOL0     H29053   6.855   4.598   8.446 -0.9979  1.1640 -0.0918
  956MOL0     H29054   6.811   4.752   8.300  0.6557 -0.2470  1.0029
  956MOL0     H29055   6.955   4.743   8.209  3.7835 -2.4724  2.3372
  956MOL0     H29056   6.790   4.433   7.989  1.1088  0.4247  0.6351
  956MOL0     H29057   7.282   4.357   8.492 -0.4688  0.0960 -0.7804
  956MOL0     H29058   7.623   4.265   8.444 -1.1248 -1.4730  0.9958
  956MOL0     H29059   7.568   4.403   8.348 -2.1046 -0.1385 -0.7559
  956MOL0     H29060   7.518   4.394   8.517 -1.3291 -0.8263  0.1040
  957MOL0     O29061   2.865   7.573   6.115  0.1158 -0.2588  0.4483
  957MOL0     C29062   2.762   7.630   6.158  0.2583  0.3994 -0.0818
  957MOL0     O29063   2.703   7.597   6.273 -0.3497 -0.7054  0.0860
  957MOL0     C29064   2.730   7.488   6.354  0.4776 -0.6732 -0.2141
  957MOL0     C29065   2.716   7.508   6.491  0.7949  0.5628  0.1797
  957MOL0     C29066   2.744   7.408   6.583  0.1569  0.1674  0.1315
  957MOL0     C29067   2.804   7.287   6.542  1.3203 -0.1731  0.0754
  957MOL0     O29068   2.813   7.189   6.632 -0.1463 -0.1143  0.2283
  957MOL0     C29069   2.901   7.217   6.736 -0.1686  0.2375 -0.3758
  957MOL0     C29070   2.928   7.084   6.800 -0.0099 -0.1645  0.9249
  957MOL0     C29071   2.976   7.101   6.938  0.5994 -0.4355  0.1488
  957MOL0     C29072   3.004   6.967   7.001  0.2093  0.5923  0.0434
  957MOL0     C29073   3.087   6.981   7.136  0.4634 -1.7020  1.1848
  957MOL0     C29074   3.093   6.839   7.197 -0.6938  0.7140 -0.5497
  957MOL0     C29075   3.156   6.839   7.331 -0.9572 -0.6494 -0.6140
  957MOL0     C29076   3.105   6.739   7.439 -0.3129  0.3863  0.7351
  957MOL0     N29077   3.140   6.599   7.392  0.7377 -0.2537 -0.8862
  957MOL0     C29078   3.067   6.526   7.300  0.6381 -0.9749 -0.4619
  957MOL0     C29079   3.123   6.405   7.303  0.1019  0.5734 -0.0361
  957MOL0     C29080   3.079   6.305   7.190  0.4880 -0.0079  0.2169
  957MOL0     C29081   3.073   6.158   7.235  0.0229 -0.0626 -0.8715
  957MOL0     C29082   2.937   6.105   7.216 -1.8908 -0.1734  0.5688
  957MOL0     C29083   2.927   5.964   7.269  0.4134 -1.3598 -0.6030
  957MOL0     O29084   2.805   5.900   7.218 -0.2445  0.3841  0.5436
  957MOL0     C29085   2.802   5.767   7.186 -0.4680  0.2035  0.2506
  957MOL0     C29086   2.681   5.707   7.177  0.5080 -0.4127 -1.0259
  957MOL0     C29087   2.664   5.572   7.129 -0.3604  0.9663  0.2668
  957MOL0     C29088   2.775   5.501   7.103  0.0986 -0.3738 -0.1901
  957MOL0     C29089   2.770   5.368   7.038  0.0828  1.1795 -0.5766
  957MOL0     O29090   2.651   5.307   7.016  0.0044  0.2364 -0.2982
  957MOL0     C29091   2.642   5.181   6.960 -0.5883 -1.0616  0.6847
  957MOL0     C29092   2.545   5.153   6.866  0.8114 -0.6206 -0.3202
  957MOL0     C29093   2.523   5.023   6.822 -0.6877  0.2891 -0.3485
  957MOL0     C29094   2.604   4.919   6.861 -0.5640 -0.0795 -0.6556
  957MOL0     O29095   2.603   4.788   6.827  0.6268 -0.4863 -0.0867
  957MOL0     C29096   2.500   4.723   6.744 -0.0568  0.0602  1.5884
  957MOL0     C29097   2.557   4.702   6.604  1.6158 -0.8333 -0.3257
  957MOL0     C29098   2.458   4.643   6.509  0.1610 -0.6234 -0.4130
  957MOL0     C29099   2.487   4.682   6.361  0.0020 -0.1363 -0.8823
  957MOL0     C29100   2.392   4.620   6.256 -0.1529  0.0576  0.9287
  957MOL0     C29101   2.232   4.609   6.293  0.1837 -0.4792  0.9852
  957MOL0     C29102   2.180   4.570   6.156 -0.1111  1.1552  0.4487
  957MOL0     C29103   2.022   4.547   6.146 -0.3819 -0.7481 -1.0310
  957MOL0    Cl29104   1.953   4.722   6.151 -0.1606 -0.7228 -0.0195
  957MOL0     C29105   2.681   4.945   6.976 -0.5359 -0.0438 -1.2281
  957MOL0     C29106   2.707   5.078   7.018  0.7992  1.0988  0.3480
  957MOL0     O29107   2.873   5.315   6.999 -0.1255  0.4049 -0.3920
  957MOL0     C29108   2.904   5.562   7.103  0.1984  1.0713 -0.1197
  957MOL0     C29109   2.913   5.696   7.141  1.1121  0.3846  1.0459
  957MOL0     N29110   3.237   6.407   7.384 -0.0251  0.5880  0.1294
  957MOL0     N29111   3.236   6.518   7.450  0.0229  0.3705 -0.4006
  957MOL0     C29112   2.806   7.258   6.406  0.3326  0.4672  0.3530
  957MOL0     C29113   2.773   7.356   6.313  0.6403 -0.6589  0.0614
  957MOL0     C29114   2.730   7.758   6.090  0.1830 -0.1711  0.6949
  957MOL0     C29115   2.811   7.808   5.980  0.8474  0.2270 -0.1151
  957MOL0     C29116   2.782   7.927   5.917  0.0635  0.9691  0.9227
  957MOL0     C29117   2.681   8.012   5.949 -0.6634 -0.0384 -0.3236
  957MOL0     O29118   2.663   8.136   5.898  0.9196  0.0315  0.7255
  957MOL0     C29119   2.713   8.173   5.773  0.0743  0.2883 -0.7214
  957MOL0     C29120   2.827   8.273   5.793  0.5711  0.7612 -0.7020
  957MOL0     C29121   2.770   8.410   5.824 -0.5527  0.7711 -0.4505
  957MOL0     C29122   2.876   8.517   5.852  0.1255  0.1177 -1.3391
  957MOL0     C29123   2.805   8.639   5.890 -1.3110 -0.2128 -0.6907
  957MOL0     C29124   2.764   8.746   5.940 -0.0696 -0.5231  0.2808
  957MOL0     C29125   2.601   7.973   6.056  0.1177 -0.1510 -0.1265
  957MOL0     C29126   2.628   7.851   6.130  0.8582  0.4437 -0.8848
  957MOL0     C29127   2.536   7.832   6.249 -1.2629  0.3409 -0.7518
  957MOL0     H29128   2.663   7.593   6.534  0.6238 -0.6677  2.6002
  957MOL0     H29129   2.723   7.413   6.690  2.1135 -2.2911  0.7410
  957MOL0     H29130   2.995   7.261   6.701 -1.1448  0.9151 -2.2963
  957MOL0     H29131   2.846   7.275   6.810 -2.2120 -0.0311 -1.6039
  957MOL0     H29132   3.001   7.040   6.731  0.3218  1.4730  0.1937
  957MOL0     H29133   2.838   7.022   6.805  0.1722 -0.4827  0.3277
  957MOL0     H29134   2.904   7.155   7.000 -0.1603  0.8445 -1.7579
  957MOL0     H29135   3.067   7.162   6.935 -1.1683  2.3479 -1.2747
  957MOL0     H29136   2.908   6.922   7.029  1.0878 -0.6240  1.2563
  957MOL0     H29137   3.062   6.910   6.928 -0.1516  1.2142 -0.7501
  957MOL0     H29138   3.191   7.014   7.124  0.8579 -3.7631 -3.1106
  957MOL0     H29139   3.037   7.030   7.219 -0.1133 -0.3033  0.0569
  957MOL0     H29140   2.997   6.786   7.203 -1.0448  0.8549 -3.3428
  957MOL0     H29141   3.159   6.783   7.131 -0.7319  1.2575 -1.0562
  957MOL0     H29142   3.134   6.937   7.375  2.0362  0.7758 -1.9571
  957MOL0     H29143   3.265   6.838   7.320 -0.8578  0.9971 -0.0485
  957MOL0     H29144   3.156   6.738   7.536 -0.4392 -1.7969  0.8471
  957MOL0     H29145   3.003   6.756   7.474 -0.8627  0.8056 -0.9791
  957MOL0     H29146   2.978   6.551   7.242 -0.0202 -1.1532  0.4516
  957MOL0     H29147   2.987   6.341   7.143  0.4206  1.2316  1.2137
  957MOL0     H29148   3.158   6.314   7.115  0.1353 -2.3025 -0.4939
  957MOL0     H29149   3.137   6.101   7.168 -1.6045 -0.0137 -2.5317
  957MOL0     H29150   3.107   6.140   7.338  0.6334  1.0840 -0.8472
  957MOL0     H29151   2.924   6.108   7.108  1.7601 -2.1592 -0.0795
  957MOL0     H29152   2.866   6.174   7.262 -1.9650  0.8599 -1.0254
  957MOL0     H29153   2.904   5.983   7.375  1.7504 -0.2488 -0.4897
  957MOL0     H29154   3.011   5.894   7.263  0.6794 -1.6754  3.6423
  957MOL0     H29155   2.594   5.766   7.204  1.4074  0.4654  0.0254
  957MOL0     H29156   2.564   5.530   7.127  0.2731 -0.6497  0.5079
  957MOL0     H29157   2.471   5.229   6.843  0.1940 -0.2828  2.4590
  957MOL0     H29158   2.438   5.015   6.755  0.0487  0.7897 -1.3658
  957MOL0     H29159   2.485   4.621   6.781  1.5303 -0.5795  0.5899
  957MOL0     H29160   2.414   4.790   6.746  0.3153  0.5350  2.4397
  957MOL0     H29161   2.578   4.806   6.580 -2.5878  0.5036  0.8430
  957MOL0     H29162   2.647   4.641   6.614  1.4462 -1.2064 -1.0131
  957MOL0     H29163   2.448   4.534   6.517 -1.1666 -0.4884 -0.0017
  957MOL0     H29164   2.356   4.673   6.535  0.0445 -1.0349 -0.3807
  957MOL0     H29165   2.588   4.670   6.320  0.1365 -0.2833 -0.5080
  957MOL0     H29166   2.483   4.792   6.362 -0.5532 -0.1318 -1.9794
  957MOL0     H29167   2.424   4.522   6.220 -3.4301 -0.1694 -1.8269
  957MOL0     H29168   2.403   4.685   6.169  1.1705 -0.7849  0.4289
  957MOL0     H29169   2.208   4.550   6.381  0.3371  1.8724  2.6867
  957MOL0     H29170   2.192   4.706   6.322  0.5411  0.1274 -0.4243
  957MOL0     H29171   2.232   4.478   6.125 -0.1248  1.6340 -1.0733
  957MOL0     H29172   2.217   4.656   6.100  2.2685  2.6436  3.9623
  957MOL0     H29173   1.995   4.501   6.051  0.9643  0.4795 -2.0493
  957MOL0     H29174   1.976   4.482   6.221 -0.7422  1.0687  0.3991
  957MOL0     H29175   2.732   4.860   7.021 -1.6919  0.2462  0.7276
  957MOL0     H29176   2.775   5.102   7.099  2.7067  2.4968 -1.5356
  957MOL0     H29177   2.979   5.493   7.065 -3.2878 -1.9048 -2.2948
  957MOL0     H29178   3.005   5.753   7.133  0.7063  0.7823 -2.1582
  957MOL0     H29179   2.843   7.158   6.384 -2.8887 -1.1404  1.5089
  957MOL0     H29180   2.790   7.338   6.208  0.5725  1.6483 -0.3985
  957MOL0     H29181   2.893   7.749   5.940 -2.9506 -4.0805 -2.5303
  957MOL0     H29182   2.850   7.954   5.837  1.7560 -0.9203  1.6352
  957MOL0     H29183   2.642   8.225   5.708 -0.4420  1.1112  0.4632
  957MOL0     H29184   2.751   8.092   5.710  1.5907  1.9107 -2.0272
  957MOL0     H29185   2.900   8.274   5.711  0.5837 -0.3353 -0.7087
  957MOL0     H29186   2.876   8.239   5.884 -1.5905  2.1937  1.1007
  957MOL0     H29187   2.690   8.402   5.899  0.5909  0.5611  0.7872
  957MOL0     H29188   2.721   8.443   5.732  3.1207 -0.6971 -3.1304
  957MOL0     H29189   2.956   8.481   5.917  0.6564 -1.7637 -2.9548
  957MOL0     H29190   2.922   8.538   5.755  1.5185  0.9659 -0.5333
  957MOL0     H29191   2.716   8.833   5.979  1.6525 -0.1432  1.7054
  957MOL0     H29192   2.526   8.044   6.089 -0.1921  0.6433 -2.3729
  957MOL0     H29193   2.441   7.883   6.236 -2.1972 -0.1501  3.0452
  957MOL0     H29194   2.518   7.731   6.285  0.6679 -0.0935 -0.8844
  957MOL0     H29195   2.581   7.885   6.334 -0.2387  0.0812 -1.1122
  958MOL0     O29196   7.491   4.746  10.957  1.0988 -0.3232 -0.1127
  958MOL0     C29197   7.420   4.699  10.869 -0.0793  0.3794 -0.4139
  958MOL0     O29198   7.291   4.691  10.885  0.2970  0.6386  0.6878
  958MOL0     C29199   7.236   4.703  11.007  0.0094  0.8019  0.7339
  958MOL0     C29200   7.141   4.807  11.045  0.9005  0.4653 -0.0641
  958MOL0     C29201   7.088   4.809  11.176 -0.8060 -0.2659 -0.2852
  958MOL0     C29202   7.115   4.711  11.267 -0.4205 -0.8563  0.6025
  958MOL0     O29203   7.078   4.702  11.394 -0.0677  0.6169  0.1757
  958MOL0     C29204   7.050   4.833  11.453  0.0507  1.0894  0.0434
  958MOL0     C29205   7.028   4.832  11.602  0.0765 -0.5191  0.2783
  958MOL0     C29206   6.952   4.715  11.660  0.2481  0.2988  1.0751
  958MOL0     C29207   7.019   4.678  11.794  0.8964 -1.0046 -0.2213
  958MOL0     C29208   6.938   4.567  11.852  0.0687  0.0743  0.0296
  958MOL0     C29209   6.823   4.635  11.927 -0.5186  0.3526 -0.8740
  958MOL0     C29210   6.842   4.585  12.078 -0.5314 -0.4888 -0.2539
  958MOL0     C29211   6.735   4.634  12.171  0.2594  0.2462 -0.5736
  958MOL0     N29212   6.760   4.573  12.310 -0.2170  0.1203  0.0712
  958MOL0     C29213   6.875   4.562  12.377 -0.2492  0.5126 -0.3559
  958MOL0     C29214   6.839   4.493  12.489 -1.4199  0.1927 -0.9473
  958MOL0     C29215   6.944   4.463  12.601  0.3123  0.4544  0.2401
  958MOL0     C29216   7.019   4.326  12.597 -0.2494 -0.7772 -0.4925
  958MOL0     C29217   6.938   4.201  12.629 -0.5166  0.9541  0.2885
  958MOL0     C29218   6.866   4.149  12.514 -0.5390  0.7529  0.2158
  958MOL0     O29219   6.944   4.065  12.424 -0.4116  0.3466 -0.3714
  958MOL0     C29220   7.016   4.110  12.320 -0.5205 -0.3101 -0.5678
  958MOL0     C29221   7.017   4.234  12.267 -0.1348  0.7822  0.9406
  958MOL0     C29222   7.103   4.258  12.156 -0.1963 -0.8598 -0.7400
  958MOL0     C29223   7.186   4.162  12.110 -0.5895  1.2591  0.3069
  958MOL0     C29224   7.265   4.190  11.984  0.4562 -0.6084  0.6996
  958MOL0     O29225   7.245   4.322  11.940 -0.3133  0.0490 -0.0444
  958MOL0     C29226   7.297   4.358  11.821 -0.2227  0.6035 -0.2994
  958MOL0     C29227   7.431   4.380  11.812  0.8437  0.1609 -0.1404
  958MOL0     C29228   7.484   4.426  11.693 -0.0460  0.6024  0.3046
  958MOL0     C29229   7.400   4.443  11.571  0.9088  1.1359 -0.5042
  958MOL0     O29230   7.438   4.493  11.448 -0.5279 -0.2081  0.8200
  958MOL0     C29231   7.580   4.509  11.414  0.0266 -0.3023 -0.0070
  958MOL0     C29232   7.590   4.606  11.302 -0.0868  0.4752  0.2136
  958MOL0     C29233   7.735   4.641  11.292 -0.1674  0.0046  1.0566
  958MOL0     C29234   7.757   4.739  11.176  0.5029 -0.2757  0.5254
  958MOL0     C29235   7.911   4.747  11.144 -0.5065 -0.0808  0.2366
  958MOL0     C29236   7.933   4.875  11.065 -0.8711  0.3327  1.1108
  958MOL0     C29237   8.077   4.914  11.034 -0.3022 -0.7663  0.3987
  958MOL0     C29238   8.153   4.810  10.949 -1.6920  0.7834  1.1960
  958MOL0    Cl29239   8.067   4.825  10.788  0.4822  0.7152  0.3487
  958MOL0     C29240   7.260   4.412  11.583 -0.2584 -0.4476  0.2169
  958MOL0     C29241   7.213   4.370  11.714 -0.3251  0.6873  0.3431
  958MOL0     O29242   7.345   4.110  11.935  0.6442 -0.0336 -0.7623
  958MOL0     C29243   7.159   4.027  12.147 -0.0183 -0.3818  0.7501
  958MOL0     C29244   7.081   4.003  12.260  0.7432 -0.6900 -0.7803
  958MOL0     N29245   6.721   4.450  12.486  0.6915 -0.3959  0.1228
  958MOL0     N29246   6.671   4.497  12.369  0.3786  0.9275 -0.0306
  958MOL0     C29247   7.206   4.612  11.231  0.1680 -0.6403  0.1097
  958MOL0     C29248   7.264   4.603  11.101 -1.2318 -0.0747  0.4452
  958MOL0     C29249   7.491   4.629  10.755 -0.5877 -0.9878  0.1432
  958MOL0     C29250   7.411   4.546  10.686 -0.7319  0.3399  0.1911
  958MOL0     C29251   7.461   4.487  10.568  0.6743 -0.7645  0.0245
  958MOL0     C29252   7.595   4.516  10.519  0.6758  0.2907  0.5783
  958MOL0     O29253   7.628   4.452  10.397  0.2214 -0.2008  0.4980
  958MOL0     C29254   7.774   4.460  10.371 -0.0272 -0.5132 -1.2189
  958MOL0     C29255   7.808   4.399  10.234  0.4581 -0.2216  0.3141
  958MOL0     C29256   7.745   4.262  10.228 -0.1058 -0.6110  0.3681
  958MOL0     C29257   7.796   4.187  10.109 -0.0965 -1.4299 -0.7901
  958MOL0     C29258   7.714   4.067  10.088  0.9900 -0.6651 -0.4425
  958MOL0     C29259   7.641   3.973  10.086  1.5702 -0.7687  0.6943
  958MOL0     C29260   7.677   4.585  10.608 -0.4416  1.1214  0.2021
  958MOL0     C29261   7.627   4.653  10.721  1.0383  0.2024 -0.2258
  958MOL0     C29262   7.720   4.737  10.800  0.4316  0.1819 -0.4499
  958MOL0     H29263   7.101   4.883  10.979 -2.4035 -1.7965 -0.9236
  958MOL0     H29264   7.023   4.888  11.212  2.5221  1.7583  1.8125
  958MOL0     H29265   7.132   4.902  11.433  3.5117 -3.3348 -3.2758
  958MOL0     H29266   6.964   4.880  11.406 -0.0617  1.6197  0.7657
  958MOL0     H29267   6.974   4.924  11.626  2.8288  1.8299 -1.7721
  958MOL0     H29268   7.130   4.831  11.642  1.5552 -0.4376 -3.0993
  958MOL0     H29269   6.957   4.626  11.597 -0.1843  0.9360  0.1293
  958MOL0     H29270   6.846   4.738  11.675 -0.1807 -1.5564  1.2260
  958MOL0     H29271   7.116   4.635  11.769  1.7746  1.8028 -2.0595
  958MOL0     H29272   7.044   4.757  11.866 -0.4413 -2.2503  1.7305
  958MOL0     H29273   6.890   4.510  11.772  0.4760  1.9850 -1.6436
  958MOL0     H29274   6.985   4.493  11.917 -1.6740  0.3841  1.7684
  958MOL0     H29275   6.817   4.744  11.923 -1.4252  0.3571  0.1185
  958MOL0     H29276   6.734   4.590  11.883  0.3835 -4.2936  1.4106
  958MOL0     H29277   6.941   4.623  12.107 -0.1210 -2.7058  1.5432
  958MOL0     H29278   6.858   4.477  12.091 -0.6562 -0.5930 -0.9107
  958MOL0     H29279   6.740   4.743  12.175  1.3045  0.1839  0.4224
  958MOL0     H29280   6.632   4.610  12.142  0.2820 -1.3921  0.5652
  958MOL0     H29281   6.970   4.608  12.350  0.4626  0.7305  2.2433
  958MOL0     H29282   7.021   4.540  12.588  0.4637  0.4871  1.2407
  958MOL0     H29283   6.901   4.478  12.701 -1.4568 -1.8764 -0.0949
  958MOL0     H29284   7.063   4.315  12.497 -3.1058 -4.3700 -1.5600
  958MOL0     H29285   7.098   4.338  12.672  0.2254 -1.5878 -0.8445
  958MOL0     H29286   6.880   4.229  12.717  2.0378  2.5637  1.6073
  958MOL0     H29287   6.995   4.114  12.661  1.4758  1.1728 -2.3033
  958MOL0     H29288   6.803   4.225  12.466 -1.8911 -1.4493 -1.7162
  958MOL0     H29289   6.791   4.082  12.557 -0.3516 -0.3551 -1.1069
  958MOL0     H29290   6.952   4.307  12.314  1.2143  1.3917  1.9529
  958MOL0     H29291   7.100   4.358  12.116 -0.6694  0.3501  2.0809
  958MOL0     H29292   7.491   4.385  11.903  0.6481  0.8566 -0.0480
  958MOL0     H29293   7.590   4.451  11.693 -0.1821  1.3432  2.5829
  958MOL0     H29294   7.638   4.556  11.494  2.4246 -2.0882 -0.5917
  958MOL0     H29295   7.616   4.408  11.391 -1.4846 -1.5620  2.6740
  958MOL0     H29296   7.544   4.557  11.216  1.3344  2.0755 -1.5698
  958MOL0     H29297   7.525   4.692  11.321  0.4832  1.6097 -2.5273
  958MOL0     H29298   7.775   4.671  11.389 -1.4398 -2.1860  2.3219
  958MOL0     H29299   7.778   4.542  11.271  1.1448  1.0811 -2.0236
  958MOL0     H29300   7.717   4.840  11.192 -0.5030  0.1332 -3.3989
  958MOL0     H29301   7.702   4.704  11.088  2.1527  0.0363 -0.6986
  958MOL0     H29302   7.939   4.658  11.087  3.2366  0.1154  1.5312
  958MOL0     H29303   7.973   4.747  11.234 -1.4431  1.3123  0.9245
  958MOL0     H29304   7.869   4.873  10.975  1.3154 -4.9338 -0.7659
  958MOL0     H29305   7.899   4.959  11.126  1.8695  2.5605 -0.2172
  958MOL0     H29306   8.128   4.916  11.131 -2.4251 -1.9786  1.6136
  958MOL0     H29307   8.074   5.009  10.980  1.5740 -1.3972 -0.9045
  958MOL0     H29308   8.261   4.823  10.933 -1.4669 -3.0100 -2.1081
  958MOL0     H29309   8.145   4.703  10.970  0.7271  0.0189 -1.1696
  958MOL0     H29310   7.180   4.448  11.519 -0.5724  2.9552  2.2386
  958MOL0     H29311   7.106   4.353  11.725 -0.9976  0.1846 -4.4756
  958MOL0     H29312   7.211   3.945  12.098 -0.2084 -1.2731  2.0139
  958MOL0     H29313   7.059   3.908  12.309  0.3239 -0.6028 -0.7969
  958MOL0     H29314   7.229   4.522  11.288 -3.6483 -1.3255  0.8486
  958MOL0     H29315   7.330   4.519  11.083  1.8823  1.8391  2.1265
  958MOL0     H29316   7.306   4.535  10.712 -0.2933 -1.0921  1.5391
  958MOL0     H29317   7.398   4.423  10.508 -0.4097 -1.0630  1.4203
  958MOL0     H29318   7.836   4.392  10.431  0.7224 -1.2228 -2.7452
  958MOL0     H29319   7.814   4.561  10.382  2.0671 -1.3439 -0.5799
  958MOL0     H29320   7.916   4.393  10.219  0.4011 -0.7368  0.1151
  958MOL0     H29321   7.767   4.453  10.148 -2.4153 -2.2644  0.2670
  958MOL0     H29322   7.636   4.268  10.224 -0.1936 -2.3437 -2.5051
  958MOL0     H29323   7.771   4.210  10.321  0.3269  0.2054  0.7194
  958MOL0     H29324   7.773   4.245  10.019 -3.0251  0.2635  0.8959
  958MOL0     H29325   7.904   4.171  10.108  0.2975  0.3699  1.9788
  958MOL0     H29326   7.581   3.884  10.086  3.0890 -1.8592  2.7387
  958MOL0     H29327   7.785   4.581  10.593 -0.1204  2.5771  1.7772
  958MOL0     H29328   7.768   4.681  10.880 -0.4384  0.6595  0.4264
  958MOL0     H29329   7.802   4.770  10.735  1.3736 -2.5395 -0.7560
  958MOL0     H29330   7.675   4.827  10.843 -1.4667 -1.0305  0.2305
  959MOL0     O29331   7.382   8.465   9.881  0.4504  0.6704  0.4987
  959MOL0     C29332   7.466   8.542   9.917 -0.0135 -0.1594  0.0520
  959MOL0     O29333   7.450   8.647   9.996  0.1101 -0.4445 -1.0768
  959MOL0     C29334   7.328   8.652  10.061  0.9788 -0.0013 -0.3158
  959MOL0     C29335   7.314   8.606  10.189  0.1218 -1.0485 -0.0302
  959MOL0     C29336   7.187   8.609  10.252 -1.1840 -0.3840 -0.0786
  959MOL0     C29337   7.082   8.684  10.193 -0.5625  0.8268  0.6360
  959MOL0     O29338   6.956   8.708  10.251 -0.5187 -0.2188 -0.7274
  959MOL0     C29339   6.932   8.635  10.369 -0.2514 -0.1485  0.3015
  959MOL0     C29340   6.799   8.667  10.418 -0.0591 -0.2108 -0.0495
  959MOL0     C29341   6.684   8.642  10.305 -0.7598 -0.5021  0.5993
  959MOL0     C29342   6.538   8.658  10.361  0.1062  0.1877  0.0051
  959MOL0     C29343   6.429   8.690  10.254  0.5039  0.7157 -0.1093
  959MOL0     C29344   6.288   8.721  10.301  0.2702  0.5792  0.5201
  959MOL0     C29345   6.289   8.796  10.427  0.3123 -0.3352  0.1491
  959MOL0     C29346   6.162   8.890  10.432 -0.5642 -0.2454  0.7109
  959MOL0     N29347   6.202   9.031  10.409 -0.5148 -0.4060 -0.0133
  959MOL0     C29348   6.262   9.077  10.296  0.7143 -0.0195  0.4663
  959MOL0     C29349   6.290   9.206  10.306 -0.5840  0.2422 -0.2601
  959MOL0     C29350   6.366   9.291  10.212 -0.4048 -0.4797  1.9289
  959MOL0     C29351   6.485   9.235  10.144 -0.7089  0.5915 -0.5944
  959MOL0     C29352   6.592   9.183  10.239 -0.6491  0.0882 -0.3846
  959MOL0     C29353   6.735   9.164  10.174 -0.5099 -0.9380 -0.2730
  959MOL0     O29354   6.793   9.065  10.257  0.0210 -1.0376 -0.4872
  959MOL0     C29355   6.931   9.068  10.242  1.2102  1.1735  0.6675
  959MOL0     C29356   7.004   9.075  10.126 -0.0267 -0.3974  0.0357
  959MOL0     C29357   7.141   9.078  10.120  0.2034  0.7206  0.1198
  959MOL0     C29358   7.207   9.025  10.223  0.6039 -0.0592 -0.0661
  959MOL0     C29359   7.352   9.002  10.219  0.6621  0.4039  0.1837
  959MOL0     O29360   7.406   8.929  10.323 -0.2084  0.0886  0.2825
  959MOL0     C29361   7.547   8.909  10.313 -0.4296  0.1326  0.2954
  959MOL0     C29362   7.622   8.961  10.416 -0.8183  0.4376 -0.1998
  959MOL0     C29363   7.757   8.949  10.423  0.0864  0.0423 -0.0498
  959MOL0     C29364   7.832   8.870  10.329 -0.0402 -0.0555 -0.2083
  959MOL0     O29365   7.968   8.855  10.343  0.0441  0.2770 -0.1371
  959MOL0     C29366   8.054   8.784  10.252  0.0642 -0.7471  1.3082
  959MOL0     C29367   8.095   8.879  10.131  0.7307  0.3500 -0.1646
  959MOL0     C29368   8.096   9.034  10.159  0.2026 -0.1464  0.1051
  959MOL0     C29369   8.133   9.114  10.027 -0.4745  0.1912 -0.2174
  959MOL0     C29370   8.264   9.077   9.964 -0.8734 -0.0235 -0.1040
  959MOL0     C29371   8.385   9.089  10.063  0.1013 -0.3232  0.0282
  959MOL0     C29372   8.512   9.037  10.000  0.1136 -0.0335  0.0887
  959MOL0     C29373   8.637   9.032  10.091  0.9433  0.0483 -0.5445
  959MOL0    Cl29374   8.745   8.906  10.030 -0.1757 -0.4774 -0.0672
  959MOL0     C29375   7.751   8.816  10.223 -0.0000  0.0754  0.4799
  959MOL0     C29376   7.617   8.840  10.210  0.7824 -0.0080  0.5240
  959MOL0     O29377   7.411   9.033  10.113  0.1907  0.4406 -0.0467
  959MOL0     C29378   7.141   9.019  10.348 -1.2920 -0.3923  0.2536
  959MOL0     C29379   6.999   9.046  10.356  0.7011  0.0849  0.9836
  959MOL0     N29380   6.238   9.239  10.436  0.0949  0.3602  0.1714
  959MOL0     N29381   6.181   9.141  10.486  0.0577  0.6387  0.7540
  959MOL0     C29382   7.102   8.730  10.063  0.1813  0.4364  0.0047
  959MOL0     C29383   7.217   8.702  10.002  0.2871  0.0643  0.2921
  959MOL0     C29384   7.607   8.530   9.868  0.0876  0.0708 -0.7874
  959MOL0     C29385   7.649   8.565   9.740  0.3672 -0.1923  0.1557
  959MOL0     C29386   7.785   8.572   9.707 -0.6041  0.7852  0.3381
  959MOL0     C29387   7.885   8.554   9.799  0.1872  0.3089  0.6429
  959MOL0     O29388   8.006   8.572   9.751 -0.0301  0.8123  0.7259
  959MOL0     C29389   8.117   8.545   9.839  1.0035 -0.9036  0.2896
  959MOL0     C29390   8.248   8.600   9.767  1.1010 -0.5271  0.3548
  959MOL0     C29391   8.253   8.750   9.751  0.1526 -0.0969  0.6758
  959MOL0     C29392   8.369   8.807   9.668 -0.0063  1.5384 -0.5218
  959MOL0     C29393   8.504   8.756   9.710  0.9752 -0.3625 -0.7555
  959MOL0     C29394   8.615   8.714   9.736 -0.0873  0.0987  0.3394
  959MOL0     C29395   7.841   8.507   9.927 -0.3975  0.1926  0.0284
  959MOL0     C29396   7.706   8.494   9.964 -0.3121 -0.8412  0.5441
  959MOL0     C29397   7.679   8.431  10.098 -0.3435  0.4408  0.1965
  959MOL0     H29398   7.398   8.560  10.239  0.0634  0.0487  1.1388
  959MOL0     H29399   7.192   8.577  10.356  1.6555 -0.4906 -0.1516
  959MOL0     H29400   6.944   8.531  10.336 -1.3173  0.1239 -1.0345
  959MOL0     H29401   7.013   8.659  10.438  1.4672 -0.2262 -1.5749
  959MOL0     H29402   6.805   8.770  10.454  1.3318 -0.9771  2.1515
  959MOL0     H29403   6.784   8.591  10.496  2.0478 -2.5234 -1.7575
  959MOL0     H29404   6.684   8.540  10.265  1.5117 -0.9475  1.5598
  959MOL0     H29405   6.699   8.709  10.220 -1.1625 -0.9930  0.1385
  959MOL0     H29406   6.512   8.564  10.412 -0.1041  0.2839  0.0730
  959MOL0     H29407   6.541   8.719  10.452  0.9626 -0.1447  0.2142
  959MOL0     H29408   6.464   8.777  10.197  0.6548  1.4257  1.0408
  959MOL0     H29409   6.428   8.608  10.182 -0.9759  1.1152 -0.5762
  959MOL0     H29410   6.234   8.767  10.217  1.0141 -1.0907 -0.9251
  959MOL0     H29411   6.246   8.624  10.328  1.1037 -0.0916 -0.4968
  959MOL0     H29412   6.382   8.854  10.433  2.2303 -3.1726 -0.0396
  959MOL0     H29413   6.288   8.725  10.510  0.7049  1.0403  1.3676
  959MOL0     H29414   6.086   8.865  10.358 -2.2939  0.1797  2.2597
  959MOL0     H29415   6.119   8.871  10.532 -1.2827 -4.8189 -0.2365
  959MOL0     H29416   6.294   9.021  10.209 -1.8643  2.2023 -2.1197
  959MOL0     H29417   6.289   9.322  10.141 -2.7714 -1.7554  3.7700
  959MOL0     H29418   6.391   9.377  10.275  1.4483  0.5775 -0.1056
  959MOL0     H29419   6.452   9.146  10.090  0.5117 -0.4563  0.3064
  959MOL0     H29420   6.527   9.312  10.080 -0.2898  0.1508 -0.8617
  959MOL0     H29421   6.549   9.098  10.293 -4.1402  1.7531 -0.2194
  959MOL0     H29422   6.619   9.263  10.309  1.8150  1.6861 -2.9380
  959MOL0     H29423   6.789   9.259  10.182 -0.8582 -0.8857  2.9623
  959MOL0     H29424   6.721   9.135  10.070 -1.3394  1.3270 -0.8547
  959MOL0     H29425   6.954   9.092  10.031 -0.4711 -0.7901  0.1972
  959MOL0     H29426   7.204   9.101  10.035  1.8411 -3.8184 -0.1677
  959MOL0     H29427   7.580   9.020  10.496  0.9769  0.2632  0.9138
  959MOL0     H29428   7.817   9.002  10.496  0.7948 -1.4667  0.5275
  959MOL0     H29429   8.151   8.754  10.294  0.0234 -2.2773  0.3810
  959MOL0     H29430   8.005   8.696  10.211  0.1305  0.9945 -3.0730
  959MOL0     H29431   8.192   8.843  10.096  0.2141 -0.4976 -0.7753
  959MOL0     H29432   8.026   8.866  10.047 -2.5238  2.3625  1.9484
  959MOL0     H29433   7.997   9.075  10.181  1.2271  2.7519 -0.1905
  959MOL0     H29434   8.163   9.059  10.242 -0.6767  0.0306  0.7799
  959MOL0     H29435   8.143   9.222  10.041 -1.1583  0.5165 -1.9535
  959MOL0     H29436   8.053   9.117   9.953 -3.5904  2.5541  2.9441
  959MOL0     H29437   8.268   9.159   9.892 -0.2499  0.7863  0.8246
  959MOL0     H29438   8.251   8.984   9.909  4.3396 -0.0818 -1.7196
  959MOL0     H29439   8.394   9.192  10.099 -1.6593  0.0690 -0.5568
  959MOL0     H29440   8.362   9.028  10.151  1.3511 -1.9881 -0.7510
  959MOL0     H29441   8.536   9.115   9.928  1.3555  3.2538  3.7176
  959MOL0     H29442   8.488   8.938   9.958 -2.2985  0.7279 -0.5038
  959MOL0     H29443   8.666   9.137  10.098 -3.2505  1.3283 -0.1873
  959MOL0     H29444   8.613   9.010  10.196  0.7219 -2.9211 -1.1344
  959MOL0     H29445   7.799   8.757  10.145 -3.6118  0.6984 -2.5280
  959MOL0     H29446   7.555   8.805  10.128  2.8710 -0.1794 -1.0465
  959MOL0     H29447   7.188   8.985  10.440 -1.6787 -4.2509 -0.8200
  959MOL0     H29448   6.944   9.034  10.449 -1.5827 -2.3139 -0.5264
  959MOL0     H29449   7.021   8.776  10.008  1.2953  0.9760 -1.2223
  959MOL0     H29450   7.226   8.730   9.897  1.3669  0.2844  0.4290
  959MOL0     H29451   7.572   8.604   9.674 -0.7683 -1.8308  0.4479
  959MOL0     H29452   7.811   8.611   9.609  3.9901 -3.0841 -0.3087
  959MOL0     H29453   8.139   8.438   9.849  2.1916 -0.7358 -0.3150
  959MOL0     H29454   8.094   8.582   9.939 -2.6793  0.1517 -0.8127
  959MOL0     H29455   8.257   8.548   9.671  2.4698 -1.6792  1.0626
  959MOL0     H29456   8.327   8.578   9.840  1.6107  0.9209  0.2713
  959MOL0     H29457   8.258   8.797   9.850  0.1343  0.7790  0.2708
  959MOL0     H29458   8.166   8.790   9.699  0.6255 -1.7890 -1.5625
  959MOL0     H29459   8.351   8.772   9.566 -0.4849 -1.3954  0.4919
  959MOL0     H29460   8.380   8.911   9.702  1.3785  0.3412  3.0880
  959MOL0     H29461   8.716   8.678   9.734  0.0928  0.6012 -1.6674
  959MOL0     H29462   7.920   8.483   9.997 -1.1043  0.8751  1.0974
  959MOL0     H29463   7.746   8.349  10.127 -1.3315 -1.5142 -2.6568
  959MOL0     H29464   7.687   8.510  10.173 -0.2520 -0.7022  1.4236
  959MOL0     H29465   7.577   8.392  10.093  0.7414 -2.4887 -3.4122
  960MOL0     O29466   6.489  10.411   0.232 -0.6352 -0.4462  0.4934
  960MOL0     C29467   6.464  10.526   0.271  0.8676 -0.0272 -0.9238
  960MOL0     O29468   6.345  10.597   0.246  0.0690  0.1757 -0.4174
  960MOL0     C29469   6.267  10.566   0.140 -1.0376  0.4430 -0.3250
  960MOL0     C29470   6.190  10.448   0.116 -0.2299  0.3238  1.0907
  960MOL0     C29471   6.097  10.443   0.011  0.1309  0.0378  1.0311
  960MOL0     C29472   6.098  10.545  -0.081 -0.4060  0.2353 -0.6984
  960MOL0     O29473   6.025  10.524  -0.195 -0.1279 -0.2432 -0.0800
  960MOL0     C29474   6.022  10.385  -0.245 -1.2652  0.8369 -0.2216
  960MOL0     C29475   5.971  10.387  -0.383 -0.2525  0.0915  0.1801
  960MOL0     C29476   5.971  10.252  -0.446 -0.5646 -0.3192 -0.5657
  960MOL0     C29477   6.105  10.192  -0.474 -0.0196  0.1298  0.3709
  960MOL0     C29478   6.081  10.037  -0.507  0.5093  0.4624  0.2837
  960MOL0     C29479   6.225   9.981  -0.532  0.3236 -0.0430  0.4898
  960MOL0     C29480   6.221   9.826  -0.563 -0.0041 -0.0893 -0.1582
  960MOL0     C29481   6.215   9.725  -0.451 -0.7380  0.5423 -0.4563
  960MOL0     N29482   6.351   9.714  -0.403 -0.5907 -0.0829  0.4012
  960MOL0     C29483   6.457   9.657  -0.478  1.0607 -0.1707 -0.6853
  960MOL0     C29484   6.568   9.661  -0.399  0.1681  0.3236 -0.6364
  960MOL0     C29485   6.691   9.580  -0.400  0.1101 -0.2020  0.3551
  960MOL0     C29486   6.669   9.443  -0.322  1.5102 -0.3332  0.8027
  960MOL0     C29487   6.788   9.354  -0.312  0.2876  1.0373 -0.2803
  960MOL0     C29488   6.814   9.276  -0.433  0.1232  0.8158  0.7608
  960MOL0     O29489   6.956   9.243  -0.450 -0.3255 -0.2918 -0.2310
  960MOL0     C29490   7.002   9.120  -0.402 -1.0172  0.0897  0.1961
  960MOL0     C29491   7.134   9.098  -0.427 -1.5023  1.3415 -0.5852
  960MOL0     C29492   7.200   8.979  -0.394  0.2868  0.2440 -0.1027
  960MOL0     C29493   7.128   8.892  -0.308 -0.4473 -0.0456 -0.4685
  960MOL0     C29494   7.196   8.775  -0.239 -0.2799 -0.4486  1.4202
  960MOL0     O29495   7.326   8.739  -0.266 -0.8551  1.1379 -0.1538
  960MOL0     C29496   7.390   8.622  -0.225 -0.9817  0.2571 -0.2395
  960MOL0     C29497   7.533   8.625  -0.228 -0.2196 -0.7222 -1.3653
  960MOL0     C29498   7.611   8.519  -0.187 -0.1528 -0.7392 -0.6758
  960MOL0     C29499   7.562   8.394  -0.154  0.4658 -0.3977  0.2092
  960MOL0     O29500   7.656   8.305  -0.118  0.2674 -0.5892 -0.0057
  960MOL0     C29501   7.603   8.198  -0.040  0.7480 -0.2669 -0.3927
  960MOL0     C29502   7.718   8.102   0.011 -0.0546  0.5046 -0.1692
  960MOL0     C29503   7.657   7.975   0.071  0.4154  0.0100  0.5981
  960MOL0     C29504   7.779   7.895   0.124  0.1784 -0.7014 -0.1240
  960MOL0     C29505   7.742   7.770   0.214  0.1958 -0.6819 -0.2330
  960MOL0     C29506   7.683   7.654   0.127 -0.9926 -0.1825 -0.1618
  960MOL0     C29507   7.620   7.543   0.205  0.3117  0.4935  0.1324
  960MOL0     C29508   7.684   7.484   0.330 -0.0620 -0.5603  0.3082
  960MOL0    Cl29509   7.817   7.368   0.282 -0.4233  0.1467 -0.0109
  960MOL0     C29510   7.418   8.387  -0.140  1.2802 -0.0031  0.5353
  960MOL0     C29511   7.335   8.496  -0.186 -0.1568  0.1690 -0.4337
  960MOL0     O29512   7.128   8.709  -0.160 -0.2691 -0.0032  0.3774
  960MOL0     C29513   7.000   8.922  -0.263  0.0356  1.1144  0.3032
  960MOL0     C29514   6.934   9.029  -0.319 -0.6579 -0.8558  0.7949
  960MOL0     N29515   6.537   9.749  -0.290 -0.0751  0.8013  1.0057
  960MOL0     N29516   6.407   9.773  -0.294  0.2461  0.0792  0.2256
  960MOL0     C29517   6.178  10.661  -0.058 -0.0151 -0.6299 -0.4603
  960MOL0     C29518   6.258  10.675   0.060 -0.3526  0.8246  0.8707
  960MOL0     C29519   6.563  10.598   0.355 -0.1847  0.4050 -0.3142
  960MOL0     C29520   6.507  10.683   0.455 -0.0499 -0.0599  0.9365
  960MOL0     C29521   6.583  10.762   0.540 -0.7688  0.3394  0.0457
  960MOL0     C29522   6.724  10.763   0.526  0.6445  0.8533 -0.1366
  960MOL0     O29523   6.799  10.824   0.619  0.1821 -0.0300  0.2044
  960MOL0     C29524   6.832  10.954   0.569 -0.0450 -0.2351  0.4190
  960MOL0     C29525   6.724  11.061   0.592 -0.3030 -0.7387 -0.3618
  960MOL0     C29526   6.697  11.092   0.744  0.2300  0.2176 -0.1485
  960MOL0     C29527   6.830  11.115   0.822 -0.7678  0.5343 -0.3145
  960MOL0     C29528   6.790  11.185   0.948  0.4064 -0.7017  0.5264
  960MOL0     C29529   6.751  11.234   1.054  0.3878 -0.1971 -0.0474
  960MOL0     C29530   6.777  10.675   0.433  0.3679 -0.2730 -0.2992
  960MOL0     C29531   6.700  10.601   0.345  1.2766  0.9432 -0.4234
  960MOL0     C29532   6.778  10.523   0.241 -0.4174 -0.1071 -0.3748
  960MOL0     H29533   6.200  10.366   0.186 -3.4213 -0.2799  0.9899
  960MOL0     H29534   6.037  10.352   0.000  1.7455 -0.8313 -1.7114
  960MOL0     H29535   6.122  10.344  -0.231 -0.8584  1.2746 -1.6182
  960MOL0     H29536   5.947  10.328  -0.191 -1.7367  1.9977  0.3846
  960MOL0     H29537   6.029  10.459  -0.441 -2.2365  1.4859 -0.1675
  960MOL0     H29538   5.866  10.418  -0.374  0.4298  2.7453 -0.1996
  960MOL0     H29539   5.934  10.263  -0.548 -0.2803 -0.7585 -0.7206
  960MOL0     H29540   5.904  10.190  -0.385 -0.2857  1.4597  1.7035
  960MOL0     H29541   6.160  10.241  -0.555  1.6582 -0.1287  1.3051
  960MOL0     H29542   6.183  10.196  -0.397  2.4816  0.0944 -1.9972
  960MOL0     H29543   6.038   9.977  -0.427  2.8418 -0.6922  0.7508
  960MOL0     H29544   6.015  10.028  -0.594  0.6924 -2.4066  0.3569
  960MOL0     H29545   6.273  10.025  -0.620  0.9606  0.9543  1.3257
  960MOL0     H29546   6.288  10.002  -0.446 -0.0406 -0.4318  0.8595
  960MOL0     H29547   6.299   9.798  -0.635  0.4271 -1.7411  0.9169
  960MOL0     H29548   6.133   9.814  -0.626 -1.6282  0.7992  1.8369
  960MOL0     H29549   6.147   9.749  -0.369 -3.1875 -0.8242 -1.9767
  960MOL0     H29550   6.196   9.628  -0.498 -1.5100  1.3794 -1.9144
  960MOL0     H29551   6.441   9.598  -0.567  0.4065  1.5581 -1.7704
  960MOL0     H29552   6.720   9.570  -0.505 -3.5872  3.7626 -1.3630
  960MOL0     H29553   6.772   9.632  -0.347 -0.2796 -1.3937  2.2126
  960MOL0     H29554   6.646   9.473  -0.219 -1.2174 -1.3072  0.5692
  960MOL0     H29555   6.581   9.384  -0.351 -1.2659  3.3023  1.0554
  960MOL0     H29556   6.773   9.301  -0.217  3.7305  0.1524 -0.1050
  960MOL0     H29557   6.874   9.419  -0.292  0.8598  0.4286 -0.7304
  960MOL0     H29558   6.801   9.337  -0.523 -0.6797  0.9184  0.9389
  960MOL0     H29559   6.749   9.188  -0.431  3.6415 -2.1686 -2.4204
  960MOL0     H29560   7.198   9.164  -0.485 -0.9937  1.2747 -0.1076
  960MOL0     H29561   7.300   8.946  -0.418 -1.3628 -5.3503 -0.7107
  960MOL0     H29562   7.587   8.716  -0.249  1.2951 -1.4567 -0.7978
  960MOL0     H29563   7.719   8.521  -0.195  0.2761 -0.5967  3.2244
  960MOL0     H29564   7.554   8.237   0.050  3.1543 -1.0929  1.4013
  960MOL0     H29565   7.525   8.140  -0.091 -0.5474  1.5572 -0.5907
  960MOL0     H29566   7.768   8.070  -0.081 -1.9590 -2.2514 -0.3703
  960MOL0     H29567   7.789   8.154   0.074 -0.5287  0.7440  0.1766
  960MOL0     H29568   7.593   8.008   0.153 -2.0716 -3.8720  0.4750
  960MOL0     H29569   7.594   7.920   0.001 -0.3100  2.1007 -0.4627
  960MOL0     H29570   7.849   7.951   0.187  0.1161 -0.9367  0.1579
  960MOL0     H29571   7.831   7.849   0.039  1.8214 -0.0455  0.4678
  960MOL0     H29572   7.674   7.799   0.295  0.5337  1.3370 -0.6255
  960MOL0     H29573   7.836   7.739   0.262  1.0312  1.1230 -0.5949
  960MOL0     H29574   7.597   7.691   0.070 -1.0675 -0.7706 -0.4361
  960MOL0     H29575   7.764   7.622   0.061  1.3241  1.7809  1.5249
  960MOL0     H29576   7.614   7.463   0.130  0.6801  1.9697 -1.5404
  960MOL0     H29577   7.518   7.578   0.224 -1.0333 -3.8033  2.1660
  960MOL0     H29578   7.737   7.560   0.388  0.2534 -0.9601  0.5458
  960MOL0     H29579   7.609   7.425   0.383 -0.7103  1.0449  1.2448
  960MOL0     H29580   7.370   8.296  -0.104  1.1371 -0.3883 -0.5928
  960MOL0     H29581   7.228   8.478  -0.176 -0.1658  0.1187 -0.6025
  960MOL0     H29582   6.946   8.861  -0.191  3.4584 -0.7623  1.5332
  960MOL0     H29583   6.835   9.056  -0.284 -0.2196  3.0875 -0.5682
  960MOL0     H29584   6.163  10.748  -0.121 -5.7594 -1.4337 -0.7426
  960MOL0     H29585   6.293  10.774   0.088  1.1053  1.2419 -1.9897
  960MOL0     H29586   6.399  10.677   0.469  0.0428 -2.4079  1.0448
  960MOL0     H29587   6.538  10.810   0.627 -0.2709 -0.5719  0.8336
  960MOL0     H29588   6.856  10.955   0.462  3.0739  1.8730  1.0141
  960MOL0     H29589   6.920  10.984   0.626  0.3285 -0.9742  0.2499
  960MOL0     H29590   6.632  11.031   0.541 -3.0020  3.9963  1.0825
  960MOL0     H29591   6.772  11.146   0.542 -0.4624 -1.2527 -1.4317
  960MOL0     H29592   6.632  11.016   0.789 -0.3166  0.4877 -0.4677
  960MOL0     H29593   6.624  11.173   0.757 -0.2873 -0.3185  0.3560
  960MOL0     H29594   6.896  11.032   0.848  0.0487  1.3614  0.3421
  960MOL0     H29595   6.890  11.183   0.760 -0.6755  1.3931  0.6878
  960MOL0     H29596   6.717  11.293   1.137  1.3186 -0.3548  0.4631
  960MOL0     H29597   6.884  10.656   0.438  0.5639  1.0708  2.2987
  960MOL0     H29598   6.793  10.417   0.266  5.9051 -0.0698 -2.2938
  960MOL0     H29599   6.733  10.547   0.144 -0.6125  0.8204 -0.0559
  960MOL0     H29600   6.880  10.561   0.234 -0.1378 -0.2412  2.2506
  961MOL0     O29601   6.720   8.543   6.878 -0.1244  0.2075 -1.1083
  961MOL0     C29602   6.643   8.451   6.852 -0.0650  0.7662 -0.2354
  961MOL0     O29603   6.627   8.400   6.732 -0.1067 -0.0352  0.3247
  961MOL0     C29604   6.721   8.444   6.642 -0.1388 -0.2968 -0.3536
  961MOL0     C29605   6.856   8.423   6.667 -0.4069 -0.0275 -0.3924
  961MOL0     C29606   6.941   8.478   6.574  0.7938  0.9759 -0.6544
  961MOL0     C29607   6.903   8.540   6.456  0.2686 -0.4326 -0.5214
  961MOL0     O29608   6.972   8.584   6.347  0.0865  0.2108  0.6760
  961MOL0     C29609   7.114   8.583   6.334 -0.3004  0.0086  0.1796
  961MOL0     C29610   7.181   8.454   6.308  0.5530 -0.2979  0.1713
  961MOL0     C29611   7.129   8.376   6.183  0.6714 -0.3600  0.3116
  961MOL0     C29612   7.157   8.463   6.058  0.1679 -0.9167 -0.6781
  961MOL0     C29613   7.147   8.376   5.939  0.1844  0.1343  0.7117
  961MOL0     C29614   7.276   8.326   5.904 -0.4617 -0.4705  0.6315
  961MOL0     C29615   7.270   8.243   5.776  0.1200  0.4725  1.1425
  961MOL0     C29616   7.206   8.109   5.799  0.0883 -0.4079 -0.1968
  961MOL0     N29617   7.157   8.062   5.671 -1.3620 -0.3352 -0.3376
  961MOL0     C29618   7.177   7.931   5.633 -0.0992  0.8888 -0.3464
  961MOL0     C29619   7.117   7.931   5.511  0.1444  0.5590  0.6855
  961MOL0     C29620   7.117   7.814   5.420  0.7457  0.5664  0.1924
  961MOL0     C29621   6.986   7.796   5.346  0.1268  0.4283  0.5030
  961MOL0     C29622   7.004   7.698   5.230  0.3604 -0.2250  0.8893
  961MOL0     C29623   6.992   7.776   5.099 -0.3931  0.3048 -0.6122
  961MOL0     O29624   6.856   7.764   5.051 -0.6400 -0.1123 -0.7406
  961MOL0     C29625   6.818   7.669   4.954 -0.2489  0.2233 -0.1889
  961MOL0     C29626   6.683   7.632   4.955 -0.1371 -1.3522  0.4544
  961MOL0     C29627   6.643   7.533   4.879 -0.0725  0.4292 -0.2418
  961MOL0     C29628   6.722   7.474   4.774 -0.8492 -0.4370  0.1792
  961MOL0     C29629   6.661   7.384   4.686  0.6870  0.5399 -0.0906
  961MOL0     O29630   6.725   7.337   4.569 -0.0454 -0.1404 -0.6508
  961MOL0     C29631   6.651   7.279   4.473 -0.7065 -0.3679  0.1087
  961MOL0     C29632   6.544   7.336   4.426  0.2799 -0.4193  0.7897
  961MOL0     C29633   6.453   7.259   4.343 -0.7618 -0.2621 -0.1132
  961MOL0     C29634   6.501   7.136   4.283  0.1764 -0.3289 -0.4448
  961MOL0     O29635   6.437   7.063   4.192 -0.3014 -0.7236  0.3908
  961MOL0     C29636   6.296   7.077   4.202 -0.5088 -0.4715 -0.0415
  961MOL0     C29637   6.217   6.960   4.136  0.0540 -0.2358 -0.1218
  961MOL0     C29638   6.070   6.952   4.190 -0.0956 -0.9187  0.4452
  961MOL0     C29639   5.970   6.888   4.073  0.5345  0.3449 -0.1753
  961MOL0     C29640   6.014   6.756   4.022 -0.9080  0.1871  0.2074
  961MOL0     C29641   5.910   6.696   3.922  0.3255 -0.2392 -0.4182
  961MOL0     C29642   5.959   6.555   3.875  0.0687 -0.7247 -0.4669
  961MOL0     C29643   5.880   6.508   3.759 -0.1973  0.3676 -0.2674
  961MOL0    Cl29644   5.905   6.613   3.612 -0.1397  0.1180  0.1544
  961MOL0     C29645   6.625   7.071   4.331 -0.1570 -0.0799 -0.0517
  961MOL0     C29646   6.695   7.152   4.428 -0.0295  0.9364  0.8261
  961MOL0     O29647   6.554   7.338   4.721  0.2303  0.1924  0.0615
  961MOL0     C29648   6.852   7.520   4.763  0.1524 -0.8895 -1.5469
  961MOL0     C29649   6.907   7.605   4.863 -1.4656 -0.4314  0.1327
  961MOL0     N29650   7.053   8.048   5.482 -0.0582  0.5904 -0.8973
  961MOL0     N29651   7.069   8.120   5.591  0.7357 -0.1842  0.2083
  961MOL0     C29652   6.765   8.567   6.442  0.0589 -0.6084 -0.3245
  961MOL0     C29653   6.671   8.513   6.528  0.9275  0.2365  0.6353
  961MOL0     C29654   6.550   8.395   6.948 -0.7098  0.4211 -0.4312
  961MOL0     C29655   6.431   8.343   6.908  0.8243  0.1320 -0.2219
  961MOL0     C29656   6.337   8.287   6.997  0.2102  0.2169  0.5358
  961MOL0     C29657   6.357   8.288   7.137  1.0984  0.1055  0.6022
  961MOL0     O29658   6.270   8.234   7.227  0.2783  0.0315 -0.5772
  961MOL0     C29659   6.151   8.178   7.169  0.3662  0.3529 -0.3074
  961MOL0     C29660   6.044   8.141   7.271  0.0478  0.6254  0.7750
  961MOL0     C29661   6.100   8.113   7.420  0.3441 -0.4907  0.5988
  961MOL0     C29662   5.990   8.142   7.529 -0.0631 -0.5261  0.4929
  961MOL0     C29663   5.851   8.151   7.500  0.2027 -0.2393  0.2774
  961MOL0     C29664   5.738   8.184   7.483  0.7010  1.8057  0.0671
  961MOL0     C29665   6.467   8.359   7.180 -0.2735 -0.3016  0.1899
  961MOL0     C29666   6.565   8.409   7.094  0.6951  0.0208 -0.1621
  961MOL0     C29667   6.680   8.486   7.153 -0.4964 -0.4041  0.4759
  961MOL0     H29668   6.900   8.369   6.751 -0.8888  2.0704  1.2863
  961MOL0     H29669   7.044   8.470   6.609  0.6594  0.4397 -0.3652
  961MOL0     H29670   7.155   8.660   6.268  1.3392  0.6484  1.8540
  961MOL0     H29671   7.148   8.621   6.431 -0.6960 -2.0018  1.1665
  961MOL0     H29672   7.178   8.395   6.400  2.0563 -0.4498  0.1497
  961MOL0     H29673   7.287   8.473   6.286  0.0010  0.4409 -2.1508
  961MOL0     H29674   7.021   8.363   6.185  0.2451  2.5434  0.5477
  961MOL0     H29675   7.195   8.288   6.182  1.2341  0.0477  0.7346
  961MOL0     H29676   7.089   8.549   6.053  0.4769 -0.7251 -2.0733
  961MOL0     H29677   7.255   8.511   6.056 -1.7055  3.4481 -2.5874
  961MOL0     H29678   7.069   8.300   5.958 -2.9208  3.2377  1.4162
  961MOL0     H29679   7.108   8.436   5.856  3.4750  0.3005 -0.8423
  961MOL0     H29680   7.343   8.407   5.875 -3.5484  1.1269 -2.9271
  961MOL0     H29681   7.319   8.258   5.977  0.4818 -1.9691 -1.2356
  961MOL0     H29682   7.374   8.235   5.743 -1.1227 -0.8429 -3.0292
  961MOL0     H29683   7.204   8.296   5.706 -2.5351 -0.1515  3.0070
  961MOL0     H29684   7.273   8.034   5.840 -0.6294 -1.3330 -0.6936
  961MOL0     H29685   7.117   8.116   5.862  1.2160 -0.5534  1.4814
  961MOL0     H29686   7.229   7.849   5.682 -1.1755 -0.5707 -1.5483
  961MOL0     H29687   7.196   7.823   5.345 -0.7123 -2.1870 -1.8611
  961MOL0     H29688   7.134   7.728   5.486 -3.3952  1.7170  3.1529
  961MOL0     H29689   6.908   7.755   5.411 -0.4237 -1.4860 -1.2798
  961MOL0     H29690   6.937   7.886   5.308 -0.0707  0.0361 -0.1794
  961MOL0     H29691   6.933   7.615   5.242 -2.0929  1.3296 -1.7472
  961MOL0     H29692   7.104   7.653   5.231  0.2421 -0.6077  3.6959
  961MOL0     H29693   7.066   7.726   5.036 -0.5083  0.2396 -0.6956
  961MOL0     H29694   7.015   7.882   5.111  0.1751 -0.0729  2.3996
  961MOL0     H29695   6.624   7.681   5.032  0.4800 -1.8413  1.2440
  961MOL0     H29696   6.539   7.508   4.896 -0.0737  1.6948  2.0802
  961MOL0     H29697   6.519   7.439   4.451  0.0940  0.5526 -2.8169
  961MOL0     H29698   6.352   7.295   4.324 -2.1529 -4.0736 -0.8678
  961MOL0     H29699   6.274   7.086   4.308  1.3180  1.7686  0.2385
  961MOL0     H29700   6.252   7.161   4.148 -2.2777 -2.5271 -2.0058
  961MOL0     H29701   6.228   6.973   4.028  1.9348 -0.5438 -0.0166
  961MOL0     H29702   6.262   6.861   4.149 -1.2046 -0.7868  0.1968
  961MOL0     H29703   6.071   6.888   4.279 -0.5636 -1.9719 -0.2802
  961MOL0     H29704   6.038   7.052   4.220  1.7408 -0.2487  0.2863
  961MOL0     H29705   5.951   6.965   3.998 -2.0664 -0.6470 -0.6390
  961MOL0     H29706   5.870   6.868   4.114  1.8241 -1.2759  2.4726
  961MOL0     H29707   6.030   6.697   4.112 -3.7044  0.7956  1.2165
  961MOL0     H29708   6.105   6.754   3.961 -2.3731 -1.2395 -2.0925
  961MOL0     H29709   5.818   6.675   3.976  0.1122  0.8428 -0.3464
  961MOL0     H29710   5.892   6.768   3.841  1.5362  0.3250 -0.2136
  961MOL0     H29711   5.961   6.482   3.957 -1.0140  0.4909  0.6966
  961MOL0     H29712   6.058   6.561   3.828 -1.4121  0.4772 -3.7551
  961MOL0     H29713   5.903   6.404   3.734 -3.5755 -0.7233  0.7239
  961MOL0     H29714   5.773   6.507   3.777 -0.0547 -0.9330  0.7010
  961MOL0     H29715   6.661   6.976   4.292 -3.5604 -1.6953  0.3816
  961MOL0     H29716   6.782   7.119   4.485  0.2618 -0.7072 -0.4767
  961MOL0     H29717   6.919   7.483   4.685  1.2339 -2.8792  0.2045
  961MOL0     H29718   7.011   7.634   4.851 -1.2052  0.0266  2.8611
  961MOL0     H29719   6.720   8.621   6.359 -2.5248 -0.1272  1.2852
  961MOL0     H29720   6.564   8.528   6.526  0.9050  0.3249  1.6570
  961MOL0     H29721   6.405   8.343   6.802  2.0214 -0.6454 -0.5370
  961MOL0     H29722   6.259   8.229   6.949  0.5398  0.6812 -0.6033
  961MOL0     H29723   6.179   8.091   7.108  0.8694  0.0458  0.3608
  961MOL0     H29724   6.105   8.253   7.104  1.4216  0.9251 -0.4088
  961MOL0     H29725   5.981   8.054   7.253  1.0623 -0.1908  1.0341
  961MOL0     H29726   5.975   8.225   7.285 -2.3235 -1.4741  2.4360
  961MOL0     H29727   6.191   8.165   7.448  1.9268 -1.8061 -1.7330
  961MOL0     H29728   6.114   8.005   7.430 -2.0948 -0.9641 -0.3270
  961MOL0     H29729   5.996   8.080   7.619 -0.6117 -1.7368 -0.2834
  961MOL0     H29730   6.013   8.246   7.556 -1.1117 -0.0371 -0.3954
  961MOL0     H29731   5.636   8.215   7.472  0.2616 -0.4168 -4.2665
  961MOL0     H29732   6.478   8.365   7.288 -1.4733 -2.9830  0.5365
  961MOL0     H29733   6.779   8.455   7.121 -0.0299 -0.6864  2.1080
  961MOL0     H29734   6.672   8.591   7.124 -0.7918 -0.6890 -0.5259
  961MOL0     H29735   6.668   8.499   7.261 -1.2683  1.0608  0.2517
  962MOL0     O29736   7.213   7.854  11.468  0.3717  0.1839  0.3927
  962MOL0     C29737   7.128   7.776  11.495 -0.2652  0.4429  0.1525
  962MOL0     O29738   7.090   7.664  11.424 -0.1691  0.1259 -0.4496
  962MOL0     C29739   7.154   7.627  11.316 -0.0381 -0.6747 -0.0823
  962MOL0     C29740   7.277   7.574  11.321  0.0341 -0.8154 -0.0308
  962MOL0     C29741   7.337   7.520  11.201  0.3113  1.0229 -0.7694
  962MOL0     C29742   7.272   7.528  11.081 -0.6505 -0.4409 -0.8046
  962MOL0     O29743   7.335   7.461  10.980 -0.0780 -0.0729  0.1682
  962MOL0     C29744   7.269   7.428  10.857  0.5195  0.2733 -0.3247
  962MOL0     C29745   7.346   7.462  10.732  0.0593  0.2872  0.5243
  962MOL0     C29746   7.487   7.408  10.709  0.4954  0.4953 -0.4793
  962MOL0     C29747   7.570   7.472  10.592  0.4469  0.7511  0.2319
  962MOL0     C29748   7.618   7.617  10.645  0.0062 -0.5598  0.3333
  962MOL0     C29749   7.729   7.607  10.762  0.5357 -0.0577 -1.1834
  962MOL0     C29750   7.834   7.514  10.728  0.2655  0.4357  0.1257
  962MOL0     C29751   7.931   7.507  10.844 -0.4541 -0.6243  0.2752
  962MOL0     N29752   8.022   7.399  10.822 -0.2563  0.0607  0.7456
  962MOL0     C29753   8.156   7.397  10.849  0.4354 -0.5338  0.7894
  962MOL0     C29754   8.192   7.268  10.843 -0.4941  0.3084 -0.8631
  962MOL0     C29755   8.345   7.231  10.850  0.4388 -0.4178 -0.0714
  962MOL0     C29756   8.403   7.189  10.717 -1.1074  0.3893  0.5464
  962MOL0     C29757   8.538   7.121  10.726  0.5575 -0.2500 -0.5016
  962MOL0     C29758   8.602   7.120  10.585 -0.8117 -1.0788  0.2863
  962MOL0     O29759   8.536   7.002  10.521  0.6174  0.3078  0.2044
  962MOL0     C29760   8.463   7.032  10.408  0.1317  0.6099  0.4263
  962MOL0     C29761   8.513   7.121  10.310 -0.1924  0.3662 -0.6494
  962MOL0     C29762   8.433   7.149  10.205  0.3410  0.5889 -0.1566
  962MOL0     C29763   8.311   7.080  10.184  0.4890 -0.3304  0.6721
  962MOL0     C29764   8.236   7.115  10.058 -0.9191  0.2326  0.1035
  962MOL0     O29765   8.118   7.057  10.038  0.4100  0.2199 -0.8189
  962MOL0     C29766   8.030   7.088   9.929 -0.6465 -0.3161  0.0003
  962MOL0     C29767   7.932   6.978   9.903 -0.9671 -0.2544  0.0237
  962MOL0     C29768   7.840   6.990   9.789 -0.1636 -0.0779  0.1205
  962MOL0     C29769   7.821   7.116   9.731  0.1769 -0.1483 -0.4516
  962MOL0     O29770   7.725   7.152   9.649  0.6473 -0.1012 -0.7885
  962MOL0     C29771   7.665   7.064   9.563  1.0108  0.5511 -0.2896
  962MOL0     C29772   7.683   7.085   9.412  0.3636 -0.2214  0.3396
  962MOL0     C29773   7.611   7.213   9.370  0.1295  0.5733  0.8550
  962MOL0     C29774   7.663   7.251   9.234  0.9074 -0.0620  0.0608
  962MOL0     C29775   7.578   7.367   9.179  0.1080 -0.7617  0.2830
  962MOL0     C29776   7.647   7.439   9.059  0.0746 -0.6128 -0.0938
  962MOL0     C29777   7.780   7.519   9.094  0.1988 -0.1679 -0.3218
  962MOL0     C29778   7.760   7.668   9.114 -0.1514  0.8823 -0.4790
  962MOL0    Cl29779   7.711   7.733   8.954  0.1300 -0.1388  0.1184
  962MOL0     C29780   7.919   7.217   9.757  0.0781 -0.0542  0.6708
  962MOL0     C29781   8.030   7.195   9.844  0.6768 -0.3364  0.3626
  962MOL0     O29782   8.296   7.174   9.963 -0.6124  0.4376  0.8638
  962MOL0     C29783   8.265   6.983  10.273 -0.1026  0.4196 -0.2091
  962MOL0     C29784   8.346   6.964  10.383  0.8295  0.1964 -1.0839
  962MOL0     N29785   8.082   7.191  10.821  1.1934  0.3285  0.5884
  962MOL0     N29786   7.986   7.267  10.810 -0.9453 -0.8582  0.0617
  962MOL0     C29787   7.147   7.580  11.080  0.6211  0.9059  0.1584
  962MOL0     C29788   7.089   7.628  11.201  0.5511 -0.6199  1.1696
  962MOL0     C29789   7.047   7.801  11.609 -1.4266 -0.2528 -0.4282
  962MOL0     C29790   6.907   7.803  11.592 -0.5023  0.1171  0.7947
  962MOL0     C29791   6.817   7.798  11.704 -0.4489  0.3450 -0.0283
  962MOL0     C29792   6.870   7.820  11.833  0.4228  2.0748  0.2549
  962MOL0     O29793   6.801   7.816  11.951 -0.3196  0.2857  0.4831
  962MOL0     C29794   6.662   7.849  11.937 -0.3841  1.8249 -0.2558
  962MOL0     C29795   6.589   7.858  12.077  0.4050 -0.9091  0.1624
  962MOL0     C29796   6.684   7.924  12.172  0.0137  0.3194 -0.8834
  962MOL0     C29797   6.615   7.944  12.309  0.1911  0.8236  0.3263
  962MOL0     C29798   6.595   7.819  12.383  0.1730 -0.2039 -0.2515
  962MOL0     C29799   6.583   7.721  12.446  0.6320 -0.0938  0.8984
  962MOL0     C29800   7.014   7.822  11.849 -0.6077 -0.4774  0.0099
  962MOL0     C29801   7.100   7.815  11.734  0.2577  0.2191 -0.0670
  962MOL0     C29802   7.245   7.820  11.764  0.1541 -0.3924 -0.2372
  962MOL0     H29803   7.334   7.581  11.413 -0.9412  0.7194  0.4960
  962MOL0     H29804   7.428   7.460  11.198 -0.3070  0.0642 -1.0831
  962MOL0     H29805   7.249   7.320  10.865  1.1418  0.1046 -0.9170
  962MOL0     H29806   7.175   7.481  10.844  0.6969  0.8563  0.6437
  962MOL0     H29807   7.365   7.569  10.745  0.7911 -0.1060  3.2714
  962MOL0     H29808   7.287   7.454  10.640  3.4763  2.1782 -2.0709
  962MOL0     H29809   7.489   7.301  10.690 -0.1674  0.5529 -0.8743
  962MOL0     H29810   7.542   7.421  10.802 -0.6400 -0.1135  0.2923
  962MOL0     H29811   7.655   7.413  10.556  1.9082  2.3390  0.9539
  962MOL0     H29812   7.496   7.496  10.515 -1.7280  0.7726  2.2091
  962MOL0     H29813   7.662   7.655  10.553  1.2507 -0.6644  0.8662
  962MOL0     H29814   7.534   7.677  10.679  1.7548  5.0906 -3.9115
  962MOL0     H29815   7.761   7.712  10.769 -2.2669  0.9502 -2.1865
  962MOL0     H29816   7.692   7.562  10.854 -1.4568  0.7613 -1.5304
  962MOL0     H29817   7.883   7.546  10.636 -0.9514  2.5013  0.1300
  962MOL0     H29818   7.801   7.411  10.711  4.4543 -1.4489  1.9195
  962MOL0     H29819   7.987   7.600  10.851  0.3069 -0.9150 -1.3074
  962MOL0     H29820   7.882   7.478  10.937 -2.7766  1.4267 -0.2273
  962MOL0     H29821   8.228   7.478  10.859  1.3044 -0.4477 -3.8869
  962MOL0     H29822   8.404   7.322  10.859 -2.1631  1.2844  1.0252
  962MOL0     H29823   8.368   7.183  10.946  1.6847 -0.7946 -0.5363
  962MOL0     H29824   8.338   7.126  10.655 -1.1454 -1.1100  2.0242
  962MOL0     H29825   8.419   7.278  10.656 -0.3678  0.2343  0.5042
  962MOL0     H29826   8.520   7.023  10.771  2.2203  0.2778  1.4417
  962MOL0     H29827   8.610   7.181  10.782 -0.5548  1.5738 -0.9266
  962MOL0     H29828   8.709   7.097  10.580 -1.0505 -1.9014 -2.3027
  962MOL0     H29829   8.589   7.219  10.539  3.2727 -0.6590 -0.3584
  962MOL0     H29830   8.617   7.151  10.312  0.4556 -1.7908  1.2207
  962MOL0     H29831   8.456   7.231  10.138  0.4258  0.7823  0.1085
  962MOL0     H29832   7.949   6.888   9.962 -1.6129 -0.1216  0.4192
  962MOL0     H29833   7.763   6.917   9.765 -0.3258  0.1238  0.0302
  962MOL0     H29834   7.705   6.964   9.583  0.4639 -0.2106 -2.7220
  962MOL0     H29835   7.559   7.049   9.587  1.0285 -2.7873 -1.7979
  962MOL0     H29836   7.789   7.089   9.383  0.1533  0.1596 -0.3818
  962MOL0     H29837   7.650   7.000   9.351  1.2058 -2.4824  2.8193
  962MOL0     H29838   7.504   7.193   9.356  0.5591 -0.1099 -2.0145
  962MOL0     H29839   7.610   7.295   9.442 -2.2410 -0.3907  2.0469
  962MOL0     H29840   7.654   7.179   9.152 -0.8780  2.3063 -1.9495
  962MOL0     H29841   7.769   7.279   9.233  0.7176  0.7613  1.2258
  962MOL0     H29842   7.547   7.440   9.254 -0.4252  1.9119 -2.3404
  962MOL0     H29843   7.482   7.326   9.144 -0.7847 -1.0291  2.8714
  962MOL0     H29844   7.667   7.364   8.982 -4.3208 -0.4475 -1.6528
  962MOL0     H29845   7.582   7.518   9.020 -0.9053 -0.9878  0.7172
  962MOL0     H29846   7.850   7.519   9.010  2.8749  2.0094  1.7321
  962MOL0     H29847   7.837   7.483   9.180  2.5477  0.6274 -1.4545
  962MOL0     H29848   7.685   7.670   9.193  2.0982 -0.4702  1.8372
  962MOL0     H29849   7.858   7.711   9.136  1.4606 -1.6380 -2.0823
  962MOL0     H29850   7.912   7.309   9.698 -0.1581 -0.9107 -0.6869
  962MOL0     H29851   8.107   7.272   9.847  3.4407 -2.9441  1.0656
  962MOL0     H29852   8.172   6.931  10.254  1.4928 -2.6221 -0.4514
  962MOL0     H29853   8.316   6.896  10.462 -3.2870 -0.6317 -3.1231
  962MOL0     H29854   7.079   7.593  10.997 -0.5017 -1.4176  0.6161
  962MOL0     H29855   6.989   7.667  11.218  0.9111  1.1770 -0.4099
  962MOL0     H29856   6.882   7.787  11.488  1.3186  0.5666  0.2510
  962MOL0     H29857   6.711   7.789  11.680 -0.4489  1.0112 -0.2983
  962MOL0     H29858   6.612   7.763  11.891  0.6139 -0.4094  2.5497
  962MOL0     H29859   6.645   7.943  11.883 -0.9344  2.6739  1.3015
  962MOL0     H29860   6.568   7.761  12.123  0.8372 -0.4711  1.3119
  962MOL0     H29861   6.499   7.919  12.068  1.3444  0.5461  0.2754
  962MOL0     H29862   6.717   8.021  12.134  0.7078 -0.3358 -2.0053
  962MOL0     H29863   6.773   7.862  12.186 -1.9098 -1.8887  3.9179
  962MOL0     H29864   6.679   8.007  12.371  0.9052 -0.1312  0.5819
  962MOL0     H29865   6.514   7.985  12.301  0.9115  2.3458 -1.7833
  962MOL0     H29866   6.569   7.632  12.505 -0.7235 -1.1628 -0.9334
  962MOL0     H29867   7.049   7.822  11.951  0.5346  0.3452 -0.3673
  962MOL0     H29868   7.300   7.739  11.715  1.1652 -0.9963  1.8070
  962MOL0     H29869   7.267   7.926  11.745 -0.6333 -0.1665  0.0695
  962MOL0     H29870   7.262   7.824  11.872  0.2095  0.9918 -0.2726
  963MOL0     O29871   3.525   9.443  10.181 -0.0097 -0.7600  0.5012
  963MOL0     C29872   3.594   9.384  10.105  0.9411 -0.6528  0.0423
  963MOL0     O29873   3.724   9.343  10.132 -0.1640  0.2629  0.8550
  963MOL0     C29874   3.800   9.422  10.212 -0.1948 -0.1331 -0.3747
  963MOL0     C29875   3.857   9.539  10.166 -0.4121  1.1444 -0.4638
  963MOL0     C29876   3.927   9.622  10.253 -1.0091  0.1148 -0.9006
  963MOL0     C29877   3.959   9.576  10.378 -0.1245  0.5080 -0.9386
  963MOL0     O29878   4.052   9.663  10.435 -0.3976  1.0676 -0.6808
  963MOL0     C29879   4.087   9.634  10.569 -1.0814  0.0553 -0.1316
  963MOL0     C29880   4.209   9.718  10.586 -0.3281 -0.5511 -0.5722
  963MOL0     C29881   4.341   9.647  10.537  0.5221  0.1377  0.4481
  963MOL0     C29882   4.399   9.529  10.632 -0.4552 -0.9121  0.5090
  963MOL0     C29883   4.536   9.472  10.577  0.1396 -0.7577 -1.0733
  963MOL0     C29884   4.615   9.403  10.704  0.2444  0.6143  0.1545
  963MOL0     C29885   4.763   9.371  10.671  1.3026 -0.3786 -0.5651
  963MOL0     C29886   4.829   9.314  10.786 -1.2487 -0.3732  0.4478
  963MOL0     N29887   4.759   9.204  10.851 -0.2704 -0.7445  0.0720
  963MOL0     C29888   4.735   9.085  10.793  0.4392  0.4113  0.0279
  963MOL0     C29889   4.679   9.008  10.884 -1.0255 -0.7223 -0.9041
  963MOL0     C29890   4.619   8.868  10.864 -0.4546 -0.2632 -1.2342
  963MOL0     C29891   4.700   8.766  10.945 -0.0852  0.5271  0.4155
  963MOL0     C29892   4.622   8.639  10.955 -0.0073  0.2153 -0.6314
  963MOL0     C29893   4.711   8.518  10.963  0.0929 -0.2689 -1.3267
  963MOL0     O29894   4.747   8.460  10.840 -0.0794  0.5165  0.0780
  963MOL0     C29895   4.863   8.385  10.837 -0.0649  0.4198 -0.9770
  963MOL0     C29896   4.903   8.355  10.707  0.3408 -0.3424  0.0936
  963MOL0     C29897   5.031   8.296  10.689 -0.0302  0.1647 -0.3836
  963MOL0     C29898   5.114   8.247  10.798  0.2394  0.5461  0.4445
  963MOL0     C29899   5.246   8.187  10.780  0.2045  0.3145  0.9746
  963MOL0     O29900   5.303   8.203  10.656 -0.5858  0.4806  0.8670
  963MOL0     C29901   5.431   8.162  10.633 -0.0158 -0.7999 -1.0579
  963MOL0     C29902   5.529   8.251  10.578  0.2177  0.0384  0.9016
  963MOL0     C29903   5.662   8.198  10.565  0.6335  0.2279  0.1743
  963MOL0     C29904   5.699   8.067  10.590  0.5647 -0.4845 -0.1129
  963MOL0     O29905   5.839   8.031  10.570 -0.2462 -0.1500  0.4648
  963MOL0     C29906   5.839   7.927  10.471  0.1919  0.0089 -0.4844
  963MOL0     C29907   5.977   7.894  10.426  0.0676 -0.0730 -0.2902
  963MOL0     C29908   5.975   7.775  10.324 -0.4455 -0.2924 -0.1056
  963MOL0     C29909   6.115   7.733  10.301 -0.0145  0.6880  0.5486
  963MOL0     C29910   6.116   7.582  10.276  0.7150 -0.2917 -0.3037
  963MOL0     C29911   6.256   7.538  10.249 -0.0812  0.0262  0.3960
  963MOL0     C29912   6.262   7.386  10.255  0.0295 -0.7659 -0.4112
  963MOL0     C29913   6.408   7.332  10.225 -0.3716 -0.0442 -0.3139
  963MOL0    Cl29914   6.524   7.356  10.362  0.5362  0.3015  0.4226
  963MOL0     C29915   5.599   7.974  10.619  0.5224 -0.7336 -0.9707
  963MOL0     C29916   5.467   8.025  10.640  0.0840  0.2346  0.3134
  963MOL0     O29917   5.293   8.137  10.875 -0.5523  0.6717  0.2274
  963MOL0     C29918   5.062   8.257  10.926  0.4321  0.5018  0.7713
  963MOL0     C29919   4.943   8.327  10.942  0.3859  0.0444  0.2075
  963MOL0     N29920   4.671   9.082  11.004  0.3826  0.0012  1.3462
  963MOL0     N29921   4.724   9.201  10.986 -0.1813  0.5294 -0.6558
  963MOL0     C29922   3.903   9.456  10.428  0.3847 -0.1543  0.2030
  963MOL0     C29923   3.822   9.379  10.343  0.4257  0.7321  0.0011
  963MOL0     C29924   3.516   9.351   9.970 -0.1456  0.8476  0.0958
  963MOL0     C29925   3.378   9.378   9.966 -1.0416  1.0685  0.1691
  963MOL0     C29926   3.305   9.324   9.849 -0.2147 -1.1389  0.7464
  963MOL0     C29927   3.377   9.254   9.746  0.4959  0.9471 -0.0814
  963MOL0     O29928   3.312   9.187   9.641  0.5208 -0.3336 -0.0543
  963MOL0     C29929   3.174   9.199   9.632  0.0404 -0.1794  0.8406
  963MOL0     C29930   3.139   9.165   9.489  0.4116  0.2405 -0.1507
  963MOL0     C29931   3.209   9.042   9.446 -0.0696 -0.1205 -0.0790
  963MOL0     C29932   3.194   9.011   9.292  0.4196  0.7425 -0.4638
  963MOL0     C29933   3.062   8.958   9.267  0.9275  0.1070 -0.1109
  963MOL0     C29934   2.952   8.917   9.241 -0.0613  0.0783 -0.4503
  963MOL0     C29935   3.512   9.240   9.755 -0.4423 -0.1105 -0.4946
  963MOL0     C29936   3.580   9.288   9.862  0.1090  0.7076  0.6373
  963MOL0     C29937   3.737   9.270   9.857 -0.4999 -0.2741 -0.1589
  963MOL0     H29938   3.850   9.540  10.058 -1.7503 -0.4340 -0.4441
  963MOL0     H29939   3.966   9.713  10.208 -0.2320 -0.1064 -0.6846
  963MOL0     H29940   4.007   9.673  10.633 -1.7678 -1.5854  0.0619
  963MOL0     H29941   4.108   9.531  10.600 -4.4691 -0.1380  2.0221
  963MOL0     H29942   4.228   9.750  10.688  1.0513  1.4882 -1.4013
  963MOL0     H29943   4.207   9.806  10.521 -1.8056 -0.8777 -0.9909
  963MOL0     H29944   4.416   9.725  10.520 -0.0438  0.3471 -1.2880
  963MOL0     H29945   4.316   9.613  10.436  2.5076  2.8277 -1.0946
  963MOL0     H29946   4.418   9.586  10.723  0.5861 -2.4383  1.2986
  963MOL0     H29947   4.339   9.441  10.657  1.0249 -1.8900  0.7347
  963MOL0     H29948   4.516   9.400  10.497 -0.6889 -1.3055 -0.3975
  963MOL0     H29949   4.595   9.556  10.539  1.0253 -0.5004  0.7494
  963MOL0     H29950   4.621   9.471  10.789  1.3236  1.2826 -0.4347
  963MOL0     H29951   4.558   9.315  10.734  0.4613 -0.4555 -2.3084
  963MOL0     H29952   4.812   9.464  10.640  3.4479 -1.4062 -0.4585
  963MOL0     H29953   4.758   9.302  10.586  1.2516  0.5584 -1.3408
  963MOL0     H29954   4.930   9.279  10.765 -0.7696  1.6425 -0.7489
  963MOL0     H29955   4.839   9.394  10.860 -0.3520  0.3779 -0.4697
  963MOL0     H29956   4.752   9.066  10.687  0.5118 -1.8527  0.3770
  963MOL0     H29957   4.517   8.867  10.905  1.0990  0.5771  3.2287
  963MOL0     H29958   4.629   8.837  10.760  0.4161  0.0880 -1.2617
  963MOL0     H29959   4.795   8.743  10.896 -0.1183 -0.5861  0.8546
  963MOL0     H29960   4.720   8.797  11.048  1.4822  1.2574 -0.0854
  963MOL0     H29961   4.567   8.631  10.860 -1.7469  1.4324  0.2066
  963MOL0     H29962   4.546   8.642  11.034  2.3104  1.1156  1.7163
  963MOL0     H29963   4.672   8.450  11.039  1.0492 -0.2105 -0.7723
  963MOL0     H29964   4.807   8.543  11.009  0.8419  0.6994 -3.3217
  963MOL0     H29965   4.858   8.370  10.610  0.7542  1.0302  0.0853
  963MOL0     H29966   5.075   8.283  10.591  1.8306  1.0858  0.2750
  963MOL0     H29967   5.491   8.353  10.572 -2.2008 -0.8284  0.4780
  963MOL0     H29968   5.741   8.254  10.518  1.3250 -0.4293  0.5313
  963MOL0     H29969   5.789   7.835  10.503 -0.3527 -0.1122 -1.6322
  963MOL0     H29970   5.792   7.975  10.385 -1.8937 -0.6248  0.2436
  963MOL0     H29971   6.017   7.981  10.374  2.6639 -0.6029  0.6259
  963MOL0     H29972   6.046   7.875  10.509  1.4205 -1.0059 -1.5578
  963MOL0     H29973   5.911   7.700  10.370 -1.9091 -0.3816 -2.1419
  963MOL0     H29974   5.917   7.796  10.234 -6.6857  0.7458  3.5641
  963MOL0     H29975   6.176   7.745  10.392  0.1499 -2.0904  0.8842
  963MOL0     H29976   6.150   7.790  10.215 -3.3516  1.2272 -0.5968
  963MOL0     H29977   6.046   7.548  10.199 -0.0574 -1.5234  0.8961
  963MOL0     H29978   6.080   7.534  10.367 -1.2240 -2.3121 -2.0248
  963MOL0     H29979   6.287   7.566  10.148 -2.1204 -0.2579 -0.3530
  963MOL0     H29980   6.329   7.568  10.324  0.9595  0.6963 -0.8490
  963MOL0     H29981   6.198   7.340  10.180 -1.4146 -3.6116  2.3178
  963MOL0     H29982   6.225   7.344  10.349  0.0829 -2.0337 -0.9450
  963MOL0     H29983   6.411   7.223  10.215 -0.3663 -0.1062  0.3265
  963MOL0     H29984   6.443   7.392  10.140 -1.7781  1.2871  0.0074
  963MOL0     H29985   5.620   7.869  10.640 -1.0493 -0.9521 -0.3085
  963MOL0     H29986   5.401   7.942  10.665  2.7182 -1.7216  1.2124
  963MOL0     H29987   5.119   8.223  11.012  2.3075 -0.4959 -0.7940
  963MOL0     H29988   4.901   8.346  11.040 -1.1667  0.3512 -0.4846
  963MOL0     H29989   3.913   9.444  10.536 -2.7648 -3.3705  0.3343
  963MOL0     H29990   3.773   9.292  10.385 -2.3679  2.3373  0.2454
  963MOL0     H29991   3.321   9.424  10.045 -0.2106  0.2017  1.3018
  963MOL0     H29992   3.199   9.349   9.850  0.2354  1.4037 -1.6984
  963MOL0     H29993   3.139   9.303   9.640 -0.3101 -0.3617  1.7156
  963MOL0     H29994   3.121   9.134   9.701 -0.4013  2.3343  3.0245
  963MOL0     H29995   3.172   9.246   9.424  0.9622 -0.3246 -0.5884
  963MOL0     H29996   3.031   9.155   9.474  0.5126  0.2097 -0.9054
  963MOL0     H29997   3.180   8.959   9.512 -1.7632  1.3677  1.1365
  963MOL0     H29998   3.317   9.056   9.454  0.1515 -1.5553 -0.2111
  963MOL0     H29999   3.197   9.108   9.242 -0.1122 -0.0407 -2.0882
  963MOL0     H30000   3.277   8.953   9.250  1.3949  0.6919  1.4396
  963MOL0     H30001   2.854   8.872   9.239 -0.4525  0.8744  0.0143
  963MOL0     H30002   3.557   9.197   9.667  1.8401 -2.1905  1.5398
  963MOL0     H30003   3.759   9.216   9.765 -0.3430 -0.5372  0.0350
  963MOL0     H30004   3.792   9.365   9.857 -3.3615  1.5135 -0.3568
  963MOL0     H30005   3.775   9.211   9.941 -0.8437  0.5927  0.6304
  964MOL0     O30006   7.201   1.144   6.085  0.5169  0.2103 -0.1065
  964MOL0     C30007   7.210   1.033   6.033 -1.4702  0.0566 -0.6441
  964MOL0     O30008   7.319   0.983   5.962  0.0647  0.1231  0.4591
  964MOL0     C30009   7.413   1.081   5.928  0.2710 -0.1178  0.2058
  964MOL0     C30010   7.493   1.163   6.019 -0.0205 -0.5046  1.2882
  964MOL0     C30011   7.603   1.249   5.960  0.6719 -0.0295 -0.1966
  964MOL0     C30012   7.597   1.272   5.821  0.3625  0.5039  0.6280
  964MOL0     O30013   7.680   1.344   5.746 -0.0541 -0.9675 -0.6021
  964MOL0     C30014   7.702   1.477   5.795 -0.0937 -0.0120 -0.0370
  964MOL0     C30015   7.844   1.519   5.762 -0.4368 -0.1220  0.4541
  964MOL0     C30016   7.910   1.597   5.879 -0.3522 -0.0869 -0.0165
  964MOL0     C30017   8.052   1.648   5.862  0.0940 -0.4942  0.3697
  964MOL0     C30018   8.081   1.741   5.980 -0.1278 -0.2060 -0.4048
  964MOL0     C30019   8.216   1.789   5.946 -0.2334 -0.1779 -0.3737
  964MOL0     C30020   8.209   1.912   5.845 -0.2803  0.1273 -0.0662
  964MOL0     C30021   8.153   2.040   5.905  0.3151  0.6788 -0.0659
  964MOL0     N30022   8.006   2.070   5.891 -0.5197 -0.3797  0.7665
  964MOL0     C30023   7.953   2.099   5.768 -0.1420 -0.4139 -0.2097
  964MOL0     C30024   7.814   2.096   5.797 -0.1015  0.6219  0.1836
  964MOL0     C30025   7.701   2.104   5.698 -0.9451  0.6642 -0.4519
  964MOL0     C30026   7.625   1.964   5.702 -0.0613  0.0700 -0.4035
  964MOL0     C30027   7.713   1.854   5.657  0.0492 -0.4907  0.5407
  964MOL0     C30028   7.771   1.881   5.515 -0.3016  0.0334  0.5399
  964MOL0     O30029   7.786   1.753   5.450 -1.5635  0.2384  0.2663
  964MOL0     C30030   7.690   1.673   5.405  0.2724  0.1314 -0.4544
  964MOL0     C30031   7.561   1.710   5.366 -0.4855  0.9542  0.6182
  964MOL0     C30032   7.474   1.621   5.303  0.5121 -0.8722 -0.0352
  964MOL0     C30033   7.511   1.488   5.271  0.2573  0.0385 -0.8808
  964MOL0     C30034   7.417   1.397   5.206  0.2067  0.2098 -0.3837
  964MOL0     O30035   7.303   1.452   5.167 -0.2833 -0.2458  1.0760
  964MOL0     C30036   7.204   1.400   5.084  1.1083 -0.5350 -0.4421
  964MOL0     C30037   7.084   1.462   5.088  0.5343  0.5490 -0.5896
  964MOL0     C30038   6.973   1.392   5.028  0.1382 -0.2729  0.5755
  964MOL0     C30039   6.987   1.277   4.959  0.4667  0.7277 -0.7630
  964MOL0     O30040   6.870   1.214   4.913 -0.5336  0.3862 -0.5138
  964MOL0     C30041   6.743   1.288   4.885 -0.5972 -0.3528 -1.1443
  964MOL0     C30042   6.662   1.208   4.782  0.3844  0.1603 -0.9700
  964MOL0     C30043   6.729   1.164   4.655  0.1246 -0.6210 -1.0513
  964MOL0     C30044   6.620   1.073   4.587  0.2505  0.9465  0.9345
  964MOL0     C30045   6.672   0.990   4.468 -0.0876  0.6445  0.1761
  964MOL0     C30046   6.686   1.078   4.352  0.0058 -0.7358  0.8873
  964MOL0     C30047   6.776   1.018   4.236 -0.1130 -0.1539  0.6038
  964MOL0     C30048   6.791   1.102   4.111 -0.6778 -0.0519  0.0446
  964MOL0    Cl30049   6.868   1.250   4.148  0.2972 -0.0573  0.5848
  964MOL0     C30050   7.114   1.221   4.934 -0.0927  0.7102 -0.6562
  964MOL0     C30051   7.223   1.282   5.005 -0.2720 -0.7126  0.3962
  964MOL0     O30052   7.457   1.278   5.194 -0.7739  0.0900 -0.6407
  964MOL0     C30053   7.629   1.443   5.329  0.3248  0.5286 -0.8652
  964MOL0     C30054   7.718   1.541   5.389  0.5725 -0.3558  0.4043
  964MOL0     N30055   7.805   2.063   5.931 -0.3930  0.4377 -0.6445
  964MOL0     N30056   7.920   2.056   5.987 -0.4561  0.6039  0.6082
  964MOL0     C30057   7.503   1.215   5.739  0.9075 -0.5695 -0.0281
  964MOL0     C30058   7.412   1.119   5.790 -0.8488 -0.2582  1.6239
  964MOL0     C30059   7.098   0.931   6.059 -0.0353 -0.5844  1.3729
  964MOL0     C30060   6.972   0.984   6.099 -0.9131  0.0639 -0.4521
  964MOL0     C30061   6.856   0.898   6.100  0.0671  0.2461  0.8687
  964MOL0     C30062   6.859   0.766   6.057  0.5231 -0.0067 -0.0999
  964MOL0     O30063   6.746   0.681   6.042  0.4504 -0.6745  0.0563
  964MOL0     C30064   6.617   0.731   6.074  0.4649  0.3885 -0.1824
  964MOL0     C30065   6.515   0.616   6.067 -0.8418 -0.2511 -0.7950
  964MOL0     C30066   6.542   0.511   6.173 -0.6756 -0.0916 -0.4609
  964MOL0     C30067   6.453   0.384   6.171 -0.2114 -0.9079  1.0919
  964MOL0     C30068   6.467   0.311   6.043  0.4448  0.2100  0.4076
  964MOL0     C30069   6.467   0.260   5.926 -0.0360  0.0759 -0.1570
  964MOL0     C30070   6.984   0.712   6.021  0.7055  0.6705  0.2356
  964MOL0     C30071   7.099   0.790   6.019 -0.2310  0.7940 -0.2180
  964MOL0     C30072   7.223   0.711   5.993 -0.1855 -0.1796 -0.6762
  964MOL0     H30073   7.475   1.138   6.123 -0.0548  0.5290  1.5473
  964MOL0     H30074   7.667   1.293   6.036  0.2491 -3.0765  2.1283
  964MOL0     H30075   7.636   1.549   5.746 -1.0038 -1.9079 -1.7495
  964MOL0     H30076   7.689   1.489   5.903 -2.8551  1.5108 -0.4193
  964MOL0     H30077   7.856   1.582   5.674  3.1274 -1.8869 -0.5137
  964MOL0     H30078   7.890   1.419   5.755 -0.0932  0.0376  0.4108
  964MOL0     H30079   7.904   1.536   5.970 -0.4020  1.4850  1.0848
  964MOL0     H30080   7.854   1.680   5.924  0.1053 -0.7630  1.9198
  964MOL0     H30081   8.115   1.558   5.865 -0.9607 -1.2320  1.4894
  964MOL0     H30082   8.046   1.703   5.768 -4.9155  0.5995  1.0538
  964MOL0     H30083   8.004   1.819   5.984 -1.3276 -1.4246  1.2108
  964MOL0     H30084   8.078   1.680   6.070  2.7377 -3.4042 -2.2356
  964MOL0     H30085   8.275   1.808   6.036  0.6444 -0.4414 -0.8765
  964MOL0     H30086   8.288   1.719   5.901 -0.0244  0.0890 -0.4588
  964MOL0     H30087   8.159   1.893   5.750 -1.2428  2.3350 -0.0488
  964MOL0     H30088   8.317   1.920   5.833 -0.1652 -1.9970 -1.0233
  964MOL0     H30089   8.175   2.049   6.011 -0.2117 -3.0488  0.4912
  964MOL0     H30090   8.202   2.123   5.853 -0.1017  0.8861 -0.1271
  964MOL0     H30091   8.010   2.114   5.677  0.0651 -3.1150 -0.6144
  964MOL0     H30092   7.642   2.196   5.706  0.7043  1.8164 -1.1171
  964MOL0     H30093   7.739   2.105   5.595  0.3811 -2.6003 -0.0972
  964MOL0     H30094   7.601   1.941   5.806 -1.0434 -0.1255 -0.6691
  964MOL0     H30095   7.535   1.969   5.640  0.8824  1.5636 -1.7490
  964MOL0     H30096   7.661   1.759   5.651 -4.2656  1.7216 -1.5389
  964MOL0     H30097   7.796   1.854   5.730 -1.2656  2.9637  2.2996
  964MOL0     H30098   7.860   1.945   5.513 -0.9586  0.9519 -1.0226
  964MOL0     H30099   7.696   1.928   5.452 -0.8895 -2.6690 -0.9427
  964MOL0     H30100   7.548   1.818   5.378  3.6571  1.6727  0.2383
  964MOL0     H30101   7.374   1.654   5.275  0.8454  0.3469  0.1314
  964MOL0     H30102   7.078   1.556   5.142  2.1076  0.4610 -0.2228
  964MOL0     H30103   6.874   1.434   5.041  0.4971  0.3650  1.3201
  964MOL0     H30104   6.686   1.321   4.972 -0.5832  2.2066 -2.0451
  964MOL0     H30105   6.763   1.385   4.839 -1.0006  2.0919  3.2397
  964MOL0     H30106   6.642   1.118   4.841  0.3769  1.2021  0.6889
  964MOL0     H30107   6.563   1.248   4.760  0.8672  2.4951  0.7760
  964MOL0     H30108   6.751   1.254   4.598  1.5721 -0.3365 -0.0972
  964MOL0     H30109   6.825   1.116   4.674  0.6781  1.3558  1.7737
  964MOL0     H30110   6.530   1.131   4.566  0.1046  1.8901  3.8219
  964MOL0     H30111   6.592   0.996   4.659  1.8627 -1.1713 -0.5644
  964MOL0     H30112   6.601   0.911   4.443 -0.6765  0.6806  1.6418
  964MOL0     H30113   6.766   0.938   4.494  0.2619 -0.0715 -2.2685
  964MOL0     H30114   6.585   1.108   4.323  0.0937 -0.3240  0.9915
  964MOL0     H30115   6.742   1.168   4.382 -1.0573 -0.2473  1.4504
  964MOL0     H30116   6.737   0.917   4.225  1.2629 -0.5213 -1.5977
  964MOL0     H30117   6.874   1.005   4.283  0.9812  0.4559 -1.3726
  964MOL0     H30118   6.840   1.046   4.031 -1.0805  0.7346 -0.7799
  964MOL0     H30119   6.689   1.126   4.077 -0.5810 -2.1299 -1.9408
  964MOL0     H30120   7.128   1.124   4.887  1.9259  1.5135 -1.8497
  964MOL0     H30121   7.322   1.237   5.002  1.0208  1.9848 -0.6923
  964MOL0     H30122   7.669   1.342   5.327  1.0384  0.7179  1.1289
  964MOL0     H30123   7.815   1.511   5.427 -0.1671 -2.4167  0.7843
  964MOL0     H30124   7.492   1.248   5.636  1.1148  4.7854  1.3666
  964MOL0     H30125   7.331   1.070   5.737 -0.1349  1.6281 -1.4564
  964MOL0     H30126   6.984   1.086   6.133 -2.0724  0.6991 -1.8381
  964MOL0     H30127   6.767   0.942   6.145 -0.1988 -0.6557  1.2568
  964MOL0     H30128   6.591   0.809   6.002 -1.1403  0.8337  0.8245
  964MOL0     H30129   6.622   0.769   6.177 -1.7112 -1.5460  0.7429
  964MOL0     H30130   6.498   0.579   5.966 -2.5314 -0.2772 -0.5315
  964MOL0     H30131   6.417   0.662   6.087 -1.0293  0.8040 -3.6841
  964MOL0     H30132   6.537   0.565   6.268 -2.8813  1.3412 -1.2969
  964MOL0     H30133   6.643   0.469   6.173 -0.2190  0.7473  2.9480
  964MOL0     H30134   6.484   0.312   6.246 -0.4734 -1.9478  0.2258
  964MOL0     H30135   6.349   0.415   6.187 -0.1401  2.2511 -2.8269
  964MOL0     H30136   6.442   0.215   5.832  1.6594 -0.3642 -0.4284
  964MOL0     H30137   6.989   0.611   5.982 -1.2709 -0.1129  1.8231
  964MOL0     H30138   7.268   0.734   5.896  1.6405  2.0880  0.5924
  964MOL0     H30139   7.303   0.732   6.065 -0.5135  1.5989 -0.7860
  964MOL0     H30140   7.203   0.604   5.981  1.7440 -0.7551  0.7547
  965MOL0     O30141   9.753   7.899   1.556  0.0749  0.5557  0.5116
  965MOL0     C30142   9.673   7.944   1.634  0.7463  0.2595  0.2422
  965MOL0     O30143   9.666   7.907   1.761  0.1875 -0.0849  1.0089
  965MOL0     C30144   9.747   7.820   1.823  0.6910  0.1413  1.8130
  965MOL0     C30145   9.674   7.748   1.916  0.1621 -0.0284 -1.5422
  965MOL0     C30146   9.750   7.671   2.003  0.9424  0.2524 -0.2229
  965MOL0     C30147   9.888   7.651   1.999  0.1265  0.6043  0.9860
  965MOL0     O30148   9.965   7.567   2.075  0.1249 -0.0243 -1.0956
  965MOL0     C30149   9.925   7.440   2.079 -0.5954  0.2488 -0.3001
  965MOL0     C30150  10.019   7.373   2.167 -0.4391  0.0997  0.3331
  965MOL0     C30151  10.021   7.217   2.162 -0.0199 -0.2871  0.5850
  965MOL0     C30152   9.905   7.141   2.219 -0.2814 -0.5988 -0.1402
  965MOL0     C30153   9.788   7.135   2.120 -0.4732 -1.0540 -1.2478
  965MOL0     C30154   9.666   7.072   2.181 -0.8846  0.1244 -0.2995
  965MOL0     C30155   9.556   7.069   2.078  0.8245 -1.1197  0.1172
  965MOL0     C30156   9.436   6.985   2.123  0.3228  0.4660  0.3753
  965MOL0     N30157   9.373   7.024   2.247  0.4355 -0.6568 -0.1774
  965MOL0     C30158   9.293   7.136   2.261  0.2764  0.4867 -0.0125
  965MOL0     C30159   9.277   7.129   2.400  0.5900  0.1597  0.1878
  965MOL0     C30160   9.182   7.220   2.466  0.6930  0.7606 -1.0249
  965MOL0     C30161   9.041   7.179   2.481 -0.0202  0.1469  0.3428
  965MOL0     C30162   8.976   7.151   2.338  0.7813 -0.0725  0.3455
  965MOL0     C30163   8.827   7.161   2.338 -0.2086 -0.0112 -0.1720
  965MOL0     O30164   8.777   7.124   2.206 -0.6074  0.5081 -1.2102
  965MOL0     C30165   8.680   7.196   2.141 -0.5670  0.4340  0.2286
  965MOL0     C30166   8.611   7.125   2.039 -0.1941  0.6115 -0.0306
  965MOL0     C30167   8.512   7.179   1.955 -0.1111  0.4367  0.4449
  965MOL0     C30168   8.491   7.315   1.967  0.0719  0.1193 -0.8232
  965MOL0     C30169   8.393   7.368   1.878 -0.1534 -1.3269  0.9824
  965MOL0     O30170   8.365   7.497   1.894 -0.6032  0.0147  1.1763
  965MOL0     C30171   8.273   7.543   1.802 -0.2744  0.0237 -0.1442
  965MOL0     C30172   8.137   7.506   1.810  0.5426  0.7310 -0.8220
  965MOL0     C30173   8.039   7.554   1.723 -0.2550 -0.5119 -0.3742
  965MOL0     C30174   8.079   7.643   1.623 -0.7661  0.7674 -0.0461
  965MOL0     O30175   7.980   7.696   1.536 -0.2222  0.0430 -0.9128
  965MOL0     C30176   8.023   7.780   1.429 -0.4177 -0.3041 -0.5178
  965MOL0     C30177   8.084   7.710   1.311  0.3737  1.2937 -0.8190
  965MOL0     C30178   8.174   7.807   1.231 -0.0309 -0.7537  0.7059
  965MOL0     C30179   8.110   7.945   1.194 -0.7128 -0.4978 -0.7357
  965MOL0     C30180   8.205   8.031   1.108 -0.2329  0.5373 -1.0541
  965MOL0     C30181   8.147   8.058   0.964  0.8012  0.2080  0.4383
  965MOL0     C30182   8.123   7.949   0.859 -0.1443 -0.4793  0.9083
  965MOL0     C30183   8.014   7.999   0.763 -0.3988  0.1949 -0.7733
  965MOL0    Cl30184   7.949   7.858   0.676  0.3152 -0.4876  0.0650
  965MOL0     C30185   8.211   7.677   1.618  1.0469  0.4824  0.9351
  965MOL0     C30186   8.306   7.630   1.699 -0.3429 -0.5823  0.1000
  965MOL0     O30187   8.346   7.294   1.791 -0.5854  0.3988 -0.0389
  965MOL0     C30188   8.558   7.386   2.072 -0.1547 -0.2572  0.2177
  965MOL0     C30189   8.656   7.331   2.156 -0.1944  1.3259 -0.4631
  965MOL0     N30190   9.333   7.022   2.459  1.5987 -0.0533 -0.0103
  965MOL0     N30191   9.404   6.963   2.370 -0.2383  0.1441  0.7791
  965MOL0     C30192   9.957   7.729   1.903  0.3088  0.0461  0.4295
  965MOL0     C30193   9.890   7.813   1.805 -0.1164  0.4972 -0.6012
  965MOL0     C30194   9.595   8.064   1.594 -0.4027  0.2649 -0.5697
  965MOL0     C30195   9.494   8.114   1.678  0.6888 -0.1347 -0.0313
  965MOL0     C30196   9.425   8.239   1.649  0.3988 -0.1205  0.8394
  965MOL0     C30197   9.459   8.315   1.540  0.2208  0.8459 -0.8698
  965MOL0     O30198   9.400   8.428   1.521  0.6484  0.5227 -0.1379
  965MOL0     C30199   9.481   8.541   1.490 -0.2178 -0.0372 -0.5769
  965MOL0     C30200   9.402   8.672   1.515 -0.2842  0.5596  0.1806
  965MOL0     C30201   9.487   8.798   1.524  0.2245  0.2779 -0.0241
  965MOL0     C30202   9.548   8.846   1.391  0.3822 -0.3456  0.8916
  965MOL0     C30203   9.664   8.762   1.353 -0.6849 -0.9863  0.4236
  965MOL0     C30204   9.758   8.698   1.305 -0.1410  0.1552 -0.2038
  965MOL0     C30205   9.560   8.265   1.459  0.1586 -0.2082  0.5337
  965MOL0     C30206   9.612   8.134   1.473  0.1253  0.5887 -0.1866
  965MOL0     C30207   9.705   8.101   1.360 -0.4318 -0.6134  0.0914
  965MOL0     H30208   9.569   7.765   1.934  0.6994  0.1364  2.4100
  965MOL0     H30209   9.685   7.616   2.070  0.1477 -1.0623 -2.0149
  965MOL0     H30210   9.824   7.423   2.118  0.9764 -4.1769  2.7039
  965MOL0     H30211   9.925   7.400   1.977 -3.8345  2.5941 -1.3823
  965MOL0     H30212  10.005   7.409   2.269 -1.4159 -0.2673  0.3337
  965MOL0     H30213  10.120   7.406   2.140 -0.7767  3.1124  2.2203
  965MOL0     H30214  10.101   7.177   2.225 -1.5728 -0.5997  2.4748
  965MOL0     H30215  10.020   7.174   2.061 -0.7593 -0.1651  0.5336
  965MOL0     H30216   9.928   7.038   2.245  0.7871 -0.4094 -0.3109
  965MOL0     H30217   9.883   7.199   2.309 -0.5918  0.3951 -0.8308
  965MOL0     H30218   9.768   7.239   2.092  2.9111 -0.1644 -0.8966
  965MOL0     H30219   9.821   7.087   2.027  1.7493  4.0369 -3.4875
  965MOL0     H30220   9.687   6.969   2.213  1.4963  0.3821 -0.8439
  965MOL0     H30221   9.639   7.140   2.262  1.3063  1.2280 -0.4290
  965MOL0     H30222   9.592   7.014   1.991 -0.6692 -0.0085 -1.2746
  965MOL0     H30223   9.508   7.165   2.056 -1.7017 -2.0124  1.3989
  965MOL0     H30224   9.355   6.986   2.050  0.0405  0.6614  0.6880
  965MOL0     H30225   9.457   6.878   2.120 -4.7257 -0.7405  0.2514
  965MOL0     H30226   9.259   7.202   2.182  3.1071  1.7620 -0.2978
  965MOL0     H30227   9.225   7.251   2.562  0.6409 -3.4937  0.5749
  965MOL0     H30228   9.167   7.309   2.404  1.0455  2.4962  1.2241
  965MOL0     H30229   9.031   7.096   2.551 -0.8880  1.8011  2.3012
  965MOL0     H30230   8.992   7.269   2.520  0.4506 -0.1819  1.7872
  965MOL0     H30231   9.000   7.051   2.301 -0.4007  0.4948 -2.1404
  965MOL0     H30232   9.011   7.224   2.265  1.1286  1.1430  1.6670
  965MOL0     H30233   8.804   7.267   2.358  0.2939  0.0561  0.0514
  965MOL0     H30234   8.775   7.099   2.412  0.5540 -2.6740 -1.7356
  965MOL0     H30235   8.642   7.022   2.036 -0.1424  0.5895  0.8255
  965MOL0     H30236   8.470   7.118   1.876 -2.3399  4.0836 -1.4567
  965MOL0     H30237   8.109   7.433   1.886  5.0812 -0.5754 -0.1219
  965MOL0     H30238   7.937   7.520   1.739 -0.1611 -0.9686 -0.7057
  965MOL0     H30239   7.946   7.849   1.393 -0.0119  0.0257 -0.7624
  965MOL0     H30240   8.094   7.852   1.473  0.7988 -2.2343  0.8237
  965MOL0     H30241   8.162   7.636   1.329  1.3312  2.2095 -1.0953
  965MOL0     H30242   8.006   7.665   1.249 -2.7603  3.4735  1.2512
  965MOL0     H30243   8.274   7.810   1.277  2.4880 -0.5260 -4.1776
  965MOL0     H30244   8.198   7.757   1.137  1.5449 -1.9677  1.6975
  965MOL0     H30245   8.076   7.993   1.286  0.2625  0.5259 -0.8835
  965MOL0     H30246   8.015   7.937   1.140 -2.4992  3.1675  1.4477
  965MOL0     H30247   8.307   7.991   1.110  1.0077  3.4946 -0.8894
  965MOL0     H30248   8.212   8.125   1.163  2.2623 -0.4211  0.4671
  965MOL0     H30249   8.053   8.111   0.984  1.5181  0.3380  4.0405
  965MOL0     H30250   8.214   8.136   0.928  0.6571  1.8333  3.3788
  965MOL0     H30251   8.072   7.862   0.899 -1.5331 -1.5911 -2.8637
  965MOL0     H30252   8.221   7.926   0.815 -1.2074 -1.4561 -1.0761
  965MOL0     H30253   7.932   8.041   0.822  0.5781 -0.9580  1.5276
  965MOL0     H30254   8.038   8.080   0.694 -0.0969 -0.8575 -1.9424
  965MOL0     H30255   8.228   7.739   1.530 -1.2949  0.4711  0.4155
  965MOL0     H30256   8.411   7.657   1.703 -0.6671  0.6852  0.3577
  965MOL0     H30257   8.525   7.490   2.081 -2.1888 -0.9154  0.9109
  965MOL0     H30258   8.711   7.396   2.224  0.2181  0.3583  0.1477
  965MOL0     H30259  10.063   7.712   1.887  0.1629  0.5055 -1.2231
  965MOL0     H30260   9.951   7.872   1.737  0.7199  1.9034  1.2441
  965MOL0     H30261   9.448   8.055   1.757  0.7601 -0.5559 -0.3011
  965MOL0     H30262   9.348   8.276   1.715  0.0243 -0.8072  0.7961
  965MOL0     H30263   9.506   8.534   1.384 -0.3590 -1.7702 -0.5159
  965MOL0     H30264   9.572   8.531   1.549 -1.2801 -0.6418  1.0158
  965MOL0     H30265   9.354   8.644   1.609  0.8206 -2.0234  0.0885
  965MOL0     H30266   9.323   8.675   1.440  0.6116 -1.3143 -0.9209
  965MOL0     H30267   9.567   8.796   1.599  0.0764  1.0537  0.1675
  965MOL0     H30268   9.423   8.883   1.547  2.4007  2.3683 -1.1140
  965MOL0     H30269   9.466   8.844   1.318  1.2994  0.0904 -0.1845
  965MOL0     H30270   9.579   8.950   1.407 -1.2625  0.6157 -1.4949
  965MOL0     H30271   9.839   8.635   1.274 -0.0991  0.4013 -0.6019
  965MOL0     H30272   9.581   8.315   1.365  0.3038 -2.6611 -0.8189
  965MOL0     H30273   9.682   8.011   1.303 -0.9166  1.3480 -3.0361
  965MOL0     H30274   9.702   8.179   1.284  0.3862  0.4183  1.0858
  965MOL0     H30275   9.808   8.094   1.395 -0.0032  1.5025 -0.6267
  966MOL0     O30276   0.912   7.693   7.780 -0.5814 -0.2483 -0.5813
  966MOL0     C30277   0.916   7.737   7.898 -0.4128 -0.2194  0.4457
  966MOL0     O30278   0.842   7.693   8.004  0.1680  0.4558 -0.6858
  966MOL0     C30279   0.734   7.611   7.987  0.2822 -0.0999 -0.2298
  966MOL0     C30280   0.625   7.643   7.906  0.7488 -0.2742  0.0652
  966MOL0     C30281   0.514   7.573   7.923 -0.0802  0.9477 -0.1245
  966MOL0     C30282   0.495   7.457   8.003  0.5745  0.0313 -0.8029
  966MOL0     O30283   0.359   7.414   8.010  0.0786  0.2634  0.6988
  966MOL0     C30284   0.332   7.279   8.066  1.0368 -0.2374 -0.8125
  966MOL0     C30285   0.189   7.260   8.114  0.5068  0.1664 -0.5051
  966MOL0     C30286   0.096   7.300   8.003  0.8516 -0.1942 -1.5269
  966MOL0     C30287   0.105   7.210   7.875  1.4310  0.2859 -0.3339
  966MOL0     C30288   0.005   7.090   7.876  0.3371 -1.2509 -0.4266
  966MOL0     C30289  -0.138   7.146   7.846 -0.9799  0.2369 -0.2524
  966MOL0     C30290  -0.233   7.025   7.820 -0.2366 -0.9770  0.3413
  966MOL0     C30291  -0.375   7.063   7.792 -0.6374  0.6764  0.7232
  966MOL0     N30292  -0.386   7.144   7.673 -1.1627 -0.0954 -0.3546
  966MOL0     C30293  -0.396   7.281   7.670 -0.1459 -0.0808  0.4229
  966MOL0     C30294  -0.397   7.309   7.530 -0.4332  0.7072 -0.8730
  966MOL0     C30295  -0.385   7.431   7.445 -0.5142  1.0031  0.0157
  966MOL0     C30296  -0.492   7.445   7.339  0.0597 -0.2477 -0.6716
  966MOL0     C30297  -0.515   7.595   7.312  0.3206  0.5365  0.3088
  966MOL0     C30298  -0.656   7.618   7.257 -0.2611  0.2359 -0.5967
  966MOL0     O30299  -0.728   7.709   7.340 -0.5467  0.5037 -0.5053
  966MOL0     C30300  -0.863   7.735   7.310  0.1801  0.5446 -0.2133
  966MOL0     C30301  -0.927   7.682   7.195  0.0432 -0.0723  0.2576
  966MOL0     C30302  -1.060   7.716   7.180 -0.5164 -0.4887  0.2639
  966MOL0     C30303  -1.133   7.793   7.273  0.2521  0.1617  0.7821
  966MOL0     C30304  -1.275   7.815   7.252  1.2975 -0.3196 -0.8699
  966MOL0     O30305  -1.338   7.893   7.342  0.1645  0.4019 -0.1427
  966MOL0     C30306  -1.452   7.960   7.308 -0.2195 -0.4805 -0.0279
  966MOL0     C30307  -1.514   7.977   7.180  0.1102  0.3703  1.4625
  966MOL0     C30308  -1.638   8.032   7.173 -0.1270  0.6174  0.9554
  966MOL0     C30309  -1.698   8.093   7.277  0.0867  0.4536  0.6859
  966MOL0     O30310  -1.826   8.136   7.273 -0.1847 -0.5878  1.1100
  966MOL0     C30311  -1.837   8.261   7.199  0.0830  0.1427 -0.9407
  966MOL0     C30312  -1.985   8.299   7.201  0.5509  0.0890  1.0884
  966MOL0     C30313  -2.072   8.274   7.328 -0.5177 -0.0733  0.2145
  966MOL0     C30314  -2.038   8.376   7.437  0.1399  0.3197  1.1819
  966MOL0     C30315  -2.123   8.347   7.558  0.3118 -0.5262 -0.0281
  966MOL0     C30316  -2.118   8.465   7.668 -0.4023  0.5494  0.4769
  966MOL0     C30317  -2.204   8.436   7.788  0.4181  0.3746  0.1043
  966MOL0     C30318  -2.190   8.539   7.900  0.4255 -0.7967  0.5116
  966MOL0    Cl30319  -2.061   8.493   8.022 -0.3782 -0.0039 -0.3396
  966MOL0     C30320  -1.634   8.079   7.401  0.5741 -0.3613  0.0635
  966MOL0     C30321  -1.508   8.018   7.421  1.2188  0.3552  0.7206
  966MOL0     O30322  -1.330   7.755   7.159  0.6342 -0.9358  0.3985
  966MOL0     C30323  -1.064   7.847   7.380 -0.0621 -0.4660 -0.6600
  966MOL0     C30324  -0.930   7.807   7.407  0.3299 -0.6483 -0.1605
  966MOL0     N30325  -0.412   7.191   7.466  0.1725  0.6625 -0.3753
  966MOL0     N30326  -0.409   7.094   7.547 -0.2169  0.7014 -0.1971
  966MOL0     C30327   0.601   7.423   8.079 -0.1842 -0.4272 -0.5896
  966MOL0     C30328   0.717   7.500   8.076 -1.5273  0.1627 -0.1565
  966MOL0     C30329   1.011   7.842   7.925  0.5982  0.2643 -0.7202
  966MOL0     C30330   0.988   7.924   8.045 -1.4435 -0.5495  0.4066
  966MOL0     C30331   1.067   8.038   8.060  0.5860  0.7983 -0.1365
  966MOL0     C30332   1.180   8.066   7.979 -0.4185  0.1291 -0.3621
  966MOL0     O30333   1.268   8.170   8.000 -0.3639 -0.2598  0.0787
  966MOL0     C30334   1.275   8.205   8.139 -0.4269  0.4612  0.0714
  966MOL0     C30335   1.397   8.284   8.165 -0.5540  0.5613 -0.0565
  966MOL0     C30336   1.530   8.229   8.116 -0.1418  0.8674 -0.7811
  966MOL0     C30337   1.642   8.267   8.216  1.1615  0.5150 -0.1414
  966MOL0     C30338   1.656   8.171   8.324 -0.8088  0.7143 -0.1865
  966MOL0     C30339   1.680   8.084   8.406  0.2460 -0.6416  0.5304
  966MOL0     C30340   1.205   7.974   7.885  0.4537 -0.7960  0.2572
  966MOL0     C30341   1.126   7.870   7.846 -0.7042  0.6356 -0.3310
  966MOL0     C30342   1.177   7.781   7.732 -0.1205 -0.8702  1.0017
  966MOL0     H30343   0.636   7.728   7.838  0.8925  0.1129  0.5668
  966MOL0     H30344   0.433   7.599   7.856  1.2104 -0.1957 -2.2273
  966MOL0     H30345   0.352   7.211   7.983  0.3615 -2.7671  0.9956
  966MOL0     H30346   0.400   7.246   8.145 -1.2960  0.8720  1.8232
  966MOL0     H30347   0.160   7.307   8.208 -0.8177 -0.8966 -0.3550
  966MOL0     H30348   0.192   7.155   8.142  2.6482  0.5241  0.9051
  966MOL0     H30349   0.122   7.401   7.970  0.7835  0.4599  0.3115
  966MOL0     H30350  -0.008   7.299   8.038  0.6948 -0.9891 -1.9897
  966MOL0     H30351   0.086   7.265   7.782  0.2312  3.5355  1.6317
  966MOL0     H30352   0.207   7.172   7.868  1.9894  1.6253  0.2567
  966MOL0     H30353   0.042   7.022   7.798  1.3602 -1.4109  0.1696
  966MOL0     H30354   0.014   7.037   7.972 -0.4743  0.4769  0.6507
  966MOL0     H30355  -0.183   7.203   7.927 -2.1239  0.8498 -1.2793
  966MOL0     H30356  -0.140   7.216   7.761 -1.7353  0.0148 -0.4218
  966MOL0     H30357  -0.253   6.968   7.911 -0.7260  1.1027  1.6143
  966MOL0     H30358  -0.202   6.961   7.737  2.2090 -0.7294  0.9978
  966MOL0     H30359  -0.445   6.979   7.792  1.0641 -0.8141 -0.5892
  966MOL0     H30360  -0.405   7.136   7.867  1.4164  2.9443 -0.5230
  966MOL0     H30361  -0.378   7.352   7.750  1.9494 -1.0755  0.8987
  966MOL0     H30362  -0.388   7.514   7.516 -0.1308 -0.5746  1.9780
  966MOL0     H30363  -0.294   7.442   7.386 -2.5686 -0.3537 -3.8080
  966MOL0     H30364  -0.452   7.398   7.249 -2.7417  0.0334 -2.1791
  966MOL0     H30365  -0.581   7.386   7.365  0.3769 -0.4969 -0.1273
  966MOL0     H30366  -0.438   7.617   7.237 -2.2334 -0.2045 -2.8001
  966MOL0     H30367  -0.502   7.655   7.402  3.2242 -1.1115  1.0944
  966MOL0     H30368  -0.709   7.522   7.257  0.0286 -0.0277  2.5449
  966MOL0     H30369  -0.646   7.653   7.154  0.3816 -2.7079 -1.6450
  966MOL0     H30370  -0.873   7.617   7.127  0.9065  0.0717  0.7898
  966MOL0     H30371  -1.115   7.679   7.094 -0.2816 -0.8752  0.2777
  966MOL0     H30372  -1.471   7.924   7.096  0.9732 -0.7842  2.6146
  966MOL0     H30373  -1.689   8.033   7.077 -2.1901 -0.2093  1.9605
  966MOL0     H30374  -1.790   8.337   7.262 -1.7018  1.2376 -0.8584
  966MOL0     H30375  -1.787   8.245   7.103  3.9189 -2.4106  1.1773
  966MOL0     H30376  -1.997   8.403   7.167  3.5074 -0.6658 -3.1458
  966MOL0     H30377  -2.032   8.247   7.117 -1.0843  2.4269  0.4524
  966MOL0     H30378  -2.179   8.278   7.306 -0.6335 -1.0151  0.5327
  966MOL0     H30379  -2.038   8.178   7.368  1.9974  0.4552 -0.4762
  966MOL0     H30380  -2.056   8.476   7.396 -0.4877 -0.4844 -0.6161
  966MOL0     H30381  -1.932   8.382   7.464  0.6345  0.7064 -0.6792
  966MOL0     H30382  -2.085   8.255   7.603  0.4048  0.8945  3.1177
  966MOL0     H30383  -2.229   8.347   7.530 -0.1839  2.2142  1.4337
  966MOL0     H30384  -2.018   8.480   7.711 -1.6784  0.5624  3.8042
  966MOL0     H30385  -2.137   8.564   7.626 -0.3690 -0.2162 -1.4433
  966MOL0     H30386  -2.194   8.332   7.818 -1.5402 -0.7444 -2.7297
  966MOL0     H30387  -2.306   8.448   7.752  0.7313 -0.1786 -1.0049
  966MOL0     H30388  -2.164   8.637   7.856 -0.3962 -1.0735 -0.6394
  966MOL0     H30389  -2.284   8.540   7.954 -0.7451 -0.5038 -1.4215
  966MOL0     H30390  -1.678   8.130   7.486  0.2837 -1.0477  0.3301
  966MOL0     H30391  -1.458   8.015   7.517  2.7359 -0.4003 -0.0541
  966MOL0     H30392  -1.109   7.925   7.441 -0.6880  2.7547 -4.7680
  966MOL0     H30393  -0.867   7.841   7.488 -1.0145  1.2064  0.1677
  966MOL0     H30394   0.614   7.348   8.156  0.3622  2.4173  2.3110
  966MOL0     H30395   0.799   7.489   8.145 -0.2491  1.2100 -1.4340
  966MOL0     H30396   0.909   7.902   8.116 -0.4876  0.8186  1.9666
  966MOL0     H30397   1.052   8.103   8.145  1.6522  2.4893 -1.1819
  966MOL0     H30398   1.294   8.115   8.198  0.2241  0.3117 -0.3537
  966MOL0     H30399   1.198   8.269   8.182  0.9090  1.6214  0.8117
  966MOL0     H30400   1.402   8.285   8.274  2.4225 -2.1251 -0.0289
  966MOL0     H30401   1.371   8.382   8.125 -2.1584 -0.1807 -0.9243
  966MOL0     H30402   1.548   8.267   8.015 -1.3443 -1.3008 -1.8966
  966MOL0     H30403   1.525   8.120   8.113  1.6489  0.7775 -1.0653
  966MOL0     H30404   1.739   8.282   8.167  0.5767  0.3138 -1.3857
  966MOL0     H30405   1.614   8.356   8.274 -0.0109  1.2995 -1.8463
  966MOL0     H30406   1.708   8.024   8.490 -2.0301  1.2984  2.8250
  966MOL0     H30407   1.279   8.006   7.813 -1.5870 -2.7158 -2.8976
  966MOL0     H30408   1.122   7.805   7.641 -3.2658  3.8076  3.6579
  966MOL0     H30409   1.285   7.790   7.721 -0.3919  1.2367 -0.3438
  966MOL0     H30410   1.149   7.679   7.763 -0.0836 -1.0808  0.3445
  967MOL0     O30411   8.055   4.476  10.495  0.4530  0.3864  0.0933
  967MOL0     C30412   8.130   4.540  10.575 -0.2828  0.2440 -0.0789
  967MOL0     O30413   8.177   4.667  10.540  0.1671  0.1279 -0.4688
  967MOL0     C30414   8.182   4.714  10.407 -0.8221 -1.0504 -1.7002
  967MOL0     C30415   8.303   4.698  10.342 -0.3926 -0.5193 -0.7094
  967MOL0     C30416   8.320   4.735  10.213  0.4349  1.0337 -0.2863
  967MOL0     C30417   8.204   4.780  10.143 -0.4540 -0.2261  0.0068
  967MOL0     O30418   8.208   4.812  10.006  0.3837 -0.3451 -0.2366
  967MOL0     C30419   8.313   4.772   9.922  0.6241  0.3817  0.0185
  967MOL0     C30420   8.303   4.619   9.872  0.3479  0.2980 -0.0382
  967MOL0     C30421   8.381   4.599   9.738  0.1540 -0.8828 -0.1845
  967MOL0     C30422   8.386   4.465   9.666 -0.0153  0.3358  0.3146
  967MOL0     C30423   8.284   4.363   9.718  0.0099  1.5371  0.2618
  967MOL0     C30424   8.306   4.205   9.690 -0.5575 -0.7956 -0.0056
  967MOL0     C30425   8.220   4.111   9.778 -0.3180 -0.1992  0.3337
  967MOL0     C30426   8.272   3.969   9.755  0.2236 -0.6253  0.1240
  967MOL0     N30427   8.252   3.902   9.628 -0.7924  0.5248 -0.0041
  967MOL0     C30428   8.355   3.856   9.549  1.0120 -0.0518  0.4713
  967MOL0     C30429   8.290   3.777   9.464 -0.3449 -0.1538  0.1632
  967MOL0     C30430   8.346   3.680   9.359 -0.0783 -0.2154  0.3743
  967MOL0     C30431   8.481   3.627   9.399 -0.2520 -0.0511  0.6679
  967MOL0     C30432   8.499   3.503   9.310  0.5353 -0.1306  0.2445
  967MOL0     C30433   8.641   3.453   9.323  0.0867  0.1859  0.9959
  967MOL0     O30434   8.660   3.326   9.252 -0.6400  0.8883  0.8364
  967MOL0     C30435   8.787   3.277   9.233 -0.8043 -0.6723  0.0855
  967MOL0     C30436   8.805   3.138   9.205  0.0262 -0.4424 -0.2719
  967MOL0     C30437   8.931   3.070   9.213  1.2804  0.4900  0.0791
  967MOL0     C30438   9.046   3.145   9.228 -0.6169 -0.5348  0.0319
  967MOL0     C30439   9.178   3.085   9.245 -1.4427  0.1211 -0.8984
  967MOL0     O30440   9.177   2.957   9.296 -0.9363 -0.6570  0.5104
  967MOL0     C30441   9.300   2.897   9.339 -0.6582  0.5004 -0.4103
  967MOL0     C30442   9.296   2.815   9.454  0.5842  0.1276  1.6322
  967MOL0     C30443   9.412   2.747   9.502 -0.0367 -0.2874  0.4381
  967MOL0     C30444   9.537   2.765   9.440  0.7607 -0.4100  0.1134
  967MOL0     O30445   9.649   2.693   9.482  0.2116 -0.6095 -0.1563
  967MOL0     C30446   9.693   2.601   9.383 -0.2058 -0.2386 -1.0337
  967MOL0     C30447   9.780   2.483   9.437 -0.2566 -0.2117  0.1447
  967MOL0     C30448   9.708   2.382   9.520 -0.2446  0.1342 -0.4546
  967MOL0     C30449   9.804   2.260   9.536  0.1542 -0.0039  0.2943
  967MOL0     C30450   9.763   2.153   9.637  0.8351  0.6320  0.6785
  967MOL0     C30451   9.619   2.094   9.635 -0.5499  0.7974  0.2008
  967MOL0     C30452   9.593   2.029   9.501 -0.1740 -0.4936  0.2289
  967MOL0     C30453   9.456   1.964   9.484 -0.1241 -1.2145  0.9309
  967MOL0    Cl30454   9.399   1.972   9.315  0.1758  0.1237 -0.4781
  967MOL0     C30455   9.542   2.851   9.322 -0.3983  0.7550  0.2705
  967MOL0     C30456   9.427   2.916   9.271 -1.2548 -0.1404  0.3048
  967MOL0     O30457   9.280   3.162   9.244 -0.5008  0.4387  0.4068
  967MOL0     C30458   9.036   3.275   9.254 -0.4565 -1.5247 -0.3304
  967MOL0     C30459   8.912   3.347   9.248  0.5464  1.0259  0.3521
  967MOL0     N30460   8.162   3.765   9.506  0.5514 -0.2311  0.0530
  967MOL0     N30461   8.134   3.845   9.595 -0.1568 -0.0428  1.1445
  967MOL0     C30462   8.085   4.821  10.217  0.5705 -0.0784  0.1147
  967MOL0     C30463   8.076   4.792  10.357  0.4839  1.2701 -0.1045
  967MOL0     C30464   8.178   4.483  10.702 -0.3415 -0.3643  0.0401
  967MOL0     C30465   8.307   4.512  10.743  1.1090  0.0124 -0.2660
  967MOL0     C30466   8.345   4.482  10.871 -0.6267 -0.4041 -0.1379
  967MOL0     C30467   8.257   4.423  10.968  0.1152 -0.2463  0.8984
  967MOL0     O30468   8.300   4.397  11.093  0.3079  0.2030  0.5765
  967MOL0     C30469   8.187   4.416  11.177 -0.5532 -0.3120 -1.3499
  967MOL0     C30470   8.237   4.479  11.311 -0.4075  0.0916  0.4243
  967MOL0     C30471   8.342   4.393  11.383 -0.7293 -0.0017  0.1678
  967MOL0     C30472   8.304   4.244  11.404 -0.2026  0.1944 -0.4582
  967MOL0     C30473   8.185   4.231  11.488  0.2305  0.9243 -0.3990
  967MOL0     C30474   8.082   4.223  11.544 -0.0744  0.5423  0.0444
  967MOL0     C30475   8.125   4.390  10.919 -0.6004  0.0725 -0.5002
  967MOL0     C30476   8.090   4.417  10.784 -0.7291  0.1672  0.4854
  967MOL0     C30477   7.948   4.382  10.748  0.6364 -0.8697  0.9580
  967MOL0     H30478   8.383   4.647  10.394 -0.3474 -2.9664 -2.9907
  967MOL0     H30479   8.423   4.717  10.186  1.6069  2.2619  2.9198
  967MOL0     H30480   8.292   4.836   9.836 -1.9300 -0.6227 -0.1907
  967MOL0     H30481   8.416   4.792   9.953  1.0781  3.6464 -3.0375
  967MOL0     H30482   8.199   4.586   9.862 -0.1052  1.0670  1.7771
  967MOL0     H30483   8.343   4.554   9.949 -2.3718  0.0574  1.3047
  967MOL0     H30484   8.482   4.627   9.769 -0.5710 -1.4861  3.1286
  967MOL0     H30485   8.342   4.676   9.671 -0.4626  1.8857  3.0748
  967MOL0     H30486   8.354   4.463   9.562  2.0960  0.1612 -0.3801
  967MOL0     H30487   8.484   4.418   9.658 -0.6925 -1.2194  0.7836
  967MOL0     H30488   8.286   4.367   9.827  0.1653 -0.1327  0.3466
  967MOL0     H30489   8.182   4.390   9.689 -1.1056 -1.8989  0.5746
  967MOL0     H30490   8.289   4.195   9.583 -3.4931  0.9437  0.1959
  967MOL0     H30491   8.411   4.182   9.714 -0.6510  1.5825  3.4071
  967MOL0     H30492   8.112   4.129   9.781 -0.5709 -1.3606 -0.9343
  967MOL0     H30493   8.246   4.136   9.881  0.9776 -3.2516  0.8586
  967MOL0     H30494   8.382   3.967   9.758  0.3707 -0.0429 -2.7498
  967MOL0     H30495   8.237   3.904   9.836  1.5978 -0.0847  1.1896
  967MOL0     H30496   8.461   3.878   9.542  0.8441  1.9925  2.9090
  967MOL0     H30497   8.277   3.597   9.339  0.1182 -0.5096  0.8911
  967MOL0     H30498   8.360   3.737   9.267 -1.8120 -0.9987 -0.4297
  967MOL0     H30499   8.557   3.701   9.371 -0.6053  0.4851  1.1064
  967MOL0     H30500   8.489   3.603   9.505 -0.8244 -1.6018  0.3848
  967MOL0     H30501   8.484   3.526   9.204  2.3396  1.4383  0.2939
  967MOL0     H30502   8.433   3.421   9.339 -2.6087  2.3695  0.6837
  967MOL0     H30503   8.675   3.440   9.426 -3.1460 -0.2967  2.1290
  967MOL0     H30504   8.693   3.532   9.270 -1.9930  1.7900  1.2247
  967MOL0     H30505   8.713   3.081   9.215 -1.2281  1.3859 -0.9405
  967MOL0     H30506   8.934   2.962   9.208  0.8596  0.3528  2.1480
  967MOL0     H30507   9.198   2.806   9.500  0.4200  0.9206  1.4459
  967MOL0     H30508   9.421   2.683   9.589  0.2602  1.2182  1.5420
  967MOL0     H30509   9.608   2.560   9.327 -2.5904  2.1700  0.5866
  967MOL0     H30510   9.763   2.648   9.314 -1.7389  3.3922 -0.3614
  967MOL0     H30511   9.823   2.444   9.344 -0.0057  0.8534 -0.1988
  967MOL0     H30512   9.855   2.531   9.500 -1.8690  0.9380  1.2630
  967MOL0     H30513   9.675   2.435   9.610 -0.3941  0.6341 -0.8051
  967MOL0     H30514   9.619   2.352   9.464  0.9837  1.1124 -3.0514
  967MOL0     H30515   9.896   2.312   9.565 -0.5768  2.3960 -1.3855
  967MOL0     H30516   9.823   2.197   9.449  0.2863  0.0725  0.2676
  967MOL0     H30517   9.768   2.217   9.726 -2.6247  0.9255  0.7993
  967MOL0     H30518   9.836   2.073   9.631 -0.7006 -0.8007  0.2409
  967MOL0     H30519   9.611   2.014   9.709  1.3931 -0.3188 -0.7139
  967MOL0     H30520   9.548   2.171   9.667 -0.9290  1.5311 -2.1825
  967MOL0     H30521   9.666   1.951   9.477  0.2146  0.3706 -1.5646
  967MOL0     H30522   9.596   2.116   9.434 -4.5096  0.0387  0.4265
  967MOL0     H30523   9.450   1.863   9.526  1.0422 -2.1188 -0.9476
  967MOL0     H30524   9.375   2.018   9.534  0.6045  2.2098 -1.2410
  967MOL0     H30525   9.639   2.853   9.274 -0.7786  4.2143 -0.6427
  967MOL0     H30526   9.435   2.977   9.182 -0.9582 -2.5816 -1.4435
  967MOL0     H30527   9.119   3.340   9.278 -0.7907 -0.3863 -2.0839
  967MOL0     H30528   8.915   3.456   9.247  2.0265  1.0161 -0.9308
  967MOL0     H30529   8.002   4.863  10.162  0.2335  0.7994  1.2367
  967MOL0     H30530   7.995   4.816  10.424 -0.9235 -1.6898 -0.5874
  967MOL0     H30531   8.361   4.560  10.662  0.6405 -0.9575 -1.1778
  967MOL0     H30532   8.444   4.504  10.910 -1.3972 -1.7857  2.8507
  967MOL0     H30533   8.140   4.320  11.197 -6.0617  2.4272  1.0604
  967MOL0     H30534   8.100   4.476  11.150 -2.6239 -1.7480  1.6539
  967MOL0     H30535   8.151   4.496  11.377 -1.5128 -4.3264  0.4214
  967MOL0     H30536   8.271   4.580  11.286 -1.6048  0.1166 -1.2242
  967MOL0     H30537   8.381   4.444  11.472 -2.9982 -0.2318  1.3596
  967MOL0     H30538   8.431   4.401  11.320  0.2052  3.0777  1.6183
  967MOL0     H30539   8.286   4.207  11.303  2.3614  1.8387 -1.6285
  967MOL0     H30540   8.394   4.194  11.442  0.5539  1.6668 -0.2525
  967MOL0     H30541   8.001   4.201  11.611  0.9625 -4.7342  0.0092
  967MOL0     H30542   8.058   4.336  10.985 -2.8999 -1.0418 -3.5315
  967MOL0     H30543   7.886   4.472  10.734 -0.6622 -1.9796 -0.7602
  967MOL0     H30544   7.950   4.315  10.662  1.8847 -0.5174  0.7014
  967MOL0     H30545   7.886   4.346  10.831 -0.6437  0.7790  0.7733
  968MOL0     O30546   9.244   0.997   6.330  0.0533  0.1673 -0.1316
  968MOL0     C30547   9.170   0.969   6.237  1.4528 -0.8081 -0.1038
  968MOL0     O30548   9.158   0.849   6.174  0.1893 -0.2344 -1.1053
  968MOL0     C30549   9.220   0.746   6.237 -0.4488 -0.9756  0.3709
  968MOL0     C30550   9.169   0.701   6.359  0.0059 -0.1045 -0.2063
  968MOL0     C30551   9.247   0.611   6.429 -0.7565 -0.6823 -0.0412
  968MOL0     C30552   9.362   0.553   6.375  0.2222  0.4426 -0.2435
  968MOL0     O30553   9.420   0.458   6.445  0.0533  0.1205  0.5024
  968MOL0     C30554   9.470   0.344   6.373 -0.3783  1.1817 -0.2143
  968MOL0     C30555   9.618   0.307   6.399 -0.1895 -0.2924 -0.6085
  968MOL0     C30556   9.703   0.407   6.321  0.2514 -0.2551 -1.3234
  968MOL0     C30557   9.849   0.377   6.352 -0.3316 -0.6399 -0.2695
  968MOL0     C30558   9.926   0.511   6.338  0.8923 -0.1795 -0.0894
  968MOL0     C30559  10.082   0.511   6.382 -0.2096  0.1442 -0.6908
  968MOL0     C30560  10.156   0.386   6.334 -0.2057  1.3408  0.5117
  968MOL0     C30561  10.312   0.377   6.370 -0.1120  0.1408  0.2855
  968MOL0     N30562  10.370   0.360   6.506  0.7030  0.2610 -0.2265
  968MOL0     C30563  10.323   0.291   6.613 -0.4998  0.9181  0.0721
  968MOL0     C30564  10.404   0.321   6.712 -0.6084  0.1951 -1.3225
  968MOL0     C30565  10.401   0.251   6.842 -0.4411 -0.1122  0.4989
  968MOL0     C30566  10.540   0.180   6.863 -0.8083 -0.0379 -0.4075
  968MOL0     C30567  10.568   0.066   6.757 -1.1409 -0.1692  0.0166
  968MOL0     C30568  10.651  -0.042   6.828 -0.2404 -0.3594  0.2457
  968MOL0     O30569  10.660  -0.150   6.732  0.6377 -0.4350 -0.8204
  968MOL0     C30570  10.681  -0.278   6.778  0.7266 -0.0205  0.5757
  968MOL0     C30571  10.762  -0.307   6.882 -0.0745  0.4775 -0.6962
  968MOL0     C30572  10.782  -0.440   6.920 -0.2537 -0.6446 -0.2348
  968MOL0     C30573  10.729  -0.544   6.832  0.0690  0.3428 -0.1479
  968MOL0     C30574  10.735  -0.686   6.879  0.1276 -0.0930 -0.7734
  968MOL0     O30575  10.836  -0.723   6.949  0.4235  0.3430  0.4106
  968MOL0     C30576  10.905  -0.824   6.911 -0.2844 -0.2050  0.2645
  968MOL0     C30577  10.914  -0.941   6.984 -0.4142  0.3503  0.2683
  968MOL0     C30578  10.981  -1.048   6.938  0.7256  0.6769  0.7943
  968MOL0     C30579  11.047  -1.050   6.819  0.8366 -1.4051  0.6498
  968MOL0     O30580  11.098  -1.170   6.770 -1.2543  0.5268 -0.9387
  968MOL0     C30581  11.150  -1.190   6.637  0.1456 -0.4357 -0.4817
  968MOL0     C30582  11.238  -1.307   6.654  0.1341 -0.4181 -0.2453
  968MOL0     C30583  11.303  -1.362   6.524  0.7476 -0.4858 -0.7541
  968MOL0     C30584  11.199  -1.379   6.413  0.3914  0.1919 -0.0799
  968MOL0     C30585  11.242  -1.445   6.277  0.4538 -0.3118 -0.5978
  968MOL0     C30586  11.132  -1.450   6.175  0.2069 -1.1865 -0.1210
  968MOL0     C30587  11.033  -1.552   6.228  0.2860 -0.2946 -1.1129
  968MOL0     C30588  10.919  -1.563   6.130  0.4223 -0.9134 -1.3802
  968MOL0    Cl30589  10.963  -1.631   5.969  0.3761 -0.2939 -0.5923
  968MOL0     C30590  11.041  -0.929   6.742  0.8428  1.7405  0.3647
  968MOL0     C30591  10.971  -0.823   6.791  0.0150 -0.8068  0.2741
  968MOL0     O30592  10.647  -0.764   6.852 -0.2662 -0.4070  0.2614
  968MOL0     C30593  10.655  -0.507   6.722 -0.0597  0.6052  1.0456
  968MOL0     C30594  10.624  -0.376   6.698  0.3182  1.4437 -0.6128
  968MOL0     N30595  10.494   0.422   6.674  1.0562 -0.8119 -0.8836
  968MOL0     N30596  10.475   0.440   6.547 -0.2737  0.5440 -0.3912
  968MOL0     C30597   9.401   0.589   6.246 -0.1004  0.0007  1.2858
  968MOL0     C30598   9.338   0.698   6.183  0.9111 -0.8449  0.4387
  968MOL0     C30599   9.084   1.088   6.185 -0.3651  0.0945 -0.7078
  968MOL0     C30600   9.157   1.193   6.145  0.1014  0.2551  0.1773
  968MOL0     C30601   9.097   1.308   6.097  0.5117 -0.1733 -0.3803
  968MOL0     C30602   8.955   1.317   6.088  0.4855  0.3270 -0.2238
  968MOL0     O30603   8.915   1.439   6.029  0.1919  0.1487 -0.0485
  968MOL0     C30604   8.773   1.458   6.002  0.3896  0.1612 -0.3329
  968MOL0     C30605   8.682   1.516   6.111  0.8273  0.0155 -0.4167
  968MOL0     C30606   8.534   1.536   6.063  0.0071 -0.7098  0.4446
  968MOL0     C30607   8.428   1.514   6.162  0.6468  0.0646  0.2058
  968MOL0     C30608   8.385   1.384   6.196 -0.4456 -1.0209  0.1049
  968MOL0     C30609   8.375   1.274   6.236 -0.5177  0.6636  0.3558
  968MOL0     C30610   8.881   1.214   6.132 -0.0481 -0.5657 -0.7839
  968MOL0     C30611   8.942   1.097   6.193  0.7058 -0.1760  0.2586
  968MOL0     C30612   8.864   0.973   6.234 -0.8002 -0.1777 -0.5978
  968MOL0     H30613   9.087   0.748   6.413 -1.0549 -0.9668 -1.0297
  968MOL0     H30614   9.213   0.596   6.531  0.2052  4.0429  1.1797
  968MOL0     H30615   9.421   0.261   6.424  3.9728  0.0091  2.6513
  968MOL0     H30616   9.449   0.329   6.267  0.4841 -0.0044 -0.2423
  968MOL0     H30617   9.640   0.206   6.364 -0.8908 -0.1361 -1.5206
  968MOL0     H30618   9.640   0.317   6.506  1.7340 -0.9126 -0.9013
  968MOL0     H30619   9.681   0.509   6.354  3.4367 -0.0458  0.6325
  968MOL0     H30620   9.694   0.401   6.212 -0.0678  1.8136 -1.4538
  968MOL0     H30621   9.862   0.322   6.445  0.8663 -2.8101 -1.6274
  968MOL0     H30622   9.878   0.309   6.272 -1.1698 -1.9199  0.4731
  968MOL0     H30623   9.929   0.549   6.235 -0.1401  0.5239  0.1320
  968MOL0     H30624   9.873   0.586   6.396 -0.1890 -2.3726  1.9273
  968MOL0     H30625  10.127   0.596   6.332 -0.2532  0.1845 -0.6619
  968MOL0     H30626  10.107   0.515   6.489 -1.3614  0.6051 -0.4220
  968MOL0     H30627  10.149   0.389   6.225  0.0531 -2.0511  0.2996
  968MOL0     H30628  10.111   0.290   6.362  0.2689  0.6007 -1.1452
  968MOL0     H30629  10.359   0.295   6.315 -0.9365 -2.1530  2.7704
  968MOL0     H30630  10.354   0.472   6.337 -0.3389  1.2381  2.9087
  968MOL0     H30631  10.255   0.206   6.618  1.5370 -0.8011  0.0307
  968MOL0     H30632  10.374   0.324   6.919 -2.9689  0.3212 -0.6896
  968MOL0     H30633  10.322   0.176   6.828  0.9648 -2.1756  2.6136
  968MOL0     H30634  10.620   0.255   6.865 -0.6665  0.0253  4.7870
  968MOL0     H30635  10.517   0.131   6.958 -0.9708 -3.5423 -2.0816
  968MOL0     H30636  10.627   0.112   6.677  2.7491 -0.6888  2.3049
  968MOL0     H30637  10.479   0.010   6.726 -2.2422  0.8715  1.1907
  968MOL0     H30638  10.599  -0.071   6.919 -1.5719  1.1245  0.0159
  968MOL0     H30639  10.754  -0.011   6.847 -0.5940  0.9745  0.1286
  968MOL0     H30640  10.797  -0.233   6.953 -0.7063 -0.8507  1.0654
  968MOL0     H30641  10.849  -0.462   7.002 -0.2541  2.2049  0.6310
  968MOL0     H30642  10.851  -0.971   7.067  2.9572 -1.2225  2.4388
  968MOL0     H30643  11.002  -1.146   6.980  2.5201  0.3678 -0.6561
  968MOL0     H30644  11.066  -1.209   6.570 -1.0703  0.1727  0.8362
  968MOL0     H30645  11.216  -1.109   6.603  1.5180 -1.7010 -0.9337
  968MOL0     H30646  11.322  -1.282   6.719  0.6550  1.4464 -1.5852
  968MOL0     H30647  11.184  -1.394   6.694  2.3968 -0.4011  3.2998
  968MOL0     H30648  11.380  -1.294   6.486 -1.5308  1.9012 -1.3783
  968MOL0     H30649  11.357  -1.452   6.558  1.4111  1.4487  4.1040
  968MOL0     H30650  11.172  -1.276   6.385 -0.3504 -0.1977 -0.8397
  968MOL0     H30651  11.102  -1.420   6.443  0.0540  0.2838 -0.9987
  968MOL0     H30652  11.279  -1.545   6.302 -3.2085 -2.0401 -1.3949
  968MOL0     H30653  11.322  -1.381   6.239 -0.7464  0.8502 -1.2482
  968MOL0     H30654  11.099  -1.346   6.168  1.1505 -0.4836  3.7276
  968MOL0     H30655  11.174  -1.496   6.085 -1.4339 -5.8686  1.2181
  968MOL0     H30656  10.993  -1.533   6.328  0.3382 -0.5534 -1.0414
  968MOL0     H30657  11.094  -1.642   6.238  2.8937  1.4586 -0.2524
  968MOL0     H30658  10.859  -1.643   6.173  0.3780 -1.0560 -1.7017
  968MOL0     H30659  10.867  -1.466   6.133  3.9571  1.2161  3.0895
  968MOL0     H30660  11.112  -0.919   6.661  1.2728 -0.2739  0.4567
  968MOL0     H30661  10.980  -0.732   6.732 -1.6182  1.2125  2.8907
  968MOL0     H30662  10.606  -0.578   6.656  1.1460  1.3293 -0.7035
  968MOL0     H30663  10.602  -0.344   6.597  2.9556  1.0791 -1.3756
  968MOL0     H30664   9.489   0.534   6.213  0.8627  1.1543  1.8536
  968MOL0     H30665   9.384   0.720   6.087  0.5696 -0.8589  0.2679
  968MOL0     H30666   9.265   1.186   6.153  0.3547 -2.9716 -3.2149
  968MOL0     H30667   9.161   1.393   6.073 -1.0844  1.9341  2.2557
  968MOL0     H30668   8.729   1.369   5.955  0.6089  1.0746 -2.3727
  968MOL0     H30669   8.780   1.521   5.913  0.3401 -1.5622 -1.6186
  968MOL0     H30670   8.728   1.615   6.118  1.2995 -0.0242 -2.3905
  968MOL0     H30671   8.681   1.444   6.193  0.8275 -0.6460 -0.9936
  968MOL0     H30672   8.521   1.471   5.976 -0.6952  1.0016 -0.7887
  968MOL0     H30673   8.518   1.637   6.024  1.5718 -1.7886 -3.5318
  968MOL0     H30674   8.470   1.543   6.259  0.5688  0.6642  0.0635
  968MOL0     H30675   8.334   1.567   6.147  3.0617  3.8269 -4.2267
  968MOL0     H30676   8.362   1.172   6.267 -1.0705  0.3925 -0.7448
  968MOL0     H30677   8.775   1.233   6.147  0.4308  2.3971 -0.6406
  968MOL0     H30678   8.757   0.991   6.241 -0.7548 -0.3706  1.0380
  968MOL0     H30679   8.864   0.891   6.161 -2.3262  1.8308 -3.0273
  968MOL0     H30680   8.884   0.933   6.334 -0.4099 -3.5940 -1.9141
  969MOL0     O30681   0.323   1.420   0.696 -0.1990 -0.7949  0.7285
  969MOL0     C30682   0.271   1.482   0.603  0.9284  0.2971  0.7971
  969MOL0     O30683   0.321   1.605   0.564 -0.7134 -0.1135 -0.7522
  969MOL0     C30684   0.424   1.652   0.652  1.0479  0.4616  0.4083
  969MOL0     C30685   0.556   1.621   0.638  0.2840 -0.1311 -0.1879
  969MOL0     C30686   0.652   1.667   0.735  0.1873  0.0221  0.0878
  969MOL0     C30687   0.616   1.772   0.826 -0.0180  0.2871 -0.6135
  969MOL0     O30688   0.697   1.831   0.922 -0.0098  0.2006 -0.1859
  969MOL0     C30689   0.821   1.775   0.941  0.2403  0.2079  1.0879
  969MOL0     C30690   0.904   1.863   1.029 -0.7107 -0.7242 -0.3298
  969MOL0     C30691   0.940   2.003   0.977  0.1457 -0.4222 -0.0910
  969MOL0     C30692   0.990   1.995   0.830 -0.8895 -0.2898 -0.5595
  969MOL0     C30693   1.028   2.135   0.772 -0.3536  0.0463  0.2800
  969MOL0     C30694   1.075   2.103   0.625 -0.3953 -0.1010  0.4978
  969MOL0     C30695   1.232   2.099   0.638 -0.3227  0.4769  0.8826
  969MOL0     C30696   1.270   2.093   0.482 -0.4821 -0.3900 -0.4257
  969MOL0     N30697   1.394   2.008   0.467 -0.0691  0.1314 -1.0595
  969MOL0     C30698   1.491   2.014   0.376 -1.5780 -0.2566  1.0284
  969MOL0     C30699   1.561   1.896   0.377  0.0960  0.0081 -0.2700
  969MOL0     C30700   1.662   1.833   0.284 -0.2335  0.3178  1.2173
  969MOL0     C30701   1.599   1.765   0.158 -0.1904 -0.6541 -0.4312
  969MOL0     C30702   1.712   1.668   0.109  0.2625  0.6386 -0.1422
  969MOL0     C30703   1.676   1.601  -0.025  0.9587  1.1790  0.2744
  969MOL0     O30704   1.745   1.664  -0.135  0.0354  1.1736 -0.6031
  969MOL0     C30705   1.697   1.639  -0.257  0.6232  0.0436 -0.3085
  969MOL0     C30706   1.784   1.684  -0.348  0.0579  0.3992  0.4951
  969MOL0     C30707   1.761   1.654  -0.483  0.1215 -0.7876 -0.2727
  969MOL0     C30708   1.649   1.592  -0.524  0.7895  0.9644  0.0762
  969MOL0     C30709   1.631   1.559  -0.667  0.2361 -0.2048  0.2385
  969MOL0     O30710   1.719   1.618  -0.755  0.3191  0.8354  0.5174
  969MOL0     C30711   1.696   1.574  -0.888  0.0823 -0.5676 -1.1147
  969MOL0     C30712   1.594   1.641  -0.962  0.6641 -0.0043 -0.4462
  969MOL0     C30713   1.572   1.611  -1.097 -0.0895 -0.0810  0.0904
  969MOL0     C30714   1.661   1.522  -1.170 -0.4641 -0.2359 -0.2969
  969MOL0     O30715   1.657   1.484  -1.305  0.0202  0.0076 -0.3196
  969MOL0     C30716   1.529   1.489  -1.362  0.6908 -0.4984 -0.4426
  969MOL0     C30717   1.440   1.364  -1.313 -0.6461 -0.5359 -0.4760
  969MOL0     C30718   1.299   1.394  -1.355 -0.6154 -0.4008 -0.8417
  969MOL0     C30719   1.245   1.311  -1.462 -0.2945 -0.1825  0.8211
  969MOL0     C30720   1.290   1.344  -1.604 -0.4967  0.8480  0.1318
  969MOL0     C30721   1.211   1.274  -1.715 -0.1268 -0.3856 -0.0801
  969MOL0     C30722   1.212   1.339  -1.847 -0.1590  0.7908  0.6328
  969MOL0     C30723   1.169   1.265  -1.980  0.0676 -0.1454 -0.6504
  969MOL0    Cl30724   1.255   1.098  -1.980  0.4225  0.5529 -0.0493
  969MOL0     C30725   1.767   1.464  -1.092  0.2286 -0.3082  0.8564
  969MOL0     C30726   1.771   1.479  -0.954 -0.5524  0.0545 -0.1510
  969MOL0     O30727   1.542   1.477  -0.690 -0.5276 -0.3023 -0.5470
  969MOL0     C30728   1.553   1.557  -0.429 -0.3816 -0.1527  0.6688
  969MOL0     C30729   1.571   1.574  -0.296 -0.7130  0.1720  0.7215
  969MOL0     N30730   1.509   1.816   0.476  0.1030 -0.6760  0.8057
  969MOL0     N30731   1.409   1.885   0.525 -0.3165 -0.3400 -0.0351
  969MOL0     C30732   0.480   1.811   0.832  0.1757  0.2674  0.9546
  969MOL0     C30733   0.381   1.746   0.753  0.6228  0.5173  0.2633
  969MOL0     C30734   0.170   1.421   0.521 -0.1702 -0.7845  0.4043
  969MOL0     C30735   0.100   1.505   0.437  0.2250 -0.3358  0.5896
  969MOL0     C30736  -0.008   1.461   0.367  0.7071 -0.3485  0.8793
  969MOL0     C30737  -0.040   1.330   0.361 -0.5454  0.8679 -0.3070
  969MOL0     O30738  -0.134   1.281   0.284 -0.5209 -0.0693  0.0708
  969MOL0     C30739  -0.219   1.182   0.330 -0.3945  0.5118 -0.4443
  969MOL0     C30740  -0.347   1.162   0.237  0.3528  0.0560  0.0634
  969MOL0     C30741  -0.302   1.108   0.106 -0.7517  0.7032 -0.1316
  969MOL0     C30742  -0.404   1.079  -0.001  0.4240 -0.2569 -0.4140
  969MOL0     C30743  -0.467   0.942   0.024 -0.9011  0.1284  0.6271
  969MOL0     C30744  -0.522   0.833   0.049  0.7318  0.1300  1.4178
  969MOL0     C30745   0.046   1.247   0.436 -0.2139  0.5818 -0.5808
  969MOL0     C30746   0.149   1.280   0.523  0.7312 -0.0644  1.0472
  969MOL0     C30747   0.222   1.178   0.603 -1.1727 -1.1549 -0.1036
  969MOL0     H30748   0.593   1.553   0.562  0.6841  1.1335 -1.1594
  969MOL0     H30749   0.752   1.624   0.733 -0.2320 -1.0119  0.3602
  969MOL0     H30750   0.805   1.676   0.985 -1.1603 -0.1150 -0.0803
  969MOL0     H30751   0.880   1.762   0.849  0.2856  2.5406  0.7345
  969MOL0     H30752   1.000   1.819   1.058  0.3496  0.8011 -1.3694
  969MOL0     H30753   0.848   1.872   1.123 -0.0116 -1.7494  0.1997
  969MOL0     H30754   1.015   2.040   1.048  0.9994  1.9352 -2.0965
  969MOL0     H30755   0.859   2.077   0.980  1.5715  1.1830 -0.0327
  969MOL0     H30756   1.078   1.930   0.822  1.2980  2.3601  0.2788
  969MOL0     H30757   0.904   1.951   0.780 -2.6151  0.4246  1.6166
  969MOL0     H30758   0.952   2.214   0.764  0.6869  0.9481 -1.3610
  969MOL0     H30759   1.114   2.174   0.828 -1.2710  0.2677  1.5618
  969MOL0     H30760   1.024   2.017   0.581  2.6010 -2.2420  0.9904
  969MOL0     H30761   1.042   2.191   0.568  0.5127 -0.9249 -1.3913
  969MOL0     H30762   1.249   2.007   0.695 -0.7606 -0.3359 -0.2698
  969MOL0     H30763   1.278   2.185   0.688 -1.3131  1.6933 -0.2058
  969MOL0     H30764   1.193   2.052   0.416 -0.1056  0.4022 -1.3734
  969MOL0     H30765   1.289   2.197   0.455  2.5695 -0.9551 -0.8786
  969MOL0     H30766   1.497   2.091   0.300 -2.3103 -1.2309 -0.0561
  969MOL0     H30767   1.726   1.910   0.241  0.9232 -1.0788  0.3325
  969MOL0     H30768   1.730   1.768   0.339 -1.4082 -0.0225  2.3295
  969MOL0     H30769   1.519   1.700   0.195  0.7905 -2.9812 -2.2290
  969MOL0     H30770   1.571   1.855   0.101  0.5218  0.6419  1.1747
  969MOL0     H30771   1.725   1.589   0.183  0.3546 -1.5477 -2.3490
  969MOL0     H30772   1.799   1.730   0.085 -0.9385  2.0932 -0.8286
  969MOL0     H30773   1.568   1.610  -0.041  0.6693 -1.9173 -0.1149
  969MOL0     H30774   1.674   1.493  -0.013 -2.0449  1.1687  0.2882
  969MOL0     H30775   1.880   1.727  -0.320 -0.5256  1.6634  0.6039
  969MOL0     H30776   1.845   1.681  -0.546 -1.7120  1.4848 -1.9733
  969MOL0     H30777   1.531   1.702  -0.898  2.4377  0.4945  0.9274
  969MOL0     H30778   1.487   1.653  -1.150 -1.2358  0.0892  1.9774
  969MOL0     H30779   1.477   1.581  -1.333 -0.3008 -1.1450 -0.1248
  969MOL0     H30780   1.524   1.489  -1.471  1.5871 -1.9995 -0.5106
  969MOL0     H30781   1.488   1.271  -1.345  1.7667  0.5089 -0.0695
  969MOL0     H30782   1.443   1.351  -1.204  0.5803 -0.2295 -0.4563
  969MOL0     H30783   1.239   1.378  -1.265  0.2722 -1.0365 -0.3491
  969MOL0     H30784   1.286   1.499  -1.385  1.4915  0.0872 -0.1835
  969MOL0     H30785   1.137   1.322  -1.473  0.1245  2.9825 -1.2717
  969MOL0     H30786   1.280   1.209  -1.440  1.0996  0.1179  0.1286
  969MOL0     H30787   1.397   1.321  -1.609 -0.0389  3.0277 -1.1593
  969MOL0     H30788   1.282   1.453  -1.604  4.8673  1.5586  1.2518
  969MOL0     H30789   1.249   1.172  -1.715 -0.7532 -0.6297  0.5978
  969MOL0     H30790   1.109   1.260  -1.678  0.2177 -1.4356  0.5217
  969MOL0     H30791   1.313   1.370  -1.875  2.0943 -7.4348 -3.4638
  969MOL0     H30792   1.151   1.429  -1.838  0.1773  1.2241 -1.1814
  969MOL0     H30793   1.062   1.255  -1.998  0.4705 -0.8538 -2.9776
  969MOL0     H30794   1.203   1.318  -2.069 -1.6762  1.1785 -0.5760
  969MOL0     H30795   1.837   1.409  -1.154 -1.4896 -1.6807  0.0266
  969MOL0     H30796   1.845   1.427  -0.894 -2.4639 -0.5636  1.8001
  969MOL0     H30797   1.459   1.520  -0.468 -0.5847  3.0000 -2.3066
  969MOL0     H30798   1.500   1.527  -0.228  0.2630 -0.5043  1.2970
  969MOL0     H30799   0.454   1.891   0.902 -0.8306  1.4753 -0.7187
  969MOL0     H30800   0.280   1.784   0.739  0.9316  1.7451  1.1696
  969MOL0     H30801   0.123   1.611   0.444 -1.2764 -0.0458  1.4633
  969MOL0     H30802  -0.073   1.528   0.312  1.7195  1.3713  1.6951
  969MOL0     H30803  -0.257   1.215   0.427  0.3192  3.6587 -1.1082
  969MOL0     H30804  -0.175   1.083   0.342  1.5834  1.6305  2.8073
  969MOL0     H30805  -0.392   1.261   0.224  0.0710 -0.2907 -2.0979
  969MOL0     H30806  -0.422   1.097   0.284 -0.6991  0.9334 -0.3544
  969MOL0     H30807  -0.253   1.013   0.132 -0.6290 -0.3275 -3.5955
  969MOL0     H30808  -0.233   1.181   0.064 -0.2975  0.3291 -0.0532
  969MOL0     H30809  -0.481   1.157   0.005 -0.5834 -0.9127 -3.1919
  969MOL0     H30810  -0.364   1.074  -0.103 -0.1648 -1.7755 -0.5855
  969MOL0     H30811  -0.573   0.742   0.074  0.2625 -0.6678 -1.8600
  969MOL0     H30812   0.038   1.139   0.432 -1.9275  0.6329  0.4771
  969MOL0     H30813   0.330   1.181   0.585 -1.0481  2.9646  0.3816
  969MOL0     H30814   0.193   1.188   0.707  4.4650  0.2399  1.6652
  969MOL0     H30815   0.190   1.075   0.582 -0.0533 -1.3560 -0.9047
  970MOL0     O30816   1.131   4.264   3.068 -0.2449  0.2921 -0.1866
  970MOL0     C30817   1.239   4.212   3.087 -0.1944 -0.3756 -0.6245
  970MOL0     O30818   1.323   4.167   2.985  0.5171  1.3694 -0.1140
  970MOL0     C30819   1.267   4.195   2.860  0.0518  0.2344 -0.5921
  970MOL0     C30820   1.199   4.099   2.796  0.7802  0.4776  1.3980
  970MOL0     C30821   1.161   4.111   2.663  0.1465 -0.1781  1.1095
  970MOL0     C30822   1.183   4.225   2.603 -0.1518  1.0152  0.0880
  970MOL0     O30823   1.141   4.218   2.475 -0.2777 -0.4035  0.8183
  970MOL0     C30824   1.245   4.266   2.390  0.6694  0.5772 -1.1906
  970MOL0     C30825   1.204   4.278   2.245 -0.2237 -0.0523 -0.2492
  970MOL0     C30826   1.065   4.346   2.231  0.2596 -0.3336 -0.3017
  970MOL0     C30827   1.054   4.490   2.277 -0.7530 -0.4194  0.2982
  970MOL0     C30828   0.953   4.560   2.193 -0.3483  0.2728 -0.7040
  970MOL0     C30829   0.938   4.710   2.227 -0.3241 -0.1638 -1.4159
  970MOL0     C30830   0.829   4.731   2.335  0.2965 -0.2038  0.1177
  970MOL0     C30831   0.780   4.875   2.329  0.8352 -0.2397  0.5026
  970MOL0     N30832   0.632   4.890   2.330  1.0027 -0.6046 -0.5829
  970MOL0     C30833   0.563   4.876   2.447  0.7553 -0.1662 -0.1948
  970MOL0     C30834   0.435   4.876   2.410 -0.2941 -0.5846  1.0032
  970MOL0     C30835   0.311   4.834   2.488 -0.0952 -0.2183  0.7055
  970MOL0     C30836   0.168   4.868   2.426 -0.3320 -0.7511  0.4864
  970MOL0     C30837   0.121   4.781   2.309  0.5152 -0.5570 -0.3141
  970MOL0     C30838   0.079   4.636   2.345 -0.4294  0.4615 -0.1773
  970MOL0     O30839  -0.008   4.637   2.455 -0.5272  0.3738 -1.0206
  970MOL0     C30840  -0.105   4.540   2.479  0.0450 -0.2838  1.1928
  970MOL0     C30841  -0.139   4.437   2.393  0.0119 -0.0463 -0.1781
  970MOL0     C30842  -0.234   4.346   2.427 -0.2634  0.1731  0.1815
  970MOL0     C30843  -0.309   4.372   2.537  0.3974 -0.6912  1.0340
  970MOL0     C30844  -0.399   4.271   2.589 -0.0359 -0.0587  0.6525
  970MOL0     O30845  -0.442   4.284   2.718 -0.1210  0.0204 -0.6996
  970MOL0     C30846  -0.431   4.181   2.802 -0.7055 -0.2892 -0.5408
  970MOL0     C30847  -0.504   4.202   2.919  0.6511  0.2263  0.8478
  970MOL0     C30848  -0.506   4.107   3.017  0.4811  0.7581  0.0171
  970MOL0     C30849  -0.434   3.987   3.004  0.5829 -0.2010  0.5536
  970MOL0     O30850  -0.435   3.880   3.092  0.0781 -0.3627  1.4124
  970MOL0     C30851  -0.527   3.872   3.201 -0.2901 -0.3188  0.8354
  970MOL0     C30852  -0.493   3.756   3.289  0.1488  0.2528  0.0090
  970MOL0     C30853  -0.569   3.762   3.417  0.6103  0.7200  0.0711
  970MOL0     C30854  -0.723   3.754   3.394  0.1767 -0.2672  0.1493
  970MOL0     C30855  -0.806   3.731   3.531 -0.5221  0.1521 -0.2586
  970MOL0     C30856  -0.947   3.783   3.522 -0.5870  0.2401  0.4232
  970MOL0     C30857  -1.043   3.704   3.425  1.0075 -0.1385  0.6639
  970MOL0     C30858  -1.091   3.563   3.450 -1.0036  0.3773 -0.9105
  970MOL0    Cl30859  -0.981   3.449   3.375  0.0694  0.1886 -0.1860
  970MOL0     C30860  -0.354   3.972   2.893  0.3139 -1.4245  0.7915
  970MOL0     C30861  -0.345   4.061   2.787  0.0290 -0.4493 -0.7885
  970MOL0     O30862  -0.438   4.179   2.517  0.3472 -0.4843 -0.3764
  970MOL0     C30863  -0.270   4.474   2.630  0.7216 -0.6022  0.5558
  970MOL0     C30864  -0.170   4.558   2.598 -0.4834 -0.6667  0.3220
  970MOL0     N30865   0.434   4.886   2.272 -0.5939  0.2339  0.9316
  970MOL0     N30866   0.551   4.895   2.217  1.2173  1.0124 -0.9141
  970MOL0     C30867   1.257   4.324   2.666  0.6261  0.5130  0.1997
  970MOL0     C30868   1.296   4.310   2.796 -0.7169 -0.5901 -0.1346
  970MOL0     C30869   1.284   4.197   3.229  0.5444  0.2170  0.2421
  970MOL0     C30870   1.189   4.218   3.324  0.0977 -0.4852  1.0526
  970MOL0     C30871   1.218   4.213   3.464 -0.3715 -1.1997 -0.3486
  970MOL0     C30872   1.343   4.171   3.508  0.2549  0.2384 -1.2498
  970MOL0     O30873   1.343   4.170   3.649  0.6374  1.1845  0.2648
  970MOL0     C30874   1.422   4.062   3.715 -0.3990  0.0719 -0.0261
  970MOL0     C30875   1.535   4.113   3.808  0.4612 -0.2728 -0.5279
  970MOL0     C30876   1.616   3.997   3.856 -0.2988 -0.1631 -0.8852
  970MOL0     C30877   1.682   4.022   3.997 -0.0560 -0.8742 -0.2997
  970MOL0     C30878   1.777   4.136   3.993 -0.6531  0.2649  0.0281
  970MOL0     C30879   1.866   4.219   3.970  0.6491 -0.7582 -0.2949
  970MOL0     C30880   1.444   4.147   3.417 -0.4953 -0.2466  0.2550
  970MOL0     C30881   1.414   4.148   3.275 -0.7642 -0.1516 -0.2721
  970MOL0     C30882   1.523   4.113   3.180  0.2234 -0.1293 -1.0250
  970MOL0     H30883   1.178   3.999   2.833 -2.7060  0.4141 -0.4022
  970MOL0     H30884   1.117   4.020   2.624  1.5163  0.3238 -1.8415
  970MOL0     H30885   1.282   4.366   2.415 -0.8936  0.6640  1.0632
  970MOL0     H30886   1.326   4.193   2.400 -0.9202 -1.1009  0.0865
  970MOL0     H30887   1.201   4.179   2.200  0.2445 -0.4927  0.6499
  970MOL0     H30888   1.284   4.337   2.198  0.4711 -1.1863 -0.5246
  970MOL0     H30889   0.987   4.283   2.274 -1.6282  1.5033 -0.8808
  970MOL0     H30890   1.027   4.344   2.128  0.7012 -1.2833 -0.4561
  970MOL0     H30891   1.026   4.500   2.382 -3.3202 -2.7371 -0.0598
  970MOL0     H30892   1.155   4.531   2.271 -1.5317  1.5390 -0.2118
  970MOL0     H30893   0.965   4.549   2.085  2.3367  0.1378 -0.4625
  970MOL0     H30894   0.859   4.506   2.209  0.2357 -0.3923  0.5936
  970MOL0     H30895   1.033   4.743   2.272  0.5404 -4.9464  0.9312
  970MOL0     H30896   0.910   4.767   2.138 -2.0696  0.6380 -0.4075
  970MOL0     H30897   0.881   4.718   2.430  1.4125  2.4956 -0.0388
  970MOL0     H30898   0.748   4.661   2.314  0.9844 -0.7708 -0.7031
  970MOL0     H30899   0.835   4.942   2.395  0.8210 -0.0275  0.2987
  970MOL0     H30900   0.803   4.919   2.232  0.5298 -1.7324 -0.2801
  970MOL0     H30901   0.607   4.856   2.544  3.2528  1.9768 -0.7771
  970MOL0     H30902   0.321   4.726   2.505  0.6966 -0.3488 -0.4094
  970MOL0     H30903   0.320   4.882   2.585  0.6739  3.2755 -0.9414
  970MOL0     H30904   0.095   4.884   2.505 -3.5452  0.6220 -2.5090
  970MOL0     H30905   0.180   4.971   2.391 -0.3144 -0.9920 -0.2454
  970MOL0     H30906   0.200   4.781   2.233  2.7463  2.0332  1.7810
  970MOL0     H30907   0.026   4.816   2.266  1.1066  0.4911 -0.8144
  970MOL0     H30908   0.167   4.574   2.365 -1.6984 -2.3112 -2.4176
  970MOL0     H30909   0.036   4.602   2.250  0.6676 -1.1049 -0.1465
  970MOL0     H30910  -0.079   4.414   2.305 -0.6561 -2.9178  0.0268
  970MOL0     H30911  -0.239   4.266   2.353 -2.5698 -1.9352  2.4019
  970MOL0     H30912  -0.548   4.299   2.942  1.0178  0.4156  0.7672
  970MOL0     H30913  -0.562   4.123   3.109 -0.8165 -0.3984 -0.5258
  970MOL0     H30914  -0.515   3.962   3.263 -0.8845 -0.5871  1.3428
  970MOL0     H30915  -0.628   3.860   3.160  0.4619 -0.4497 -1.1205
  970MOL0     H30916  -0.531   3.673   3.229  2.1077 -1.2942  0.8007
  970MOL0     H30917  -0.386   3.753   3.310 -0.3489  3.6463  4.3393
  970MOL0     H30918  -0.553   3.673   3.479 -2.3816 -0.3929 -0.5720
  970MOL0     H30919  -0.551   3.859   3.464 -0.0814  0.6944  0.3975
  970MOL0     H30920  -0.765   3.676   3.329 -1.4493  1.4493 -0.9667
  970MOL0     H30921  -0.756   3.848   3.349 -0.8677 -1.3541 -1.5121
  970MOL0     H30922  -0.754   3.791   3.606 -0.0907  0.3778 -0.7386
  970MOL0     H30923  -0.796   3.629   3.570 -2.8625  1.3558  4.1057
  970MOL0     H30924  -0.990   3.759   3.620 -1.0068 -0.7373  0.0146
  970MOL0     H30925  -0.937   3.889   3.499  0.3002  0.2742  0.8872
  970MOL0     H30926  -1.006   3.716   3.322 -1.9764  1.7119 -0.3205
  970MOL0     H30927  -1.138   3.759   3.430 -0.3711 -2.1230 -1.6105
  970MOL0     H30928  -1.099   3.537   3.555  2.5884  0.8669 -0.3965
  970MOL0     H30929  -1.189   3.555   3.401 -2.5222 -1.7907  2.1694
  970MOL0     H30930  -0.297   3.879   2.885 -1.3067 -2.6090  2.4213
  970MOL0     H30931  -0.271   4.031   2.714  0.0615 -1.1706 -0.4669
  970MOL0     H30932  -0.331   4.491   2.718  1.0016 -0.6989  0.7696
  970MOL0     H30933  -0.152   4.646   2.658  2.1006  0.4786 -1.9350
  970MOL0     H30934   1.274   4.419   2.617  2.2255 -0.6055 -1.5497
  970MOL0     H30935   1.357   4.375   2.857 -0.3660 -2.5557  1.7512
  970MOL0     H30936   1.089   4.257   3.307  1.2875  3.1976  1.6299
  970MOL0     H30937   1.145   4.237   3.541  0.7199 -1.0788  0.6787
  970MOL0     H30938   1.457   3.994   3.637 -3.3437  0.8042 -2.1801
  970MOL0     H30939   1.356   3.994   3.769 -0.6600 -0.3409 -0.8423
  970MOL0     H30940   1.478   4.163   3.887 -2.2333 -0.7688 -2.0323
  970MOL0     H30941   1.601   4.188   3.764  1.2804  0.1982  1.4039
  970MOL0     H30942   1.694   3.961   3.789  0.0486 -2.8879  0.8604
  970MOL0     H30943   1.547   3.915   3.877  0.9497 -1.8786 -3.1324
  970MOL0     H30944   1.617   4.038   4.083 -0.0520 -0.0632 -0.4358
  970MOL0     H30945   1.754   3.941   4.013  0.1872 -0.2773  2.0038
  970MOL0     H30946   1.945   4.292   3.974  0.2669 -0.3667  2.7663
  970MOL0     H30947   1.547   4.127   3.445 -0.5336 -2.4587 -0.9913
  970MOL0     H30948   1.617   4.075   3.221  1.7665  2.7803 -1.5903
  970MOL0     H30949   1.479   4.041   3.110  0.7254 -1.8355  0.3512
  970MOL0     H30950   1.534   4.206   3.123 -0.6668  1.0177  0.5722
  971MOL0     O30951  10.390   4.006   2.053 -0.1170 -0.2116  0.6141
  971MOL0     C30952  10.268   4.024   2.075  0.8218  0.1664 -0.8028
  971MOL0     O30953  10.192   4.126   2.049 -0.6461 -0.2037 -0.1242
  971MOL0     C30954  10.222   4.212   1.952 -1.0873 -0.8368  0.0869
  971MOL0     C30955  10.299   4.191   1.836  0.4900  0.5861 -0.3491
  971MOL0     C30956  10.307   4.280   1.725 -0.4934  0.9454 -0.1009
  971MOL0     C30957  10.235   4.404   1.735 -0.3905  0.5205 -0.4310
  971MOL0     O30958  10.246   4.474   1.621 -1.2311  0.4437  0.6842
  971MOL0     C30959  10.197   4.605   1.621  0.3024 -0.1905 -0.0626
  971MOL0     C30960  10.217   4.690   1.498  0.1595  0.4393 -0.2377
  971MOL0     C30961  10.148   4.615   1.373 -0.3723 -0.3900 -1.0409
  971MOL0     C30962  10.194   4.681   1.248  0.0626 -0.4493  0.4112
  971MOL0     C30963  10.128   4.633   1.122 -0.9148 -0.0863 -0.0162
  971MOL0     C30964  10.166   4.481   1.089 -0.2246 -0.4354 -1.0391
  971MOL0     C30965  10.081   4.426   0.966  0.6595  0.3921  0.0986
  971MOL0     C30966  10.083   4.272   0.972 -0.1770 -0.0397 -1.0342
  971MOL0     N30967  10.065   4.214   0.840 -0.8088 -0.4774 -0.2808
  971MOL0     C30968  10.012   4.263   0.719 -0.0678  0.3524 -0.3554
  971MOL0     C30969  10.071   4.193   0.616 -0.4227 -0.5877  0.4293
  971MOL0     C30970  10.027   4.192   0.472 -0.2315 -0.6811 -0.9125
  971MOL0     C30971   9.880   4.142   0.456 -0.2853  0.0089 -0.3209
  971MOL0     C30972   9.841   4.145   0.309  0.2169  0.6523 -0.5271
  971MOL0     C30973   9.687   4.136   0.295  1.1780 -0.7359 -0.1586
  971MOL0     O30974   9.644   4.233   0.199  2.0295  0.7730 -0.6328
  971MOL0     C30975   9.628   4.367   0.241  1.0572  0.1202 -0.8047
  971MOL0     C30976   9.515   4.401   0.319 -0.6257  1.2282  0.2177
  971MOL0     C30977   9.489   4.532   0.339  0.4744 -0.5891 -0.5568
  971MOL0     C30978   9.577   4.636   0.307 -0.3936 -0.0183  0.6910
  971MOL0     C30979   9.557   4.772   0.344  1.3267 -0.8345 -0.2885
  971MOL0     O30980   9.600   4.875   0.266 -0.3949  1.0134 -0.1726
  971MOL0     C30981   9.574   4.996   0.307 -0.7104 -0.7823 -0.5743
  971MOL0     C30982   9.670   5.050   0.402  0.4440  0.7680  0.1246
  971MOL0     C30983   9.663   5.184   0.446  0.2233  0.3095 -0.8882
  971MOL0     C30984   9.558   5.268   0.397 -1.6168 -0.8849  0.7216
  971MOL0     O30985   9.535   5.400   0.418  0.3109 -0.1866  0.2395
  971MOL0     C30986   9.643   5.484   0.445 -0.5485 -0.3947 -0.0740
  971MOL0     C30987   9.649   5.515   0.590  0.1181  0.0148 -0.5153
  971MOL0     C30988   9.553   5.614   0.659 -0.2391  0.0347 -0.0592
  971MOL0     C30989   9.415   5.592   0.622  0.3536 -0.8938  0.7155
  971MOL0     C30990   9.317   5.699   0.674  0.5442 -0.4476 -0.5573
  971MOL0     C30991   9.277   5.684   0.829 -0.7356 -0.1962 -0.1197
  971MOL0     C30992   9.227   5.545   0.868  0.2958  0.3458  0.3408
  971MOL0     C30993   9.221   5.509   1.015  0.8347  0.2314 -0.0429
  971MOL0    Cl30994   9.376   5.563   1.090  0.3379  0.0695 -0.1121
  971MOL0     C30995   9.477   5.217   0.295 -0.6803  0.2032  0.0368
  971MOL0     C30996   9.491   5.085   0.250  0.6615  0.4322 -0.3196
  971MOL0     O30997   9.492   4.787   0.444  0.0214 -0.4044  0.5969
  971MOL0     C30998   9.682   4.607   0.221 -1.0004 -1.1963  0.3129
  971MOL0     C30999   9.698   4.470   0.184  0.7203 -0.5209 -0.2528
  971MOL0     N31000  10.146   4.087   0.674 -0.1046 -0.8530 -0.2418
  971MOL0     N31001  10.137   4.100   0.802  0.5289 -0.7957  0.0925
  971MOL0     C31002  10.166   4.432   1.849  0.1950  0.8229  0.1857
  971MOL0     C31003  10.151   4.336   1.948 -0.1971 -0.4894 -0.8298
  971MOL0     C31004  10.205   3.918   2.157 -0.1878  0.4937  0.3349
  971MOL0     C31005  10.155   3.935   2.286  0.7484  0.4522  0.4813
  971MOL0     C31006  10.090   3.829   2.345  0.9476  0.1276  0.3787
  971MOL0     C31007  10.071   3.702   2.289  0.7103 -0.0293 -0.5332
  971MOL0     O31008  10.009   3.606   2.362  0.7835  0.3211 -0.1275
  971MOL0     C31009   9.981   3.474   2.311 -0.3745  0.2286  0.3269
  971MOL0     C31010  10.103   3.376   2.329  0.6140 -0.2804  0.1835
  971MOL0     C31011  10.086   3.240   2.257  0.1633  0.1229 -0.6247
  971MOL0     C31012  10.189   3.138   2.296  0.1084 -0.3748  0.5653
  971MOL0     C31013  10.195   3.013   2.224  0.5324 -0.0342  0.9965
  971MOL0     C31014  10.189   2.900   2.177 -0.3021 -0.0488  0.8508
  971MOL0     C31015  10.125   3.676   2.167  0.8986 -0.6399  0.1223
  971MOL0     C31016  10.189   3.786   2.108  0.1244  0.1642 -0.2217
  971MOL0     C31017  10.240   3.765   1.962  0.3952 -0.0017  0.0863
  971MOL0     H31018  10.355   4.098   1.826 -0.6680 -0.6059  2.9421
  971MOL0     H31019  10.354   4.256   1.630 -1.7608 -1.3600 -0.2314
  971MOL0     H31020  10.089   4.601   1.638  0.1367  1.4574 -0.6042
  971MOL0     H31021  10.237   4.670   1.700  1.1317  0.0719 -0.6839
  971MOL0     H31022  10.325   4.692   1.481  0.3584 -1.7944  0.4021
  971MOL0     H31023  10.175   4.790   1.513  0.2645  0.1706  2.2796
  971MOL0     H31024  10.039   4.621   1.372 -0.3293  2.3836 -3.4432
  971MOL0     H31025  10.160   4.507   1.381 -0.0519 -0.2094  2.5988
  971MOL0     H31026  10.179   4.787   1.275  2.0662 -0.7140  2.9608
  971MOL0     H31027  10.299   4.658   1.227  0.5301 -0.4791  2.4816
  971MOL0     H31028  10.021   4.648   1.133 -0.9714 -0.8071  0.4873
  971MOL0     H31029  10.162   4.700   1.042  0.4486 -0.2550  0.3827
  971MOL0     H31030  10.273   4.481   1.067 -0.3472  2.5858 -2.0044
  971MOL0     H31031  10.120   4.443   1.181 -2.2847  1.0410 -1.3996
  971MOL0     H31032  10.116   4.458   0.868 -0.4725  0.4778 -0.2818
  971MOL0     H31033   9.977   4.459   0.971  0.8065  0.7102  1.5616
  971MOL0     H31034  10.180   4.243   1.013  1.5070  3.5473 -2.0576
  971MOL0     H31035  10.014   4.227   1.044 -0.1179 -1.5670 -1.8830
  971MOL0     H31036   9.935   4.336   0.697 -1.2509 -0.6792  0.2107
  971MOL0     H31037  10.027   4.289   0.421 -1.1973  0.0164  0.3654
  971MOL0     H31038  10.092   4.125   0.414  2.0656  2.5837 -2.4315
  971MOL0     H31039   9.874   4.047   0.510 -1.2908  0.8167  1.0477
  971MOL0     H31040   9.826   4.214   0.517 -0.7103 -0.9150  0.4334
  971MOL0     H31041   9.898   4.071   0.253  0.6462 -0.0461  0.8118
  971MOL0     H31042   9.883   4.239   0.270 -2.1424  2.5311  1.1438
  971MOL0     H31043   9.632   4.152   0.389 -1.4027  1.9000 -1.9387
  971MOL0     H31044   9.661   4.038   0.255  0.4788  0.5744 -3.2286
  971MOL0     H31045   9.439   4.325   0.334 -0.0018  0.8994  1.9799
  971MOL0     H31046   9.413   4.564   0.409  1.2139 -0.1283  0.0582
  971MOL0     H31047   9.750   4.988   0.440  0.2104 -0.3803 -1.1696
  971MOL0     H31048   9.750   5.209   0.507  0.5050  2.8975 -2.2252
  971MOL0     H31049   9.737   5.432   0.420  0.1415 -0.5170  2.5500
  971MOL0     H31050   9.645   5.577   0.388 -2.5363 -0.2831 -0.0141
  971MOL0     H31051   9.647   5.416   0.636 -4.0488 -0.0183 -0.4369
  971MOL0     H31052   9.750   5.552   0.610  0.3192 -0.6166 -0.3464
  971MOL0     H31053   9.557   5.599   0.768  3.4551 -2.4349 -0.3613
  971MOL0     H31054   9.607   5.709   0.649  1.6898 -0.8934  0.8138
  971MOL0     H31055   9.380   5.498   0.665  4.0184 -0.9285  4.2893
  971MOL0     H31056   9.410   5.591   0.513  2.3527 -1.6877  0.5793
  971MOL0     H31057   9.217   5.700   0.629 -0.2842  0.3477  1.2185
  971MOL0     H31058   9.363   5.795   0.651 -1.3781  1.6702  3.4723
  971MOL0     H31059   9.375   5.701   0.875  1.0385 -6.2566 -0.7861
  971MOL0     H31060   9.199   5.758   0.851 -1.1205  0.2113 -2.5014
  971MOL0     H31061   9.281   5.459   0.828 -1.0365  0.0735 -0.9472
  971MOL0     H31062   9.124   5.537   0.831 -0.3869  0.4390  2.0969
  971MOL0     H31063   9.140   5.559   1.068  1.2128  0.9186 -0.1007
  971MOL0     H31064   9.208   5.402   1.034  1.5261 -0.0503 -1.0481
  971MOL0     H31065   9.406   5.293   0.265  0.8519  2.3312  1.4211
  971MOL0     H31066   9.427   5.033   0.179  0.1061  0.1161  0.4012
  971MOL0     H31067   9.748   4.682   0.179 -0.0172 -2.1375  0.1370
  971MOL0     H31068   9.774   4.426   0.121  1.1647  0.9118 -0.7777
  971MOL0     H31069  10.119   4.530   1.848  0.8005  1.1605 -2.7490
  971MOL0     H31070  10.087   4.365   2.031  0.0507  3.6043 -1.8319
  971MOL0     H31071  10.193   4.025   2.333  1.5084  0.2833  0.2040
  971MOL0     H31072  10.052   3.843   2.446 -0.3295  0.2772 -0.1029
  971MOL0     H31073   9.943   3.472   2.209  0.1128 -0.2180  0.1521
  971MOL0     H31074   9.898   3.437   2.371 -0.5455  0.4865  0.2486
  971MOL0     H31075  10.124   3.360   2.435  2.0784  3.2646  0.5651
  971MOL0     H31076  10.190   3.427   2.286 -0.1396 -0.6446 -1.8682
  971MOL0     H31077  10.107   3.256   2.151  2.9827  0.4462 -0.0866
  971MOL0     H31078   9.988   3.196   2.280 -0.1092  2.2522  3.0943
  971MOL0     H31079  10.287   3.185   2.294  0.9211 -2.0395  0.0551
  971MOL0     H31080  10.170   3.104   2.398 -2.7226  2.5803  1.1876
  971MOL0     H31081  10.195   2.802   2.134  1.4245 -0.9951  3.0491
  971MOL0     H31082  10.121   3.581   2.115  1.7528  0.6249 -2.4172
  971MOL0     H31083  10.348   3.752   1.972  0.4038  0.2902  0.4064
  971MOL0     H31084  10.182   3.688   1.911 -2.1565 -1.0617  4.0902
  971MOL0     H31085  10.211   3.861   1.918 -2.6614  1.3063  4.2932
  972MOL0     O31086   2.969   5.390   1.858  0.0959 -0.1134 -0.1444
  972MOL0     C31087   3.009   5.381   1.976  0.6038  0.7583  1.4249
  972MOL0     O31088   2.952   5.303   2.072 -0.3158 -0.0663 -0.6453
  972MOL0     C31089   2.950   5.347   2.199  0.0098 -0.7467 -0.6254
  972MOL0     C31090   2.973   5.258   2.298 -0.6368 -0.0696 -0.4304
  972MOL0     C31091   2.975   5.292   2.438  0.0392  0.4275  0.3688
  972MOL0     C31092   2.948   5.416   2.472  0.1160 -0.0880 -0.6344
  972MOL0     O31093   2.948   5.436   2.605  0.3648  0.3344  0.8311
  972MOL0     C31094   2.842   5.514   2.649  0.8949 -0.0195 -0.1448
  972MOL0     C31095   2.835   5.506   2.790 -1.0052 -0.3983  0.5080
  972MOL0     C31096   2.937   5.574   2.857 -0.1679 -0.2698 -1.5773
  972MOL0     C31097   2.957   5.541   3.005 -0.9464 -0.7209  0.9139
  972MOL0     C31098   3.056   5.639   3.059 -0.1024  1.0732  0.0296
  972MOL0     C31099   2.987   5.748   3.139  0.6410  0.4722  0.2424
  972MOL0     C31100   3.084   5.798   3.249 -0.1621  0.3494  0.4516
  972MOL0     C31101   3.037   5.885   3.359 -0.4099  0.4430 -0.2742
  972MOL0     N31102   2.953   5.823   3.465  0.1123 -0.1079  0.5901
  972MOL0     C31103   3.008   5.751   3.568  0.1089  0.2375  0.8179
  972MOL0     C31104   2.921   5.773   3.673 -0.5459  0.4397  0.0425
  972MOL0     C31105   2.945   5.718   3.811  0.4604  0.8533  0.2105
  972MOL0     C31106   2.904   5.567   3.812  0.5775 -1.5708  0.4858
  972MOL0     C31107   2.941   5.506   3.941 -0.1586  0.8461  0.2535
  972MOL0     C31108   2.920   5.354   3.931 -0.7647 -0.5430  0.7406
  972MOL0     O31109   3.000   5.273   4.034  0.1043 -1.0570 -0.1404
  972MOL0     C31110   2.958   5.296   4.168 -0.7922  0.2230  0.5825
  972MOL0     C31111   2.837   5.360   4.215 -0.4827 -0.4162  0.0361
  972MOL0     C31112   2.820   5.392   4.346  0.6668  0.4324 -0.0540
  972MOL0     C31113   2.906   5.338   4.448  0.5309  0.2669 -0.2192
  972MOL0     C31114   2.893   5.389   4.587  0.5114  0.6752  0.8837
  972MOL0     O31115   2.952   5.315   4.682 -0.2701 -0.1799  0.3345
  972MOL0     C31116   2.871   5.284   4.787 -0.5774 -0.3757 -0.1303
  972MOL0     C31117   2.733   5.282   4.795 -0.2049  0.2631 -0.3999
  972MOL0     C31118   2.664   5.238   4.904  0.0394 -0.0332 -0.4756
  972MOL0     C31119   2.722   5.204   5.027  0.3319  0.0889 -0.1100
  972MOL0     O31120   2.634   5.163   5.132 -0.5344  0.4449  0.7822
  972MOL0     C31121   2.685   5.138   5.259  0.5406 -0.4719  0.4052
  972MOL0     C31122   2.733   4.990   5.253  0.9159 -0.6387  0.2060
  972MOL0     C31123   2.633   4.888   5.210  1.1841  0.1616 -0.0574
  972MOL0     C31124   2.519   4.870   5.320 -0.0535  0.1550  0.3477
  972MOL0     C31125   2.425   4.751   5.297 -1.0584  0.2653  0.4020
  972MOL0     C31126   2.339   4.763   5.170  0.4940 -0.1046 -0.7566
  972MOL0     C31127   2.227   4.667   5.173  0.0949  0.6479  0.4712
  972MOL0     C31128   2.265   4.519   5.168 -0.0023  0.7814  0.7435
  972MOL0    Cl31129   2.357   4.503   5.024  0.5213  0.4089 -0.4907
  972MOL0     C31130   2.861   5.212   5.026 -0.5887 -0.3596 -0.7205
  972MOL0     C31131   2.932   5.250   4.911  0.2026  0.2585  0.4857
  972MOL0     O31132   2.826   5.491   4.604  0.3383  1.1835  0.2604
  972MOL0     C31133   3.009   5.251   4.404  0.6452  0.7569 -0.3675
  972MOL0     C31134   3.047   5.237   4.269 -0.0033  0.5704  0.9677
  972MOL0     N31135   2.818   5.852   3.629 -0.0895 -0.1156  0.6535
  972MOL0     N31136   2.836   5.887   3.513 -0.1081  0.5185  0.4517
  972MOL0     C31137   2.934   5.517   2.374  0.1281 -0.3701  1.2686
  972MOL0     C31138   2.924   5.477   2.243  0.4484 -0.1937 -0.2303
  972MOL0     C31139   3.133   5.461   1.999 -0.0128  0.4374  0.1048
  972MOL0     C31140   3.117   5.602   1.970  0.1674 -0.2365 -0.0724
  972MOL0     C31141   3.219   5.692   1.991 -0.7605 -0.2612  0.0535
  972MOL0     C31142   3.350   5.642   2.033  0.2488  1.0654  0.8854
  972MOL0     O31143   3.471   5.704   2.026  0.7016 -0.2734  0.1997
  972MOL0     C31144   3.478   5.846   2.033  0.3739 -0.0147  0.1785
  972MOL0     C31145   3.421   5.890   2.168 -0.8691  0.1614 -0.9369
  972MOL0     C31146   3.357   6.028   2.163 -0.6970 -0.3311 -0.0693
  972MOL0     C31147   3.298   6.080   2.297  0.5980  0.1739 -0.1980
  972MOL0     C31148   3.166   6.030   2.327  0.0616 -0.6173  0.0089
  972MOL0     C31149   3.060   6.000   2.381  0.5404  0.1493  0.9007
  972MOL0     C31150   3.357   5.497   2.060 -0.5045 -0.2659 -1.0627
  972MOL0     C31151   3.252   5.404   2.051  0.5211 -0.7270 -0.3056
  972MOL0     C31152   3.274   5.258   2.070  0.1520  0.2948  0.2090
  972MOL0     H31153   2.993   5.154   2.273 -0.4324  0.5841 -3.2364
  972MOL0     H31154   2.992   5.222   2.519  1.1591  0.4539  0.1678
  972MOL0     H31155   2.860   5.620   2.629 -0.8034  0.5522  1.1088
  972MOL0     H31156   2.746   5.488   2.604  1.4289  2.1078 -2.7576
  972MOL0     H31157   2.837   5.403   2.828 -1.1478  0.8352  4.2207
  972MOL0     H31158   2.742   5.546   2.832 -0.2795 -0.2384  2.0190
  972MOL0     H31159   2.919   5.682   2.847  0.5770  0.0659  0.2349
  972MOL0     H31160   3.030   5.544   2.807 -0.8033 -0.3959 -2.7215
  972MOL0     H31161   2.858   5.555   3.050 -2.9044 -1.2288 -2.8294
  972MOL0     H31162   3.001   5.441   3.011  0.7863 -0.0794 -0.3435
  972MOL0     H31163   3.113   5.576   3.128  1.1143 -1.1492 -2.7925
  972MOL0     H31164   3.122   5.683   2.983  0.4684  0.4550  0.1582
  972MOL0     H31165   2.956   5.832   3.077 -2.2835 -0.6597 -0.0214
  972MOL0     H31166   2.900   5.701   3.186 -0.8403 -1.1170 -3.6737
  972MOL0     H31167   3.170   5.845   3.198  0.9076  0.4521  2.2764
  972MOL0     H31168   3.130   5.705   3.282 -0.3087  0.7203  1.7448
  972MOL0     H31169   3.127   5.916   3.413 -0.7637  2.2295 -0.6477
  972MOL0     H31170   3.006   5.978   3.311  1.6487 -0.4609 -3.6782
  972MOL0     H31171   3.099   5.692   3.565  0.1823  0.3050 -3.0112
  972MOL0     H31172   3.052   5.717   3.836  0.5868  2.3227 -0.1830
  972MOL0     H31173   2.885   5.765   3.890  2.0606 -0.2490  2.1989
  972MOL0     H31174   2.799   5.557   3.784  0.6208 -0.7114 -0.0304
  972MOL0     H31175   2.945   5.515   3.725 -1.5185  1.8827 -2.8714
  972MOL0     H31176   2.876   5.537   4.023  0.3961  0.4643  0.8535
  972MOL0     H31177   3.046   5.528   3.963  0.8196 -3.0798  0.2847
  972MOL0     H31178   2.952   5.316   3.833  1.1793 -0.4699  1.3262
  972MOL0     H31179   2.811   5.346   3.938 -0.7843  0.0907  1.1910
  972MOL0     H31180   2.767   5.411   4.150 -3.3506 -0.4078  2.8314
  972MOL0     H31181   2.740   5.460   4.373 -0.5059 -1.6639  2.2230
  972MOL0     H31182   2.683   5.326   4.709 -1.3656 -2.1443 -1.0561
  972MOL0     H31183   2.556   5.231   4.896 -0.3507 -3.1616  4.0299
  972MOL0     H31184   2.777   5.189   5.289 -0.0247  0.1436  1.1263
  972MOL0     H31185   2.603   5.150   5.330 -1.3316  0.7757 -1.8486
  972MOL0     H31186   2.822   4.983   5.190  1.1248  1.0496  0.2819
  972MOL0     H31187   2.758   4.972   5.358 -0.1220 -0.4622  0.4900
  972MOL0     H31188   2.593   4.919   5.113  1.7516  1.3629  0.0809
  972MOL0     H31189   2.683   4.792   5.193  0.0714 -0.1890 -1.5924
  972MOL0     H31190   2.453   4.957   5.325 -0.1538  0.0465  1.0065
  972MOL0     H31191   2.558   4.842   5.419  1.2028  0.1018 -0.1415
  972MOL0     H31192   2.364   4.730   5.385 -3.3322  0.3757 -1.0775
  972MOL0     H31193   2.492   4.665   5.289  1.0459  1.7302  1.3293
  972MOL0     H31194   2.293   4.862   5.166  0.4757 -0.0865 -0.1490
  972MOL0     H31195   2.398   4.753   5.078  1.0351  1.9681 -0.6696
  972MOL0     H31196   2.161   4.694   5.091  2.2592  1.4666 -1.0970
  972MOL0     H31197   2.179   4.684   5.270  1.6474  3.5027  0.8721
  972MOL0     H31198   2.323   4.495   5.257 -0.3493 -0.7101  0.5993
  972MOL0     H31199   2.182   4.449   5.155  0.7653 -0.1302  0.6648
  972MOL0     H31200   2.919   5.177   5.112  0.8556  0.7644 -1.1897
  972MOL0     H31201   3.040   5.251   4.920  0.2961 -0.5987 -0.3316
  972MOL0     H31202   3.081   5.208   4.474 -0.2946  3.0185  2.1529
  972MOL0     H31203   3.133   5.180   4.236 -1.3728  0.6515 -3.3916
  972MOL0     H31204   2.923   5.623   2.398 -1.0732  0.3124 -1.7415
  972MOL0     H31205   2.908   5.555   2.169  1.1207  0.4975  0.3424
  972MOL0     H31206   3.027   5.648   1.930 -0.1032  0.3906  1.1959
  972MOL0     H31207   3.204   5.798   1.972 -0.1686 -0.4402 -1.5482
  972MOL0     H31208   3.419   5.885   1.950  1.5615  0.0134 -0.6764
  972MOL0     H31209   3.581   5.883   2.026  0.8427 -1.0968  1.0421
  972MOL0     H31210   3.499   5.898   2.244 -3.8276  2.5650  2.1987
  972MOL0     H31211   3.342   5.828   2.210  0.4303 -3.4277 -3.2997
  972MOL0     H31212   3.272   6.025   2.095 -0.3824 -0.3068 -0.4653
  972MOL0     H31213   3.436   6.100   2.140 -1.0199  0.9366  2.4373
  972MOL0     H31214   3.361   6.061   2.383 -1.5413  1.0654  1.6695
  972MOL0     H31215   3.287   6.189   2.292 -1.2477  0.1059  1.2900
  972MOL0     H31216   2.959   5.970   2.395  0.1998 -1.1765 -2.9892
  972MOL0     H31217   3.455   5.474   2.100  0.8080  6.1196  0.5236
  972MOL0     H31218   3.217   5.194   2.002 -1.0831  1.8316 -0.2401
  972MOL0     H31219   3.379   5.239   2.046 -0.3330 -1.7755 -0.5054
  972MOL0     H31220   3.247   5.230   2.173  0.2046  0.4238  0.2582
  973MOL0     O31221  10.114   0.682   3.053 -0.3777 -0.5960 -0.1942
  973MOL0     C31222  10.151   0.575   3.096 -0.0979 -0.0407 -0.0885
  973MOL0     O31223  10.076   0.495   3.172 -0.7456 -0.1824 -0.1353
  973MOL0     C31224   9.945   0.531   3.204 -0.9101  1.0124 -0.7143
  973MOL0     C31225   9.834   0.507   3.124 -0.0193  0.1647 -0.0201
  973MOL0     C31226   9.705   0.550   3.152  0.1318  0.7617 -1.0256
  973MOL0     C31227   9.681   0.622   3.269 -0.5559  0.6507 -1.1058
  973MOL0     O31228   9.563   0.674   3.322 -0.1393 -1.0272 -0.7301
  973MOL0     C31229   9.458   0.704   3.232  0.0292 -0.2709 -0.2801
  973MOL0     C31230   9.482   0.828   3.154 -0.3512  1.1426  0.6222
  973MOL0     C31231   9.356   0.864   3.073 -0.2076  0.7770 -0.1823
  973MOL0     C31232   9.387   0.991   2.993 -0.5877  0.2153  0.4801
  973MOL0     C31233   9.263   1.036   2.917 -0.3557 -0.1651 -0.1224
  973MOL0     C31234   9.277   1.112   2.773 -0.1635  0.2325 -1.2784
  973MOL0     C31235   9.155   1.182   2.721 -0.9943  0.2193 -0.2945
  973MOL0     C31236   9.155   1.204   2.569  0.2088 -0.1509  0.3296
  973MOL0     N31237   9.044   1.281   2.522 -0.0686  0.0731  1.0325
  973MOL0     C31238   8.956   1.244   2.431  0.2620 -0.6404  0.5747
  973MOL0     C31239   8.868   1.342   2.425 -0.2009  0.6359  1.0864
  973MOL0     C31240   8.737   1.346   2.343  0.1558 -0.1869  1.0124
  973MOL0     C31241   8.683   1.208   2.301 -0.7333  0.6048 -0.6361
  973MOL0     C31242   8.546   1.215   2.239  0.1044 -0.1201  0.1439
  973MOL0     C31243   8.522   1.323   2.120 -0.6818 -0.1692 -0.0619
  973MOL0     O31244   8.406   1.305   2.041 -0.4473  0.0808  0.3608
  973MOL0     C31245   8.288   1.247   2.082 -0.4039  0.6871 -0.0852
  973MOL0     C31246   8.242   1.245   2.217  0.1638 -0.0705 -1.2110
  973MOL0     C31247   8.123   1.180   2.248 -0.3990  0.2018 -0.6717
  973MOL0     C31248   8.048   1.110   2.148 -0.8447  0.9596 -1.9511
  973MOL0     C31249   7.940   1.014   2.173 -0.7726 -0.0139  1.0209
  973MOL0     O31250   7.930   0.952   2.300  0.0530 -0.2702  0.0630
  973MOL0     C31251   7.832   0.883   2.365 -0.4953 -0.4279 -0.0455
  973MOL0     C31252   7.858   0.829   2.493 -0.0224  0.1821 -0.6236
  973MOL0     C31253   7.757   0.767   2.570  0.5297 -0.4528 -0.3088
  973MOL0     C31254   7.622   0.758   2.527  0.0830 -0.9048  0.4216
  973MOL0     O31255   7.507   0.710   2.592  0.0181 -0.0459 -0.1704
  973MOL0     C31256   7.519   0.655   2.724 -0.7961 -0.8481 -0.5382
  973MOL0     C31257   7.570   0.517   2.706  0.4135 -0.0185 -0.6629
  973MOL0     C31258   7.519   0.403   2.804  0.0801  1.0117  0.0230
  973MOL0     C31259   7.555   0.435   2.942  0.1114  0.3906 -0.4598
  973MOL0     C31260   7.536   0.308   3.036 -0.0845 -0.0319  0.3357
  973MOL0     C31261   7.567   0.331   3.187 -0.1013 -0.3649  0.4810
  973MOL0     C31262   7.599   0.206   3.266 -0.1979  1.2050  0.4857
  973MOL0     C31263   7.654   0.233   3.407 -0.4166 -0.8914  0.2733
  973MOL0    Cl31264   7.563   0.351   3.505  0.2194  0.0321  0.0750
  973MOL0     C31265   7.612   0.792   2.387  0.2781 -0.0588 -0.2705
  973MOL0     C31266   7.706   0.848   2.308 -0.2250  0.3659 -0.1808
  973MOL0     O31267   7.846   1.025   2.091 -0.5521 -1.0682 -0.9306
  973MOL0     C31268   8.099   1.114   2.019 -0.4595  0.0318  0.8581
  973MOL0     C31269   8.206   1.197   1.981  0.2680 -0.0160 -0.5013
  973MOL0     N31270   8.918   1.445   2.497  1.4039 -0.2472  1.0903
  973MOL0     N31271   9.026   1.403   2.556 -0.5983 -0.0890 -0.9040
  973MOL0     C31272   9.790   0.652   3.347  0.3632  0.3163  0.5029
  973MOL0     C31273   9.919   0.606   3.317 -0.3011  0.5160 -0.4967
  973MOL0     C31274  10.286   0.528   3.061 -1.2814  0.7860  0.1640
  973MOL0     C31275  10.316   0.391   3.083 -0.0260  0.7496  0.5031
  973MOL0     C31276  10.444   0.339   3.057  1.4783  0.0650 -0.2351
  973MOL0     C31277  10.542   0.408   2.991 -0.3437  0.6824  0.4779
  973MOL0     O31278  10.666   0.373   2.957 -0.1260  0.1241  0.0557
  973MOL0     C31279  10.714   0.241   2.992  0.1362  0.1122 -0.6876
  973MOL0     C31280  10.853   0.211   2.945 -0.2249 -0.2962 -0.4243
  973MOL0     C31281  10.885   0.064   2.962 -0.0251 -1.3367  0.3297
  973MOL0     C31282  11.031   0.059   2.948 -0.4393  0.9815 -0.6602
  973MOL0     C31283  11.078  -0.065   2.900 -0.4692  0.0575 -0.3049
  973MOL0     C31284  11.112  -0.165   2.845 -0.3591  0.5114  0.2436
  973MOL0     C31285  10.508   0.544   2.965 -0.3464 -0.2236 -0.9460
  973MOL0     C31286  10.391   0.603   3.008 -0.2548  0.0378 -0.7973
  973MOL0     C31287  10.384   0.752   2.980  0.6050 -0.6956  0.2141
  973MOL0     H31288   9.851   0.448   3.035 -1.1600 -2.5212  1.4143
  973MOL0     H31289   9.632   0.517   3.078  0.4965 -1.6252 -0.3817
  973MOL0     H31290   9.430   0.616   3.173 -1.4038  2.0298 -3.3132
  973MOL0     H31291   9.368   0.713   3.295  0.2828 -0.7102  0.1460
  973MOL0     H31292   9.566   0.805   3.087 -1.8173 -2.5682 -0.1605
  973MOL0     H31293   9.516   0.910   3.218 -0.3492  0.2811  1.7511
  973MOL0     H31294   9.274   0.870   3.145 -0.0597  0.4152  0.0128
  973MOL0     H31295   9.345   0.773   3.013  0.4843  0.0431  0.7754
  973MOL0     H31296   9.427   1.067   3.062 -0.5118  1.5667 -0.9820
  973MOL0     H31297   9.455   0.967   2.911 -0.9780 -0.4955  0.3640
  973MOL0     H31298   9.209   0.941   2.907 -1.3097  0.5362 -2.1374
  973MOL0     H31299   9.208   1.103   2.984 -0.1827 -1.4756  1.4041
  973MOL0     H31300   9.359   1.184   2.779  2.1680 -2.3775  0.8724
  973MOL0     H31301   9.305   1.023   2.716 -1.0052 -1.6584  1.1174
  973MOL0     H31302   9.153   1.277   2.774 -3.6646  0.7316 -1.1393
  973MOL0     H31303   9.064   1.130   2.753 -0.9443  1.2020  1.5885
  973MOL0     H31304   9.246   1.260   2.547  0.6732 -1.3200 -0.8505
  973MOL0     H31305   9.171   1.117   2.504  1.6188 -0.3370  0.8833
  973MOL0     H31306   8.962   1.141   2.397 -1.5023 -2.1524  4.2989
  973MOL0     H31307   8.657   1.386   2.406  1.3328  0.5260  2.0928
  973MOL0     H31308   8.744   1.396   2.246  0.2813 -3.4038 -0.7781
  973MOL0     H31309   8.757   1.147   2.249  0.7150  2.8840 -1.3923
  973MOL0     H31310   8.658   1.148   2.389  0.5154 -0.6004 -1.0651
  973MOL0     H31311   8.478   1.233   2.323 -2.0200 -0.5295 -1.4001
  973MOL0     H31312   8.537   1.112   2.205  2.2220 -0.2136 -0.2518
  973MOL0     H31313   8.613   1.325   2.059  0.1551 -2.1180  1.0405
  973MOL0     H31314   8.518   1.421   2.169  2.0199 -0.1692  0.2855
  973MOL0     H31315   8.288   1.308   2.292  1.2620 -1.2446 -0.8652
  973MOL0     H31316   8.111   1.176   2.356  1.8894 -0.5734 -0.3865
  973MOL0     H31317   7.949   0.854   2.545  0.2006  0.3065 -1.0655
  973MOL0     H31318   7.777   0.717   2.664 -1.1528 -1.7076 -0.5864
  973MOL0     H31319   7.588   0.712   2.786  0.8242 -1.4044 -1.7374
  973MOL0     H31320   7.423   0.655   2.776 -0.2653  1.1673  0.5413
  973MOL0     H31321   7.561   0.480   2.604  3.3303 -1.5826 -0.4637
  973MOL0     H31322   7.676   0.526   2.732 -0.0169  3.2380  0.3988
  973MOL0     H31323   7.411   0.409   2.787  0.4508  0.6103 -3.0791
  973MOL0     H31324   7.558   0.305   2.778  0.0054  0.9548  0.1233
  973MOL0     H31325   7.490   0.517   2.977  1.7159  1.3425  0.4351
  973MOL0     H31326   7.659   0.465   2.962  0.8544 -2.3035  0.1189
  973MOL0     H31327   7.612   0.235   3.008 -1.0394 -1.3128  0.9579
  973MOL0     H31328   7.444   0.258   3.004  0.1165  1.5367 -3.1977
  973MOL0     H31329   7.654   0.398   3.190  0.4182 -0.5232 -4.1177
  973MOL0     H31330   7.482   0.378   3.238  2.0815  2.4214  1.8572
  973MOL0     H31331   7.676   0.149   3.213  1.7276  2.4812  1.7724
  973MOL0     H31332   7.512   0.141   3.275 -1.9013  3.5434  2.1412
  973MOL0     H31333   7.665   0.138   3.462  0.5821 -1.7908 -1.3874
  973MOL0     H31334   7.757   0.270   3.407 -0.8695  0.4652  1.6186
  973MOL0     H31335   7.511   0.773   2.351  1.5251 -2.9274 -2.6966
  973MOL0     H31336   7.686   0.870   2.203 -0.9658  0.6514  0.0158
  973MOL0     H31337   8.046   1.065   1.937  0.6794  4.5405 -3.0645
  973MOL0     H31338   8.226   1.199   1.875 -2.0776  2.1956 -1.0039
  973MOL0     H31339   9.779   0.727   3.424 -1.6732  2.3335 -1.5969
  973MOL0     H31340  10.000   0.646   3.378  0.4189 -0.9944 -0.4240
  973MOL0     H31341  10.239   0.326   3.125  1.1606 -1.3796 -0.4568
  973MOL0     H31342  10.456   0.236   3.090  0.0136  1.0978  4.3986
  973MOL0     H31343  10.652   0.170   2.936  1.0097 -0.3351 -1.0990
  973MOL0     H31344  10.707   0.222   3.099 -0.2734 -2.9275 -1.1541
  973MOL0     H31345  10.922   0.267   3.009  0.0857  2.0311 -2.6305
  973MOL0     H31346  10.877   0.243   2.843  0.8131 -0.3802 -0.2234
  973MOL0     H31347  10.833   0.006   2.886 -3.1258  5.1517 -3.3003
  973MOL0     H31348  10.847   0.039   3.061 -0.8209  2.6460  1.2282
  973MOL0     H31349  11.060   0.135   2.875  0.9627  0.7042 -0.4188
  973MOL0     H31350  11.082   0.068   3.044 -2.4525  2.4881  0.3334
  973MOL0     H31351  11.155  -0.248   2.794  0.4064 -0.2409  2.0126
  973MOL0     H31352  10.589   0.606   2.929  0.2844 -0.2357  0.3745
  973MOL0     H31353  10.481   0.802   2.991  0.0429 -0.1080  3.5505
  973MOL0     H31354  10.334   0.764   2.883  1.4753 -1.3535 -0.3341
  973MOL0     H31355  10.324   0.799   3.058 -2.8764  0.5102 -2.9041
  974MOL0     O31356   0.590   2.786   5.013  0.0023 -0.7026  0.4745
  974MOL0     C31357   0.562   2.835   5.119  0.0174  0.6275 -0.5229
  974MOL0     O31358   0.604   2.785   5.239  0.2614 -0.7334  0.1401
  974MOL0     C31359   0.659   2.663   5.266 -0.2258  0.4552 -1.0267
  974MOL0     C31360   0.763   2.618   5.190 -0.8113 -0.0981  0.3804
  974MOL0     C31361   0.828   2.497   5.216 -0.0142 -0.1111  0.9355
  974MOL0     C31362   0.797   2.411   5.322 -0.5843  0.1532  0.2488
  974MOL0     O31363   0.835   2.276   5.318 -0.8223 -0.2210  0.3820
  974MOL0     C31364   0.746   2.174   5.375 -0.7851 -0.1407 -0.2671
  974MOL0     C31365   0.798   2.144   5.516 -0.7307 -0.5002  0.1516
  974MOL0     C31366   0.711   2.050   5.606  0.7890  0.0590  0.1181
  974MOL0     C31367   0.703   1.905   5.550 -0.0155  0.8937 -0.5096
  974MOL0     C31368   0.602   1.802   5.613  0.2680  0.2295  0.6669
  974MOL0     C31369   0.637   1.658   5.584 -0.7918 -1.0248 -0.0548
  974MOL0     C31370   0.554   1.554   5.656 -0.8566  0.0314  1.0420
  974MOL0     C31371   0.602   1.412   5.648 -0.1002 -0.1389 -0.3086
  974MOL0     N31372   0.514   1.305   5.698 -0.0453  0.6903  0.4112
  974MOL0     C31373   0.431   1.309   5.808 -0.7563  0.6210  0.1036
  974MOL0     C31374   0.400   1.176   5.833  0.0923  0.2139 -0.5258
  974MOL0     C31375   0.329   1.117   5.953  1.2678 -0.8291  0.6797
  974MOL0     C31376   0.392   0.984   5.993 -1.0147 -0.6683 -0.2319
  974MOL0     C31377   0.380   0.957   6.137 -0.2765  0.3135 -0.4854
  974MOL0     C31378   0.459   0.829   6.177 -0.3497 -0.5601 -0.0248
  974MOL0     O31379   0.399   0.721   6.104 -0.4583  0.0521  0.4492
  974MOL0     C31380   0.415   0.591   6.156  0.4696  0.8356  0.8325
  974MOL0     C31381   0.357   0.486   6.086 -0.9445  0.9180 -0.2706
  974MOL0     C31382   0.361   0.356   6.134 -0.2282 -0.2157 -0.5988
  974MOL0     C31383   0.420   0.320   6.259  0.1341  0.1827  0.0838
  974MOL0     C31384   0.425   0.180   6.317 -0.0609 -1.1188 -0.0928
  974MOL0     O31385   0.495   0.157   6.435  0.5202 -0.0544  0.4576
  974MOL0     C31386   0.516   0.033   6.490 -0.0475  0.2685  0.3930
  974MOL0     C31387   0.588   0.021   6.613 -0.1200  0.3793 -1.3652
  974MOL0     C31388   0.613  -0.102   6.677  0.2712 -1.7565 -0.2636
  974MOL0     C31389   0.585  -0.216   6.607 -0.5195 -0.3185  0.2503
  974MOL0     O31390   0.610  -0.330   6.671 -0.7055  0.0494 -0.0841
  974MOL0     C31391   0.705  -0.418   6.605  1.1039 -0.0087 -0.0435
  974MOL0     C31392   0.806  -0.459   6.714  0.5040 -0.5287  0.0573
  974MOL0     C31393   0.732  -0.529   6.833 -0.7193 -0.8768  0.8965
  974MOL0     C31394   0.840  -0.576   6.931  0.4460 -0.3229  0.2200
  974MOL0     C31395   0.783  -0.623   7.071 -0.4411 -1.4896  0.2457
  974MOL0     C31396   0.686  -0.734   7.062 -0.2444 -0.4542 -0.4320
  974MOL0     C31397   0.621  -0.774   7.198 -0.2013 -0.4808  0.1964
  974MOL0     C31398   0.722  -0.806   7.305  0.2345  1.0597  0.0583
  974MOL0    Cl31399   0.824  -0.955   7.263 -0.0107 -0.3882  0.1328
  974MOL0     C31400   0.533  -0.220   6.476  0.6567 -1.1864  0.0937
  974MOL0     C31401   0.499  -0.093   6.420 -0.1637 -0.7450 -0.0849
  974MOL0     O31402   0.351   0.102   6.262  0.0055 -0.1003  0.2495
  974MOL0     C31403   0.474   0.431   6.339 -0.6620  0.1247  0.0391
  974MOL0     C31404   0.468   0.564   6.287  0.3148 -0.7600 -0.0479
  974MOL0     N31405   0.461   1.103   5.736 -0.4434 -0.5350  0.1562
  974MOL0     N31406   0.530   1.179   5.648  0.4175  0.5925 -0.0620
  974MOL0     C31407   0.691   2.463   5.405  0.1029 -0.4099 -0.6462
  974MOL0     C31408   0.633   2.585   5.378  0.1450  0.2956 -0.2899
  974MOL0     C31409   0.492   2.957   5.123 -0.5824  0.2071 -0.7529
  974MOL0     C31410   0.558   3.072   5.168 -0.5833  0.7894  1.1628
  974MOL0     C31411   0.511   3.199   5.140  1.2522  0.0872  0.6790
  974MOL0     C31412   0.382   3.218   5.086 -0.5353  0.2623 -0.4456
  974MOL0     O31413   0.317   3.331   5.060  0.3727 -0.0640  0.3486
  974MOL0     C31414   0.392   3.451   5.060  0.5185 -1.0177 -0.2408
  974MOL0     C31415   0.329   3.555   4.963  0.0032  0.0386  0.1079
  974MOL0     C31416   0.170   3.561   4.968 -0.2824 -0.0435 -0.2367
  974MOL0     C31417   0.106   3.637   4.857 -0.3782  0.6450  0.9927
  974MOL0     C31418   0.151   3.771   4.833 -0.4474 -0.3174  0.4289
  974MOL0     C31419   0.196   3.882   4.787 -0.5911 -0.0453  0.4027
  974MOL0     C31420   0.318   3.106   5.058 -0.4057 -0.4833 -0.0272
  974MOL0     C31421   0.374   2.976   5.066  0.1216 -0.1337 -0.9274
  974MOL0     C31422   0.298   2.866   4.998 -0.4688 -0.2955 -0.5085
  974MOL0     H31423   0.786   2.683   5.106 -1.1248  0.7674  0.9438
  974MOL0     H31424   0.899   2.463   5.141  2.3067  2.6136  1.7015
  974MOL0     H31425   0.642   2.210   5.374 -0.3681  1.5958  3.1143
  974MOL0     H31426   0.758   2.077   5.326 -0.4329 -0.3452  0.2120
  974MOL0     H31427   0.817   2.243   5.559 -4.0444 -0.4886  1.8949
  974MOL0     H31428   0.899   2.102   5.511 -1.1319 -1.3721 -1.3181
  974MOL0     H31429   0.614   2.099   5.609  0.4265 -0.6410  0.0348
  974MOL0     H31430   0.747   2.038   5.709  1.6818  0.7664 -0.0921
  974MOL0     H31431   0.693   1.906   5.441  0.5809  0.6704 -0.5683
  974MOL0     H31432   0.805   1.869   5.563  0.4748  0.2691 -4.6874
  974MOL0     H31433   0.613   1.826   5.720 -0.4770  1.0029  0.5758
  974MOL0     H31434   0.499   1.818   5.581  0.4127  0.4708  0.3190
  974MOL0     H31435   0.622   1.632   5.479 -0.6813 -3.0698  0.3863
  974MOL0     H31436   0.742   1.644   5.612 -0.7704 -0.3107  0.2448
  974MOL0     H31437   0.463   1.538   5.599 -0.1597 -2.4480  0.4860
  974MOL0     H31438   0.528   1.592   5.755  0.6943 -0.0600  1.5158
  974MOL0     H31439   0.639   1.390   5.548  0.8205 -0.8154  0.1662
  974MOL0     H31440   0.689   1.404   5.714 -1.0640 -1.0769  0.9127
  974MOL0     H31441   0.410   1.384   5.883 -1.0275  0.0877  0.5724
  974MOL0     H31442   0.327   1.194   6.030  4.3821 -1.3450  1.4279
  974MOL0     H31443   0.225   1.105   5.922  1.8470  1.1164 -2.5635
  974MOL0     H31444   0.349   0.897   5.942 -1.5600 -2.5347  3.1257
  974MOL0     H31445   0.498   0.977   5.968 -0.8750 -2.2284  0.6510
  974MOL0     H31446   0.274   0.940   6.160  0.7587 -1.3729  4.1902
  974MOL0     H31447   0.413   1.043   6.195  0.5968 -1.2246  1.4457
  974MOL0     H31448   0.427   0.818   6.281 -2.6333 -1.9741 -0.8069
  974MOL0     H31449   0.568   0.837   6.173 -0.4748  1.3336 -0.5723
  974MOL0     H31450   0.297   0.510   5.998 -0.1957  1.3515 -0.6769
  974MOL0     H31451   0.311   0.277   6.079 -1.0531 -2.0498  2.5426
  974MOL0     H31452   0.603   0.112   6.670 -1.5006  0.3564 -0.9322
  974MOL0     H31453   0.679  -0.111   6.762  2.6446 -0.9464 -1.9327
  974MOL0     H31454   0.653  -0.507   6.570 -0.4387  1.7818 -2.6391
  974MOL0     H31455   0.767  -0.370   6.529  0.3253  1.0160 -0.0489
  974MOL0     H31456   0.888  -0.521   6.676  1.6456  1.8648 -1.6660
  974MOL0     H31457   0.847  -0.368   6.758  2.7472  0.4019 -3.5007
  974MOL0     H31458   0.684  -0.449   6.890  2.4644  3.3347 -1.7377
  974MOL0     H31459   0.659  -0.598   6.789 -2.2774  1.7776 -0.9234
  974MOL0     H31460   0.924  -0.508   6.947  2.6162 -3.2444  2.5401
  974MOL0     H31461   0.884  -0.664   6.884  0.2744  0.2836 -1.1207
  974MOL0     H31462   0.732  -0.546   7.129 -2.0596 -2.6156  0.3958
  974MOL0     H31463   0.865  -0.652   7.137  0.8120  0.1468 -0.5166
  974MOL0     H31464   0.601  -0.697   7.003  1.2090  1.9091 -1.2214
  974MOL0     H31465   0.724  -0.822   7.010  1.4811  0.4793 -0.8152
  974MOL0     H31466   0.543  -0.849   7.182 -1.4060  0.7715  0.0533
  974MOL0     H31467   0.564  -0.685   7.226  0.4275  0.9179 -2.5942
  974MOL0     H31468   0.793  -0.723   7.315  0.1819  1.1827 -0.5492
  974MOL0     H31469   0.677  -0.819   7.404 -0.1413  1.7353 -0.0112
  974MOL0     H31470   0.508  -0.319   6.440 -0.9190 -2.2415  3.6226
  974MOL0     H31471   0.479  -0.093   6.313  2.4381 -1.2603 -0.6392
  974MOL0     H31472   0.511   0.421   6.441  0.5858 -3.5082 -0.6200
  974MOL0     H31473   0.517   0.637   6.352  0.7369 -1.2880  0.2380
  974MOL0     H31474   0.655   2.409   5.491 -0.6780 -1.6833 -1.7473
  974MOL0     H31475   0.565   2.622   5.453  1.2175  2.2665 -0.2229
  974MOL0     H31476   0.664   3.065   5.190  0.3112  2.4220 -1.9862
  974MOL0     H31477   0.572   3.285   5.165  1.7208  0.0096 -0.1590
  974MOL0     H31478   0.499   3.438   5.043  0.3744 -0.7290 -1.5025
  974MOL0     H31479   0.379   3.494   5.160 -1.2535 -0.9778 -0.4443
  974MOL0     H31480   0.360   3.527   4.862 -1.2118 -0.0258 -0.2682
  974MOL0     H31481   0.371   3.655   4.973 -0.2449  0.5131 -2.7374
  974MOL0     H31482   0.133   3.594   5.065  0.8079  1.2448 -0.2338
  974MOL0     H31483   0.134   3.460   4.949  0.0659 -0.6027  1.8100
  974MOL0     H31484   0.121   3.583   4.763 -2.7949 -0.1917  1.0392
  974MOL0     H31485  -0.001   3.636   4.880 -1.2686 -1.0200 -2.5174
  974MOL0     H31486   0.215   3.983   4.756 -0.5772 -1.0787 -3.3787
  974MOL0     H31487   0.226   3.110   5.001  0.7522  0.0461 -1.9341
  974MOL0     H31488   0.336   2.850   4.896 -1.2482 -1.8931 -0.5813
  974MOL0     H31489   0.306   2.768   5.045  2.5521  0.3448  0.5145
  974MOL0     H31490   0.190   2.883   4.997 -0.3578  0.8775 -3.6122
  975MOL0     O31491   6.623  11.348   4.209 -0.1971  0.5969  0.2489
  975MOL0     C31492   6.521  11.283   4.233  0.3603  0.2957 -0.8003
  975MOL0     O31493   6.398  11.328   4.245 -0.1613 -0.4606  0.7222
  975MOL0     C31494   6.355  11.461   4.230  0.6997 -0.2840 -0.1666
  975MOL0     C31495   6.246  11.498   4.321  0.2439 -0.1091  0.9937
  975MOL0     C31496   6.194  11.619   4.307  0.0207  0.2341  0.9714
  975MOL0     C31497   6.237  11.713   4.209  1.5826  0.3422 -0.1096
  975MOL0     O31498   6.174  11.834   4.204 -0.4262  0.6912  0.0814
  975MOL0     C31499   6.171  11.912   4.079  0.2829  0.0676  0.2861
  975MOL0     C31500   6.037  11.989   4.057 -0.4128  0.3453 -0.3580
  975MOL0     C31501   6.074  12.132   4.034 -1.3954  0.4881  0.2577
  975MOL0     C31502   5.996  12.208   3.930  0.9965  0.1183  0.0996
  975MOL0     C31503   6.028  12.360   3.923 -0.0415 -0.0303 -0.3839
  975MOL0     C31504   5.923  12.453   3.871  0.4020  0.2006 -0.7931
  975MOL0     C31505   5.978  12.596   3.901  0.4018 -0.4382  1.0896
  975MOL0     C31506   6.109  12.628   3.818  0.0563 -0.2530  0.0088
  975MOL0     N31507   6.103  12.584   3.675 -0.0469 -0.2306  0.6160
  975MOL0     C31508   5.993  12.591   3.597 -0.4595 -0.7163 -0.3906
  975MOL0     C31509   6.037  12.547   3.476 -0.8242  0.6031 -0.8768
  975MOL0     C31510   5.957  12.529   3.347  0.6558 -0.4000  0.4567
  975MOL0     C31511   6.003  12.636   3.246  0.8361 -0.4142  0.8218
  975MOL0     C31512   6.109  12.589   3.156 -0.7597  0.2169  1.0347
  975MOL0     C31513   6.111  12.673   3.025  0.3639  0.0037  0.7346
  975MOL0     O31514   6.226  12.641   2.943  0.9540  0.0476 -0.5006
  975MOL0     C31515   6.211  12.681   2.814 -0.7178  0.4046  0.3992
  975MOL0     C31516   6.289  12.606   2.721 -0.6786 -0.2349 -0.3572
  975MOL0     C31517   6.268  12.626   2.586 -0.8932 -0.3593  0.6508
  975MOL0     C31518   6.182  12.720   2.538 -0.0779 -0.7146 -0.0245
  975MOL0     C31519   6.179  12.750   2.386  0.3265 -0.2912 -0.6340
  975MOL0     O31520   6.240  12.670   2.307  0.5004 -0.7650 -0.8916
  975MOL0     C31521   6.267  12.725   2.181 -1.1951 -0.4048  0.0436
  975MOL0     C31522   6.368  12.818   2.162 -0.2746  0.2978  0.8652
  975MOL0     C31523   6.397  12.875   2.030 -0.2605 -0.0735 -0.2654
  975MOL0     C31524   6.330  12.808   1.926 -0.7648 -0.7427  0.6860
  975MOL0     O31525   6.374  12.840   1.790  0.9611  0.7784 -0.0178
  975MOL0     C31526   6.482  12.933   1.765  0.1440 -0.3480 -0.6146
  975MOL0     C31527   6.456  12.992   1.622  0.0023 -0.1624 -0.6190
  975MOL0     C31528   6.538  12.922   1.516  0.6854  0.3487 -0.5011
  975MOL0     C31529   6.482  12.947   1.373  0.6952  0.3104  0.1124
  975MOL0     C31530   6.579  12.907   1.274 -0.5921  0.0254  0.3124
  975MOL0     C31531   6.573  12.765   1.232 -0.2483  0.2872  0.0655
  975MOL0     C31532   6.619  12.671   1.348  0.4561 -0.3004  0.5954
  975MOL0     C31533   6.646  12.528   1.314  0.2062 -0.5564 -0.2945
  975MOL0    Cl31534   6.804  12.505   1.227  0.1520 -0.0195  0.6072
  975MOL0     C31535   6.244  12.705   1.945 -0.5380 -0.8800  0.9271
  975MOL0     C31536   6.214  12.661   2.070  0.7311 -0.4145  0.1052
  975MOL0     O31537   6.115  12.848   2.351  0.1570  0.4989  0.2574
  975MOL0     C31538   6.109  12.804   2.630 -0.7734  0.4163 -0.8639
  975MOL0     C31539   6.135  12.787   2.765 -0.1338 -0.6769 -0.0126
  975MOL0     N31540   6.168  12.516   3.486  0.3279 -0.1518 -0.5379
  975MOL0     N31541   6.214  12.540   3.603  0.2142 -0.4422  0.5360
  975MOL0     C31542   6.345  11.680   4.127 -0.2723 -0.1407  0.4762
  975MOL0     C31543   6.404  11.551   4.137 -0.8771 -1.6243 -0.1348
  975MOL0     C31544   6.543  11.140   4.243  0.6881 -0.6798  0.5628
  975MOL0     C31545   6.633  11.070   4.154  0.2844  0.7679  0.9906
  975MOL0     C31546   6.651  10.936   4.157 -0.0554  0.1224  0.1788
  975MOL0     C31547   6.567  10.855   4.231  0.2911  0.1684  0.6046
  975MOL0     O31548   6.598  10.723   4.214  0.0384 -0.1014  0.5561
  975MOL0     C31549   6.570  10.639   4.326  0.3479  0.7001  0.0216
  975MOL0     C31550   6.646  10.511   4.343  1.0949  0.2742  0.4964
  975MOL0     C31551   6.566  10.402   4.425 -0.0979 -0.7858  0.4589
  975MOL0     C31552   6.640  10.262   4.453 -0.6087  0.5507 -0.4887
  975MOL0     C31553   6.749  10.260   4.545 -0.0846 -0.3483  0.1850
  975MOL0     C31554   6.850  10.271   4.624 -0.0706 -0.2952  0.4040
  975MOL0     C31555   6.485  10.913   4.330 -0.4716 -0.6628 -0.2029
  975MOL0     C31556   6.472  11.060   4.333  0.0783  0.5369 -0.3707
  975MOL0     C31557   6.371  11.113   4.433 -0.4852  0.9099  0.7656
  975MOL0     H31558   6.212  11.441   4.407  0.5553 -0.0108  1.1855
  975MOL0     H31559   6.106  11.640   4.367 -1.8091 -0.9470 -1.1400
  975MOL0     H31560   6.261  11.975   4.072 -0.2464  0.6426 -2.1870
  975MOL0     H31561   6.172  11.851   3.988  1.5478 -0.1467  0.4217
  975MOL0     H31562   5.970  11.988   4.143  0.2863 -1.1872  0.2267
  975MOL0     H31563   5.979  11.948   3.973 -2.0968  2.9404 -0.5502
  975MOL0     H31564   6.177  12.148   4.003 -0.6782 -0.0590  2.1841
  975MOL0     H31565   6.061  12.185   4.129 -2.2855  2.4353 -0.8845
  975MOL0     H31566   6.004  12.165   3.830 -0.9572 -1.0049  0.3788
  975MOL0     H31567   5.890  12.198   3.954  0.2808  1.0795 -2.3876
  975MOL0     H31568   6.047  12.392   4.026  0.4670  1.5650 -0.9504
  975MOL0     H31569   6.124  12.371   3.872 -0.7494 -0.5102 -1.8564
  975MOL0     H31570   5.901  12.430   3.767  0.4835 -3.0134 -0.2267
  975MOL0     H31571   5.832  12.444   3.932  1.7488 -3.4541  1.0319
  975MOL0     H31572   5.990  12.621   4.007  1.3246  1.4367  0.5764
  975MOL0     H31573   5.897  12.665   3.876 -0.2072 -1.2893  0.6734
  975MOL0     H31574   6.121  12.736   3.826 -1.8087 -0.0458  0.4227
  975MOL0     H31575   6.194  12.573   3.859 -0.1502 -0.3795  0.2687
  975MOL0     H31576   5.897  12.631   3.626  1.0277  3.0432 -0.1011
  975MOL0     H31577   5.984  12.436   3.298  2.4427  0.0514  0.5071
  975MOL0     H31578   5.853  12.542   3.378  0.8693  0.7557  0.7575
  975MOL0     H31579   5.920  12.674   3.185  0.2580  1.8518  2.8389
  975MOL0     H31580   6.035  12.726   3.300  2.4949  0.3672 -1.3462
  975MOL0     H31581   6.092  12.488   3.117 -3.0806  1.3516 -1.2289
  975MOL0     H31582   6.206  12.585   3.206 -0.2495  0.7814  0.1300
  975MOL0     H31583   6.120  12.780   3.048 -2.5729  0.7204 -0.9491
  975MOL0     H31584   6.024  12.644   2.966  0.1232  3.1090 -0.6721
  975MOL0     H31585   6.345  12.527   2.770 -2.7241 -1.9596 -0.6201
  975MOL0     H31586   6.322  12.559   2.519  3.0307 -0.5184  3.5674
  975MOL0     H31587   6.422  12.847   2.251 -3.6353  0.7949  2.9050
  975MOL0     H31588   6.477  12.948   2.027 -0.2563  0.4338  4.3803
  975MOL0     H31589   6.472  13.018   1.832  1.5671 -2.2003  2.1580
  975MOL0     H31590   6.583  12.894   1.784 -0.1213 -0.4210  0.6945
  975MOL0     H31591   6.351  12.978   1.598 -0.1240  0.7703 -0.6151
  975MOL0     H31592   6.482  13.098   1.618 -0.7877  0.0087 -2.3319
  975MOL0     H31593   6.636  12.969   1.531 -0.9405  3.0965  2.5688
  975MOL0     H31594   6.536  12.816   1.545  0.2335  0.9657  1.9211
  975MOL0     H31595   6.464  13.055   1.376 -0.3549  0.2793 -2.6189
  975MOL0     H31596   6.396  12.884   1.353 -1.1467  2.6232  0.3328
  975MOL0     H31597   6.681  12.923   1.311 -0.6312 -0.1450  0.4906
  975MOL0     H31598   6.570  12.969   1.184  0.5329  1.1144  0.9123
  975MOL0     H31599   6.476  12.741   1.187 -0.0476  1.2827 -0.9483
  975MOL0     H31600   6.631  12.764   1.139 -3.7924 -1.6312 -2.3420
  975MOL0     H31601   6.538  12.662   1.421  0.5484 -1.3384  0.5741
  975MOL0     H31602   6.701  12.730   1.389 -0.5704  2.7813 -1.4141
  975MOL0     H31603   6.666  12.481   1.410  0.9866  0.8508  0.2570
  975MOL0     H31604   6.560  12.476   1.270 -0.1951 -0.2126  0.0620
  975MOL0     H31605   6.197  12.662   1.857  2.0282  2.6301 -2.5291
  975MOL0     H31606   6.152  12.572   2.069 -1.5834  1.0766 -2.4763
  975MOL0     H31607   6.045  12.879   2.583  0.5450  0.4302 -2.7761
  975MOL0     H31608   6.104  12.867   2.831  0.4046  2.2728 -3.0164
  975MOL0     H31609   6.388  11.750   4.056  2.9926 -1.6094  0.8660
  975MOL0     H31610   6.492  11.520   4.082 -0.4887 -1.0095  0.1180
  975MOL0     H31611   6.697  11.120   4.082  1.3033 -0.8966  0.6859
  975MOL0     H31612   6.737  10.889   4.111 -0.5570 -2.4896  1.7346
  975MOL0     H31613   6.463  10.617   4.333  0.4966  0.5007  2.1407
  975MOL0     H31614   6.599  10.699   4.413  1.2735  1.5420 -0.8305
  975MOL0     H31615   6.745  10.521   4.388  1.4529  3.4461 -0.7530
  975MOL0     H31616   6.663  10.477   4.241 -4.2234 -1.7459 -0.0214
  975MOL0     H31617   6.475  10.382   4.368 -0.9727  1.3444  1.0094
  975MOL0     H31618   6.538  10.439   4.524  2.2158  3.8497 -0.3216
  975MOL0     H31619   6.563  10.198   4.498 -1.2107  0.1301 -2.0483
  975MOL0     H31620   6.676  10.207   4.366 -0.3110  0.2607 -0.1858
  975MOL0     H31621   6.929  10.281   4.696 -1.9195 -2.3786  2.9083
  975MOL0     H31622   6.420  10.851   4.392 -1.0743 -2.2177 -2.2987
  975MOL0     H31623   6.399  11.065   4.528  4.1804 -2.3352 -1.8270
  975MOL0     H31624   6.404  11.216   4.450  1.2874  0.3265  1.1525
  975MOL0     H31625   6.267  11.099   4.405 -0.5871  1.4737  0.8605
  976MOL0     O31626   8.797   8.160  10.832 -0.2006  0.5410 -0.0410
  976MOL0     C31627   8.704   8.107  10.892  0.0648 -0.0117 -0.8056
  976MOL0     O31628   8.644   7.987  10.847  0.2042 -0.0846 -0.8474
  976MOL0     C31629   8.642   7.971  10.713  0.7304 -0.6528  0.1820
  976MOL0     C31630   8.622   8.077  10.616 -0.2169  0.0321 -0.9166
  976MOL0     C31631   8.593   8.049  10.486 -0.0361  0.8647  0.4462
  976MOL0     C31632   8.575   7.914  10.441  0.1222 -0.2368 -0.5882
  976MOL0     O31633   8.553   7.882  10.310 -0.4984  0.4828 -0.3224
  976MOL0     C31634   8.543   7.978  10.198  0.6905  0.9133  0.1785
  976MOL0     C31635   8.543   7.916  10.057  0.0693 -0.5447 -0.3989
  976MOL0     C31636   8.513   8.020   9.952 -0.4797  0.3129  0.5756
  976MOL0     C31637   8.559   7.964   9.824 -1.1507 -0.0720  1.2171
  976MOL0     C31638   8.714   7.979   9.795  0.8455 -0.3099 -0.1791
  976MOL0     C31639   8.749   7.894   9.672 -0.5344  0.0037  0.3999
  976MOL0     C31640   8.896   7.914   9.631  0.1676  0.9597  0.1441
  976MOL0     C31641   8.938   7.845   9.501  0.3805 -0.1643  0.3360
  976MOL0     N31642   9.076   7.864   9.473  0.2673 -0.5943  0.3558
  976MOL0     C31643   9.161   7.975   9.491 -0.4431  0.1957 -0.7135
  976MOL0     C31644   9.288   7.934   9.445 -0.4593 -0.5477  0.5339
  976MOL0     C31645   9.422   8.009   9.459  0.0746  0.6078  0.1300
  976MOL0     C31646   9.487   8.000   9.590  0.0438 -0.1020  0.0146
  976MOL0     C31647   9.493   7.857   9.665  0.4769  0.1042 -0.1355
  976MOL0     C31648   9.373   7.845   9.757 -0.4209  0.5008  0.0002
  976MOL0     O31649   9.376   7.711   9.815 -0.6024  0.3951 -0.0324
  976MOL0     C31650   9.257   7.666   9.862 -0.0367  0.0020 -0.3191
  976MOL0     C31651   9.147   7.746   9.889 -0.4572 -0.7118  0.0699
  976MOL0     C31652   9.028   7.685   9.942 -0.7092  0.5793 -1.1613
  976MOL0     C31653   9.018   7.540   9.953 -0.3749  1.1770 -0.7638
  976MOL0     C31654   8.897   7.480  10.013 -0.3913 -0.3361  0.0645
  976MOL0     O31655   8.782   7.560  10.009 -0.1696  0.7083  0.2777
  976MOL0     C31656   8.664   7.527  10.078 -1.3136 -0.2091  0.5954
  976MOL0     C31657   8.535   7.524  10.018 -0.6468  0.5233  0.6614
  976MOL0     C31658   8.427   7.476  10.088  0.0066 -0.4992 -1.5517
  976MOL0     C31659   8.437   7.462  10.231 -0.5453 -0.0772  0.1405
  976MOL0     O31660   8.338   7.419  10.304  0.2227 -0.3925 -0.2141
  976MOL0     C31661   8.213   7.492  10.294  0.3436 -0.1964 -0.0288
  976MOL0     C31662   8.144   7.461  10.427 -0.2275  0.4858 -0.2233
  976MOL0     C31663   8.111   7.312  10.460  0.5830 -0.2669 -0.0502
  976MOL0     C31664   8.005   7.275  10.367  0.8625 -0.8635 -0.2744
  976MOL0     C31665   7.951   7.139  10.418 -0.3647 -0.0256 -1.1529
  976MOL0     C31666   7.886   7.068  10.301 -1.2034  0.0121 -0.4890
  976MOL0     C31667   7.738   7.090  10.269  0.7934 -0.6352 -0.2865
  976MOL0     C31668   7.684   7.026  10.138 -0.8918 -0.2544 -0.2713
  976MOL0    Cl31669   7.722   6.856  10.156 -0.0262  0.2174  0.0435
  976MOL0     C31670   8.559   7.464  10.295 -0.3758  0.9003  0.1646
  976MOL0     C31671   8.667   7.504  10.217 -0.0425  0.3227  0.4144
  976MOL0     O31672   8.907   7.368  10.061 -0.5734 -0.3062  0.7347
  976MOL0     C31673   9.136   7.464   9.933  0.8825  0.3936  0.3706
  976MOL0     C31674   9.246   7.526   9.889 -0.2073 -0.8497  0.3015
  976MOL0     N31675   9.282   7.802   9.410 -0.1078  0.2458 -0.0292
  976MOL0     N31676   9.160   7.763   9.437  0.7273  0.0230 -0.4161
  976MOL0     C31677   8.604   7.813  10.531  0.4777 -0.0442  0.1027
  976MOL0     C31678   8.633   7.840  10.667  0.0665 -0.8519 -1.0188
  976MOL0     C31679   8.667   8.177  11.018 -0.4680 -0.4980 -0.3770
  976MOL0     C31680   8.773   8.239  11.098 -0.2094  0.7131 -0.7121
  976MOL0     C31681   8.751   8.303  11.217  0.3709  0.3318 -0.0763
  976MOL0     C31682   8.620   8.294  11.279 -0.4895 -0.9600  0.5063
  976MOL0     O31683   8.580   8.345  11.403 -0.1407  0.8778  0.5975
  976MOL0     C31684   8.687   8.392  11.494 -0.2323 -1.2668  0.6107
  976MOL0     C31685   8.739   8.530  11.461  0.4629 -0.2102  0.9354
  976MOL0     C31686   8.837   8.567  11.567 -0.7631 -0.3516  0.8348
  976MOL0     C31687   8.985   8.550  11.530 -0.1008  0.3483 -0.5423
  976MOL0     C31688   9.032   8.417  11.569 -0.2831 -0.2167 -0.4881
  976MOL0     C31689   9.046   8.295  11.586  0.9343  0.6344 -0.2947
  976MOL0     C31690   8.510   8.245  11.202 -0.3167 -0.2686 -0.3189
  976MOL0     C31691   8.535   8.184  11.075  0.8428 -0.4926 -0.5534
  976MOL0     C31692   8.426   8.116  11.014  0.2571  0.7367 -0.2151
  976MOL0     H31693   8.618   8.181  10.648  1.6356  0.2290 -1.1876
  976MOL0     H31694   8.574   8.127  10.412 -1.3615 -0.6365 -0.8581
  976MOL0     H31695   8.453   8.040  10.192 -1.1062 -1.6728 -3.9027
  976MOL0     H31696   8.628   8.047  10.209  0.0179  1.5373  1.8488
  976MOL0     H31697   8.465   7.841  10.040  0.8023 -1.2122 -0.8397
  976MOL0     H31698   8.640   7.866  10.051 -0.4587 -1.7490  0.6197
  976MOL0     H31699   8.558   8.117   9.975 -0.0268 -0.2749  2.3700
  976MOL0     H31700   8.406   8.033   9.932 -1.3281 -1.4361  3.4122
  976MOL0     H31701   8.545   7.857   9.806 -0.5206  0.2544 -1.5413
  976MOL0     H31702   8.512   8.013   9.738 -2.5653 -1.7413  0.9737
  976MOL0     H31703   8.732   8.086   9.786 -0.7375  0.2241  1.9561
  976MOL0     H31704   8.770   7.947   9.884  1.5084  1.7304  0.1708
  976MOL0     H31705   8.732   7.790   9.702 -4.4210 -0.2348 -1.8670
  976MOL0     H31706   8.696   7.910   9.577  2.6382  1.0214 -1.3291
  976MOL0     H31707   8.956   7.867   9.710  0.1366 -0.1571 -0.4659
  976MOL0     H31708   8.938   8.014   9.620  0.6300  1.0465  2.2616
  976MOL0     H31709   8.924   7.738   9.518  3.1107 -0.3151  2.4420
  976MOL0     H31710   8.880   7.886   9.419  0.5814  2.2931  1.3253
  976MOL0     H31711   9.159   8.067   9.550 -1.1602  1.4092 -2.5300
  976MOL0     H31712   9.493   7.953   9.398 -1.5249 -2.8057  1.1385
  976MOL0     H31713   9.413   8.115   9.434  0.6284  0.4441 -0.8085
  976MOL0     H31714   9.589   8.035   9.574 -0.8846  4.1983  1.9584
  976MOL0     H31715   9.438   8.081   9.644  2.9243  2.3001 -0.7183
  976MOL0     H31716   9.590   7.844   9.714  1.8481  1.5623 -2.2530
  976MOL0     H31717   9.481   7.778   9.591  0.5664 -0.0518  0.0157
  976MOL0     H31718   9.290   7.846   9.686  0.8283 -0.8831 -1.5354
  976MOL0     H31719   9.383   7.921   9.836  2.1109 -0.0675  0.3153
  976MOL0     H31720   9.148   7.855   9.888 -2.2186 -0.6638  0.0346
  976MOL0     H31721   8.954   7.758   9.974  1.9439  3.7582 -1.8048
  976MOL0     H31722   8.524   7.535   9.911  2.1071  0.1776  0.2674
  976MOL0     H31723   8.330   7.449  10.048 -0.2411  2.0313 -2.8718
  976MOL0     H31724   8.229   7.600  10.297 -0.2336 -0.1004 -0.4386
  976MOL0     H31725   8.149   7.457  10.213 -1.3669  1.0490  0.7332
  976MOL0     H31726   8.207   7.489  10.512 -2.3522 -1.6034  2.1936
  976MOL0     H31727   8.047   7.510  10.436 -1.1636 -0.4110 -3.9286
  976MOL0     H31728   8.198   7.245  10.451 -0.6453 -1.8499 -0.6813
  976MOL0     H31729   8.078   7.307  10.564 -0.6279  0.2318 -0.4004
  976MOL0     H31730   8.049   7.276  10.267  1.1037 -0.0406 -0.1709
  976MOL0     H31731   7.924   7.348  10.368  1.0362 -0.6551 -1.0152
  976MOL0     H31732   7.884   7.150  10.504 -0.1055  1.4122 -1.0977
  976MOL0     H31733   8.025   7.072  10.462 -0.9874  0.2037  0.3124
  976MOL0     H31734   7.954   7.068  10.215 -0.8958 -4.5980 -0.4473
  976MOL0     H31735   7.898   6.964  10.330  1.4436 -0.4911 -2.8987
  976MOL0     H31736   7.708   7.194  10.281 -0.8720 -1.2157  1.0631
  976MOL0     H31737   7.687   7.046  10.355 -1.7011 -2.7027 -2.6320
  976MOL0     H31738   7.576   7.039  10.129 -0.8953  0.7732  0.9904
  976MOL0     H31739   7.721   7.069  10.045 -0.9812 -1.7211 -1.0141
  976MOL0     H31740   8.571   7.441  10.401 -2.4299 -1.3987 -0.0141
  976MOL0     H31741   8.759   7.471  10.264 -2.1808 -3.9171  2.2702
  976MOL0     H31742   9.139   7.358   9.956 -1.6422  0.4419  1.2384
  976MOL0     H31743   9.333   7.466   9.864  0.7233  0.5272  0.0719
  976MOL0     H31744   8.602   7.711  10.493 -3.0651 -1.4464  3.3166
  976MOL0     H31745   8.655   7.758  10.736  0.7083  1.9392  2.4058
  976MOL0     H31746   8.877   8.229  11.068 -0.4488 -0.5548 -1.1960
  976MOL0     H31747   8.842   8.333  11.269  1.0754  1.7919 -2.0151
  976MOL0     H31748   8.779   8.333  11.496  0.3776 -0.4454 -1.1960
  976MOL0     H31749   8.651   8.390  11.598  0.6764  0.7396  1.0212
  976MOL0     H31750   8.667   8.610  11.442  0.3709 -0.8098 -1.5663
  976MOL0     H31751   8.795   8.522  11.368 -1.0805 -1.0570  0.0585
  976MOL0     H31752   8.806   8.538  11.668 -0.3605 -1.2183  0.7186
  976MOL0     H31753   8.821   8.675  11.572  0.8611 -0.1393  3.6431
  976MOL0     H31754   8.994   8.567  11.422 -1.9124  2.8011 -0.3877
  976MOL0     H31755   9.043   8.628  11.578 -1.3489 -0.0624  1.7554
  976MOL0     H31756   9.065   8.191  11.605 -1.4764 -0.0718 -1.3823
  976MOL0     H31757   8.415   8.262  11.251 -0.2191  1.3366 -0.6159
  976MOL0     H31758   8.412   8.130  10.906 -0.6185  3.4328  0.1750
  976MOL0     H31759   8.417   8.012  11.046  0.1942 -0.2111 -3.0214
  976MOL0     H31760   8.331   8.154  11.053  1.0442  0.0135  2.6002
  977MOL0     O31761   8.179   1.762   1.189 -0.1436  0.7940  0.3490
  977MOL0     C31762   8.225   1.676   1.114 -0.1843  0.5075 -0.0029
  977MOL0     O31763   8.321   1.585   1.150 -0.6983 -0.0736 -0.6516
  977MOL0     C31764   8.364   1.496   1.054  0.5015  0.3529 -0.6561
  977MOL0     C31765   8.277   1.386   1.031 -0.4147  0.7424  0.6866
  977MOL0     C31766   8.308   1.287   0.936 -1.1308  0.4217  0.0455
  977MOL0     C31767   8.437   1.297   0.867  0.4449  0.5190 -0.0119
  977MOL0     O31768   8.493   1.185   0.800 -0.2001 -0.7824 -0.2160
  977MOL0     C31769   8.548   1.227   0.674 -0.3210  0.5235 -0.2876
  977MOL0     C31770   8.543   1.102   0.581  0.8523  0.2432 -0.6201
  977MOL0     C31771   8.395   1.065   0.556 -0.5419  0.0612  1.2220
  977MOL0     C31772   8.369   0.950   0.455  1.0937  0.4271  0.3810
  977MOL0     C31773   8.372   0.996   0.313  0.3020  0.0777  0.4883
  977MOL0     C31774   8.292   0.891   0.227 -0.4866 -0.3550 -0.5401
  977MOL0     C31775   8.249   0.953   0.095  0.1558 -0.7475  0.4261
  977MOL0     C31776   8.120   1.044   0.092  0.5886  0.3757 -0.5851
  977MOL0     N31777   7.996   0.981   0.130  0.1250  0.0301 -0.2615
  977MOL0     C31778   7.888   0.961   0.042 -0.8306  0.6550  0.2319
  977MOL0     C31779   7.784   0.940   0.124  0.9232  0.7057 -0.3169
  977MOL0     C31780   7.634   0.921   0.079 -0.4357  0.4226  0.4785
  977MOL0     C31781   7.527   0.889   0.179 -0.5000  0.3747 -0.3026
  977MOL0     C31782   7.545   0.746   0.245  0.2449  0.3058 -0.2353
  977MOL0     C31783   7.453   0.632   0.182  0.2389  0.2016 -0.4374
  977MOL0     O31784   7.512   0.585   0.054 -0.0077  0.6982 -0.0376
  977MOL0     C31785   7.445   0.501  -0.036 -0.3068 -0.5597  0.7139
  977MOL0     C31786   7.455   0.544  -0.170 -0.1959 -1.1143 -0.3715
  977MOL0     C31787   7.373   0.503  -0.269  0.5215  1.0208 -0.0598
  977MOL0     C31788   7.274   0.403  -0.236  0.0774 -0.2708  0.1004
  977MOL0     C31789   7.172   0.341  -0.337  0.3658  0.1325  1.4198
  977MOL0     O31790   7.180   0.378  -0.470  0.4625 -0.3272  0.0644
  977MOL0     C31791   7.092   0.301  -0.550 -1.0551 -0.4212 -0.8941
  977MOL0     C31792   7.139   0.204  -0.641  0.0163 -0.0730  0.0423
  977MOL0     C31793   7.043   0.135  -0.721 -0.2606  0.3640 -0.1238
  977MOL0     C31794   6.910   0.161  -0.712  0.4053 -0.1874  0.3200
  977MOL0     O31795   6.817   0.084  -0.776  0.7261  0.0667 -0.6162
  977MOL0     C31796   6.680   0.126  -0.794 -0.6896  0.1067 -0.5809
  977MOL0     C31797   6.672   0.249  -0.882 -0.4168  0.3740 -0.9184
  977MOL0     C31798   6.523   0.299  -0.877  0.1923  0.6558 -0.1257
  977MOL0     C31799   6.497   0.385  -1.004  0.2091  0.3973  1.1610
  977MOL0     C31800   6.348   0.442  -1.008 -0.8700  0.2239 -0.2174
  977MOL0     C31801   6.323   0.509  -1.146  0.2177 -0.7626 -0.5516
  977MOL0     C31802   6.333   0.414  -1.269 -0.0949  0.4986  0.3010
  977MOL0     C31803   6.280   0.478  -1.402  0.5793 -0.1959  0.2988
  977MOL0    Cl31804   6.392   0.618  -1.439 -0.0826  0.1931 -0.2257
  977MOL0     C31805   6.864   0.260  -0.616  0.0070 -0.3229  1.1146
  977MOL0     C31806   6.959   0.329  -0.538  0.0206 -0.3558 -0.3482
  977MOL0     O31807   7.108   0.243  -0.304  0.1172 -0.4785  0.2207
  977MOL0     C31808   7.263   0.366  -0.098 -0.3480  0.0993 -0.5080
  977MOL0     C31809   7.349   0.417  -0.004 -0.3588 -0.0521 -0.3503
  977MOL0     N31810   7.825   0.939   0.253 -0.3918 -0.1464 -0.6249
  977MOL0     N31811   7.947   0.964   0.260  0.2348 -0.1959  0.3079
  977MOL0     C31812   8.521   1.409   0.896  1.1677 -1.0925  0.5765
  977MOL0     C31813   8.488   1.505   0.996 -0.0001 -0.1148  0.7147
  977MOL0     C31814   8.179   1.700   0.980 -0.6407  0.0779  0.0998
  977MOL0     C31815   8.267   1.749   0.883  0.3627 -0.2295 -0.7650
  977MOL0     C31816   8.214   1.790   0.756 -0.9020  0.1496  1.0185
  977MOL0     C31817   8.077   1.791   0.734 -0.2964 -0.0914  0.9411
  977MOL0     O31818   8.031   1.838   0.612  0.1708  0.5935  0.5485
  977MOL0     C31819   7.951   1.751   0.525  0.2891  0.6781 -0.2140
  977MOL0     C31820   7.987   1.601   0.528 -0.1947 -0.4529  0.6364
  977MOL0     C31821   8.127   1.553   0.488 -0.4929  0.9405 -0.1323
  977MOL0     C31822   8.151   1.401   0.529 -0.2716  0.2063  0.7261
  977MOL0     C31823   8.042   1.322   0.473 -0.7490 -0.0270 -1.1168
  977MOL0     C31824   7.971   1.254   0.418  0.1759  1.1236  0.1616
  977MOL0     C31825   7.993   1.744   0.831  0.8455  0.6346 -0.1581
  977MOL0     C31826   8.037   1.688   0.952  0.5301  0.6086  0.7645
  977MOL0     C31827   7.929   1.638   1.046  0.1448  1.3326 -0.3521
  977MOL0     H31828   8.178   1.382   1.076  0.0475  1.4948  1.7925
  977MOL0     H31829   8.260   1.195   0.906  1.3703 -0.9528 -0.0030
  977MOL0     H31830   8.487   1.307   0.630 -1.4424  1.1354  2.2094
  977MOL0     H31831   8.646   1.275   0.689 -0.2878  0.3118  0.1775
  977MOL0     H31832   8.601   1.017   0.620 -0.6108 -0.2907  0.4711
  977MOL0     H31833   8.587   1.130   0.485 -1.6105  0.9816 -1.5844
  977MOL0     H31834   8.347   1.157   0.519  2.4028  1.4949  0.6421
  977MOL0     H31835   8.348   1.052   0.654 -1.1084  3.0913  1.4592
  977MOL0     H31836   8.439   0.869   0.476  0.0893 -0.4327  0.4803
  977MOL0     H31837   8.275   0.896   0.471  2.5451 -1.8462  1.7521
  977MOL0     H31838   8.320   1.092   0.317  0.3879  0.2373 -1.3251
  977MOL0     H31839   8.475   1.013   0.278  0.9178 -0.0332  2.1628
  977MOL0     H31840   8.364   0.808   0.220 -0.6612 -0.4753 -0.9298
  977MOL0     H31841   8.212   0.848   0.288  0.2139  2.2302  2.4939
  977MOL0     H31842   8.236   0.866   0.031  3.3640 -0.4555 -0.8461
  977MOL0     H31843   8.334   1.010   0.054 -2.3985  1.3672 -2.4069
  977MOL0     H31844   8.142   1.123   0.163 -1.4349 -0.7069  1.3696
  977MOL0     H31845   8.124   1.091  -0.007  1.1954 -0.6321 -1.0627
  977MOL0     H31846   7.900   0.959  -0.066  4.1025  0.8648  0.5397
  977MOL0     H31847   7.593   1.011   0.033 -0.4161  0.7419  1.0692
  977MOL0     H31848   7.629   0.841   0.005  1.0005  0.4660  0.2949
  977MOL0     H31849   7.515   0.965   0.257 -2.2827  1.7265 -1.8105
  977MOL0     H31850   7.424   0.887   0.141 -1.8542 -0.8243  2.9641
  977MOL0     H31851   7.513   0.753   0.349 -1.1245 -0.0047 -0.6167
  977MOL0     H31852   7.648   0.711   0.229  1.4079  3.5125 -0.5913
  977MOL0     H31853   7.351   0.671   0.184 -0.9137 -2.4124  3.0804
  977MOL0     H31854   7.441   0.549   0.252 -2.9488  1.1315  0.2719
  977MOL0     H31855   7.533   0.617  -0.185  1.8296 -1.9795  4.3064
  977MOL0     H31856   7.377   0.542  -0.370 -3.2078  1.1180 -0.3305
  977MOL0     H31857   7.246   0.187  -0.636  0.0525  0.2515  0.4883
  977MOL0     H31858   7.086   0.059  -0.785  1.8372 -0.2143  1.8256
  977MOL0     H31859   6.619   0.044  -0.833  1.3088 -3.0344  2.3804
  977MOL0     H31860   6.632   0.141  -0.697 -0.7765 -3.0460 -0.0417
  977MOL0     H31861   6.743   0.330  -0.865  0.6943 -0.9063  0.8667
  977MOL0     H31862   6.683   0.220  -0.987  0.2900  3.7864 -1.9185
  977MOL0     H31863   6.456   0.212  -0.879  0.3341  0.4880  1.3201
  977MOL0     H31864   6.497   0.366  -0.795 -0.6749 -0.3374  0.4382
  977MOL0     H31865   6.517   0.331  -1.097  0.2243 -0.0291  1.4101
  977MOL0     H31866   6.571   0.465  -0.997 -0.9075  1.4305  1.4996
  977MOL0     H31867   6.338   0.520  -0.932 -1.3627  3.3030 -3.2227
  977MOL0     H31868   6.268   0.373  -0.977 -1.4180  0.9901  0.1018
  977MOL0     H31869   6.228   0.563  -1.148  0.5042 -0.2652 -0.9821
  977MOL0     H31870   6.409   0.577  -1.157  0.5059 -0.8344  0.9684
  977MOL0     H31871   6.276   0.328  -1.233 -3.0210  2.2964  0.3684
  977MOL0     H31872   6.435   0.380  -1.288 -0.3435 -1.6417  2.4027
  977MOL0     H31873   6.289   0.392  -1.470 -0.6887 -1.5880  1.8076
  977MOL0     H31874   6.176   0.510  -1.401  1.5414  3.5206 -1.8209
  977MOL0     H31875   6.760   0.285  -0.597 -1.2764 -2.5399 -2.1599
  977MOL0     H31876   6.916   0.408  -0.478 -2.8420 -0.7903 -1.6824
  977MOL0     H31877   7.193   0.287  -0.073  0.1671 -0.3032 -0.3197
  977MOL0     H31878   7.344   0.376   0.097 -0.4672 -0.5512 -0.5586
  977MOL0     H31879   8.616   1.421   0.845 -1.0414 -2.1409 -4.4916
  977MOL0     H31880   8.556   1.583   1.027 -0.6621  0.2926  1.1612
  977MOL0     H31881   8.369   1.766   0.917  0.1569 -1.0169  0.3035
  977MOL0     H31882   8.290   1.835   0.693 -0.4477  1.5690  2.5355
  977MOL0     H31883   7.958   1.797   0.426  0.4330  2.2078  0.4701
  977MOL0     H31884   7.849   1.755   0.564  0.4630  0.5109  0.2619
  977MOL0     H31885   7.917   1.560   0.455 -1.5555  3.3187 -0.3961
  977MOL0     H31886   7.969   1.565   0.630  1.0059  0.8196  1.3276
  977MOL0     H31887   8.210   1.609   0.531  0.7294  0.7439 -2.1294
  977MOL0     H31888   8.130   1.572   0.380  3.2648  2.3178  0.0656
  977MOL0     H31889   8.248   1.367   0.494  0.1242  0.5594  1.4640
  977MOL0     H31890   8.151   1.383   0.637  0.0694  2.4994  1.1706
  977MOL0     H31891   7.891   1.195   0.378  0.3346  1.7848 -1.2090
  977MOL0     H31892   7.886   1.740   0.813  0.3119  0.8886  2.5476
  977MOL0     H31893   7.962   1.564   1.119 -2.9158 -2.9388 -2.8234
  977MOL0     H31894   7.881   1.718   1.103 -2.2613 -0.2845  0.0547
  977MOL0     H31895   7.846   1.591   0.992  1.7906 -3.6899  0.9514
  978MOL0     O31896   8.661   1.449   8.677  1.1313  0.3918  0.2511
  978MOL0     C31897   8.547   1.478   8.629 -0.4979 -0.9775  0.4632
  978MOL0     O31898   8.434   1.459   8.691 -0.1826 -0.4574 -0.6169
  978MOL0     C31899   8.442   1.405   8.821  0.2853  0.7031 -0.3547
  978MOL0     C31900   8.449   1.487   8.931  0.1699  0.0441  0.5598
  978MOL0     C31901   8.432   1.420   9.053 -0.3319  0.7122  0.7748
  978MOL0     C31902   8.417   1.290   9.075 -0.9854  0.2187  1.3495
  978MOL0     O31903   8.407   1.252   9.207  0.2177  0.1384  0.1051
  978MOL0     C31904   8.497   1.149   9.250 -0.4327  0.9606  0.5620
  978MOL0     C31905   8.643   1.194   9.264 -1.0532 -0.6009  0.7254
  978MOL0     C31906   8.735   1.067   9.293  0.4936  0.3300 -0.5307
  978MOL0     C31907   8.707   0.995   9.428 -0.3393  0.9007 -0.9510
  978MOL0     C31908   8.811   0.903   9.470  0.3265 -0.1367  0.5548
  978MOL0     C31909   8.787   0.824   9.590  0.4158  0.3898 -0.3269
  978MOL0     C31910   8.920   0.775   9.653  0.0167  0.5943 -0.3673
  978MOL0     C31911   8.941   0.626   9.646  0.2386  0.2364  0.0519
  978MOL0     N31912   9.078   0.588   9.665 -0.0062 -0.5538  0.1454
  978MOL0     C31913   9.168   0.540   9.568 -1.0904 -0.7561  0.4145
  978MOL0     C31914   9.286   0.521   9.628  0.1430 -0.1241 -0.0362
  978MOL0     C31915   9.410   0.453   9.578  0.4227 -0.1866 -0.7323
  978MOL0     C31916   9.399   0.302   9.579  0.7589  0.7292 -1.0620
  978MOL0     C31917   9.361   0.239   9.726 -0.6069 -0.0429  0.2431
  978MOL0     C31918   9.365   0.085   9.717  0.2663  0.4260  0.2009
  978MOL0     O31919   9.264   0.046   9.620 -0.3284 -0.8624  0.2160
  978MOL0     C31920   9.268  -0.080   9.564 -0.7207  0.0001 -0.7962
  978MOL0     C31921   9.212  -0.086   9.435  0.5162 -0.9733 -0.3421
  978MOL0     C31922   9.213  -0.214   9.377  1.2183  0.0866  0.3544
  978MOL0     C31923   9.261  -0.334   9.431 -0.2210 -0.8495 -1.2197
  978MOL0     C31924   9.221  -0.463   9.390 -1.0280  1.0388  0.0761
  978MOL0     O31925   9.291  -0.565   9.440 -0.6375  0.3422  0.3443
  978MOL0     C31926   9.253  -0.692   9.410  0.2416  0.7578  1.1479
  978MOL0     C31927   9.262  -0.743   9.279 -0.5660  0.1662  0.5775
  978MOL0     C31928   9.230  -0.874   9.248 -0.7890  0.3390 -0.4699
  978MOL0     C31929   9.201  -0.969   9.350  0.3732  0.4457 -1.1501
  978MOL0     O31930   9.185  -1.103   9.328  0.5791  0.7882 -0.1654
  978MOL0     C31931   9.137  -1.139   9.200 -0.0969 -0.1940  0.1241
  978MOL0     C31932   8.995  -1.097   9.167  0.5231 -0.3388 -0.1791
  978MOL0     C31933   8.933  -1.187   9.046 -1.1058  0.0446  0.4567
  978MOL0     C31934   8.875  -1.329   9.093  0.7077  0.5491  0.5373
  978MOL0     C31935   8.818  -1.402   8.965  0.2506  0.2042 -0.3164
  978MOL0     C31936   8.931  -1.426   8.867 -0.3269  0.5452  0.2414
  978MOL0     C31937   8.887  -1.522   8.756 -0.1394 -0.6723 -0.5414
  978MOL0     C31938   8.995  -1.627   8.727 -0.2212 -0.1512 -0.0630
  978MOL0    Cl31939   9.036  -1.717   8.873 -0.3780 -0.4534  0.1413
  978MOL0     C31940   9.202  -0.924   9.485  0.3538 -0.7066 -0.5806
  978MOL0     C31941   9.226  -0.785   9.513  0.5782 -0.4857 -0.8277
  978MOL0     O31942   9.131  -0.476   9.302 -0.0382 -0.3546  0.3705
  978MOL0     C31943   9.331  -0.320   9.557 -0.0066 -0.5665  0.7712
  978MOL0     C31944   9.329  -0.196   9.624  0.6917  1.1509 -0.2940
  978MOL0     N31945   9.269   0.554   9.755 -0.5259  0.0807 -1.6587
  978MOL0     N31946   9.145   0.580   9.783 -0.4293 -0.3103 -0.4024
  978MOL0     C31947   8.417   1.214   8.965 -0.1396 -0.2292 -0.4704
  978MOL0     C31948   8.429   1.265   8.836  0.0678 -0.9659  0.2741
  978MOL0     C31949   8.536   1.546   8.493 -0.4991  1.1227  0.0042
  978MOL0     C31950   8.412   1.592   8.454  0.7518 -0.8930 -1.1570
  978MOL0     C31951   8.405   1.661   8.326  0.2273 -0.3786 -0.0572
  978MOL0     C31952   8.510   1.683   8.243 -0.8788  0.1835  0.9086
  978MOL0     O31953   8.497   1.762   8.131  0.4524 -0.5632 -0.2088
  978MOL0     C31954   8.606   1.825   8.057  0.1740  1.2050  0.1418
  978MOL0     C31955   8.556   1.952   7.991  0.8533  0.2410 -0.8560
  978MOL0     C31956   8.442   1.929   7.888 -0.6151  0.3216  1.1239
  978MOL0     C31957   8.349   2.044   7.835 -0.0557 -0.2173 -0.3973
  978MOL0     C31958   8.216   1.990   7.780 -0.1404 -0.2978  0.6232
  978MOL0     C31959   8.106   1.962   7.734 -0.4003 -0.2100  0.8479
  978MOL0     C31960   8.631   1.632   8.272  0.7109  1.3117 -0.4873
  978MOL0     C31961   8.648   1.552   8.394  0.6642  0.0679 -0.3197
  978MOL0     C31962   8.788   1.504   8.408 -0.6860  0.0477 -0.6160
  978MOL0     H31963   8.439   1.595   8.927  0.2920  0.0876  1.3792
  978MOL0     H31964   8.429   1.491   9.134 -0.9607  2.3943 -0.6562
  978MOL0     H31965   8.459   1.114   9.347 -0.2219  0.0135  0.3186
  978MOL0     H31966   8.497   1.061   9.186  4.6075 -0.3381  1.8287
  978MOL0     H31967   8.653   1.248   9.358  2.1332 -2.9321  1.9198
  978MOL0     H31968   8.666   1.245   9.170  0.4040 -5.4649 -1.9109
  978MOL0     H31969   8.829   1.122   9.297  1.8977 -2.0327  1.7432
  978MOL0     H31970   8.732   0.992   9.213 -0.0544 -1.6383  1.2222
  978MOL0     H31971   8.691   1.077   9.499  1.9428  0.0288  0.6651
  978MOL0     H31972   8.620   0.929   9.418  0.7300 -0.9073  0.9997
  978MOL0     H31973   8.846   0.843   9.385 -1.5464  3.8692 -3.4690
  978MOL0     H31974   8.897   0.966   9.495  0.3897 -0.9643  2.5642
  978MOL0     H31975   8.735   0.900   9.649 -0.5785  1.5274 -2.5421
  978MOL0     H31976   8.722   0.742   9.558  0.5406 -0.1310  0.7312
  978MOL0     H31977   8.933   0.790   9.761  0.9523 -1.4436 -0.1574
  978MOL0     H31978   8.996   0.819   9.588 -1.1021  1.0679 -1.3785
  978MOL0     H31979   8.875   0.572   9.714 -0.8570  1.2709 -0.1656
  978MOL0     H31980   8.914   0.598   9.544 -0.2244  2.7054 -0.5726
  978MOL0     H31981   9.132   0.538   9.466  2.1942 -3.1334 -0.8765
  978MOL0     H31982   9.443   0.490   9.480  0.3813  0.2873 -0.5709
  978MOL0     H31983   9.503   0.468   9.634  0.7761 -1.2169 -1.0151
  978MOL0     H31984   9.315   0.270   9.516 -1.6352  0.6135  1.9108
  978MOL0     H31985   9.494   0.270   9.536  1.3096  1.2048 -0.2431
  978MOL0     H31986   9.258   0.274   9.742 -0.2238  2.4305 -1.9929
  978MOL0     H31987   9.434   0.279   9.796  0.7213 -0.7468 -0.7105
  978MOL0     H31988   9.349   0.057   9.822  2.2598 -1.3685  0.0974
  978MOL0     H31989   9.467   0.055   9.692  0.6069  2.7448 -1.4595
  978MOL0     H31990   9.158  -0.005   9.389 -0.3726 -1.2823  0.1343
  978MOL0     H31991   9.164  -0.234   9.282 -0.9071 -4.0999  2.0638
  978MOL0     H31992   9.280  -0.665   9.206 -0.4972 -0.7796 -0.4453
  978MOL0     H31993   9.247  -0.914   9.148  1.8558 -0.6140  0.2866
  978MOL0     H31994   9.196  -1.108   9.113  1.5689 -0.6337  1.0333
  978MOL0     H31995   9.141  -1.249   9.197 -2.8562 -0.3427 -2.6395
  978MOL0     H31996   8.918  -1.117   9.241  2.4323  1.8214  2.5712
  978MOL0     H31997   8.994  -0.993   9.133  1.3745 -0.6303 -1.1643
  978MOL0     H31998   8.863  -1.121   8.995 -1.7250 -0.3288  0.8124
  978MOL0     H31999   9.008  -1.199   8.968 -0.4897  2.9128  0.4875
  978MOL0     H32000   8.794  -1.303   9.161 -1.2862  1.5061 -2.0081
  978MOL0     H32001   8.942  -1.388   9.156  0.0788 -0.6586  0.1001
  978MOL0     H32002   8.736  -1.344   8.922  0.4664  1.1106  0.4522
  978MOL0     H32003   8.785  -1.505   8.983  0.6878 -0.2970 -2.1858
  978MOL0     H32004   8.953  -1.333   8.813 -0.5268  1.0976  1.0837
  978MOL0     H32005   9.023  -1.456   8.918 -1.7260  0.9013  3.2245
  978MOL0     H32006   8.859  -1.469   8.664 -2.1313  1.2343  1.0506
  978MOL0     H32007   8.794  -1.574   8.780 -0.7383 -0.6678 -2.6442
  978MOL0     H32008   8.953  -1.695   8.652 -2.7623  1.7124 -0.4582
  978MOL0     H32009   9.080  -1.585   8.672 -1.6312  0.5815 -1.7634
  978MOL0     H32010   9.158  -0.981   9.566 -1.9327 -0.9866 -1.9309
  978MOL0     H32011   9.228  -0.757   9.618 -0.0811 -1.3923 -0.5614
  978MOL0     H32012   9.385  -0.403   9.600  1.8611 -0.4223 -1.1567
  978MOL0     H32013   9.381  -0.173   9.717 -1.3597 -1.1534  1.5801
  978MOL0     H32014   8.401   1.107   8.972 -0.6626 -0.0615  1.2072
  978MOL0     H32015   8.432   1.197   8.751  3.6946  0.3498 -0.8058
  978MOL0     H32016   8.325   1.568   8.515 -0.7213 -0.6167 -3.0433
  978MOL0     H32017   8.310   1.702   8.291 -0.1853  1.5080  2.9398
  978MOL0     H32018   8.650   1.749   7.992 -0.9928 -2.1493  2.9449
  978MOL0     H32019   8.686   1.845   8.128 -0.5769 -0.7451  1.6291
  978MOL0     H32020   8.647   1.996   7.949  2.0565 -1.5389 -0.2589
  978MOL0     H32021   8.515   2.005   8.077 -1.9806 -0.3896 -1.7407
  978MOL0     H32022   8.387   1.845   7.931  0.1800 -0.7093  0.1823
  978MOL0     H32023   8.493   1.885   7.802  0.5255 -0.1611  2.0192
  978MOL0     H32024   8.313   2.101   7.921 -0.7697  1.6298 -1.8558
  978MOL0     H32025   8.389   2.109   7.757  1.0291  0.3630  0.6166
  978MOL0     H32026   8.011   1.951   7.686 -0.0929 -1.8847  0.5662
  978MOL0     H32027   8.718   1.648   8.209  1.0329 -1.6650 -0.9174
  978MOL0     H32028   8.795   1.397   8.386 -2.1416 -0.5751  1.6497
  978MOL0     H32029   8.851   1.570   8.347 -1.6711 -0.2341 -2.0063
  978MOL0     H32030   8.832   1.519   8.507  2.9801 -0.3202 -2.0079
  979MOL0     O32031   8.198   4.728   9.303  0.8630  0.6160  0.3260
  979MOL0     C32032   8.156   4.793   9.401 -0.5535 -0.8739 -0.1211
  979MOL0     O32033   8.202   4.915   9.445 -0.5266  0.1664  1.0408
  979MOL0     C32034   8.273   5.005   9.358  0.7496 -0.8532  0.2554
  979MOL0     C32035   8.219   5.130   9.346 -0.6139  0.1119 -0.5110
  979MOL0     C32036   8.277   5.227   9.263 -0.4170  0.4458 -0.7661
  979MOL0     C32037   8.370   5.191   9.171 -0.8504  1.2190  0.3727
  979MOL0     O32038   8.433   5.275   9.084 -0.2373  0.1365 -0.2768
  979MOL0     C32039   8.385   5.409   9.077 -1.7943  1.0486 -0.1557
  979MOL0     C32040   8.439   5.475   8.947  0.1091 -0.3499 -0.5188
  979MOL0     C32041   8.325   5.470   8.843  0.2775 -0.1875  0.0888
  979MOL0     C32042   8.351   5.515   8.699  0.1029  0.6426  0.1169
  979MOL0     C32043   8.396   5.660   8.692  0.0185 -0.5320 -0.5746
  979MOL0     C32044   8.450   5.706   8.559 -0.4508  0.0632 -0.0041
  979MOL0     C32045   8.346   5.718   8.449  0.1011  0.2628 -0.1776
  979MOL0     C32046   8.249   5.827   8.465  0.5441 -0.7084  0.1404
  979MOL0     N32047   8.185   5.858   8.336 -1.1086  0.2131 -0.1232
  979MOL0     C32048   8.223   5.975   8.278 -0.3659  0.1722 -0.5608
  979MOL0     C32049   8.123   6.006   8.195 -0.2696  0.6255  0.7036
  979MOL0     C32050   8.109   6.136   8.110  0.1996 -0.2537 -0.3161
  979MOL0     C32051   8.066   6.257   8.195 -0.4190  0.4019 -0.0096
  979MOL0     C32052   8.171   6.326   8.275 -0.1292 -0.0888 -1.0444
  979MOL0     C32053   8.297   6.401   8.211 -0.6838  1.5516 -0.4064
  979MOL0     O32054   8.288   6.446   8.076 -0.2367  0.1863  0.3756
  979MOL0     C32055   8.227   6.566   8.062  0.1135 -0.2665 -0.0284
  979MOL0     C32056   8.276   6.684   8.127 -0.3060  0.5031 -0.2012
  979MOL0     C32057   8.198   6.800   8.113  0.8977  0.1308 -0.3601
  979MOL0     C32058   8.089   6.813   8.031  0.1503  0.1311  0.7611
  979MOL0     C32059   8.026   6.946   7.986 -1.2672 -0.2784 -0.5131
  979MOL0     O32060   8.068   7.061   8.055  0.4672 -0.0411 -0.0292
  979MOL0     C32061   8.015   7.179   8.013  0.1417  1.0960  0.0575
  979MOL0     C32062   7.943   7.243   8.115  0.0299  0.0559  1.1229
  979MOL0     C32063   7.880   7.359   8.081  0.7791  0.2400  0.1504
  979MOL0     C32064   7.885   7.410   7.951 -0.0229  0.9285  0.7757
  979MOL0     O32065   7.819   7.522   7.921 -0.1780  0.1968  0.1255
  979MOL0     C32066   7.880   7.641   7.972 -0.4359  0.8249 -0.3581
  979MOL0     C32067   7.762   7.732   7.984 -0.6759  0.6163  0.6352
  979MOL0     C32068   7.803   7.844   8.077  0.1273 -0.6207 -0.2526
  979MOL0     C32069   7.694   7.951   8.067 -0.9203  0.3613  0.1399
  979MOL0     C32070   7.573   7.920   8.148  0.0037 -0.0540 -0.5401
  979MOL0     C32071   7.452   7.992   8.095 -0.3215  0.4864  0.2993
  979MOL0     C32072   7.384   7.937   7.965 -1.0300 -0.4306  0.5296
  979MOL0     C32073   7.286   8.023   7.898  0.3680  0.4041  0.8737
  979MOL0    Cl32074   7.157   8.044   8.008 -0.7131  0.3438 -0.0462
  979MOL0     C32075   7.947   7.352   7.847 -0.3150  0.5805  0.2394
  979MOL0     C32076   8.008   7.227   7.877 -0.0552  0.2933  0.0508
  979MOL0     O32077   7.937   6.939   7.905 -0.3946 -0.1150  0.7188
  979MOL0     C32078   8.044   6.700   7.971 -0.4432 -0.0726  0.0258
  979MOL0     C32079   8.105   6.581   7.995 -0.3120  0.4162 -0.6502
  979MOL0     N32080   8.028   5.905   8.216 -0.9379  0.3652  0.0762
  979MOL0     N32081   8.069   5.816   8.292  0.0514 -0.3853  0.5702
  979MOL0     C32082   8.439   5.071   9.188  0.6125  0.4875 -0.3823
  979MOL0     C32083   8.383   4.974   9.278 -0.2259 -0.4084 -0.1287
  979MOL0     C32084   8.050   4.728   9.476 -0.4626 -0.8437 -0.2497
  979MOL0     C32085   8.030   4.788   9.606 -0.1324 -0.4080  0.2222
  979MOL0     C32086   7.933   4.734   9.686 -0.3158  1.1912 -0.6037
  979MOL0     C32087   7.849   4.628   9.645  0.2550  0.4123 -0.5431
  979MOL0     O32088   7.770   4.564   9.738  1.0174 -0.3583 -0.5159
  979MOL0     C32089   7.635   4.551   9.697  0.2062 -1.3563  0.2652
  979MOL0     C32090   7.538   4.522   9.814  0.1591 -1.2673 -0.0350
  979MOL0     C32091   7.512   4.377   9.826  0.0300 -1.1432 -0.4341
  979MOL0     C32092   7.455   4.332   9.958  0.1936  0.5147 -0.0903
  979MOL0     C32093   7.307   4.360   9.971 -0.5881 -0.9544 -0.2892
  979MOL0     C32094   7.191   4.380   9.984  0.2186 -0.0858  0.4235
  979MOL0     C32095   7.879   4.566   9.525  0.2531 -0.6630 -0.0114
  979MOL0     C32096   7.976   4.615   9.437 -0.1088 -1.3346 -0.6981
  979MOL0     C32097   8.004   4.531   9.322 -0.2052  0.2370 -0.9579
  979MOL0     H32098   8.140   5.158   9.415 -0.5655 -0.7519 -0.0839
  979MOL0     H32099   8.237   5.327   9.254  2.6273  1.5825 -3.9641
  979MOL0     H32100   8.283   5.444   9.094 -1.8259  0.9062 -0.0449
  979MOL0     H32101   8.430   5.448   9.169 -2.8050 -2.8842  2.2407
  979MOL0     H32102   8.530   5.424   8.913  0.5295 -0.0228  0.1081
  979MOL0     H32103   8.461   5.581   8.965  1.8741 -0.8093  0.2337
  979MOL0     H32104   8.238   5.526   8.878  0.5901  0.0732  0.4509
  979MOL0     H32105   8.299   5.364   8.848  0.7245 -0.3417 -0.6986
  979MOL0     H32106   8.421   5.447   8.650 -1.0933 -1.6203  1.3683
  979MOL0     H32107   8.262   5.502   8.636 -0.4585 -1.6150  1.2485
  979MOL0     H32108   8.325   5.732   8.736  1.8123  0.2922  1.1015
  979MOL0     H32109   8.484   5.666   8.756 -0.1893 -0.4175 -0.2920
  979MOL0     H32110   8.483   5.809   8.575 -3.0187  0.9036  0.4551
  979MOL0     H32111   8.527   5.644   8.514  1.1764  1.1559  1.1722
  979MOL0     H32112   8.300   5.620   8.436 -0.6779  0.4632  0.9014
  979MOL0     H32113   8.404   5.742   8.360  0.4503  0.9794  0.2349
  979MOL0     H32114   8.177   5.791   8.538 -1.3273  0.0355 -1.2559
  979MOL0     H32115   8.306   5.912   8.503 -1.5596  1.6040 -1.5456
  979MOL0     H32116   8.308   6.042   8.289 -1.2274  1.3838 -1.0270
  979MOL0     H32117   8.196   6.162   8.049 -1.5644  0.6514 -2.6178
  979MOL0     H32118   8.026   6.114   8.042 -0.7492  0.8225  0.4418
  979MOL0     H32119   8.011   6.326   8.131 -2.0415  0.1882  1.0758
  979MOL0     H32120   8.008   6.202   8.270 -0.4505  0.6705  0.1643
  979MOL0     H32121   8.210   6.253   8.347  2.1988  2.8205  0.8808
  979MOL0     H32122   8.118   6.402   8.334 -0.0384  2.2069 -3.7420
  979MOL0     H32123   8.377   6.326   8.210 -0.9284  1.2925 -0.4164
  979MOL0     H32124   8.341   6.478   8.275  3.2175 -0.2754 -0.5715
  979MOL0     H32125   8.366   6.690   8.188 -1.4993  0.0207  1.6823
  979MOL0     H32126   8.240   6.892   8.150 -0.5443  0.5758  0.2456
  979MOL0     H32127   7.941   7.201   8.215 -0.8449 -2.6753  0.0498
  979MOL0     H32128   7.803   7.394   8.149 -0.8286  1.8530 -2.3533
  979MOL0     H32129   7.927   7.621   8.069 -0.1452 -1.1849 -0.8623
  979MOL0     H32130   7.959   7.672   7.903 -1.5959  2.5227 -0.9966
  979MOL0     H32131   7.725   7.761   7.885 -2.1432  0.6633  1.1745
  979MOL0     H32132   7.681   7.674   8.028 -1.1509  1.3497  0.7552
  979MOL0     H32133   7.813   7.808   8.180 -2.6247 -0.2791  0.2051
  979MOL0     H32134   7.891   7.896   8.036 -0.0773 -0.3087 -0.2979
  979MOL0     H32135   7.659   7.947   7.963 -2.3401 -1.5969  0.6251
  979MOL0     H32136   7.735   8.049   8.091 -0.5203  0.6129 -1.4676
  979MOL0     H32137   7.593   7.929   8.255 -0.9362 -0.6660 -0.2974
  979MOL0     H32138   7.547   7.814   8.145  1.4822 -0.5189  1.2755
  979MOL0     H32139   7.384   8.000   8.181 -2.3568  0.4020 -1.2351
  979MOL0     H32140   7.479   8.093   8.066 -0.4259  0.6544  0.7686
  979MOL0     H32141   7.341   7.839   7.991  0.6566 -0.8488  1.9191
  979MOL0     H32142   7.470   7.915   7.902 -0.9263 -3.1927  1.4948
  979MOL0     H32143   7.336   8.116   7.869 -2.3994  0.9076 -3.0557
  979MOL0     H32144   7.256   7.979   7.802  2.0997  1.8115 -0.3793
  979MOL0     H32145   7.961   7.378   7.742  3.4556 -2.5210 -0.2440
  979MOL0     H32146   8.059   7.163   7.806 -2.4510 -1.8414  0.0872
  979MOL0     H32147   7.948   6.713   7.921 -0.9868  2.8598  1.6424
  979MOL0     H32148   8.065   6.484   7.967 -1.0295  0.7374 -0.7646
  979MOL0     H32149   8.535   5.045   9.143 -0.3007 -1.1356 -1.4811
  979MOL0     H32150   8.431   4.878   9.287 -0.9534 -0.7593  0.0946
  979MOL0     H32151   8.109   4.852   9.646  0.2318 -0.4860 -0.3598
  979MOL0     H32152   7.931   4.772   9.787 -0.2966  0.6318 -0.3880
  979MOL0     H32153   7.628   4.470   9.625  0.7989 -1.1156 -0.0669
  979MOL0     H32154   7.604   4.633   9.632  0.1751  1.2442  3.2931
  979MOL0     H32155   7.444   4.564   9.776  0.9848 -1.5062 -2.5191
  979MOL0     H32156   7.567   4.580   9.902  3.9033 -1.5379 -0.9219
  979MOL0     H32157   7.608   4.327   9.816  0.5876  0.0101 -1.0499
  979MOL0     H32158   7.441   4.348   9.748 -0.4769 -4.3509  1.0568
  979MOL0     H32159   7.483   4.227   9.968  4.4712  1.2563 -2.2332
  979MOL0     H32160   7.496   4.374  10.050  0.8911  0.4354 -0.3613
  979MOL0     H32161   7.084   4.385   9.985  0.1730 -0.5906  2.3944
  979MOL0     H32162   7.838   4.469   9.500  0.2128 -0.1764 -1.9355
  979MOL0     H32163   7.946   4.439   9.329  1.7112 -0.9202  1.0065
  979MOL0     H32164   7.989   4.575   9.223 -0.7423  1.7927 -0.2126
  979MOL0     H32165   8.103   4.484   9.322 -0.2213  0.2054 -0.7501
  980MOL0     O32166   2.019   1.515   7.563  0.3315 -0.2940 -0.2578
  980MOL0     C32167   1.926   1.459   7.615  0.4537 -0.6996  0.0653
  980MOL0     O32168   1.908   1.447   7.754  0.2795 -0.6660 -0.0567
  980MOL0     C32169   1.996   1.412   7.844 -1.7480  0.6539  0.3754
  980MOL0     C32170   1.976   1.416   7.985  1.1665  0.1789 -0.5474
  980MOL0     C32171   2.078   1.378   8.073  0.0954  0.2521 -0.7381
  980MOL0     C32172   2.206   1.334   8.030  0.7994 -1.2478  0.6189
  980MOL0     O32173   2.307   1.290   8.108  0.5816  0.2970  0.4967
  980MOL0     C32174   2.309   1.307   8.249  0.3014 -1.6032 -0.0274
  980MOL0     C32175   2.431   1.240   8.297 -0.9313 -0.6022  0.4130
  980MOL0     C32176   2.563   1.326   8.286  0.2111  0.7340  0.2522
  980MOL0     C32177   2.682   1.235   8.305 -0.2668  0.1272  0.0881
  980MOL0     C32178   2.826   1.308   8.310  0.2961  0.6955 -0.1249
  980MOL0     C32179   2.859   1.381   8.438  0.1955  0.5175 -0.1541
  980MOL0     C32180   2.824   1.296   8.560 -0.3980 -0.0401 -0.1561
  980MOL0     C32181   2.888   1.155   8.564  0.6561 -0.5014 -0.7958
  980MOL0     N32182   2.843   1.079   8.686 -0.6334 -0.8897 -0.6834
  980MOL0     C32183   2.904   1.092   8.811 -0.5565  0.8155  0.4326
  980MOL0     C32184   2.833   1.013   8.893  0.0048 -0.2380  0.1277
  980MOL0     C32185   2.878   0.995   9.033  0.4346  0.6798 -1.3208
  980MOL0     C32186   2.752   0.981   9.116 -0.1679 -0.6768  0.3468
  980MOL0     C32187   2.792   0.966   9.263  0.1310  0.5327  0.5286
  980MOL0     C32188   2.659   0.970   9.356 -0.2981  0.3913 -0.3045
  980MOL0     O32189   2.581   0.851   9.357 -0.0723  0.2766  0.2171
  980MOL0     C32190   2.479   0.837   9.449  0.8157  0.6752 -0.5450
  980MOL0     C32191   2.414   0.705   9.444 -0.3164 -0.2312 -0.5307
  980MOL0     C32192   2.318   0.679   9.532  1.5742  0.1798 -0.9413
  980MOL0     C32193   2.268   0.774   9.631 -0.5589 -1.0403  0.9511
  980MOL0     C32194   2.155   0.747   9.724  0.0959  0.3674  0.2539
  980MOL0     O32195   2.135   0.836   9.828  0.1336  0.7067  0.2386
  980MOL0     C32196   2.076   0.790   9.947  0.9607 -0.3112 -0.8203
  980MOL0     C32197   2.135   0.817  10.071 -0.4800  0.6270 -0.1440
  980MOL0     C32198   2.071   0.767  10.186 -0.5204  0.3405  0.0989
  980MOL0     C32199   1.951   0.695  10.185  0.3337 -0.2021 -0.4760
  980MOL0     O32200   1.885   0.629  10.289 -0.6961 -0.3748  0.1556
  980MOL0     C32201   1.969   0.525  10.348  0.2108 -0.3838  0.0767
  980MOL0     C32202   1.956   0.536  10.502 -0.0747  0.2903  0.1440
  980MOL0     C32203   1.806   0.529  10.551 -1.2481  0.0599  0.5757
  980MOL0     C32204   1.791   0.503  10.700  0.3194  0.7313  0.1270
  980MOL0     C32205   1.843   0.619  10.778  0.0854 -0.1904  0.2296
  980MOL0     C32206   1.823   0.607  10.938 -0.6095 -0.2359  0.5286
  980MOL0     C32207   1.676   0.553  10.978 -0.1754 -0.1155  0.5787
  980MOL0     C32208   1.636   0.552  11.123  0.3089  0.5888  0.0787
  980MOL0    Cl32209   1.710   0.415  11.217 -0.2651  0.3132  0.2828
  980MOL0     C32210   1.881   0.688  10.063 -0.6346 -0.2162 -0.1439
  980MOL0     C32211   1.954   0.721   9.948  0.2795  0.1740 -0.1768
  980MOL0     O32212   2.085   0.647   9.703 -0.1371  0.0432 -0.4025
  980MOL0     C32213   2.331   0.895   9.630 -0.2125 -1.2295  0.0643
  980MOL0     C32214   2.428   0.927   9.539  0.0108 -0.2460  0.5341
  980MOL0     N32215   2.725   0.974   8.826 -0.3442 -0.2495 -0.0993
  980MOL0     N32216   2.736   1.004   8.705  0.6663  0.6546  0.6523
  980MOL0     C32217   2.225   1.320   7.886  0.0749  0.8434 -0.1555
  980MOL0     C32218   2.122   1.370   7.805  0.0902 -0.3128  1.2224
  980MOL0     C32219   1.808   1.432   7.530 -0.0263 -0.5152 -0.4718
  980MOL0     C32220   1.690   1.375   7.584 -0.7310 -0.0804  0.0527
  980MOL0     C32221   1.572   1.357   7.515 -0.6386  0.2806  0.6152
  980MOL0     C32222   1.573   1.374   7.373  1.1225 -0.3790 -0.3522
  980MOL0     O32223   1.459   1.350   7.303 -0.2846 -0.0901 -0.1210
  980MOL0     C32224   1.450   1.291   7.171 -0.0927 -0.0405  0.6351
  980MOL0     C32225   1.507   1.148   7.170 -1.6566 -1.4666 -0.9314
  980MOL0     C32226   1.429   1.056   7.276 -0.7095  0.4594  0.2822
  980MOL0     C32227   1.430   0.912   7.234  0.0625 -0.4054 -0.4555
  980MOL0     C32228   1.351   0.885   7.107  0.5630 -0.1152 -0.8618
  980MOL0     C32229   1.275   0.867   7.008 -0.4807 -0.3748 -0.4120
  980MOL0     C32230   1.691   1.415   7.315  1.1843 -0.1872 -0.1933
  980MOL0     C32231   1.803   1.450   7.388  0.1162 -1.4806 -0.1941
  980MOL0     C32232   1.911   1.520   7.313 -0.2884  0.3213  0.2782
  980MOL0     H32233   1.878   1.444   8.023  1.1689 -0.4285 -0.0741
  980MOL0     H32234   2.065   1.405   8.177  1.4198  1.1984 -0.7922
  980MOL0     H32235   2.301   1.413   8.276 -1.1636 -2.1633  1.9501
  980MOL0     H32236   2.226   1.261   8.302 -0.6317  0.0466  0.0140
  980MOL0     H32237   2.447   1.155   8.230 -0.9435 -0.9350  0.8253
  980MOL0     H32238   2.405   1.207   8.398 -1.1045  1.6199  1.1440
  980MOL0     H32239   2.558   1.416   8.349  1.3855  1.3370 -0.4747
  980MOL0     H32240   2.554   1.367   8.185 -2.0727 -1.5204 -0.5643
  980MOL0     H32241   2.679   1.172   8.394  1.8119  0.4404  0.4474
  980MOL0     H32242   2.691   1.166   8.221 -3.4597 -2.8745  1.9708
  980MOL0     H32243   2.896   1.226   8.291 -4.3591 -2.8080 -5.3617
  980MOL0     H32244   2.830   1.373   8.222 -0.5814 -1.3670 -1.7543
  980MOL0     H32245   2.963   1.414   8.439  0.6066 -0.6749 -1.2578
  980MOL0     H32246   2.792   1.468   8.429  0.9413  0.8875 -5.3101
  980MOL0     H32247   2.719   1.309   8.586 -0.1342  0.3294  0.7517
  980MOL0     H32248   2.869   1.355   8.640 -1.0730  0.4724 -0.1452
  980MOL0     H32249   2.867   1.093   8.476 -2.5130 -2.4899  1.1917
  980MOL0     H32250   2.997   1.170   8.566  0.5671  1.7763  4.9506
  980MOL0     H32251   2.997   1.146   8.821  2.1862 -3.1123 -1.2109
  980MOL0     H32252   2.944   0.915   9.066 -3.1310 -0.9419  2.8376
  980MOL0     H32253   2.912   1.095   9.062 -1.7726  1.5994 -1.7379
  980MOL0     H32254   2.697   1.075   9.108  1.6677  0.4607  0.5979
  980MOL0     H32255   2.688   0.897   9.087 -0.0673 -0.8068  0.5006
  980MOL0     H32256   2.852   1.046   9.307  1.2526 -1.4046  2.7628
  980MOL0     H32257   2.847   0.873   9.280 -0.0076  0.3524 -0.0045
  980MOL0     H32258   2.598   1.046   9.304  0.3359  0.1111 -1.5037
  980MOL0     H32259   2.688   1.006   9.455  0.5351  1.0543 -0.7791
  980MOL0     H32260   2.443   0.633   9.369 -1.2505 -1.4074  0.2096
  980MOL0     H32261   2.277   0.578   9.536  3.6522 -0.7183 -1.0986
  980MOL0     H32262   2.233   0.861  10.073  1.0855 -2.5777  0.3772
  980MOL0     H32263   2.139   0.785  10.269  0.1504 -1.0339 -0.1124
  980MOL0     H32264   1.940   0.431  10.300 -1.8551  0.9532 -1.4634
  980MOL0     H32265   2.078   0.533  10.337  0.0767 -0.1159 -1.1963
  980MOL0     H32266   2.010   0.449  10.540 -1.8238 -1.8268 -1.9349
  980MOL0     H32267   2.018   0.617  10.542 -1.1936  0.4473  1.6243
  980MOL0     H32268   1.756   0.625  10.535  1.1316  0.9137 -2.8662
  980MOL0     H32269   1.756   0.453  10.489  3.5675 -3.0440 -0.0262
  980MOL0     H32270   1.838   0.406  10.721  3.1367  1.2350 -2.9136
  980MOL0     H32271   1.684   0.493  10.716  0.4893 -1.0492  0.3147
  980MOL0     H32272   1.778   0.702  10.748 -0.3427 -1.0599 -1.3335
  980MOL0     H32273   1.949   0.644  10.767  0.1053  0.8181  2.2023
  980MOL0     H32274   1.899   0.542  10.983 -0.3339 -0.0389  0.3519
  980MOL0     H32275   1.833   0.702  10.991 -0.0273 -0.2921  0.5267
  980MOL0     H32276   1.655   0.453  10.939  1.1691  0.7778 -2.7744
  980MOL0     H32277   1.607   0.621  10.928 -0.1435  1.0326  2.0183
  980MOL0     H32278   1.669   0.646  11.168 -1.6068  3.3936 -3.7616
  980MOL0     H32279   1.527   0.546  11.135  0.5182 -2.6064  1.2357
  980MOL0     H32280   1.794   0.623  10.054  0.2594 -1.5979  0.7223
  980MOL0     H32281   1.907   0.705   9.851 -3.5230  0.1629  1.4824
  980MOL0     H32282   2.311   0.961   9.714 -2.7642 -2.4843  0.5396
  980MOL0     H32283   2.450   1.033   9.529 -0.8392 -0.2433 -1.9423
  980MOL0     H32284   2.308   1.271   7.836 -1.5367 -0.1127 -2.0441
  980MOL0     H32285   2.131   1.351   7.699  2.4730 -0.4551  1.3949
  980MOL0     H32286   1.690   1.358   7.691 -0.0134  1.1804  0.2637
  980MOL0     H32287   1.473   1.328   7.549 -0.4576 -4.5287 -2.0405
  980MOL0     H32288   1.498   1.360   7.100 -0.3522  0.7601  1.2171
  980MOL0     H32289   1.346   1.283   7.138  0.6681 -1.3473 -1.6740
  980MOL0     H32290   1.606   1.162   7.215 -1.9661 -3.5561  0.5452
  980MOL0     H32291   1.515   1.115   7.066 -3.2460  0.8874 -1.8894
  980MOL0     H32292   1.329   1.099   7.284  0.1083  2.6700 -0.5935
  980MOL0     H32293   1.483   1.064   7.371 -0.3962  2.0009 -0.0087
  980MOL0     H32294   1.537   0.893   7.220  0.4385  0.5825  0.8941
  980MOL0     H32295   1.389   0.847   7.311  1.6253  1.7849  2.4088
  980MOL0     H32296   1.210   0.829   6.932  2.1709 -0.3016 -2.8688
  980MOL0     H32297   1.693   1.437   7.209 -2.6672 -0.6985 -0.5125
  980MOL0     H32298   1.932   1.620   7.352 -2.0567  0.1526  1.7977
  980MOL0     H32299   1.997   1.452   7.320 -1.2496 -1.0801 -0.9219
  980MOL0     H32300   1.889   1.519   7.206 -2.6325 -1.0640  0.7194
  981MOL0     O32301   9.475   1.591   4.138  0.9279  0.1293 -0.7607
  981MOL0     C32302   9.415   1.692   4.112  0.4231 -0.8190  0.7746
  981MOL0     O32303   9.371   1.794   4.199  0.5335 -0.4494 -0.1663
  981MOL0     C32304   9.355   1.770   4.336  0.1049 -0.4599  0.7457
  981MOL0     C32305   9.248   1.695   4.382  0.2699 -0.7228  0.5543
  981MOL0     C32306   9.219   1.689   4.517  0.7963 -0.4950 -0.4122
  981MOL0     C32307   9.309   1.749   4.613  1.1816 -0.4881 -0.3918
  981MOL0     O32308   9.274   1.740   4.747 -0.7935 -0.4155  0.9550
  981MOL0     C32309   9.380   1.760   4.843  0.5697 -0.2243 -0.0277
  981MOL0     C32310   9.319   1.699   4.971 -0.1125  0.7478 -1.0456
  981MOL0     C32311   9.202   1.787   5.024 -1.1208 -0.5095  0.2697
  981MOL0     C32312   9.086   1.697   5.059  0.3331  0.5356 -0.8197
  981MOL0     C32313   8.989   1.790   5.152 -0.2133  0.4605  0.3257
  981MOL0     C32314   8.845   1.736   5.158 -0.6767 -0.4208 -0.2488
  981MOL0     C32315   8.800   1.682   5.293 -1.0452  0.1254  0.3822
  981MOL0     C32316   8.882   1.543   5.321  0.7994 -0.6121 -0.7856
  981MOL0     N32317   8.840   1.472   5.443 -0.0980 -0.0371 -0.7485
  981MOL0     C32318   8.842   1.330   5.466 -0.2538 -0.0197  0.2133
  981MOL0     C32319   8.798   1.308   5.591  0.7594 -0.0856 -0.6000
  981MOL0     C32320   8.786   1.175   5.665 -0.6363 -0.8111 -0.2677
  981MOL0     C32321   8.912   1.133   5.744 -0.3489 -0.0137  1.1425
  981MOL0     C32322   8.861   1.038   5.853 -0.3587 -0.4284  0.5175
  981MOL0     C32323   8.848   0.893   5.830  0.4959 -0.0823  0.3117
  981MOL0     O32324   8.726   0.876   5.766  0.6729  0.7265  0.6408
  981MOL0     C32325   8.684   0.751   5.721  0.4918  1.4028 -0.4208
  981MOL0     C32326   8.550   0.726   5.683  0.5972 -0.2094  1.2388
  981MOL0     C32327   8.499   0.599   5.652  1.0466 -0.0615  1.6597
  981MOL0     C32328   8.581   0.489   5.654  0.2083  0.7494 -0.2285
  981MOL0     C32329   8.531   0.343   5.638  0.7715  0.5316 -0.2527
  981MOL0     O32330   8.626   0.242   5.651 -0.2344 -0.1926  0.1683
  981MOL0     C32331   8.570   0.121   5.631  0.0411  0.2423 -0.6622
  981MOL0     C32332   8.564   0.054   5.511  0.5227  0.3339 -0.6442
  981MOL0     C32333   8.509  -0.072   5.507  0.8257  0.7731  1.2367
  981MOL0     C32334   8.457  -0.132   5.615  0.2963  0.9975  0.2022
  981MOL0     O32335   8.400  -0.261   5.622  0.7162 -0.9909  0.3959
  981MOL0     C32336   8.507  -0.359   5.612 -0.7490  0.9852  0.8459
  981MOL0     C32337   8.460  -0.496   5.651  0.2381  0.4791 -0.4149
  981MOL0     C32338   8.391  -0.519   5.784 -0.2364  0.0383  0.6629
  981MOL0     C32339   8.340  -0.657   5.779  0.3112  0.1808 -0.1474
  981MOL0     C32340   8.191  -0.675   5.743  0.7239 -0.6637 -0.1007
  981MOL0     C32341   8.096  -0.612   5.844  0.4846 -0.5441 -1.1159
  981MOL0     C32342   7.944  -0.592   5.799  0.0559 -0.2182 -0.5336
  981MOL0     C32343   7.847  -0.577   5.916  0.3757  0.0716  0.8191
  981MOL0    Cl32344   7.725  -0.703   5.905  0.1979  0.2281 -0.1548
  981MOL0     C32345   8.455  -0.064   5.732  0.1300 -0.4415  0.7612
  981MOL0     C32346   8.509   0.060   5.744 -0.0531 -0.4776  0.1264
  981MOL0     O32347   8.424   0.333   5.578  0.0308  0.1344  0.8789
  981MOL0     C32348   8.722   0.510   5.682 -0.6934 -0.9136  0.9699
  981MOL0     C32349   8.760   0.635   5.728 -0.4421  0.5342 -0.7432
  981MOL0     N32350   8.748   1.430   5.640 -0.3267  0.0759 -0.0752
  981MOL0     N32351   8.778   1.524   5.555  0.1832  0.5828  0.5451
  981MOL0     C32352   9.430   1.820   4.563 -0.4423 -0.0679  0.5615
  981MOL0     C32353   9.443   1.828   4.423 -0.1819 -0.5099  0.1972
  981MOL0     C32354   9.378   1.694   3.969 -0.4834 -0.5613  0.6374
  981MOL0     C32355   9.272   1.784   3.943  0.7142  0.8942 -0.1264
  981MOL0     C32356   9.227   1.812   3.819  0.2997 -1.1362  1.1246
  981MOL0     C32357   9.300   1.765   3.710  0.6501  0.2430  0.1678
  981MOL0     O32358   9.251   1.783   3.583 -0.3786  0.4466 -0.4835
  981MOL0     C32359   9.182   1.655   3.536  0.3398  0.2812 -1.5231
  981MOL0     C32360   9.195   1.668   3.387 -0.0431 -0.3385  0.0160
  981MOL0     C32361   9.338   1.690   3.333  0.0814  0.5492  0.0160
  981MOL0     C32362   9.342   1.706   3.177  0.2338  0.9388 -0.5108
  981MOL0     C32363   9.298   1.581   3.109 -0.4595 -0.2630 -0.0392
  981MOL0     C32364   9.258   1.475   3.067 -0.7105 -0.3794 -0.0754
  981MOL0     C32365   9.404   1.671   3.730 -0.4894 -0.1702 -1.0689
  981MOL0     C32366   9.449   1.640   3.859  0.6013 -0.0620 -0.4936
  981MOL0     C32367   9.580   1.571   3.868 -0.2952  0.3835  0.4797
  981MOL0     H32368   9.179   1.659   4.307  0.9343  3.8544 -2.6646
  981MOL0     H32369   9.119   1.653   4.542 -0.2443  3.0851  1.3273
  981MOL0     H32370   9.474   1.710   4.815  1.8639  2.4448 -0.7152
  981MOL0     H32371   9.399   1.864   4.869 -5.2451  0.8917  1.0689
  981MOL0     H32372   9.402   1.701   5.042 -0.7265 -1.6230 -0.1696
  981MOL0     H32373   9.286   1.595   4.971  1.5147  0.1623  1.0765
  981MOL0     H32374   9.174   1.861   4.948  1.1506 -0.5190 -0.6769
  981MOL0     H32375   9.228   1.842   5.114 -1.4953  3.2208 -1.6852
  981MOL0     H32376   9.035   1.652   4.973  1.4808 -0.1790 -1.1459
  981MOL0     H32377   9.118   1.616   5.124 -1.5795  0.7475  0.4560
  981MOL0     H32378   9.025   1.802   5.254  3.9335  1.3921 -1.0882
  981MOL0     H32379   8.985   1.884   5.097 -1.7835 -0.7212 -1.7558
  981MOL0     H32380   8.777   1.814   5.123  1.0558  1.3438  0.1376
  981MOL0     H32381   8.830   1.655   5.087  0.3301  0.7857 -1.8891
  981MOL0     H32382   8.693   1.661   5.295 -2.0584  4.2807 -0.2582
  981MOL0     H32383   8.802   1.756   5.374 -4.0419  0.5782  0.1270
  981MOL0     H32384   8.865   1.470   5.241  4.9860 -3.0701  0.2722
  981MOL0     H32385   8.990   1.548   5.337  0.6964 -0.3653 -0.1212
  981MOL0     H32386   8.901   1.258   5.410 -1.9240 -1.3825  0.0951
  981MOL0     H32387   8.696   1.183   5.727 -2.2580 -1.7279 -2.3904
  981MOL0     H32388   8.774   1.105   5.582 -0.0107  1.2809 -2.2135
  981MOL0     H32389   8.975   1.071   5.680 -2.9496 -1.2523 -0.4010
  981MOL0     H32390   8.981   1.210   5.780 -1.9195  0.5476  3.1396
  981MOL0     H32391   8.770   1.076   5.901 -0.8973  0.4007 -1.0950
  981MOL0     H32392   8.930   1.038   5.938 -2.3436 -1.0044  2.2365
  981MOL0     H32393   8.846   0.841   5.926  2.5867  0.6501  0.7907
  981MOL0     H32394   8.931   0.852   5.771  2.5297 -0.5445  3.2842
  981MOL0     H32395   8.494   0.818   5.672  0.3341 -0.3696  1.2257
  981MOL0     H32396   8.393   0.588   5.630  1.1945  0.1605  0.8130
  981MOL0     H32397   8.599   0.094   5.416  1.1738 -1.1480 -1.0451
  981MOL0     H32398   8.504  -0.125   5.413  4.2272  1.8121  0.3469
  981MOL0     H32399   8.559  -0.354   5.516 -1.2582  2.0540  0.6025
  981MOL0     H32400   8.582  -0.320   5.682 -1.4930 -2.2834  3.6983
  981MOL0     H32401   8.386  -0.531   5.579 -1.7598  0.3463  1.6123
  981MOL0     H32402   8.552  -0.553   5.636  0.2667 -0.0723  1.6236
  981MOL0     H32403   8.461  -0.503   5.867 -0.9938 -1.3612  1.6296
  981MOL0     H32404   8.316  -0.440   5.796 -0.9689 -0.2841 -1.4064
  981MOL0     H32405   8.354  -0.686   5.883  2.1081  4.0546  0.8632
  981MOL0     H32406   8.399  -0.719   5.710  1.5306  0.7874  0.3378
  981MOL0     H32407   8.156  -0.779   5.743 -0.6343 -0.2758 -2.6503
  981MOL0     H32408   8.169  -0.630   5.646  0.2093  0.1893  0.4056
  981MOL0     H32409   8.116  -0.677   5.929  0.2866 -1.7872 -1.9932
  981MOL0     H32410   8.129  -0.514   5.881 -3.0134 -0.8797  3.9289
  981MOL0     H32411   7.914  -0.670   5.728  0.2990 -0.3924 -0.4473
  981MOL0     H32412   7.939  -0.505   5.732  1.0385  1.3316  1.3157
  981MOL0     H32413   7.905  -0.601   6.006 -1.1967 -1.8293  1.4082
  981MOL0     H32414   7.807  -0.476   5.916  1.0907  0.3843  2.1899
  981MOL0     H32415   8.432  -0.120   5.823  3.0599 -0.6502  1.4782
  981MOL0     H32416   8.511   0.099   5.845 -2.4682 -1.8097  0.7594
  981MOL0     H32417   8.786   0.424   5.698 -1.0673 -1.3226  0.3106
  981MOL0     H32418   8.860   0.632   5.771 -0.8106 -0.2564  0.0957
  981MOL0     H32419   9.495   1.876   4.630  2.4285 -2.9855  0.4489
  981MOL0     H32420   9.523   1.883   4.375  0.8119 -3.0466 -1.3080
  981MOL0     H32421   9.210   1.826   4.022 -3.2914 -1.3692 -1.7945
  981MOL0     H32422   9.134   1.860   3.788 -0.4039 -2.8394  0.4909
  981MOL0     H32423   9.077   1.636   3.564  0.6868 -0.2589 -0.5407
  981MOL0     H32424   9.231   1.564   3.572 -0.0400 -0.2366 -2.2776
  981MOL0     H32425   9.147   1.764   3.364  0.7957  0.0924  0.0511
  981MOL0     H32426   9.149   1.580   3.340  1.3325  1.2190 -4.8685
  981MOL0     H32427   9.404   1.605   3.354 -1.8873 -2.9589 -5.6496
  981MOL0     H32428   9.372   1.784   3.377 -0.6595  0.7102  0.2618
  981MOL0     H32429   9.275   1.789   3.153 -0.9269  0.3538  0.5788
  981MOL0     H32430   9.441   1.739   3.146  0.4001  3.9598  2.6802
  981MOL0     H32431   9.198   1.399   3.021 -1.7242  0.5873 -0.3942
  981MOL0     H32432   9.456   1.631   3.644  1.2604 -0.6161  0.1311
  981MOL0     H32433   9.578   1.483   3.933  1.0218  2.1258  3.0151
  981MOL0     H32434   9.610   1.531   3.771 -0.7856  0.0981  0.4400
  981MOL0     H32435   9.654   1.640   3.910 -0.9396  1.7525 -0.5460
  982MOL0     O32436   7.227  10.043   8.571  0.3013 -0.4481 -0.3782
  982MOL0     C32437   7.185   9.934   8.617  0.4332 -1.2134 -0.6852
  982MOL0     O32438   7.102   9.846   8.543 -0.4424 -0.8335 -0.8166
  982MOL0     C32439   7.075   9.894   8.414 -0.5129  0.9499 -0.4141
  982MOL0     C32440   7.163   9.857   8.313  0.1286  1.3423 -0.4071
  982MOL0     C32441   7.138   9.905   8.180  0.0991 -0.5178 -0.7081
  982MOL0     C32442   7.034   9.996   8.148 -0.3640 -0.3284 -0.8324
  982MOL0     O32443   7.010  10.074   8.033  0.1589  0.2661  0.7942
  982MOL0     C32444   7.134  10.117   7.961  0.1082  0.0537 -0.4026
  982MOL0     C32445   7.138  10.072   7.816  0.5084 -0.0548 -0.7429
  982MOL0     C32446   7.143   9.917   7.792  0.0561 -0.3607  0.6664
  982MOL0     C32447   7.289   9.865   7.812  0.0852  0.1873 -0.4162
  982MOL0     C32448   7.289   9.712   7.781  0.1469 -0.0371  0.8144
  982MOL0     C32449   7.425   9.652   7.796 -0.0647 -1.0944 -0.2652
  982MOL0     C32450   7.436   9.493   7.776  0.3908 -0.3541 -0.2602
  982MOL0     C32451   7.378   9.447   7.641  0.1476 -0.7996 -1.6500
  982MOL0     N32452   7.454   9.491   7.526 -0.3885  1.2939 -0.0490
  982MOL0     C32453   7.591   9.469   7.509  0.5912 -0.1741  0.6360
  982MOL0     C32454   7.622   9.545   7.400 -0.1283 -1.1202 -0.8067
  982MOL0     C32455   7.757   9.542   7.330 -0.9671  0.3384 -0.0317
  982MOL0     C32456   7.856   9.633   7.402 -0.0650 -0.7416  0.6241
  982MOL0     C32457   7.805   9.777   7.406 -0.0896 -0.3541  0.9075
  982MOL0     C32458   7.771   9.843   7.270  0.0697 -0.6109  0.1785
  982MOL0     O32459   7.871   9.821   7.165 -0.3860  0.6204  0.6615
  982MOL0     C32460   7.887   9.915   7.061 -0.4481  0.4526 -0.8118
  982MOL0     C32461   8.020   9.936   7.014  0.0761 -0.6645  0.2846
  982MOL0     C32462   8.053  10.028   6.904  0.3965 -0.2434 -0.3693
  982MOL0     C32463   7.943  10.109   6.849 -0.4945  0.3015 -0.5259
  982MOL0     C32464   7.978  10.201   6.735 -0.3576 -0.4064  0.3060
  982MOL0     O32465   7.875  10.287   6.689 -0.1699  0.1159  0.1426
  982MOL0     C32466   7.933  10.386   6.610  0.3188 -0.5659 -0.9559
  982MOL0     C32467   8.039  10.466   6.658 -0.8819  0.1815  0.3241
  982MOL0     C32468   8.070  10.578   6.579  0.6081 -0.2357 -0.2502
  982MOL0     C32469   8.004  10.616   6.461  0.1139  0.6105  0.5066
  982MOL0     O32470   8.039  10.719   6.377  0.0729  0.0355 -0.2096
  982MOL0     C32471   8.175  10.753   6.382 -0.1383  0.1044  0.1330
  982MOL0     C32472   8.218  10.837   6.253 -0.7810 -0.3560 -0.1772
  982MOL0     C32473   8.293  10.968   6.283 -0.1440 -0.0532 -0.4752
  982MOL0     C32474   8.355  11.020   6.151  0.3483  0.3965 -0.3784
  982MOL0     C32475   8.442  11.138   6.197  0.0996 -0.6618  0.4415
  982MOL0     C32476   8.369  11.259   6.256 -0.4991  0.4609 -0.0301
  982MOL0     C32477   8.436  11.400   6.211 -1.1280  0.1842  0.7888
  982MOL0     C32478   8.355  11.506   6.272 -0.0891 -0.9084  0.9720
  982MOL0    Cl32479   8.370  11.536   6.448  0.1081 -0.1221  0.1706
  982MOL0     C32480   7.893  10.539   6.419 -0.3849  0.7404  0.8244
  982MOL0     C32481   7.856  10.425   6.496  1.3618  0.8714 -0.7826
  982MOL0     O32482   8.085  10.183   6.679  0.1066  0.0098  0.4078
  982MOL0     C32483   7.811  10.082   6.892  0.0157 -0.1355  0.3762
  982MOL0     C32484   7.787   9.982   6.991  0.1142 -0.4282  0.3345
  982MOL0     N32485   7.510   9.618   7.366  0.0041 -0.4116  0.3158
  982MOL0     N32486   7.414   9.592   7.437  0.3594  0.0713  0.5225
  982MOL0     C32487   6.944  10.019   8.256  0.1337 -0.4441 -0.1715
  982MOL0     C32488   6.958   9.961   8.387  0.6959 -0.2144 -0.8645
  982MOL0     C32489   7.205   9.907   8.762  0.4899 -0.3987  0.9484
  982MOL0     C32490   7.122   9.820   8.832  0.0346  0.6892 -0.5653
  982MOL0     C32491   7.138   9.802   8.972 -0.1582  0.3618 -0.2472
  982MOL0     C32492   7.242   9.856   9.048 -0.4599 -0.5687  0.4033
  982MOL0     O32493   7.267   9.827   9.179  0.1144 -0.3716  0.3418
  982MOL0     C32494   7.213   9.924   9.266  0.3245  0.2502  0.5665
  982MOL0     C32495   7.302   9.951   9.394 -0.1701  0.7183  0.3753
  982MOL0     C32496   7.428  10.030   9.378 -0.3878  0.3249  0.3448
  982MOL0     C32497   7.417  10.180   9.409 -0.3788  1.2310 -0.4420
  982MOL0     C32498   7.533  10.253   9.346  1.1308  0.6811  0.4481
  982MOL0     C32499   7.639  10.300   9.312 -0.6391  0.6472 -0.8913
  982MOL0     C32500   7.329   9.937   8.978  0.0492  0.3280  0.3095
  982MOL0     C32501   7.317   9.956   8.835 -0.7675  0.5193  0.7633
  982MOL0     C32502   7.435  10.030   8.779  0.9246  0.6050 -0.5205
  982MOL0     H32503   7.259   9.808   8.326 -0.2552 -1.7543 -5.9005
  982MOL0     H32504   7.216   9.891   8.106  0.0684 -0.2735 -0.7868
  982MOL0     H32505   7.156  10.224   7.960  3.4400 -0.4318  2.5693
  982MOL0     H32506   7.220  10.072   8.012  0.5024  2.4340  1.1831
  982MOL0     H32507   7.221  10.117   7.761 -0.5533  0.2506 -2.1826
  982MOL0     H32508   7.051  10.103   7.756 -0.9612  0.6489  1.6008
  982MOL0     H32509   7.111   9.906   7.688  3.5317 -1.1834 -0.4840
  982MOL0     H32510   7.062   9.867   7.845 -1.2991 -2.6607 -3.1693
  982MOL0     H32511   7.334   9.906   7.721 -0.4384 -1.7724 -1.6261
  982MOL0     H32512   7.344   9.882   7.905  1.4719 -0.9998 -0.9885
  982MOL0     H32513   7.225   9.657   7.849  1.2178 -1.8564  0.4227
  982MOL0     H32514   7.241   9.697   7.684 -1.6070  2.6774  1.1514
  982MOL0     H32515   7.489   9.703   7.723 -1.8868  0.2635 -0.9890
  982MOL0     H32516   7.457   9.665   7.899 -1.4652 -0.0980  0.0672
  982MOL0     H32517   7.378   9.449   7.858 -1.0541  0.3137 -0.8881
  982MOL0     H32518   7.539   9.460   7.789  0.2194 -0.4340  1.0249
  982MOL0     H32519   7.371   9.338   7.639 -3.5282 -0.6580 -1.5625
  982MOL0     H32520   7.272   9.465   7.624 -1.0419 -3.1974  2.1451
  982MOL0     H32521   7.655   9.387   7.541  1.5294 -0.0995 -0.9444
  982MOL0     H32522   7.802   9.442   7.320  1.0107  1.1050  0.6173
  982MOL0     H32523   7.740   9.572   7.227 -2.9657 -2.0194 -0.4787
  982MOL0     H32524   7.863   9.604   7.507 -4.2092  0.6597  1.4712
  982MOL0     H32525   7.947   9.624   7.341 -1.0690 -0.1194 -1.0135
  982MOL0     H32526   7.895   9.826   7.444  2.3982 -2.1933 -2.1508
  982MOL0     H32527   7.717   9.792   7.469  0.0971  0.0065  1.0901
  982MOL0     H32528   7.773   9.952   7.285  1.8233 -0.3685 -1.4764
  982MOL0     H32529   7.673   9.816   7.230  0.1496  2.3582 -2.5030
  982MOL0     H32530   8.102   9.883   7.063 -1.8741 -2.4218  1.8198
  982MOL0     H32531   8.160  10.046   6.892  0.2417  2.6431  1.4775
  982MOL0     H32532   8.096  10.419   6.738 -1.1244 -1.1996 -0.2951
  982MOL0     H32533   8.152  10.635   6.621 -0.2630 -0.2874  1.6265
  982MOL0     H32534   8.186  10.812   6.473  3.5102 -0.8810  0.4879
  982MOL0     H32535   8.236  10.662   6.379 -0.2693  0.0166  0.1730
  982MOL0     H32536   8.282  10.769   6.196 -0.8850 -2.6409  2.2051
  982MOL0     H32537   8.135  10.863   6.187  1.1284  0.7206 -2.2944
  982MOL0     H32538   8.223  11.042   6.321 -0.1813 -0.2153 -0.2257
  982MOL0     H32539   8.382  10.952   6.344  2.2206 -0.8926 -3.8340
  982MOL0     H32540   8.271  11.044   6.084 -0.9804  1.9896  1.7002
  982MOL0     H32541   8.420  10.943   6.110  0.0595 -2.4115  3.8231
  982MOL0     H32542   8.514  11.161   6.118 -0.2666  2.5574  0.9258
  982MOL0     H32543   8.519  11.110   6.270 -0.3936  0.8303  1.5848
  982MOL0     H32544   8.269  11.254   6.212  0.1072 -1.6070 -1.2921
  982MOL0     H32545   8.360  11.247   6.364  1.3191  0.9158  0.2074
  982MOL0     H32546   8.430  11.418   6.103 -0.1647  2.1367  1.0068
  982MOL0     H32547   8.541  11.400   6.242 -0.2442 -1.2618 -1.8704
  982MOL0     H32548   8.386  11.601   6.227 -0.1908 -1.1344  0.4157
  982MOL0     H32549   8.250  11.505   6.240  0.1367 -1.4839  0.2278
  982MOL0     H32550   7.828  10.570   6.337 -1.9153 -1.6988  1.0114
  982MOL0     H32551   7.761  10.374   6.485  0.9447  1.7555 -1.4283
  982MOL0     H32552   7.736  10.149   6.853  0.4447  0.8239  1.1527
  982MOL0     H32553   7.680   9.973   7.007 -0.4900  1.7660 -1.8055
  982MOL0     H32554   6.858  10.080   8.232  0.7912 -0.6254 -3.4692
  982MOL0     H32555   6.890   9.971   8.471 -0.4662  0.1315 -1.8249
  982MOL0     H32556   7.048   9.755   8.785 -0.7386  1.2995 -0.1981
  982MOL0     H32557   7.079   9.736   9.036 -0.4094  0.8472  0.0305
  982MOL0     H32558   7.116   9.885   9.299  1.2010 -0.0920  2.9524
  982MOL0     H32559   7.203  10.024   9.223 -1.3995 -0.8220 -1.7691
  982MOL0     H32560   7.325   9.849   9.425 -2.7455 -0.1390 -0.2704
  982MOL0     H32561   7.230  10.002   9.459 -1.4514  2.3609 -2.1594
  982MOL0     H32562   7.453  10.015   9.272 -2.5425  0.7724 -0.2609
  982MOL0     H32563   7.503   9.997   9.451 -0.9493 -0.0853  0.7421
  982MOL0     H32564   7.325  10.206   9.355  0.0279  0.5079 -1.4922
  982MOL0     H32565   7.407  10.203   9.516  0.9396  1.1709 -0.2918
  982MOL0     H32566   7.723  10.359   9.281  1.1351 -1.7573 -0.8716
  982MOL0     H32567   7.400  10.000   9.030 -1.4636  2.6546 -0.3071
  982MOL0     H32568   7.479   9.983   8.690 -0.2594 -1.1712 -0.2266
  982MOL0     H32569   7.402  10.132   8.760  3.1611  1.1956 -1.5386
  982MOL0     H32570   7.527  10.023   8.837  1.5362 -1.5053 -1.6387
  983MOL0     O32571   1.536   1.928   3.248 -0.5735 -0.3017 -0.1227
  983MOL0     C32572   1.562   1.866   3.351  0.7263  0.0650  0.0405
  983MOL0     O32573   1.574   1.724   3.365  0.0192  0.8544  0.7897
  983MOL0     C32574   1.584   1.648   3.253  0.6222 -0.3260 -0.4379
  983MOL0     C32575   1.565   1.514   3.281  0.1157  0.3034 -0.5953
  983MOL0     C32576   1.569   1.421   3.178  0.1375 -0.3613  0.7155
  983MOL0     C32577   1.587   1.462   3.039 -0.5796  0.1261 -1.5501
  983MOL0     O32578   1.595   1.378   2.930  0.0067  1.1308 -0.5926
  983MOL0     C32579   1.649   1.253   2.945  0.5440  0.0746  0.0714
  983MOL0     C32580   1.546   1.150   2.926 -0.2599  0.4269  1.1727
  983MOL0     C32581   1.613   1.016   2.893 -0.6205 -1.1175 -0.2598
  983MOL0     C32582   1.520   0.904   2.836  0.7506 -0.3655 -0.3515
  983MOL0     C32583   1.600   0.802   2.763  0.3104 -0.4185 -0.4167
  983MOL0     C32584   1.679   0.717   2.854  0.4876  0.2576  0.3890
  983MOL0     C32585   1.747   0.597   2.788  0.2635 -0.0429 -0.3896
  983MOL0     C32586   1.651   0.477   2.772 -0.1581 -0.0636 -0.1880
  983MOL0     N32587   1.702   0.351   2.707 -0.4154 -0.2473  0.3734
  983MOL0     C32588   1.836   0.317   2.692  0.3428 -1.1528 -0.0524
  983MOL0     C32589   1.841   0.200   2.635 -0.0859  0.5669 -0.0666
  983MOL0     C32590   1.967   0.122   2.617  0.2096 -0.7396 -0.6514
  983MOL0     C32591   1.969   0.022   2.502  0.1830 -0.5706 -0.2437
  983MOL0     C32592   2.104  -0.068   2.486 -0.0333  0.0632  0.6791
  983MOL0     C32593   2.133  -0.150   2.618 -0.8768  0.3238  0.7381
  983MOL0     O32594   2.261  -0.154   2.667  0.3009  0.5940  0.2689
  983MOL0     C32595   2.344  -0.258   2.619  0.4149  0.8355 -0.7665
  983MOL0     C32596   2.310  -0.319   2.498 -0.5237  0.3915 -0.3373
  983MOL0     C32597   2.389  -0.431   2.459 -1.3882  0.5949 -0.9375
  983MOL0     C32598   2.510  -0.466   2.523 -0.5561  0.6671  0.3658
  983MOL0     C32599   2.584  -0.597   2.493  0.9686 -0.5633 -0.2905
  983MOL0     O32600   2.698  -0.619   2.555 -0.0027  0.4133  0.3901
  983MOL0     C32601   2.775  -0.719   2.518 -0.5269 -0.2283 -0.8431
  983MOL0     C32602   2.910  -0.689   2.529 -0.3848 -0.4819 -0.7974
  983MOL0     C32603   3.013  -0.785   2.518  0.5578  0.1976 -0.0734
  983MOL0     C32604   2.976  -0.926   2.494 -0.7896 -0.8555  0.5564
  983MOL0     O32605   3.062  -1.024   2.518 -0.5944  0.3533 -0.0601
  983MOL0     C32606   3.190  -0.995   2.451 -0.1966  0.4977  0.3249
  983MOL0     C32607   3.252  -1.133   2.407  0.3302  1.0052  0.9707
  983MOL0     C32608   3.147  -1.236   2.361  1.2100  0.5663  0.2493
  983MOL0     C32609   3.066  -1.190   2.240 -0.1906  0.0736  0.2023
  983MOL0     C32610   2.970  -1.303   2.200 -0.3152 -0.2175  0.1627
  983MOL0     C32611   2.889  -1.242   2.080 -0.0599  0.2058 -0.6111
  983MOL0     C32612   2.792  -1.345   2.035 -0.0394 -0.2342  0.3032
  983MOL0     C32613   2.700  -1.304   1.919  0.5853 -0.9366 -0.4639
  983MOL0    Cl32614   2.808  -1.250   1.770 -0.1771 -0.7122 -0.3250
  983MOL0     C32615   2.840  -0.952   2.492 -0.0588 -0.2924  0.6517
  983MOL0     C32616   2.739  -0.854   2.506 -0.8177 -0.8848 -0.6335
  983MOL0     O32617   2.554  -0.657   2.394  0.1894  0.0634  0.4817
  983MOL0     C32618   2.553  -0.380   2.630  0.9573  0.0691  0.1700
  983MOL0     C32619   2.465  -0.285   2.686 -0.1793 -1.1539 -0.3944
  983MOL0     N32620   1.710   0.161   2.611 -0.0469 -0.5623 -1.2102
  983MOL0     N32621   1.629   0.258   2.649 -0.0750 -0.0554 -0.3577
  983MOL0     C32622   1.604   1.599   3.011  0.1266 -0.7499  0.4066
  983MOL0     C32623   1.604   1.684   3.118  0.1136  0.2768 -0.4508
  983MOL0     C32624   1.591   1.945   3.470  0.4469 -0.2721 -0.5283
  983MOL0     C32625   1.625   1.878   3.585  0.1325  0.2902 -0.9771
  983MOL0     C32626   1.654   1.941   3.702 -0.1945  1.8058 -0.5473
  983MOL0     C32627   1.631   2.076   3.717  0.2384 -0.0700 -0.4317
  983MOL0     O32628   1.655   2.134   3.839  0.0140  0.3174 -0.0816
  983MOL0     C32629   1.578   2.102   3.951  0.8448  0.4681 -1.1381
  983MOL0     C32630   1.615   2.161   4.090 -0.1749  0.1494  0.5930
  983MOL0     C32631   1.563   2.305   4.119  1.1051 -0.5188 -0.4076
  983MOL0     C32632   1.640   2.402   4.034 -0.3404  1.0067  0.4672
  983MOL0     C32633   1.786   2.421   4.050  0.9330 -0.7372 -0.4268
  983MOL0     C32634   1.910   2.425   4.062 -0.0881 -0.3553 -0.2090
  983MOL0     C32635   1.616   2.148   3.604  0.7333 -0.0536  0.0466
  983MOL0     C32636   1.592   2.088   3.474  0.1275 -0.2989 -0.1016
  983MOL0     C32637   1.580   2.191   3.375  0.1571 -0.1154  0.3756
  983MOL0     H32638   1.558   1.485   3.386  0.9666 -3.5633 -1.4370
  983MOL0     H32639   1.527   1.322   3.190 -2.8175  0.7452  0.3655
  983MOL0     H32640   1.724   1.243   2.866  1.8855  4.0057  0.6222
  983MOL0     H32641   1.708   1.230   3.034  3.6986 -3.2439 -2.6126
  983MOL0     H32642   1.488   1.185   2.840 -0.0255 -1.3140  0.2634
  983MOL0     H32643   1.483   1.141   3.014 -0.9009 -1.7683  0.5577
  983MOL0     H32644   1.675   0.996   2.981 -1.1680  0.2422  0.4604
  983MOL0     H32645   1.680   1.030   2.807 -0.8087 -1.8468 -0.5366
  983MOL0     H32646   1.458   0.865   2.917 -1.6034  1.4387 -1.1536
  983MOL0     H32647   1.447   0.945   2.765  1.5975 -2.7782 -2.7740
  983MOL0     H32648   1.526   0.732   2.724  0.7764 -0.4802 -1.2100
  983MOL0     H32649   1.662   0.845   2.683 -1.5317  2.0529 -0.6421
  983MOL0     H32650   1.755   0.784   2.895 -0.7589  0.9362  1.6792
  983MOL0     H32651   1.636   0.693   2.952  1.6509  3.0346  1.7164
  983MOL0     H32652   1.841   0.583   2.842  0.2596  3.4434  0.7890
  983MOL0     H32653   1.784   0.639   2.694  2.1359  0.4848  0.5397
  983MOL0     H32654   1.623   0.450   2.875  1.0983 -1.0179 -0.0671
  983MOL0     H32655   1.567   0.516   2.713 -0.0997  0.5636  0.1334
  983MOL0     H32656   1.911   0.381   2.737  0.5347 -1.6315  0.3134
  983MOL0     H32657   2.049   0.194   2.614  0.0860 -0.6020 -0.7709
  983MOL0     H32658   1.975   0.065   2.710  0.0457 -1.3008 -0.9756
  983MOL0     H32659   1.887  -0.050   2.493 -0.8181  0.5732 -0.6282
  983MOL0     H32660   1.943   0.080   2.413 -2.8957  0.4186  1.1269
  983MOL0     H32661   2.194  -0.009   2.470 -0.3029  0.0502 -1.1300
  983MOL0     H32662   2.092  -0.130   2.396  2.4310 -0.4262  0.6224
  983MOL0     H32663   2.101  -0.251   2.592  1.5608  0.1253 -2.0164
  983MOL0     H32664   2.075  -0.121   2.706 -0.6934 -0.2859  1.0657
  983MOL0     H32665   2.229  -0.313   2.427 -3.7289 -2.7063  2.6943
  983MOL0     H32666   2.348  -0.490   2.377  3.4284 -2.5438 -1.4346
  983MOL0     H32667   2.912  -0.580   2.522  0.5746 -0.3841  0.4481
  983MOL0     H32668   3.117  -0.756   2.513 -0.4095  4.3797  0.7157
  983MOL0     H32669   3.175  -0.930   2.365  0.5419  1.3790  0.8510
  983MOL0     H32670   3.263  -0.946   2.515  3.2135 -2.6755 -0.7836
  983MOL0     H32671   3.306  -1.084   2.325 -0.4386  2.9304  1.5625
  983MOL0     H32672   3.317  -1.167   2.489 -0.7625 -0.8937  1.1021
  983MOL0     H32673   3.208  -1.324   2.337  0.1655 -0.8488  2.4373
  983MOL0     H32674   3.082  -1.257   2.446 -0.6636  3.5957 -0.3065
  983MOL0     H32675   3.149  -1.178   2.170  0.9852  1.7396  1.7910
  983MOL0     H32676   3.017  -1.095   2.262  0.9056  0.5430  0.6644
  983MOL0     H32677   2.908  -1.326   2.287  1.7735  1.3044  2.1934
  983MOL0     H32678   3.020  -1.395   2.171  0.5317 -0.6793  2.7817
  983MOL0     H32679   2.850  -1.153   2.129  1.3048 -0.6518  2.2466
  983MOL0     H32680   2.959  -1.218   2.000  0.4610  1.4272  0.1846
  983MOL0     H32681   2.744  -1.373   2.129  4.1149  0.8456  3.0496
  983MOL0     H32682   2.842  -1.438   2.007  0.5533 -0.6813  2.6148
  983MOL0     H32683   2.640  -1.392   1.895 -1.2864 -0.3688  1.7863
  983MOL0     H32684   2.627  -1.228   1.951  2.6109  1.3400 -0.9283
  983MOL0     H32685   2.815  -1.055   2.471  0.7578 -0.3801  0.0603
  983MOL0     H32686   2.635  -0.882   2.514 -0.4652 -1.7600  2.5262
  983MOL0     H32687   2.639  -0.400   2.693 -0.0173 -2.4119  0.8354
  983MOL0     H32688   2.495  -0.225   2.772  3.5208 -3.6977  0.2981
  983MOL0     H32689   1.616   1.639   2.911 -1.3337  0.4965  0.7023
  983MOL0     H32690   1.631   1.786   3.093 -0.5957  0.7981  0.8456
  983MOL0     H32691   1.641   1.771   3.586 -0.3728  0.1808  1.6968
  983MOL0     H32692   1.691   1.896   3.794  1.8209  1.6773 -1.3756
  983MOL0     H32693   1.602   1.996   3.960 -0.5337  0.2821  6.0823
  983MOL0     H32694   1.469   2.099   3.937  0.5144 -3.4624  1.0110
  983MOL0     H32695   1.723   2.153   4.074 -0.6033 -1.4471 -2.0650
  983MOL0     H32696   1.589   2.100   4.176  1.2133  0.8097  1.5093
  983MOL0     H32697   1.584   2.318   4.225  3.1147 -3.6633 -0.3109
  983MOL0     H32698   1.456   2.312   4.094  0.7779 -0.1883  1.0093
  983MOL0     H32699   1.628   2.372   3.929  4.3311  1.1382 -0.3225
  983MOL0     H32700   1.606   2.505   4.037  1.3071  1.5688  1.8784
  983MOL0     H32701   2.017   2.420   4.068  0.0019 -1.3531 -1.9343
  983MOL0     H32702   1.615   2.257   3.608 -3.2294  0.1584 -1.8794
  983MOL0     H32703   1.569   2.295   3.405  0.3578  0.5073 -1.5704
  983MOL0     H32704   1.656   2.177   3.298 -1.1451  1.3169 -1.2537
  983MOL0     H32705   1.481   2.172   3.331 -0.2966  1.1322  0.8347
  984MOL0     O32706   3.315   3.029   7.510  0.0379  1.1185  0.4714
  984MOL0     C32707   3.391   2.946   7.470 -0.2417  1.1726 -1.0753
  984MOL0     O32708   3.366   2.810   7.476 -0.3136 -0.1632  0.1168
  984MOL0     C32709   3.259   2.760   7.548 -0.1804 -0.8485  0.1901
  984MOL0     C32710   3.140   2.748   7.473 -0.1670  0.3827  0.1527
  984MOL0     C32711   3.023   2.692   7.539  1.1988  0.5054 -0.0450
  984MOL0     C32712   3.041   2.646   7.675 -1.0175  0.9615  1.0939
  984MOL0     O32713   2.936   2.569   7.720 -0.3836  0.3864 -0.5824
  984MOL0     C32714   2.965   2.461   7.799  0.2851 -0.4845 -0.5926
  984MOL0     C32715   2.856   2.360   7.770 -0.0104  0.4228 -0.7778
  984MOL0     C32716   2.868   2.307   7.627  0.4296 -0.3331  0.8709
  984MOL0     C32717   2.756   2.209   7.591  0.7637 -0.7223 -0.5114
  984MOL0     C32718   2.771   2.167   7.445  1.0972  0.4346  0.4020
  984MOL0     C32719   2.872   2.060   7.415  0.3646  0.7560  0.1663
  984MOL0     C32720   2.945   2.064   7.278 -1.0206 -0.2539 -0.2351
  984MOL0     C32721   3.034   2.193   7.247 -0.1130 -0.8891 -0.7655
  984MOL0     N32722   3.156   2.176   7.335  0.1696 -1.4100  0.0655
  984MOL0     C32723   3.186   2.268   7.431  0.4924  0.4876  0.5455
  984MOL0     C32724   3.308   2.224   7.485 -0.6796 -0.2504  0.7513
  984MOL0     C32725   3.396   2.306   7.579 -0.6282 -0.2025  0.6251
  984MOL0     C32726   3.437   2.433   7.515 -0.4662  0.5877 -0.4308
  984MOL0     C32727   3.571   2.435   7.448  0.2987 -0.0372  0.1314
  984MOL0     C32728   3.686   2.414   7.546  0.3368  0.2526  0.0806
  984MOL0     O32729   3.792   2.507   7.511  0.3882 -0.4204 -0.0920
  984MOL0     C32730   3.851   2.581   7.610  0.0643 -0.0728 -0.6571
  984MOL0     C32731   3.992   2.587   7.643 -0.2009 -0.4054  1.0260
  984MOL0     C32732   4.047   2.645   7.758 -0.0306 -1.0442  0.5634
  984MOL0     C32733   3.963   2.698   7.855  1.2240  0.0225 -0.6076
  984MOL0     C32734   4.016   2.733   7.986  0.3927 -0.2183 -0.7367
  984MOL0     O32735   3.922   2.787   8.068  0.9632 -0.5857  1.1858
  984MOL0     C32736   3.950   2.855   8.181 -0.0477 -0.5869  0.0365
  984MOL0     C32737   3.903   2.980   8.198 -0.2220 -1.3776  0.3146
  984MOL0     C32738   3.941   3.052   8.313  0.5915  0.4746 -0.1037
  984MOL0     C32739   3.998   2.986   8.417  0.2854 -0.6157 -0.1407
  984MOL0     O32740   4.032   3.062   8.526 -0.0162  0.3003 -0.2840
  984MOL0     C32741   3.991   3.019   8.654  0.2012  0.5568 -0.0792
  984MOL0     C32742   3.912   3.132   8.717  0.7935 -0.5657  0.0091
  984MOL0     C32743   3.841   3.077   8.849 -0.1574  0.2128 -0.4540
  984MOL0     C32744   3.940   3.022   8.958  0.1300 -0.7571  0.5473
  984MOL0     C32745   3.872   3.037   9.094  0.0865  0.3625  0.3375
  984MOL0     C32746   3.940   2.940   9.197  0.4318 -0.1562  0.2894
  984MOL0     C32747   3.833   2.915   9.307 -0.4944  0.0626 -0.4258
  984MOL0     C32748   3.900   2.820   9.412 -0.7078  0.2116 -0.1867
  984MOL0    Cl32749   3.784   2.782   9.546 -0.0385 -0.4786 -0.0776
  984MOL0     C32750   4.028   2.856   8.406  0.3875  0.3445 -0.7238
  984MOL0     C32751   4.011   2.783   8.285 -0.3553 -0.0012  0.6086
  984MOL0     O32752   4.128   2.718   8.016  0.3102 -0.1067  0.0754
  984MOL0     C32753   3.822   2.708   7.824 -0.7910 -0.4843  0.6247
  984MOL0     C32754   3.776   2.646   7.714  0.6992 -0.1114 -0.3367
  984MOL0     N32755   3.343   2.111   7.414 -0.2482  0.7057  0.0062
  984MOL0     N32756   3.254   2.085   7.327 -0.1512 -0.4553  0.4687
  984MOL0     C32757   3.160   2.651   7.745  0.2290  0.3293  0.0140
  984MOL0     C32758   3.268   2.722   7.684 -0.7843  0.1966  0.7214
  984MOL0     C32759   3.543   2.969   7.461  0.4456 -0.2203 -0.0777
  984MOL0     C32760   3.624   2.857   7.433 -0.1719  0.7869  0.2627
  984MOL0     C32761   3.757   2.890   7.404 -0.6620  0.3923  0.5954
  984MOL0     C32762   3.817   3.016   7.394  0.2142 -0.0521  0.2747
  984MOL0     O32763   3.951   3.043   7.381 -0.3589  0.8732  0.1827
  984MOL0     C32764   4.036   2.934   7.327 -0.1978 -0.3402 -0.7178
  984MOL0     C32765   4.108   2.852   7.433 -0.5927 -0.6258 -0.5349
  984MOL0     C32766   4.202   2.943   7.515 -0.9179  0.8291  0.6303
  984MOL0     C32767   4.288   2.869   7.620 -0.0271 -0.7356  0.2433
  984MOL0     C32768   4.335   2.967   7.726 -0.3123 -0.4564 -0.4854
  984MOL0     C32769   4.375   3.058   7.797  0.4729  0.0066 -0.4784
  984MOL0     C32770   3.733   3.122   7.425  0.3149  0.9334  0.2294
  984MOL0     C32771   3.601   3.102   7.460 -0.1966  0.9066  0.4111
  984MOL0     C32772   3.531   3.228   7.511 -1.0775  0.2818  0.5063
  984MOL0     H32773   3.128   2.795   7.376  0.3171 -0.6743 -0.4375
  984MOL0     H32774   2.933   2.670   7.483 -0.2603  0.6056  2.1788
  984MOL0     H32775   3.058   2.410   7.771 -0.2380 -1.1512 -1.1451
  984MOL0     H32776   2.973   2.491   7.904  3.1762  1.9209 -1.3513
  984MOL0     H32777   2.755   2.393   7.797  0.0881 -0.6589  1.0803
  984MOL0     H32778   2.878   2.280   7.842 -0.5983  1.3542  0.4792
  984MOL0     H32779   2.963   2.256   7.607  0.9436 -0.4150  3.2426
  984MOL0     H32780   2.855   2.391   7.557 -3.9406  0.2831  2.1421
  984MOL0     H32781   2.745   2.122   7.655 -3.3523  1.8199  2.7518
  984MOL0     H32782   2.664   2.268   7.598 -0.1538 -1.7259 -2.9438
  984MOL0     H32783   2.674   2.121   7.425  0.2760  2.4411 -0.5660
  984MOL0     H32784   2.785   2.249   7.374  0.1447  1.4073  1.2829
  984MOL0     H32785   2.950   2.047   7.490  2.0444  0.8763 -1.4849
  984MOL0     H32786   2.821   1.963   7.422 -0.0491  1.0727  1.9245
  984MOL0     H32787   2.872   2.067   7.197 -1.7758  2.6184  0.4387
  984MOL0     H32788   3.000   1.971   7.265 -0.2156  0.2232 -0.3260
  984MOL0     H32789   3.059   2.173   7.143  3.4961 -3.9007  0.4368
  984MOL0     H32790   2.992   2.293   7.263  1.5037 -0.4145  0.8143
  984MOL0     H32791   3.130   2.359   7.449 -0.5188  0.0246 -0.1887
  984MOL0     H32792   3.336   2.327   7.668  0.9530  0.6913  1.5274
  984MOL0     H32793   3.485   2.251   7.608  0.3181 -0.2968 -2.1546
  984MOL0     H32794   3.367   2.472   7.441 -0.0135  2.1288 -0.0837
  984MOL0     H32795   3.437   2.514   7.588  2.1356  1.8678 -1.6973
  984MOL0     H32796   3.583   2.530   7.397  1.7467 -2.1552 -3.9009
  984MOL0     H32797   3.571   2.357   7.371  5.3809 -1.9955  1.6832
  984MOL0     H32798   3.717   2.309   7.552  0.3554  0.3009  1.1506
  984MOL0     H32799   3.649   2.428   7.648 -1.1181  1.5191 -0.5845
  984MOL0     H32800   4.048   2.526   7.573 -0.9630  1.4875 -1.3688
  984MOL0     H32801   4.151   2.628   7.784  1.1828 -2.0411 -4.0527
  984MOL0     H32802   3.857   3.032   8.115 -0.2839 -1.0334  0.5664
  984MOL0     H32803   3.915   3.158   8.318 -3.1584 -0.3309  0.5233
  984MOL0     H32804   3.934   2.926   8.646  1.8053 -0.2930 -4.9725
  984MOL0     H32805   4.078   2.996   8.717  0.2430  0.1748 -0.2710
  984MOL0     H32806   3.976   3.219   8.735  0.2733 -0.1482 -0.1271
  984MOL0     H32807   3.828   3.148   8.649 -1.3817 -2.0030  2.1798
  984MOL0     H32808   3.782   3.160   8.889  1.4748  0.8140  0.8176
  984MOL0     H32809   3.776   2.992   8.823  0.4069 -0.3340 -0.1072
  984MOL0     H32810   4.027   3.087   8.970 -1.0211  0.9721 -0.0936
  984MOL0     H32811   3.970   2.921   8.930 -1.8619 -0.9199 -1.2569
  984MOL0     H32812   3.768   3.005   9.081  1.0536 -3.1747  0.3012
  984MOL0     H32813   3.877   3.138   9.135  3.9757  0.6610 -0.4821
  984MOL0     H32814   3.979   2.857   9.137  2.3137  0.3810  0.7075
  984MOL0     H32815   4.016   2.985   9.262 -1.2582 -0.0618  2.2841
  984MOL0     H32816   3.747   2.860   9.268 -0.2162 -0.7652  0.1087
  984MOL0     H32817   3.808   3.005   9.365  2.0167 -0.7342  2.0920
  984MOL0     H32818   3.936   2.730   9.363  0.3450 -0.7355  2.1638
  984MOL0     H32819   3.992   2.861   9.455 -0.0735  0.6750 -1.8839
  984MOL0     H32820   4.069   2.822   8.501 -2.4842  1.3449  0.9955
  984MOL0     H32821   4.036   2.678   8.276 -0.1059 -0.2140  3.0695
  984MOL0     H32822   3.757   2.766   7.889  0.2790 -0.5515  1.7785
  984MOL0     H32823   3.667   2.645   7.707  0.4603  0.8050  2.2945
  984MOL0     H32824   3.182   2.602   7.839  3.1504 -0.6021 -1.0449
  984MOL0     H32825   3.363   2.732   7.737  0.9948  2.3575 -2.4948
  984MOL0     H32826   3.593   2.753   7.437  1.2415  0.3404 -0.1342
  984MOL0     H32827   3.814   2.798   7.393  0.8583  0.8580  3.4551
  984MOL0     H32828   4.108   2.974   7.255  0.3804  0.0077  0.0338
  984MOL0     H32829   3.974   2.864   7.272  0.0306 -0.3332 -0.9874
  984MOL0     H32830   4.173   2.773   7.394 -3.4947 -2.3032 -2.3964
  984MOL0     H32831   4.030   2.799   7.488  0.0750 -0.0663  1.0009
  984MOL0     H32832   4.135   3.010   7.569 -1.2898  0.8832  0.1061
  984MOL0     H32833   4.267   2.988   7.439 -0.5808  0.2194  0.5443
  984MOL0     H32834   4.231   2.785   7.659 -0.5023 -1.1854 -1.3266
  984MOL0     H32835   4.376   2.819   7.578 -1.4826 -2.9097 -0.4012
  984MOL0     H32836   4.416   3.134   7.861 -2.6212  0.9662  0.5304
  984MOL0     H32837   3.776   3.221   7.421  0.3417  1.0307  2.2102
  984MOL0     H32838   3.493   3.212   7.612 -3.3557  1.8885 -0.0267
  984MOL0     H32839   3.596   3.313   7.532 -0.6151 -0.6481  3.2460
  984MOL0     H32840   3.451   3.264   7.445  1.0645  2.4940 -1.0683
  985MOL0     O32841   0.469   2.870   1.845 -0.1354  0.0637  0.3344
  985MOL0     C32842   0.461   2.975   1.911 -0.7686 -0.2811  0.6071
  985MOL0     O32843   0.527   3.009   2.021  0.4144 -0.2282 -0.1447
  985MOL0     C32844   0.638   2.934   2.059  0.3794 -0.1045  0.9682
  985MOL0     C32845   0.653   2.951   2.197  0.3270  0.8319  0.1236
  985MOL0     C32846   0.767   2.895   2.256  0.0646 -0.9446 -0.8290
  985MOL0     C32847   0.866   2.826   2.186 -0.6917  0.8356 -0.1150
  985MOL0     O32848   0.978   2.786   2.263  0.2888 -0.3311 -0.4236
  985MOL0     C32849   1.084   2.750   2.185 -0.0803  0.5411  0.5624
  985MOL0     C32850   1.204   2.717   2.269 -0.5501 -0.3563  0.5420
  985MOL0     C32851   1.302   2.825   2.290 -0.3053  0.2193 -0.9000
  985MOL0     C32852   1.406   2.770   2.385 -0.1746 -0.4042 -0.1529
  985MOL0     C32853   1.521   2.868   2.425 -0.2114  0.1856 -0.1862
  985MOL0     C32854   1.648   2.815   2.494  0.0287  0.0423 -0.4400
  985MOL0     C32855   1.726   2.714   2.408 -0.2833 -0.7878 -0.3536
  985MOL0     C32856   1.780   2.782   2.277 -0.1402  0.5414  1.3246
  985MOL0     N32857   1.849   2.684   2.199  0.0297 -0.5719  0.3920
  985MOL0     C32858   1.884   2.700   2.062  0.8691 -0.7774 -0.7425
  985MOL0     C32859   1.945   2.588   2.033 -0.5078 -0.7921  0.2702
  985MOL0     C32860   2.000   2.537   1.904  0.8271 -0.0747 -1.1092
  985MOL0     C32861   2.143   2.569   1.898 -1.7541  0.2487  0.3343
  985MOL0     C32862   2.185   2.603   1.752  0.7206  0.0745 -0.0172
  985MOL0     C32863   2.169   2.488   1.644 -0.6387 -0.9252 -0.3288
  985MOL0     O32864   2.237   2.362   1.679 -0.0585  0.1079 -0.2365
  985MOL0     C32865   2.377   2.372   1.709  0.1480  0.3677 -0.2929
  985MOL0     C32866   2.432   2.269   1.783 -0.2106 -0.2823 -0.1370
  985MOL0     C32867   2.569   2.260   1.816 -0.7403 -0.5196 -0.0655
  985MOL0     C32868   2.663   2.361   1.771  0.0398  1.2705 -0.1802
  985MOL0     C32869   2.803   2.354   1.807  0.5191 -0.3991 -0.0186
  985MOL0     O32870   2.889   2.433   1.735 -0.7084  0.1264 -0.0145
  985MOL0     C32871   3.015   2.472   1.776 -0.8620  0.4271  0.3410
  985MOL0     C32872   3.059   2.489   1.912  0.6086 -0.7648  0.6304
  985MOL0     C32873   3.185   2.540   1.953  0.6536 -0.5192 -0.3138
  985MOL0     C32874   3.282   2.562   1.851 -0.5099 -0.3254  0.4333
  985MOL0     O32875   3.402   2.616   1.899 -0.3222  0.0838 -0.4098
  985MOL0     C32876   3.498   2.671   1.814 -0.6794 -0.4814 -0.4209
  985MOL0     C32877   3.552   2.789   1.892 -0.7608  1.2547 -0.2352
  985MOL0     C32878   3.671   2.858   1.821 -0.9358  0.3224 -0.7075
  985MOL0     C32879   3.800   2.771   1.833 -0.2844  0.2664  0.3337
  985MOL0     C32880   3.914   2.816   1.740  0.2471 -0.0823  0.0998
  985MOL0     C32881   3.940   2.975   1.748 -0.7305 -0.4591  0.0576
  985MOL0     C32882   4.062   3.017   1.660 -0.0568 -0.5422 -0.7170
  985MOL0     C32883   4.070   2.966   1.515 -0.7471 -0.2072  0.2134
  985MOL0    Cl32884   3.931   3.018   1.418  0.1685  0.2942 -0.0009
  985MOL0     C32885   3.238   2.538   1.718 -0.6007 -0.1447 -0.3830
  985MOL0     C32886   3.110   2.490   1.683  0.4921  0.4763  0.4332
  985MOL0     O32887   2.830   2.300   1.910 -0.2040  0.0774 -0.0651
  985MOL0     C32888   2.606   2.464   1.693 -0.3398 -0.0938 -0.1475
  985MOL0     C32889   2.471   2.459   1.657  0.3706  0.5340 -0.0159
  985MOL0     N32890   1.941   2.500   2.139 -1.0972 -0.3112  0.6997
  985MOL0     N32891   1.882   2.564   2.231 -0.2848  0.2601  0.0063
  985MOL0     C32892   0.839   2.806   2.049 -0.7992  1.0359  1.0713
  985MOL0     C32893   0.728   2.864   1.979  0.0428  0.0529 -0.9427
  985MOL0     C32894   0.384   3.083   1.847 -0.1915 -0.5445 -0.7233
  985MOL0     C32895   0.432   3.213   1.869  0.5219 -0.8015 -1.0285
  985MOL0     C32896   0.365   3.324   1.842 -0.0373  0.0036 -0.3269
  985MOL0     C32897   0.253   3.318   1.757  0.2689  0.7116 -0.9320
  985MOL0     O32898   0.178   3.436   1.732  0.2988  0.3526 -0.0674
  985MOL0     C32899   0.070   3.433   1.633 -0.1776 -1.0914  0.2111
  985MOL0     C32900  -0.073   3.416   1.685 -0.3899  0.4952  0.1211
  985MOL0     C32901  -0.104   3.522   1.787 -0.2472 -0.0778 -0.1834
  985MOL0     C32902  -0.130   3.468   1.935  0.8493 -0.2529 -0.9743
  985MOL0     C32903  -0.017   3.411   1.980  0.1108  1.3072  0.3641
  985MOL0     C32904   0.078   3.349   2.025  0.1428 -0.6273 -0.9897
  985MOL0     C32905   0.214   3.186   1.700  0.3841 -0.5523  0.8446
  985MOL0     C32906   0.275   3.073   1.752  0.7969 -0.1579  0.4999
  985MOL0     C32907   0.229   2.938   1.703  0.1620 -0.3346  0.0784
  985MOL0     H32908   0.574   3.006   2.247 -2.4223 -1.4676 -1.4074
  985MOL0     H32909   0.775   2.916   2.362  3.0715  2.1655 -1.4950
  985MOL0     H32910   1.061   2.656   2.133  1.7388  0.2172  0.2448
  985MOL0     H32911   1.099   2.827   2.109  0.2909  1.3903  1.4711
  985MOL0     H32912   1.258   2.635   2.220 -3.5463 -0.7873 -2.3572
  985MOL0     H32913   1.159   2.678   2.361 -1.1187 -4.5108 -1.2921
  985MOL0     H32914   1.256   2.916   2.330  0.4666  0.5603 -0.7879
  985MOL0     H32915   1.364   2.840   2.201 -2.4953 -1.0806 -2.7606
  985MOL0     H32916   1.358   2.742   2.479  0.2055  4.1630  1.6939
  985MOL0     H32917   1.440   2.678   2.337 -0.6612 -0.2143 -0.8742
  985MOL0     H32918   1.562   2.904   2.331 -0.2170 -1.2588 -0.7717
  985MOL0     H32919   1.481   2.950   2.486  2.2672 -0.8711  3.1815
  985MOL0     H32920   1.713   2.898   2.521  1.5607 -1.3382  0.2484
  985MOL0     H32921   1.624   2.757   2.583  0.1075  0.1802 -0.3289
  985MOL0     H32922   1.657   2.630   2.401 -2.8235  0.9901  1.4930
  985MOL0     H32923   1.820   2.700   2.462  0.0628 -1.0535 -1.0101
  985MOL0     H32924   1.703   2.817   2.207  1.2745  2.4044  0.5999
  985MOL0     H32925   1.844   2.869   2.296 -0.3191  1.0180 -0.1104
  985MOL0     H32926   1.867   2.776   1.986  2.5451 -1.1341 -1.5309
  985MOL0     H32927   1.991   2.428   1.913  3.8191 -0.2345  3.7868
  985MOL0     H32928   1.939   2.587   1.828 -0.3717 -0.4270 -0.4078
  985MOL0     H32929   2.168   2.653   1.964 -0.8414  2.3200 -2.4709
  985MOL0     H32930   2.203   2.482   1.926 -0.3317  1.4681  1.1945
  985MOL0     H32931   2.289   2.633   1.737  0.5102  0.2681 -1.1850
  985MOL0     H32932   2.120   2.682   1.712  0.3800 -1.6282 -3.0572
  985MOL0     H32933   2.221   2.524   1.555  1.5251  0.0910  1.2395
  985MOL0     H32934   2.064   2.464   1.625 -0.4902 -3.2063  1.3557
  985MOL0     H32935   2.370   2.194   1.830  1.3257 -1.3558  0.2799
  985MOL0     H32936   2.599   2.177   1.880  1.2054 -0.8593 -1.3542
  985MOL0     H32937   2.987   2.486   1.993 -1.2337  0.9771 -0.8345
  985MOL0     H32938   3.208   2.569   2.055 -1.8262 -1.7669  0.6612
  985MOL0     H32939   3.566   2.590   1.788  0.4467  0.5584 -0.8575
  985MOL0     H32940   3.449   2.708   1.723 -0.0957 -0.8464 -0.8922
  985MOL0     H32941   3.479   2.871   1.903  1.2230  2.9794  0.7824
  985MOL0     H32942   3.577   2.749   1.990  1.6038 -3.6791 -2.5188
  985MOL0     H32943   3.648   2.860   1.714 -1.4232  2.0725 -0.5968
  985MOL0     H32944   3.696   2.960   1.852  1.8245 -0.3981 -0.2777
  985MOL0     H32945   3.791   2.664   1.816 -1.1492  0.6912 -2.4344
  985MOL0     H32946   3.841   2.798   1.931  3.4987 -0.9248 -0.7498
  985MOL0     H32947   3.899   2.784   1.637  3.1108  3.1203 -1.5245
  985MOL0     H32948   4.009   2.775   1.775 -0.1114 -0.9392  0.0843
  985MOL0     H32949   3.853   3.038   1.726 -2.8453 -3.1639  0.0254
  985MOL0     H32950   3.969   3.000   1.851 -0.5501 -4.5600  1.1884
  985MOL0     H32951   4.144   2.980   1.722 -2.8762 -1.7052  2.6995
  985MOL0     H32952   4.056   3.126   1.656  0.2070 -0.3533  2.1822
  985MOL0     H32953   4.164   3.007   1.476 -0.3256  0.2109  1.5836
  985MOL0     H32954   4.081   2.857   1.517 -2.4006 -0.3986  2.8375
  985MOL0     H32955   3.297   2.565   1.631 -0.2324  1.1492  0.2259
  985MOL0     H32956   3.095   2.457   1.581  0.7995  1.0595  0.1971
  985MOL0     H32957   2.662   2.547   1.652 -0.7711  0.0228 -0.5002
  985MOL0     H32958   2.422   2.527   1.587 -2.5861 -0.8669  0.5163
  985MOL0     H32959   0.910   2.756   1.984 -1.1725  0.2161  1.2878
  985MOL0     H32960   0.703   2.859   1.873  0.8418  2.8774 -1.3345
  985MOL0     H32961   0.524   3.224   1.926 -0.8636  1.9405  0.8914
  985MOL0     H32962   0.396   3.421   1.879 -1.8113  0.6129 -0.3314
  985MOL0     H32963   0.103   3.377   1.545  1.5907 -2.8935  1.9162
  985MOL0     H32964   0.066   3.533   1.590  1.7096 -0.2551  1.8386
  985MOL0     H32965  -0.080   3.315   1.724  3.3340 -0.3872 -1.0606
  985MOL0     H32966  -0.143   3.413   1.601  0.7515 -1.3884 -0.8226
  985MOL0     H32967  -0.190   3.576   1.746 -0.5101 -1.5066 -1.6195
  985MOL0     H32968  -0.017   3.588   1.791  1.1245 -1.7964 -0.4395
  985MOL0     H32969  -0.150   3.555   1.999  2.2706 -0.7998  0.2880
  985MOL0     H32970  -0.219   3.406   1.952  1.0892 -0.3513  0.0254
  985MOL0     H32971   0.156   3.282   2.056 -0.2496 -1.1261 -1.0601
  985MOL0     H32972   0.143   3.182   1.618  1.4532  2.6123 -0.3903
  985MOL0     H32973   0.218   2.864   1.783  3.0130 -0.2236  0.6768
  985MOL0     H32974   0.137   2.945   1.644  0.0952  1.8706  0.3342
  985MOL0     H32975   0.306   2.902   1.635 -1.3561  2.0462 -3.1657
  986MOL0     O32976   9.829   0.378   8.766 -0.0578 -0.3787 -0.1946
  986MOL0     C32977   9.775   0.489   8.770 -0.6246  0.5224  0.6546
  986MOL0     O32978   9.653   0.519   8.715  0.1248  1.3252  0.4924
  986MOL0     C32979   9.599   0.421   8.632  0.0677  0.4515 -0.6842
  986MOL0     C32980   9.657   0.396   8.511 -0.4357 -1.0268 -0.9719
  986MOL0     C32981   9.611   0.294   8.428  0.1488  0.2184 -0.7986
  986MOL0     C32982   9.490   0.228   8.457 -0.2462 -0.2423  0.3397
  986MOL0     O32983   9.442   0.117   8.388 -0.3804 -0.7265  0.9248
  986MOL0     C32984   9.394   0.165   8.259 -0.1099 -0.8840 -0.5563
  986MOL0     C32985   9.287   0.076   8.227 -0.6695 -0.7084  0.6936
  986MOL0     C32986   9.224   0.103   8.086  0.5477  0.8880  0.4120
  986MOL0     C32987   9.149  -0.033   8.035  0.9371  0.2762 -0.6723
  986MOL0     C32988   9.096  -0.002   7.888 -0.1851  0.1896  0.0734
  986MOL0     C32989   9.006   0.119   7.873 -0.5161  0.6395 -0.0072
  986MOL0     C32990   8.938   0.132   7.732  0.3225 -0.5168  1.0824
  986MOL0     C32991   8.786   0.161   7.727 -0.6103  0.1240  0.2729
  986MOL0     N32992   8.751   0.285   7.796 -0.4079 -0.3493 -0.3479
  986MOL0     C32993   8.792   0.404   7.762 -0.1566 -0.7704 -0.3077
  986MOL0     C32994   8.733   0.490   7.849 -0.8553  0.0231  0.7991
  986MOL0     C32995   8.734   0.641   7.849  0.1367  0.4840 -0.7041
  986MOL0     C32996   8.656   0.696   7.961  0.3307 -0.1103 -0.7296
  986MOL0     C32997   8.686   0.849   7.987  1.0481  0.5746  0.0313
  986MOL0     C32998   8.837   0.870   8.027 -1.0924 -0.4020 -0.3134
  986MOL0     O32999   8.852   1.008   8.078  0.4650  0.3808  0.1373
  986MOL0     C33000   8.806   1.117   8.015  1.3383 -0.1980 -0.1962
  986MOL0     C33001   8.799   1.126   7.875  0.4633 -0.1160  0.2833
  986MOL0     C33002   8.718   1.222   7.816 -0.3174  0.2666 -0.3698
  986MOL0     C33003   8.677   1.335   7.894 -0.4379 -0.0896  0.7239
  986MOL0     C33004   8.611   1.449   7.835 -0.2999 -0.7600 -0.6279
  986MOL0     O33005   8.561   1.435   7.707  0.6231  0.4461  0.2685
  986MOL0     C33006   8.475   1.530   7.660  0.6153 -0.7226  0.1117
  986MOL0     C33007   8.336   1.513   7.654  0.2958  0.5682  0.5706
  986MOL0     C33008   8.255   1.617   7.601  0.8005  0.3287  0.6659
  986MOL0     C33009   8.314   1.726   7.532  0.7195 -1.0267 -0.3200
  986MOL0     O33010   8.252   1.830   7.463  0.0078 -0.2883 -0.6181
  986MOL0     C33011   8.166   1.788   7.360 -0.2518 -0.3749  0.0618
  986MOL0     C33012   8.225   1.726   7.234  0.5213  0.4335  0.1613
  986MOL0     C33013   8.276   1.576   7.253  0.3277  0.0037 -0.3365
  986MOL0     C33014   8.292   1.507   7.118 -0.5198 -0.1936 -0.5768
  986MOL0     C33015   8.367   1.383   7.130 -0.4794 -0.0085 -0.2180
  986MOL0     C33016   8.274   1.280   7.205 -0.2827  0.4934 -0.1100
  986MOL0     C33017   8.327   1.142   7.185  0.3372  0.1799 -0.1308
  986MOL0     C33018   8.243   1.051   7.265 -0.4559  0.0505 -0.3764
  986MOL0    Cl33019   8.329   0.913   7.332  0.3366 -0.1954  0.0583
  986MOL0     C33020   8.459   1.744   7.551  1.0235  0.1990  0.1069
  986MOL0     C33021   8.530   1.653   7.623 -0.0739  0.2020  0.4329
  986MOL0     O33022   8.606   1.556   7.901 -0.4762 -0.2009 -0.0105
  986MOL0     C33023   8.700   1.342   8.029 -0.5979  0.9793  0.3130
  986MOL0     C33024   8.770   1.237   8.087  0.5193 -0.0558 -0.2845
  986MOL0     N33025   8.650   0.408   7.927  0.1942 -0.9945  0.3632
  986MOL0     N33026   8.669   0.286   7.894 -0.1563  0.3661 -1.5913
  986MOL0     C33027   9.438   0.249   8.584  1.0469 -0.1818 -0.2175
  986MOL0     C33028   9.491   0.340   8.675 -0.9460 -0.3984  0.5020
  986MOL0     C33029   9.847   0.616   8.827  0.7023 -0.3049 -0.3704
  986MOL0     C33030   9.746   0.716   8.857 -1.3795  0.7613  0.5911
  986MOL0     C33031   9.787   0.845   8.884 -0.3413 -0.2991 -0.4187
  986MOL0     C33032   9.917   0.885   8.880 -0.8520  0.6831 -1.2106
  986MOL0     O33033   9.957   1.016   8.901  0.0027 -0.5990  0.2010
  986MOL0     C33034   9.957   1.092   8.776 -0.4512  0.9194 -0.2283
  986MOL0     C33035   9.822   1.158   8.746 -0.1849 -0.1001 -0.0559
  986MOL0     C33036   9.853   1.301   8.698  0.0882  0.1545 -0.1175
  986MOL0     C33037   9.871   1.406   8.816  0.1370 -0.4535  0.0297
  986MOL0     C33038   9.974   1.509   8.781 -0.0935  1.1153 -0.1902
  986MOL0     C33039  10.041   1.598   8.733  0.1567  0.1815 -0.5429
  986MOL0     C33040  10.013   0.787   8.847  0.4472 -0.0662  0.1167
  986MOL0     C33041   9.982   0.647   8.823 -0.0246 -0.2497  0.1602
  986MOL0     C33042  10.079   0.554   8.746 -0.3776 -0.7663  0.7095
  986MOL0     H33043   9.742   0.458   8.484 -2.1819  2.0917  0.1423
  986MOL0     H33044   9.664   0.295   8.333 -2.9372  1.9466 -2.6542
  986MOL0     H33045   9.360   0.269   8.257 -1.4720 -1.1200  2.9013
  986MOL0     H33046   9.476   0.154   8.187  1.5602 -1.8320  1.3707
  986MOL0     H33047   9.203   0.073   8.297 -2.4035 -0.1006 -1.2453
  986MOL0     H33048   9.344  -0.018   8.233  3.1199  1.4664  2.5324
  986MOL0     H33049   9.306   0.109   8.014  1.3719 -0.0114  1.2531
  986MOL0     H33050   9.166   0.194   8.069  0.2997  0.0864 -4.8807
  986MOL0     H33051   9.213  -0.122   8.037  3.9390  2.2759  2.3848
  986MOL0     H33052   9.056  -0.060   8.084 -1.3290 -0.4502 -4.8800
  986MOL0     H33053   9.175   0.022   7.817 -1.6631  0.0273 -1.6737
  986MOL0     H33054   9.043  -0.089   7.849 -0.8624  0.3971  0.4952
  986MOL0     H33055   8.931   0.105   7.951 -1.5136 -1.7741 -1.2927
  986MOL0     H33056   9.050   0.217   7.893 -1.5449  1.5492 -1.9040
  986MOL0     H33057   8.953   0.036   7.681 -3.7173 -0.4586 -0.5789
  986MOL0     H33058   8.989   0.216   7.684  0.4275 -0.5167  1.1942
  986MOL0     H33059   8.760   0.167   7.621  2.4647  0.5339 -0.5380
  986MOL0     H33060   8.738   0.078   7.779 -0.5344 -0.8134 -1.1164
  986MOL0     H33061   8.860   0.425   7.680  0.7750 -0.2991  0.5686
  986MOL0     H33062   8.840   0.667   7.859 -0.2209  1.3610  1.2393
  986MOL0     H33063   8.696   0.673   7.752 -1.3753 -1.7892 -0.9408
  986MOL0     H33064   8.548   0.679   7.967  0.2059  0.8508  0.0529
  986MOL0     H33065   8.680   0.642   8.053 -0.2966  0.4031 -0.2547
  986MOL0     H33066   8.633   0.892   8.073 -1.6386  0.4969 -1.4823
  986MOL0     H33067   8.654   0.912   7.903  4.1329 -2.2230 -3.6034
  986MOL0     H33068   8.901   0.847   7.941 -0.9901 -0.0631 -0.3274
  986MOL0     H33069   8.860   0.804   8.111  1.8562  2.3513  1.2154
  986MOL0     H33070   8.832   1.051   7.803 -0.9130 -1.8791  1.4104
  986MOL0     H33071   8.683   1.213   7.713  2.3596 -0.2883 -1.2991
  986MOL0     H33072   8.294   1.418   7.683  2.7819 -1.0205 -0.6687
  986MOL0     H33073   8.148   1.602   7.600  1.0521 -2.6509  3.2890
  986MOL0     H33074   8.106   1.706   7.400 -0.3426 -0.9243 -1.1737
  986MOL0     H33075   8.099   1.870   7.330 -2.3108 -2.2379 -0.7212
  986MOL0     H33076   8.138   1.712   7.168  1.2763 -1.1395 -0.5409
  986MOL0     H33077   8.310   1.778   7.188 -0.7092  1.8350 -0.6398
  986MOL0     H33078   8.379   1.589   7.287 -0.1495  2.7244  0.3232
  986MOL0     H33079   8.212   1.523   7.324 -0.0360  1.6642  0.6474
  986MOL0     H33080   8.352   1.569   7.050 -3.0817  1.8480 -1.1274
  986MOL0     H33081   8.192   1.495   7.077 -1.3589 -2.2028  1.8646
  986MOL0     H33082   8.469   1.382   7.170  0.0718 -0.0524 -1.5868
  986MOL0     H33083   8.374   1.341   7.029 -0.0695 -2.1848  0.6381
  986MOL0     H33084   8.261   1.315   7.308 -0.6966 -0.2739  0.1061
  986MOL0     H33085   8.172   1.275   7.164 -0.4033 -1.3577  0.3264
  986MOL0     H33086   8.430   1.128   7.220 -0.7509 -2.2986  2.4784
  986MOL0     H33087   8.320   1.118   7.079 -0.2550  2.2514 -0.5985
  986MOL0     H33088   8.201   1.102   7.352 -1.6148 -2.0137  0.3515
  986MOL0     H33089   8.147   1.028   7.217 -1.1078 -2.0492  1.7052
  986MOL0     H33090   8.495   1.842   7.522 -2.4885  1.7922  0.5490
  986MOL0     H33091   8.637   1.670   7.630 -0.3463  1.2175  2.8610
  986MOL0     H33092   8.662   1.418   8.096 -1.4410 -0.7878  1.9249
  986MOL0     H33093   8.796   1.238   8.193  1.9048 -1.7649 -0.5695
  986MOL0     H33094   9.356   0.188   8.619 -1.9099  1.1490 -4.1263
  986MOL0     H33095   9.453   0.360   8.775 -2.4952 -0.9275  0.0492
  986MOL0     H33096   9.640   0.697   8.860 -1.4043  0.7596 -0.2133
  986MOL0     H33097   9.711   0.922   8.895  0.6478  0.6078  0.3424
  986MOL0     H33098   9.996   1.034   8.692  1.8949 -2.0895  2.6471
  986MOL0     H33099  10.038   1.166   8.777  0.9591 -0.5143  1.8674
  986MOL0     H33100   9.757   1.174   8.833  0.5220 -0.8284  0.6274
  986MOL0     H33101   9.770   1.099   8.670  1.3655  0.5041 -1.6544
  986MOL0     H33102   9.771   1.333   8.634  1.0464  3.4786  0.0907
  986MOL0     H33103   9.941   1.301   8.633  1.0029  0.5464  1.0712
  986MOL0     H33104   9.781   1.455   8.853  1.8213  2.0142  1.1785
  986MOL0     H33105   9.903   1.357   8.909  0.6528  1.4636  0.9205
  986MOL0     H33106  10.093   1.683   8.693  3.1193 -0.6143  1.2268
  986MOL0     H33107  10.117   0.808   8.824  0.9580 -0.3192  1.9974
  986MOL0     H33108  10.081   0.572   8.639  0.2405  1.3838  1.0312
  986MOL0     H33109  10.179   0.560   8.789 -0.0401 -1.7575  0.0872
  986MOL0     H33110  10.051   0.450   8.766 -2.6789 -0.3805 -0.1694
  987MOL0     O33111   7.015  10.176   6.005  0.4855 -0.1530 -0.0524
  987MOL0     C33112   6.996  10.061   5.958 -0.2420 -0.1490 -0.8682
  987MOL0     O33113   6.991   9.944   6.031 -0.1251  0.4071  0.0569
  987MOL0     C33114   7.008   9.948   6.168  0.7258  0.2191  0.8688
  987MOL0     C33115   7.134   9.910   6.228  0.9527 -0.1521 -0.5797
  987MOL0     C33116   7.153   9.906   6.363  0.2131 -1.2694  0.1890
  987MOL0     C33117   7.043   9.930   6.450 -0.0296 -0.5571  0.0163
  987MOL0     O33118   7.072   9.901   6.579 -0.0801 -0.1534 -0.2750
  987MOL0     C33119   6.964   9.916   6.674  0.5834 -0.8011  0.6269
  987MOL0     C33120   7.028   9.898   6.813 -0.1482 -0.0176 -1.0742
  987MOL0     C33121   6.915   9.908   6.924 -0.6654  0.1096  0.1560
  987MOL0     C33122   6.818  10.030   6.910 -0.4986  0.1933 -0.2678
  987MOL0     C33123   6.773  10.089   7.046 -0.7678 -1.3177 -0.7601
  987MOL0     C33124   6.716   9.982   7.145 -0.3035  0.2581  0.9745
  987MOL0     C33125   6.688  10.017   7.290  0.5448 -0.9550  0.9188
  987MOL0     C33126   6.813  10.001   7.387  1.8043 -0.8583  0.3428
  987MOL0     N33127   6.774  10.039   7.525  0.2156 -0.3540  1.5024
  987MOL0     C33128   6.739  10.163   7.578  0.7636 -0.0363  0.2906
  987MOL0     C33129   6.721  10.152   7.711  1.1959  0.7503  0.5825
  987MOL0     C33130   6.638  10.239   7.796 -0.9227 -0.5246 -0.8936
  987MOL0     C33131   6.663  10.213   7.950 -0.7611  0.8391  0.4948
  987MOL0     C33132   6.584  10.285   8.065 -0.0297  0.3997  0.8593
  987MOL0     C33133   6.545  10.436   8.052 -0.0980  0.9057  0.5316
  987MOL0     O33134   6.407  10.461   8.054 -0.6345 -0.2944  0.1590
  987MOL0     C33135   6.326  10.410   8.152  0.0220 -0.3316 -0.8041
  987MOL0     C33136   6.363  10.378   8.280  1.1118  0.0976 -0.6558
  987MOL0     C33137   6.276  10.322   8.364  0.6189  0.8111 -0.2199
  987MOL0     C33138   6.139  10.312   8.331  0.1111 -0.4261  0.2849
  987MOL0     C33139   6.047  10.242   8.435 -0.4785 -0.0847  0.2889
  987MOL0     O33140   6.103  10.153   8.519  0.3230 -0.3852  0.3250
  987MOL0     C33141   6.030  10.117   8.631 -0.0018 -0.1928  0.4289
  987MOL0     C33142   6.043  10.183   8.758  0.3950 -0.4759  0.0293
  987MOL0     C33143   5.964  10.141   8.862  0.5519  0.3158 -0.3976
  987MOL0     C33144   5.898  10.019   8.859  1.0629  0.0778  1.4297
  987MOL0     O33145   5.858   9.968   8.980  0.3462  0.8088  0.4859
  987MOL0     C33146   5.791   9.834   8.985  0.2805 -0.6323  0.4571
  987MOL0     C33147   5.693   9.837   9.104 -0.4817  0.0343  0.1276
  987MOL0     C33148   5.644   9.697   9.136 -0.5808  0.1820  0.0334
  987MOL0     C33149   5.557   9.682   9.262  0.0015 -0.2669 -0.7415
  987MOL0     C33150   5.549   9.543   9.321  0.0827 -1.3387 -0.5891
  987MOL0     C33151   5.439   9.529   9.426  0.3144 -0.1280 -0.6540
  987MOL0     C33152   5.440   9.394   9.494 -1.3421  0.1433 -0.1012
  987MOL0     C33153   5.352   9.388   9.621  0.3608  0.0161 -0.0473
  987MOL0    Cl33154   5.392   9.515   9.753 -0.0169  0.2798 -0.0182
  987MOL0     C33155   5.895   9.946   8.742 -0.5365  0.1871  0.7214
  987MOL0     C33156   5.965   9.990   8.628  0.5041  0.4159 -0.8020
  987MOL0     O33157   5.926  10.270   8.444 -0.2845 -0.3238 -0.0498
  987MOL0     C33158   6.088  10.373   8.213 -0.2516 -0.0119 -0.4542
  987MOL0     C33159   6.192  10.411   8.122 -0.2882 -0.7610  0.7300
  987MOL0     N33160   6.728  10.015   7.731 -0.4902  0.3687 -0.6170
  987MOL0     N33161   6.783   9.949   7.623 -0.8831 -0.9741 -0.7074
  987MOL0     C33162   6.915   9.965   6.392 -0.0087  0.7208  0.3579
  987MOL0     C33163   6.902   9.975   6.252 -0.2785 -0.0996  0.1436
  987MOL0     C33164   6.962  10.032   5.816  0.2087  0.3499 -0.1814
  987MOL0     C33165   6.862   9.939   5.783  0.3717  0.0092  0.6056
  987MOL0     C33166   6.832   9.898   5.652 -0.0460 -0.2140 -0.0593
  987MOL0     C33167   6.891   9.961   5.547 -0.0056  0.4148 -1.2129
  987MOL0     O33168   6.831   9.938   5.427  0.3907 -0.5391 -0.1250
  987MOL0     C33169   6.877  10.007   5.306 -0.2851 -0.5054 -0.0893
  987MOL0     C33170   6.791   9.980   5.178 -0.2547 -0.0719  0.6694
  987MOL0     C33171   6.797  10.101   5.081 -0.1192 -0.3341  0.0263
  987MOL0     C33172   6.731  10.092   4.946 -0.0234  0.5300  0.2379
  987MOL0     C33173   6.796   9.993   4.861  0.3740 -0.6394 -0.3477
  987MOL0     C33174   6.865   9.935   4.781 -0.6099  0.3297 -0.7304
  987MOL0     C33175   6.997  10.045   5.568 -0.2675  0.6557  0.2213
  987MOL0     C33176   7.034  10.083   5.701  0.3704 -0.6247  0.8428
  987MOL0     C33177   7.146  10.186   5.719 -0.2768 -0.3137  0.0551
  987MOL0     H33178   7.218   9.880   6.166  1.5073 -1.3171  0.6924
  987MOL0     H33179   7.252   9.874   6.395 -0.0650 -1.7779  0.5693
  987MOL0     H33180   6.931  10.019   6.661  3.2901 -0.2140 -3.5208
  987MOL0     H33181   6.881   9.844   6.667  0.2363 -0.2978 -0.8792
  987MOL0     H33182   7.099   9.980   6.828  1.5345 -1.4035 -1.2365
  987MOL0     H33183   7.077   9.800   6.819 -0.1535 -0.0141 -0.9648
  987MOL0     H33184   6.967   9.916   7.020 -0.4988 -1.3435  0.2128
  987MOL0     H33185   6.866   9.811   6.933 -0.6013  0.2395  2.2598
  987MOL0     H33186   6.877  10.103   6.852 -2.8790 -1.1124 -4.8211
  987MOL0     H33187   6.732  10.018   6.843  0.5704  3.8508 -2.6354
  987MOL0     H33188   6.860  10.120   7.105 -0.9990  0.5929 -1.3447
  987MOL0     H33189   6.702  10.171   7.031  1.3657  0.5378 -1.2273
  987MOL0     H33190   6.624   9.938   7.105 -1.3234  1.8480  1.4361
  987MOL0     H33191   6.779   9.893   7.150 -0.8010 -0.3721 -1.9945
  987MOL0     H33192   6.600   9.962   7.324 -1.6970  2.4416  1.0789
  987MOL0     H33193   6.662  10.123   7.288 -0.0826 -1.1164 -1.0774
  987MOL0     H33194   6.855   9.900   7.381  0.7152 -1.5528  2.9398
  987MOL0     H33195   6.886  10.073   7.349  0.6512  0.6577  0.8998
  987MOL0     H33196   6.721  10.259   7.529 -1.4746 -0.2403  0.6102
  987MOL0     H33197   6.654  10.346   7.779 -3.6932  0.4328  1.7598
  987MOL0     H33198   6.535  10.209   7.774 -1.2870 -0.4388  0.6016
  987MOL0     H33199   6.660  10.105   7.960  3.6660  0.5712  0.9687
  987MOL0     H33200   6.769  10.236   7.969  0.3461 -1.5108 -2.1077
  987MOL0     H33201   6.633  10.267   8.161  1.8474  1.0019  0.0516
  987MOL0     H33202   6.489  10.230   8.068  1.9446 -3.2079  2.3585
  987MOL0     H33203   6.583  10.476   7.957 -0.3151  1.6037  0.7279
  987MOL0     H33204   6.600  10.494   8.127  2.5192  1.0843 -1.3642
  987MOL0     H33205   6.467  10.381   8.310  1.0478  4.0281 -0.3341
  987MOL0     H33206   6.317  10.268   8.449 -2.5930 -1.8743 -0.1847
  987MOL0     H33207   6.105  10.273   8.766  0.3209 -0.2665 -1.4211
  987MOL0     H33208   5.962  10.190   8.959 -3.1604 -0.3352 -0.0113
  987MOL0     H33209   5.731   9.816   8.894  0.7016  0.0749  0.0324
  987MOL0     H33210   5.866   9.755   8.984  0.0277 -0.8865  1.1617
  987MOL0     H33211   5.759   9.874   9.183  2.4876  0.2571 -2.2909
  987MOL0     H33212   5.605   9.902   9.096  0.1980  0.9382 -0.1487
  987MOL0     H33213   5.586   9.653   9.055 -1.9007 -0.7208  1.3968
  987MOL0     H33214   5.731   9.633   9.154  0.3626  1.8339  1.7913
  987MOL0     H33215   5.455   9.720   9.245 -0.9600 -2.0541  0.7799
  987MOL0     H33216   5.611   9.739   9.338 -2.6149  4.6628 -2.1331
  987MOL0     H33217   5.648   9.519   9.359  0.3451  2.8572  2.1241
  987MOL0     H33218   5.530   9.471   9.241 -0.2383 -0.0431 -1.7393
  987MOL0     H33219   5.458   9.598   9.509  1.0180 -0.7672 -0.2671
  987MOL0     H33220   5.341   9.549   9.382 -0.1869  0.3418  0.6102
  987MOL0     H33221   5.544   9.362   9.507 -0.5009  1.5760 -2.5167
  987MOL0     H33222   5.393   9.321   9.428 -1.4236 -2.0675  2.2280
  987MOL0     H33223   5.247   9.384   9.590  0.2365  3.1368 -0.3267
  987MOL0     H33224   5.388   9.290   9.653  1.9541  0.2356 -1.0474
  987MOL0     H33225   5.847   9.851   8.719 -2.0560  1.0251  0.3449
  987MOL0     H33226   5.989   9.927   8.543  3.4058 -2.9381  2.1528
  987MOL0     H33227   5.986  10.390   8.180  0.3730 -0.8980 -3.0400
  987MOL0     H33228   6.154  10.469   8.038  1.4763  4.5365  3.1227
  987MOL0     H33229   6.822   9.987   6.444 -0.5331 -1.6161  0.5365
  987MOL0     H33230   6.808  10.001   6.203 -0.4800  2.6494  1.8079
  987MOL0     H33231   6.797   9.893   5.857  0.6105 -3.3892 -1.1020
  987MOL0     H33232   6.751   9.828   5.633 -3.4115  2.5612  2.6014
  987MOL0     H33233   6.980   9.993   5.273 -1.0227  0.7121 -3.3573
  987MOL0     H33234   6.878  10.116   5.321  3.6151 -0.6857  2.0805
  987MOL0     H33235   6.691   9.955   5.213  0.9394 -3.0527  2.3266
  987MOL0     H33236   6.824   9.888   5.128 -1.7085 -0.9683  1.2797
  987MOL0     H33237   6.901  10.119   5.053 -0.0691  1.0145  0.9843
  987MOL0     H33238   6.749  10.177   5.143 -2.6595 -2.2211  0.5514
  987MOL0     H33239   6.627  10.058   4.957 -0.2301  1.2619  0.5622
  987MOL0     H33240   6.742  10.192   4.905 -0.5112  1.3532  2.0197
  987MOL0     H33241   6.917   9.881   4.704 -1.0189 -2.4166  0.7963
  987MOL0     H33242   7.036  10.112   5.492 -2.7893  0.0418 -1.7603
  987MOL0     H33243   7.231  10.190   5.649 -0.1696  2.1921  0.2065
  987MOL0     H33244   7.090  10.280   5.724  2.3280  1.2986  0.9258
  987MOL0     H33245   7.188  10.179   5.819  1.9491 -1.8743 -0.9035
  988MOL0     O33246   7.152   3.646   9.064 -0.9765 -0.3114 -0.1887
  988MOL0     C33247   7.121   3.524   9.052  0.1828  0.5606  0.9150
  988MOL0     O33248   7.016   3.472   9.109  0.8207 -0.0679  0.5788
  988MOL0     C33249   6.939   3.557   9.195  0.2968 -0.0038 -0.4930
  988MOL0     C33250   6.994   3.623   9.312  1.1979 -1.0039  0.9350
  988MOL0     C33251   6.907   3.707   9.389  0.0608 -0.5020  0.1759
  988MOL0     C33252   6.772   3.706   9.370 -0.5537  0.7211 -0.0148
  988MOL0     O33253   6.698   3.774   9.466  0.1235  0.6832 -0.3144
  988MOL0     C33254   6.551   3.736   9.474 -0.1385 -0.1458 -1.3918
  988MOL0     C33255   6.511   3.817   9.610  0.2462 -0.6393 -0.2963
  988MOL0     C33256   6.363   3.788   9.643  0.3354 -0.7852 -0.5720
  988MOL0     C33257   6.334   3.870   9.761 -0.2485 -0.3637  0.5154
  988MOL0     C33258   6.189   3.852   9.826  0.1475  0.0380 -0.1894
  988MOL0     C33259   6.142   3.711   9.844  0.3269  0.4352  0.4812
  988MOL0     C33260   6.002   3.691   9.920 -0.6678 -0.6053 -0.5784
  988MOL0     C33261   6.013   3.749  10.056  0.2885  0.8660  0.3114
  988MOL0     N33262   5.871   3.747  10.117  0.5345  0.6083  0.9122
  988MOL0     C33263   5.778   3.838  10.066  0.9304 -0.1446  0.0021
  988MOL0     C33264   5.661   3.789  10.113  1.2602  0.2385  0.2295
  988MOL0     C33265   5.516   3.842  10.107 -0.6941 -0.6265  0.7805
  988MOL0     C33266   5.531   3.980  10.182 -0.1892 -0.5532 -0.4296
  988MOL0     C33267   5.408   4.055  10.196  0.6152  0.3399 -0.0964
  988MOL0     C33268   5.287   3.970  10.260 -0.1612 -0.4811  1.4238
  988MOL0     O33269   5.188   4.056  10.299 -0.1191  0.3656 -0.2144
  988MOL0     C33270   5.076   4.106  10.227  0.0277  0.4959 -0.2174
  988MOL0     C33271   5.032   4.053  10.108  0.1373  0.1739  0.0987
  988MOL0     C33272   4.912   4.091  10.047  0.2883 -0.0139 -0.4138
  988MOL0     C33273   4.841   4.203  10.101  0.1151  0.7239  0.1585
  988MOL0     C33274   4.723   4.268  10.041  0.3020 -0.4558  0.9851
  988MOL0     O33275   4.663   4.370  10.106  0.1614 -0.1372 -0.1605
  988MOL0     C33276   4.548   4.417  10.052  0.0893 -0.4469  0.6768
  988MOL0     C33277   4.555   4.533   9.978  1.5334 -1.2399  0.7531
  988MOL0     C33278   4.434   4.577   9.916 -0.0070 -0.7887 -0.7642
  988MOL0     C33279   4.313   4.523   9.963 -0.7794 -0.1712 -0.3005
  988MOL0     O33280   4.197   4.583   9.937  0.8023  0.5739  0.1918
  988MOL0     C33281   4.146   4.551   9.808  0.2614  0.4313  1.5880
  988MOL0     C33282   3.998   4.611   9.780 -0.7852  1.1301 -0.0214
  988MOL0     C33283   3.910   4.557   9.890 -0.1113  0.4932 -0.2968
  988MOL0     C33284   3.760   4.573   9.858 -0.3843 -0.5808  1.1630
  988MOL0     C33285   3.663   4.551   9.977 -0.2239 -0.0593  0.6618
  988MOL0     C33286   3.678   4.427  10.058  0.4299 -0.5720 -0.8492
  988MOL0     C33287   3.560   4.417  10.161 -0.5087 -0.0984  0.5365
  988MOL0     C33288   3.575   4.298  10.254 -0.0321  0.5350  0.7003
  988MOL0    Cl33289   3.693   4.337  10.389  0.4565  0.0882 -0.0571
  988MOL0     C33290   4.316   4.407  10.030  0.3376  0.8049 -0.3628
  988MOL0     C33291   4.432   4.344  10.071 -0.3591 -0.6826 -0.2441
  988MOL0     O33292   4.698   4.228   9.928 -0.1838  0.7696  0.5980
  988MOL0     C33293   4.887   4.245  10.227 -0.5493 -0.2478 -0.1674
  988MOL0     C33294   5.002   4.196  10.302 -0.5961 -0.9961 -0.3467
  988MOL0     N33295   5.689   3.661  10.183  0.8066 -0.9459  0.2108
  988MOL0     N33296   5.813   3.640  10.187  0.0934 -0.8646  0.9383
  988MOL0     C33297   6.723   3.642   9.255  0.1728 -0.6454 -0.1647
  988MOL0     C33298   6.806   3.573   9.168 -1.0184 -0.0274 -1.0214
  988MOL0     C33299   7.217   3.432   8.988 -0.4080  0.0651  1.1403
  988MOL0     C33300   7.217   3.298   9.033 -0.4000  0.7334 -0.2112
  988MOL0     C33301   7.308   3.201   8.983  0.5759 -1.3485 -0.7602
  988MOL0     C33302   7.383   3.236   8.877 -0.2749 -0.6628  0.1175
  988MOL0     O33303   7.483   3.164   8.824  0.5775 -0.5659 -0.7012
  988MOL0     C33304   7.553   3.089   8.919 -1.7572  0.3025  0.0031
  988MOL0     C33305   7.704   3.083   8.867 -1.2289 -0.5031  0.7564
  988MOL0     C33306   7.779   3.223   8.857 -0.4987 -0.2618 -0.0363
  988MOL0     C33307   7.889   3.241   8.751 -0.0878 -0.8298 -0.5705
  988MOL0     C33308   7.851   3.175   8.626 -0.0679 -0.3451  0.3794
  988MOL0     C33309   7.829   3.111   8.523  0.3370  0.0209 -0.3161
  988MOL0     C33310   7.366   3.367   8.816  0.2125 -0.9320  0.0835
  988MOL0     C33311   7.296   3.469   8.875  0.3060 -0.1038 -0.2990
  988MOL0     C33312   7.296   3.610   8.825  0.3679  0.1580  0.5928
  988MOL0     H33313   7.098   3.624   9.345  1.4837  1.9649  0.1984
  988MOL0     H33314   6.957   3.762   9.468 -1.4097 -0.7434  1.3266
  988MOL0     H33315   6.490   3.771   9.390 -1.4715 -2.1385 -1.3281
  988MOL0     H33316   6.544   3.630   9.497 -0.6760 -0.0379 -1.0478
  988MOL0     H33317   6.528   3.925   9.604 -1.5124 -0.2690  0.5510
  988MOL0     H33318   6.563   3.794   9.703  0.1598 -3.1561 -0.8138
  988MOL0     H33319   6.359   3.682   9.669 -0.4560 -0.7344 -0.4682
  988MOL0     H33320   6.295   3.803   9.559 -0.9549  2.3893  0.8760
  988MOL0     H33321   6.398   3.843   9.845  0.9288  1.8835  0.4067
  988MOL0     H33322   6.334   3.977   9.739  2.2856  0.7373  4.6871
  988MOL0     H33323   6.199   3.908   9.919  1.0883  1.4009 -1.0644
  988MOL0     H33324   6.122   3.910   9.763  0.5684 -1.0004 -1.6494
  988MOL0     H33325   6.140   3.649   9.753  0.9862 -0.8967  1.3377
  988MOL0     H33326   6.213   3.654   9.905  2.1762  2.5423  0.4180
  988MOL0     H33327   5.975   3.585   9.929  1.5590 -1.1518  0.4512
  988MOL0     H33328   5.922   3.745   9.869 -1.3440 -1.6871 -0.7014
  988MOL0     H33329   6.082   3.682  10.107  2.3941  1.9600 -0.9884
  988MOL0     H33330   6.047   3.853  10.051 -0.6195  1.1833  0.4052
  988MOL0     H33331   5.784   3.925  10.001  0.3928 -0.4707 -0.4942
  988MOL0     H33332   5.486   3.852  10.002  0.1617 -2.2024  0.3537
  988MOL0     H33333   5.448   3.767  10.148 -2.8786  0.1596 -1.1902
  988MOL0     H33334   5.578   3.960  10.279 -0.3595 -2.8997 -0.7704
  988MOL0     H33335   5.599   4.048  10.129 -2.3636  1.4423 -0.8334
  988MOL0     H33336   5.372   4.085  10.097 -0.6678 -0.1439  0.2024
  988MOL0     H33337   5.429   4.137  10.265  1.3572 -1.4932  1.9860
  988MOL0     H33338   5.346   3.929  10.342 -0.0908  0.9640  2.1287
  988MOL0     H33339   5.253   3.883  10.204 -0.7308 -0.1863  1.2996
  988MOL0     H33340   5.097   3.990  10.047  0.0365  0.9458 -0.8453
  988MOL0     H33341   4.879   4.054   9.950 -1.4544 -0.9506  0.4893
  988MOL0     H33342   4.649   4.586   9.972  1.3038 -0.8855  0.1169
  988MOL0     H33343   4.442   4.671   9.862 -2.7033  0.9531  1.5544
  988MOL0     H33344   4.195   4.595   9.721  0.6191 -3.0001 -0.1181
  988MOL0     H33345   4.148   4.443   9.789  0.6740  0.6994 -0.0645
  988MOL0     H33346   4.019   4.718   9.781  0.5826  0.9055 -0.9416
  988MOL0     H33347   3.966   4.583   9.679  1.2652  3.3091 -1.3878
  988MOL0     H33348   3.930   4.449   9.895  0.0810  0.5332 -0.1815
  988MOL0     H33349   3.931   4.615   9.980 -1.9471  1.4781 -0.4551
  988MOL0     H33350   3.730   4.505   9.778 -0.7446  2.1500 -1.1960
  988MOL0     H33351   3.745   4.673   9.816 -0.4002 -1.6011 -1.4199
  988MOL0     H33352   3.560   4.556   9.942 -0.3216  0.7949  1.0519
  988MOL0     H33353   3.680   4.639  10.040  1.7596  2.6911 -3.3225
  988MOL0     H33354   3.673   4.339   9.993 -3.0627 -0.4760 -0.8977
  988MOL0     H33355   3.769   4.441  10.117 -0.7899  0.2223  0.9401
  988MOL0     H33356   3.466   4.409  10.105  0.5574  2.3868 -1.8401
  988MOL0     H33357   3.548   4.510  10.217 -0.2463 -0.1077  0.6066
  988MOL0     H33358   3.477   4.268  10.291  0.5519 -1.0615  1.0787
  988MOL0     H33359   3.604   4.213  10.190 -0.7708  1.8386 -1.4634
  988MOL0     H33360   4.222   4.358  10.055  1.4037 -2.7963 -2.6722
  988MOL0     H33361   4.440   4.244  10.112  0.8453 -1.0482 -1.3144
  988MOL0     H33362   4.831   4.330  10.266  0.7866  1.3773 -1.6239
  988MOL0     H33363   5.029   4.244  10.396 -3.4902  0.1905 -0.0062
  988MOL0     H33364   6.615   3.632   9.244  0.0700 -0.2789  0.4158
  988MOL0     H33365   6.771   3.514   9.084 -2.3297  1.7444 -1.8073
  988MOL0     H33366   7.160   3.271   9.121  0.5995 -1.5112 -0.1972
  988MOL0     H33367   7.315   3.101   9.025  2.9616 -0.8103  0.2530
  988MOL0     H33368   7.508   2.990   8.925 -1.5107  0.2853  3.3892
  988MOL0     H33369   7.560   3.141   9.015 -0.6495  1.9943 -0.9343
  988MOL0     H33370   7.699   3.043   8.765  0.4899 -2.4826  1.3798
  988MOL0     H33371   7.759   3.002   8.917 -3.6058 -1.4174  2.0542
  988MOL0     H33372   7.823   3.260   8.950 -0.2403  2.0135 -0.9992
  988MOL0     H33373   7.699   3.296   8.841  0.1400  0.5465  0.3614
  988MOL0     H33374   7.909   3.348   8.742 -3.5361  0.0573  0.7168
  988MOL0     H33375   7.980   3.198   8.795 -0.0456 -1.4593 -1.2588
  988MOL0     H33376   7.802   3.058   8.434 -3.1504  0.0083  0.5951
  988MOL0     H33377   7.434   3.383   8.733  0.3304  1.4714  0.5586
  988MOL0     H33378   7.357   3.617   8.735  1.2314  1.6781  1.2472
  988MOL0     H33379   7.194   3.637   8.797  0.1746  0.1555  1.2773
  988MOL0     H33380   7.343   3.677   8.897  2.4475 -1.3240  0.7060
  989MOL0     O33381   8.746   0.888   1.507 -0.9057 -0.7101  1.5186
  989MOL0     C33382   8.655   0.910   1.417 -0.9716 -0.8466  0.0470
  989MOL0     O33383   8.522   0.879   1.429 -0.9557 -0.1822 -0.7891
  989MOL0     C33384   8.473   0.873   1.556 -1.2029  0.2606  0.0932
  989MOL0     C33385   8.429   0.744   1.594  0.2118 -0.0062  0.3149
  989MOL0     C33386   8.372   0.734   1.720  0.7151 -0.5937 -1.3338
  989MOL0     C33387   8.373   0.842   1.810  0.8113 -0.1343  0.1286
  989MOL0     O33388   8.334   0.818   1.947 -0.5698  0.9793  0.8261
  989MOL0     C33389   8.405   0.876   2.063  0.0412  0.5825 -0.4360
  989MOL0     C33390   8.554   0.846   2.084  0.2119 -0.1225 -1.1014
  989MOL0     C33391   8.584   0.703   2.051  0.2733  0.2396 -0.4902
  989MOL0     C33392   8.735   0.684   2.044  0.7207 -0.2314  1.4406
  989MOL0     C33393   8.764   0.541   1.983 -0.4749 -1.0308  0.1691
  989MOL0     C33394   8.915   0.512   1.972  0.7170  0.0350  0.7163
  989MOL0     C33395   8.979   0.595   1.850 -0.0878  0.0184  0.0074
  989MOL0     C33396   8.904   0.579   1.714 -0.1188 -0.1042 -0.5585
  989MOL0     N33397   8.998   0.590   1.608 -0.2170  0.6148  0.5691
  989MOL0     C33398   9.044   0.488   1.534 -0.4552 -0.1814 -0.3006
  989MOL0     C33399   9.123   0.535   1.435  0.7736 -1.3460  0.0013
  989MOL0     C33400   9.182   0.456   1.324  0.8187  0.3145  0.5984
  989MOL0     C33401   9.252   0.323   1.379 -0.4814  0.5302  0.3717
  989MOL0     C33402   9.299   0.234   1.258 -0.0053 -0.1017 -0.7025
  989MOL0     C33403   9.390   0.114   1.282  0.0651  1.1487 -0.8987
  989MOL0     O33404   9.411   0.097   1.421  1.7455 -0.5047  0.0915
  989MOL0     C33405   9.475  -0.007   1.473  0.3641  0.8090  0.1153
  989MOL0     C33406   9.468  -0.017   1.617 -0.4426  0.1153  0.3196
  989MOL0     C33407   9.538  -0.123   1.681 -0.3384  0.0267 -0.3243
  989MOL0     C33408   9.614  -0.212   1.600  0.4698  0.5096  0.3975
  989MOL0     C33409   9.685  -0.328   1.656  0.8708 -1.4113 -0.1155
  989MOL0     O33410   9.650  -0.370   1.779  0.3404  0.2863  0.5568
  989MOL0     C33411   9.715  -0.473   1.837  0.5074 -0.8924  0.5853
  989MOL0     C33412   9.748  -0.597   1.776  0.0054 -0.7479 -0.1264
  989MOL0     C33413   9.817  -0.698   1.849  0.5566 -0.5079 -0.5335
  989MOL0     C33414   9.842  -0.682   1.980  0.1600 -0.0483  0.1251
  989MOL0     O33415   9.916  -0.785   2.033 -0.6702  0.4734 -0.4323
  989MOL0     C33416   9.940  -0.769   2.174  0.7686  0.5912  0.0079
  989MOL0     C33417   9.825  -0.839   2.268 -0.0717  0.5792  0.6563
  989MOL0     C33418   9.875  -0.853   2.408 -0.7340 -0.2456  0.4016
  989MOL0     C33419   9.923  -0.730   2.475  0.3890  0.8159  0.8747
  989MOL0     C33420   9.964  -0.764   2.624 -0.0156 -0.2922  0.2243
  989MOL0     C33421   9.968  -0.644   2.715 -0.1571  1.1643 -0.3919
  989MOL0     C33422  10.022  -0.682   2.852 -0.0414  0.6994  0.2655
  989MOL0     C33423  10.038  -0.572   2.952 -0.4915 -0.2764 -0.2236
  989MOL0    Cl33424  10.150  -0.446   2.889  0.1083  0.1278 -0.0268
  989MOL0     C33425   9.808  -0.565   2.037  0.5798  0.0903 -0.1053
  989MOL0     C33426   9.750  -0.458   1.973 -0.0078 -0.7229 -0.2244
  989MOL0     O33427   9.786  -0.364   1.600  0.4062 -0.1908  0.4888
  989MOL0     C33428   9.623  -0.198   1.459 -0.0251  0.0740  0.5983
  989MOL0     C33429   9.554  -0.097   1.398  0.3826  0.5645  0.6186
  989MOL0     N33430   9.108   0.675   1.445 -0.3261  0.2906 -0.1497
  989MOL0     N33431   9.058   0.703   1.557 -0.1906  0.4391 -0.6545
  989MOL0     C33432   8.401   0.968   1.764 -0.5414  0.1371  0.1412
  989MOL0     C33433   8.449   0.982   1.636  0.1524  1.1504  0.1318
  989MOL0     C33434   8.703   0.974   1.288 -0.6339 -0.6720 -0.6232
  989MOL0     C33435   8.600   0.996   1.200  0.1816  0.1735  0.7064
  989MOL0     C33436   8.643   1.061   1.086 -0.2732 -0.6098 -0.3961
  989MOL0     C33437   8.776   1.087   1.050  0.4437  0.1486  0.5659
  989MOL0     O33438   8.795   1.144   0.930 -0.8921 -0.0590  0.0229
  989MOL0     C33439   8.919   1.103   0.861 -0.1547  0.3289  0.2074
  989MOL0     C33440   8.927   1.184   0.736 -0.0364  0.3741 -0.1229
  989MOL0     C33441   9.015   1.105   0.634 -0.3712 -0.3508 -0.7602
  989MOL0     C33442   9.052   1.192   0.507 -0.8352 -0.2850  0.2106
  989MOL0     C33443   9.108   1.111   0.400  0.3766 -0.6574 -1.3371
  989MOL0     C33444   9.168   1.037   0.324 -0.0590  0.5956 -0.8060
  989MOL0     C33445   8.875   1.057   1.146 -0.6401  0.2155  0.6928
  989MOL0     C33446   8.839   1.016   1.265 -0.3317  0.6129 -0.3494
  989MOL0     C33447   8.958   1.022   1.364 -0.1786  0.8944  1.1671
  989MOL0     H33448   8.439   0.658   1.529  1.8458 -0.2601  0.8525
  989MOL0     H33449   8.342   0.637   1.757 -0.5105  0.2520 -0.0132
  989MOL0     H33450   8.390   0.984   2.057  1.9063  0.8583 -1.0375
  989MOL0     H33451   8.365   0.854   2.162  0.1809  2.9185  0.2009
  989MOL0     H33452   8.585   0.850   2.189 -1.4544 -2.6541 -0.4097
  989MOL0     H33453   8.615   0.918   2.030  4.2216 -0.2165  2.7766
  989MOL0     H33454   8.543   0.681   1.951 -3.0847  0.9259  0.6089
  989MOL0     H33455   8.533   0.633   2.118 -0.7250 -1.8179 -3.1607
  989MOL0     H33456   8.777   0.764   1.983 -0.8729 -0.7930 -0.4781
  989MOL0     H33457   8.771   0.699   2.147 -1.2798  4.1414  1.7283
  989MOL0     H33458   8.715   0.473   2.053 -2.2511  0.2197  0.2041
  989MOL0     H33459   8.710   0.515   1.891  0.3160 -0.5832 -0.4462
  989MOL0     H33460   8.965   0.535   2.066  1.2192 -1.0275  0.7163
  989MOL0     H33461   8.933   0.405   1.965  0.9264 -0.0238  1.9066
  989MOL0     H33462   9.083   0.562   1.840  1.1080  2.3106  3.2441
  989MOL0     H33463   8.994   0.700   1.877 -0.2786 -0.2416  1.1856
  989MOL0     H33464   8.865   0.477   1.719 -3.5463  1.0580 -0.2224
  989MOL0     H33465   8.823   0.653   1.710  0.7028  0.8325 -0.1250
  989MOL0     H33466   9.029   0.381   1.541 -0.1649 -0.1507  1.0902
  989MOL0     H33467   9.110   0.429   1.246  0.9346 -3.7625  1.6818
  989MOL0     H33468   9.257   0.514   1.268 -1.9847  1.6924 -2.0132
  989MOL0     H33469   9.339   0.355   1.438 -0.0422 -0.3997  0.2480
  989MOL0     H33470   9.185   0.263   1.441 -1.1094 -0.5233 -1.2634
  989MOL0     H33471   9.365   0.296   1.197  1.8969  0.0814  1.4445
  989MOL0     H33472   9.216   0.202   1.194 -0.3740 -1.2724  0.3238
  989MOL0     H33473   9.483   0.130   1.226 -1.2270  1.1474 -3.1159
  989MOL0     H33474   9.346   0.023   1.239 -3.1101  0.7129  2.6962
  989MOL0     H33475   9.420   0.055   1.683 -3.7129  0.0999 -1.8107
  989MOL0     H33476   9.533  -0.135   1.788  1.7712  0.8783 -0.0866
  989MOL0     H33477   9.726  -0.619   1.672 -1.1779  0.8702 -0.2662
  989MOL0     H33478   9.857  -0.782   1.793  1.5925 -1.2222  1.2040
  989MOL0     H33479  10.031  -0.824   2.202  1.0822  2.0186  1.9893
  989MOL0     H33480   9.966  -0.666   2.200  1.1703  2.2801 -5.6325
  989MOL0     H33481   9.737  -0.773   2.261  0.3169  0.9267 -2.6736
  989MOL0     H33482   9.787  -0.939   2.246 -2.6373  1.1952  1.9068
  989MOL0     H33483   9.788  -0.887   2.465 -1.4835 -0.6140 -0.9192
  989MOL0     H33484   9.941  -0.939   2.424 -2.0418 -1.2881  0.2975
  989MOL0     H33485   9.838  -0.662   2.484  0.4263  1.2312 -1.2808
  989MOL0     H33486  10.007  -0.675   2.432  2.8375 -1.9185  1.7591
  989MOL0     H33487  10.060  -0.816   2.617 -1.0456 -2.0944 -3.4096
  989MOL0     H33488   9.892  -0.832   2.672  0.9270 -2.1013 -0.8035
  989MOL0     H33489  10.037  -0.576   2.664 -0.2027  0.1053 -1.9367
  989MOL0     H33490   9.863  -0.612   2.719 -0.6666 -0.5243  0.7166
  989MOL0     H33491  10.125  -0.717   2.838  0.5224  2.2481  0.3937
  989MOL0     H33492   9.972  -0.768   2.897  3.2526  0.2625  3.6086
  989MOL0     H33493   9.944  -0.519   2.966 -0.1922  1.7160 -4.3168
  989MOL0     H33494  10.075  -0.615   3.046 -3.5924  0.0552  1.2673
  989MOL0     H33495   9.820  -0.547   2.143  0.9916  0.4804 -0.2147
  989MOL0     H33496   9.705  -0.373   2.022 -1.0958  0.3501 -2.8786
  989MOL0     H33497   9.697  -0.247   1.397 -1.0831 -0.3813 -0.3511
  989MOL0     H33498   9.545  -0.087   1.290 -2.4581 -0.8949  0.6372
  989MOL0     H33499   8.399   1.050   1.835  0.0077  2.0970 -1.9567
  989MOL0     H33500   8.485   1.081   1.612 -1.7843  1.6535 -0.9343
  989MOL0     H33501   8.499   0.967   1.225  0.9922 -2.8845  0.8650
  989MOL0     H33502   8.564   1.080   1.013 -1.3610 -1.1806  0.5899
  989MOL0     H33503   8.912   0.998   0.832  0.0589  0.4235 -0.2104
  989MOL0     H33504   9.010   1.108   0.921 -1.1969 -1.1501  2.0063
  989MOL0     H33505   8.967   1.286   0.742  0.3630  0.2718 -0.8742
  989MOL0     H33506   8.829   1.192   0.687 -0.8477 -2.4337  0.8909
  989MOL0     H33507   8.958   1.015   0.609 -1.7983 -0.0569  1.1928
  989MOL0     H33508   9.111   1.063   0.665  1.4649  1.0789 -3.9286
  989MOL0     H33509   8.967   1.239   0.456  0.4547 -0.1261 -1.9408
  989MOL0     H33510   9.126   1.268   0.534  1.1445 -1.8934 -0.4476
  989MOL0     H33511   9.211   0.979   0.245  0.4032 -1.0927  0.6297
  989MOL0     H33512   8.979   1.082   1.131 -0.1076 -0.9214  2.2629
  989MOL0     H33513   9.053   1.062   1.325 -0.4364 -1.2131 -1.9523
  989MOL0     H33514   8.932   1.087   1.448  1.7074  1.5715  1.2822
  989MOL0     H33515   8.982   0.919   1.391 -3.4985 -1.0895 -2.4605
  990MOL0     O33516   1.807  11.467   0.872  0.7670 -0.1962  0.3461
  990MOL0     C33517   1.770  11.544   0.785  0.2184 -1.1387 -0.0913
  990MOL0     O33518   1.648  11.608   0.793  0.1355  0.8105  0.0040
  990MOL0     C33519   1.553  11.579   0.888 -1.0163 -1.1002  0.5951
  990MOL0     C33520   1.593  11.592   1.020  0.0026  0.1786 -0.4629
  990MOL0     C33521   1.491  11.576   1.119 -0.8267 -0.0062 -0.0489
  990MOL0     C33522   1.354  11.556   1.089  0.2329 -0.2001  0.6096
  990MOL0     O33523   1.260  11.535   1.190  0.2874 -0.0262 -0.7984
  990MOL0     C33524   1.307  11.543   1.323  0.4815  1.1903 -0.0287
  990MOL0     C33525   1.181  11.540   1.412 -0.8989 -0.2017 -0.6135
  990MOL0     C33526   1.217  11.520   1.558 -0.4082 -0.3994  0.2860
  990MOL0     C33527   1.312  11.615   1.615 -0.0128  0.5189  0.2424
  990MOL0     C33528   1.319  11.611   1.768 -0.0308 -0.5175  0.4335
  990MOL0     C33529   1.417  11.716   1.821 -0.4229  0.0194  0.4582
  990MOL0     C33530   1.556  11.676   1.857 -0.4628 -0.6192  0.0357
  990MOL0     C33531   1.622  11.794   1.950  0.1757  0.0409 -0.3589
  990MOL0     N33532   1.564  11.774   2.080  0.3898  0.5089 -0.2635
  990MOL0     C33533   1.480  11.861   2.132 -0.1608  0.4737  1.0362
  990MOL0     C33534   1.456  11.804   2.263 -0.6483 -0.0428 -0.1071
  990MOL0     C33535   1.372  11.850   2.382 -0.2244 -0.3129 -0.7597
  990MOL0     C33536   1.283  11.972   2.367 -0.7817 -0.3912  0.3916
  990MOL0     C33537   1.172  11.954   2.263  0.0897  0.0004 -0.4007
  990MOL0     C33538   1.081  12.076   2.285 -0.1341  0.8905  1.0110
  990MOL0     O33539   0.959  12.056   2.210  0.3548 -0.4058 -0.4634
  990MOL0     C33540   0.851  12.145   2.213 -0.2475 -0.4594  0.9309
  990MOL0     C33541   0.855  12.266   2.281  0.3481 -0.1870  0.9172
  990MOL0     C33542   0.739  12.349   2.265 -0.1039  0.0980 -0.6830
  990MOL0     C33543   0.626  12.312   2.200  0.4049  0.7170 -0.4545
  990MOL0     C33544   0.517  12.399   2.191  0.6169 -1.0129 -0.6313
  990MOL0     O33545   0.550  12.531   2.184 -0.3496 -0.1238  0.0195
  990MOL0     C33546   0.484  12.629   2.115  0.7027 -0.1105  0.5468
  990MOL0     C33547   0.335  12.637   2.092  0.1258 -0.9994 -0.5060
  990MOL0     C33548   0.284  12.761   2.037 -0.2163  0.3737 -0.0401
  990MOL0     C33549   0.363  12.869   1.998 -0.3761  0.2571 -0.5611
  990MOL0     O33550   0.312  12.983   1.954 -0.7913  0.0130  0.7055
  990MOL0     C33551   0.233  13.070   2.047  0.2640 -0.4862  0.5956
  990MOL0     C33552   0.223  13.199   1.964 -1.2774  1.1374 -0.0024
  990MOL0     C33553   0.173  13.306   2.045  0.2578  0.3651 -0.4424
  990MOL0     C33554   0.236  13.441   2.004  0.3938 -1.1920 -0.1869
  990MOL0     C33555   0.149  13.551   2.072  0.0251 -0.5802  0.5498
  990MOL0     C33556   0.204  13.698   2.061  0.2825  0.3012  0.5751
  990MOL0     C33557   0.223  13.754   1.918  0.2258 -0.1957 -0.3717
  990MOL0     C33558   0.357  13.835   1.925  0.8114  0.2068  1.0850
  990MOL0    Cl33559   0.339  13.966   1.805 -0.1112 -0.0567 -0.1062
  990MOL0     C33560   0.495  12.861   2.037 -0.3317 -0.4503  0.1107
  990MOL0     C33561   0.549  12.747   2.095  0.1666  0.4303  0.8353
  990MOL0     O33562   0.400  12.356   2.177  0.2751  0.6050  1.0520
  990MOL0     C33563   0.630  12.191   2.129 -0.7156 -0.1591 -0.9088
  990MOL0     C33564   0.742  12.104   2.143  0.6054 -0.2961 -0.7037
  990MOL0     N33565   1.529  11.683   2.275  0.0283 -1.0992  0.7350
  990MOL0     N33566   1.588  11.665   2.159 -0.3090  0.3081 -0.0673
  990MOL0     C33567   1.324  11.538   0.952  0.0169 -1.0233 -0.1506
  990MOL0     C33568   1.422  11.550   0.850 -0.4982  0.7522  0.1506
  990MOL0     C33569   1.865  11.593   0.675  0.8927 -0.1846  0.0117
  990MOL0     C33570   2.001  11.568   0.698 -1.0296  0.0568 -0.2586
  990MOL0     C33571   2.102  11.587   0.602 -0.3591  1.1688  0.3295
  990MOL0     C33572   2.054  11.626   0.477  0.3268  0.0378  0.8482
  990MOL0     O33573   2.161  11.614   0.388 -0.6970 -0.7175 -0.2390
  990MOL0     C33574   2.118  11.596   0.255 -0.2816 -0.9663 -0.7712
  990MOL0     C33575   2.238  11.549   0.175 -0.9936 -0.5019 -0.2943
  990MOL0     C33576   2.217  11.540   0.020 -0.9563 -0.5407 -0.3605
  990MOL0     C33577   2.304  11.442  -0.053  0.8383  1.2897  0.1682
  990MOL0     C33578   2.291  11.429  -0.193  0.6094 -1.3301  0.1603
  990MOL0     C33579   2.281  11.419  -0.314 -0.2054  0.1218  0.5479
  990MOL0     C33580   1.923  11.666   0.454  0.6673  0.3469  0.2071
  990MOL0     C33581   1.825  11.655   0.554 -0.0200  0.7978 -0.3467
  990MOL0     C33582   1.682  11.696   0.519 -0.2602  0.0901 -0.6103
  990MOL0     H33583   1.697  11.593   1.050 -0.0691  0.4259 -0.2084
  990MOL0     H33584   1.535  11.568   1.218 -0.0224  1.6777 -0.2353
  990MOL0     H33585   1.363  11.451   1.340  1.6347  1.9035  0.1489
  990MOL0     H33586   1.370  11.628   1.352  3.0660 -0.2917 -1.0068
  990MOL0     H33587   1.109  11.463   1.380  3.6295 -5.8309  1.0338
  990MOL0     H33588   1.137  11.640   1.403  1.1344  0.7846 -0.0848
  990MOL0     H33589   1.257  11.419   1.573 -0.2811 -0.0536  2.7906
  990MOL0     H33590   1.122  11.534   1.611 -0.4457 -2.9672  1.0470
  990MOL0     H33591   1.408  11.576   1.580 -1.7744 -0.9665 -3.4829
  990MOL0     H33592   1.304  11.718   1.580 -0.4321 -0.1282 -1.7019
  990MOL0     H33593   1.223  11.641   1.814 -2.1295 -1.8733 -2.7360
  990MOL0     H33594   1.332  11.506   1.793  1.1873 -0.6457 -0.7012
  990MOL0     H33595   1.405  11.814   1.774 -2.4958  0.6981  2.2221
  990MOL0     H33596   1.380  11.729   1.924  0.2194 -1.3200  0.8736
  990MOL0     H33597   1.619  11.673   1.767 -2.3780  0.4705 -1.4104
  990MOL0     H33598   1.566  11.580   1.909  0.5354 -2.8981 -3.9135
  990MOL0     H33599   1.729  11.783   1.966  0.3102 -0.9032 -1.6877
  990MOL0     H33600   1.597  11.888   1.899 -1.6284  0.7022  1.6113
  990MOL0     H33601   1.454  11.958   2.090 -0.8231 -0.4997 -0.9003
  990MOL0     H33602   1.314  11.760   2.405 -1.3854  1.1751  2.6785
  990MOL0     H33603   1.436  11.870   2.468 -1.5222 -2.8345  0.9219
  990MOL0     H33604   1.248  11.999   2.467  3.4518  3.4464  1.1805
  990MOL0     H33605   1.340  12.053   2.321 -0.4105 -0.9518 -0.1622
  990MOL0     H33606   1.112  11.862   2.269 -1.6393  0.9955 -1.4557
  990MOL0     H33607   1.217  11.940   2.165  0.6436 -0.9706 -0.0240
  990MOL0     H33608   1.120  12.165   2.236 -0.3417  3.1988  4.6346
  990MOL0     H33609   1.064  12.099   2.391 -0.1718  0.6397  1.0606
  990MOL0     H33610   0.934  12.305   2.345  0.8664  0.4957 -0.1171
  990MOL0     H33611   0.737  12.434   2.333  0.0623  0.5639 -1.2513
  990MOL0     H33612   0.268  12.553   2.111 -0.1393 -0.5975  0.4203
  990MOL0     H33613   0.183  12.793   2.015  0.7633  5.4955  1.5552
  990MOL0     H33614   0.129  13.043   2.068 -0.3016  1.2447  0.2708
  990MOL0     H33615   0.293  13.091   2.136  2.2965  0.4124 -0.9021
  990MOL0     H33616   0.324  13.226   1.931 -1.3386  0.2108 -0.9798
  990MOL0     H33617   0.160  13.196   1.875  0.1932 -1.2862 -1.0513
  990MOL0     H33618   0.065  13.309   2.029  0.4623 -2.8979 -4.0594
  990MOL0     H33619   0.186  13.284   2.151 -2.9040 -0.6354 -0.1823
  990MOL0     H33620   0.222  13.464   1.899 -1.1568  2.7312  0.7297
  990MOL0     H33621   0.339  13.460   2.035 -0.4996  2.8943  0.8551
  990MOL0     H33622   0.132  13.527   2.177 -0.6418 -2.9395 -0.0423
  990MOL0     H33623   0.049  13.546   2.026 -1.0031  1.4351  2.4019
  990MOL0     H33624   0.156  13.773   2.124  0.8339  0.9256  0.2725
  990MOL0     H33625   0.302  13.699   2.109  2.7607  1.2792 -3.9266
  990MOL0     H33626   0.129  13.805   1.893 -2.7947 -4.8514  0.1868
  990MOL0     H33627   0.231  13.681   1.838 -1.5240  2.5316 -3.2885
  990MOL0     H33628   0.379  13.862   2.029 -0.3019 -0.3993  1.4979
  990MOL0     H33629   0.430  13.758   1.897 -0.7115 -0.6661 -0.7724
  990MOL0     H33630   0.554  12.947   2.007 -2.8812  0.8478 -1.6524
  990MOL0     H33631   0.652  12.751   2.128  0.1986 -0.4871  0.8663
  990MOL0     H33632   0.554  12.149   2.063 -1.8289  0.0695  0.1867
  990MOL0     H33633   0.756  12.001   2.112 -1.5032 -0.2023 -2.1453
  990MOL0     H33634   1.221  11.520   0.924 -0.4194  0.0745  0.6612
  990MOL0     H33635   1.404  11.538   0.744 -4.8373  0.0948  0.8086
  990MOL0     H33636   2.030  11.529   0.795 -0.1615  2.2838  0.4296
  990MOL0     H33637   2.205  11.553   0.610 -0.9128 -0.6149  0.2409
  990MOL0     H33638   2.066  11.674   0.199 -3.2930 -3.0154 -1.0602
  990MOL0     H33639   2.055  11.507   0.265 -3.0637  1.1096  1.9415
  990MOL0     H33640   2.263  11.453   0.221 -1.8169 -0.5456  0.0630
  990MOL0     H33641   2.320  11.620   0.189 -0.6568 -0.5466 -1.7987
  990MOL0     H33642   2.244  11.632  -0.033 -0.0471 -1.3724 -1.3688
  990MOL0     H33643   2.112  11.518  -0.001 -0.8792  0.4571 -1.9326
  990MOL0     H33644   2.410  11.470  -0.052  0.7698  1.5645 -0.2203
  990MOL0     H33645   2.284  11.349   0.000 -2.3839  0.3922 -2.3049
  990MOL0     H33646   2.288  11.428  -0.420 -2.9692  1.1581  0.3630
  990MOL0     H33647   1.888  11.692   0.354  0.4653 -0.6881  0.0004
  990MOL0     H33648   1.615  11.610   0.526  1.6838 -1.6155 -1.5248
  990MOL0     H33649   1.662  11.781   0.585 -4.3742  0.3401 -1.9208
  990MOL0     H33650   1.679  11.717   0.411  3.7547  1.7813 -0.5761
  991MOL0     O33651   9.633   7.729   8.133 -0.2293  0.4062  0.6661
  991MOL0     C33652   9.534   7.650   8.120 -0.2947  0.3938 -1.1599
  991MOL0     O33653   9.493   7.576   8.011  0.5162 -0.2624 -0.1922
  991MOL0     C33654   9.570   7.573   7.902  0.7509 -0.4492  0.9467
  991MOL0     C33655   9.568   7.451   7.841  0.1995 -0.4100  0.0153
  991MOL0     C33656   9.641   7.425   7.728 -0.8806  0.3004  0.4415
  991MOL0     C33657   9.719   7.522   7.667 -0.1468  0.3250  0.7774
  991MOL0     O33658   9.776   7.482   7.548 -0.4181  0.3205  0.1320
  991MOL0     C33659   9.902   7.550   7.513 -0.0459  0.9824  0.1214
  991MOL0     C33660   9.957   7.455   7.409 -0.0640  0.1428  0.7125
  991MOL0     C33661   9.879   7.443   7.275  0.3764  0.2303  0.2990
  991MOL0     C33662   9.833   7.580   7.226 -0.4180  0.8623  0.1990
  991MOL0     C33663   9.800   7.573   7.074  0.3305  0.0108 -0.7549
  991MOL0     C33664   9.917   7.603   6.973 -0.1173  0.0023  0.2983
  991MOL0     C33665   9.886   7.551   6.832 -0.4155  0.1042 -1.3514
  991MOL0     C33666   9.914   7.401   6.816 -0.3446 -0.7578  1.0860
  991MOL0     N33667   9.877   7.345   6.687  0.0396 -0.0146 -0.4262
  991MOL0     C33668   9.963   7.333   6.582  0.0718  0.2779 -0.6905
  991MOL0     C33669   9.882   7.275   6.486  0.6156 -0.3914  0.2437
  991MOL0     C33670   9.914   7.249   6.346 -0.8259  0.5279 -0.2828
  991MOL0     C33671   9.792   7.181   6.282 -0.7787 -0.4270  0.3910
  991MOL0     C33672   9.667   7.282   6.245 -0.5936 -1.0245  0.2127
  991MOL0     C33673   9.679   7.368   6.111  0.5426  0.8073  0.1739
  991MOL0     O33674   9.554   7.383   6.051  0.4886  0.6585 -0.0548
  991MOL0     C33675   9.541   7.443   5.922 -0.1519  1.3153  0.1593
  991MOL0     C33676   9.641   7.453   5.823 -0.0695 -0.1953  0.1070
  991MOL0     C33677   9.612   7.512   5.697  0.1473 -0.2994 -0.6057
  991MOL0     C33678   9.493   7.570   5.670  0.7914 -0.0255  0.3619
  991MOL0     C33679   9.471   7.654   5.550 -1.0010 -1.0278  0.3615
  991MOL0     O33680   9.517   7.611   5.436 -0.9418  0.6898 -0.1782
  991MOL0     C33681   9.564   7.686   5.327 -0.9739 -0.9958 -0.3736
  991MOL0     C33682   9.598   7.820   5.343 -1.0606 -0.2979 -0.1241
  991MOL0     C33683   9.679   7.876   5.246 -0.4168  1.4124  0.4566
  991MOL0     C33684   9.704   7.807   5.117  0.2704  0.0570 -0.4281
  991MOL0     O33685   9.775   7.859   5.015 -0.0859 -0.4096 -0.5291
  991MOL0     C33686   9.768   8.001   4.985  0.6912  0.1582 -0.2825
  991MOL0     C33687   9.755   8.014   4.832  0.2255 -0.3765  0.5840
  991MOL0     C33688   9.642   7.935   4.760 -0.5524  0.1060  0.1002
  991MOL0     C33689   9.667   7.959   4.612 -0.0764  0.1633  0.4552
  991MOL0     C33690   9.573   7.879   4.529  0.3922 -0.1690  0.7552
  991MOL0     C33691   9.574   7.930   4.386  0.0706 -0.3748  0.4787
  991MOL0     C33692   9.462   7.867   4.307  0.3636 -1.0904 -0.6706
  991MOL0     C33693   9.454   7.929   4.168 -0.8171  0.0284  0.2163
  991MOL0    Cl33694   9.311   7.861   4.095 -0.4288  0.5268  0.1013
  991MOL0     C33695   9.639   7.678   5.100  0.6655  0.3143 -0.0996
  991MOL0     C33696   9.572   7.614   5.208 -0.5890  0.2670  0.3661
  991MOL0     O33697   9.412   7.767   5.569 -0.0884  0.8429 -0.1892
  991MOL0     C33698   9.394   7.555   5.761 -0.0887  0.1500 -1.0693
  991MOL0     C33699   9.416   7.497   5.890  0.5785 -0.1805 -0.0669
  991MOL0     N33700   9.756   7.265   6.542 -0.1292 -0.6536 -0.5696
  991MOL0     N33701   9.759   7.297   6.665  0.3105 -0.6021 -0.1052
  991MOL0     C33702   9.725   7.647   7.724 -0.0725  0.2456 -0.6487
  991MOL0     C33703   9.644   7.680   7.838 -0.0534  0.3033 -0.0009
  991MOL0     C33704   9.436   7.664   8.236  0.8055  0.6760  0.8864
  991MOL0     C33705   9.349   7.773   8.258 -1.0648 -0.4237 -0.6932
  991MOL0     C33706   9.253   7.780   8.363 -0.5693  0.7603 -0.3539
  991MOL0     C33707   9.244   7.669   8.452 -0.0317 -0.1889 -0.3278
  991MOL0     O33708   9.149   7.673   8.552 -0.2230 -0.3570 -0.1987
  991MOL0     C33709   9.068   7.564   8.574  0.0392 -0.0726  0.3510
  991MOL0     C33710   8.972   7.524   8.460  0.1262 -0.2776  0.5021
  991MOL0     C33711   8.896   7.639   8.400 -0.2285  0.6297  1.2076
  991MOL0     C33712   8.818   7.730   8.496 -0.1346  0.5233 -0.4898
  991MOL0     C33713   8.724   7.645   8.562  0.8099 -0.9582  0.5802
  991MOL0     C33714   8.647   7.558   8.595  0.2016 -0.7833  0.0172
  991MOL0     C33715   9.334   7.559   8.437 -0.1671 -1.2233 -1.0500
  991MOL0     C33716   9.427   7.560   8.334 -0.1888  0.3733 -0.9603
  991MOL0     C33717   9.520   7.427   8.325  0.2156 -0.6434 -0.5740
  991MOL0     H33718   9.510   7.367   7.877  2.1201 -1.2648  1.3313
  991MOL0     H33719   9.625   7.334   7.672  1.2296  0.5353 -0.6315
  991MOL0     H33720   9.873   7.652   7.486  2.0104  2.2352  2.2060
  991MOL0     H33721   9.970   7.556   7.599  2.4630  0.0527 -1.6740
  991MOL0     H33722   9.966   7.354   7.449  0.9149 -0.2324 -0.4118
  991MOL0     H33723  10.055   7.495   7.380  0.4033 -2.0423 -0.9997
  991MOL0     H33724   9.791   7.382   7.297  1.9912 -1.5447  2.2363
  991MOL0     H33725   9.937   7.388   7.200  2.4717 -1.3070  2.8648
  991MOL0     H33726   9.747   7.618   7.282 -0.0759  3.9391 -1.1673
  991MOL0     H33727   9.923   7.638   7.246  1.0492 -1.9297  2.5987
  991MOL0     H33728   9.729   7.495   7.048 -0.5589 -0.2977  2.2189
  991MOL0     H33729   9.733   7.657   7.052 -1.1495 -1.4556 -2.0836
  991MOL0     H33730   9.949   7.707   6.981 -0.8692  0.2728 -0.0876
  991MOL0     H33731  10.004   7.549   7.010 -2.4909 -2.7387  2.4315
  991MOL0     H33732   9.952   7.598   6.759  0.2398  0.1626 -0.7295
  991MOL0     H33733   9.779   7.564   6.815 -0.5096 -0.0436 -0.8642
  991MOL0     H33734  10.020   7.377   6.828 -0.0913  0.2042  0.8608
  991MOL0     H33735   9.855   7.354   6.896 -0.8768 -2.5303 -0.2765
  991MOL0     H33736  10.070   7.344   6.591 -0.1296  0.7681  2.0725
  991MOL0     H33737   9.917   7.347   6.297  0.1529  0.4118 -0.4712
  991MOL0     H33738  10.012   7.205   6.326 -0.7173 -0.4112  2.0297
  991MOL0     H33739   9.820   7.141   6.184  3.1327  3.0285 -0.2105
  991MOL0     H33740   9.760   7.095   6.342 -1.2999 -0.8707 -0.5075
  991MOL0     H33741   9.625   7.349   6.321 -1.4341  0.1484 -1.2063
  991MOL0     H33742   9.579   7.222   6.221 -1.3516 -0.1289  0.6972
  991MOL0     H33743   9.742   7.315   6.038 -3.6895 -1.5060 -2.2090
  991MOL0     H33744   9.723   7.466   6.133  1.7866  0.0355  1.2449
  991MOL0     H33745   9.739   7.408   5.838 -0.0205  0.1864  0.9334
  991MOL0     H33746   9.700   7.513   5.633 -0.1753 -2.4815 -1.1830
  991MOL0     H33747   9.572   7.874   5.433  1.4678  0.8870 -0.0329
  991MOL0     H33748   9.727   7.971   5.266  2.8840  0.1955 -0.9596
  991MOL0     H33749   9.685   8.056   5.029  1.0967  0.3938  0.1964
  991MOL0     H33750   9.856   8.052   5.025  1.4573 -1.1309 -0.2646
  991MOL0     H33751   9.742   8.121   4.812  2.4222 -0.0849  0.4336
  991MOL0     H33752   9.856   7.983   4.801 -0.2277  1.2989 -3.1379
  991MOL0     H33753   9.636   7.829   4.786  0.5581  0.1856  0.7092
  991MOL0     H33754   9.544   7.976   4.787  0.9755  2.0935  3.0152
  991MOL0     H33755   9.764   7.914   4.587  0.3652  0.7391  1.0782
  991MOL0     H33756   9.679   8.062   4.577 -0.3662 -0.6824 -2.3066
  991MOL0     H33757   9.472   7.901   4.566  1.0421  1.7244  1.5169
  991MOL0     H33758   9.594   7.772   4.524  1.1526 -0.0301  0.8685
  991MOL0     H33759   9.557   8.038   4.378 -1.8252 -0.5164  1.8694
  991MOL0     H33760   9.667   7.891   4.345 -0.0656  0.0158 -0.2146
  991MOL0     H33761   9.372   7.893   4.363  0.6841 -0.6824 -0.3370
  991MOL0     H33762   9.478   7.759   4.302 -1.6942 -1.4274 -0.8205
  991MOL0     H33763   9.434   8.036   4.178  0.8273  0.4579 -0.6768
  991MOL0     H33764   9.539   7.914   4.100 -0.9213  3.6268 -0.9158
  991MOL0     H33765   9.648   7.620   5.009 -2.8493  0.0842 -0.4482
  991MOL0     H33766   9.553   7.512   5.176  3.2998 -0.6282  0.5125
  991MOL0     H33767   9.304   7.614   5.758  0.3095  1.3326  3.4776
  991MOL0     H33768   9.334   7.507   5.961  0.8853  0.4938  0.2001
  991MOL0     H33769   9.784   7.721   7.671  0.2638  0.4912  0.0581
  991MOL0     H33770   9.641   7.783   7.872  0.9478  1.2488 -2.5437
  991MOL0     H33771   9.360   7.851   8.184 -0.7630 -0.7406 -0.9827
  991MOL0     H33772   9.200   7.874   8.376 -0.1190  0.8753  0.7200
  991MOL0     H33773   8.997   7.580   8.655  0.6974 -0.4987  1.0242
  991MOL0     H33774   9.127   7.478   8.605  0.3787 -0.6546 -1.7394
  991MOL0     H33775   8.903   7.446   8.493 -1.4258  0.1760 -1.4838
  991MOL0     H33776   9.022   7.481   8.373  1.5138 -0.4771  1.3690
  991MOL0     H33777   8.828   7.595   8.326  1.6656 -1.9730  0.8756
  991MOL0     H33778   8.971   7.703   8.353 -2.8380  0.7066 -3.3880
  991MOL0     H33779   8.880   7.763   8.580  0.2361 -0.0286 -0.5447
  991MOL0     H33780   8.770   7.819   8.454 -2.6584  0.3078  1.6536
  991MOL0     H33781   8.578   7.478   8.616 -0.0631 -1.1463 -1.9923
  991MOL0     H33782   9.301   7.477   8.500 -4.0142  1.5658  1.0209
  991MOL0     H33783   9.536   7.391   8.223  0.2528  0.1915 -0.8706
  991MOL0     H33784   9.613   7.455   8.377  0.3941 -1.4303 -0.4641
  991MOL0     H33785   9.475   7.342   8.376  3.8791 -2.7809 -0.5233
  992MOL0     O33786   6.164   0.837   7.256  0.1530  0.5633  0.5616
  992MOL0     C33787   6.165   0.874   7.373 -0.7028 -0.2970  0.2272
  992MOL0     O33788   6.251   0.827   7.474 -1.0668  0.2220  0.2927
  992MOL0     C33789   6.294   0.696   7.469  0.2095 -0.3155 -0.1207
  992MOL0     C33790   6.389   0.669   7.575 -0.4678  0.2627 -0.0722
  992MOL0     C33791   6.446   0.538   7.584 -0.6254 -0.8376  0.7424
  992MOL0     C33792   6.414   0.440   7.494  0.5478  0.4016  0.2692
  992MOL0     O33793   6.487   0.323   7.501 -0.2694 -0.8296  0.1830
  992MOL0     C33794   6.485   0.224   7.401  0.3095 -1.1419  0.2786
  992MOL0     C33795   6.622   0.152   7.418 -0.7585  0.3702 -0.1097
  992MOL0     C33796   6.668   0.050   7.309  0.4706 -0.5380 -0.8729
  992MOL0     C33797   6.783  -0.042   7.365 -0.2317 -1.0217 -0.5567
  992MOL0     C33798   6.845  -0.134   7.261 -0.2259 -0.2993  0.4416
  992MOL0     C33799   6.915  -0.067   7.135  0.0789 -0.3603 -0.5048
  992MOL0     C33800   7.048   0.002   7.173  0.4366  0.4877  0.7614
  992MOL0     C33801   7.116   0.066   7.050  0.0089 -1.3653 -0.1267
  992MOL0     N33802   7.254   0.095   7.082 -0.7536 -0.0305 -0.6645
  992MOL0     C33803   7.350   0.151   7.002  0.3930  0.3514  1.0788
  992MOL0     C33804   7.457   0.159   7.069 -0.2144 -0.1222 -1.0569
  992MOL0     C33805   7.591   0.204   7.006  0.6055  0.0890 -1.2617
  992MOL0     C33806   7.695   0.226   7.120  0.8317  0.0067 -1.3088
  992MOL0     C33807   7.771   0.104   7.153 -0.3292  0.3040 -0.3121
  992MOL0     C33808   7.887   0.130   7.243 -0.2127 -0.6883  0.4176
  992MOL0     O33809   7.943   0.004   7.277 -0.2674 -0.0522  0.0804
  992MOL0     C33810   8.080   0.001   7.317  0.1063  0.5716 -1.4410
  992MOL0     C33811   8.151   0.113   7.364  0.3797  0.5650  0.2415
  992MOL0     C33812   8.279   0.096   7.416 -0.0168 -0.7221 -0.5024
  992MOL0     C33813   8.343  -0.030   7.411 -1.1355  0.7966  0.5882
  992MOL0     C33814   8.481  -0.055   7.456 -0.8437 -0.8111 -0.0257
  992MOL0     O33815   8.549  -0.164   7.399  0.7850  0.5136  0.0917
  992MOL0     C33816   8.674  -0.176   7.449  0.2383 -0.0568 -0.5943
  992MOL0     C33817   8.776  -0.101   7.389 -0.2215  0.3718 -0.8173
  992MOL0     C33818   8.905  -0.116   7.430  0.8560 -0.2930 -0.7265
  992MOL0     C33819   8.938  -0.229   7.517  0.9756 -0.4794 -0.3551
  992MOL0     O33820   9.062  -0.220   7.572 -0.3052  0.5383  0.1420
  992MOL0     C33821   9.122  -0.343   7.606 -0.2572 -0.1581 -0.6623
  992MOL0     C33822   9.279  -0.353   7.619  0.1312 -1.5440  0.0617
  992MOL0     C33823   9.327  -0.285   7.746 -0.0572 -0.9029 -0.0897
  992MOL0     C33824   9.478  -0.302   7.770 -0.4581  0.1186 -0.2684
  992MOL0     C33825   9.510  -0.216   7.888 -0.8489  0.6834  0.7959
  992MOL0     C33826   9.557  -0.289   8.020 -0.0755  0.0768 -0.9225
  992MOL0     C33827   9.541  -0.184   8.128 -0.5621 -0.5452  1.1784
  992MOL0     C33828   9.523  -0.250   8.267  0.0124 -0.6289  0.3012
  992MOL0    Cl33829   9.668  -0.349   8.311  0.2259 -0.3182 -0.1190
  992MOL0     C33830   8.834  -0.310   7.569 -0.1316 -0.0003 -0.2592
  992MOL0     C33831   8.705  -0.283   7.529 -0.3645  1.1711  0.5565
  992MOL0     O33832   8.517   0.019   7.550  0.3940  0.2910 -0.4389
  992MOL0     C33833   8.276  -0.142   7.354  0.0897  0.2028  0.0596
  992MOL0     C33834   8.142  -0.121   7.319 -1.1327  0.1290  0.5212
  992MOL0     N33835   7.436   0.101   7.194 -0.4152 -0.6562 -0.2999
  992MOL0     N33836   7.310   0.072   7.202 -0.5736  0.3828  0.6410
  992MOL0     C33837   6.314   0.460   7.399  0.7450 -0.3733 -0.0038
  992MOL0     C33838   6.255   0.581   7.392 -0.0522 -0.4734  1.2221
  992MOL0     C33839   6.081   0.983   7.409  0.1645 -0.1930 -0.0536
  992MOL0     C33840   5.956   1.005   7.345 -1.1749 -0.8653  0.8546
  992MOL0     C33841   5.879   1.122   7.365 -0.1550 -0.0925 -0.8959
  992MOL0     C33842   5.915   1.220   7.456 -0.8151 -0.7848  0.4473
  992MOL0     O33843   5.843   1.322   7.484  0.0848 -0.0699 -0.2418
  992MOL0     C33844   5.865   1.421   7.378 -0.3641 -0.0510 -0.3038
  992MOL0     C33845   5.934   1.540   7.424 -0.0109  0.0101  0.2584
  992MOL0     C33846   6.007   1.602   7.299 -0.4159 -0.3676 -0.7347
  992MOL0     C33847   6.077   1.741   7.313 -0.2941 -0.5905 -0.3825
  992MOL0     C33848   5.983   1.845   7.325 -0.2364  0.5348  0.0119
  992MOL0     C33849   5.884   1.912   7.338  0.2154  0.2182 -0.0538
  992MOL0     C33850   6.039   1.203   7.519  0.5170  0.1451  0.0560
  992MOL0     C33851   6.120   1.085   7.510 -0.1341 -0.4780 -0.2260
  992MOL0     C33852   6.222   1.075   7.630  0.0915  0.2477  0.0078
  992MOL0     H33853   6.420   0.746   7.645 -2.3292 -1.0562  2.3531
  992MOL0     H33854   6.526   0.522   7.657 -0.9388 -0.7993  1.0962
  992MOL0     H33855   6.404   0.151   7.416  0.8340 -1.6173  0.8201
  992MOL0     H33856   6.479   0.263   7.299 -0.8401  5.3195  2.3631
  992MOL0     H33857   6.616   0.096   7.512  1.6627  2.0484  1.1121
  992MOL0     H33858   6.705   0.222   7.427 -1.3444  1.0243  0.3294
  992MOL0     H33859   6.691   0.101   7.215 -3.2443  4.9330  0.6472
  992MOL0     H33860   6.590  -0.019   7.276  2.6259 -3.0707 -1.0111
  992MOL0     H33861   6.858   0.027   7.406 -2.2994 -0.0724  1.8777
  992MOL0     H33862   6.736  -0.088   7.452 -0.7821 -1.5257 -1.1115
  992MOL0     H33863   6.924  -0.184   7.317  0.5225  2.1375  1.7072
  992MOL0     H33864   6.773  -0.205   7.218 -2.0999  3.0391 -2.4754
  992MOL0     H33865   6.940  -0.137   7.055 -2.1495  3.0774 -4.6164
  992MOL0     H33866   6.846  -0.010   7.072 -1.4621 -0.4030  1.0679
  992MOL0     H33867   7.119  -0.065   7.222  0.9662 -0.4029 -1.1298
  992MOL0     H33868   7.030   0.085   7.242 -1.7334  1.9092 -1.3133
  992MOL0     H33869   7.116  -0.004   6.966  2.6276 -0.2552 -1.1459
  992MOL0     H33870   7.054   0.155   7.032  0.6037  0.3241  4.8024
  992MOL0     H33871   7.339   0.171   6.896 -3.0441 -2.2567  0.7516
  992MOL0     H33872   7.619   0.122   6.939  0.8703 -0.8671 -0.0237
  992MOL0     H33873   7.560   0.292   6.948  1.2588 -0.6654 -2.8289
  992MOL0     H33874   7.757   0.311   7.090  0.5403  1.4465  1.8071
  992MOL0     H33875   7.660   0.264   7.217  0.0432  1.0210 -1.9729
  992MOL0     H33876   7.809   0.040   7.073  2.2040 -1.9247  2.4349
  992MOL0     H33877   7.705   0.038   7.211  0.4790  0.5884  0.9750
  992MOL0     H33878   7.857   0.188   7.330  4.1953  3.6019 -0.4792
  992MOL0     H33879   7.957   0.194   7.187 -1.1284  2.9365  3.0856
  992MOL0     H33880   8.083   0.196   7.381 -1.0850 -0.8580  1.8189
  992MOL0     H33881   8.346   0.177   7.445  1.0733 -1.9271  0.4871
  992MOL0     H33882   8.739  -0.014   7.335 -1.8707 -1.2937 -2.5251
  992MOL0     H33883   8.974  -0.033   7.425 -2.8950  3.3778  1.7223
  992MOL0     H33884   9.068  -0.385   7.691 -0.2279 -1.0733 -1.0855
  992MOL0     H33885   9.089  -0.418   7.533  0.2045 -1.4078  0.3763
  992MOL0     H33886   9.325  -0.452   7.621  1.1058 -1.1695  3.3370
  992MOL0     H33887   9.321  -0.297   7.535 -1.5573 -0.7079 -0.2668
  992MOL0     H33888   9.302  -0.179   7.734  3.2676 -0.1249 -1.3267
  992MOL0     H33889   9.278  -0.335   7.830  1.3405 -1.9337  0.1552
  992MOL0     H33890   9.543  -0.269   7.687  2.9069 -0.5156  1.9223
  992MOL0     H33891   9.492  -0.408   7.789  1.4417  0.1045 -1.4756
  992MOL0     H33892   9.418  -0.162   7.913 -0.1051  2.2181  0.3598
  992MOL0     H33893   9.570  -0.129   7.859 -1.5564  0.8838 -0.1092
  992MOL0     H33894   9.489  -0.374   8.024  0.3341 -0.2509 -0.8598
  992MOL0     H33895   9.662  -0.319   8.023  0.0909  0.3262  4.1577
  992MOL0     H33896   9.455  -0.123   8.102  1.2754  1.9694  0.6564
  992MOL0     H33897   9.629  -0.122   8.109 -0.0054 -1.7766 -0.5354
  992MOL0     H33898   9.515  -0.172   8.343 -1.9962 -0.8605  0.4004
  992MOL0     H33899   9.434  -0.314   8.265  1.9326 -3.5091  0.9866
  992MOL0     H33900   8.849  -0.387   7.644 -1.3396  1.8845  2.0665
  992MOL0     H33901   8.625  -0.346   7.567  0.9156 -2.2305 -1.8504
  992MOL0     H33902   8.310  -0.245   7.356 -2.0035 -0.5712  2.6848
  992MOL0     H33903   8.085  -0.205   7.281 -1.6871  0.9763 -0.5629
  992MOL0     H33904   6.273   0.387   7.330  1.5354  0.7001 -1.6815
  992MOL0     H33905   6.163   0.600   7.339  1.0465  1.4891 -0.1246
  992MOL0     H33906   5.934   0.937   7.263 -0.0755  0.2595 -0.4148
  992MOL0     H33907   5.781   1.138   7.322 -0.7863 -1.4865 -0.0341
  992MOL0     H33908   5.763   1.437   7.342  0.0474  1.3863 -0.8842
  992MOL0     H33909   5.904   1.376   7.286 -3.7515 -1.6781 -1.1361
  992MOL0     H33910   6.002   1.518   7.506 -1.1198 -1.1823  0.8825
  992MOL0     H33911   5.864   1.610   7.470  0.8447  0.4840  0.8661
  992MOL0     H33912   5.943   1.610   7.211 -1.9072  1.6848  0.4506
  992MOL0     H33913   6.070   1.517   7.270  0.3063 -1.2925  2.9919
  992MOL0     H33914   6.145   1.731   7.398  1.0696  0.4398 -1.3033
  992MOL0     H33915   6.142   1.765   7.228  0.0904  2.9521  0.7637
  992MOL0     H33916   5.787   1.951   7.357  0.0687 -0.4979  0.7407
  992MOL0     H33917   6.059   1.275   7.598 -1.6498  1.3784 -0.4243
  992MOL0     H33918   6.205   0.986   7.691  0.8636  1.2083  1.7110
  992MOL0     H33919   6.322   1.060   7.588  0.0892  1.2619 -0.3965
  992MOL0     H33920   6.209   1.166   7.690 -3.5155  0.3491 -0.7093
  993MOL0     O33921   2.372   1.430   3.837  0.5800  0.2977  0.4773
  993MOL0     C33922   2.483   1.438   3.786 -1.1989  0.0852  0.2759
  993MOL0     O33923   2.542   1.555   3.743  0.0041  0.3137 -0.5381
  993MOL0     C33924   2.473   1.665   3.758  0.2422  0.3149  0.1188
  993MOL0     C33925   2.490   1.760   3.858  0.2001  0.0274 -0.2823
  993MOL0     C33926   2.405   1.865   3.869  0.0079  0.4056  0.3871
  993MOL0     C33927   2.289   1.877   3.782 -0.7156  0.3142  0.5935
  993MOL0     O33928   2.187   1.970   3.780 -0.2776 -0.1351 -0.8154
  993MOL0     C33929   2.215   2.075   3.875  0.6760 -0.0153  0.1619
  993MOL0     C33930   2.121   2.194   3.870  0.4106 -0.9807  0.4422
  993MOL0     C33931   2.147   2.296   3.762 -0.4859  0.0851  0.6741
  993MOL0     C33932   2.070   2.426   3.782 -0.9472  0.0620  0.2122
  993MOL0     C33933   2.079   2.532   3.677  0.1449  0.2187 -0.5892
  993MOL0     C33934   2.036   2.674   3.715 -0.4185  0.4339 -0.7312
  993MOL0     C33935   1.884   2.681   3.723  0.1772  0.0063 -0.9249
  993MOL0     C33936   1.844   2.716   3.868  0.4045 -0.3423  0.8738
  993MOL0     N33937   1.835   2.861   3.895 -0.1348 -0.1842  0.2789
  993MOL0     C33938   1.906   2.958   3.833 -0.2056  0.0264 -0.1047
  993MOL0     C33939   1.844   3.073   3.868 -0.1424  0.0944  0.7040
  993MOL0     C33940   1.901   3.208   3.824  0.0411  0.3216 -0.1592
  993MOL0     C33941   2.009   3.267   3.924 -0.6549 -0.6286  0.6747
  993MOL0     C33942   1.938   3.299   4.059  0.2535 -0.1470  1.2462
  993MOL0     C33943   2.042   3.329   4.168  0.2323  0.2390  0.6296
  993MOL0     O33944   1.978   3.361   4.289  0.7813 -0.0666 -0.4048
  993MOL0     C33945   1.978   3.491   4.322 -0.3056 -0.2032 -0.3739
  993MOL0     C33946   1.980   3.603   4.240  0.0289 -0.0885  0.2922
  993MOL0     C33947   1.964   3.737   4.287  0.0659  0.4306 -0.8089
  993MOL0     C33948   1.985   3.758   4.425  0.2740 -1.0331  0.2522
  993MOL0     C33949   1.989   3.891   4.477  0.2588  0.1727 -0.8523
  993MOL0     O33950   2.042   3.918   4.603  0.0034  0.9304  0.5282
  993MOL0     C33951   2.024   4.040   4.658 -1.4929  0.2066 -0.3759
  993MOL0     C33952   2.124   4.071   4.747 -0.2080  0.2125 -1.1246
  993MOL0     C33953   2.115   4.186   4.831 -1.1249 -0.2320  0.6710
  993MOL0     C33954   2.013   4.274   4.821 -0.5245 -0.3353  0.0887
  993MOL0     O33955   1.997   4.385   4.905 -0.0264 -0.2058  1.1673
  993MOL0     C33956   1.878   4.458   4.915  0.4605 -1.2423  0.3584
  993MOL0     C33957   1.885   4.529   5.049 -0.4101  0.1671 -0.3848
  993MOL0     C33958   1.765   4.621   5.071 -0.1802  0.2984 -0.7036
  993MOL0     C33959   1.783   4.722   5.182  0.4479 -0.2084 -0.6438
  993MOL0     C33960   1.783   4.657   5.328 -0.3551  1.3496  0.3585
  993MOL0     C33961   1.745   4.765   5.429  0.6899 -0.0297 -0.1532
  993MOL0     C33962   1.871   4.854   5.469  0.1789 -0.3481 -0.8540
  993MOL0     C33963   1.836   4.975   5.559 -0.7625  0.0552  0.6432
  993MOL0    Cl33964   1.967   5.091   5.582  0.3667  0.3140 -0.2040
  993MOL0     C33965   1.916   4.243   4.721  0.6507 -0.7779  0.4580
  993MOL0     C33966   1.920   4.133   4.646  0.5731  0.7837 -0.4388
  993MOL0     O33967   1.934   3.974   4.405  0.4705  0.4157 -0.1936
  993MOL0     C33968   1.986   3.644   4.506 -0.5075 -0.1626 -1.0017
  993MOL0     C33969   1.985   3.514   4.461  0.6408  0.1000  0.1851
  993MOL0     N33970   1.739   3.040   3.948  0.4793  0.5705  0.8890
  993MOL0     N33971   1.735   2.914   3.972  0.4716 -0.1873  0.4027
  993MOL0     C33972   2.279   1.795   3.676 -0.6692  0.2123  0.2807
  993MOL0     C33973   2.374   1.696   3.661 -0.7068 -0.5334 -0.0450
  993MOL0     C33974   2.550   1.313   3.757 -0.3092 -0.3356 -0.3161
  993MOL0     C33975   2.674   1.292   3.825 -0.0599  0.4822  0.4251
  993MOL0     C33976   2.743   1.173   3.801  0.3996 -0.6379 -0.5536
  993MOL0     C33977   2.697   1.078   3.703 -0.3630 -1.0893 -0.5948
  993MOL0     O33978   2.766   0.959   3.664  0.2847  0.1437 -0.1099
  993MOL0     C33979   2.896   0.997   3.629 -0.7314  0.5115 -0.5332
  993MOL0     C33980   2.886   1.063   3.487 -0.6914 -1.2424 -0.2028
  993MOL0     C33981   2.842   0.968   3.386  0.2762 -0.3705 -0.7721
  993MOL0     C33982   2.827   1.021   3.247 -0.7868 -0.3810 -0.6488
  993MOL0     C33983   2.719   1.119   3.225 -0.6997  0.0230 -0.1093
  993MOL0     C33984   2.631   1.196   3.205  0.4179 -0.5402  0.5281
  993MOL0     C33985   2.572   1.101   3.645  0.4958 -0.6593  0.1680
  993MOL0     C33986   2.489   1.216   3.671  0.1870 -0.5929 -0.8541
  993MOL0     C33987   2.351   1.237   3.622 -0.0037 -0.2586  0.1163
  993MOL0     H33988   2.566   1.748   3.934 -0.2984  1.1558  0.4174
  993MOL0     H33989   2.412   1.920   3.963  2.1603 -4.0456  3.2304
  993MOL0     H33990   2.203   2.045   3.980  2.6005  1.4165  0.8461
  993MOL0     H33991   2.317   2.108   3.857 -0.0029  1.9651 -0.3138
  993MOL0     H33992   2.121   2.242   3.969 -1.5417  1.6305 -0.7120
  993MOL0     H33993   2.020   2.154   3.863  0.2197 -0.1864 -3.0424
  993MOL0     H33994   2.129   2.247   3.666  0.5633 -2.4235  1.6500
  993MOL0     H33995   2.252   2.325   3.769 -0.2813 -0.2278 -0.8605
  993MOL0     H33996   1.965   2.396   3.793 -0.3530 -2.2111  0.1709
  993MOL0     H33997   2.095   2.463   3.882  0.6569 -0.7409  0.1454
  993MOL0     H33998   2.184   2.551   3.651  0.4131 -1.3635 -0.7883
  993MOL0     H33999   2.024   2.502   3.588 -0.6792  0.6620 -0.2360
  993MOL0     H34000   2.070   2.702   3.815  1.5266 -0.9331 -0.9541
  993MOL0     H34001   2.069   2.746   3.639 -0.4742  2.8231  1.3599
  993MOL0     H34002   1.836   2.588   3.691  0.0503  0.0618 -0.8943
  993MOL0     H34003   1.839   2.752   3.653  0.7729  2.0191  0.6469
  993MOL0     H34004   1.762   2.658   3.911  2.0001 -1.9306  1.9467
  993MOL0     H34005   1.921   2.672   3.934  1.1733 -1.2765 -0.5950
  993MOL0     H34006   2.002   2.939   3.785  0.6356  0.6492  1.2776
  993MOL0     H34007   1.939   3.199   3.722 -1.8364 -0.5871 -0.8356
  993MOL0     H34008   1.827   3.289   3.825 -0.9117 -0.5298  0.9668
  993MOL0     H34009   2.073   3.178   3.930 -0.5664 -0.7024 -0.8990
  993MOL0     H34010   2.062   3.352   3.882 -2.8077  1.0091  1.0827
  993MOL0     H34011   1.874   3.218   4.095 -4.1828  3.0608  1.3957
  993MOL0     H34012   1.874   3.386   4.042  0.9793  0.3887  1.2222
  993MOL0     H34013   2.101   3.411   4.125 -1.1085 -0.5600 -3.2072
  993MOL0     H34014   2.099   3.238   4.186 -0.7575 -0.4868  0.2151
  993MOL0     H34015   1.981   3.595   4.132  2.2244  0.0216  0.2621
  993MOL0     H34016   1.959   3.816   4.214  4.1052  1.1238 -0.5462
  993MOL0     H34017   2.212   4.008   4.745 -0.7077 -0.4905 -1.6343
  993MOL0     H34018   2.202   4.205   4.894 -0.3097  0.6390 -0.6605
  993MOL0     H34019   1.871   4.536   4.838 -1.9766  0.3590  2.0777
  993MOL0     H34020   1.785   4.402   4.903 -1.0580  0.6485  2.6283
  993MOL0     H34021   1.892   4.454   5.128  1.2188 -2.2800 -2.6757
  993MOL0     H34022   1.979   4.584   5.056 -0.4600  0.0675  3.8991
  993MOL0     H34023   1.743   4.666   4.974 -1.2257  0.1510 -0.5445
  993MOL0     H34024   1.680   4.560   5.103  2.4572 -3.5025 -0.2558
  993MOL0     H34025   1.696   4.785   5.161  0.8594  0.4637 -0.3427
  993MOL0     H34026   1.875   4.780   5.168 -0.6257  1.0008 -3.4792
  993MOL0     H34027   1.880   4.609   5.340 -2.0453 -3.2193 -1.6581
  993MOL0     H34028   1.710   4.575   5.330 -0.9462  1.8720  1.1270
  993MOL0     H34029   1.660   4.817   5.384 -0.0847 -0.8320  0.3653
  993MOL0     H34030   1.708   4.720   5.521  1.1071 -1.3513 -0.6007
  993MOL0     H34031   1.913   4.892   5.375 -3.5620 -2.8698 -3.8867
  993MOL0     H34032   1.943   4.787   5.518 -2.6715 -0.4069  3.8514
  993MOL0     H34033   1.753   5.026   5.509 -0.3928 -0.3066 -0.3753
  993MOL0     H34034   1.807   4.941   5.658  1.1098  0.1564  1.2577
  993MOL0     H34035   1.822   4.294   4.700  0.3739 -0.4855  2.2031
  993MOL0     H34036   1.839   4.117   4.575  2.1203 -2.2203 -1.7218
  993MOL0     H34037   1.992   3.650   4.614 -2.2842 -0.0857 -0.8778
  993MOL0     H34038   1.981   3.435   4.536  0.3241  0.9801  1.1259
  993MOL0     H34039   2.181   1.799   3.630 -1.4496  0.5758  1.9017
  993MOL0     H34040   2.351   1.620   3.587  2.5841 -0.1907 -1.5954
  993MOL0     H34041   2.727   1.367   3.884  1.8336  2.0378 -2.8734
  993MOL0     H34042   2.832   1.159   3.862 -1.0808  2.2498  2.6424
  993MOL0     H34043   2.949   0.902   3.639  1.7463  1.6575 -1.9063
  993MOL0     H34044   2.942   1.074   3.692 -0.5421  1.8838 -2.2812
  993MOL0     H34045   2.983   1.104   3.460 -0.0474 -1.5935  1.4153
  993MOL0     H34046   2.812   1.143   3.490  0.9645  0.3432 -0.0168
  993MOL0     H34047   2.743   0.929   3.409  1.1161 -1.9455  0.3968
  993MOL0     H34048   2.907   0.880   3.378 -0.3139 -0.8658 -0.1487
  993MOL0     H34049   2.921   1.065   3.214  0.7532 -2.6108  0.4946
  993MOL0     H34050   2.806   0.926   3.198 -2.1338 -0.9877  0.9792
  993MOL0     H34051   2.550   1.265   3.199 -0.9237 -1.5391  4.2901
  993MOL0     H34052   2.536   1.025   3.576 -0.5043  0.6420 -0.8054
  993MOL0     H34053   2.273   1.221   3.697 -1.2623  1.4178 -0.7715
  993MOL0     H34054   2.335   1.339   3.586  1.4574  0.6570  1.9363
  993MOL0     H34055   2.331   1.165   3.542  1.5500 -0.4311 -0.1443
  994MOL0     O34056   0.500   5.407   6.992  0.1795  0.5757  0.6576
  994MOL0     C34057   0.545   5.435   7.103 -0.0337 -0.2761 -0.5205
  994MOL0     O34058   0.573   5.357   7.201 -0.7815  0.1572  0.1032
  994MOL0     C34059   0.618   5.234   7.194 -0.0793 -0.3410  0.9405
  994MOL0     C34060   0.685   5.184   7.317 -0.8033  0.7897  1.2055
  994MOL0     C34061   0.718   5.053   7.314 -0.6315 -0.2412  0.8619
  994MOL0     C34062   0.704   4.976   7.197 -0.1256  0.1892 -1.0246
  994MOL0     O34063   0.764   4.849   7.220 -0.0787  0.0213 -0.0491
  994MOL0     C34064   0.780   4.766   7.102 -0.2950  0.1881 -0.8406
  994MOL0     C34065   0.902   4.679   7.117  0.2467  0.0148 -0.7325
  994MOL0     C34066   0.881   4.541   7.161 -0.0832 -0.1298  0.2079
  994MOL0     C34067   1.017   4.470   7.160 -0.4895 -0.0437  0.3457
  994MOL0     C34068   1.012   4.333   7.214 -0.6285  0.2864 -0.2536
  994MOL0     C34069   1.154   4.291   7.243 -0.1863  0.6469 -0.0966
  994MOL0     C34070   1.160   4.146   7.315  1.2188 -0.3897  0.6162
  994MOL0     C34071   1.157   4.034   7.211  0.1651  0.5163 -0.1199
  994MOL0     N34072   1.181   3.906   7.272  0.2599 -1.1031 -0.8133
  994MOL0     C34073   1.104   3.852   7.379  0.4382  1.1424 -0.4450
  994MOL0     C34074   1.170   3.737   7.418 -0.6082  0.5746  0.3532
  994MOL0     C34075   1.140   3.640   7.524 -0.3011  0.0849 -0.4393
  994MOL0     C34076   1.069   3.520   7.466  0.7912 -0.0379  1.1531
  994MOL0     C34077   1.122   3.391   7.527 -0.3715  0.2927 -0.1499
  994MOL0     C34078   1.273   3.381   7.497 -0.6210  0.3789  0.9163
  994MOL0     O34079   1.321   3.244   7.524 -0.1376  0.0069 -0.0298
  994MOL0     C34080   1.453   3.211   7.528  0.4130  0.4534 -0.3860
  994MOL0     C34081   1.487   3.146   7.649 -0.5385  0.4434  0.5407
  994MOL0     C34082   1.619   3.081   7.663  1.0567  0.4198  1.0034
  994MOL0     C34083   1.718   3.102   7.561  0.5961 -0.2213  0.0381
  994MOL0     C34084   1.853   3.043   7.576 -0.6092  0.2318 -0.2295
  994MOL0     O34085   1.890   2.996   7.700 -0.0472  0.8611 -1.1569
  994MOL0     C34086   2.019   2.936   7.714  0.2801 -0.2465  0.2646
  994MOL0     C34087   2.088   2.864   7.609 -1.2995 -0.3050 -0.8655
  994MOL0     C34088   2.223   2.819   7.631 -0.1703  0.0552  0.2950
  994MOL0     C34089   2.287   2.838   7.749 -0.5714 -0.5045  0.3961
  994MOL0     O34090   2.416   2.804   7.763  0.6192  0.3601  0.2282
  994MOL0     C34091   2.484   2.832   7.891  0.1170  0.2593  0.0621
  994MOL0     C34092   2.627   2.793   7.867  0.3926  0.1383 -0.6200
  994MOL0     C34093   2.720   2.825   7.989  0.6044  0.1584 -0.5174
  994MOL0     C34094   2.812   2.704   8.028  0.1148 -0.5963  0.2274
  994MOL0     C34095   2.723   2.585   8.087  1.0828  0.0841 -0.3484
  994MOL0     C34096   2.790   2.454   8.124  0.1181  0.2650  0.5687
  994MOL0     C34097   2.849   2.460   8.269 -0.0040  0.6273 -0.5246
  994MOL0     C34098   2.953   2.349   8.298 -0.3242  0.2117 -0.5345
  994MOL0    Cl34099   2.881   2.176   8.286  0.0025 -0.0844 -0.0589
  994MOL0     C34100   2.205   2.887   7.859 -0.8244  0.3769 -0.3045
  994MOL0     C34101   2.076   2.934   7.836  0.2962  0.3973  0.4612
  994MOL0     O34102   1.927   3.045   7.475 -0.0446  0.1148 -0.5488
  994MOL0     C34103   1.674   3.180   7.445  0.1035 -0.3624  0.1501
  994MOL0     C34104   1.545   3.230   7.428 -0.8799 -0.0730 -0.0495
  994MOL0     N34105   1.273   3.725   7.326 -0.6889 -0.7491  0.6129
  994MOL0     N34106   1.288   3.824   7.248 -0.5442 -0.7057 -0.1235
  994MOL0     C34107   0.646   5.019   7.078  0.5660  0.4895 -0.1385
  994MOL0     C34108   0.608   5.153   7.074 -0.1125 -0.6742 -0.2175
  994MOL0     C34109   0.553   5.579   7.135  0.3182  0.3763  0.1133
  994MOL0     C34110   0.549   5.614   7.275 -0.5538 -0.7035  0.3478
  994MOL0     C34111   0.564   5.744   7.326  0.8298 -0.2752  0.0146
  994MOL0     C34112   0.562   5.856   7.233  0.3470  0.8766  0.2066
  994MOL0     O34113   0.563   5.979   7.287 -0.0286  0.0452 -0.2018
  994MOL0     C34114   0.586   6.079   7.191 -0.4383 -0.8643 -0.6067
  994MOL0     C34115   0.605   6.217   7.252 -0.2127  0.7228  0.6821
  994MOL0     C34116   0.754   6.249   7.288 -0.6827  1.1833 -0.8155
  994MOL0     C34117   0.859   6.140   7.316 -0.4893  1.3379 -0.4303
  994MOL0     C34118   0.968   6.198   7.397  0.3955  0.6993 -0.7555
  994MOL0     C34119   1.062   6.254   7.456  0.5154  0.3097 -0.0922
  994MOL0     C34120   0.560   5.826   7.097  0.4565  0.2063 -0.3589
  994MOL0     C34121   0.571   5.693   7.051  1.2089  0.1768  0.5797
  994MOL0     C34122   0.576   5.668   6.904  0.7846  0.2846  0.2368
  994MOL0     H34123   0.692   5.239   7.410  1.7412  0.2078  1.4345
  994MOL0     H34124   0.762   5.018   7.407 -1.3573  2.7255  2.4463
  994MOL0     H34125   0.686   4.723   7.068 -0.5909 -1.4629  1.7907
  994MOL0     H34126   0.812   4.845   7.034 -0.0746  1.7141  0.9462
  994MOL0     H34127   0.971   4.725   7.189  1.4810  0.0495 -1.8945
  994MOL0     H34128   0.940   4.673   7.015  0.6840 -1.9769 -0.4968
  994MOL0     H34129   0.822   4.487   7.086  2.2645  1.6186 -3.2152
  994MOL0     H34130   0.835   4.554   7.259  0.2784 -1.0451  0.5142
  994MOL0     H34131   1.059   4.470   7.059 -1.1727  2.4291 -0.0085
  994MOL0     H34132   1.093   4.528   7.215 -1.0291  0.4470  0.5825
  994MOL0     H34133   0.955   4.323   7.307 -0.6176 -1.6083 -0.4165
  994MOL0     H34134   0.967   4.258   7.148 -1.0864 -1.8599  2.3003
  994MOL0     H34135   1.204   4.300   7.146 -1.3898  1.1453 -0.6815
  994MOL0     H34136   1.195   4.363   7.315 -2.0737 -0.7115  2.5065
  994MOL0     H34137   1.075   4.138   7.383  0.1205 -2.0827 -0.8536
  994MOL0     H34138   1.255   4.144   7.370 -0.1057  0.8256  3.1005
  994MOL0     H34139   1.060   4.038   7.160  0.8978 -0.2890 -1.6315
  994MOL0     H34140   1.244   4.051   7.148  1.4021  0.3870  1.4768
  994MOL0     H34141   1.026   3.898   7.439 -0.4242  2.1197 -2.2363
  994MOL0     H34142   1.220   3.616   7.595 -0.9936  1.1318  0.7446
  994MOL0     H34143   1.060   3.677   7.589 -0.7135 -2.9743  0.9662
  994MOL0     H34144   0.961   3.533   7.483  0.9781  0.5608  1.9674
  994MOL0     H34145   1.081   3.513   7.358 -1.3181  0.5516  0.8316
  994MOL0     H34146   1.066   3.309   7.480 -1.6551  0.4579  1.0425
  994MOL0     H34147   1.110   3.383   7.635 -0.8260  2.9461  0.0530
  994MOL0     H34148   1.326   3.453   7.559 -2.0807  1.1149  1.3641
  994MOL0     H34149   1.304   3.391   7.393  1.2118 -1.6857  1.1947
  994MOL0     H34150   1.409   3.133   7.723 -2.8182 -0.5377 -1.8404
  994MOL0     H34151   1.633   3.001   7.735  0.4897 -2.8030 -2.2169
  994MOL0     H34152   2.052   2.853   7.507 -0.4955  1.1357 -1.3401
  994MOL0     H34153   2.279   2.783   7.546  0.1461  1.7289 -0.2463
  994MOL0     H34154   2.481   2.938   7.917 -0.3344 -0.2877  2.5366
  994MOL0     H34155   2.443   2.773   7.975  1.1497  0.1441  0.5039
  994MOL0     H34156   2.633   2.687   7.841 -0.5804 -0.6205  1.9039
  994MOL0     H34157   2.664   2.837   7.774 -0.6612  1.3085 -0.5289
  994MOL0     H34158   2.780   2.911   7.957  0.0013  1.2517  1.1720
  994MOL0     H34159   2.674   2.857   8.083  1.0592 -0.9893  0.1206
  994MOL0     H34160   2.875   2.740   8.110  2.4669  1.7681 -2.3962
  994MOL0     H34161   2.875   2.685   7.941  0.1359 -0.8156  0.2899
  994MOL0     H34162   2.656   2.546   8.010  0.7489 -5.0944  2.1083
  994MOL0     H34163   2.659   2.613   8.171 -0.7126 -0.5114 -1.4712
  994MOL0     H34164   2.715   2.375   8.115  4.0758 -3.7798 -0.5990
  994MOL0     H34165   2.863   2.430   8.045  1.1253  0.8303  1.2984
  994MOL0     H34166   2.768   2.444   8.341  0.3310  0.9203 -0.0821
  994MOL0     H34167   2.892   2.560   8.282  1.2342  0.1528 -0.9103
  994MOL0     H34168   3.034   2.367   8.226  0.8394 -0.7176  0.4959
  994MOL0     H34169   2.995   2.369   8.397 -2.2395 -3.2736  1.1404
  994MOL0     H34170   2.252   2.898   7.956  3.6679  1.5968 -2.3574
  994MOL0     H34171   2.023   2.992   7.912  1.6911 -0.8504  2.4606
  994MOL0     H34172   1.741   3.183   7.360  2.3773  1.1394  1.8719
  994MOL0     H34173   1.520   3.269   7.330 -1.3325 -1.5017 -0.5325
  994MOL0     H34174   0.639   4.953   6.992  0.4949  0.4929 -0.1349
  994MOL0     H34175   0.563   5.178   6.978 -1.2309 -0.4862  0.3469
  994MOL0     H34176   0.559   5.532   7.346 -1.0044 -2.0361 -1.0481
  994MOL0     H34177   0.571   5.746   7.434 -1.8254  0.1180  0.2279
  994MOL0     H34178   0.490   6.085   7.138 -2.0554 -1.2345  2.0835
  994MOL0     H34179   0.657   6.066   7.110  0.1204 -0.3734 -0.2054
  994MOL0     H34180   0.545   6.227   7.343  1.7326 -1.3828  2.3028
  994MOL0     H34181   0.581   6.291   7.175 -2.8485  1.0289  1.6988
  994MOL0     H34182   0.747   6.312   7.376  0.2085 -0.0522  0.1726
  994MOL0     H34183   0.793   6.302   7.200  1.3533  0.3261 -0.4988
  994MOL0     H34184   0.814   6.055   7.369  1.6459 -0.5415 -1.4427
  994MOL0     H34185   0.900   6.101   7.222 -2.8107  0.4204 -1.1381
  994MOL0     H34186   1.145   6.300   7.505 -0.3449  1.6622  0.1452
  994MOL0     H34187   0.562   5.907   7.025  1.3954  1.8466  1.4336
  994MOL0     H34188   0.481   5.629   6.867  1.6789 -1.1607 -0.6082
  994MOL0     H34189   0.606   5.756   6.846  3.6980 -0.9442 -0.2760
  994MOL0     H34190   0.642   5.591   6.863  0.3045 -0.1561  0.2863
  995MOL0     O34191   5.272  10.233   8.760 -0.0530  0.1594 -0.5358
  995MOL0     C34192   5.165  10.191   8.812 -0.1081 -0.8147  0.9440
  995MOL0     O34193   5.098  10.252   8.918 -0.9438 -0.1169  0.0835
  995MOL0     C34194   5.163  10.341   8.996  0.6685 -0.6551 -0.3334
  995MOL0     C34195   5.296  10.311   9.042  0.8001 -1.1038  0.5644
  995MOL0     C34196   5.363  10.409   9.118  0.2837  0.4033 -0.0425
  995MOL0     C34197   5.299  10.529   9.151  0.1365  0.6572 -0.0841
  995MOL0     O34198   5.369  10.599   9.241  0.7459  0.1604 -0.0786
  995MOL0     C34199   5.295  10.698   9.309  0.4710 -0.9393 -0.3266
  995MOL0     C34200   5.386  10.796   9.385  0.2285 -0.0973 -0.2927
  995MOL0     C34201   5.494  10.733   9.468 -0.8000  0.4773  0.3012
  995MOL0     C34202   5.434  10.664   9.590 -0.3355 -0.1282  0.2127
  995MOL0     C34203   5.544  10.612   9.692 -0.1530 -0.6632 -0.3021
  995MOL0     C34204   5.518  10.462   9.717  1.1719  0.3356 -0.5231
  995MOL0     C34205   5.598  10.367   9.623 -0.8511 -0.1509  0.5938
  995MOL0     C34206   5.527  10.310   9.499 -0.0685 -0.8185 -0.5074
  995MOL0     N34207   5.383  10.285   9.513 -0.5703  0.9298 -0.8731
  995MOL0     C34208   5.265  10.334   9.456 -1.0267 -0.2087  0.0173
  995MOL0     C34209   5.155  10.289   9.522 -0.4956  0.4966  0.9660
  995MOL0     C34210   5.017  10.339   9.511 -0.5842 -0.6573 -0.0124
  995MOL0     C34211   4.966  10.316   9.371  0.8557 -0.4950  0.1600
  995MOL0     C34212   4.816  10.359   9.355  0.0440  0.4443 -0.9907
  995MOL0     C34213   4.785  10.457   9.235  0.7100  1.1689  0.2081
  995MOL0     O34214   4.854  10.582   9.266  0.3102  0.7985  0.8163
  995MOL0     C34215   4.838  10.684   9.173  0.1757  0.6320  0.2597
  995MOL0     C34216   4.797  10.657   9.042 -0.3298 -0.1372  0.6337
  995MOL0     C34217   4.789  10.766   8.951 -0.3184 -0.5421  0.9211
  995MOL0     C34218   4.832  10.897   8.989 -0.0754 -0.2973  0.5483
  995MOL0     C34219   4.824  11.002   8.888 -0.1027 -0.7623  0.1228
  995MOL0     O34220   4.834  11.133   8.940 -0.1620  0.2497 -0.6028
  995MOL0     C34221   4.845  11.257   8.878  0.7275 -0.3140 -0.1937
  995MOL0     C34222   4.759  11.301   8.771 -0.2527 -0.4444  1.2056
  995MOL0     C34223   4.778  11.436   8.719  1.0939  0.8285 -0.2574
  995MOL0     C34224   4.884  11.515   8.778  0.0699  0.0811  0.3796
  995MOL0     O34225   4.929  11.638   8.734 -0.1282  0.1150  0.5335
  995MOL0     C34226   4.839  11.746   8.760 -0.8557  0.8201 -0.0967
  995MOL0     C34227   4.896  11.884   8.714  0.5171  0.2104  0.5735
  995MOL0     C34228   5.014  11.929   8.795 -0.7259  0.7825 -0.0268
  995MOL0     C34229   5.079  12.056   8.740  0.7244 -0.6223 -0.3271
  995MOL0     C34230   5.171  12.040   8.617  0.3001  0.1673 -0.4996
  995MOL0     C34231   5.304  11.971   8.667 -1.7028 -0.0509  0.1060
  995MOL0     C34232   5.414  11.961   8.553  0.0284 -0.5683 -0.1729
  995MOL0     C34233   5.538  11.918   8.616  1.0804 -0.9670 -0.0225
  995MOL0    Cl34234   5.672  11.906   8.504  0.3549  0.5568 -0.1823
  995MOL0     C34235   4.959  11.463   8.874 -0.6046  0.4478 -1.1225
  995MOL0     C34236   4.936  11.340   8.932  0.0211  0.1458  0.2574
  995MOL0     O34237   4.819  10.975   8.763  0.2838  0.3873 -0.6325
  995MOL0     C34238   4.871  10.913   9.129  0.9538 -0.7664  0.4093
  995MOL0     C34239   4.866  10.807   9.219 -0.8243  0.0321  0.6817
  995MOL0     N34240   5.213  10.194   9.614  0.1212  0.0135  1.1511
  995MOL0     N34241   5.345  10.190   9.605  0.5257 -0.1110  0.2379
  995MOL0     C34242   5.171  10.547   9.116  0.3164 -0.4889  0.4896
  995MOL0     C34243   5.101  10.459   9.041 -0.3937 -1.9879  0.3753
  995MOL0     C34244   5.094  10.068   8.755  0.0559 -0.2637  0.0202
  995MOL0     C34245   4.984  10.083   8.681  0.1807  0.0678  0.9665
  995MOL0     C34246   4.916   9.970   8.644 -0.1364  1.2462 -0.2828
  995MOL0     C34247   4.955   9.841   8.672  0.2374  0.1229  0.7942
  995MOL0     O34248   4.881   9.735   8.628  0.0351 -0.1494 -0.1024
  995MOL0     C34249   4.895   9.609   8.705  0.1548  0.4719  0.7253
  995MOL0     C34250   4.764   9.530   8.690  0.4354  0.4840  0.2116
  995MOL0     C34251   4.633   9.604   8.728  0.2215 -0.8293 -0.6633
  995MOL0     C34252   4.623   9.657   8.875 -0.5315 -0.3383 -0.4652
  995MOL0     C34253   4.651   9.560   8.973 -0.5786 -0.2783 -0.3138
  995MOL0     C34254   4.692   9.493   9.067 -1.0233 -0.3467  0.0540
  995MOL0     C34255   5.091   9.827   8.717  0.6511 -0.4813 -0.0868
  995MOL0     C34256   5.152   9.943   8.774 -0.7181 -0.3016 -0.6666
  995MOL0     C34257   5.286   9.934   8.847 -0.1011 -0.0890 -1.0000
  995MOL0     H34258   5.345  10.218   9.017  0.9412 -0.6497 -0.9779
  995MOL0     H34259   5.457  10.394   9.169  0.4821 -2.8148 -1.1216
  995MOL0     H34260   5.233  10.762   9.245  0.8406  0.3666  0.5822
  995MOL0     H34261   5.226  10.655   9.383  1.5523 -3.5483 -0.7345
  995MOL0     H34262   5.327  10.867   9.443  1.1316  1.7313 -1.5238
  995MOL0     H34263   5.436  10.853   9.306  1.5930  1.1521  1.4107
  995MOL0     H34264   5.560  10.815   9.499  1.1327 -1.0993  0.5580
  995MOL0     H34265   5.559  10.670   9.406 -0.5693  0.7597  0.2556
  995MOL0     H34266   5.372  10.739   9.641  1.3759 -0.1285  2.4753
  995MOL0     H34267   5.374  10.580   9.554  0.3049 -0.0523 -1.0653
  995MOL0     H34268   5.647  10.639   9.664 -0.4274  1.4149  0.4676
  995MOL0     H34269   5.529  10.679   9.777 -2.3096  0.1919 -1.3051
  995MOL0     H34270   5.554  10.444   9.818  0.3814  0.3123 -0.2403
  995MOL0     H34271   5.410  10.443   9.720  0.5325  3.4479  2.3404
  995MOL0     H34272   5.641  10.282   9.677 -0.1407 -0.0580  0.1854
  995MOL0     H34273   5.698  10.397   9.591 -0.1988 -2.0723  0.7101
  995MOL0     H34274   5.545  10.378   9.416  1.2813  2.3115  2.1519
  995MOL0     H34275   5.569  10.210   9.482 -3.2914 -2.5325  0.7588
  995MOL0     H34276   5.258  10.408   9.377 -2.0226 -2.0490 -1.7057
  995MOL0     H34277   4.962  10.267   9.573  0.9930 -1.7913  0.1526
  995MOL0     H34278   5.013  10.444   9.540  3.5887 -0.3750  0.1562
  995MOL0     H34279   5.032  10.373   9.306  0.6031  1.3939  1.4871
  995MOL0     H34280   4.967  10.208   9.357  2.4437 -0.6543  1.2630
  995MOL0     H34281   4.782  10.399   9.451  0.9142 -0.5131 -0.2615
  995MOL0     H34282   4.757  10.269   9.333 -1.8105  1.9423 -2.5788
  995MOL0     H34283   4.677  10.468   9.222  0.2501  0.8740  3.0018
  995MOL0     H34284   4.839  10.415   9.150  2.2221  1.0723  1.1787
  995MOL0     H34285   4.757  10.561   9.012  2.3274 -1.1499  0.0821
  995MOL0     H34286   4.744  10.738   8.856  0.3794  0.8498  0.1464
  995MOL0     H34287   4.690  11.231   8.725  0.9318 -0.1994 -1.1378
  995MOL0     H34288   4.706  11.468   8.645 -1.2188 -0.4137  1.3380
  995MOL0     H34289   4.738  11.730   8.720 -0.7932  1.8989 -0.7361
  995MOL0     H34290   4.835  11.765   8.868  0.6416  1.6733 -0.1719
  995MOL0     H34291   4.922  11.879   8.608 -2.7146  2.6142 -0.4976
  995MOL0     H34292   4.818  11.961   8.721 -0.2937 -0.4958 -0.4028
  995MOL0     H34293   4.972  11.945   8.895 -2.5549 -0.6508 -0.5159
  995MOL0     H34294   5.088  11.849   8.794  0.0639  1.5020 -0.2783
  995MOL0     H34295   5.139  12.097   8.822  3.7498 -0.9992 -2.2222
  995MOL0     H34296   4.994  12.125   8.735  2.3245  1.9891  3.4224
  995MOL0     H34297   5.208  12.134   8.575  3.3982  1.2650  3.9017
  995MOL0     H34298   5.133  11.972   8.541 -0.6951  1.4236 -1.1757
  995MOL0     H34299   5.343  12.033   8.749  1.2748 -1.7145  0.0973
  995MOL0     H34300   5.294  11.878   8.723  1.1295 -0.5560 -0.0787
  995MOL0     H34301   5.442  12.052   8.500  0.0216  0.1997  1.1038
  995MOL0     H34302   5.359  11.891   8.489 -1.0414 -0.3588  0.4761
  995MOL0     H34303   5.568  11.997   8.686 -2.3630  2.6109 -2.1889
  995MOL0     H34304   5.524  11.830   8.681  0.7075 -0.8909  0.0021
  995MOL0     H34305   5.031  11.525   8.927 -2.7452  2.0979  0.0579
  995MOL0     H34306   4.981  11.306   9.025 -1.5054  0.9196  1.3157
  995MOL0     H34307   4.893  11.016   9.159  2.2057 -0.2493 -2.0619
  995MOL0     H34308   4.888  10.815   9.325 -2.6409  4.9682  0.9436
  995MOL0     H34309   5.117  10.638   9.141  0.5456 -0.4211  0.7562
  995MOL0     H34310   5.001  10.484   9.006  0.4098 -1.1314 -1.4543
  995MOL0     H34311   4.934  10.177   8.660  0.6119  0.6096  2.3171
  995MOL0     H34312   4.823   9.985   8.590 -0.9955  0.8742  1.0721
  995MOL0     H34313   4.924   9.634   8.807  2.9835  5.4835 -0.9982
  995MOL0     H34314   4.970   9.548   8.654  0.8017 -1.2684  3.5293
  995MOL0     H34315   4.774   9.441   8.753  3.5337 -0.7791 -1.8023
  995MOL0     H34316   4.760   9.503   8.584 -1.2082  0.0508  0.3531
  995MOL0     H34317   4.545   9.539   8.731 -0.6568  0.3249 -0.7976
  995MOL0     H34318   4.625   9.694   8.668 -0.4922 -1.3934 -1.4275
  995MOL0     H34319   4.700   9.734   8.887 -2.5393  1.6132  0.7188
  995MOL0     H34320   4.530   9.708   8.901  0.0449  0.9436 -0.8202
  995MOL0     H34321   4.715   9.432   9.152 -1.6516  0.2054  0.6331
  995MOL0     H34322   5.139   9.732   8.739  0.2804  0.0499  3.8470
  995MOL0     H34323   5.286   9.958   8.953 -0.9544 -0.6996 -0.8509
  995MOL0     H34324   5.337   9.837   8.837  1.1060  0.1577  1.7867
  995MOL0     H34325   5.354  10.001   8.794 -0.4131  0.6938 -0.4307
  996MOL0     O34326   9.214   7.119   9.263  0.2865 -0.2635  0.2993
  996MOL0     C34327   9.093   7.124   9.241  0.2185 -0.8389 -0.1676
  996MOL0     O34328   9.026   7.060   9.140 -0.2550 -0.3266 -0.9580
  996MOL0     C34329   9.091   6.956   9.081 -0.3365 -0.2312  0.3606
  996MOL0     C34330   9.228   6.952   9.048  0.5514 -0.2663 -0.0895
  996MOL0     C34331   9.280   6.846   8.978  0.9152 -0.4016 -0.4223
  996MOL0     C34332   9.204   6.732   8.954 -0.1148  0.3011  1.0562
  996MOL0     O34333   9.251   6.639   8.875 -0.2843  0.2746 -0.5754
  996MOL0     C34334   9.310   6.529   8.952 -0.0820 -0.8866  0.1072
  996MOL0     C34335   9.352   6.410   8.865 -0.9218  0.0802  0.3927
  996MOL0     C34336   9.234   6.347   8.794 -0.9619 -0.1512 -0.4396
  996MOL0     C34337   9.196   6.417   8.665  0.4053  0.4164 -0.2172
  996MOL0     C34338   9.054   6.359   8.614  0.4115 -0.2960  0.0677
  996MOL0     C34339   9.075   6.221   8.538 -0.0490  0.3997 -0.2337
  996MOL0     C34340   8.941   6.182   8.466 -0.5562  0.4164 -0.6523
  996MOL0     C34341   8.970   6.044   8.385 -1.1166  0.2455 -0.7860
  996MOL0     N34342   8.972   5.927   8.485  0.4770  0.1220 -0.3167
  996MOL0     C34343   9.064   5.825   8.495  0.2606  0.3752  0.9347
  996MOL0     C34344   9.005   5.727   8.577  0.4733 -0.4496 -0.1094
  996MOL0     C34345   9.089   5.604   8.604 -0.2348 -0.9172 -0.0289
  996MOL0     C34346   9.198   5.646   8.704  0.7027 -0.1784  0.1833
  996MOL0     C34347   9.298   5.526   8.725 -0.0272 -0.2343  0.6242
  996MOL0     C34348   9.406   5.561   8.827  0.0096  0.8900 -0.5630
  996MOL0     O34349   9.422   5.449   8.915 -0.8690 -0.3063  0.5884
  996MOL0     C34350   9.401   5.465   9.047 -0.0652 -0.6373  0.6078
  996MOL0     C34351   9.285   5.534   9.089 -0.7809 -1.2401 -0.0805
  996MOL0     C34352   9.253   5.569   9.219  0.0019  0.8330  1.2461
  996MOL0     C34353   9.350   5.528   9.317 -0.0123 -0.5750 -0.8298
  996MOL0     C34354   9.334   5.567   9.451 -0.4681  0.5730  0.2340
  996MOL0     O34355   9.417   5.500   9.538 -1.5362  0.0391 -0.2249
  996MOL0     C34356   9.398   5.495   9.674 -1.1291 -0.0621 -0.0918
  996MOL0     C34357   9.508   5.439   9.745  0.1142 -0.0017 -0.6437
  996MOL0     C34358   9.495   5.416   9.881 -0.3316 -0.6501 -0.9708
  996MOL0     C34359   9.378   5.465   9.950 -0.5949  1.0893 -0.7088
  996MOL0     O34360   9.390   5.448  10.083  0.1268 -0.3409 -0.5199
  996MOL0     C34361   9.265   5.435  10.156 -0.4882  0.0992 -0.2687
  996MOL0     C34362   9.284   5.329  10.267 -0.4394 -0.4734  1.0057
  996MOL0     C34363   9.148   5.303  10.328  0.7403  0.0332 -0.8467
  996MOL0     C34364   9.111   5.392  10.450  0.8455  0.2193 -0.7078
  996MOL0     C34365   9.188   5.341  10.577  0.6098 -0.6242  0.9039
  996MOL0     C34366   9.166   5.440  10.686  0.6176 -0.0143  0.4731
  996MOL0     C34367   9.270   5.449  10.800 -0.5801  0.0291  0.2866
  996MOL0     C34368   9.232   5.416  10.941  0.6778  0.2084 -0.2449
  996MOL0    Cl34369   9.289   5.536  11.055  0.3876 -0.0029  0.5914
  996MOL0     C34370   9.272   5.522   9.884  0.3860 -0.3960 -0.2853
  996MOL0     C34371   9.282   5.539   9.748 -0.6297 -0.4144 -0.1349
  996MOL0     O34372   9.246   5.652   9.478 -1.1556 -0.6330 -0.3085
  996MOL0     C34373   9.459   5.456   9.274  0.4324 -0.2590 -1.0568
  996MOL0     C34374   9.488   5.420   9.146  0.5527  0.5734 -0.0472
  996MOL0     N34375   8.889   5.766   8.623 -0.3297  0.4435  0.1705
  996MOL0     N34376   8.869   5.888   8.571 -0.6843  0.0999  0.8592
  996MOL0     C34377   9.072   6.722   8.991  0.3847 -0.2378  0.9652
  996MOL0     C34378   9.015   6.845   9.047 -0.2868  0.4439 -0.0000
  996MOL0     C34379   9.008   7.211   9.340 -0.9227  0.6069 -0.3208
  996MOL0     C34380   8.884   7.163   9.373  1.6159 -0.6397  0.2841
  996MOL0     C34381   8.796   7.238   9.461 -0.9218  1.0189  0.5013
  996MOL0     C34382   8.844   7.344   9.528 -0.5673 -0.0594  0.0263
  996MOL0     O34383   8.785   7.407   9.626  0.7460 -0.5586  0.0028
  996MOL0     C34384   8.656   7.361   9.683 -0.6817 -0.3158 -0.0250
  996MOL0     C34385   8.553   7.411   9.592  0.1848 -0.7680  0.2151
  996MOL0     C34386   8.547   7.574   9.594 -0.3972  0.3129  0.1758
  996MOL0     C34387   8.402   7.633   9.584 -1.0317 -0.6462  0.5082
  996MOL0     C34388   8.343   7.653   9.712 -0.2745  0.7946  0.7106
  996MOL0     C34389   8.282   7.668   9.820  0.2967  0.1241  0.8324
  996MOL0     C34390   8.974   7.389   9.501  0.4670 -0.3476  0.5692
  996MOL0     C34391   9.062   7.323   9.409 -0.2305 -0.9937  0.3866
  996MOL0     C34392   9.196   7.395   9.377  0.1893 -0.0621  0.8550
  996MOL0     H34393   9.291   7.040   9.060  1.6019 -1.2963  2.6519
  996MOL0     H34394   9.377   6.849   8.929  0.2364 -0.4074 -1.8244
  996MOL0     H34395   9.400   6.560   9.006 -0.9379  2.2989 -0.1175
  996MOL0     H34396   9.244   6.493   9.032 -2.8206 -0.1736 -1.6987
  996MOL0     H34397   9.404   6.341   8.932 -1.3203  3.0207  4.0443
  996MOL0     H34398   9.423   6.444   8.789 -0.5944  0.0625  0.6857
  996MOL0     H34399   9.149   6.354   8.862 -0.6913 -0.8901 -0.0160
  996MOL0     H34400   9.262   6.244   8.770  1.2982  0.8319 -2.5038
  996MOL0     H34401   9.178   6.523   8.682  0.9412  0.5718 -0.6129
  996MOL0     H34402   9.275   6.399   8.592  1.6215  1.5999  0.7560
  996MOL0     H34403   8.982   6.337   8.693 -1.1051  0.9889 -0.8967
  996MOL0     H34404   9.013   6.434   8.546  1.0557  1.2647  1.3145
  996MOL0     H34405   9.154   6.236   8.464  2.2987  0.5308  2.1607
  996MOL0     H34406   9.105   6.140   8.604  4.5357  0.1047 -2.3391
  996MOL0     H34407   8.910   6.260   8.395  2.1111  0.6075 -1.7144
  996MOL0     H34408   8.874   6.156   8.548  5.5157 -4.2318  3.7678
  996MOL0     H34409   8.884   6.028   8.319 -1.7541 -1.9295  0.4784
  996MOL0     H34410   9.055   6.040   8.316 -1.9046  2.2281 -2.0012
  996MOL0     H34411   9.167   5.819   8.460 -1.2368  0.9919 -4.5102
  996MOL0     H34412   9.033   5.523   8.651 -0.6697 -1.3075 -1.2056
  996MOL0     H34413   9.140   5.564   8.516 -1.9930 -1.2294 -0.9305
  996MOL0     H34414   9.247   5.731   8.655 -3.3685  1.4904 -1.4578
  996MOL0     H34415   9.161   5.690   8.797  0.2137  1.0942 -0.5769
  996MOL0     H34416   9.350   5.497   8.633  4.0276  2.6315  1.7399
  996MOL0     H34417   9.244   5.438   8.759  1.9016 -1.9895 -0.6019
  996MOL0     H34418   9.367   5.647   8.883 -1.9077 -0.7462  0.7763
  996MOL0     H34419   9.498   5.598   8.782  1.3858 -1.1459  0.4421
  996MOL0     H34420   9.209   5.573   9.021 -0.9031  1.4449  1.4372
  996MOL0     H34421   9.162   5.624   9.241 -0.3657 -0.0574  2.0342
  996MOL0     H34422   9.591   5.390   9.695  0.0142 -0.0058 -0.8033
  996MOL0     H34423   9.572   5.363   9.937  1.2149  1.1363 -1.3183
  996MOL0     H34424   9.239   5.531  10.202  2.3746  1.0413 -0.4472
  996MOL0     H34425   9.179   5.403  10.097 -1.8510  0.9070  1.1823
  996MOL0     H34426   9.311   5.236  10.216  1.7908 -0.6158  2.3078
  996MOL0     H34427   9.371   5.354  10.329  0.2152  0.6852 -0.3290
  996MOL0     H34428   9.070   5.308  10.251  2.5980  2.4199 -2.7681
  996MOL0     H34429   9.140   5.196  10.347 -0.4318  0.2328 -0.1652
  996MOL0     H34430   9.002   5.391  10.456  0.5865 -2.1485 -3.3696
  996MOL0     H34431   9.136   5.496  10.428  0.0056  0.0114 -3.0253
  996MOL0     H34432   9.295   5.332  10.559  0.9661 -3.6493  3.6348
  996MOL0     H34433   9.141   5.243  10.591 -0.5642 -0.2688 -0.2896
  996MOL0     H34434   9.175   5.543  10.650 -0.6692 -0.6377 -1.8200
  996MOL0     H34435   9.064   5.434  10.724 -0.3901  4.1783 -0.9682
  996MOL0     H34436   9.280   5.558  10.803 -2.8637  0.3474 -1.0370
  996MOL0     H34437   9.370   5.411  10.777  0.1762  3.2059 -2.5821
  996MOL0     H34438   9.124   5.408  10.958  1.0225 -0.6274  1.9318
  996MOL0     H34439   9.279   5.320  10.964 -2.1707 -1.4489 -0.7458
  996MOL0     H34440   9.196   5.567   9.947  0.0588 -3.8724  2.0580
  996MOL0     H34441   9.211   5.601   9.694 -0.6157 -0.7476 -0.5405
  996MOL0     H34442   9.525   5.416   9.351 -1.0066  1.4624  1.2248
  996MOL0     H34443   9.580   5.370   9.117  0.4778  2.0987 -3.4345
  996MOL0     H34444   9.003   6.641   8.971  1.7554 -0.9853 -1.1757
  996MOL0     H34445   8.909   6.859   9.060 -0.0661  2.0691  0.2995
  996MOL0     H34446   8.833   7.095   9.305  2.3495 -0.3163 -0.5967
  996MOL0     H34447   8.692   7.207   9.473 -0.5082 -1.5867 -1.6972
  996MOL0     H34448   8.640   7.398   9.784 -2.5255  0.4691 -0.5650
  996MOL0     H34449   8.669   7.252   9.689  1.7804 -0.1317 -0.8317
  996MOL0     H34450   8.457   7.376   9.631  0.2597 -1.2666 -0.0336
  996MOL0     H34451   8.569   7.380   9.488  0.8730  0.2109  0.0100
  996MOL0     H34452   8.607   7.604   9.507  2.2973 -3.5369  0.4857
  996MOL0     H34453   8.595   7.618   9.682  2.2126  1.0156 -1.4635
  996MOL0     H34454   8.421   7.735   9.552  1.6613 -1.4449 -0.7477
  996MOL0     H34455   8.342   7.571   9.516  1.4605 -1.3561 -1.2034
  996MOL0     H34456   8.224   7.661   9.909 -1.8871  0.4540 -0.4819
  996MOL0     H34457   9.003   7.480   9.551 -0.6640  0.1571  0.3330
  996MOL0     H34458   9.216   7.446   9.472 -1.2567  1.3004  0.4778
  996MOL0     H34459   9.260   7.309   9.354 -3.4736 -2.6046 -0.8088
  996MOL0     H34460   9.196   7.467   9.294  5.9061 -0.0647  0.4648
  997MOL0     O34461   8.571   3.632   1.443 -0.1068  0.2695  0.0345
  997MOL0     C34462   8.690   3.651   1.455 -0.3850 -0.5436 -0.5822
  997MOL0     O34463   8.748   3.775   1.441 -0.2703 -0.7686 -0.6913
  997MOL0     C34464   8.698   3.850   1.333  0.1340  0.1223 -0.9447
  997MOL0     C34465   8.686   3.814   1.199  0.0984  0.6262 -0.5775
  997MOL0     C34466   8.648   3.910   1.107  0.7274 -0.3227 -0.2871
  997MOL0     C34467   8.628   4.044   1.141  0.4100 -0.2431 -0.4310
  997MOL0     O34468   8.599   4.137   1.046 -0.0875 -0.0667 -0.3653
  997MOL0     C34469   8.489   4.223   1.069 -0.6593  0.0252  0.1183
  997MOL0     C34470   8.363   4.148   1.033 -0.4900 -0.0379  0.3715
  997MOL0     C34471   8.237   4.229   1.011 -1.2512 -1.2304  0.2871
  997MOL0     C34472   8.234   4.283   0.858  0.6157  0.5325  0.3556
  997MOL0     C34473   8.096   4.345   0.812 -0.0042 -0.1405  0.3712
  997MOL0     C34474   8.036   4.436   0.917 -0.2378 -0.2912  0.0613
  997MOL0     C34475   7.898   4.483   0.880  0.5111  0.0652 -0.6675
  997MOL0     C34476   7.794   4.372   0.844 -0.2417 -0.6625  0.4658
  997MOL0     N34477   7.804   4.256   0.940  0.4347 -0.3078  0.4771
  997MOL0     C34478   7.722   4.264   1.051 -0.0970  0.5262  0.0712
  997MOL0     C34479   7.762   4.144   1.113 -0.9751 -0.8383  0.1288
  997MOL0     C34480   7.688   4.108   1.239  0.7709 -0.6375  0.4116
  997MOL0     C34481   7.716   4.204   1.347 -0.7514  0.2391  0.8592
  997MOL0     C34482   7.863   4.199   1.378 -0.2679 -1.1468 -0.7424
  997MOL0     C34483   7.895   4.287   1.504  0.5441 -0.0857 -0.2776
  997MOL0     O34484   7.800   4.290   1.615 -0.9578  0.6841  0.3854
  997MOL0     C34485   7.747   4.416   1.651 -1.1849  0.0860 -0.8921
  997MOL0     C34486   7.821   4.536   1.670 -0.6014 -0.2704  0.0429
  997MOL0     C34487   7.757   4.646   1.725 -0.3325  0.2981 -0.2508
  997MOL0     C34488   7.617   4.648   1.750  0.3889  0.1753  0.1130
  997MOL0     C34489   7.536   4.770   1.776 -0.4816  0.0918  0.3493
  997MOL0     O34490   7.601   4.880   1.824 -0.3223  0.7843 -0.4176
  997MOL0     C34491   7.541   4.978   1.881  0.3002  0.5415 -0.9759
  997MOL0     C34492   7.634   5.051   1.957  0.9601  0.6117  0.1147
  997MOL0     C34493   7.587   5.166   2.016  0.8672  0.3951  0.4847
  997MOL0     C34494   7.457   5.225   1.993 -0.5596  0.8665  0.7492
  997MOL0     O34495   7.403   5.346   2.038  0.4812  0.7566 -0.1197
  997MOL0     C34496   7.493   5.427   2.116  0.0559  0.0337  0.5680
  997MOL0     C34497   7.409   5.517   2.198  0.2793 -0.3007  0.4047
  997MOL0     C34498   7.331   5.633   2.118 -0.2470  0.9882 -1.2429
  997MOL0     C34499   7.212   5.568   2.036 -0.4928 -0.5706  0.2716
  997MOL0     C34500   7.107   5.672   1.989  0.2977 -0.7224 -0.6222
  997MOL0     C34501   7.176   5.812   1.955  0.1282 -0.0087 -0.5983
  997MOL0     C34502   7.099   5.919   1.893  0.3616  0.1517 -0.2632
  997MOL0     C34503   6.987   5.976   1.967  0.9453 -0.4492 -0.1248
  997MOL0    Cl34504   7.045   6.060   2.129  0.3463  0.2012 -0.1632
  997MOL0     C34505   7.366   5.145   1.922 -0.1390 -0.5031  0.5888
  997MOL0     C34506   7.406   5.023   1.872  0.5541 -0.0823  0.3408
  997MOL0     O34507   7.415   4.762   1.766 -0.0976  0.5996  0.4954
  997MOL0     C34508   7.553   4.521   1.724  0.2991 -0.8176 -0.3814
  997MOL0     C34509   7.613   4.410   1.675 -0.1095 -0.2650  0.6652
  997MOL0     N34510   7.859   4.075   1.041 -0.3306  0.2042 -0.3149
  997MOL0     N34511   7.875   4.136   0.931  0.4640  0.2229 -0.1039
  997MOL0     C34512   8.652   4.080   1.276  0.7366  0.1561  1.0030
  997MOL0     C34513   8.686   3.987   1.376  1.3568  0.9814  0.0420
  997MOL0     C34514   8.775   3.542   1.514  0.1809  0.9766 -0.7288
  997MOL0     C34515   8.915   3.553   1.514  0.6830  0.0446  0.2406
  997MOL0     C34516   8.994   3.455   1.571  0.1592  0.3231 -0.8393
  997MOL0     C34517   8.941   3.345   1.630  0.0529 -0.3153 -0.6528
  997MOL0     O34518   9.010   3.236   1.693 -0.0960  0.4429 -0.1769
  997MOL0     C34519   9.137   3.195   1.659  0.7678  1.0112 -0.0360
  997MOL0     C34520   9.138   3.043   1.651 -0.2098  0.5636  0.2405
  997MOL0     C34521   9.040   2.982   1.552  0.1926  0.5122  0.1490
  997MOL0     C34522   9.051   3.020   1.409  0.1358 -0.5602  0.3644
  997MOL0     C34523   9.141   2.945   1.328  0.2488  0.7623  0.1418
  997MOL0     C34524   9.201   2.875   1.252 -0.7352  0.2931 -0.2342
  997MOL0     C34525   8.808   3.331   1.641 -0.0402 -0.3320  0.1548
  997MOL0     C34526   8.726   3.429   1.587  0.9153 -0.1247  0.9555
  997MOL0     C34527   8.575   3.391   1.581  1.0678  0.0390 -1.2127
  997MOL0     H34528   8.688   3.708   1.177 -1.7121 -0.0814  2.1451
  997MOL0     H34529   8.624   3.890   1.003 -3.8257  3.5159 -0.2893
  997MOL0     H34530   8.498   4.268   1.168  0.2096 -0.6315  0.3433
  997MOL0     H34531   8.485   4.312   1.004  1.8476 -0.0943 -0.2928
  997MOL0     H34532   8.360   4.071   1.110  0.4589 -0.3740  0.0837
  997MOL0     H34533   8.372   4.089   0.942  0.1704 -0.4833  0.7207
  997MOL0     H34534   8.234   4.313   1.080 -1.8304 -1.5767  0.6898
  997MOL0     H34535   8.146   4.170   1.023 -2.8523  0.3774 -2.6711
  997MOL0     H34536   8.307   4.363   0.847 -0.6709  1.3925 -4.3994
  997MOL0     H34537   8.265   4.204   0.789 -2.7465 -4.0950  3.4914
  997MOL0     H34538   8.092   4.399   0.717 -3.2740  0.6462  0.8443
  997MOL0     H34539   8.033   4.258   0.791 -3.3364  2.1963 -0.0904
  997MOL0     H34540   8.044   4.391   1.017 -0.5639  1.3446  0.8510
  997MOL0     H34541   8.100   4.525   0.915  1.3900 -1.4259 -1.2559
  997MOL0     H34542   7.916   4.549   0.795 -1.3085 -0.3083 -1.3959
  997MOL0     H34543   7.863   4.530   0.972  0.6000  0.6028 -0.9046
  997MOL0     H34544   7.692   4.411   0.849  0.3850  1.3418 -0.9503
  997MOL0     H34545   7.825   4.341   0.744 -1.0106 -1.1031  0.3557
  997MOL0     H34546   7.644   4.333   1.083  0.5876  0.6678  1.5432
  997MOL0     H34547   7.582   4.112   1.213  1.4083 -1.0787 -2.6972
  997MOL0     H34548   7.722   4.016   1.288  1.8698  0.3031  1.4960
  997MOL0     H34549   7.691   4.308   1.325 -1.1314 -0.2742 -1.2966
  997MOL0     H34550   7.668   4.164   1.437 -1.5405  2.2138  1.3827
  997MOL0     H34551   7.917   4.254   1.301  1.0976 -3.1341 -1.2728
  997MOL0     H34552   7.908   4.101   1.394 -0.8808 -1.1166  1.5142
  997MOL0     H34553   7.913   4.389   1.469  2.6667  0.1611  1.2976
  997MOL0     H34554   7.988   4.250   1.549  1.1521  1.8687  0.1839
  997MOL0     H34555   7.929   4.545   1.658 -0.0654 -1.4304  2.9954
  997MOL0     H34556   7.813   4.738   1.741 -0.0634  0.2245 -0.7527
  997MOL0     H34557   7.737   5.021   1.939  1.4014  3.4440 -3.2645
  997MOL0     H34558   7.660   5.242   2.043  3.1289 -1.9093  1.3160
  997MOL0     H34559   7.548   5.366   2.188 -1.7072 -1.7889  0.4761
  997MOL0     H34560   7.557   5.495   2.060  0.6386  1.6835  3.1052
  997MOL0     H34561   7.344   5.455   2.260 -0.6938  0.2255 -0.0778
  997MOL0     H34562   7.483   5.558   2.268 -0.4576  0.0834  0.9718
  997MOL0     H34563   7.292   5.709   2.186  0.7960 -1.6461  2.6676
  997MOL0     H34564   7.408   5.680   2.055 -0.2920  1.1439 -1.1806
  997MOL0     H34565   7.158   5.493   2.094  1.3887 -2.8526 -0.7763
  997MOL0     H34566   7.254   5.513   1.951  2.9479  0.3269  1.2566
  997MOL0     H34567   7.032   5.682   2.068 -1.5744  1.1290 -2.5088
  997MOL0     H34568   7.051   5.645   1.899  1.9352 -4.1461 -0.7982
  997MOL0     H34569   7.209   5.860   2.048 -2.7459  5.1570 -1.8361
  997MOL0     H34570   7.263   5.798   1.891 -0.1887 -0.5030 -0.9315
  997MOL0     H34571   7.066   5.882   1.795  0.7306 -0.1690 -0.2690
  997MOL0     H34572   7.167   6.003   1.874  0.0038  0.4119 -0.3992
  997MOL0     H34573   6.947   6.065   1.917 -1.5177  0.1970  2.6997
  997MOL0     H34574   6.900   5.915   1.992  0.1418  0.9455  0.6034
  997MOL0     H34575   7.266   5.186   1.914  0.6459  1.9382  2.1663
  997MOL0     H34576   7.329   4.969   1.819  0.3002  0.4810  0.1259
  997MOL0     H34577   7.446   4.508   1.737 -0.3099  0.5597 -3.1524
  997MOL0     H34578   7.550   4.322   1.664  0.0982 -0.7012  2.6079
  997MOL0     H34579   8.640   4.186   1.298  1.9461  0.8861 -1.5279
  997MOL0     H34580   8.694   4.019   1.480  0.5455  0.7847  0.1685
  997MOL0     H34581   8.950   3.651   1.482 -0.7149  0.6437  0.4460
  997MOL0     H34582   9.101   3.475   1.578  0.8409 -2.7354 -1.0605
  997MOL0     H34583   9.202   3.232   1.739 -3.3621  1.9344  3.2173
  997MOL0     H34584   9.176   3.235   1.565  0.9908  1.4607  0.2459
  997MOL0     H34585   9.106   2.997   1.745 -1.0547  1.4663  0.4046
  997MOL0     H34586   9.241   3.014   1.629 -0.5416 -0.4357 -0.0755
  997MOL0     H34587   8.935   2.996   1.579  0.0746  1.2459 -0.6457
  997MOL0     H34588   9.063   2.877   1.570  1.0122  1.1199  3.2928
  997MOL0     H34589   8.953   2.989   1.372  1.2485 -1.0477 -2.4401
  997MOL0     H34590   9.064   3.129   1.399  0.3945 -0.8398 -4.0700
  997MOL0     H34591   9.238   2.809   1.176 -1.9150 -0.8591  0.1602
  997MOL0     H34592   8.761   3.239   1.674 -2.0639  0.3395 -0.6886
  997MOL0     H34593   8.558   3.307   1.648  1.7419  1.8155  1.3753
  997MOL0     H34594   8.520   3.473   1.629  0.8440 -2.3793  3.1067
  997MOL0     H34595   8.548   3.357   1.481 -0.0148 -0.3528 -0.8019
  998MOL0     O34596   7.581   0.619   4.681 -0.0007  0.5647 -0.8173
  998MOL0     C34597   7.460   0.620   4.668 -0.9360 -0.2039  0.5062
  998MOL0     O34598   7.397   0.639   4.545 -0.1636  0.2883  0.5497
  998MOL0     C34599   7.452   0.588   4.427 -0.8490 -0.2361 -0.3817
  998MOL0     C34600   7.488   0.451   4.402  1.1379 -0.6978 -0.0055
  998MOL0     C34601   7.558   0.407   4.287 -0.2628  0.1748  0.5682
  998MOL0     C34602   7.586   0.497   4.185 -0.2926 -0.6437  1.3629
  998MOL0     O34603   7.652   0.480   4.072  0.2079 -0.0119  0.4278
  998MOL0     C34604   7.779   0.416   4.097  0.5126 -0.0358 -0.3128
  998MOL0     C34605   7.881   0.459   3.983 -0.4618  0.0245 -0.4782
  998MOL0     C34606   7.844   0.425   3.838 -0.0319  0.4456  0.6667
  998MOL0     C34607   7.943   0.475   3.734 -0.6472 -0.8646  0.2635
  998MOL0     C34608   7.943   0.626   3.702 -0.2069  0.1346 -0.1095
  998MOL0     C34609   7.816   0.669   3.626 -0.3676  0.6973 -1.0774
  998MOL0     C34610   7.843   0.809   3.564  0.1564 -0.8752 -0.0706
  998MOL0     C34611   7.931   0.798   3.437  0.5699 -1.2587 -1.0002
  998MOL0     N34612   7.835   0.773   3.315 -0.1905  0.4205  0.6868
  998MOL0     C34613   7.744   0.873   3.268 -0.1979  0.5476  0.1745
  998MOL0     C34614   7.690   0.807   3.165 -0.1521  0.1831 -0.1606
  998MOL0     C34615   7.587   0.848   3.060 -0.3411 -0.3701  0.6991
  998MOL0     C34616   7.458   0.879   3.132  0.3170 -0.7007 -0.3048
  998MOL0     C34617   7.370   0.754   3.162  0.2381 -0.3742  0.1089
  998MOL0     C34618   7.432   0.663   3.280  0.1826 -0.7508  0.8799
  998MOL0     O34619   7.336   0.574   3.336  0.8850  0.0307 -0.0081
  998MOL0     C34620   7.289   0.601   3.468 -0.5680  0.6179 -0.6816
  998MOL0     C34621   7.167   0.549   3.498  0.2261  0.4749  0.3725
  998MOL0     C34622   7.115   0.560   3.626 -0.2535 -0.3385  0.4002
  998MOL0     C34623   7.191   0.620   3.733  0.9631  0.0481  0.5048
  998MOL0     C34624   7.124   0.630   3.865 -0.2896  1.0527 -1.3002
  998MOL0     O34625   7.208   0.651   3.968 -0.3214 -0.3029 -0.4453
  998MOL0     C34626   7.162   0.642   4.098 -0.6511 -0.0150  0.0092
  998MOL0     C34627   7.126   0.756   4.179  0.1279 -0.4120 -1.1321
  998MOL0     C34628   7.069   0.736   4.306  0.7902 -0.1577 -0.1681
  998MOL0     C34629   7.059   0.613   4.362 -0.3706 -0.0159  0.6656
  998MOL0     O34630   6.999   0.600   4.487 -0.3785 -0.1162  0.2991
  998MOL0     C34631   6.863   0.563   4.462  1.2177  0.3531 -0.0161
  998MOL0     C34632   6.814   0.503   4.600 -0.2720 -0.5159 -0.5598
  998MOL0     C34633   6.824   0.606   4.717  0.7245 -0.0740 -0.4060
  998MOL0     C34634   6.747   0.733   4.688  0.1797  0.3946 -0.4946
  998MOL0     C34635   6.700   0.784   4.828 -0.3410 -1.0054 -0.2101
  998MOL0     C34636   6.584   0.698   4.891  0.7100 -0.4290 -0.7194
  998MOL0     C34637   6.451   0.695   4.811  1.0121 -0.5522 -0.0166
  998MOL0     C34638   6.428   0.555   4.756 -0.1696  0.1685 -0.2614
  998MOL0    Cl34639   6.433   0.425   4.886  0.0318  0.3886 -0.1031
  998MOL0     C34640   7.114   0.501   4.291 -0.1514 -0.5959 -0.9425
  998MOL0     C34641   7.160   0.519   4.164  0.3166 -0.8155 -0.5432
  998MOL0     O34642   7.002   0.639   3.873  0.6472 -0.2437 -0.1299
  998MOL0     C34643   7.315   0.673   3.699  1.1679 -0.3008  0.1316
  998MOL0     C34644   7.372   0.656   3.576 -0.1511  0.7004  0.3729
  998MOL0     N34645   7.749   0.679   3.156  0.3414  0.0999 -0.9811
  998MOL0     N34646   7.839   0.660   3.246 -0.3994 -0.9930 -0.2169
  998MOL0     C34647   7.532   0.630   4.202  0.2857 -0.2600  0.2894
  998MOL0     C34648   7.471   0.674   4.319  0.1273 -0.1727  0.1019
  998MOL0     C34649   7.373   0.606   4.786 -0.3221 -0.5706  1.0614
  998MOL0     C34650   7.240   0.667   4.770 -0.0648  0.5488  0.0172
  998MOL0     C34651   7.152   0.670   4.882 -0.1364 -0.6820  0.4822
  998MOL0     C34652   7.183   0.601   4.998  0.0001  0.4546 -0.2072
  998MOL0     O34653   7.098   0.602   5.107  0.2607 -0.3786 -0.6435
  998MOL0     C34654   7.021   0.491   5.130 -0.0509 -0.1395 -0.4238
  998MOL0     C34655   6.895   0.490   5.060  0.2074  0.0021 -0.3861
  998MOL0     C34656   6.806   0.363   5.090 -0.0321 -0.6419 -0.7853
  998MOL0     C34657   6.879   0.231   5.060  0.1890 -0.1209  1.4460
  998MOL0     C34658   6.933   0.220   4.918  0.0724  0.0623  0.1981
  998MOL0     C34659   6.954   0.189   4.800 -0.0638 -0.6165  0.8387
  998MOL0     C34660   7.295   0.532   5.009  0.1183  0.7292 -0.3519
  998MOL0     C34661   7.400   0.545   4.910  0.2511  0.1541 -0.3433
  998MOL0     C34662   7.534   0.481   4.944  0.3650  0.3473 -0.3107
  998MOL0     H34663   7.438   0.378   4.466 -1.6083 -1.7831 -3.1359
  998MOL0     H34664   7.587   0.303   4.271 -0.9720 -0.1215  1.1753
  998MOL0     H34665   7.828   0.454   4.187  2.0951 -0.4803 -0.9665
  998MOL0     H34666   7.778   0.308   4.109  0.8613 -0.2208 -1.7916
  998MOL0     H34667   7.978   0.417   4.012 -0.4219  2.9132  5.1429
  998MOL0     H34668   7.895   0.567   4.001 -0.8220 -0.1552  1.0164
  998MOL0     H34669   7.741   0.463   3.828 -0.7541 -1.1999  1.6209
  998MOL0     H34670   7.842   0.320   3.811 -3.8076  0.4888  0.2015
  998MOL0     H34671   8.041   0.441   3.769 -0.8770  0.0009  1.8315
  998MOL0     H34672   7.915   0.425   3.641 -3.2792  1.7121 -0.5080
  998MOL0     H34673   7.957   0.669   3.802  2.5180 -0.8013 -0.0078
  998MOL0     H34674   8.035   0.654   3.650  0.2536  0.3460  0.7968
  998MOL0     H34675   7.781   0.596   3.552  1.4756 -0.3832 -0.9280
  998MOL0     H34676   7.731   0.686   3.693  0.4873  1.2357 -0.0959
  998MOL0     H34677   7.894   0.865   3.643  1.4842 -1.2399 -0.6507
  998MOL0     H34678   7.746   0.855   3.541  1.2083  0.3243 -2.3951
  998MOL0     H34679   7.984   0.890   3.412  0.5221 -0.2616  2.1331
  998MOL0     H34680   8.006   0.720   3.449  1.1085 -0.4575  1.2876
  998MOL0     H34681   7.724   0.976   3.296 -0.8053  0.4129  0.2526
  998MOL0     H34682   7.623   0.931   2.998  1.4559 -1.6199 -0.0054
  998MOL0     H34683   7.562   0.760   3.000 -0.7629 -0.3945  0.9042
  998MOL0     H34684   7.472   0.929   3.228  0.9740 -0.5226 -0.4922
  998MOL0     H34685   7.408   0.948   3.064  1.0644  2.3129  1.9966
  998MOL0     H34686   7.353   0.690   3.075  0.1516  0.3056 -0.3750
  998MOL0     H34687   7.270   0.771   3.202 -1.6814 -5.1798 -1.8462
  998MOL0     H34688   7.490   0.722   3.351 -0.0464  0.4740  0.0754
  998MOL0     H34689   7.503   0.592   3.237 -2.2008 -0.6830 -3.7830
  998MOL0     H34690   7.106   0.506   3.418  1.6738  1.0152 -1.0833
  998MOL0     H34691   7.020   0.525   3.664 -0.8301  1.1560  0.4276
  998MOL0     H34692   7.145   0.856   4.142  1.1092 -0.7393 -1.5457
  998MOL0     H34693   7.033   0.825   4.356  0.6104  0.1407 -0.8129
  998MOL0     H34694   6.800   0.648   4.435  0.0625 -0.0391  1.3195
  998MOL0     H34695   6.867   0.479   4.392 -2.7143 -2.4498  2.6934
  998MOL0     H34696   6.714   0.458   4.605  0.2439 -1.6693 -0.4691
  998MOL0     H34697   6.880   0.422   4.630 -1.2412 -0.8551  0.7571
  998MOL0     H34698   6.781   0.559   4.806  1.6389 -1.3611 -0.6095
  998MOL0     H34699   6.932   0.612   4.736  0.8038 -1.1443 -0.4594
  998MOL0     H34700   6.662   0.723   4.620 -1.0261  3.2274  0.4014
  998MOL0     H34701   6.825   0.795   4.642 -0.7145  1.7454 -0.2453
  998MOL0     H34702   6.658   0.885   4.822  0.9998 -0.1737  2.8814
  998MOL0     H34703   6.783   0.807   4.895 -0.6231  0.5678 -0.3635
  998MOL0     H34704   6.626   0.602   4.924  0.2928 -1.1241 -2.1066
  998MOL0     H34705   6.554   0.747   4.984 -0.9508  0.5927 -1.7586
  998MOL0     H34706   6.448   0.765   4.727  1.7461  2.0843  2.0271
  998MOL0     H34707   6.373   0.722   4.882  0.0869 -2.5276 -0.2169
  998MOL0     H34708   6.331   0.543   4.707 -0.8120 -3.4651  1.5589
  998MOL0     H34709   6.512   0.520   4.695 -0.1309 -3.2924  1.5017
  998MOL0     H34710   7.112   0.403   4.337 -4.5221 -0.9524 -1.5483
  998MOL0     H34711   7.192   0.430   4.111 -1.1616 -1.0642 -1.0792
  998MOL0     H34712   7.369   0.721   3.780  1.3303 -2.8417  1.6747
  998MOL0     H34713   7.472   0.691   3.552 -0.0071 -0.3321 -0.6056
  998MOL0     H34714   7.550   0.691   4.114  1.1472 -0.4092  0.3577
  998MOL0     H34715   7.431   0.775   4.319 -0.4999 -0.3953 -0.9458
  998MOL0     H34716   7.200   0.713   4.681 -4.6913  3.8595  3.2771
  998MOL0     H34717   7.059   0.725   4.874 -0.3319 -1.2587 -1.9558
  998MOL0     H34718   6.995   0.491   5.237 -1.5489 -0.9762 -0.7592
  998MOL0     H34719   7.091   0.411   5.106  0.4664  0.8464 -2.4504
  998MOL0     H34720   6.911   0.489   4.951 -0.1785 -0.4149 -0.4479
  998MOL0     H34721   6.839   0.582   5.080  1.1279 -0.0579  2.9660
  998MOL0     H34722   6.716   0.379   5.030 -0.1772  0.4535 -0.3008
  998MOL0     H34723   6.779   0.364   5.196  3.5794  2.6669  0.3408
  998MOL0     H34724   6.967   0.213   5.122  1.7701 -3.5445 -1.4491
  998MOL0     H34725   6.801   0.156   5.069 -3.5783  2.8217 -2.4041
  998MOL0     H34726   6.963   0.170   4.695 -1.4835 -2.9412  1.0719
  998MOL0     H34727   7.312   0.460   5.088 -3.1120 -0.3441 -0.5150
  998MOL0     H34728   7.560   0.403   4.871 -2.8774  0.0388 -1.2969
  998MOL0     H34729   7.607   0.561   4.941  0.9685 -0.2327 -1.6385
  998MOL0     H34730   7.527   0.431   5.042 -0.7689  5.1495  2.3519
  999MOL0     O34731   4.233   2.717   9.310  0.0197  1.0564 -0.4823
  999MOL0     C34732   4.223   2.626   9.226 -1.3457  0.1790 -0.0114
  999MOL0     O34733   4.212   2.498   9.249  0.5068  0.1123  0.1516
  999MOL0     C34734   4.128   2.467   9.362  0.7865 -0.6535  0.4291
  999MOL0     C34735   4.166   2.502   9.497  0.1777  0.6866 -0.4063
  999MOL0     C34736   4.073   2.490   9.595 -0.4432  0.4238 -0.6027
  999MOL0     C34737   3.948   2.429   9.576  0.7344  0.2901 -0.0748
  999MOL0     O34738   3.862   2.414   9.685  0.2928 -0.2694  0.7741
  999MOL0     C34739   3.907   2.354   9.807  0.0002  0.1523  0.1529
  999MOL0     C34740   3.782   2.353   9.907  0.1730 -0.3777  0.1551
  999MOL0     C34741   3.818   2.313  10.050  0.2855 -0.1471  0.2262
  999MOL0     C34742   3.716   2.375  10.148  0.0349 -0.0206 -0.5015
  999MOL0     C34743   3.763   2.367  10.291 -0.3787 -0.3938 -0.9468
  999MOL0     C34744   3.695   2.449  10.398 -0.2058 -0.1852 -0.1782
  999MOL0     C34745   3.780   2.456  10.523 -1.0579 -0.2333 -0.4051
  999MOL0     C34746   3.884   2.566  10.533  0.0678  0.2563 -0.2027
  999MOL0     N34747   3.827   2.705  10.549  0.5916 -0.9527 -0.4675
  999MOL0     C34748   3.842   2.784  10.664 -0.5062 -0.1559  0.7746
  999MOL0     C34749   3.850   2.910  10.614  0.9290  0.3913 -0.4723
  999MOL0     C34750   3.806   3.014  10.710 -0.5063 -0.5583  0.0185
  999MOL0     C34751   3.910   3.042  10.825 -0.6383 -0.0584  0.7432
  999MOL0     C34752   4.057   3.059  10.780  1.0954 -0.8432 -0.7872
  999MOL0     C34753   4.069   3.185  10.680  0.2978  0.4898 -0.2034
  999MOL0     O34754   4.201   3.211  10.626 -0.2164 -0.1003  0.4626
  999MOL0     C34755   4.207   3.299  10.524  0.2014  0.1598 -0.4182
  999MOL0     C34756   4.100   3.369  10.464 -0.6138 -0.3077  0.1646
  999MOL0     C34757   4.127   3.452  10.356  0.5552 -0.4022  0.0063
  999MOL0     C34758   4.247   3.472  10.311 -0.4280 -0.2755  0.0356
  999MOL0     C34759   4.273   3.542  10.180 -0.1131 -0.6896 -0.0813
  999MOL0     O34760   4.364   3.501  10.092 -0.1973 -0.6105 -0.4465
  999MOL0     C34761   4.325   3.522   9.965 -0.5370  0.5138 -0.1573
  999MOL0     C34762   4.202   3.549   9.916  0.7039 -0.3918  0.0629
  999MOL0     C34763   4.184   3.570   9.772  0.5008  0.2758  0.4161
  999MOL0     C34764   4.288   3.554   9.679 -0.1606 -0.5928 -0.5810
  999MOL0     O34765   4.277   3.575   9.541  0.2562 -0.2117 -0.1055
  999MOL0     C34766   4.311   3.456   9.467  0.1446 -0.7330 -0.0635
  999MOL0     C34767   4.309   3.478   9.325  0.1574  0.0359  0.5126
  999MOL0     C34768   4.311   3.348   9.239  0.4421 -0.6258 -0.1351
  999MOL0     C34769   4.288   3.373   9.090  0.2644 -0.2231  0.1599
  999MOL0     C34770   4.297   3.235   9.029 -0.0079 -0.6085  0.9567
  999MOL0     C34771   4.257   3.244   8.881 -0.8360  0.6306 -0.3656
  999MOL0     C34772   4.350   3.319   8.783 -1.1971  0.3351 -0.9839
  999MOL0     C34773   4.299   3.314   8.641  0.5553  0.1198 -0.4814
  999MOL0    Cl34774   4.142   3.392   8.647 -0.2422 -0.0340  0.5299
  999MOL0     C34775   4.416   3.519   9.737 -0.0966 -0.0738 -0.1183
  999MOL0     C34776   4.436   3.502   9.876  0.1734 -0.4460 -0.5330
  999MOL0     O34777   4.207   3.646  10.170  0.1656  0.3768  0.3906
  999MOL0     C34778   4.353   3.389  10.356 -0.0053  0.0493 -0.6937
  999MOL0     C34779   4.336   3.303  10.468 -0.9634 -0.6651 -0.4148
  999MOL0     N34780   3.843   2.912  10.471  0.2375 -0.3714 -0.6234
  999MOL0     N34781   3.830   2.794  10.436  0.6167  0.4505  0.4311
  999MOL0     C34782   3.915   2.399   9.442 -0.2646  0.2603  0.1810
  999MOL0     C34783   4.001   2.417   9.342 -0.8041  0.2541  0.1726
  999MOL0     C34784   4.243   2.666   9.082  0.4308  0.1336  0.2299
  999MOL0     C34785   4.359   2.744   9.042  0.4147  0.6404  0.3034
  999MOL0     C34786   4.380   2.796   8.915  0.0780 -0.4504 -0.7993
  999MOL0     C34787   4.295   2.757   8.809 -0.8973 -0.8309  0.2797
  999MOL0     O34788   4.302   2.795   8.679 -0.6703 -0.1373 -0.9355
  999MOL0     C34789   4.410   2.895   8.639  0.4739  0.4675  0.7063
  999MOL0     C34790   4.405   2.888   8.483 -0.7984 -0.2713 -0.1076
  999MOL0     C34791   4.491   3.005   8.420  0.4620  0.4990 -0.3414
  999MOL0     C34792   4.489   2.998   8.263 -0.5740 -0.5878  0.9793
  999MOL0     C34793   4.545   3.116   8.208  0.7121 -0.1340  0.8702
  999MOL0     C34794   4.579   3.209   8.147  0.1621 -0.9262 -0.3644
  999MOL0     C34795   4.191   2.677   8.845  0.7602 -0.4458  1.5094
  999MOL0     C34796   4.166   2.629   8.978  0.3245  0.2552  0.0851
  999MOL0     C34797   4.053   2.532   8.998 -0.2824  0.2580 -0.3722
  999MOL0     H34798   4.264   2.549   9.510  0.1626  0.6737 -0.2389
  999MOL0     H34799   4.090   2.515   9.699  0.1488 -2.1972  0.0129
  999MOL0     H34800   3.935   2.250   9.785  1.0463  0.6686 -1.1272
  999MOL0     H34801   3.985   2.420   9.844  0.5819  0.1213 -0.9651
  999MOL0     H34802   3.704   2.288   9.867  0.9244 -1.0536 -0.2635
  999MOL0     H34803   3.750   2.457   9.892 -0.1945 -0.7490 -2.1110
  999MOL0     H34804   3.914   2.363  10.064  0.1805  1.2426 -3.1046
  999MOL0     H34805   3.818   2.204  10.049  1.0721 -0.1501 -0.4633
  999MOL0     H34806   3.713   2.481  10.122 -0.1318  0.0239 -0.3022
  999MOL0     H34807   3.619   2.329  10.127 -0.7188  1.6932 -0.9250
  999MOL0     H34808   3.767   2.267  10.335 -0.0772 -0.1755 -0.4686
  999MOL0     H34809   3.868   2.398  10.296  0.2656 -2.5092 -0.4876
  999MOL0     H34810   3.677   2.549  10.358  2.6611 -0.1709 -1.6470
  999MOL0     H34811   3.597   2.409  10.427 -0.5591  1.1625  0.5665
  999MOL0     H34812   3.843   2.367  10.526  0.9696  1.0859 -1.5643
  999MOL0     H34813   3.719   2.452  10.614  0.2259  0.3455  0.5004
  999MOL0     H34814   3.946   2.539  10.619 -2.7317 -5.2461  0.5738
  999MOL0     H34815   3.944   2.567  10.441 -0.1997 -1.5912 -0.4521
  999MOL0     H34816   3.837   2.751  10.767 -0.3028 -1.4339  0.4004
  999MOL0     H34817   3.786   3.112  10.664 -0.1246  0.4193  1.8322
  999MOL0     H34818   3.710   2.992  10.757  0.1848  0.2760  1.9008
  999MOL0     H34819   3.873   3.139  10.859 -1.4423  0.8998 -2.4897
  999MOL0     H34820   3.908   2.963  10.900 -0.6373 -2.0944 -1.2872
  999MOL0     H34821   4.105   2.972  10.735 -0.5356 -3.1557  1.6735
  999MOL0     H34822   4.121   3.077  10.867  2.7480 -3.6996 -1.2753
  999MOL0     H34823   4.032   3.278  10.724 -0.3335 -0.8129  2.1899
  999MOL0     H34824   4.000   3.154  10.601  2.4786 -3.6018 -0.7182
  999MOL0     H34825   3.997   3.372  10.499 -1.9754 -0.2115 -3.4615
  999MOL0     H34826   4.043   3.498  10.305  0.9563  0.1347 -0.1753
  999MOL0     H34827   4.108   3.554   9.970  0.9437 -1.2223  0.5628
  999MOL0     H34828   4.083   3.575   9.731  0.8067 -0.6799 -0.5029
  999MOL0     H34829   4.411   3.419   9.496  1.4923  1.8687 -1.0701
  999MOL0     H34830   4.233   3.383   9.489  1.0998 -2.1993 -1.3118
  999MOL0     H34831   4.216   3.537   9.321 -0.3601 -0.6634  1.6948
  999MOL0     H34832   4.394   3.546   9.311  0.5768  0.2029  3.3016
  999MOL0     H34833   4.408   3.301   9.254  0.4317 -0.8151 -0.6380
  999MOL0     H34834   4.233   3.280   9.274  0.1882 -0.4895 -0.4315
  999MOL0     H34835   4.368   3.442   9.061 -0.9283  1.0020 -0.2852
  999MOL0     H34836   4.190   3.413   9.066 -0.6822 -1.9330  0.9598
  999MOL0     H34837   4.222   3.170   9.075 -1.7343 -0.4778 -1.4598
  999MOL0     H34838   4.405   3.223   9.035 -0.0699 -1.2552  0.8285
  999MOL0     H34839   4.250   3.144   8.836 -0.4529  1.6666 -2.8998
  999MOL0     H34840   4.158   3.289   8.871 -1.7023 -1.6676 -4.1382
  999MOL0     H34841   4.451   3.278   8.787 -1.7258 -0.9748  2.6397
  999MOL0     H34842   4.355   3.422   8.819 -1.3734  1.8379 -4.7674
  999MOL0     H34843   4.371   3.358   8.571 -1.6365  0.4419 -2.6865
  999MOL0     H34844   4.287   3.207   8.621  2.0663 -0.2027  0.2066
  999MOL0     H34845   4.501   3.535   9.672  0.3363  0.7807  0.6363
  999MOL0     H34846   4.530   3.469   9.919 -0.1931 -1.3211 -0.3869
  999MOL0     H34847   4.446   3.393  10.300  0.7532 -2.7612  0.1959
  999MOL0     H34848   4.413   3.240  10.511  0.7916  1.6111 -0.0458
  999MOL0     H34849   3.820   2.357   9.410 -1.0083  2.4677 -0.7114
  999MOL0     H34850   3.970   2.401   9.239  0.3445 -0.7274 -0.0364
  999MOL0     H34851   4.433   2.780   9.112  0.3668  0.7132  0.3166
  999MOL0     H34852   4.460   2.869   8.902  2.4705 -2.3695  1.7118
  999MOL0     H34853   4.514   2.870   8.665  1.2559 -0.4088 -2.8012
  999MOL0     H34854   4.389   2.989   8.690 -0.3683 -1.0351  3.3259
  999MOL0     H34855   4.304   2.887   8.441 -1.0065  2.2037  0.2035
  999MOL0     H34856   4.456   2.796   8.453 -1.1415 -0.3705 -0.3841
  999MOL0     H34857   4.588   3.011   8.469 -0.5425  2.5218  1.6010
  999MOL0     H34858   4.448   3.104   8.442  2.1203  1.2919 -0.5609
  999MOL0     H34859   4.541   2.908   8.230  2.2115  0.5237  2.0155
  999MOL0     H34860   4.384   2.993   8.232 -0.3713  0.6703 -0.0110
  999MOL0     H34861   4.642   3.270   8.085  2.5395 -4.8772 -2.2427
  999MOL0     H34862   4.120   2.634   8.774  1.7645  0.7651 -0.3142
  999MOL0     H34863   3.986   2.560   9.080 -1.9459 -1.9152 -0.8994
  999MOL0     H34864   3.986   2.516   8.913 -4.0906 -1.2143  2.5916
  999MOL0     H34865   4.100   2.433   9.001 -2.0740 -0.6653 -0.9804
 1000MOL0     O34866   1.110   8.530   7.462  0.1064 -0.4700 -0.1278
 1000MOL0     C34867   1.163   8.635   7.420  0.3585  0.1985 -0.8955
 1000MOL0     O34868   1.179   8.681   7.291  0.8712  0.1902 -0.4677
 1000MOL0     C34869   1.120   8.618   7.187 -1.3276  0.5892 -0.0817
 1000MOL0     C34870   1.117   8.692   7.079  1.0905 -0.4590  0.3169
 1000MOL0     C34871   1.072   8.645   6.958  1.0089  0.0974 -0.4692
 1000MOL0     C34872   1.026   8.512   6.939 -0.9250  0.5378 -0.3574
 1000MOL0     O34873   0.966   8.469   6.833  0.3991 -0.1046  0.4057
 1000MOL0     C34874   1.046   8.475   6.717  0.6091  0.2189 -0.6842
 1000MOL0     C34875   1.120   8.354   6.677 -0.7803  0.0878  0.5378
 1000MOL0     C34876   1.040   8.223   6.681 -0.2449  0.8333 -0.7144
 1000MOL0     C34877   1.095   8.120   6.582  0.2624  0.6513 -1.7588
 1000MOL0     C34878   1.005   8.007   6.562 -0.3645  0.4569 -0.3452
 1000MOL0     C34879   1.015   7.899   6.661  0.3806 -0.1748 -0.9267
 1000MOL0     C34880   0.944   7.762   6.624 -0.9737  0.5349  0.1202
 1000MOL0     C34881   1.039   7.650   6.642 -0.3112  0.5947  0.5671
 1000MOL0     N34882   0.994   7.520   6.601  0.8037  0.3410  0.9020
 1000MOL0     C34883   0.919   7.427   6.669 -1.1543 -0.7639 -0.3917
 1000MOL0     C34884   0.890   7.333   6.572  0.5716  0.3424 -0.0550
 1000MOL0     C34885   0.799   7.220   6.581  0.1300  0.5256 -0.2805
 1000MOL0     C34886   0.794   7.145   6.452 -0.4922  0.7479 -0.2002
 1000MOL0     C34887   0.687   7.037   6.463 -0.9701  0.1676 -0.6990
 1000MOL0     C34888   0.692   6.947   6.339  0.3692 -0.3650 -0.2163
 1000MOL0     O34889   0.609   6.829   6.360 -0.2698 -0.7553  0.5117
 1000MOL0     C34890   0.657   6.721   6.428  0.2432 -1.4676 -0.1411
 1000MOL0     C34891   0.791   6.692   6.464 -0.7216 -0.1681  0.1430
 1000MOL0     C34892   0.819   6.569   6.521 -0.0252  0.4978 -0.2295
 1000MOL0     C34893   0.716   6.469   6.534  0.1815  0.1371  0.9310
 1000MOL0     C34894   0.742   6.335   6.577 -0.1349 -0.4186 -1.1581
 1000MOL0     O34895   0.851   6.325   6.662 -0.3028  0.1713 -0.0586
 1000MOL0     C34896   0.878   6.197   6.716  1.0825  0.1337 -0.0826
 1000MOL0     C34897   0.994   6.134   6.684 -0.9321  0.3724  0.1675
 1000MOL0     C34898   1.032   6.013   6.745 -0.5608  0.8049 -0.8878
 1000MOL0     C34899   0.955   5.959   6.849 -0.0710 -0.0780  1.1449
 1000MOL0     O34900   0.983   5.849   6.928 -0.6751  0.5646  0.4739
 1000MOL0     C34901   1.110   5.813   6.961 -0.8875  0.2934 -0.3924
 1000MOL0     C34902   1.135   5.861   7.100 -0.3007 -0.4284  1.0045
 1000MOL0     C34903   1.046   5.817   7.213  0.5065 -0.2737  0.8588
 1000MOL0     C34904   1.039   5.660   7.230 -0.1702  0.6327  0.0440
 1000MOL0     C34905   0.959   5.624   7.357 -0.6215 -1.3919 -0.0657
 1000MOL0     C34906   0.936   5.475   7.390 -0.3227 -0.9566 -0.5816
 1000MOL0     C34907   1.073   5.389   7.413 -0.2175 -0.7039  0.3490
 1000MOL0     C34908   1.186   5.457   7.495  0.0877 -1.0428 -1.0509
 1000MOL0    Cl34909   1.128   5.475   7.667  0.2796  0.0682  0.0202
 1000MOL0     C34910   0.841   6.029   6.892  0.4272  0.4759 -0.3680
 1000MOL0     C34911   0.797   6.145   6.822 -0.2081 -0.6325  0.1836
 1000MOL0     O34912   0.661   6.248   6.560  0.0615 -0.0660  0.8102
 1000MOL0     C34913   0.577   6.505   6.505 -0.5055  0.9839 -0.0574
 1000MOL0     C34914   0.556   6.628   6.461 -0.4341 -0.3841 -0.4300
 1000MOL0     N34915   0.966   7.362   6.466 -0.3134 -0.7026 -0.5576
 1000MOL0     N34916   1.029   7.472   6.478  0.2586 -0.8871  0.9569
 1000MOL0     C34917   1.025   8.433   7.059 -0.4282 -0.1140 -0.2866
 1000MOL0     C34918   1.080   8.480   7.176  0.1557  0.2371 -0.0296
 1000MOL0     C34919   1.220   8.723   7.523 -0.0671 -0.2304 -0.9943
 1000MOL0     C34920   1.355   8.764   7.496 -1.3447 -0.1334  0.0698
 1000MOL0     C34921   1.411   8.857   7.587 -0.4411  1.5285  0.5790
 1000MOL0     C34922   1.348   8.890   7.713 -0.3724  0.0753  0.3200
 1000MOL0     O34923   1.411   8.952   7.816  0.5496 -0.0095 -0.0804
 1000MOL0     C34924   1.554   8.952   7.821  0.4114  0.2411  1.9451
 1000MOL0     C34925   1.582   9.025   7.951  0.2526 -1.1312 -0.5265
 1000MOL0     C34926   1.521   9.173   7.950 -0.2745  0.1146 -0.2643
 1000MOL0     C34927   1.578   9.260   8.065 -0.3544  0.5120 -0.5263
 1000MOL0     C34928   1.543   9.396   8.034  0.0901  0.3533  0.3575
 1000MOL0     C34929   1.508   9.503   8.004  0.0490  0.5239  0.2448
 1000MOL0     C34930   1.215   8.864   7.723 -0.3079  0.1120  0.6545
 1000MOL0     C34931   1.147   8.780   7.627  0.7028 -0.0363  0.5815
 1000MOL0     C34932   0.999   8.764   7.638 -0.0361  0.1694 -0.4438
 1000MOL0     H34933   1.140   8.798   7.069  0.8057 -0.5490 -1.6772
 1000MOL0     H34934   1.089   8.707   6.870  0.4947 -0.3429 -0.8889
 1000MOL0     H34935   0.968   8.512   6.650  2.3802 -2.5099 -4.5573
 1000MOL0     H34936   1.118   8.557   6.710  1.5744 -0.7265 -2.3208
 1000MOL0     H34937   1.209   8.351   6.741 -0.3874 -1.8448 -0.0314
 1000MOL0     H34938   1.142   8.370   6.571 -1.9724 -0.4984  0.1816
 1000MOL0     H34939   0.933   8.243   6.666 -0.8951 -3.0318 -2.4265
 1000MOL0     H34940   1.065   8.188   6.781  1.0229 -0.0854 -1.3247
 1000MOL0     H34941   1.097   8.158   6.480  1.6942  1.5644 -1.4099
 1000MOL0     H34942   1.197   8.098   6.615  0.8771  3.3591 -1.6359
 1000MOL0     H34943   0.899   8.033   6.553 -1.2372 -2.1195  1.3867
 1000MOL0     H34944   1.047   7.955   6.476 -0.5901 -1.9009  0.8939
 1000MOL0     H34945   1.123   7.887   6.675  0.4013  2.0676  1.7291
 1000MOL0     H34946   0.979   7.925   6.761 -2.0964  1.2956 -2.0886
 1000MOL0     H34947   0.907   7.770   6.521  1.7693 -0.8160 -1.0712
 1000MOL0     H34948   0.852   7.751   6.681 -1.2260  3.2390  0.3781
 1000MOL0     H34949   1.118   7.676   6.571 -1.3279  1.9811 -0.1102
 1000MOL0     H34950   1.084   7.647   6.741  1.2798  0.7049 -0.1282
 1000MOL0     H34951   0.886   7.432   6.773  0.3988 -2.6674  0.2620
 1000MOL0     H34952   0.810   7.164   6.674  0.6162  1.5555  0.3012
 1000MOL0     H34953   0.707   7.277   6.596  0.2059  1.0263 -1.5455
 1000MOL0     H34954   0.770   7.209   6.367 -1.9377  0.7553  0.1977
 1000MOL0     H34955   0.896   7.106   6.441 -0.9756 -0.3474 -1.0577
 1000MOL0     H34956   0.589   7.084   6.480 -0.2437  0.7135  2.6059
 1000MOL0     H34957   0.705   6.978   6.553 -2.2123 -0.2352 -0.6887
 1000MOL0     H34958   0.794   6.924   6.308  0.5676  1.2137 -0.7958
 1000MOL0     H34959   0.660   6.998   6.248  0.6271  3.4948  1.6626
 1000MOL0     H34960   0.871   6.758   6.433  0.7747 -1.1428  1.7476
 1000MOL0     H34961   0.920   6.558   6.559  0.4867  1.1871 -1.3309
 1000MOL0     H34962   1.060   6.172   6.607 -1.3051 -1.0349 -0.8704
 1000MOL0     H34963   1.128   5.962   6.735 -0.8734  0.1603 -0.6590
 1000MOL0     H34964   1.116   5.704   6.969 -1.9261  0.1681 -1.1928
 1000MOL0     H34965   1.194   5.851   6.902  0.1221 -1.2985 -0.0579
 1000MOL0     H34966   1.242   5.843   7.115 -0.7722 -2.0125  3.0181
 1000MOL0     H34967   1.132   5.970   7.091  1.7621 -0.3577  0.7001
 1000MOL0     H34968   1.094   5.855   7.303  0.9917  2.2792 -0.3772
 1000MOL0     H34969   0.944   5.857   7.207  0.4461 -0.5699 -0.3720
 1000MOL0     H34970   1.138   5.615   7.243  0.9824  3.0756  0.3582
 1000MOL0     H34971   0.984   5.608   7.151 -4.6380  1.4291  2.3158
 1000MOL0     H34972   0.859   5.664   7.336  0.0175 -0.9676 -2.5663
 1000MOL0     H34973   1.015   5.672   7.438 -0.3270  0.7622 -1.4586
 1000MOL0     H34974   0.872   5.483   7.478  1.6115  0.6524  0.7692
 1000MOL0     H34975   0.879   5.423   7.312 -1.0908  2.3203 -2.3919
 1000MOL0     H34976   1.120   5.375   7.315  1.5647  3.6083  0.3604
 1000MOL0     H34977   1.046   5.295   7.462 -0.3352 -1.4655 -1.1182
 1000MOL0     H34978   1.277   5.398   7.504  0.7874 -0.0517 -1.3889
 1000MOL0     H34979   1.204   5.555   7.449 -3.2126  0.7611  1.0434
 1000MOL0     H34980   0.777   5.989   6.971  1.2686 -1.8328 -0.7607
 1000MOL0     H34981   0.710   6.203   6.852 -0.1951  0.3254 -1.5025
 1000MOL0     H34982   0.498   6.431   6.496 -0.2185  0.9212 -3.0058
 1000MOL0     H34983   0.460   6.659   6.422 -0.7811 -3.5127 -2.4312
 1000MOL0     H34984   0.976   8.336   7.058 -1.0023  0.1335  0.9893
 1000MOL0     H34985   1.099   8.404   7.251  3.9513  0.2711 -0.7462
 1000MOL0     H34986   1.412   8.717   7.417 -3.2657 -2.3193 -0.1292
 1000MOL0     H34987   1.516   8.884   7.578  1.0817 -2.6003  3.0444
 1000MOL0     H34988   1.600   8.999   7.733  0.4504  1.0138  2.3633
 1000MOL0     H34989   1.596   8.853   7.838 -0.0954  0.0000  1.7903
 1000MOL0     H34990   1.687   9.024   7.982 -0.8348 -0.2799  3.8507
 1000MOL0     H34991   1.527   8.972   8.029  1.1194 -0.9205  0.2383
 1000MOL0     H34992   1.415   9.169   7.974 -0.1491 -3.1460  0.1409
 1000MOL0     H34993   1.522   9.214   7.848  0.5518 -1.9654 -1.1535
 1000MOL0     H34994   1.543   9.224   8.162 -0.6128  1.5383 -0.2308
 1000MOL0     H34995   1.685   9.239   8.052 -0.3175  0.2132  0.2055
 1000MOL0     H34996   1.467   9.600   7.985  2.9588  1.6348 -1.0202
 1000MOL0     H34997   1.164   8.908   7.808  0.4605  3.3852 -0.4549
 1000MOL0     H34998   0.978   8.757   7.745  0.2190 -2.1203 -0.4903
 1000MOL0     H34999   0.957   8.856   7.597  0.3861  0.0054 -1.2814
 1000MOL0     H35000   0.958   8.678   7.585  0.4916 -0.6786  0.4944
 1001MOL0     O35001   1.566   4.052   9.601  0.5423 -0.0913  0.4125
 1001MOL0     C35002   1.682   4.057   9.573 -0.2031 -0.3224 -0.0155
 1001MOL0     O35003   1.750   4.176   9.580  0.5401  0.2084  0.1785
 1001MOL0     C35004   1.696   4.299   9.607 -0.2175  0.0633 -0.0823
 1001MOL0     C35005   1.767   4.384   9.686  1.0942  0.0259 -0.0176
 1001MOL0     C35006   1.729   4.515   9.706  0.3610  0.2756  0.1454
 1001MOL0     C35007   1.610   4.567   9.643 -0.0501  0.5091 -1.2388
 1001MOL0     O35008   1.555   4.691   9.631 -0.2133 -0.1684 -1.2219
 1001MOL0     C35009   1.617   4.778   9.730 -0.0903 -0.1699  0.3984
 1001MOL0     C35010   1.576   4.922   9.692 -0.4185 -0.4223 -0.5889
 1001MOL0     C35011   1.654   5.026   9.780  1.2085 -0.2456  1.2519
 1001MOL0     C35012   1.632   5.168   9.718  0.1044 -0.3195 -0.1908
 1001MOL0     C35013   1.709   5.278   9.786 -0.6588  0.1855  0.1827
 1001MOL0     C35014   1.672   5.315   9.935 -0.8654  0.1851  0.3945
 1001MOL0     C35015   1.731   5.447   9.985  1.2440  0.0388 -0.4393
 1001MOL0     C35016   1.881   5.424  10.019  0.4932 -0.4474  0.2116
 1001MOL0     N35017   1.944   5.561  10.061 -0.6778  0.7717  0.3467
 1001MOL0     C35018   1.927   5.624  10.180  0.8400  0.9915  0.5723
 1001MOL0     C35019   1.968   5.749  10.150  0.1774  0.1485 -0.3666
 1001MOL0     C35020   1.959   5.867  10.243  0.6659 -0.4346  0.7539
 1001MOL0     C35021   2.092   5.865  10.324 -0.1269 -0.2594  0.0778
 1001MOL0     C35022   2.107   5.987  10.422  0.7289 -0.4233 -0.3066
 1001MOL0     C35023   2.139   6.110  10.346 -0.4465 -0.9075  0.2790
 1001MOL0     O35024   2.154   6.225  10.430 -0.8103 -0.3261  0.6217
 1001MOL0     C35025   2.186   6.350  10.372  1.1004 -0.4532 -0.7233
 1001MOL0     C35026   2.121   6.391  10.250  0.7899 -0.4087 -0.1216
 1001MOL0     C35027   2.118   6.525  10.196  0.2284 -0.1162 -0.3859
 1001MOL0     C35028   2.209   6.622  10.248 -0.5416  0.5886  0.6896
 1001MOL0     C35029   2.212   6.749  10.196 -0.3994 -0.4085 -0.6077
 1001MOL0     O35030   2.332   6.819  10.202  0.1240  0.9752 -0.5467
 1001MOL0     C35031   2.382   6.899  10.097  1.1698 -0.5952  1.1558
 1001MOL0     C35032   2.442   7.015  10.139 -0.8551  0.9225  0.1855
 1001MOL0     C35033   2.496   7.110  10.044  0.4739 -0.8325  0.2495
 1001MOL0     C35034   2.463   7.095   9.914  0.7736 -0.5498  1.0505
 1001MOL0     O35035   2.504   7.200   9.830 -0.2861  0.0081  0.0078
 1001MOL0     C35036   2.502   7.203   9.691 -0.2481 -0.3999  0.5977
 1001MOL0     C35037   2.541   7.349   9.654 -0.5124 -0.3718 -0.6753
 1001MOL0     C35038   2.680   7.379   9.709 -0.4519 -0.5890  0.6368
 1001MOL0     C35039   2.716   7.535   9.682 -0.2243 -0.1119  1.4422
 1001MOL0     C35040   2.848   7.560   9.726 -0.0746 -0.4122 -0.4715
 1001MOL0     C35041   2.905   7.698   9.688  0.5690 -0.5225 -0.3279
 1001MOL0     C35042   3.029   7.729   9.774 -0.2148 -0.3743 -0.1377
 1001MOL0     C35043   2.993   7.831   9.893 -0.2467  0.3615  0.3410
 1001MOL0    Cl35044   3.004   7.998   9.826 -0.2838 -0.6164 -0.0334
 1001MOL0     C35045   2.397   6.983   9.867 -0.5842  0.0459  0.8912
 1001MOL0     C35046   2.358   6.888   9.957 -0.2002 -0.2727 -0.3622
 1001MOL0     O35047   2.111   6.791  10.133 -0.2736 -0.3779  0.0993
 1001MOL0     C35048   2.285   6.582  10.358  0.1264  0.9604 -0.2814
 1001MOL0     C35049   2.273   6.446  10.425 -0.5330  0.0614  0.1183
 1001MOL0     N35050   2.014   5.756  10.027 -1.0682 -1.1103 -0.7250
 1001MOL0     N35051   2.002   5.644   9.976  0.2290 -0.0645  0.9634
 1001MOL0     C35052   1.546   4.474   9.571  0.5210  0.2742  0.7111
 1001MOL0     C35053   1.577   4.342   9.552  0.0859 -0.9908 -0.6283
 1001MOL0     C35054   1.748   3.922   9.536 -0.1555  0.2859  0.1014
 1001MOL0     C35055   1.711   3.803   9.599 -0.9910 -0.8654  0.0998
 1001MOL0     C35056   1.773   3.690   9.550  0.7240  0.0395 -0.5309
 1001MOL0     C35057   1.878   3.694   9.460 -0.7502  0.1848  0.2122
 1001MOL0     O35058   1.950   3.582   9.413  0.3610  0.3520 -0.4933
 1001MOL0     C35059   1.931   3.448   9.468 -0.3071 -1.0224  1.6310
 1001MOL0     C35060   1.973   3.349   9.358  0.3374 -0.0070 -0.1797
 1001MOL0     C35061   2.126   3.356   9.318 -0.5416  0.3875 -0.1144
 1001MOL0     C35062   2.164   3.274   9.206  0.0888 -0.1140  0.5328
 1001MOL0     C35063   2.188   3.130   9.227  0.4568  0.1701  0.4627
 1001MOL0     C35064   2.207   3.011   9.247  0.3891  1.1730 -0.5547
 1001MOL0     C35065   1.906   3.818   9.400  0.1084  0.0681 -0.8209
 1001MOL0     C35066   1.832   3.929   9.422  0.1071  0.0846  0.6186
 1001MOL0     C35067   1.854   4.040   9.326 -0.8197 -0.5692 -0.5051
 1001MOL0     H35068   1.848   4.340   9.743  1.4901 -0.1822 -0.7257
 1001MOL0     H35069   1.801   4.565   9.771 -0.1172  1.8879 -0.5098
 1001MOL0     H35070   1.570   4.752   9.826 -1.5711  1.5969  0.1930
 1001MOL0     H35071   1.726   4.772   9.742 -0.3243 -3.2025  2.1608
 1001MOL0     H35072   1.468   4.931   9.704 -0.3032  0.7141 -0.3270
 1001MOL0     H35073   1.603   4.934   9.586  0.3365 -1.0711 -0.4796
 1001MOL0     H35074   1.760   4.999   9.777  1.9664  2.4742 -0.5353
 1001MOL0     H35075   1.617   5.030   9.883 -0.0491  0.2846  0.8029
 1001MOL0     H35076   1.665   5.146   9.616 -0.8714 -1.9620 -0.1867
 1001MOL0     H35077   1.523   5.173   9.710 -0.2115 -4.8110 -1.3922
 1001MOL0     H35078   1.810   5.238   9.781 -0.5688  0.5555 -1.7776
 1001MOL0     H35079   1.696   5.375   9.737 -1.6901  0.5711  1.1546
 1001MOL0     H35080   1.563   5.314   9.938 -0.9532  2.0479 -0.3747
 1001MOL0     H35081   1.709   5.233   9.997  0.9819  0.4023 -0.3364
 1001MOL0     H35082   1.679   5.481  10.075  0.3309  0.4388 -1.0965
 1001MOL0     H35083   1.707   5.523   9.910  0.5977  2.3025  1.9538
 1001MOL0     H35084   1.874   5.354  10.103 -2.1883  1.2629  1.5885
 1001MOL0     H35085   1.945   5.388   9.939 -0.1261 -0.6985 -0.1709
 1001MOL0     H35086   1.878   5.588  10.270  1.8225 -3.5909 -0.4978
 1001MOL0     H35087   1.935   5.964  10.199  2.4472  0.2002  1.1011
 1001MOL0     H35088   1.877   5.853  10.316  0.6313  0.6978  0.9509
 1001MOL0     H35089   2.109   5.770  10.375  0.2581 -0.3362 -0.1864
 1001MOL0     H35090   2.168   5.881  10.246  0.9231 -2.0006  0.6987
 1001MOL0     H35091   2.190   5.965  10.490 -0.4073 -2.4463  0.5123
 1001MOL0     H35092   2.020   5.992  10.487 -0.1242 -1.8506 -1.2775
 1001MOL0     H35093   2.082   6.121  10.253  2.7058  0.5470 -1.6679
 1001MOL0     H35094   2.241   6.096  10.306 -0.1091 -1.3154  1.2420
 1001MOL0     H35095   2.061   6.320  10.194 -2.0938  1.8140 -0.0473
 1001MOL0     H35096   2.056   6.564  10.115  0.7610  0.5644 -0.4797
 1001MOL0     H35097   2.458   7.028  10.245  2.0058 -1.9251  0.2370
 1001MOL0     H35098   2.538   7.207  10.068  0.4850  0.5155 -4.3297
 1001MOL0     H35099   2.565   7.122   9.654 -3.3594 -2.6041 -0.2364
 1001MOL0     H35100   2.406   7.178   9.647 -1.8857  2.7055  2.0558
 1001MOL0     H35101   2.555   7.363   9.546  0.9769  1.3634 -0.3047
 1001MOL0     H35102   2.474   7.425   9.695  0.8252  0.5281 -0.0777
 1001MOL0     H35103   2.698   7.360   9.815 -2.5175  0.8800  1.3237
 1001MOL0     H35104   2.746   7.313   9.652 -0.0919  0.5398 -0.3006
 1001MOL0     H35105   2.636   7.600   9.718 -1.4917  0.3431 -1.7945
 1001MOL0     H35106   2.721   7.557   9.575  0.4585 -2.0558  1.0295
 1001MOL0     H35107   2.921   7.490   9.685 -0.0736 -0.7690  0.1325
 1001MOL0     H35108   2.841   7.554   9.835 -0.0410 -0.9505 -0.4987
 1001MOL0     H35109   2.925   7.698   9.580 -2.1901  1.6377 -0.9733
 1001MOL0     H35110   2.839   7.785   9.696  2.1900  0.7413 -0.1517
 1001MOL0     H35111   3.103   7.762   9.701 -0.0242 -2.1287 -0.7902
 1001MOL0     H35112   3.066   7.635   9.815  2.0028  0.4276 -0.1855
 1001MOL0     H35113   2.889   7.817   9.925  0.1132  2.3309  2.6614
 1001MOL0     H35114   3.057   7.824   9.982 -2.7503 -0.1161  2.2179
 1001MOL0     H35115   2.376   6.959   9.763 -0.3780 -1.3611  1.1584
 1001MOL0     H35116   2.292   6.809   9.923 -3.3438  1.7188  0.6574
 1001MOL0     H35117   2.344   6.664  10.397  1.4118 -1.1117  2.4662
 1001MOL0     H35118   2.326   6.426  10.518 -1.2812 -2.2773  0.0960
 1001MOL0     H35119   1.454   4.506   9.523  1.2730  4.0390  1.4444
 1001MOL0     H35120   1.527   4.269   9.489 -0.2165 -4.1353  2.8943
 1001MOL0     H35121   1.635   3.800   9.676  0.4390 -0.9663  1.5697
 1001MOL0     H35122   1.735   3.599   9.594  1.4549 -0.4161 -0.8274
 1001MOL0     H35123   1.825   3.435   9.490 -2.0157  1.0041 -3.7674
 1001MOL0     H35124   1.997   3.437   9.554 -1.4480 -1.9645  2.4062
 1001MOL0     H35125   1.920   3.376   9.267 -2.6336 -1.5528  0.9583
 1001MOL0     H35126   1.950   3.244   9.379 -2.0381  0.8082  1.7647
 1001MOL0     H35127   2.195   3.333   9.399 -2.2849  1.1304  1.6402
 1001MOL0     H35128   2.136   3.463   9.298 -0.4874  0.8420  2.1350
 1001MOL0     H35129   2.082   3.268   9.134 -0.5762 -3.0705  1.4390
 1001MOL0     H35130   2.259   3.306   9.161  1.9732 -2.4040  2.6156
 1001MOL0     H35131   2.211   2.908   9.274 -3.9464  0.1198 -2.9906
 1001MOL0     H35132   1.981   3.832   9.322 -1.1170  2.7586 -1.6153
 1001MOL0     H35133   1.919   4.113   9.375  0.1634 -2.8334  1.7488
 1001MOL0     H35134   1.908   4.015   9.234  5.8219  0.4755  2.5095
 1001MOL0     H35135   1.752   4.070   9.301 -1.2107 -0.6439  0.9144
 1002MOL0     O35136   6.087   3.978   9.290  0.0922 -0.4226 -0.4752
 1002MOL0     C35137   6.115   3.863   9.326  0.4431  0.7635 -1.0183
 1002MOL0     O35138   6.056   3.803   9.433 -0.2253  0.2352 -0.6032
 1002MOL0     C35139   5.974   3.868   9.520  0.2574 -0.6434 -0.6550
 1002MOL0     C35140   5.996   4.002   9.571 -0.0873  0.6727 -1.2266
 1002MOL0     C35141   5.902   4.047   9.665 -0.7389 -0.5024  0.8748
 1002MOL0     C35142   5.796   3.974   9.716  0.1064  0.8865 -0.7043
 1002MOL0     O35143   5.690   4.021   9.787 -0.2424  0.1230 -0.4084
 1002MOL0     C35144   5.648   4.160   9.779  0.3840  0.0836  0.8876
 1002MOL0     C35145   5.566   4.190   9.652  0.5129 -0.4197  0.6170
 1002MOL0     C35146   5.417   4.159   9.658  0.4899 -0.2366 -0.1141
 1002MOL0     C35147   5.343   4.293   9.685 -0.7215  0.0135 -0.6240
 1002MOL0     C35148   5.196   4.272   9.717  0.5471  0.4967  0.9719
 1002MOL0     C35149   5.123   4.391   9.775 -0.0020  1.6142 -0.4422
 1002MOL0     C35150   4.969   4.369   9.746  0.8155 -0.8888 -0.2791
 1002MOL0     C35151   4.881   4.495   9.785  0.1201  1.0212 -0.2291
 1002MOL0     N35152   4.905   4.612   9.693  0.7180  0.2433  0.0335
 1002MOL0     C35153   4.821   4.644   9.581  0.1317  0.7839  0.1492
 1002MOL0     C35154   4.889   4.744   9.520  1.1242  1.5371  0.5409
 1002MOL0     C35155   4.863   4.820   9.387  0.5172  0.3051 -1.2620
 1002MOL0     C35156   4.753   4.764   9.293  0.6270  0.5614 -0.8981
 1002MOL0     C35157   4.730   4.849   9.161  0.0979  0.7958 -0.6162
 1002MOL0     C35158   4.612   4.793   9.087 -0.8743  0.3585  0.1165
 1002MOL0     O35159   4.656   4.672   9.018 -0.0100  0.0425  0.8219
 1002MOL0     C35160   4.622   4.661   8.880 -0.6637  0.7842  0.0837
 1002MOL0     C35161   4.488   4.676   8.840  0.7887 -0.0105 -0.4078
 1002MOL0     C35162   4.450   4.660   8.712  0.0646  0.9797  0.8512
 1002MOL0     C35163   4.549   4.628   8.612 -0.1151  0.6047 -0.2502
 1002MOL0     C35164   4.503   4.634   8.475  0.3278  0.3706  0.3684
 1002MOL0     O35165   4.375   4.651   8.453  0.7478 -0.1176  0.1535
 1002MOL0     C35166   4.314   4.636   8.331 -0.7527  0.3770  0.2919
 1002MOL0     C35167   4.252   4.741   8.247 -0.6712  0.2024 -0.8126
 1002MOL0     C35168   4.191   4.708   8.126 -0.1255 -0.0866 -0.7230
 1002MOL0     C35169   4.170   4.571   8.091 -0.1910  0.1012  0.0726
 1002MOL0     O35170   4.094   4.554   7.971  1.1403  0.0723 -0.7865
 1002MOL0     C35171   3.996   4.448   7.964 -0.2679 -0.8513  0.2849
 1002MOL0     C35172   4.017   4.373   7.832 -0.3916 -0.6768  0.1676
 1002MOL0     C35173   3.949   4.441   7.715  1.3348  1.1577 -1.5206
 1002MOL0     C35174   3.981   4.399   7.574 -0.9732  0.2972 -0.6719
 1002MOL0     C35175   3.968   4.248   7.556  0.1006  0.1252 -0.2376
 1002MOL0     C35176   3.965   4.208   7.407 -0.9274 -0.5411  0.1016
 1002MOL0     C35177   3.832   4.221   7.345 -0.3945 -0.2190 -0.2311
 1002MOL0     C35178   3.856   4.280   7.210  1.0389  0.1658 -0.9238
 1002MOL0    Cl35179   3.708   4.304   7.110 -0.7318  0.7392  0.1803
 1002MOL0     C35180   4.206   4.469   8.181 -1.6806 -0.5147  0.5660
 1002MOL0     C35181   4.295   4.506   8.296 -0.4588  0.1347  0.2274
 1002MOL0     O35182   4.589   4.603   8.388  0.3882 -0.3343  0.1730
 1002MOL0     C35183   4.684   4.608   8.652 -0.4270  0.3300 -0.2444
 1002MOL0     C35184   4.713   4.610   8.791  0.2481  0.4604  1.0969
 1002MOL0     N35185   5.008   4.757   9.591  0.0103 -0.3124 -0.0467
 1002MOL0     N35186   5.010   4.687   9.696  0.7288  0.1274 -0.0076
 1002MOL0     C35187   5.786   3.857   9.660  0.4747 -0.8817  0.1329
 1002MOL0     C35188   5.873   3.792   9.573  0.5295 -0.0723  0.5437
 1002MOL0     C35189   6.202   3.776   9.241  0.1310 -0.5113  0.2930
 1002MOL0     C35190   6.217   3.644   9.288  0.2049  0.2260 -0.4165
 1002MOL0     C35191   6.290   3.549   9.218 -0.8927  0.1735 -0.2011
 1002MOL0     C35192   6.335   3.577   9.095 -0.6339 -0.6705 -0.4820
 1002MOL0     O35193   6.396   3.479   9.023 -0.3002 -0.0915  0.2844
 1002MOL0     C35194   6.485   3.512   8.917  0.1898 -0.5307  0.2888
 1002MOL0     C35195   6.570   3.397   8.869  1.0112  0.1627  0.5680
 1002MOL0     C35196   6.626   3.406   8.725 -0.7238 -0.2885 -0.5630
 1002MOL0     C35197   6.779   3.377   8.711 -0.1549 -1.3912  0.1262
 1002MOL0     C35198   6.847   3.501   8.739 -0.7915 -0.3676  0.0000
 1002MOL0     C35199   6.874   3.612   8.775 -0.2532  0.5146 -1.1840
 1002MOL0     C35200   6.311   3.702   9.037 -0.2302 -0.0344 -0.5014
 1002MOL0     C35201   6.244   3.800   9.105  0.2029 -0.1752 -0.0480
 1002MOL0     C35202   6.233   3.923   9.038  0.0622 -0.0682  0.2644
 1002MOL0     H35203   6.071   4.070   9.532 -1.5428  2.1900 -1.4684
 1002MOL0     H35204   5.930   4.149   9.693  5.6158 -1.4502 -0.4517
 1002MOL0     H35205   5.589   4.199   9.862  0.2517 -2.5358  2.1362
 1002MOL0     H35206   5.744   4.210   9.796 -0.0600  1.6290 -0.8317
 1002MOL0     H35207   5.604   4.131   9.568  2.9408  2.6124 -0.6278
 1002MOL0     H35208   5.595   4.293   9.630  2.0063  0.1019  4.3447
 1002MOL0     H35209   5.381   4.084   9.729  0.0611  0.5199  0.4754
 1002MOL0     H35210   5.397   4.123   9.556 -3.1916 -0.8262  0.6809
 1002MOL0     H35211   5.393   4.336   9.772 -0.1923 -0.4177 -0.7086
 1002MOL0     H35212   5.357   4.370   9.608  2.1877  0.6027  0.3688
 1002MOL0     H35213   5.155   4.238   9.621  1.0007 -2.6811  1.7734
 1002MOL0     H35214   5.186   4.187   9.786  2.0903 -1.9799 -1.6301
 1002MOL0     H35215   5.142   4.404   9.882 -0.4634  0.6129 -0.2283
 1002MOL0     H35216   5.152   4.489   9.736 -0.2587  1.3174 -1.3909
 1002MOL0     H35217   4.945   4.287   9.813 -3.4270 -0.0858 -0.5130
 1002MOL0     H35218   4.951   4.332   9.645  3.0368  2.5135 -2.1448
 1002MOL0     H35219   4.774   4.474   9.778 -0.1577  1.9902  0.8166
 1002MOL0     H35220   4.895   4.519   9.891  0.8175 -3.5268  0.9105
 1002MOL0     H35221   4.735   4.594   9.536 -0.9736  3.1745 -0.5481
 1002MOL0     H35222   4.841   4.923   9.417 -1.0182 -0.0547 -1.0705
 1002MOL0     H35223   4.961   4.823   9.340  0.8990  0.2729 -0.4780
 1002MOL0     H35224   4.774   4.659   9.270 -3.0527 -0.2656 -1.1152
 1002MOL0     H35225   4.656   4.764   9.344  1.2192 -1.5662  0.3573
 1002MOL0     H35226   4.815   4.850   9.093  0.2106  0.3664 -0.4832
 1002MOL0     H35227   4.714   4.952   9.195  0.7752  0.4886  0.6867
 1002MOL0     H35228   4.563   4.870   9.025 -4.7445 -0.5913  1.7047
 1002MOL0     H35229   4.536   4.773   9.163 -0.2190 -0.4011  0.5783
 1002MOL0     H35230   4.406   4.697   8.907 -1.0644  0.2734 -2.6505
 1002MOL0     H35231   4.350   4.669   8.670  0.4513  6.2836  0.3391
 1002MOL0     H35232   4.258   4.843   8.282  0.6964 -0.5544  1.3756
 1002MOL0     H35233   4.159   4.788   8.059 -0.7220  2.3175  2.1788
 1002MOL0     H35234   3.995   4.385   8.054 -2.6889  0.4847  1.3006
 1002MOL0     H35235   3.899   4.497   7.955  0.5338  0.5247 -1.5330
 1002MOL0     H35236   4.124   4.371   7.811 -0.6101  2.5432 -2.0479
 1002MOL0     H35237   3.968   4.276   7.845 -0.3397 -0.7532 -0.2007
 1002MOL0     H35238   3.842   4.434   7.740  1.2959 -0.8785 -2.1133
 1002MOL0     H35239   3.965   4.548   7.731  1.8753  0.7142  1.4760
 1002MOL0     H35240   4.084   4.429   7.554 -0.6299  2.3413  3.2126
 1002MOL0     H35241   3.914   4.444   7.500  0.5321 -1.3880 -3.1928
 1002MOL0     H35242   3.889   4.198   7.611  0.8419  0.0459  0.7795
 1002MOL0     H35243   4.052   4.199   7.607 -0.0304  2.0259  1.9529
 1002MOL0     H35244   4.037   4.274   7.359 -2.3392  0.9868 -0.0115
 1002MOL0     H35245   3.991   4.102   7.395 -0.0533 -0.4354  0.9347
 1002MOL0     H35246   3.772   4.290   7.406  2.1535  1.5145  0.5357
 1002MOL0     H35247   3.779   4.127   7.356 -2.2476  0.7860 -0.1410
 1002MOL0     H35248   3.905   4.376   7.230 -1.7963  1.3439  1.0745
 1002MOL0     H35249   3.919   4.220   7.144  2.2607  0.4714 -0.0607
 1002MOL0     H35250   4.191   4.363   8.163  1.0494 -0.9812  0.6811
 1002MOL0     H35251   4.336   4.420   8.349 -1.4900 -1.1701 -0.9902
 1002MOL0     H35252   4.762   4.580   8.582  0.6494 -0.6980  1.3029
 1002MOL0     H35253   4.812   4.591   8.833  1.5033  2.2358 -0.8393
 1002MOL0     H35254   5.692   3.805   9.676  0.9310 -2.0869 -0.9509
 1002MOL0     H35255   5.851   3.687   9.553 -0.1348  0.0682  0.5180
 1002MOL0     H35256   6.193   3.605   9.386 -0.6362  1.7192 -0.0002
 1002MOL0     H35257   6.299   3.449   9.260  1.5278 -0.2610 -1.5868
 1002MOL0     H35258   6.551   3.596   8.941 -0.8469  1.1321 -2.2613
 1002MOL0     H35259   6.429   3.549   8.831  1.9469 -0.5345 -0.9247
 1002MOL0     H35260   6.500   3.313   8.869  1.0003  0.1160 -1.5527
 1002MOL0     H35261   6.652   3.388   8.941 -0.7520 -0.7587  2.5687
 1002MOL0     H35262   6.593   3.492   8.666  2.7814 -0.4235 -3.0413
 1002MOL0     H35263   6.574   3.326   8.672 -2.0523  1.7116 -2.4634
 1002MOL0     H35264   6.822   3.300   8.776  2.3085 -0.4053 -0.2290
 1002MOL0     H35265   6.797   3.356   8.605 -0.2065  1.8472 -0.6362
 1002MOL0     H35266   6.884   3.713   8.809 -0.0542 -0.4018  1.7744
 1002MOL0     H35267   6.351   3.724   8.939 -1.8978  2.3614 -0.7345
 1002MOL0     H35268   6.132   3.945   9.002 -0.8625 -3.3938  0.4306
 1002MOL0     H35269   6.250   4.005   9.108  0.8450  1.6191 -1.8099
 1002MOL0     H35270   6.308   3.941   8.960 -1.0872  4.3187 -0.1000
 1003MOL0     O35271   7.981   9.044  10.723  0.7401 -0.7188  1.0735
 1003MOL0     C35272   8.026   9.155  10.675  1.4828  1.1630 -0.0977
 1003MOL0     O35273   7.963   9.276  10.697 -0.5533 -0.2641  0.0562
 1003MOL0     C35274   7.863   9.276  10.784  0.3037  0.1847  0.4186
 1003MOL0     C35275   7.889   9.285  10.923 -0.4217  0.0137 -0.6001
 1003MOL0     C35276   7.784   9.292  11.023 -0.6400 -0.1588 -0.1715
 1003MOL0     C35277   7.653   9.285  10.975  0.1603 -0.0088  0.5171
 1003MOL0     O35278   7.557   9.312  11.075  0.2882 -0.1207  0.1861
 1003MOL0     C35279   7.436   9.376  11.033  0.2917  0.2499  0.2231
 1003MOL0     C35280   7.335   9.416  11.135 -0.2937 -0.0285 -1.3502
 1003MOL0     C35281   7.379   9.538  11.231 -0.6577  0.1968  0.3868
 1003MOL0     C35282   7.282   9.537  11.347 -0.1201 -1.3722 -0.2284
 1003MOL0     C35283   7.137   9.582  11.318  0.7223  0.4801 -0.8748
 1003MOL0     C35284   7.116   9.727  11.371 -0.0366 -0.0836 -0.6539
 1003MOL0     C35285   6.980   9.792  11.383  0.9269  0.3131 -0.8184
 1003MOL0     C35286   6.916   9.760  11.517  0.5258  0.9720 -0.2898
 1003MOL0     N35287   6.957   9.856  11.625 -0.1056  0.6412 -0.5011
 1003MOL0     C35288   6.908   9.865  11.755  0.1844 -1.0936 -0.4920
 1003MOL0     C35289   7.001   9.943  11.830 -0.3106 -0.6615  0.8688
 1003MOL0     C35290   7.014   9.988  11.969 -0.3575  1.3385  0.3086
 1003MOL0     C35291   7.006   9.868  12.065  0.3770  0.8643 -0.9437
 1003MOL0     C35292   6.922   9.900  12.188  0.0505  0.2640 -0.0483
 1003MOL0     C35293   6.771   9.880  12.186 -0.1771  1.5157 -0.2180
 1003MOL0     O35294   6.715   9.923  12.056 -0.2803 -1.0956  0.4513
 1003MOL0     C35295   6.581   9.970  12.058 -0.1142  0.1097  0.1248
 1003MOL0     C35296   6.555  10.076  11.979  0.2038 -0.1407  0.0202
 1003MOL0     C35297   6.432  10.139  11.986  0.2093  0.0171  1.4374
 1003MOL0     C35298   6.331  10.069  12.062  0.4978  0.2359  0.5385
 1003MOL0     C35299   6.193  10.115  12.069 -0.0953  0.3368  0.2641
 1003MOL0     O35300   6.164  10.243  12.010 -0.1940 -0.1493  0.0909
 1003MOL0     C35301   6.032  10.290  12.001 -0.0699 -0.0627 -0.8206
 1003MOL0     C35302   5.992  10.420  12.026 -0.1914 -0.6175  0.8565
 1003MOL0     C35303   5.848  10.447  12.048  0.9843 -0.3229 -0.7331
 1003MOL0     C35304   5.758  10.347  12.011 -0.4995  0.4007  1.3436
 1003MOL0     O35305   5.628  10.377  11.996 -0.3352  0.0453  0.6561
 1003MOL0     C35306   5.551  10.387  12.115  0.4299 -0.2784 -0.7194
 1003MOL0     C35307   5.499  10.527  12.144 -0.0788 -0.0945  0.2154
 1003MOL0     C35308   5.413  10.588  12.035  0.1530  0.0986 -0.6213
 1003MOL0     C35309   5.281  10.521  12.021 -0.3862  0.1595  0.2226
 1003MOL0     C35310   5.182  10.615  11.958  0.0610 -0.0394 -0.0462
 1003MOL0     C35311   5.045  10.542  11.917  0.6256 -1.0213  0.9855
 1003MOL0     C35312   4.955  10.636  11.837  0.0523  0.7836 -0.2802
 1003MOL0     C35313   4.836  10.582  11.755  0.0472  0.5236 -0.7463
 1003MOL0    Cl35314   4.731  10.485  11.858  0.8015  0.2673 -0.7782
 1003MOL0     C35315   5.798  10.221  11.970 -0.4718  0.4827  0.1239
 1003MOL0     C35316   5.936  10.188  11.971 -0.3050 -0.5784 -0.2647
 1003MOL0     O35317   6.112  10.040  12.115 -0.1224 -0.2219  0.4923
 1003MOL0     C35318   6.357   9.951  12.127  0.6486 -0.3097  0.2085
 1003MOL0     C35319   6.490   9.907  12.129 -0.0461 -0.5530  1.0292
 1003MOL0     N35320   7.104   9.974  11.740 -0.3540 -0.5569  0.2279
 1003MOL0     N35321   7.076   9.927  11.621  0.4077 -0.4559  0.1190
 1003MOL0     C35322   7.629   9.269  10.836  0.4025 -0.2892  0.3079
 1003MOL0     C35323   7.734   9.265  10.742  0.3615 -0.1122  0.3972
 1003MOL0     C35324   8.153   9.143  10.602 -1.0165 -0.6090 -0.9213
 1003MOL0     C35325   8.195   9.015  10.564 -0.8990 -0.9889 -0.7093
 1003MOL0     C35326   8.319   8.989  10.521  0.7915  0.1477  0.5480
 1003MOL0     C35327   8.406   9.095  10.495 -0.1238 -0.9390  0.5557
 1003MOL0     O35328   8.533   9.074  10.454 -0.2183 -0.2633 -0.5826
 1003MOL0     C35329   8.635   9.133  10.545 -0.3437 -0.0110  0.6411
 1003MOL0     C35330   8.769   9.060  10.530  0.0193  0.0947 -0.3571
 1003MOL0     C35331   8.779   8.918  10.587  0.1418  0.4243  0.2604
 1003MOL0     C35332   8.690   8.823  10.505 -0.4131  0.8196 -0.6685
 1003MOL0     C35333   8.696   8.685  10.562  0.1694  0.1659  0.6312
 1003MOL0     C35334   8.723   8.573  10.608  1.0073  0.3904 -0.2060
 1003MOL0     C35335   8.357   9.227  10.515 -0.3995 -0.4581 -0.4977
 1003MOL0     C35336   8.229   9.259  10.577  0.3964  0.3628  0.4411
 1003MOL0     C35337   8.200   9.398  10.629  0.7490  0.4472 -1.2197
 1003MOL0     H35338   7.991   9.292  10.959  0.7303 -1.8213 -3.1682
 1003MOL0     H35339   7.811   9.326  11.122  0.3780 -1.8146  0.1563
 1003MOL0     H35340   7.454   9.457  10.961 -1.4125 -0.2948 -0.8601
 1003MOL0     H35341   7.385   9.297  10.977 -1.3062 -0.7373  2.9114
 1003MOL0     H35342   7.318   9.332  11.202 -1.0103 -0.7507 -2.4040
 1003MOL0     H35343   7.238   9.436  11.089 -0.3183  1.7573 -0.5986
 1003MOL0     H35344   7.362   9.626  11.169 -0.5710  1.7036  2.3863
 1003MOL0     H35345   7.483   9.528  11.265 -0.7541 -4.5868 -0.0068
 1003MOL0     H35346   7.266   9.436  11.386 -2.5701 -0.1846  2.1786
 1003MOL0     H35347   7.335   9.603  11.417  0.6510 -0.5087 -1.5892
 1003MOL0     H35348   7.103   9.574  11.214  3.1418  5.4207 -2.3545
 1003MOL0     H35349   7.076   9.522  11.386  0.2985  1.4825 -0.3502
 1003MOL0     H35350   7.164   9.728  11.470  0.7114 -2.9114 -0.8999
 1003MOL0     H35351   7.170   9.807  11.320  0.4013  1.5467  2.1640
 1003MOL0     H35352   6.923   9.759  11.295 -1.8185 -1.7961  1.5451
 1003MOL0     H35353   6.994   9.899  11.370  0.5515  0.3532 -0.9242
 1003MOL0     H35354   6.808   9.754  11.500  0.7910 -1.2633 -1.5690
 1003MOL0     H35355   6.957   9.665  11.552 -0.6719  0.7715  0.6348
 1003MOL0     H35356   6.809   9.837  11.790 -0.2853 -0.0092 -0.8979
 1003MOL0     H35357   7.113  10.027  11.994 -0.7934  1.8613  1.2923
 1003MOL0     H35358   6.928  10.054  11.987 -1.5641 -0.0591 -0.1364
 1003MOL0     H35359   6.966   9.776  12.023  0.9128 -0.4399  1.2784
 1003MOL0     H35360   7.103   9.836  12.105 -0.6487  0.0819  1.0209
 1003MOL0     H35361   6.958   9.998  12.221 -4.5129  2.1076  0.2039
 1003MOL0     H35362   6.950   9.831  12.268 -0.7701 -0.2560 -0.2052
 1003MOL0     H35363   6.728   9.937  12.268  1.7044  0.6485  1.4686
 1003MOL0     H35364   6.736   9.780  12.213 -3.0943  2.2407 -0.9935
 1003MOL0     H35365   6.633  10.122  11.918  1.2972 -2.9444 -0.8405
 1003MOL0     H35366   6.413  10.224  11.921  1.6938 -1.1414 -0.6532
 1003MOL0     H35367   6.068  10.496  12.029 -1.5407  1.0144 -2.0338
 1003MOL0     H35368   5.811  10.546  12.072  1.6354 -0.4386  0.8639
 1003MOL0     H35369   5.464  10.322  12.105  1.4382 -1.8421  0.2302
 1003MOL0     H35370   5.613  10.365  12.202  2.3330 -3.2253 -2.6227
 1003MOL0     H35371   5.433  10.526  12.231  0.9354  2.1918  1.0972
 1003MOL0     H35372   5.579  10.599  12.164  2.1196 -1.7543 -2.0439
 1003MOL0     H35373   5.396  10.690  12.071  0.4765  0.1078 -0.4895
 1003MOL0     H35374   5.472  10.577  11.943  1.5448  0.0642  0.2464
 1003MOL0     H35375   5.234  10.495  12.116 -1.2877  0.1021 -0.2297
 1003MOL0     H35376   5.294  10.430  11.962 -1.4899 -0.7600  1.3273
 1003MOL0     H35377   5.231  10.645  11.865 -1.2556  0.2975 -0.6479
 1003MOL0     H35378   5.156  10.703  12.017  2.2676  0.5257  0.1615
 1003MOL0     H35379   5.055  10.449  11.861  2.1154 -1.2638  1.6214
 1003MOL0     H35380   4.991  10.521  12.010  1.3823 -1.2232  1.3837
 1003MOL0     H35381   5.026  10.684  11.769 -0.5950 -1.2878 -2.5741
 1003MOL0     H35382   4.913  10.709  11.907  0.3658 -0.3727  1.1642
 1003MOL0     H35383   4.780  10.659  11.702  0.3784  2.0129  0.9665
 1003MOL0     H35384   4.887  10.527  11.675  0.7651  1.7313 -1.1467
 1003MOL0     H35385   5.732  10.137  11.947 -0.2402  0.1959  0.4978
 1003MOL0     H35386   5.971  10.089  11.943  2.8394 -0.7945  3.5280
 1003MOL0     H35387   6.292   9.907  12.202 -0.6547  0.3409 -0.5138
 1003MOL0     H35388   6.524   9.813  12.171  1.0226 -1.4809 -1.6920
 1003MOL0     H35389   7.529   9.279  10.796 -0.1143 -1.9577  1.0848
 1003MOL0     H35390   7.709   9.256  10.637  0.3464  0.8631  0.3085
 1003MOL0     H35391   8.132   8.933  10.596  2.3227 -2.9548  1.1897
 1003MOL0     H35392   8.346   8.886  10.501 -2.3614 -0.5412 -0.6987
 1003MOL0     H35393   8.598   9.122  10.647  0.4565 -1.0954  0.8235
 1003MOL0     H35394   8.648   9.240  10.525  0.9029  0.0202  1.5212
 1003MOL0     H35395   8.836   9.118  10.593 -1.8166 -0.2447  2.0199
 1003MOL0     H35396   8.797   9.064  10.424  1.0506 -1.0656 -0.1534
 1003MOL0     H35397   8.770   8.910  10.696 -0.4041  1.6791  0.3286
 1003MOL0     H35398   8.884   8.893  10.571  0.6491  3.1632 -1.4382
 1003MOL0     H35399   8.583   8.847  10.499 -0.1641  1.9839 -0.7867
 1003MOL0     H35400   8.721   8.825  10.400 -0.3862  1.4146 -0.6534
 1003MOL0     H35401   8.751   8.474  10.637  2.9142  1.1673  0.7816
 1003MOL0     H35402   8.428   9.306  10.494  0.5793 -0.8144  1.2860
 1003MOL0     H35403   8.185   9.395  10.738 -3.1382 -0.2867 -1.6399
 1003MOL0     H35404   8.269   9.476  10.595  1.1765  0.4667 -0.3249
 1003MOL0     H35405   8.099   9.420  10.593 -0.1733 -0.9176  0.3855
 1004MOL0     O35406   8.274   5.938  11.458 -0.1820 -0.0779 -0.1257
 1004MOL0     C35407   8.385   5.943  11.509 -1.0573 -0.4381  0.0976
 1004MOL0     O35408   8.495   6.005  11.457  0.5769  1.1125 -0.2678
 1004MOL0     C35409   8.479   6.027  11.321 -0.7861 -0.0544 -0.3534
 1004MOL0     C35410   8.550   5.950  11.230  0.5307 -0.0300  0.2901
 1004MOL0     C35411   8.567   6.002  11.105  0.3457 -0.1054  0.3720
 1004MOL0     C35412   8.520   6.121  11.060 -0.2157  0.7616 -0.5085
 1004MOL0     O35413   8.565   6.170  10.936 -0.8386  0.4604  0.4834
 1004MOL0     C35414   8.473   6.251  10.871 -0.1571 -0.0351  0.0377
 1004MOL0     C35415   8.529   6.298  10.738 -0.0313  0.7060  0.2590
 1004MOL0     C35416   8.627   6.418  10.742  0.3035  1.5046  0.9168
 1004MOL0     C35417   8.657   6.464  10.592  0.6789 -0.4569 -0.0861
 1004MOL0     C35418   8.773   6.566  10.589 -0.2965 -0.6187 -0.6343
 1004MOL0     C35419   8.903   6.505  10.656 -0.2919  0.2022  0.0541
 1004MOL0     C35420   9.027   6.599  10.622  0.1668  0.5153 -1.4541
 1004MOL0     C35421   9.158   6.552  10.699  0.0021  0.6342 -0.1940
 1004MOL0     N35422   9.209   6.424  10.663  0.5108 -0.0581  0.2183
 1004MOL0     C35423   9.268   6.398  10.546  0.0524  0.0008 -0.3767
 1004MOL0     C35424   9.307   6.273  10.563  0.3933  0.1647 -0.2982
 1004MOL0     C35425   9.394   6.211  10.465  0.8614 -0.4247 -0.0994
 1004MOL0     C35426   9.527   6.282  10.459 -0.2415 -0.0835 -0.1656
 1004MOL0     C35427   9.573   6.258  10.316 -1.1442 -0.0029 -0.2376
 1004MOL0     C35428   9.716   6.304  10.287  0.3442 -0.7808  1.0184
 1004MOL0     O35429   9.754   6.242  10.166 -0.1344 -0.0021 -0.0395
 1004MOL0     C35430   9.885   6.246  10.124  0.1749 -0.1805 -0.6436
 1004MOL0     C35431   9.985   6.326  10.185 -0.4954 -0.7559 -0.6407
 1004MOL0     C35432  10.120   6.292  10.155 -0.4131 -0.6323 -0.1128
 1004MOL0     C35433  10.160   6.209  10.051  0.6364 -0.1357 -0.5246
 1004MOL0     C35434  10.299   6.208  10.008  0.5394  0.1777 -1.0300
 1004MOL0     O35435  10.333   6.101   9.922 -0.1751 -1.6671  0.4113
 1004MOL0     C35436  10.458   6.104   9.877 -0.2747 -0.8364  1.1592
 1004MOL0     C35437  10.480   6.156   9.747  0.2400  0.0795  0.5711
 1004MOL0     C35438  10.603   6.132   9.672  0.0207  0.4576  1.1176
 1004MOL0     C35439  10.710   6.070   9.735 -0.2864 -0.3173 -0.4829
 1004MOL0     O35440  10.827   6.048   9.670  0.2881 -0.2836 -0.5674
 1004MOL0     C35441  10.942   6.026   9.749  1.4331 -0.2681 -0.9700
 1004MOL0     C35442  11.052   6.015   9.647 -0.0297 -0.1233 -0.6021
 1004MOL0     C35443  11.190   5.967   9.708  0.1945  0.3927 -0.3412
 1004MOL0     C35444  11.270   5.899   9.598  0.5669  0.6205 -0.3736
 1004MOL0     C35445  11.405   5.869   9.656 -0.2467  0.5538 -0.9781
 1004MOL0     C35446  11.489   5.977   9.709  0.4928 -0.1538 -0.8863
 1004MOL0     C35447  11.631   5.926   9.765 -0.1514 -0.2693  0.7726
 1004MOL0     C35448  11.723   6.049   9.798  0.4585  0.3351 -0.1640
 1004MOL0    Cl35449  11.884   5.995   9.861 -0.5619 -0.0492  0.1994
 1004MOL0     C35450  10.689   6.028   9.863  0.7675  0.5054 -0.6537
 1004MOL0     C35451  10.562   6.026   9.925  0.7495 -1.1904  0.3914
 1004MOL0     O35452  10.373   6.292  10.050  0.6332 -0.6070  0.3757
 1004MOL0     C35453  10.058   6.143   9.989 -0.0582  0.1292  0.1499
 1004MOL0     C35454   9.926   6.163  10.015  1.2596 -0.2757 -0.1383
 1004MOL0     N35455   9.257   6.209  10.672  0.0339 -0.0660  0.1156
 1004MOL0     N35456   9.192   6.304  10.735  0.5213 -0.1285 -0.3655
 1004MOL0     C35457   8.451   6.196  11.152 -0.2132 -0.0831 -0.5846
 1004MOL0     C35458   8.435   6.155  11.280  0.6587 -0.2709 -0.8263
 1004MOL0     C35459   8.414   5.892  11.642 -0.7256  1.0726 -1.5782
 1004MOL0     C35460   8.375   5.762  11.680  0.7794  0.0389  0.6462
 1004MOL0     C35461   8.390   5.714  11.809 -0.5925 -0.2529 -0.7276
 1004MOL0     C35462   8.452   5.792  11.910  0.2508  0.3312  0.8292
 1004MOL0     O35463   8.460   5.746  12.039  0.0758 -0.3435 -0.4509
 1004MOL0     C35464   8.531   5.816  12.147  0.7104 -0.0389 -0.5007
 1004MOL0     C35465   8.506   5.746  12.284 -0.4446  0.6852  0.3878
 1004MOL0     C35466   8.398   5.823  12.346  0.2187 -1.2608  0.2551
 1004MOL0     C35467   8.353   5.765  12.481 -0.1937 -0.0127 -0.0422
 1004MOL0     C35468   8.444   5.809  12.586  0.0232 -0.1523 -0.0883
 1004MOL0     C35469   8.505   5.830  12.688 -0.2660 -0.1149  1.0697
 1004MOL0     C35470   8.497   5.926  11.865  0.0724  0.0785 -0.8179
 1004MOL0     C35471   8.470   5.977  11.744  0.1015  1.0717  0.6229
 1004MOL0     C35472   8.508   6.120  11.721 -0.0782 -0.9266 -0.0148
 1004MOL0     H35473   8.600   5.859  11.262  2.3423  0.7890 -0.0598
 1004MOL0     H35474   8.629   5.946  11.037 -1.9719 -0.1512 -1.8651
 1004MOL0     H35475   8.377   6.199  10.862 -0.7520  1.2304 -1.4925
 1004MOL0     H35476   8.447   6.344  10.923 -1.0441 -0.3331  0.1471
 1004MOL0     H35477   8.436   6.324  10.687 -0.4445  0.2211  0.7466
 1004MOL0     H35478   8.568   6.208  10.690  1.7698  0.4034  2.1232
 1004MOL0     H35479   8.716   6.367  10.780  1.9667  1.0611 -3.0664
 1004MOL0     H35480   8.581   6.493  10.807 -0.8466  1.7213 -0.1360
 1004MOL0     H35481   8.682   6.376  10.533 -1.7644 -0.8267 -0.7011
 1004MOL0     H35482   8.560   6.495  10.551 -1.2750  0.4686  4.5657
 1004MOL0     H35483   8.792   6.598  10.486  0.7215  0.3982 -0.1466
 1004MOL0     H35484   8.745   6.658  10.640  1.6946 -1.0835  1.4806
 1004MOL0     H35485   8.897   6.494  10.764  1.2152 -0.8871  0.0570
 1004MOL0     H35486   8.928   6.411  10.606  0.9329  1.2958 -1.5150
 1004MOL0     H35487   8.996   6.696  10.659  3.5936  0.6441  1.5566
 1004MOL0     H35488   9.052   6.598  10.515  0.6520 -0.7236 -1.3560
 1004MOL0     H35489   9.242   6.622  10.697  0.5221  0.0183 -1.8400
 1004MOL0     H35490   9.118   6.535  10.799 -0.0500  0.7029 -0.2035
 1004MOL0     H35491   9.284   6.466  10.463 -1.1974  2.2636  1.1615
 1004MOL0     H35492   9.415   6.110  10.502  1.2865  0.5719  2.6038
 1004MOL0     H35493   9.344   6.191  10.369  0.2025 -0.0005  0.1460
 1004MOL0     H35494   9.518   6.391  10.466  1.7087  0.0549  1.5368
 1004MOL0     H35495   9.608   6.258  10.529  1.7004 -0.0039 -2.2702
 1004MOL0     H35496   9.505   6.305  10.245 -1.9745 -1.0860 -0.1911
 1004MOL0     H35497   9.581   6.151  10.293  2.6687  0.2203 -0.6406
 1004MOL0     H35498   9.785   6.282  10.369  3.3028  2.3011 -0.3976
 1004MOL0     H35499   9.718   6.412  10.272 -0.0553 -0.6983  1.5272
 1004MOL0     H35500   9.967   6.389  10.271  0.4564 -1.0361 -0.2197
 1004MOL0     H35501  10.193   6.332  10.226 -1.6194 -2.5263  2.3386
 1004MOL0     H35502  10.410   6.227   9.705  1.2638  0.1822 -1.0639
 1004MOL0     H35503  10.631   6.185   9.581 -2.2425  2.7322  1.6229
 1004MOL0     H35504  10.963   6.117   9.806  1.2591  2.4817 -4.8413
 1004MOL0     H35505  10.930   5.932   9.802  0.6363 -1.3687 -2.9939
 1004MOL0     H35506  11.016   5.951   9.566  0.0129  0.9001 -1.4549
 1004MOL0     H35507  11.070   6.114   9.605 -0.8135 -0.2777 -1.3190
 1004MOL0     H35508  11.246   6.033   9.775  3.2091 -1.4968 -0.7903
 1004MOL0     H35509  11.160   5.893   9.783  1.3474 -1.6904 -1.8356
 1004MOL0     H35510  11.287   5.977   9.524  1.3964  1.7706  0.9581
 1004MOL0     H35511  11.213   5.815   9.559 -1.2496  1.9576 -0.7116
 1004MOL0     H35512  11.470   5.812   9.589 -1.5425 -0.5848 -1.2969
 1004MOL0     H35513  11.386   5.800   9.738  2.5841 -2.4187 -2.5866
 1004MOL0     H35514  11.507   6.058   9.637 -0.4474  1.4020  0.5590
 1004MOL0     H35515  11.441   6.020   9.797  0.4861 -0.2855 -0.8254
 1004MOL0     H35516  11.680   5.853   9.701 -2.8204 -0.1173 -1.6699
 1004MOL0     H35517  11.606   5.872   9.857 -0.7038 -1.4574 -0.0651
 1004MOL0     H35518  11.737   6.100   9.702 -0.5890 -0.4775 -0.7824
 1004MOL0     H35519  11.672   6.108   9.875  0.7624  0.0125  0.2863
 1004MOL0     H35520  10.766   5.981   9.923  0.4004 -0.6417 -1.0481
 1004MOL0     H35521  10.560   5.971  10.019 -0.4897 -2.8993 -0.5617
 1004MOL0     H35522  10.086   6.075   9.910 -0.9568 -0.1017  0.0194
 1004MOL0     H35523   9.846   6.113   9.962  0.8666 -1.9665  1.9114
 1004MOL0     H35524   8.422   6.298  11.128  2.6368  0.8928 -0.3083
 1004MOL0     H35525   8.389   6.223  11.351  2.5730  0.7161 -0.4723
 1004MOL0     H35526   8.332   5.704  11.599  2.1173 -1.5153  0.9992
 1004MOL0     H35527   8.370   5.609  11.825  4.3797 -1.7427 -2.4087
 1004MOL0     H35528   8.501   5.921  12.152  3.6485  0.9212 -1.0329
 1004MOL0     H35529   8.636   5.839  12.131  0.4493  1.9952  0.3322
 1004MOL0     H35530   8.592   5.741  12.352 -1.3714  2.8265  1.8172
 1004MOL0     H35531   8.471   5.643  12.274 -0.1488  0.6671 -0.5000
 1004MOL0     H35532   8.306   5.811  12.288 -0.8078 -1.2099  1.8041
 1004MOL0     H35533   8.439   5.923  12.356 -0.0575 -0.8070 -2.5053
 1004MOL0     H35534   8.259   5.819  12.495  0.9648  3.5099 -3.9316
 1004MOL0     H35535   8.349   5.656  12.493 -0.3779  0.1148  1.2110
 1004MOL0     H35536   8.544   5.857  12.784 -2.0387  2.4580  1.1940
 1004MOL0     H35537   8.561   5.989  11.925  4.0295 -0.9181 -3.6039
 1004MOL0     H35538   8.517   6.179  11.812 -1.2976  0.0889 -0.5256
 1004MOL0     H35539   8.605   6.118  11.671  0.5503  1.1504  1.0398
 1004MOL0     H35540   8.433   6.174  11.664 -1.2387 -0.1766  2.1121
 1005MOL0     O35541   5.759   7.658   3.013  0.1646  0.3262 -0.1686
 1005MOL0     C35542   5.836   7.626   2.921 -0.5834 -0.6013  0.0100
 1005MOL0     O35543   5.852   7.716   2.821  0.5834 -0.2609  0.6685
 1005MOL0     C35544   5.818   7.847   2.857  0.2675 -0.5896 -0.4295
 1005MOL0     C35545   5.906   7.935   2.915 -0.1450  0.0938 -1.0400
 1005MOL0     C35546   5.881   8.081   2.926 -0.6777 -0.2822 -0.6363
 1005MOL0     C35547   5.754   8.119   2.897  1.2593  0.8757  0.2749
 1005MOL0     O35548   5.719   8.255   2.908  0.0509 -0.1763 -0.0859
 1005MOL0     C35549   5.596   8.307   2.970  0.2196 -0.2570  0.3394
 1005MOL0     C35550   5.621   8.446   3.029  0.4680 -0.7540  0.2973
 1005MOL0     C35551   5.739   8.458   3.118  0.0111 -0.3185 -0.5786
 1005MOL0     C35552   5.733   8.567   3.228 -0.1164  1.4757  0.2062
 1005MOL0     C35553   5.876   8.599   3.282  1.3119 -0.4367  0.9285
 1005MOL0     C35554   5.869   8.709   3.385 -0.1179 -0.0987  0.0229
 1005MOL0     C35555   6.009   8.724   3.438  0.5614 -0.0068  0.1518
 1005MOL0     C35556   6.019   8.856   3.517 -1.3684  0.1049 -0.5892
 1005MOL0     N35557   5.951   8.860   3.648 -0.1877 -0.7029 -0.4349
 1005MOL0     C35558   5.931   8.761   3.747 -0.1484 -0.2566  0.3133
 1005MOL0     C35559   5.864   8.819   3.849  0.0503 -0.4625 -1.2316
 1005MOL0     C35560   5.851   8.742   3.981  0.3599 -0.0527 -0.0725
 1005MOL0     C35561   5.757   8.627   3.952  0.8764  0.5803 -1.1297
 1005MOL0     C35562   5.719   8.553   4.089  0.0344 -0.0965  0.2975
 1005MOL0     C35563   5.616   8.442   4.047 -0.5296  0.4175 -0.3244
 1005MOL0     O35564   5.492   8.489   4.004 -0.2626 -0.4887 -0.0398
 1005MOL0     C35565   5.405   8.526   4.101  0.1622 -0.8760 -0.3674
 1005MOL0     C35566   5.426   8.534   4.243 -0.6460  0.1053 -0.3133
 1005MOL0     C35567   5.334   8.589   4.322  0.1484 -0.8344 -0.6807
 1005MOL0     C35568   5.212   8.657   4.277 -0.9456 -0.5710 -1.8182
 1005MOL0     C35569   5.119   8.721   4.371 -0.3303  0.5622 -0.4589
 1005MOL0     O35570   5.036   8.805   4.312  0.1436 -0.0786 -0.1050
 1005MOL0     C35571   4.969   8.904   4.388  0.8802 -0.0226  0.1553
 1005MOL0     C35572   5.025   8.977   4.491 -0.3774  0.4950 -0.0109
 1005MOL0     C35573   4.977   9.105   4.518  0.6843 -0.4071 -0.1642
 1005MOL0     C35574   4.861   9.152   4.447  0.3749 -0.3898 -1.3399
 1005MOL0     O35575   4.821   9.290   4.461  1.1161 -0.4253 -0.4572
 1005MOL0     C35576   4.698   9.332   4.427  0.4904 -0.1531  0.1223
 1005MOL0     C35577   4.678   9.479   4.422  0.7714 -0.0059 -0.6242
 1005MOL0     C35578   4.541   9.533   4.403 -0.1403 -0.4280  0.2191
 1005MOL0     C35579   4.481   9.530   4.255  0.3569 -0.4620 -0.7616
 1005MOL0     C35580   4.335   9.563   4.267  0.2346 -0.9199  0.1113
 1005MOL0     C35581   4.280   9.566   4.128  0.2730  0.0764  0.8947
 1005MOL0     C35582   4.142   9.636   4.106  0.0270  0.3196 -0.0255
 1005MOL0     C35583   4.093   9.623   3.962  0.0300 -0.7446 -0.8055
 1005MOL0    Cl35584   4.041   9.457   3.911  0.2775  0.3276 -0.1296
 1005MOL0     C35585   4.802   9.065   4.356  0.2256 -0.5563  0.3058
 1005MOL0     C35586   4.858   8.947   4.314  0.1010  0.1007  0.9760
 1005MOL0     O35587   5.138   8.721   4.496 -0.9548  0.4585  0.4779
 1005MOL0     C35588   5.188   8.642   4.141 -1.0317 -0.2173  0.3189
 1005MOL0     C35589   5.283   8.582   4.049  0.4206 -0.7040 -1.4523
 1005MOL0     N35590   5.837   8.947   3.820  0.6324 -0.1386 -0.2027
 1005MOL0     N35591   5.879   8.970   3.702 -0.3013 -0.2448  0.8778
 1005MOL0     C35592   5.647   8.030   2.862 -0.0492 -0.0538  0.0448
 1005MOL0     C35593   5.687   7.898   2.831 -0.0035  0.1748  1.3264
 1005MOL0     C35594   5.914   7.494   2.896 -0.3665 -0.2547  0.6227
 1005MOL0     C35595   5.995   7.469   2.775  0.0520  0.3411 -0.1415
 1005MOL0     C35596   6.072   7.347   2.758  1.3449 -0.8237  1.0957
 1005MOL0     C35597   6.058   7.251   2.857 -0.0216  0.0491 -0.5531
 1005MOL0     O35598   6.103   7.122   2.829  0.0374 -0.0258 -0.3456
 1005MOL0     C35599   6.168   7.086   2.708 -0.3714  0.0649 -0.2270
 1005MOL0     C35600   6.220   6.943   2.704 -0.5173 -0.3793 -0.1544
 1005MOL0     C35601   6.351   6.911   2.764 -0.2479 -0.0421 -0.6858
 1005MOL0     C35602   6.477   6.981   2.716  0.8876 -0.9855  0.5060
 1005MOL0     C35603   6.585   6.888   2.755 -0.3094  0.1828 -0.4260
 1005MOL0     C35604   6.658   6.800   2.806 -0.6657  0.1703 -0.1508
 1005MOL0     C35605   5.974   7.267   2.970 -0.0257  0.8733  1.6568
 1005MOL0     C35606   5.901   7.387   2.992  0.1004 -0.1170 -0.1008
 1005MOL0     C35607   5.809   7.376   3.108 -0.1051 -0.4525  1.1666
 1005MOL0     H35608   5.998   7.894   2.955 -1.6970 -0.8110  1.8897
 1005MOL0     H35609   5.954   8.149   2.968 -0.6065 -1.9250  2.1053
 1005MOL0     H35610   5.510   8.308   2.902 -0.1887 -2.6379  0.7271
 1005MOL0     H35611   5.568   8.231   3.043 -0.0268  0.3275  0.8528
 1005MOL0     H35612   5.523   8.476   3.067  0.1445  1.3024 -1.9332
 1005MOL0     H35613   5.624   8.512   2.942 -0.0206 -1.7921 -0.5249
 1005MOL0     H35614   5.821   8.492   3.055 -0.0581  1.4953  0.2569
 1005MOL0     H35615   5.771   8.369   3.173  0.8699  0.7935  0.7955
 1005MOL0     H35616   5.670   8.649   3.192 -0.1128  0.4503 -2.2980
 1005MOL0     H35617   5.685   8.522   3.316  4.3303 -2.9034  0.7895
 1005MOL0     H35618   5.894   8.506   3.337 -2.1899 -1.8934 -0.1204
 1005MOL0     H35619   5.955   8.609   3.206  5.4488 -2.5651  4.4804
 1005MOL0     H35620   5.856   8.803   3.331 -0.1038 -0.2224 -0.1966
 1005MOL0     H35621   5.794   8.698   3.464 -3.1861  0.4829 -2.5702
 1005MOL0     H35622   6.085   8.738   3.361 -0.6225  3.8183 -0.5307
 1005MOL0     H35623   6.039   8.630   3.486 -1.7934 -1.9022 -1.7956
 1005MOL0     H35624   6.125   8.862   3.542 -1.6512  1.2774  0.4227
 1005MOL0     H35625   5.987   8.936   3.450  2.4390  0.2949 -2.4345
 1005MOL0     H35626   5.965   8.658   3.739  1.2251  0.2615 -1.1744
 1005MOL0     H35627   5.950   8.697   3.998 -0.3445 -1.4101  0.5828
 1005MOL0     H35628   5.822   8.807   4.064 -4.1808 -1.6422 -0.1650
 1005MOL0     H35629   5.661   8.653   3.907  1.3923  3.0795 -0.9424
 1005MOL0     H35630   5.804   8.554   3.885  0.0398 -0.8666 -0.1907
 1005MOL0     H35631   5.677   8.613   4.170  1.4568 -0.1635  1.1111
 1005MOL0     H35632   5.808   8.499   4.123 -0.4183  0.4220  2.4271
 1005MOL0     H35633   5.614   8.361   4.121 -1.4435  0.1257 -0.6579
 1005MOL0     H35634   5.653   8.386   3.960 -0.3245 -3.4431  1.9858
 1005MOL0     H35635   5.517   8.490   4.284 -0.0703 -1.9574 -3.4560
 1005MOL0     H35636   5.337   8.585   4.430  1.3132  0.3019 -0.6560
 1005MOL0     H35637   5.121   8.953   4.536  0.4869  0.7800 -1.5977
 1005MOL0     H35638   5.023   9.179   4.582 -0.6041 -0.1152  0.4570
 1005MOL0     H35639   4.666   9.316   4.323  0.7551  1.4925 -0.2326
 1005MOL0     H35640   4.626   9.292   4.499  1.2640 -1.1639  0.3655
 1005MOL0     H35641   4.706   9.508   4.523 -0.8005  0.6832 -0.3548
 1005MOL0     H35642   4.743   9.523   4.346  0.6240  2.7923  0.7568
 1005MOL0     H35643   4.474   9.483   4.474  0.3305  1.7577  2.2905
 1005MOL0     H35644   4.539   9.639   4.428 -0.0573 -0.5920  0.9280
 1005MOL0     H35645   4.490   9.430   4.210  2.2324 -0.6844  0.0165
 1005MOL0     H35646   4.529   9.613   4.202 -0.3175 -0.2865 -1.1083
 1005MOL0     H35647   4.318   9.663   4.308 -0.1521 -0.0989 -1.8967
 1005MOL0     H35648   4.289   9.494   4.339 -1.0729 -0.4490 -0.2345
 1005MOL0     H35649   4.346   9.627   4.066  1.9348 -1.6941  0.8194
 1005MOL0     H35650   4.266   9.467   4.084  3.7692 -0.2428  0.2442
 1005MOL0     H35651   4.162   9.740   4.134  1.8078  0.0755 -0.2556
 1005MOL0     H35652   4.062   9.602   4.172  0.5125  0.0456  0.4305
 1005MOL0     H35653   4.003   9.684   3.964  0.5321  0.0147 -0.8320
 1005MOL0     H35654   4.167   9.671   3.897  2.6942 -1.0764  1.7331
 1005MOL0     H35655   4.717   9.103   4.301  0.1719 -2.2164 -0.8314
 1005MOL0     H35656   4.814   8.906   4.224 -1.5535 -1.3512  2.3559
 1005MOL0     H35657   5.096   8.688   4.106 -1.0072  0.9971  1.7583
 1005MOL0     H35658   5.275   8.588   3.941 -0.0703 -0.0354 -1.3865
 1005MOL0     H35659   5.550   8.076   2.847  0.0295  0.2727  0.5092
 1005MOL0     H35660   5.616   7.831   2.783  0.2613  0.5914  0.3407
 1005MOL0     H35661   6.009   7.538   2.693 -0.1118  1.6662  0.9153
 1005MOL0     H35662   6.124   7.343   2.663  1.6146  3.3673  0.8737
 1005MOL0     H35663   6.259   7.145   2.694  0.3696 -0.2257  2.6496
 1005MOL0     H35664   6.100   7.108   2.626  0.6945  2.2060 -0.5973
 1005MOL0     H35665   6.214   6.917   2.598  0.7579  2.0949 -0.9041
 1005MOL0     H35666   6.150   6.874   2.752 -3.2897 -1.0214 -4.5745
 1005MOL0     H35667   6.368   6.803   2.770  2.1739  0.3635  0.9986
 1005MOL0     H35668   6.330   6.944   2.866 -1.8577 -0.6751 -0.7771
 1005MOL0     H35669   6.477   6.985   2.606 -1.7112  1.3119  0.4874
 1005MOL0     H35670   6.480   7.083   2.755 -0.5280 -0.7242 -0.0397
 1005MOL0     H35671   6.715   6.721   2.851 -1.8580 -1.4858 -1.3908
 1005MOL0     H35672   5.988   7.180   3.034  3.4098  1.9407  2.5608
 1005MOL0     H35673   5.864   7.391   3.202 -0.5658 -0.0127  1.3720
 1005MOL0     H35674   5.729   7.451   3.114  0.3404  0.1054  0.2625
 1005MOL0     H35675   5.776   7.272   3.108  0.3928 -0.6114  0.4696
 1006MOL0     O35676   4.312   5.729   7.215  0.2272  0.0950  0.0507
 1006MOL0     C35677   4.251   5.802   7.289 -0.1692 -0.4765 -0.3484
 1006MOL0     O35678   4.117   5.787   7.325 -0.8052  1.0546  0.1267
 1006MOL0     C35679   4.061   5.679   7.260 -0.2148  0.7981 -1.1112
 1006MOL0     C35680   3.946   5.698   7.188 -0.5349 -0.4435  0.2565
 1006MOL0     C35681   3.881   5.593   7.119  0.5704 -0.3887 -0.7541
 1006MOL0     C35682   3.916   5.462   7.125 -0.4398 -0.4789  0.0630
 1006MOL0     O35683   3.863   5.357   7.048 -0.6504  0.2196  0.9590
 1006MOL0     C35684   3.848   5.226   7.111 -0.5362  0.1680 -0.1679
 1006MOL0     C35685   3.821   5.124   7.002 -0.0538 -0.5482 -0.4506
 1006MOL0     C35686   3.773   4.997   7.068  0.7233 -0.1336  0.1589
 1006MOL0     C35687   3.727   4.880   6.979 -0.2701  0.0717 -0.0836
 1006MOL0     C35688   3.684   4.762   7.065  0.3443  0.2484  0.5952
 1006MOL0     C35689   3.651   4.634   6.973  0.3275  1.0360  0.2566
 1006MOL0     C35690   3.521   4.561   7.019 -0.3011 -0.4428  0.7248
 1006MOL0     C35691   3.481   4.439   6.940  0.2455 -0.1603 -0.2007
 1006MOL0     N35692   3.385   4.356   7.014 -0.5058 -0.8067 -0.2783
 1006MOL0     C35693   3.254   4.385   7.045  0.2026  0.1457 -0.1092
 1006MOL0     C35694   3.201   4.283   7.121  0.5883  0.3545  0.7941
 1006MOL0     C35695   3.070   4.296   7.183  0.2527  0.8077 -0.2996
 1006MOL0     C35696   2.970   4.210   7.124  1.1486  0.5206  0.7874
 1006MOL0     C35697   2.998   4.062   7.170 -0.6446  0.4392  0.2590
 1006MOL0     C35698   2.873   3.975   7.182  0.4577 -0.2456 -0.4933
 1006MOL0     O35699   2.780   4.026   7.284 -0.0020 -0.1864 -0.0587
 1006MOL0     C35700   2.663   3.964   7.297  0.0890  0.0571  0.1660
 1006MOL0     C35701   2.565   3.935   7.199  0.3395 -0.0064  0.3870
 1006MOL0     C35702   2.454   3.865   7.237 -0.6476 -0.0458  0.6935
 1006MOL0     C35703   2.415   3.842   7.374  0.2141  0.1763  0.9118
 1006MOL0     C35704   2.278   3.798   7.411  0.5947  0.6717  0.4260
 1006MOL0     O35705   2.177   3.806   7.310 -0.7588  0.1147 -0.1677
 1006MOL0     C35706   2.060   3.740   7.339 -0.3390 -0.8732 -0.8245
 1006MOL0     C35707   1.945   3.799   7.282 -0.4140 -0.0836 -0.1057
 1006MOL0     C35708   1.825   3.716   7.269 -1.8210 -0.4212 -0.0191
 1006MOL0     C35709   1.822   3.593   7.323  0.5954  0.2771 -0.4047
 1006MOL0     O35710   1.705   3.505   7.321 -0.4826 -0.3680 -0.4406
 1006MOL0     C35711   1.584   3.566   7.287 -0.8673 -0.2320 -0.3002
 1006MOL0     C35712   1.514   3.542   7.152  0.6411  0.1896 -0.0048
 1006MOL0     C35713   1.591   3.581   7.024  0.1197  0.0085 -0.1481
 1006MOL0     C35714   1.500   3.590   6.896 -0.0962 -0.1501  0.9284
 1006MOL0     C35715   1.562   3.578   6.762 -0.3490  0.3714  0.8670
 1006MOL0     C35716   1.702   3.635   6.753 -0.4328  0.4853 -0.5007
 1006MOL0     C35717   1.693   3.782   6.767 -0.2345 -0.8293 -0.9037
 1006MOL0     C35718   1.833   3.843   6.776  0.5360  1.4418  0.6327
 1006MOL0    Cl35719   1.927   3.788   6.917  0.0571 -0.0067  0.3101
 1006MOL0     C35720   1.938   3.544   7.383 -0.3064  0.1893 -0.5662
 1006MOL0     C35721   2.057   3.611   7.393  0.0167 -0.6748  0.3756
 1006MOL0     O35722   2.261   3.752   7.526  0.0364  0.5514  0.2201
 1006MOL0     C35723   2.513   3.870   7.474  0.2729  0.2955  0.1952
 1006MOL0     C35724   2.634   3.926   7.434 -0.2654  0.3213  0.4037
 1006MOL0     N35725   3.303   4.182   7.121  0.0829 -1.0282  0.2841
 1006MOL0     N35726   3.411   4.232   7.057  0.3408 -0.3167  0.1182
 1006MOL0     C35727   4.042   5.441   7.188 -0.6215  0.4523 -0.7613
 1006MOL0     C35728   4.112   5.537   7.253 -0.1239 -0.0966  0.3207
 1006MOL0     C35729   4.313   5.908   7.368  0.6434  1.0641 -0.0857
 1006MOL0     C35730   4.243   6.029   7.405 -0.9293 -0.3843 -0.7083
 1006MOL0     C35731   4.312   6.118   7.494  0.3841  0.7860  0.8175
 1006MOL0     C35732   4.439   6.099   7.525 -0.0241 -0.0496 -0.0150
 1006MOL0     O35733   4.496   6.188   7.607  0.0740  1.0412 -1.1117
 1006MOL0     C35734   4.514   6.309   7.545 -0.0384  0.7821  1.0568
 1006MOL0     C35735   4.566   6.412   7.642  0.4434 -0.0048 -1.1219
 1006MOL0     C35736   4.449   6.479   7.714 -1.2124 -0.6787  1.0539
 1006MOL0     C35737   4.499   6.596   7.798  0.1651 -0.8997  0.0895
 1006MOL0     C35738   4.552   6.570   7.935 -0.1161  0.1468  1.1568
 1006MOL0     C35739   4.565   6.534   8.050  0.2086  0.8915  0.9600
 1006MOL0     C35740   4.512   5.977   7.484 -0.3056 -1.3385 -0.2179
 1006MOL0     C35741   4.447   5.876   7.415  0.3976 -0.2770 -0.2905
 1006MOL0     C35742   4.515   5.742   7.400  0.3112  0.1430  0.7760
 1006MOL0     H35743   3.897   5.793   7.166 -0.2176 -0.5388 -0.9687
 1006MOL0     H35744   3.795   5.607   7.054  0.9100 -1.1399 -1.3809
 1006MOL0     H35745   3.938   5.193   7.165 -0.9812 -3.3035 -1.3566
 1006MOL0     H35746   3.769   5.228   7.186  1.5509  0.8354  2.1522
 1006MOL0     H35747   3.904   5.114   6.932 -0.8790 -1.9029 -1.2942
 1006MOL0     H35748   3.752   5.163   6.926 -2.0708  1.4912  2.2200
 1006MOL0     H35749   3.683   5.031   7.120  1.2318  3.9201 -1.2656
 1006MOL0     H35750   3.847   4.977   7.147  1.9968  7.0006  1.4037
 1006MOL0     H35751   3.647   4.908   6.909 -1.4920 -3.1161 -0.1392
 1006MOL0     H35752   3.810   4.845   6.916 -0.2147 -1.3399  0.7369
 1006MOL0     H35753   3.770   4.728   7.124  0.2080 -0.8134  0.2087
 1006MOL0     H35754   3.597   4.772   7.130 -1.6854 -4.1649 -1.0474
 1006MOL0     H35755   3.639   4.665   6.868 -0.4417 -0.3813 -0.1011
 1006MOL0     H35756   3.739   4.570   6.986  1.0797  1.9948  0.0349
 1006MOL0     H35757   3.435   4.627   7.005 -0.7719 -1.5241 -1.8662
 1006MOL0     H35758   3.535   4.526   7.122  1.5820 -0.1561  0.6092
 1006MOL0     H35759   3.423   4.469   6.852 -0.8028 -1.5438 -0.0091
 1006MOL0     H35760   3.562   4.372   6.908 -1.8603 -1.7375 -2.6090
 1006MOL0     H35761   3.204   4.478   7.023 -0.0011  0.2684  0.8214
 1006MOL0     H35762   3.091   4.269   7.287  2.7756  1.1860 -0.6636
 1006MOL0     H35763   3.048   4.403   7.188 -2.6682  0.2449  2.4690
 1006MOL0     H35764   2.871   4.243   7.159 -0.8887 -2.2307 -1.8953
 1006MOL0     H35765   2.952   4.228   7.018 -1.2679 -1.2113  0.8175
 1006MOL0     H35766   3.056   4.070   7.263  2.7067  2.4413 -1.7923
 1006MOL0     H35767   3.071   4.007   7.110  2.9330  2.4464  2.4145
 1006MOL0     H35768   2.906   3.875   7.210 -0.7368  0.1396  2.6963
 1006MOL0     H35769   2.822   3.968   7.085 -0.8109 -2.7082  0.2892
 1006MOL0     H35770   2.572   3.953   7.093 -0.7396 -1.5312  0.0169
 1006MOL0     H35771   2.383   3.851   7.157  0.4975  1.2316 -0.5899
 1006MOL0     H35772   1.954   3.899   7.240  3.8144 -0.1355  0.2856
 1006MOL0     H35773   1.741   3.757   7.214 -0.4234  0.2557 -1.7618
 1006MOL0     H35774   1.510   3.518   7.351 -0.2552 -0.7011  0.0633
 1006MOL0     H35775   1.575   3.671   7.318  2.0171 -0.1962  0.7472
 1006MOL0     H35776   1.495   3.435   7.156  0.1731  0.2738  4.3481
 1006MOL0     H35777   1.415   3.588   7.163  0.3530  0.1218 -1.8708
 1006MOL0     H35778   1.651   3.669   7.048  2.3412 -0.8409 -2.2170
 1006MOL0     H35779   1.669   3.507   7.005  1.9010  1.7534  0.0996
 1006MOL0     H35780   1.466   3.693   6.909  0.4760 -0.1173  2.3183
 1006MOL0     H35781   1.411   3.526   6.894  0.2842 -0.7420 -2.3989
 1006MOL0     H35782   1.501   3.628   6.685 -1.2969 -0.2544  1.1892
 1006MOL0     H35783   1.562   3.474   6.727  2.6384  1.2510 -2.2345
 1006MOL0     H35784   1.776   3.590   6.819 -0.8583  1.2644  0.5275
 1006MOL0     H35785   1.729   3.618   6.648 -0.8654 -1.8260 -0.2820
 1006MOL0     H35786   1.632   3.822   6.849  1.0212 -1.7679  0.5536
 1006MOL0     H35787   1.654   3.826   6.675 -0.4917  0.5679 -0.1465
 1006MOL0     H35788   1.891   3.824   6.684 -0.4187 -0.3357  0.3572
 1006MOL0     H35789   1.819   3.951   6.785  0.7653  1.3171  3.0861
 1006MOL0     H35790   1.931   3.439   7.412  0.7276  0.7642  2.0193
 1006MOL0     H35791   2.139   3.555   7.437 -0.6972 -2.5861 -0.6518
 1006MOL0     H35792   2.489   3.848   7.578  0.1483  0.8110  0.2751
 1006MOL0     H35793   2.712   3.946   7.507  1.3766 -0.5653 -1.0016
 1006MOL0     H35794   4.096   5.346   7.192  0.6207  1.1712  1.2622
 1006MOL0     H35795   4.200   5.499   7.303  0.2307 -2.7490 -2.0396
 1006MOL0     H35796   4.142   6.043   7.370 -1.2958  1.9163  0.9810
 1006MOL0     H35797   4.249   6.197   7.531 -2.2999 -1.1192  0.6354
 1006MOL0     H35798   4.426   6.344   7.490  0.8719  0.4009 -0.7322
 1006MOL0     H35799   4.602   6.298   7.481 -2.0250 -2.9323 -1.4098
 1006MOL0     H35800   4.608   6.498   7.589  0.0935  1.2765  0.6196
 1006MOL0     H35801   4.639   6.369   7.711  2.0562 -0.5964 -3.0911
 1006MOL0     H35802   4.396   6.410   7.781 -0.0983 -2.0104  0.6008
 1006MOL0     H35803   4.387   6.526   7.638  1.0110 -0.4674 -0.7447
 1006MOL0     H35804   4.583   6.649   7.751  3.6793 -2.0043  4.4068
 1006MOL0     H35805   4.419   6.670   7.809  1.0785 -0.2897  5.0552
 1006MOL0     H35806   4.573   6.486   8.145  0.6959  0.5159  0.7387
 1006MOL0     H35807   4.610   5.959   7.528 -0.7882 -0.7635  1.1259
 1006MOL0     H35808   4.585   5.724   7.482  0.6648 -0.9186  0.2531
 1006MOL0     H35809   4.439   5.665   7.411  1.8626 -1.2640  2.3538
 1006MOL0     H35810   4.575   5.725   7.310  0.2042  0.0668  0.7176
 1007MOL0     O35811   4.374  10.080   3.415  0.0398 -0.0886  0.1283
 1007MOL0     C35812   4.301  10.048   3.325 -0.3093 -0.3980 -0.4299
 1007MOL0     O35813   4.295  10.114   3.205  0.0458  1.2569 -0.7852
 1007MOL0     C35814   4.378  10.219   3.176 -0.9369  0.2096  0.1806
 1007MOL0     C35815   4.392  10.333   3.255  0.1819  0.7532 -0.4126
 1007MOL0     C35816   4.502  10.421   3.236  0.1775 -0.9990  0.0034
 1007MOL0     C35817   4.583  10.395   3.123  0.6615 -0.4293  0.4023
 1007MOL0     O35818   4.670  10.484   3.078 -0.0582 -0.8593 -0.1415
 1007MOL0     C35819   4.680  10.619   3.127  0.2233  0.3001 -0.5749
 1007MOL0     C35820   4.736  10.715   3.024  0.8834 -0.2074 -0.9044
 1007MOL0     C35821   4.688  10.854   3.071  0.8337  0.1378 -0.2136
 1007MOL0     C35822   4.731  10.961   2.968  0.2273  0.2479 -0.0156
 1007MOL0     C35823   4.749  11.089   3.053 -0.2948  0.5098  0.3485
 1007MOL0     C35824   4.762  11.214   2.962  0.0138  0.3204 -0.1656
 1007MOL0     C35825   4.636  11.236   2.881 -0.1770  0.1962 -0.6697
 1007MOL0     C35826   4.637  11.380   2.823  0.5822  0.1558 -0.5196
 1007MOL0     N35827   4.642  11.487   2.927 -0.0167  0.1564 -0.0889
 1007MOL0     C35828   4.748  11.582   2.937 -0.1147 -0.1778  0.3801
 1007MOL0     C35829   4.716  11.660   3.042  0.5742 -0.5692 -0.1722
 1007MOL0     C35830   4.764  11.784   3.111  0.8444  0.2412  0.3976
 1007MOL0     C35831   4.918  11.760   3.123 -0.5049 -1.0121  0.0749
 1007MOL0     C35832   4.969  11.840   3.233 -0.5958 -0.2223 -0.1038
 1007MOL0     C35833   5.126  11.825   3.241 -0.5525 -0.6585  0.3772
 1007MOL0     O35834   5.187  11.876   3.118 -0.4484  0.3802 -0.5718
 1007MOL0     C35835   5.320  11.836   3.103  1.0303 -0.1035 -0.6732
 1007MOL0     C35836   5.364  11.847   2.978  0.0337  0.3116  0.5188
 1007MOL0     C35837   5.506  11.810   2.953  0.0704 -1.3705  0.0666
 1007MOL0     C35838   5.592  11.767   3.049 -0.8006  0.5007 -0.0599
 1007MOL0     C35839   5.729  11.726   3.010  0.4620 -0.3690 -0.3349
 1007MOL0     O35840   5.798  11.659   3.103 -0.2078 -0.2957 -0.0466
 1007MOL0     C35841   5.912  11.602   3.064 -0.5162  0.7884 -0.5316
 1007MOL0     C35842   6.030  11.668   3.079  0.0584 -0.8034 -0.5376
 1007MOL0     C35843   6.151  11.621   3.038 -0.3133 -0.1876  0.4776
 1007MOL0     C35844   6.159  11.481   3.004  0.5678  0.7621 -0.8084
 1007MOL0     O35845   6.280  11.421   2.981  0.2624  0.6657 -0.1931
 1007MOL0     C35846   6.358  11.474   2.873  0.2147 -0.8600  0.0958
 1007MOL0     C35847   6.478  11.400   2.807  0.7809 -0.7747  0.4544
 1007MOL0     C35848   6.553  11.489   2.706 -0.5008 -0.5979 -0.3819
 1007MOL0     C35849   6.469  11.526   2.574 -0.5314 -0.2839  0.5509
 1007MOL0     C35850   6.540  11.599   2.452 -0.1487  0.3880  0.8963
 1007MOL0     C35851   6.447  11.668   2.350  0.6653  0.0581 -0.4507
 1007MOL0     C35852   6.373  11.563   2.270  0.1540  0.5593 -0.4929
 1007MOL0     C35853   6.365  11.599   2.124  0.5938  0.4730 -0.3958
 1007MOL0    Cl35854   6.519  11.582   2.043  0.0626  0.4976  0.1857
 1007MOL0     C35855   6.040  11.405   3.001 -0.0096  1.1454  0.6396
 1007MOL0     C35856   5.920  11.462   3.028  0.1288 -0.6605  0.4950
 1007MOL0     O35857   5.764  11.743   2.890 -0.7444  0.0296 -0.2800
 1007MOL0     C35858   5.540  11.751   3.179  0.0588 -0.7314  0.2486
 1007MOL0     C35859   5.405  11.788   3.207  0.8644 -0.4893  0.3060
 1007MOL0     N35860   4.585  11.618   3.083 -0.5000 -0.8142 -0.3902
 1007MOL0     N35861   4.546  11.512   3.017  0.2424  0.2815  0.1556
 1007MOL0     C35862   4.570  10.276   3.044 -0.9409 -0.0862 -0.1358
 1007MOL0     C35863   4.469  10.191   3.075 -0.1685  0.5439  0.1422
 1007MOL0     C35864   4.221   9.924   3.347 -0.3820  0.6498  0.3480
 1007MOL0     C35865   4.161   9.907   3.479  0.8057 -0.2951  0.5474
 1007MOL0     C35866   4.081   9.795   3.506  0.6589  0.5611 -0.1362
 1007MOL0     C35867   4.055   9.707   3.402  0.4107 -0.7564  0.1022
 1007MOL0     O35868   3.957   9.617   3.451  0.2778  0.4374 -0.0964
 1007MOL0     C35869   3.887   9.528   3.360  0.4163  0.0503  0.2817
 1007MOL0     C35870   3.969   9.393   3.370  0.6265  1.3812 -0.0516
 1007MOL0     C35871   3.961   9.339   3.518  0.9993  0.2081 -0.3217
 1007MOL0     C35872   3.968   9.187   3.522 -0.5310 -0.0331 -0.4473
 1007MOL0     C35873   3.981   9.156   3.667  0.2223  0.2860 -0.0804
 1007MOL0     C35874   3.992   9.112   3.786 -1.1144 -0.1226 -0.4595
 1007MOL0     C35875   4.124   9.716   3.277  0.8018  0.6302 -0.9145
 1007MOL0     C35876   4.189   9.835   3.241 -0.3532  0.5648  0.1122
 1007MOL0     C35877   4.249   9.838   3.101  0.8876 -0.3135 -0.9319
 1007MOL0     H35878   4.308  10.342   3.324  0.0517  0.9107 -0.5913
 1007MOL0     H35879   4.515  10.514   3.291  0.3859 -0.3423 -1.1300
 1007MOL0     H35880   4.580  10.652   3.158 -0.3020  0.3267 -2.2095
 1007MOL0     H35881   4.750  10.616   3.211 -1.3458 -2.1615  0.7704
 1007MOL0     H35882   4.700  10.692   2.923 -1.1700  1.4778 -0.6350
 1007MOL0     H35883   4.843  10.696   3.019  0.2050 -4.9022 -3.5560
 1007MOL0     H35884   4.746  10.868   3.162 -1.2112  2.6891  0.8405
 1007MOL0     H35885   4.580  10.862   3.091  0.9050  0.8064 -0.0761
 1007MOL0     H35886   4.824  10.933   2.918 -0.7176  2.6319 -3.4584
 1007MOL0     H35887   4.654  10.952   2.891  2.1195 -1.1363 -1.8587
 1007MOL0     H35888   4.657  11.104   3.110 -0.8644 -1.8385  0.1621
 1007MOL0     H35889   4.834  11.091   3.121 -2.2057 -0.8317  2.9745
 1007MOL0     H35890   4.768  11.302   3.028  0.1562 -0.2065  0.5388
 1007MOL0     H35891   4.848  11.226   2.896  1.4724  1.7651  1.8645
 1007MOL0     H35892   4.545  11.211   2.936 -0.1427  0.4926 -0.4769
 1007MOL0     H35893   4.642  11.171   2.793 -1.2876 -0.1198 -0.5268
 1007MOL0     H35894   4.722  11.373   2.755 -0.8698 -1.0244 -2.3318
 1007MOL0     H35895   4.535  11.382   2.783 -0.6954  0.2726  2.5168
 1007MOL0     H35896   4.838  11.595   2.877  0.0197  0.4773  0.7161
 1007MOL0     H35897   4.746  11.871   3.047 -3.1456  0.6954  1.8628
 1007MOL0     H35898   4.722  11.815   3.207  1.6419 -1.0177  1.1845
 1007MOL0     H35899   4.927  11.656   3.155  3.6636 -0.6825  0.4948
 1007MOL0     H35900   4.980  11.777   3.034  0.5877  0.2047  1.0340
 1007MOL0     H35901   4.921  11.788   3.317  0.2838 -2.6232 -0.9733
 1007MOL0     H35902   4.952  11.947   3.220 -1.9034 -0.0062  2.7778
 1007MOL0     H35903   5.162  11.726   3.272  3.1391  0.5352  0.2926
 1007MOL0     H35904   5.146  11.894   3.323 -1.3914 -0.1659  0.1810
 1007MOL0     H35905   5.299  11.887   2.901 -0.3361  1.6907  1.4962
 1007MOL0     H35906   5.535  11.820   2.848 -2.2976 -2.2762 -0.7358
 1007MOL0     H35907   6.026  11.772   3.109 -0.8874 -0.8342 -0.5168
 1007MOL0     H35908   6.240  11.681   3.053  0.7433 -1.4488 -0.5095
 1007MOL0     H35909   6.280  11.473   2.797  0.9334 -0.4064 -0.6715
 1007MOL0     H35910   6.384  11.579   2.889 -1.3105 -0.1477 -1.8316
 1007MOL0     H35911   6.558  11.370   2.875  0.7955 -1.7770  0.0133
 1007MOL0     H35912   6.456  11.306   2.755  0.0826 -1.4516  1.9184
 1007MOL0     H35913   6.576  11.584   2.755 -1.6456  0.5599 -1.9809
 1007MOL0     H35914   6.650  11.441   2.690  2.0490  2.5565  3.5565
 1007MOL0     H35915   6.394  11.601   2.603  0.3970  0.2844  1.5512
 1007MOL0     H35916   6.422  11.436   2.535  1.1222 -0.6594 -0.6783
 1007MOL0     H35917   6.615  11.533   2.407  1.0014  1.5926  0.9905
 1007MOL0     H35918   6.584  11.685   2.505 -2.9156  0.8419  2.6651
 1007MOL0     H35919   6.373  11.732   2.399  1.5631 -0.2770  1.4335
 1007MOL0     H35920   6.499  11.735   2.280  0.0382 -0.1853 -1.1707
 1007MOL0     H35921   6.271  11.568   2.309  0.8738 -2.1916  2.1021
 1007MOL0     H35922   6.415  11.465   2.291 -2.3510  0.2425  4.4994
 1007MOL0     H35923   6.283  11.547   2.072  0.4095 -0.1515  0.4923
 1007MOL0     H35924   6.331  11.703   2.124 -0.4873  0.1374 -0.0152
 1007MOL0     H35925   6.039  11.297   2.990  0.0289  1.3297 -1.6804
 1007MOL0     H35926   5.821  11.418   3.024 -1.0372  1.8652 -1.0743
 1007MOL0     H35927   5.586  11.715   3.271 -1.4210 -2.6432  0.3015
 1007MOL0     H35928   5.366  11.778   3.308  0.8077 -0.6484  0.2694
 1007MOL0     H35929   4.634  10.257   2.958 -3.5712  3.0230 -3.0339
 1007MOL0     H35930   4.453  10.100   3.017 -2.7801  2.5017 -2.5375
 1007MOL0     H35931   4.196   9.976   3.555 -0.4448 -0.0992  0.9746
 1007MOL0     H35932   4.036   9.779   3.603  1.8873  1.3593  0.5865
 1007MOL0     H35933   3.869   9.564   3.258 -2.6666 -0.0346  0.7130
 1007MOL0     H35934   3.784   9.515   3.393 -0.0707  0.5801 -0.9480
 1007MOL0     H35935   4.067   9.420   3.330  0.3019  1.5663 -0.7400
 1007MOL0     H35936   3.920   9.326   3.300 -1.7432  1.5699  1.2964
 1007MOL0     H35937   3.858   9.357   3.551  0.5263  0.9798 -2.0890
 1007MOL0     H35938   4.037   9.392   3.577  2.7828 -0.6187 -1.7744
 1007MOL0     H35939   3.875   9.147   3.481 -0.9293  0.3099  0.0981
 1007MOL0     H35940   4.057   9.149   3.471  1.9081 -0.2828  3.5435
 1007MOL0     H35941   4.007   9.091   3.890  0.4697  1.0395 -0.4117
 1007MOL0     H35942   4.098   9.650   3.195  2.5089 -2.0013  0.5122
 1007MOL0     H35943   4.226   9.938   3.063 -3.1938 -0.2933  1.0330
 1007MOL0     H35944   4.358   9.831   3.108  0.9083  1.1038  2.9347
 1007MOL0     H35945   4.201   9.766   3.035 -2.2560 -2.3846  3.1697
 1008MOL0     O35946  10.353   9.213   7.560 -0.3095 -0.0471  0.2491
 1008MOL0     C35947  10.270   9.235   7.477  0.0370  0.3117  0.9202
 1008MOL0     O35948  10.156   9.309   7.503  0.0196  0.0933 -0.5151
 1008MOL0     C35949  10.136   9.394   7.607  0.2330  0.2679  0.4181
 1008MOL0     C35950  10.236   9.463   7.680 -0.0806  0.7626 -0.4092
 1008MOL0     C35951  10.196   9.537   7.792  0.2975  0.7038  0.1484
 1008MOL0     C35952  10.061   9.548   7.824  0.3126 -0.2381 -0.7227
 1008MOL0     O35953  10.021   9.644   7.922 -0.9439  0.3609  0.3673
 1008MOL0     C35954   9.998   9.772   7.855 -0.0057 -0.3735  0.2034
 1008MOL0     C35955   9.943   9.864   7.969 -1.2400  0.9462  0.8143
 1008MOL0     C35956   9.795   9.841   8.009 -0.3959 -1.0258  0.2057
 1008MOL0     C35957   9.720   9.971   8.010  0.2464 -0.4378 -0.3495
 1008MOL0     C35958   9.765  10.067   8.120 -0.1741 -0.3279  0.3153
 1008MOL0     C35959   9.680  10.196   8.115 -0.4984  0.9649  0.5121
 1008MOL0     C35960   9.728  10.296   8.213  0.0964  0.6433 -0.0566
 1008MOL0     C35961   9.681  10.288   8.359 -0.5260 -0.8229 -0.4300
 1008MOL0     N35962   9.538  10.288   8.379 -0.7759 -0.1675  0.9382
 1008MOL0     C35963   9.470  10.384   8.448 -0.3432  0.4513  0.3398
 1008MOL0     C35964   9.347  10.337   8.472  0.2475  0.6946 -0.6650
 1008MOL0     C35965   9.239  10.417   8.535 -0.4768 -0.3045 -0.3334
 1008MOL0     C35966   9.291  10.486   8.658  0.5413 -0.5598  0.3994
 1008MOL0     C35967   9.184  10.522   8.762  0.3599  0.2270 -0.7450
 1008MOL0     C35968   9.083  10.622   8.729 -0.1644  0.0289  0.5498
 1008MOL0     O35969   9.005  10.552   8.635  0.3658 -0.7069  0.3943
 1008MOL0     C35970   8.871  10.522   8.656 -0.5853  1.1365  0.9924
 1008MOL0     C35971   8.811  10.471   8.534  0.2202  0.1126 -0.1589
 1008MOL0     C35972   8.672  10.426   8.532  0.5448  0.1633 -0.4894
 1008MOL0     C35973   8.597  10.447   8.649  0.4946  1.5691  1.2384
 1008MOL0     C35974   8.444  10.421   8.654 -1.4394  0.2245 -0.2335
 1008MOL0     O35975   8.387  10.347   8.551 -0.2021  0.0409  0.7458
 1008MOL0     C35976   8.253  10.324   8.554 -0.0753 -0.6142 -0.7517
 1008MOL0     C35977   8.186  10.246   8.654  0.7842  0.6939 -0.1497
 1008MOL0     C35978   8.051  10.226   8.655  0.3204  0.2324 -0.8299
 1008MOL0     C35979   7.970  10.285   8.555 -0.1295  0.0220  0.3727
 1008MOL0     O35980   7.839  10.253   8.541  0.3372 -0.9396  0.1174
 1008MOL0     C35981   7.755  10.305   8.648 -0.4971  0.0902 -0.6513
 1008MOL0     C35982   7.614  10.316   8.595 -0.1720  0.5648  0.1349
 1008MOL0     C35983   7.596  10.393   8.465 -0.5679 -0.0630  0.9424
 1008MOL0     C35984   7.465  10.337   8.407 -0.7747 -1.1730  0.5140
 1008MOL0     C35985   7.452  10.343   8.250  0.2694  0.4251 -0.3500
 1008MOL0     C35986   7.460  10.486   8.196 -0.1480 -0.2546 -0.7469
 1008MOL0     C35987   7.449  10.490   8.040  0.2210 -0.6223  0.1584
 1008MOL0     C35988   7.391  10.625   7.986 -0.9051 -0.8862  0.0299
 1008MOL0    Cl35989   7.384  10.593   7.805 -0.1201  0.2494 -0.0874
 1008MOL0     C35990   8.033  10.358   8.449 -0.0026 -0.4562 -0.4550
 1008MOL0     C35991   8.176  10.383   8.456  0.6586  0.3818  1.2331
 1008MOL0     O35992   8.387  10.450   8.754  0.3837 -0.5061 -0.7014
 1008MOL0     C35993   8.658  10.501   8.761 -0.0669 -0.4283  0.6286
 1008MOL0     C35994   8.792  10.544   8.767 -0.6120  0.5584  0.5660
 1008MOL0     N35995   9.339  10.208   8.417  0.6184  0.3065  0.0731
 1008MOL0     N35996   9.457  10.179   8.361  0.3750 -0.1780  0.0916
 1008MOL0     C35997   9.959   9.486   7.748 -0.0899 -0.1777 -0.0294
 1008MOL0     C35998   9.999   9.404   7.646 -0.0773 -0.7902  0.1580
 1008MOL0     C35999  10.288   9.173   7.344  0.6175  1.1576 -0.6162
 1008MOL0     C36000  10.416   9.114   7.321  1.2580  0.5719 -0.8988
 1008MOL0     C36001  10.452   9.083   7.190 -0.6731  0.1651 -0.5968
 1008MOL0     C36002  10.357   9.075   7.089 -0.4800 -0.3115  0.1321
 1008MOL0     O36003  10.391   9.038   6.964  0.1373  0.2190  0.0276
 1008MOL0     C36004  10.527   9.047   6.924  0.3535 -0.4404  0.0951
 1008MOL0     C36005  10.543   9.079   6.770 -0.7199  1.2768  1.1085
 1008MOL0     C36006  10.687   9.033   6.741  0.6570  0.8248 -0.1378
 1008MOL0     C36007  10.708   9.001   6.590 -0.6926  0.5304  0.4301
 1008MOL0     C36008  10.841   8.949   6.566 -0.0346  0.2014 -0.3442
 1008MOL0     C36009  10.955   8.913   6.543  0.5028  0.2705 -0.5320
 1008MOL0     C36010  10.224   9.103   7.122  0.3788 -0.3246  0.4191
 1008MOL0     C36011  10.182   9.153   7.247 -0.8934  0.5558 -0.1944
 1008MOL0     C36012  10.038   9.192   7.252  1.3147  0.3051 -0.3294
 1008MOL0     H36013  10.342   9.457   7.655  0.2164  0.4009  0.8994
 1008MOL0     H36014  10.276   9.593   7.840  2.3812 -1.4525 -0.6191
 1008MOL0     H36015  10.089   9.825   7.826 -1.0280  2.7233  2.1111
 1008MOL0     H36016   9.938   9.758   7.764 -1.6423  0.1317  1.1501
 1008MOL0     H36017   9.966   9.967   7.939 -1.5749  0.6942 -0.3672
 1008MOL0     H36018  10.004   9.845   8.057 -0.4905 -2.1468 -0.2637
 1008MOL0     H36019   9.804   9.803   8.112  2.9900  2.6688  1.5620
 1008MOL0     H36020   9.746   9.770   7.942  0.6481 -2.2145  0.6316
 1008MOL0     H36021   9.726  10.016   7.911  2.5720  1.7863  0.6710
 1008MOL0     H36022   9.614   9.952   8.031 -1.0354  2.8221 -3.0993
 1008MOL0     H36023   9.742  10.024   8.218  1.3776  2.4901  2.0587
 1008MOL0     H36024   9.873  10.079   8.130 -0.1739 -1.2733  1.7045
 1008MOL0     H36025   9.693  10.231   8.012  0.8305 -3.6690 -1.1473
 1008MOL0     H36026   9.574  10.183   8.138 -0.7359  0.3680 -0.8599
 1008MOL0     H36027   9.698  10.397   8.183 -0.2247  0.0438 -1.8603
 1008MOL0     H36028   9.837  10.309   8.212  0.1830  0.9092  3.1147
 1008MOL0     H36029   9.730  10.198   8.398  2.1635 -0.2176 -2.2127
 1008MOL0     H36030   9.724  10.365   8.423  2.0259 -2.4929 -0.0023
 1008MOL0     H36031   9.495  10.483   8.487  1.1095  2.6456 -5.0725
 1008MOL0     H36032   9.210  10.499   8.469  0.5504  0.2794 -0.0760
 1008MOL0     H36033   9.153  10.353   8.554 -0.6439 -0.1780 -0.6510
 1008MOL0     H36034   9.370  10.437   8.715 -0.5246 -0.7044  1.8334
 1008MOL0     H36035   9.337  10.580   8.626  0.4748  0.0029  1.8525
 1008MOL0     H36036   9.238  10.550   8.853 -1.4458  1.9595 -0.1138
 1008MOL0     H36037   9.127  10.431   8.785 -0.6692  0.7472 -1.1633
 1008MOL0     H36038   9.110  10.719   8.686  0.3309 -0.8750 -1.2975
 1008MOL0     H36039   9.029  10.647   8.820 -1.3560  0.3741 -0.2244
 1008MOL0     H36040   8.853  10.465   8.434 -3.1857 -1.8035 -1.6526
 1008MOL0     H36041   8.619  10.405   8.440  0.5609 -0.5067 -0.3530
 1008MOL0     H36042   8.248  10.198   8.729  0.9462  0.7651 -0.2368
 1008MOL0     H36043   8.014  10.163   8.734  1.9986 -3.9780 -3.0867
 1008MOL0     H36044   7.759  10.233   8.731 -1.2653 -3.2742 -3.2763
 1008MOL0     H36045   7.784  10.403   8.687 -0.1905  0.3543 -1.5172
 1008MOL0     H36046   7.574  10.214   8.594  0.4995  0.2904  0.4812
 1008MOL0     H36047   7.558  10.362   8.676  1.2054 -2.0615  2.7870
 1008MOL0     H36048   7.603  10.502   8.475  5.0666 -0.0670  0.0794
 1008MOL0     H36049   7.687  10.362   8.413  2.0230  2.4819  3.5603
 1008MOL0     H36050   7.392  10.413   8.434  1.1794  1.5587 -1.3921
 1008MOL0     H36051   7.439  10.240   8.451  0.4063 -1.2504  1.0925
 1008MOL0     H36052   7.354  10.301   8.222  1.2209 -0.2585 -2.9857
 1008MOL0     H36053   7.525  10.279   8.199 -2.4955  0.2788 -4.6125
 1008MOL0     H36054   7.383  10.556   8.228  0.9520  0.2081  1.0465
 1008MOL0     H36055   7.556  10.532   8.222 -1.1286  0.7044  1.3800
 1008MOL0     H36056   7.389  10.404   8.012 -1.0828 -0.1983  1.5171
 1008MOL0     H36057   7.553  10.488   8.007  0.1436  1.2369 -0.3212
 1008MOL0     H36058   7.293  10.648   8.028  0.0654  1.1308  1.3602
 1008MOL0     H36059   7.456  10.710   8.009  0.2380 -1.6308 -0.3320
 1008MOL0     H36060   7.976  10.408   8.371 -0.6581 -2.1489 -1.0996
 1008MOL0     H36061   8.213  10.446   8.376 -0.3327  1.3864  1.5384
 1008MOL0     H36062   8.604  10.518   8.854  0.7406  0.6350  0.9197
 1008MOL0     H36063   8.834  10.598   8.850  2.4451  0.5533 -0.8290
 1008MOL0     H36064   9.853   9.509   7.755  0.1115  1.1379 -0.9823
 1008MOL0     H36065   9.928   9.348   7.587  2.0554 -1.7864 -1.6279
 1008MOL0     H36066  10.499   9.136   7.388  0.0816  3.7480 -0.3236
 1008MOL0     H36067  10.558   9.061   7.176 -0.4628  2.2867 -2.9643
 1008MOL0     H36068  10.589   8.963   6.957  1.9147  1.1094  1.3002
 1008MOL0     H36069  10.574   9.132   6.974  2.9736 -0.6004 -1.9104
 1008MOL0     H36070  10.524   9.185   6.752  0.5402  1.4855  0.9675
 1008MOL0     H36071  10.474   9.017   6.711  0.0201 -0.3610  1.8882
 1008MOL0     H36072  10.695   8.937   6.793 -1.3314 -0.3446 -1.8398
 1008MOL0     H36073  10.761   9.107   6.773 -0.6071  2.7844 -1.5486
 1008MOL0     H36074  10.644   8.913   6.584  0.3066 -0.4062  2.3721
 1008MOL0     H36075  10.673   9.073   6.516 -1.7037 -0.4732 -0.0791
 1008MOL0     H36076  11.057   8.880   6.539  0.4696 -0.2181  1.3820
 1008MOL0     H36077  10.155   9.077   7.042  1.0144 -2.3693  0.4776
 1008MOL0     H36078  10.034   9.298   7.280 -1.7744 -0.1761  1.3762
 1008MOL0     H36079  10.005   9.186   7.148  3.6946  0.8400 -1.2026
 1008MOL0     H36080   9.978   9.134   7.322  1.0076 -0.6720 -1.3839
 1009MOL0     O36081   4.803   5.619   1.009 -0.1719 -0.2889 -0.3715
 1009MOL0     C36082   4.798   5.745   1.022  0.0794  1.7585 -0.8976
 1009MOL0     O36083   4.775   5.838   0.916  0.5835  0.2621  0.0064
 1009MOL0     C36084   4.735   5.811   0.791  0.5212  0.0266  0.5921
 1009MOL0     C36085   4.740   5.908   0.693  0.0830 -0.6795  0.4654
 1009MOL0     C36086   4.686   5.882   0.564  1.2573 -0.4575 -0.1218
 1009MOL0     C36087   4.635   5.751   0.537  0.5496 -0.2362  0.2683
 1009MOL0     O36088   4.561   5.719   0.424  0.0292  0.4488 -0.0624
 1009MOL0     C36089   4.551   5.819   0.315 -0.0205 -0.3856  0.6000
 1009MOL0     C36090   4.439   5.771   0.212  0.0155  0.2174 -0.8478
 1009MOL0     C36091   4.417   5.872   0.095  0.3366 -0.1105 -1.2416
 1009MOL0     C36092   4.309   5.818   0.006  0.0788 -1.0325 -0.4991
 1009MOL0     C36093   4.323   5.876  -0.140  1.0523 -0.1535  0.7428
 1009MOL0     C36094   4.221   5.790  -0.219 -0.4283 -0.1545  0.3655
 1009MOL0     C36095   4.204   5.815  -0.369  0.2505 -0.2854  0.4110
 1009MOL0     C36096   4.074   5.878  -0.426  0.2722 -0.4467  0.3803
 1009MOL0     N36097   4.107   6.017  -0.460 -0.5274 -0.0240  0.9598
 1009MOL0     C36098   4.111   6.125  -0.372 -0.8281 -0.4004  0.0106
 1009MOL0     C36099   4.145   6.232  -0.443 -0.0602 -1.2573  0.8953
 1009MOL0     C36100   4.138   6.371  -0.386  0.4563 -0.0471  0.9238
 1009MOL0     C36101   4.189   6.389  -0.247  0.0974 -0.5459 -1.1535
 1009MOL0     C36102   4.341   6.375  -0.239  0.2957 -0.3228 -1.0910
 1009MOL0     C36103   4.407   6.390  -0.104 -0.4686  0.5469 -0.0603
 1009MOL0     O36104   4.350   6.511  -0.047  0.4119  0.1150 -0.8660
 1009MOL0     C36105   4.391   6.552   0.068 -0.0212  0.0158 -0.1279
 1009MOL0     C36106   4.329   6.660   0.117  0.0537 -0.8738 -0.3265
 1009MOL0     C36107   4.361   6.712   0.238  0.5596 -0.9987  0.2232
 1009MOL0     C36108   4.455   6.649   0.320  0.1291  0.0664  0.7682
 1009MOL0     C36109   4.485   6.699   0.455  0.3204  0.1679  0.0763
 1009MOL0     O36110   4.600   6.651   0.520 -0.0637 -0.3025  0.0540
 1009MOL0     C36111   4.651   6.717   0.631  0.2631 -0.1220  0.2883
 1009MOL0     C36112   4.588   6.743   0.751  0.9724  0.0913  1.3811
 1009MOL0     C36113   4.644   6.814   0.856  0.2461 -0.7563  0.3653
 1009MOL0     C36114   4.780   6.863   0.835  0.0745 -0.1165 -0.7371
 1009MOL0     O36115   4.848   6.931   0.936 -0.0312 -0.5023 -0.2946
 1009MOL0     C36116   4.772   7.047   0.978  0.6096  0.4949  0.2108
 1009MOL0     C36117   4.852   7.137   1.066 -1.2067 -0.3605 -0.0244
 1009MOL0     C36118   4.769   7.238   1.138  0.5652 -0.2109  0.0534
 1009MOL0     C36119   4.849   7.355   1.196  0.3202 -0.4138  0.6070
 1009MOL0     C36120   4.752   7.452   1.266  0.1889 -0.3540  0.6578
 1009MOL0     C36121   4.688   7.388   1.392 -0.4185  0.3948  0.9386
 1009MOL0     C36122   4.789   7.346   1.496  0.1446 -0.1143  0.2189
 1009MOL0     C36123   4.708   7.311   1.614 -0.9058 -0.0451 -0.7814
 1009MOL0    Cl36124   4.578   7.191   1.585 -0.5283  0.0073 -0.2163
 1009MOL0     C36125   4.849   6.830   0.720 -0.1288  0.4222 -0.0620
 1009MOL0     C36126   4.787   6.759   0.608 -0.7912  0.7293 -0.6375
 1009MOL0     O36127   4.403   6.780   0.491 -0.1065 -0.5986 -0.6377
 1009MOL0     C36128   4.532   6.543   0.264 -0.0541 -0.2121 -0.4996
 1009MOL0     C36129   4.502   6.500   0.140 -0.0168  1.2363  0.0518
 1009MOL0     N36130   4.177   6.190  -0.575 -0.3185 -0.3409  0.5775
 1009MOL0     N36131   4.152   6.062  -0.580  0.4583 -0.1905 -0.4524
 1009MOL0     C36132   4.633   5.656   0.633 -0.4619  0.0609 -0.3819
 1009MOL0     C36133   4.693   5.679   0.755  0.7815 -0.8190 -0.0794
 1009MOL0     C36134   4.797   5.816   1.158 -0.4536 -1.6027  0.3896
 1009MOL0     C36135   4.752   5.956   1.169  0.5244 -0.0427  0.5422
 1009MOL0     C36136   4.751   6.028   1.282 -0.3963 -0.0203  0.0938
 1009MOL0     C36137   4.805   5.983   1.401  0.3753 -1.0966 -0.5400
 1009MOL0     O36138   4.823   6.052   1.522 -0.1573  0.0050  0.4437
 1009MOL0     C36139   4.714   6.133   1.560  0.4361  0.8923 -0.1387
 1009MOL0     C36140   4.647   6.065   1.680  1.3004 -0.1977 -0.4614
 1009MOL0     C36141   4.606   5.910   1.671  0.1176 -0.4802 -0.2939
 1009MOL0     C36142   4.495   5.888   1.761 -0.0680  0.7658 -0.1753
 1009MOL0     C36143   4.450   5.747   1.749 -0.6460  0.0876 -0.4892
 1009MOL0     C36144   4.428   5.628   1.742  0.2303 -0.2282  0.1303
 1009MOL0     C36145   4.848   5.856   1.399 -0.5709  1.7344 -0.1660
 1009MOL0     C36146   4.853   5.767   1.280 -0.2047 -0.5059 -0.6320
 1009MOL0     C36147   4.923   5.632   1.291 -0.7080  0.2097 -0.3042
 1009MOL0     H36148   4.786   6.004   0.712 -3.0968  0.7832  1.4981
 1009MOL0     H36149   4.681   5.970   0.499  2.7982  1.5467  2.2951
 1009MOL0     H36150   4.515   5.914   0.355  1.3048  2.3328 -3.9728
 1009MOL0     H36151   4.650   5.835   0.272  0.9540  0.1525  2.9265
 1009MOL0     H36152   4.349   5.769   0.274  1.9664  0.6065  2.2309
 1009MOL0     H36153   4.461   5.668   0.183 -1.2625 -0.0170 -1.0633
 1009MOL0     H36154   4.515   5.875   0.047  0.3254  1.5925 -1.1968
 1009MOL0     H36155   4.399   5.970   0.141 -1.9948 -0.5193 -1.1688
 1009MOL0     H36156   4.318   5.709   0.009  0.2598 -1.0185 -0.5416
 1009MOL0     H36157   4.211   5.850   0.043  0.6737  0.7400 -0.4070
 1009MOL0     H36158   4.291   5.980  -0.144 -0.6400 -0.6447  0.9731
 1009MOL0     H36159   4.419   5.857  -0.189  0.8756 -2.4306  1.1652
 1009MOL0     H36160   4.262   5.689  -0.208 -0.5806 -0.2302  0.2388
 1009MOL0     H36161   4.123   5.781  -0.171 -0.4561 -3.1514 -0.0670
 1009MOL0     H36162   4.219   5.717  -0.415 -2.1163 -0.1155 -0.8563
 1009MOL0     H36163   4.286   5.870  -0.417  0.6392 -0.5580  0.7493
 1009MOL0     H36164   4.046   5.827  -0.518  0.1862  0.7320 -0.2520
 1009MOL0     H36165   4.000   5.865  -0.347 -1.7331  0.5285 -1.2696
 1009MOL0     H36166   4.075   6.130  -0.270 -1.5297 -0.8877 -0.2031
 1009MOL0     H36167   4.195   6.440  -0.449  0.0689  1.0241  1.7071
 1009MOL0     H36168   4.030   6.387  -0.380  0.1006 -0.6569 -2.3391
 1009MOL0     H36169   4.166   6.491  -0.217  4.8693 -0.0881  2.0337
 1009MOL0     H36170   4.153   6.313  -0.177  4.2065 -1.0866  0.6560
 1009MOL0     H36171   4.388   6.451  -0.302  4.1590 -1.9474 -0.4670
 1009MOL0     H36172   4.364   6.280  -0.289  1.8499 -0.5329 -0.0501
 1009MOL0     H36173   4.515   6.398  -0.114 -0.2856  0.7316  1.6962
 1009MOL0     H36174   4.395   6.299  -0.044 -0.0591 -1.6680 -3.0856
 1009MOL0     H36175   4.247   6.712   0.067  0.2466  2.2037  2.2317
 1009MOL0     H36176   4.316   6.808   0.261  2.7761  0.4546 -1.1463
 1009MOL0     H36177   4.485   6.709   0.757  0.6433  1.2604  4.0318
 1009MOL0     H36178   4.581   6.847   0.938 -1.1012  1.8223 -1.5507
 1009MOL0     H36179   4.724   7.096   0.893  3.3113 -1.1739 -2.4776
 1009MOL0     H36180   4.690   7.008   1.040 -0.0930  0.0878 -0.9317
 1009MOL0     H36181   4.910   7.081   1.139  3.4519  1.2000 -2.1583
 1009MOL0     H36182   4.928   7.192   1.010 -0.2937 -3.9175 -2.6077
 1009MOL0     H36183   4.697   7.274   1.064  0.2197  2.3338  1.5370
 1009MOL0     H36184   4.717   7.184   1.218 -0.0993  1.3669  0.7213
 1009MOL0     H36185   4.893   7.403   1.108 -0.2564  0.8657  0.9892
 1009MOL0     H36186   4.933   7.328   1.260 -0.2609  1.8444  2.4440
 1009MOL0     H36187   4.675   7.476   1.192 -0.9579 -0.3096  1.8377
 1009MOL0     H36188   4.803   7.548   1.282 -0.8504  0.9861 -2.9751
 1009MOL0     H36189   4.635   7.473   1.436  1.1629  1.2277  1.3089
 1009MOL0     H36190   4.625   7.307   1.354  0.3905  0.9063 -1.7269
 1009MOL0     H36191   4.855   7.431   1.515  0.2986  0.1241 -1.2654
 1009MOL0     H36192   4.843   7.257   1.464 -0.2882 -0.3127  0.0317
 1009MOL0     H36193   4.779   7.277   1.690 -1.3297  0.6051 -0.0772
 1009MOL0     H36194   4.662   7.407   1.641  3.1731  2.0076 -0.3538
 1009MOL0     H36195   4.955   6.854   0.719  0.2819 -1.1983  0.9114
 1009MOL0     H36196   4.847   6.736   0.520 -2.3904 -1.9366 -1.1669
 1009MOL0     H36197   4.604   6.484   0.319  2.0691  2.4190 -0.2476
 1009MOL0     H36198   4.559   6.419   0.096  0.3731  2.2634 -1.4418
 1009MOL0     H36199   4.585   5.559   0.629 -0.2117 -0.3256  3.0906
 1009MOL0     H36200   4.676   5.600   0.827 -1.5190 -0.3113  0.0177
 1009MOL0     H36201   4.704   6.003   1.085 -2.1156 -2.6778  0.4217
 1009MOL0     H36202   4.733   6.134   1.262  1.0666 -0.1054 -2.0723
 1009MOL0     H36203   4.640   6.164   1.485  3.0125  1.8231 -2.4828
 1009MOL0     H36204   4.759   6.230   1.581 -0.3691  1.4474 -0.8768
 1009MOL0     H36205   4.551   6.112   1.703  1.2915 -0.9386  1.1681
 1009MOL0     H36206   4.700   6.058   1.775  2.2601  0.5300 -0.9310
 1009MOL0     H36207   4.698   5.867   1.712  1.1517  2.4069  0.7463
 1009MOL0     H36208   4.589   5.879   1.567 -0.6685 -0.7549 -0.0861
 1009MOL0     H36209   4.535   5.904   1.862 -0.3914 -1.4986  0.3684
 1009MOL0     H36210   4.406   5.951   1.748  0.0414  0.9515 -0.0357
 1009MOL0     H36211   4.433   5.522   1.726 -2.8604 -0.3968 -0.3204
 1009MOL0     H36212   4.878   5.816   1.496  0.9597  0.3559 -1.1551
 1009MOL0     H36213   4.869   5.560   1.229  0.0525  1.6675 -2.7935
 1009MOL0     H36214   5.028   5.633   1.263 -0.5158  1.4564  0.3852
 1009MOL0     H36215   4.941   5.600   1.394 -0.9349  0.4371 -0.1929
 1010MOL0     O36216   8.145   0.332  10.199  0.2384  0.0413 -0.3246
 1010MOL0     C36217   8.241   0.396  10.251  0.0047 -0.1934 -0.4977
 1010MOL0     O36218   8.331   0.341  10.340  0.2646  0.8236 -0.5617
 1010MOL0     C36219   8.322   0.204  10.351  0.3596  0.3881  0.0234
 1010MOL0     C36220   8.398   0.105  10.278  0.5005 -0.1801 -0.7131
 1010MOL0     C36221   8.367  -0.031  10.303  0.0984 -0.1646  1.2995
 1010MOL0     C36222   8.280  -0.084  10.395  0.2681 -0.3089  0.5832
 1010MOL0     O36223   8.268  -0.219  10.435  0.4984  0.0815 -0.9003
 1010MOL0     C36224   8.389  -0.292  10.434  0.3553  0.0058 -0.9307
 1010MOL0     C36225   8.370  -0.423  10.493  0.0160  0.3388 -0.2546
 1010MOL0     C36226   8.496  -0.489  10.534  0.2254  0.5610 -0.3546
 1010MOL0     C36227   8.467  -0.607  10.631  0.4754 -0.1623 -0.5664
 1010MOL0     C36228   8.597  -0.690  10.659  0.0942 -0.8990 -0.0104
 1010MOL0     C36229   8.591  -0.777  10.785  0.4371 -0.2716  0.8725
 1010MOL0     C36230   8.685  -0.902  10.786  0.6302  0.3893  0.2310
 1010MOL0     C36231   8.698  -0.961  10.932 -0.0234  0.3565 -1.2808
 1010MOL0     N36232   8.572  -1.025  10.973 -0.9815  1.1120 -0.4489
 1010MOL0     C36233   8.516  -1.148  10.925  0.1105 -0.3411  0.5884
 1010MOL0     C36234   8.401  -1.168  11.002  0.6065  0.2167  0.7003
 1010MOL0     C36235   8.283  -1.260  10.990 -1.4529 -0.4421 -0.0451
 1010MOL0     C36236   8.142  -1.200  10.947 -0.3934 -0.3812  0.1889
 1010MOL0     C36237   8.056  -1.162  11.067  0.2049  0.5964  0.2867
 1010MOL0     C36238   8.057  -1.010  11.079  0.1574  0.9477 -0.1781
 1010MOL0     O36239   8.005  -0.978  11.205 -0.4316  0.4593 -0.0181
 1010MOL0     C36240   8.013  -0.855  11.255 -0.5394  0.5834  0.0072
 1010MOL0     C36241   8.121  -0.837  11.348  0.6842 -0.0259 -0.0969
 1010MOL0     C36242   8.118  -0.723  11.426 -1.0480  0.2691  0.2264
 1010MOL0     C36243   8.022  -0.628  11.412 -0.3013 -0.6530  0.5342
 1010MOL0     C36244   8.039  -0.498  11.483  0.2389 -0.6544  1.0328
 1010MOL0     O36245   8.172  -0.445  11.477  0.1551 -0.6876  1.1253
 1010MOL0     C36246   8.208  -0.338  11.548 -0.3383 -0.0210  1.0640
 1010MOL0     C36247   8.134  -0.229  11.572  0.3485 -0.8411 -0.3422
 1010MOL0     C36248   8.173  -0.124  11.659 -0.5353 -0.4569 -0.4301
 1010MOL0     C36249   8.289  -0.129  11.735  0.0776 -0.0003 -0.6143
 1010MOL0     O36250   8.323  -0.041  11.833  0.1254  0.3371  0.3621
 1010MOL0     C36251   8.398  -0.070  11.952 -0.5153  0.7223 -0.4472
 1010MOL0     C36252   8.334  -0.181  12.038  0.1323  0.1673  0.1139
 1010MOL0     C36253   8.391  -0.191  12.188 -0.5660 -0.2871 -0.4797
 1010MOL0     C36254   8.312  -0.283  12.282 -0.5752  0.3531  0.8298
 1010MOL0     C36255   8.365  -0.304  12.429  0.2042  0.0001  0.2003
 1010MOL0     C36256   8.473  -0.419  12.430 -0.0803 -0.1437  0.0208
 1010MOL0     C36257   8.425  -0.562  12.375 -0.8198  0.0686 -0.8058
 1010MOL0     C36258   8.548  -0.631  12.312 -0.2080 -0.2267 -0.2042
 1010MOL0    Cl36259   8.509  -0.793  12.257  0.3023 -0.1811  0.1462
 1010MOL0     C36260   8.365  -0.249  11.715 -0.1113 -0.1715 -0.2101
 1010MOL0     C36261   8.333  -0.348  11.623  0.8350  1.1987  0.7274
 1010MOL0     O36262   7.941  -0.445  11.529  0.0947  0.1989 -0.3014
 1010MOL0     C36263   7.913  -0.647  11.329  0.2742  0.7913  0.1890
 1010MOL0     C36264   7.914  -0.755  11.248  0.9543  0.8252 -0.5412
 1010MOL0     N36265   8.401  -1.070  11.098  0.8073  0.3109 -0.0813
 1010MOL0     N36266   8.501  -0.989  11.086  0.0317  0.2613  0.2508
 1010MOL0     C36267   8.213   0.012  10.470  0.2862 -0.5976 -0.2766
 1010MOL0     C36268   8.233   0.151  10.450  1.0969 -0.6897 -0.1948
 1010MOL0     C36269   8.244   0.543  10.240  0.0555 -0.7105  0.5895
 1010MOL0     C36270   8.342   0.620  10.307 -0.0027  0.2018 -0.5340
 1010MOL0     C36271   8.337   0.761  10.322 -0.2214 -0.5288 -0.6113
 1010MOL0     C36272   8.232   0.832  10.256 -0.5325  0.2375 -0.1781
 1010MOL0     O36273   8.215   0.964  10.268 -0.3341 -0.4389 -0.1258
 1010MOL0     C36274   8.285   1.039  10.369 -0.6614 -1.1247  1.3984
 1010MOL0     C36275   8.237   1.179  10.367  0.2521 -0.4824 -0.6920
 1010MOL0     C36276   8.275   1.259  10.487  0.6729 -0.2438 -0.4969
 1010MOL0     C36277   8.251   1.415  10.470 -0.2278  0.6871 -1.3991
 1010MOL0     C36278   8.333   1.473  10.363  0.7500 -0.7986 -0.5109
 1010MOL0     C36279   8.411   1.529  10.291 -0.2579  0.3687  0.1548
 1010MOL0     C36280   8.151   0.754  10.169 -0.5118  0.2157  0.3247
 1010MOL0     C36281   8.151   0.613  10.159  0.3797  0.0293 -0.8609
 1010MOL0     C36282   8.041   0.563  10.062 -0.0245 -1.0737  0.2077
 1010MOL0     H36283   8.473   0.132  10.204 -1.3725 -0.3568 -2.7655
 1010MOL0     H36284   8.413  -0.101  10.235 -2.3572 -0.0663 -0.5805
 1010MOL0     H36285   8.416  -0.298  10.328 -0.4451 -0.3911 -1.1198
 1010MOL0     H36286   8.478  -0.244  10.476  0.0011  1.0141 -1.2915
 1010MOL0     H36287   8.322  -0.489  10.420 -1.3318  1.7879 -0.7500
 1010MOL0     H36288   8.304  -0.402  10.578 -1.8457 -1.1541 -1.2411
 1010MOL0     H36289   8.564  -0.417  10.582  2.1546 -0.4489 -1.4212
 1010MOL0     H36290   8.557  -0.509  10.445  0.2861 -0.5202 -0.0901
 1010MOL0     H36291   8.409  -0.566  10.714  1.1241 -0.3065 -0.0357
 1010MOL0     H36292   8.398  -0.668  10.572 -3.2261  2.9128  0.1439
 1010MOL0     H36293   8.632  -0.742  10.569 -0.5400  3.9415 -3.4867
 1010MOL0     H36294   8.682  -0.624  10.679  1.0151 -2.3013  0.9319
 1010MOL0     H36295   8.591  -0.704  10.866  0.4193  0.6380  0.0776
 1010MOL0     H36296   8.491  -0.822  10.782 -1.1284  2.9443  0.2745
 1010MOL0     H36297   8.785  -0.875  10.752  0.1910  2.0549  0.1914
 1010MOL0     H36298   8.657  -0.978  10.712  2.1651 -0.7874  0.7887
 1010MOL0     H36299   8.768  -1.046  10.926  0.9916  1.2447 -2.7366
 1010MOL0     H36300   8.729  -0.882  11.000 -1.6967 -0.0235 -0.0297
 1010MOL0     H36301   8.553  -1.216  10.850 -3.4779 -0.8050 -0.9795
 1010MOL0     H36302   8.320  -1.328  10.913  4.4525  0.0557  1.9005
 1010MOL0     H36303   8.281  -1.319  11.082  0.6501 -2.9881 -1.4778
 1010MOL0     H36304   8.162  -1.118  10.878  0.6715 -0.5942  0.2275
 1010MOL0     H36305   8.113  -1.294  10.899  1.5595 -1.7869  1.6015
 1010MOL0     H36306   8.108  -1.204  11.153  0.1438  2.3109  1.2035
 1010MOL0     H36307   7.956  -1.206  11.065 -0.2029  1.5046  0.0636
 1010MOL0     H36308   7.998  -0.967  10.998 -1.9126  1.8097  1.6737
 1010MOL0     H36309   8.158  -0.966  11.071  0.5611 -0.1439 -1.3171
 1010MOL0     H36310   8.194  -0.914  11.370  0.8973 -0.0792 -0.9687
 1010MOL0     H36311   8.205  -0.709  11.489 -1.3671  0.3343  0.6534
 1010MOL0     H36312   8.036  -0.220  11.526  0.1869 -3.2351 -0.5900
 1010MOL0     H36313   8.102  -0.044  11.680 -1.1831 -1.0009 -0.5016
 1010MOL0     H36314   8.501  -0.104  11.939 -0.1741  0.4929  2.3135
 1010MOL0     H36315   8.396   0.017  12.018 -2.2451  0.8761 -0.6694
 1010MOL0     H36316   8.225  -0.171  12.044  0.0203 -1.2853  0.7062
 1010MOL0     H36317   8.352  -0.279  11.994  1.3592 -1.0472  3.1014
 1010MOL0     H36318   8.496  -0.219  12.174  0.1474 -0.0037  3.1369
 1010MOL0     H36319   8.402  -0.093  12.236  1.6509 -0.7838  0.1598
 1010MOL0     H36320   8.280  -0.376  12.236 -1.0037  0.9771 -0.1569
 1010MOL0     H36321   8.213  -0.236  12.286 -1.5258 -1.2511 -1.6802
 1010MOL0     H36322   8.280  -0.335  12.491 -0.4941 -0.9569 -1.1693
 1010MOL0     H36323   8.412  -0.211  12.462  0.1197 -0.1091  0.6362
 1010MOL0     H36324   8.548  -0.370  12.367 -1.5617 -0.5296 -2.1110
 1010MOL0     H36325   8.514  -0.444  12.529 -0.8148 -4.4138 -0.5896
 1010MOL0     H36326   8.342  -0.560  12.303  0.7366  0.9469 -2.6466
 1010MOL0     H36327   8.389  -0.623  12.458  3.6498 -2.8557 -0.6850
 1010MOL0     H36328   8.571  -0.571  12.223 -0.0788  2.1002  1.3067
 1010MOL0     H36329   8.636  -0.610  12.373 -0.1456  0.6468 -0.5839
 1010MOL0     H36330   8.460  -0.251  11.767  2.1503  0.2173 -3.9192
 1010MOL0     H36331   8.394  -0.438  11.614 -3.3956 -1.8283 -0.8639
 1010MOL0     H36332   7.837  -0.572  11.310  0.9959  1.6944  0.8104
 1010MOL0     H36333   7.827  -0.768  11.184  0.6895  3.7133 -0.9179
 1010MOL0     H36334   8.150  -0.011  10.555 -0.0806 -0.0449 -0.3875
 1010MOL0     H36335   8.182   0.210  10.526 -1.7110 -0.2046 -2.2967
 1010MOL0     H36336   8.422   0.565  10.354 -1.1258 -1.4677 -0.5105
 1010MOL0     H36337   8.411   0.819  10.376  2.8492 -3.8473 -0.9333
 1010MOL0     H36338   8.389   1.060  10.342 -1.0289  1.8732  2.0323
 1010MOL0     H36339   8.271   0.992  10.467 -1.7947  1.7048  2.6960
 1010MOL0     H36340   8.129   1.178  10.377  0.1167  0.7985 -1.6584
 1010MOL0     H36341   8.269   1.226  10.273  1.5196  2.3465  1.0181
 1010MOL0     H36342   8.383   1.259  10.502  0.3483 -1.7335  2.9625
 1010MOL0     H36343   8.234   1.218  10.581  1.9234 -0.9568 -0.2461
 1010MOL0     H36344   8.155   1.417  10.418  0.0450 -0.8437 -2.0217
 1010MOL0     H36345   8.248   1.466  10.567 -2.7974 -0.3443 -0.8560
 1010MOL0     H36346   8.503   1.557  10.243 -1.3132  1.5720 -1.2448
 1010MOL0     H36347   8.093   0.816  10.102 -3.4212  0.3696  2.7658
 1010MOL0     H36348   7.947   0.539  10.114 -0.8277  2.1804  0.4714
 1010MOL0     H36349   8.018   0.647   9.996 -0.6203 -0.9787  0.5233
 1010MOL0     H36350   8.071   0.479   9.999 -1.3765 -0.2335 -1.6601
 1011MOL0     O36351   6.669  10.860   1.285 -0.7695  0.1224 -0.2107
 1011MOL0     C36352   6.752  10.836   1.188  0.7367  0.5925 -0.9526
 1011MOL0     O36353   6.730  10.821   1.064  0.3700  0.1980 -0.3294
 1011MOL0     C36354   6.606  10.798   1.010  0.1529  0.2050 -0.2772
 1011MOL0     C36355   6.570  10.672   0.970  0.0317 -0.4058 -0.7071
 1011MOL0     C36356   6.454  10.652   0.910  1.0353  0.4830 -0.0083
 1011MOL0     C36357   6.359  10.748   0.889 -0.2954  0.0155 -0.4332
 1011MOL0     O36358   6.234  10.715   0.844  0.2962  0.1710  0.2304
 1011MOL0     C36359   6.194  10.789   0.722 -0.0836  0.2560  0.1827
 1011MOL0     C36360   6.053  10.739   0.698 -0.0170 -0.0901  0.7942
 1011MOL0     C36361   5.953  10.801   0.789  0.3230  0.7003 -1.0334
 1011MOL0     C36362   5.844  10.706   0.846  0.2120 -0.5467  0.3284
 1011MOL0     C36363   5.895  10.579   0.902 -0.5699  0.6066 -0.2104
 1011MOL0     C36364   5.821  10.531   1.024  0.0227 -0.0551 -0.3683
 1011MOL0     C36365   5.893  10.423   1.104  0.8165 -0.2436 -0.8934
 1011MOL0     C36366   5.845  10.404   1.247  0.3865 -0.2269 -0.5881
 1011MOL0     N36367   5.910  10.288   1.298 -0.0978  0.4523  0.1596
 1011MOL0     C36368   5.873  10.156   1.291  0.3301  0.0632 -0.3612
 1011MOL0     C36369   5.940  10.098   1.397 -1.1353  0.1602 -0.6619
 1011MOL0     C36370   5.938   9.951   1.416 -0.4910  0.3351  0.5905
 1011MOL0     C36371   6.084   9.890   1.408  0.4501  0.1870 -0.4385
 1011MOL0     C36372   6.073   9.746   1.373 -1.3748  0.7738 -0.5959
 1011MOL0     C36373   6.203   9.666   1.404 -0.0325 -0.4776 -0.4326
 1011MOL0     O36374   6.275   9.650   1.284  0.2394 -0.4942 -0.6704
 1011MOL0     C36375   6.357   9.538   1.278  0.0729  0.1774 -0.4386
 1011MOL0     C36376   6.337   9.456   1.164  0.4333  0.5286  0.6875
 1011MOL0     C36377   6.402   9.332   1.150  0.5976 -0.2674 -0.5439
 1011MOL0     C36378   6.485   9.286   1.254 -1.5346  1.0516 -0.3410
 1011MOL0     C36379   6.542   9.152   1.257 -0.2020 -0.0824 -0.4136
 1011MOL0     O36380   6.581   9.098   1.379  0.0051 -0.7984  0.6123
 1011MOL0     C36381   6.632   8.977   1.376  0.0391 -0.0491  0.2970
 1011MOL0     C36382   6.552   8.866   1.347 -0.3437  0.4167  0.3341
 1011MOL0     C36383   6.614   8.737   1.361 -0.3796 -0.5543 -0.4328
 1011MOL0     C36384   6.747   8.722   1.383 -0.0497  0.9155 -0.2873
 1011MOL0     O36385   6.809   8.606   1.424  0.5201 -0.0031  0.3987
 1011MOL0     C36386   6.717   8.508   1.475 -0.1750  0.0748 -0.2389
 1011MOL0     C36387   6.786   8.369   1.503  0.3771 -0.9281  1.3480
 1011MOL0     C36388   6.916   8.381   1.582 -0.3762 -0.0934  1.1056
 1011MOL0     C36389   6.998   8.251   1.563  1.2278 -0.4223  0.8540
 1011MOL0     C36390   6.923   8.114   1.561  0.0591  0.4194 -0.1965
 1011MOL0     C36391   6.863   8.074   1.693  0.3029  0.2592 -0.3027
 1011MOL0     C36392   6.808   7.926   1.701 -1.0324 -0.3507 -0.0977
 1011MOL0     C36393   6.675   7.926   1.771 -0.1453  0.6881 -0.1264
 1011MOL0    Cl36394   6.694   7.997   1.929 -0.0664 -0.1557 -0.1815
 1011MOL0     C36395   6.829   8.837   1.410 -0.8204 -0.3183 -0.0858
 1011MOL0     C36396   6.767   8.964   1.399  0.3163 -1.1889  0.1034
 1011MOL0     O36397   6.558   9.097   1.151  0.2435  0.1737  0.0101
 1011MOL0     C36398   6.516   9.370   1.368  0.1268  0.2048 -0.1743
 1011MOL0     C36399   6.447   9.493   1.375  0.3498  0.3566 -0.6257
 1011MOL0     N36400   6.017  10.190   1.475  0.5359 -1.2769  0.0579
 1011MOL0     N36401   5.992  10.300   1.407  0.3910  0.5260  0.0613
 1011MOL0     C36402   6.404  10.887   0.929 -0.7311 -0.2404  0.0581
 1011MOL0     C36403   6.522  10.914   0.997  0.7501 -0.1363  0.0073
 1011MOL0     C36404   6.895  10.826   1.232  0.2854  0.2553  0.2857
 1011MOL0     C36405   6.978  10.761   1.143 -0.2825  0.0892 -0.0823
 1011MOL0     C36406   7.119  10.756   1.152  0.4397 -0.7740 -0.0219
 1011MOL0     C36407   7.187  10.820   1.256  0.1531  0.2219 -0.7494
 1011MOL0     O36408   7.322  10.814   1.265 -0.2851 -0.0186 -0.3018
 1011MOL0     C36409   7.395  10.828   1.385  0.3977  0.0956 -0.6433
 1011MOL0     C36410   7.549  10.829   1.345 -0.5573  0.0690  0.2734
 1011MOL0     C36411   7.595  10.971   1.286  0.5298  0.1092  0.6564
 1011MOL0     C36412   7.744  10.985   1.251 -0.5672 -0.0967  0.2688
 1011MOL0     C36413   7.828  10.964   1.378 -0.2158  0.6499  1.5980
 1011MOL0     C36414   7.898  10.959   1.477 -1.0455  0.7537  0.3782
 1011MOL0     C36415   7.099  10.893   1.342 -0.0239  0.3687 -0.0440
 1011MOL0     C36416   6.957  10.904   1.325 -0.4909  0.9135 -0.0884
 1011MOL0     C36417   6.898  11.016   1.400  0.2621  0.1382 -0.1160
 1011MOL0     H36418   6.640  10.589   0.980  0.5393  0.1871  1.0844
 1011MOL0     H36419   6.433  10.553   0.869  0.9394  0.1687  0.7817
 1011MOL0     H36420   6.195  10.895   0.747  1.5459 -0.0407  1.5350
 1011MOL0     H36421   6.262  10.769   0.639 -0.0990 -4.5290  1.0309
 1011MOL0     H36422   6.055  10.630   0.701  1.5214 -0.3081 -2.8079
 1011MOL0     H36423   6.019  10.765   0.597 -1.7313  0.2583  1.4329
 1011MOL0     H36424   5.893  10.875   0.734 -1.2886  2.0248  2.1850
 1011MOL0     H36425   5.995  10.858   0.872 -2.5131  0.8024  0.4798
 1011MOL0     H36426   5.790  10.758   0.926  1.0359  0.1193  0.4699
 1011MOL0     H36427   5.776  10.680   0.764 -1.7341  1.6756  1.1065
 1011MOL0     H36428   5.891  10.492   0.836 -0.4920  0.2127  0.3025
 1011MOL0     H36429   6.000  10.589   0.930 -0.0495 -2.5244 -0.7234
 1011MOL0     H36430   5.828  10.608   1.102  2.2086 -1.6847  1.1791
 1011MOL0     H36431   5.716  10.506   1.008  0.4289 -2.9150  0.7383
 1011MOL0     H36432   6.002  10.437   1.099  0.9464  0.1029  1.4131
 1011MOL0     H36433   5.863  10.329   1.056  2.0944 -0.2138 -1.7874
 1011MOL0     H36434   5.866  10.496   1.302  1.5571 -0.3882 -0.7442
 1011MOL0     H36435   5.736  10.391   1.249  0.5269 -1.5651 -0.4122
 1011MOL0     H36436   5.796  10.116   1.227 -1.2968 -2.8038  3.0304
 1011MOL0     H36437   5.884   9.925   1.508 -2.3474  0.8283 -0.3064
 1011MOL0     H36438   5.876   9.902   1.341  2.7934 -2.7956 -0.3623
 1011MOL0     H36439   6.145   9.943   1.334 -2.4083 -0.8199 -3.7421
 1011MOL0     H36440   6.121   9.898   1.511 -0.5560 -1.3645  0.0674
 1011MOL0     H36441   6.053   9.742   1.266  2.4353 -1.5305 -1.4276
 1011MOL0     H36442   5.991   9.694   1.424 -0.6915 -1.7738 -1.9580
 1011MOL0     H36443   6.192   9.568   1.450  1.1829 -0.0324  0.9076
 1011MOL0     H36444   6.272   9.722   1.468  0.1941 -1.3489  0.1019
 1011MOL0     H36445   6.268   9.482   1.085  0.4288 -3.2998 -0.7521
 1011MOL0     H36446   6.379   9.270   1.064 -3.0951 -0.9110  0.7356
 1011MOL0     H36447   6.446   8.886   1.334  0.3370  3.3455 -1.7952
 1011MOL0     H36448   6.540   8.661   1.340  1.1746 -2.9449  2.1415
 1011MOL0     H36449   6.673   8.537   1.571 -2.1887  1.1252 -1.4339
 1011MOL0     H36450   6.641   8.487   1.399 -0.6568  0.9152 -0.0068
 1011MOL0     H36451   6.722   8.290   1.543  1.8274 -1.0008  3.7076
 1011MOL0     H36452   6.803   8.342   1.398  1.7182  1.1928  0.9578
 1011MOL0     H36453   6.971   8.472   1.556  0.8920 -0.8625  1.0214
 1011MOL0     H36454   6.888   8.385   1.687 -2.2929 -4.4887  1.0029
 1011MOL0     H36455   7.079   8.247   1.637 -1.8308 -1.1681  4.4806
 1011MOL0     H36456   7.039   8.260   1.462 -1.2298  4.5312 -0.0279
 1011MOL0     H36457   6.992   8.033   1.538  0.9087  0.5785  1.5490
 1011MOL0     H36458   6.847   8.121   1.484  1.3430  0.2620 -1.5270
 1011MOL0     H36459   6.920   8.093   1.784  0.4874  1.5687 -0.6706
 1011MOL0     H36460   6.774   8.138   1.688  0.3782  0.2726 -2.1312
 1011MOL0     H36461   6.873   7.855   1.753 -2.8698 -1.7038  0.4609
 1011MOL0     H36462   6.796   7.900   1.595 -0.4352  0.1604 -0.2979
 1011MOL0     H36463   6.611   7.991   1.712 -2.0790 -0.6599  0.3900
 1011MOL0     H36464   6.629   7.827   1.768  0.0949  0.4581  2.0488
 1011MOL0     H36465   6.933   8.823   1.436 -0.0353  0.6706 -2.4269
 1011MOL0     H36466   6.832   9.051   1.396 -1.9066  0.7238  2.5150
 1011MOL0     H36467   6.570   9.343   1.458 -2.1127 -0.8158  0.9282
 1011MOL0     H36468   6.460   9.548   1.468  0.3493 -3.4984  1.8826
 1011MOL0     H36469   6.338  10.967   0.899 -0.4302  0.4379  1.1474
 1011MOL0     H36470   6.549  11.014   1.029  0.8978 -0.9002  2.5272
 1011MOL0     H36471   6.939  10.698   1.063 -0.0059 -1.8222  1.2182
 1011MOL0     H36472   7.165  10.693   1.076 -0.6792 -2.3927  0.5844
 1011MOL0     H36473   7.372  10.750   1.458  1.5377  0.3746  0.0422
 1011MOL0     H36474   7.371  10.918   1.442  0.7284 -1.9330  2.9296
 1011MOL0     H36475   7.557  10.748   1.273 -2.3348  0.1299 -0.0420
 1011MOL0     H36476   7.615  10.804   1.429 -1.3507  1.1958  1.2628
 1011MOL0     H36477   7.568  11.050   1.357 -0.3529  0.4137  0.0128
 1011MOL0     H36478   7.542  10.987   1.191  0.4104 -3.2073  0.0396
 1011MOL0     H36479   7.777  10.897   1.194 -2.9209 -0.8358 -0.0437
 1011MOL0     H36480   7.767  11.066   1.182  0.8350 -1.0337 -0.4225
 1011MOL0     H36481   7.952  10.957   1.570  2.0735  2.1870 -1.2587
 1011MOL0     H36482   7.135  10.970   1.409  1.3306  1.2966 -1.7771
 1011MOL0     H36483   6.854  10.983   1.495 -1.6031  0.3785 -0.8499
 1011MOL0     H36484   6.971  11.095   1.418  1.5148 -1.0116 -0.0332
 1011MOL0     H36485   6.827  11.057   1.328 -0.5503 -0.1733  0.4911
 1012MOL0     O36486   6.807   9.524   9.155  0.0458  0.8180  0.0350
 1012MOL0     C36487   6.827   9.413   9.218 -0.0924 -0.2485 -0.3713
 1012MOL0     O36488   6.869   9.406   9.349 -0.3331  0.1598  0.1043
 1012MOL0     C36489   6.911   9.521   9.426 -0.0060  0.4140  0.5012
 1012MOL0     C36490   7.038   9.515   9.486 -0.8814  0.3510 -0.3388
 1012MOL0     C36491   7.096   9.629   9.550  0.4461 -0.1409 -0.3940
 1012MOL0     C36492   7.019   9.750   9.563 -0.6072 -0.9249  0.5023
 1012MOL0     O36493   7.067   9.853   9.645 -0.5125 -0.2630 -0.1585
 1012MOL0     C36494   7.106   9.816   9.783 -0.0739 -0.2883  0.2366
 1012MOL0     C36495   7.020   9.898   9.885 -0.1135  0.1832  0.1656
 1012MOL0     C36496   7.030  10.053   9.865  0.4822 -0.0678 -0.2999
 1012MOL0     C36497   6.951  10.125   9.982 -0.1382 -1.2593 -0.3661
 1012MOL0     C36498   6.938  10.285   9.963  0.8698 -0.2063  0.5872
 1012MOL0     C36499   7.055  10.367   9.909 -0.1385 -0.4216  0.8467
 1012MOL0     C36500   7.019  10.504   9.886 -1.1016 -0.8321  0.6180
 1012MOL0     C36501   7.152  10.599   9.858 -0.0377  0.6101 -0.5049
 1012MOL0     N36502   7.125  10.745   9.862  0.7325  0.1393 -0.0532
 1012MOL0     C36503   7.132  10.833   9.968  0.1239  0.5080  0.3074
 1012MOL0     C36504   7.092  10.949   9.928  0.3257 -0.6919 -0.2419
 1012MOL0     C36505   7.084  11.084   9.997 -0.1465  0.2156 -0.2815
 1012MOL0     C36506   6.943  11.131  10.018  0.3008 -0.6600  0.2889
 1012MOL0     C36507   6.937  11.280  10.072 -0.1234  0.2793  0.5758
 1012MOL0     C36508   6.987  11.312  10.215 -0.4263  0.7480 -0.1315
 1012MOL0     O36509   7.131  11.307  10.234  0.3401  0.5213  0.8669
 1012MOL0     C36510   7.187  11.350  10.351 -0.2595  0.5022  0.2678
 1012MOL0     C36511   7.324  11.388  10.341 -0.4630  0.0403  0.4854
 1012MOL0     C36512   7.392  11.439  10.463  0.4248 -0.6651  0.6957
 1012MOL0     C36513   7.319  11.434  10.583 -0.5624 -0.9966 -1.5928
 1012MOL0     C36514   7.381  11.479  10.716 -0.4165 -0.0270 -0.2494
 1012MOL0     O36515   7.491  11.567  10.703  0.3040 -0.1583 -0.0861
 1012MOL0     C36516   7.568  11.619  10.805 -0.5756 -0.4514 -0.2369
 1012MOL0     C36517   7.646  11.734  10.787 -0.0247 -0.2042 -1.0475
 1012MOL0     C36518   7.732  11.779  10.893 -0.1990 -0.8544 -0.2930
 1012MOL0     C36519   7.745  11.708  11.015 -0.3642 -0.2765 -0.2020
 1012MOL0     O36520   7.822  11.748  11.123  0.6244 -0.6920 -0.8080
 1012MOL0     C36521   7.798  11.882  11.170 -0.6229  0.8576  0.5897
 1012MOL0     C36522   7.848  11.890  11.308 -0.6567  0.2645  0.7868
 1012MOL0     C36523   7.818  12.018  11.390 -0.0192  0.4048  0.3256
 1012MOL0     C36524   7.943  12.105  11.420  0.5189 -0.0340 -0.3935
 1012MOL0     C36525   8.007  12.160  11.295  0.6259 -0.0357  1.5209
 1012MOL0     C36526   8.119  12.259  11.315  0.3704 -0.5651 -1.0219
 1012MOL0     C36527   8.185  12.281  11.187 -0.1453 -1.5309 -0.0669
 1012MOL0     C36528   8.290  12.387  11.209  0.4579  0.1029 -0.1474
 1012MOL0    Cl36529   8.297  12.490  11.060 -0.0079  0.8109 -0.2763
 1012MOL0     C36530   7.666  11.595  11.035 -0.3363 -0.6439 -0.1363
 1012MOL0     C36531   7.581  11.553  10.930 -0.2871  0.4606 -0.1414
 1012MOL0     O36532   7.340  11.438  10.824  0.4682 -0.0880  0.1214
 1012MOL0     C36533   7.192  11.387  10.590 -1.0012  0.7853  0.7796
 1012MOL0     C36534   7.121  11.354  10.472  0.5304 -0.1153  0.6893
 1012MOL0     N36535   7.074  10.933   9.795  0.1771  0.3536  0.5506
 1012MOL0     N36536   7.093  10.815   9.753 -0.3289 -0.6569 -0.9276
 1012MOL0     C36537   6.902   9.761   9.493  0.6517 -0.1099 -0.4320
 1012MOL0     C36538   6.849   9.652   9.428 -0.7217  0.3854 -0.4821
 1012MOL0     C36539   6.800   9.289   9.137  0.1100 -0.2356 -0.7694
 1012MOL0     C36540   6.840   9.177   9.204  0.9100  0.3659  1.2410
 1012MOL0     C36541   6.813   9.052   9.155  0.3525  0.3484 -0.4425
 1012MOL0     C36542   6.767   9.035   9.021 -0.1260  0.2832 -0.8916
 1012MOL0     O36543   6.753   8.905   8.969 -0.2735 -0.1830 -1.2386
 1012MOL0     C36544   6.753   8.800   9.068  0.0192  0.5323  0.2351
 1012MOL0     C36545   6.680   8.682   8.997 -0.6323  1.1063  0.0802
 1012MOL0     C36546   6.747   8.547   9.040  0.2272 -0.1482 -0.3836
 1012MOL0     C36547   6.711   8.434   8.931  0.5093 -0.6782  0.4617
 1012MOL0     C36548   6.570   8.422   8.891 -0.0761  1.0891 -0.5071
 1012MOL0     C36549   6.459   8.403   8.848  0.3842  0.0716 -0.2884
 1012MOL0     C36550   6.744   9.151   8.951  0.6050  0.2991  0.7772
 1012MOL0     C36551   6.766   9.280   9.004  1.0879  0.3807  0.1535
 1012MOL0     C36552   6.723   9.398   8.916 -0.3690 -0.2940  0.7564
 1012MOL0     H36553   7.108   9.437   9.462  0.8554  2.0537 -1.0718
 1012MOL0     H36554   7.187   9.609   9.606 -0.8604 -1.7169  1.2957
 1012MOL0     H36555   7.100   9.708   9.794  1.6615 -0.3980  0.3488
 1012MOL0     H36556   7.211   9.844   9.794 -0.1273  0.1954 -0.4066
 1012MOL0     H36557   7.072   9.874   9.979  0.5765  1.2249  0.0669
 1012MOL0     H36558   6.913   9.876   9.879 -0.1828  0.8312 -1.3497
 1012MOL0     H36559   6.982  10.087   9.773 -1.8539  2.2508  1.5994
 1012MOL0     H36560   7.133  10.088   9.872 -0.0006  1.1951  1.1652
 1012MOL0     H36561   6.849  10.090   9.996 -1.0488  1.5708  0.9296
 1012MOL0     H36562   7.007  10.129  10.076 -1.7095  3.7748  0.6995
 1012MOL0     H36563   6.868  10.286   9.879  3.2316 -1.2592 -1.5379
 1012MOL0     H36564   6.896  10.333  10.051 -3.3415 -0.1299 -1.2511
 1012MOL0     H36565   7.142  10.355   9.975 -0.2859 -2.5601  0.7504
 1012MOL0     H36566   7.095  10.335   9.812 -2.4892  2.4691 -1.2645
 1012MOL0     H36567   6.957  10.546   9.966 -2.3798 -0.5618 -0.4799
 1012MOL0     H36568   6.958  10.516   9.796 -1.1839  1.7574  0.9317
 1012MOL0     H36569   7.226  10.587   9.937 -1.5220 -1.7302  0.6271
 1012MOL0     H36570   7.190  10.574   9.758  1.8528  0.4732  0.2164
 1012MOL0     H36571   7.176  10.817  10.066 -1.0976 -1.9800  0.5124
 1012MOL0     H36572   7.130  11.073  10.095  1.0594  2.9497 -0.4514
 1012MOL0     H36573   7.136  11.161   9.940  0.5854 -0.5032 -0.5964
 1012MOL0     H36574   6.898  11.138   9.918  1.6095 -1.9850 -0.4399
 1012MOL0     H36575   6.880  11.068  10.081 -1.9339 -0.4873 -1.6169
 1012MOL0     H36576   6.834  11.314  10.062  0.0891  0.6995 -0.2449
 1012MOL0     H36577   6.999  11.338  10.003 -2.1856 -0.4256 -2.0223
 1012MOL0     H36578   6.939  11.243  10.285  2.1254  0.4229  1.4391
 1012MOL0     H36579   6.965  11.418  10.228  1.2750  1.3305 -1.6132
 1012MOL0     H36580   7.366  11.397  10.242 -0.2241 -1.8141  0.3877
 1012MOL0     H36581   7.492  11.482  10.461 -0.3134  1.1612 -0.8467
 1012MOL0     H36582   7.631  11.796  10.700 -0.0551 -1.0688 -1.6739
 1012MOL0     H36583   7.788  11.872  10.882 -0.9534 -0.2561  0.6514
 1012MOL0     H36584   7.871  11.948  11.122  1.5024 -1.8029 -0.0636
 1012MOL0     H36585   7.694  11.916  11.159 -0.7063  2.5569  4.8521
 1012MOL0     H36586   7.799  11.804  11.353 -1.0905  0.6715  1.1032
 1012MOL0     H36587   7.955  11.866  11.310 -0.3434  0.7716 -2.8356
 1012MOL0     H36588   7.749  12.079  11.330 -2.0158 -2.5993 -0.6752
 1012MOL0     H36589   7.770  11.979  11.481  2.3388 -2.5859  0.4408
 1012MOL0     H36590   8.019  12.044  11.470 -0.2935 -0.0873  0.8306
 1012MOL0     H36591   7.919  12.189  11.485 -1.7442  1.2521 -2.6797
 1012MOL0     H36592   7.926  12.215  11.246 -1.0218 -0.7383  3.3168
 1012MOL0     H36593   8.047  12.076  11.239  0.6811  0.5051  0.7360
 1012MOL0     H36594   8.066  12.348  11.351 -0.3470 -0.6653 -1.8126
 1012MOL0     H36595   8.175  12.221  11.401 -2.2736 -0.4234  0.8827
 1012MOL0     H36596   8.108  12.304  11.113  1.4896 -0.0934 -1.3777
 1012MOL0     H36597   8.246  12.194  11.158  4.0490  1.2503 -0.4078
 1012MOL0     H36598   8.257  12.448  11.294 -2.3343 -1.1838 -0.1930
 1012MOL0     H36599   8.380  12.334  11.241 -1.9349 -2.0830  3.9638
 1012MOL0     H36600   7.671  11.535  11.125 -2.3355 -2.7620 -1.3665
 1012MOL0     H36601   7.527  11.463  10.956  1.1156 -0.1948  0.6167
 1012MOL0     H36602   7.139  11.389  10.685 -3.0029  3.7998 -0.2536
 1012MOL0     H36603   7.016  11.328  10.483  0.5204 -0.0971  0.6333
 1012MOL0     H36604   6.841   9.850   9.494 -1.8878 -1.7203 -1.3017
 1012MOL0     H36605   6.762   9.669   9.366 -0.1261  3.0476 -0.7266
 1012MOL0     H36606   6.880   9.191   9.304  4.0764  3.2320 -0.2299
 1012MOL0     H36607   6.843   8.969   9.219  3.7809  2.4434  0.9561
 1012MOL0     H36608   6.691   8.825   9.154  1.0425 -1.1888  1.5559
 1012MOL0     H36609   6.857   8.784   9.100  0.8918  1.2462 -2.0054
 1012MOL0     H36610   6.688   8.691   8.888 -1.4240  1.5608  0.0547
 1012MOL0     H36611   6.573   8.675   9.018 -0.4261 -5.7354  1.2853
 1012MOL0     H36612   6.718   8.525   9.143 -2.9254  2.6335 -0.4991
 1012MOL0     H36613   6.856   8.538   9.042  0.1963 -1.6885 -2.3207
 1012MOL0     H36614   6.763   8.462   8.839 -1.8810 -0.7156 -0.9761
 1012MOL0     H36615   6.744   8.333   8.956 -0.0773 -1.2780 -1.0938
 1012MOL0     H36616   6.359   8.378   8.819 -0.5966  1.5992  1.5377
 1012MOL0     H36617   6.719   9.158   8.846 -0.8298 -3.0895  0.7542
 1012MOL0     H36618   6.670   9.478   8.969  1.6932  0.2531  2.1459
 1012MOL0     H36619   6.814   9.442   8.875 -0.9844 -0.2214 -0.5891
 1012MOL0     H36620   6.664   9.371   8.828 -0.5572  0.9986  0.4553
 1013MOL0     O36621   1.247   7.156  11.176  0.2431 -0.2037 -0.0675
 1013MOL0     C36622   1.320   7.256  11.196 -0.9553  0.6210 -0.2694
 1013MOL0     O36623   1.460   7.251  11.218  0.2204  0.8923 -0.3782
 1013MOL0     C36624   1.524   7.133  11.183 -0.8011  0.2819 -0.6693
 1013MOL0     C36625   1.519   7.103  11.045  1.2495 -0.3182 -0.7904
 1013MOL0     C36626   1.581   6.985  11.002  0.8584 -0.2115 -0.1745
 1013MOL0     C36627   1.640   6.902  11.096 -0.9520 -0.3412  0.2925
 1013MOL0     O36628   1.689   6.782  11.042 -0.1819  0.1041 -0.1893
 1013MOL0     C36629   1.775   6.705  11.119 -0.0833  0.7860 -0.7606
 1013MOL0     C36630   1.829   6.576  11.052 -0.4050 -1.4058  0.3602
 1013MOL0     C36631   1.926   6.611  10.932  0.2072 -0.5792  0.3368
 1013MOL0     C36632   1.949   6.496  10.825  0.5922 -0.6916  0.2115
 1013MOL0     C36633   1.831   6.482  10.728 -0.8864  0.0651 -0.5533
 1013MOL0     C36634   1.869   6.396  10.598 -0.1303 -0.6056  0.3242
 1013MOL0     C36635   1.741   6.363  10.511 -0.3540 -0.4770 -0.4735
 1013MOL0     C36636   1.768   6.272  10.379  0.6693 -0.2789 -0.3575
 1013MOL0     N36637   1.634   6.232  10.340  0.3392 -0.5193  0.2951
 1013MOL0     C36638   1.539   6.305  10.274 -0.5112  0.5357 -0.3597
 1013MOL0     C36639   1.442   6.214  10.245 -0.2991  0.4330  0.1035
 1013MOL0     C36640   1.310   6.242  10.177 -0.6142  0.2832 -1.6450
 1013MOL0     C36641   1.242   6.128  10.107 -0.3323  1.2865 -0.2565
 1013MOL0     C36642   1.179   6.043  10.217  0.0722 -0.1281  0.2162
 1013MOL0     C36643   1.085   5.930  10.157 -0.8488  0.7820  0.0725
 1013MOL0     O36644   1.037   5.846  10.261 -0.7905  0.6217  0.5501
 1013MOL0     C36645   1.112   5.729  10.293 -0.7371  0.3051  0.4109
 1013MOL0     C36646   1.058   5.629  10.385  0.3041  0.1279  0.3850
 1013MOL0     C36647   1.131   5.510  10.416  0.0983 -0.4317  0.6270
 1013MOL0     C36648   1.250   5.472  10.349  0.6994 -0.3849 -1.6417
 1013MOL0     C36649   1.330   5.348  10.375 -0.6810 -0.1338 -0.0035
 1013MOL0     O36650   1.287   5.270  10.470 -0.2742 -0.5774  0.0626
 1013MOL0     C36651   1.364   5.156  10.502 -0.4275 -0.2527 -0.1977
 1013MOL0     C36652   1.423   5.149  10.624  0.7232 -0.0312  0.4638
 1013MOL0     C36653   1.501   5.039  10.671  0.3568 -0.2932 -0.1938
 1013MOL0     C36654   1.520   4.936  10.576  0.7657  0.1759  0.6379
 1013MOL0     O36655   1.595   4.825  10.599  0.5548 -0.2199  0.5889
 1013MOL0     C36656   1.680   4.802  10.715  0.2395  1.3082  0.0770
 1013MOL0     C36657   1.722   4.652  10.699 -0.8039 -0.2549 -0.3060
 1013MOL0     C36658   1.820   4.618  10.814 -0.8042  0.3259  0.3445
 1013MOL0     C36659   1.882   4.477  10.795  0.5613  0.5007  0.5389
 1013MOL0     C36660   2.017   4.467  10.875  0.1663 -0.4423  0.5011
 1013MOL0     C36661   2.130   4.534  10.805 -0.8876 -1.0242 -0.5855
 1013MOL0     C36662   2.197   4.449  10.694 -0.3859 -0.1282 -0.2559
 1013MOL0     C36663   2.317   4.516  10.633  0.6101  0.1278  0.3919
 1013MOL0    Cl36664   2.397   4.402  10.518  0.4756  0.3481 -0.5065
 1013MOL0     C36665   1.448   4.938  10.455 -0.3059  0.0770  0.2076
 1013MOL0     C36666   1.365   5.047  10.422  0.3533  0.3884 -0.2722
 1013MOL0     O36667   1.442   5.345  10.307  0.1548  0.1224  0.3556
 1013MOL0     C36668   1.303   5.562  10.265 -0.0332 -0.0213  0.9500
 1013MOL0     C36669   1.249   5.694  10.242  0.3052 -0.5966 -0.6607
 1013MOL0     N36670   1.482   6.097  10.302  0.5068  0.4977 -0.0395
 1013MOL0     N36671   1.598   6.099  10.345 -0.3731  0.7852  0.0996
 1013MOL0     C36672   1.653   6.932  11.234  0.7369 -0.5226 -0.4442
 1013MOL0     C36673   1.594   7.049  11.270  0.0488 -0.9715 -0.8499
 1013MOL0     C36674   1.242   7.369  11.238  0.2316  0.0066  0.8363
 1013MOL0     C36675   1.286   7.445  11.344 -0.4490 -0.5702 -0.4101
 1013MOL0     C36676   1.211   7.548  11.387 -0.2395  0.4764 -0.6778
 1013MOL0     C36677   1.086   7.596  11.330 -0.4022  0.4487  0.1835
 1013MOL0     O36678   1.012   7.699  11.380 -0.1867 -0.4934 -0.0073
 1013MOL0     C36679   1.019   7.718  11.515  0.9328 -0.1396 -0.5076
 1013MOL0     C36680   0.907   7.623  11.578  0.9802  0.2927 -0.3817
 1013MOL0     C36681   0.860   7.656  11.728  0.6197 -0.2449  0.7945
 1013MOL0     C36682   0.977   7.630  11.828  0.2352 -0.2858  0.2135
 1013MOL0     C36683   1.049   7.498  11.834 -0.5282 -1.1956  0.3907
 1013MOL0     C36684   1.106   7.393  11.841 -0.4665 -0.1901  0.4197
 1013MOL0     C36685   1.054   7.524  11.210 -0.3369 -0.0789  0.2958
 1013MOL0     C36686   1.127   7.415  11.163 -0.1806  1.2454  0.6580
 1013MOL0     C36687   1.068   7.338  11.040  0.0658  0.7597 -0.7586
 1013MOL0     H36688   1.483   7.186  10.986  2.4019  0.2496 -0.7287
 1013MOL0     H36689   1.563   6.964  10.897 -0.2862  1.9382 -0.4884
 1013MOL0     H36690   1.864   6.760  11.152  0.2437 -0.9199  1.3969
 1013MOL0     H36691   1.729   6.667  11.210  2.9952  2.7686  1.8480
 1013MOL0     H36692   1.738   6.531  11.012 -1.8044  1.5321 -0.0371
 1013MOL0     H36693   1.881   6.511  11.123  1.7014 -2.3182 -1.8921
 1013MOL0     H36694   2.023   6.645  10.971  0.0446  2.7323 -1.7546
 1013MOL0     H36695   1.897   6.698  10.873  1.1438 -1.6401 -1.8080
 1013MOL0     H36696   2.046   6.497  10.775 -1.2368  0.4166 -3.6963
 1013MOL0     H36697   1.935   6.414  10.897 -2.0524  0.7864  1.5591
 1013MOL0     H36698   1.755   6.426  10.783  2.8198 -1.8909  3.1317
 1013MOL0     H36699   1.793   6.578  10.692 -1.4549  0.7053  1.6493
 1013MOL0     H36700   1.950   6.442  10.541 -1.9284  0.4131 -1.5243
 1013MOL0     H36701   1.906   6.305  10.646  0.1496 -0.7999 -0.2541
 1013MOL0     H36702   1.691   6.459  10.493  3.1739  1.6575  0.0838
 1013MOL0     H36703   1.678   6.307  10.580  1.1266  0.3094  1.6209
 1013MOL0     H36704   1.809   6.326  10.293  0.5175 -1.3140 -1.0988
 1013MOL0     H36705   1.835   6.190  10.408  1.6978  1.0124  1.0711
 1013MOL0     H36706   1.550   6.408  10.243 -1.0657  1.0912  1.1535
 1013MOL0     H36707   1.245   6.291  10.250 -0.7415 -0.8178 -0.9838
 1013MOL0     H36708   1.325   6.318  10.100  0.6612  0.4174 -1.2969
 1013MOL0     H36709   1.169   6.157  10.031  3.1458 -0.6359 -4.7515
 1013MOL0     H36710   1.309   6.056  10.059 -1.2111 -2.2137  3.1485
 1013MOL0     H36711   1.111   6.106  10.275 -0.6309 -0.0728 -0.6344
 1013MOL0     H36712   1.256   6.007  10.286  0.1239  2.7327  1.7996
 1013MOL0     H36713   1.140   5.874  10.081 -2.4446 -0.1829 -0.4217
 1013MOL0     H36714   1.001   5.966  10.096 -1.0117  0.1700 -0.0677
 1013MOL0     H36715   0.970   5.660  10.441 -0.0392 -0.9017  0.4362
 1013MOL0     H36716   1.096   5.448  10.498  0.9173 -1.0883  0.5040
 1013MOL0     H36717   1.413   5.229  10.697 -0.5001  0.7411 -0.5111
 1013MOL0     H36718   1.546   5.028  10.769 -0.2207 -1.0072  0.0028
 1013MOL0     H36719   1.757   4.880  10.717  0.3077  1.2491 -0.2469
 1013MOL0     H36720   1.630   4.812  10.812  0.5531 -2.6530  0.8069
 1013MOL0     H36721   1.637   4.584  10.697 -0.2007 -1.0135 -0.9322
 1013MOL0     H36722   1.781   4.641  10.607 -0.4569 -1.2510  0.0218
 1013MOL0     H36723   1.898   4.694  10.806 -0.0295 -0.4005  0.8497
 1013MOL0     H36724   1.772   4.628  10.912  0.9195 -0.1552  1.2915
 1013MOL0     H36725   1.912   4.450  10.693 -0.8507 -4.7126  1.2334
 1013MOL0     H36726   1.804   4.406  10.825 -1.9215  3.1287  0.6963
 1013MOL0     H36727   2.040   4.361  10.889 -1.6739 -1.1115 -1.1527
 1013MOL0     H36728   2.004   4.519  10.970  0.3635  1.1082 -0.2730
 1013MOL0     H36729   2.110   4.634  10.767  0.7222  0.2542  1.6745
 1013MOL0     H36730   2.202   4.549  10.886 -2.0078  0.7628  0.1390
 1013MOL0     H36731   2.127   4.420  10.615 -1.7157  1.4296  0.2964
 1013MOL0     H36732   2.220   4.353  10.742 -2.9987 -0.2207  0.9768
 1013MOL0     H36733   2.288   4.604  10.575 -1.5913 -1.0548 -0.4102
 1013MOL0     H36734   2.387   4.552  10.709 -0.7124 -1.8859  2.7341
 1013MOL0     H36735   1.441   4.851  10.390 -3.2021  1.6273 -1.7885
 1013MOL0     H36736   1.290   5.050  10.344 -0.4944  3.0704  0.5397
 1013MOL0     H36737   1.397   5.543  10.215 -0.3766 -0.5435  0.4957
 1013MOL0     H36738   1.293   5.767  10.174  0.4963  1.7251  1.7851
 1013MOL0     H36739   1.708   6.873  11.307  0.6698 -0.5265 -0.3965
 1013MOL0     H36740   1.601   7.082  11.373  1.4926 -0.8836 -0.9522
 1013MOL0     H36741   1.383   7.432  11.390 -0.9893 -3.5728  0.1015
 1013MOL0     H36742   1.258   7.595  11.473 -2.1280 -0.5627  1.0222
 1013MOL0     H36743   1.000   7.826  11.524  1.6763 -0.1373  1.6694
 1013MOL0     H36744   1.114   7.690  11.561 -1.2462 -1.2162  3.8975
 1013MOL0     H36745   0.932   7.517  11.569 -0.8655 -0.0547 -1.9334
 1013MOL0     H36746   0.816   7.636  11.519 -0.0402 -0.6185  0.9300
 1013MOL0     H36747   0.771   7.601  11.761  1.4879 -2.4532 -0.2918
 1013MOL0     H36748   0.815   7.755  11.730 -2.4757 -1.5262  1.5223
 1013MOL0     H36749   1.050   7.710  11.810 -0.4287  0.5488  1.0986
 1013MOL0     H36750   0.935   7.648  11.928 -0.4136 -2.9674  0.4844
 1013MOL0     H36751   1.158   7.300  11.854  1.0317  0.3411 -1.3734
 1013MOL0     H36752   0.967   7.561  11.156 -0.4552  1.3433  1.4150
 1013MOL0     H36753   1.003   7.257  11.073  1.3715  0.2817  0.7656
 1013MOL0     H36754   1.012   7.405  10.975  1.4945  4.5370  1.5026
 1013MOL0     H36755   1.158   7.308  10.986  2.4988  6.0607 -0.3518
 1014MOL0     O36756   3.943   6.175  11.470 -0.0222  0.1672  0.6562
 1014MOL0     C36757   3.818   6.174  11.468  0.6655  0.2999  0.3474
 1014MOL0     O36758   3.728   6.281  11.491 -0.4821  0.6087 -0.3847
 1014MOL0     C36759   3.785   6.393  11.540 -0.2397  0.0166 -0.8126
 1014MOL0     C36760   3.887   6.397  11.640  0.1670  0.0473 -0.0586
 1014MOL0     C36761   3.927   6.523  11.684 -1.0285 -0.1925 -0.3065
 1014MOL0     C36762   3.888   6.645  11.630 -0.4451 -0.6034  0.3062
 1014MOL0     O36763   3.949   6.759  11.684 -0.9519  0.2916  0.6470
 1014MOL0     C36764   3.934   6.871  11.591 -0.3736  0.0095 -0.2470
 1014MOL0     C36765   4.019   6.992  11.632 -0.5755 -0.4868 -0.9620
 1014MOL0     C36766   4.023   7.022  11.783 -0.9216  0.9170 -0.6482
 1014MOL0     C36767   4.123   7.132  11.809 -1.0368 -0.2805 -0.5710
 1014MOL0     C36768   4.148   7.164  11.955  0.4216  0.2282  0.6023
 1014MOL0     C36769   4.219   7.061  12.039  0.3101 -0.1801 -0.7093
 1014MOL0     C36770   4.238   7.120  12.186 -0.6389 -0.1964 -0.0131
 1014MOL0     C36771   4.310   7.010  12.281 -0.6736 -0.7404  0.2975
 1014MOL0     N36772   4.343   7.085  12.400  0.5766  0.1900  0.1308
 1014MOL0     C36773   4.261   7.138  12.502 -0.8786 -0.0160 -0.2737
 1014MOL0     C36774   4.344   7.221  12.573 -1.0808  0.6693  0.3096
 1014MOL0     C36775   4.308   7.327  12.675 -0.2501  0.8966 -0.3583
 1014MOL0     C36776   4.395   7.453  12.673  0.2898  1.1447  0.4832
 1014MOL0     C36777   4.309   7.579  12.706  0.2428 -0.3023  0.1939
 1014MOL0     C36778   4.302   7.610  12.862 -0.0268 -0.8195  0.9268
 1014MOL0     O36779   4.201   7.525  12.921 -1.0214  0.4221  0.1487
 1014MOL0     C36780   4.223   7.455  13.037  0.0894 -0.4923 -0.7668
 1014MOL0     C36781   4.133   7.350  13.055 -0.3309  0.2641 -0.9176
 1014MOL0     C36782   4.149   7.260  13.163  0.0705  1.3500  0.7290
 1014MOL0     C36783   4.256   7.281  13.258 -0.4050  0.3863 -0.1974
 1014MOL0     C36784   4.271   7.182  13.372 -0.1709  0.3555 -0.1109
 1014MOL0     O36785   4.194   7.064  13.355  0.2249 -0.1431 -0.9343
 1014MOL0     C36786   4.178   6.965  13.447  0.6248  0.3569 -0.5600
 1014MOL0     C36787   4.059   6.940  13.500  0.3395  0.2504  0.0197
 1014MOL0     C36788   4.049   6.825  13.575 -0.1823  1.2895 -1.0341
 1014MOL0     C36789   4.158   6.738  13.590 -0.1949  0.1990  0.1343
 1014MOL0     O36790   4.135   6.617  13.653 -0.4847  0.6701 -0.3631
 1014MOL0     C36791   4.235   6.536  13.706 -0.0253  0.6373  0.8410
 1014MOL0     C36792   4.176   6.433  13.795  0.1551 -0.0650  0.0870
 1014MOL0     C36793   4.237   6.295  13.777  0.8355  0.2997  0.1066
 1014MOL0     C36794   4.186   6.210  13.899  0.5070  0.3652 -0.0322
 1014MOL0     C36795   4.259   6.093  13.926 -0.1509 -0.4291 -0.5442
 1014MOL0     C36796   4.267   5.985  13.815  0.4983  0.0601 -0.6703
 1014MOL0     C36797   4.330   5.857  13.866 -0.0997 -0.0745 -0.0148
 1014MOL0     C36798   4.376   5.774  13.738  0.0931  0.3800 -1.2146
 1014MOL0    Cl36799   4.251   5.721  13.629 -0.1774  0.3556 -0.0252
 1014MOL0     C36800   4.284   6.768  13.545 -0.2947  0.1149  0.6839
 1014MOL0     C36801   4.293   6.887  13.471 -0.3590 -0.4555  0.7130
 1014MOL0     O36802   4.350   7.193  13.460 -0.8277  0.4313 -0.2034
 1014MOL0     C36803   4.324   7.402  13.251  0.4794  0.4569  0.5527
 1014MOL0     C36804   4.324   7.474  13.132  0.4682  0.0827  1.7762
 1014MOL0     N36805   4.474   7.210  12.519 -0.0487  0.9441 -0.4782
 1014MOL0     N36806   4.466   7.129  12.419  0.4558 -0.4711  0.0140
 1014MOL0     C36807   3.789   6.636  11.528 -0.1420  0.0633  0.1436
 1014MOL0     C36808   3.738   6.515  11.486  1.2853  1.0008 -0.7002
 1014MOL0     C36809   3.743   6.052  11.413 -0.2723  0.2853 -0.3966
 1014MOL0     C36810   3.649   6.054  11.306 -0.4634 -0.6436  0.0094
 1014MOL0     C36811   3.591   5.943  11.253  1.9810 -0.4346  0.0590
 1014MOL0     C36812   3.623   5.813  11.300 -0.3283 -0.7905  0.3097
 1014MOL0     O36813   3.571   5.710  11.231 -0.8356  0.5512 -0.0899
 1014MOL0     C36814   3.596   5.577  11.276 -0.3951  1.0833 -0.4489
 1014MOL0     C36815   3.727   5.501  11.248 -0.1353  0.7537 -0.5849
 1014MOL0     C36816   3.764   5.486  11.101 -0.1542  1.0141 -0.0604
 1014MOL0     C36817   3.922   5.454  11.093  0.2900 -0.5816  0.0082
 1014MOL0     C36818   3.977   5.367  11.201  0.0880 -0.3592  0.2044
 1014MOL0     C36819   4.006   5.320  11.307 -0.0284  0.1345 -0.3673
 1014MOL0     C36820   3.717   5.807  11.412  0.7373 -0.0388 -0.6163
 1014MOL0     C36821   3.773   5.927  11.473  0.3989  0.0644  0.2244
 1014MOL0     C36822   3.869   5.899  11.596  1.3676 -0.2540  0.2531
 1014MOL0     H36823   3.915   6.308  11.696  1.9001  1.3429  1.2637
 1014MOL0     H36824   4.005   6.516  11.759 -0.1984 -0.5785 -1.1767
 1014MOL0     H36825   3.955   6.848  11.487  1.8737  1.3027 -0.1336
 1014MOL0     H36826   3.832   6.911  11.593 -0.5277 -0.3970  0.7117
 1014MOL0     H36827   3.985   7.084  11.582  2.1308  1.4860  0.5780
 1014MOL0     H36828   4.125   6.995  11.606  0.4375  0.6092  2.6452
 1014MOL0     H36829   4.058   6.934  11.839 -0.7374  2.1178  1.2081
 1014MOL0     H36830   3.925   7.044  11.826 -0.6085  0.1340  0.5182
 1014MOL0     H36831   4.217   7.101  11.763 -0.6974 -2.9130  1.6401
 1014MOL0     H36832   4.100   7.221  11.749 -0.2685  0.3846  0.1057
 1014MOL0     H36833   4.211   7.253  11.951  0.6491  0.0530 -2.6274
 1014MOL0     H36834   4.050   7.186  11.997 -0.1294 -1.4141  0.2559
 1014MOL0     H36835   4.160   6.970  12.058 -0.6589  0.9838  2.4757
 1014MOL0     H36836   4.315   7.030  11.998  1.0908  1.4406 -0.1794
 1014MOL0     H36837   4.145   7.145  12.238  0.7946 -0.1605  2.7314
 1014MOL0     H36838   4.289   7.215  12.202 -1.2235  0.3380 -1.2738
 1014MOL0     H36839   4.236   6.936  12.312 -0.0290 -1.1394  0.9280
 1014MOL0     H36840   4.404   6.967  12.244 -1.0300 -3.4084  2.1696
 1014MOL0     H36841   4.153   7.133  12.505 -0.8624 -0.7338 -0.6661
 1014MOL0     H36842   4.201   7.338  12.653 -0.6718 -2.2999 -0.2819
 1014MOL0     H36843   4.318   7.292  12.778  1.1156  0.5030 -0.6041
 1014MOL0     H36844   4.469   7.455  12.754  1.5524  0.3436 -0.6065
 1014MOL0     H36845   4.439   7.456  12.573 -2.5084 -4.4079 -1.3438
 1014MOL0     H36846   4.217   7.578  12.647  0.0748  1.3037  0.3589
 1014MOL0     H36847   4.363   7.659  12.655  0.6719 -1.1849 -0.7529
 1014MOL0     H36848   4.279   7.714  12.884 -0.0073 -0.7863  0.7933
 1014MOL0     H36849   4.404   7.599  12.900  0.9101 -1.0072 -1.4363
 1014MOL0     H36850   4.042   7.346  12.996  0.9815 -3.6908 -3.0161
 1014MOL0     H36851   4.087   7.172  13.177 -1.5951  2.3348 -0.1024
 1014MOL0     H36852   3.977   7.011  13.490  0.8184  0.6267 -1.4409
 1014MOL0     H36853   3.955   6.789  13.615  1.4525 -0.7205  1.3289
 1014MOL0     H36854   4.295   6.502  13.621 -3.4379  1.8075 -2.3086
 1014MOL0     H36855   4.301   6.587  13.776 -1.3543  5.1904 -0.8700
 1014MOL0     H36856   4.172   6.468  13.898 -1.5063  0.0444  0.0041
 1014MOL0     H36857   4.068   6.423  13.781  0.2504 -2.0350  0.4979
 1014MOL0     H36858   4.197   6.261  13.681  0.1616  0.9116  0.1637
 1014MOL0     H36859   4.346   6.301  13.768  0.9641 -2.7534 -1.8549
 1014MOL0     H36860   4.084   6.176  13.880  1.0313 -1.3566 -0.0041
 1014MOL0     H36861   4.182   6.261  13.995 -2.9107 -2.9730  1.8677
 1014MOL0     H36862   4.208   6.055  14.015  2.2111 -0.6302  0.8072
 1014MOL0     H36863   4.362   6.118  13.955  0.0126 -2.3246  0.6416
 1014MOL0     H36864   4.162   5.958  13.798  1.4973 -2.4286 -3.8140
 1014MOL0     H36865   4.319   6.026  13.728  0.5494 -1.0592 -1.1838
 1014MOL0     H36866   4.248   5.806  13.919  0.4542  0.3693  1.3149
 1014MOL0     H36867   4.414   5.870  13.935  0.9476  0.7138 -1.4042
 1014MOL0     H36868   4.451   5.829  13.681  3.9803 -2.5678  0.6326
 1014MOL0     H36869   4.443   5.692  13.766  0.4064  1.0006 -0.1018
 1014MOL0     H36870   4.364   6.699  13.568  1.7132  2.3451  0.7314
 1014MOL0     H36871   4.388   6.926  13.435 -0.2765 -1.8249 -0.6817
 1014MOL0     H36872   4.407   7.431  13.315  0.3245  0.8616  0.5688
 1014MOL0     H36873   4.405   7.546  13.122 -0.2688  0.6509 -1.1887
 1014MOL0     H36874   3.747   6.727  11.486 -1.9994 -1.0217 -0.4720
 1014MOL0     H36875   3.650   6.504  11.423  0.1113 -0.4270  1.0952
 1014MOL0     H36876   3.629   6.153  11.266  2.0257  0.2683  0.8215
 1014MOL0     H36877   3.507   5.949  11.185  2.0734 -0.5699 -0.0692
 1014MOL0     H36878   3.525   5.509  11.226 -2.4802  1.0970  2.2693
 1014MOL0     H36879   3.568   5.572  11.382  0.7690  2.3360 -0.0555
 1014MOL0     H36880   3.718   5.404  11.297 -1.1837  1.6148  0.9986
 1014MOL0     H36881   3.807   5.550  11.305 -0.7610  2.6529 -1.2331
 1014MOL0     H36882   3.743   5.573  11.037  0.1908  1.1366 -0.0058
 1014MOL0     H36883   3.721   5.394  11.059  1.1529 -0.9459  2.6257
 1014MOL0     H36884   3.950   5.409  10.997  2.9095 -2.0891  1.3519
 1014MOL0     H36885   3.974   5.549  11.104 -0.6719 -0.0555  0.0776
 1014MOL0     H36886   4.038   5.273  11.398  0.8595 -0.8202 -1.1534
 1014MOL0     H36887   3.746   5.708  11.446  2.8034  1.3616  2.0142
 1014MOL0     H36888   3.974   5.931  11.591  1.3632 -0.3223 -0.3101
 1014MOL0     H36889   3.829   5.961  11.677  3.0742 -2.2860  2.7961
 1014MOL0     H36890   3.847   5.800  11.637 -0.1351 -0.9307 -1.9971
 1015MOL0     O36891   4.780   8.265   4.519  1.1297 -0.7853 -0.0785
 1015MOL0     C36892   4.824   8.346   4.602 -0.5590  0.0068 -0.1030
 1015MOL0     O36893   4.835   8.485   4.568  0.1292  0.8896  0.8977
 1015MOL0     C36894   4.796   8.522   4.444  0.9694 -0.6415  0.0267
 1015MOL0     C36895   4.674   8.582   4.406 -0.2211 -0.6640  0.1619
 1015MOL0     C36896   4.637   8.603   4.267 -1.7147  0.0449  0.4870
 1015MOL0     C36897   4.729   8.570   4.169  0.4999  0.4820 -0.4556
 1015MOL0     O36898   4.693   8.551   4.037  0.1200 -0.5521  0.1001
 1015MOL0     C36899   4.705   8.656   3.943  0.6634  0.3832 -0.5963
 1015MOL0     C36900   4.581   8.664   3.852 -1.0497  0.2298  0.3705
 1015MOL0     C36901   4.584   8.553   3.747 -0.0486 -0.1480 -0.5314
 1015MOL0     C36902   4.458   8.564   3.657  0.0276  0.2762 -0.4267
 1015MOL0     C36903   4.473   8.468   3.545  1.1117  0.7457 -0.2756
 1015MOL0     C36904   4.345   8.493   3.460 -0.1061  0.3448 -0.2550
 1015MOL0     C36905   4.281   8.366   3.409 -0.3837 -0.4540 -0.3142
 1015MOL0     C36906   4.199   8.313   3.520  0.6358 -0.2707 -0.6105
 1015MOL0     N36907   4.132   8.191   3.489 -0.7558  0.3679 -0.0915
 1015MOL0     C36908   3.993   8.184   3.496  0.0542  1.1845 -0.8208
 1015MOL0     C36909   3.971   8.051   3.465 -0.4366  0.9693 -0.3795
 1015MOL0     C36910   3.843   7.980   3.444  0.2906 -0.0876  0.0118
 1015MOL0     C36911   3.726   8.037   3.536 -0.3474 -1.1775 -0.2888
 1015MOL0     C36912   3.623   7.937   3.582 -0.2597 -0.5097 -0.0548
 1015MOL0     C36913   3.530   8.009   3.680  0.0192  0.6233 -0.5569
 1015MOL0     O36914   3.586   8.023   3.815  0.0723  0.6677  0.3470
 1015MOL0     C36915   3.625   7.908   3.892  0.1939 -0.8018 -0.4714
 1015MOL0     C36916   3.708   7.948   4.002 -0.2729 -0.1544 -0.1396
 1015MOL0     C36917   3.774   7.850   4.077 -0.3201 -0.3508  0.4264
 1015MOL0     C36918   3.751   7.718   4.050  0.5837 -0.1460  0.5929
 1015MOL0     C36919   3.817   7.607   4.118  0.2088  0.2100 -0.6498
 1015MOL0     O36920   3.771   7.475   4.103  0.2882 -0.3857 -0.4420
 1015MOL0     C36921   3.783   7.395   4.218  0.1042 -0.3860  0.3296
 1015MOL0     C36922   3.822   7.257   4.220  0.2189  0.3038 -0.6984
 1015MOL0     C36923   3.820   7.183   4.344 -1.0045  0.3124 -0.7489
 1015MOL0     C36924   3.772   7.239   4.466 -0.5716 -0.3748 -0.4721
 1015MOL0     O36925   3.779   7.170   4.586 -0.5523  0.1462  0.0078
 1015MOL0     C36926   3.673   7.182   4.675 -0.0858  0.2220  0.6747
 1015MOL0     C36927   3.649   7.050   4.744 -0.0762  0.2546  0.3700
 1015MOL0     C36928   3.748   7.015   4.851 -0.1913 -0.7482 -0.4161
 1015MOL0     C36929   3.717   6.890   4.926 -0.7330 -0.1587  0.3365
 1015MOL0     C36930   3.836   6.834   5.001 -0.1043 -0.1737  0.1285
 1015MOL0     C36931   3.801   6.707   5.068 -0.1954 -0.5564  0.5316
 1015MOL0     C36932   3.905   6.654   5.162  0.9753 -0.6017 -0.2571
 1015MOL0     C36933   3.886   6.514   5.196  0.2020  0.8293 -0.1467
 1015MOL0    Cl36934   3.971   6.477   5.348 -0.3033 -0.2898  0.1427
 1015MOL0     C36935   3.719   7.370   4.454  0.1201  0.1846  0.2079
 1015MOL0     C36936   3.729   7.450   4.338  0.9252 -0.1472  0.7324
 1015MOL0     O36937   3.908   7.638   4.197 -0.3944  0.6331  0.1065
 1015MOL0     C36938   3.661   7.691   3.960  0.6872  1.9842  0.0776
 1015MOL0     C36939   3.596   7.772   3.876  0.2383 -0.6109  1.0206
 1015MOL0     N36940   4.093   7.990   3.435 -0.4981 -0.2513 -0.3816
 1015MOL0     N36941   4.186   8.069   3.464  0.2304  0.9190  1.0524
 1015MOL0     C36942   4.855   8.518   4.198 -0.7097  0.1316 -0.2481
 1015MOL0     C36943   4.889   8.485   4.341  0.7952 -0.6771  0.1209
 1015MOL0     C36944   4.852   8.312   4.746  0.2785 -0.8641 -0.2428
 1015MOL0     C36945   4.973   8.340   4.798  0.0081 -0.2139  0.7039
 1015MOL0     C36946   5.011   8.309   4.932  0.1913  0.1682  0.0461
 1015MOL0     C36947   4.921   8.254   5.014  0.5067 -0.2171 -0.0884
 1015MOL0     O36948   4.948   8.224   5.141  0.1166  0.0174 -0.7953
 1015MOL0     C36949   5.002   8.102   5.172 -0.2443  0.3219 -0.1493
 1015MOL0     C36950   5.006   8.068   5.318  0.2637 -1.3057 -0.7719
 1015MOL0     C36951   5.075   8.180   5.392  0.2528 -0.7357 -0.5338
 1015MOL0     C36952   5.078   8.161   5.541  1.1855  0.1775  0.1791
 1015MOL0     C36953   5.084   8.297   5.600 -1.2623  0.9215 -0.1235
 1015MOL0     C36954   5.092   8.387   5.676 -0.2855 -0.6211 -0.5981
 1015MOL0     C36955   4.793   8.218   4.960  0.3052 -0.6592 -0.4633
 1015MOL0     C36956   4.748   8.253   4.828  0.5709 -0.3443 -0.7469
 1015MOL0     C36957   4.626   8.185   4.773  0.1418 -0.3707  0.3602
 1015MOL0     H36958   4.601   8.600   4.484  1.0059 -1.7230  1.6135
 1015MOL0     H36959   4.544   8.647   4.234 -0.3773  1.6450 -1.3739
 1015MOL0     H36960   4.704   8.749   4.000  0.0266 -1.1271  2.0364
 1015MOL0     H36961   4.796   8.645   3.882  0.7045  1.9821 -0.8523
 1015MOL0     H36962   4.591   8.756   3.794  1.8180 -0.2157  0.0032
 1015MOL0     H36963   4.490   8.657   3.911 -1.6277  0.3074 -0.4928
 1015MOL0     H36964   4.602   8.452   3.785  4.7593  0.8852  0.5637
 1015MOL0     H36965   4.676   8.569   3.689  3.3477  1.3480  4.5861
 1015MOL0     H36966   4.365   8.547   3.712  0.7614  0.9641  1.0745
 1015MOL0     H36967   4.450   8.666   3.618 -2.0427 -0.5064 -2.2744
 1015MOL0     H36968   4.568   8.481   3.493  1.2311 -3.6626 -1.5573
 1015MOL0     H36969   4.480   8.364   3.579  0.8454 -0.6977 -4.0386
 1015MOL0     H36970   4.267   8.539   3.522  0.8397  2.0094 -0.2369
 1015MOL0     H36971   4.368   8.564   3.380  0.5288  2.3349  1.5928
 1015MOL0     H36972   4.365   8.300   3.387  0.9914  1.9960 -3.2462
 1015MOL0     H36973   4.215   8.400   3.328  2.8371  4.3665 -1.3547
 1015MOL0     H36974   4.252   8.298   3.614 -0.6324 -1.9597 -0.1074
 1015MOL0     H36975   4.126   8.392   3.542 -0.4860 -0.7035 -2.5065
 1015MOL0     H36976   3.914   8.259   3.498 -0.9038  0.2488  2.3463
 1015MOL0     H36977   3.811   7.972   3.340  1.0187 -2.4859 -0.0987
 1015MOL0     H36978   3.852   7.875   3.474  0.6518 -1.5552 -4.5007
 1015MOL0     H36979   3.762   8.097   3.620  0.5218  0.3916 -1.7281
 1015MOL0     H36980   3.678   8.113   3.474 -1.2293  0.8409  2.6675
 1015MOL0     H36981   3.673   7.843   3.608  0.9777 -0.8683 -3.2358
 1015MOL0     H36982   3.562   7.903   3.497  2.8325 -1.0576 -2.2323
 1015MOL0     H36983   3.434   7.958   3.692 -3.0248  5.3907 -1.7470
 1015MOL0     H36984   3.491   8.109   3.659 -2.9589 -0.2450  0.2825
 1015MOL0     H36985   3.739   8.052   4.006 -0.2749 -0.1295 -0.7322
 1015MOL0     H36986   3.840   7.888   4.155  0.0080  2.0517 -0.9032
 1015MOL0     H36987   3.828   7.194   4.132 -0.2425 -6.9850  3.6310
 1015MOL0     H36988   3.856   7.080   4.344  2.3471  1.2781  2.4453
 1015MOL0     H36989   3.690   7.265   4.744 -3.2278  0.2409  1.5984
 1015MOL0     H36990   3.579   7.199   4.620 -1.7677  0.8668  3.5559
 1015MOL0     H36991   3.551   7.058   4.790  0.7326  0.3931  2.1472
 1015MOL0     H36992   3.629   6.970   4.672 -1.9234 -0.5622  1.7256
 1015MOL0     H36993   3.845   7.007   4.802  2.1225 -1.5565  3.8754
 1015MOL0     H36994   3.759   7.086   4.933  0.2913 -2.3753  0.9648
 1015MOL0     H36995   3.692   6.815   4.850  1.5094  0.4201 -1.0680
 1015MOL0     H36996   3.641   6.908   5.002  0.3394 -2.5572  2.1155
 1015MOL0     H36997   3.866   6.903   5.081  2.3526 -1.6171  0.5253
 1015MOL0     H36998   3.918   6.823   4.930 -0.0099 -0.4185  0.2756
 1015MOL0     H36999   3.717   6.719   5.138  1.0608  1.2399  1.8340
 1015MOL0     H37000   3.770   6.637   4.990  1.2630  1.9567 -2.4887
 1015MOL0     H37001   3.902   6.716   5.252 -1.7946  2.1320 -2.0328
 1015MOL0     H37002   4.004   6.663   5.115  2.0815 -2.0411  1.6674
 1015MOL0     H37003   3.778   6.499   5.189  0.0516  2.3077 -5.1223
 1015MOL0     H37004   3.938   6.453   5.121 -0.4896 -1.0923  0.8674
 1015MOL0     H37005   3.682   7.428   4.537 -4.0583 -1.8263  0.0148
 1015MOL0     H37006   3.692   7.552   4.344  1.4303  0.1845 -1.0319
 1015MOL0     H37007   3.631   7.588   3.944  1.8407  1.4551  1.2075
 1015MOL0     H37008   3.536   7.747   3.789  2.0801 -2.8746  0.2742
 1015MOL0     H37009   4.923   8.466   4.131 -1.3560 -1.4095  0.2524
 1015MOL0     H37010   4.988   8.443   4.353  2.0366  1.2984 -2.1470
 1015MOL0     H37011   5.044   8.386   4.730 -1.9327  1.3695 -0.3472
 1015MOL0     H37012   5.099   8.324   4.994  0.7935 -2.1069 -0.1610
 1015MOL0     H37013   5.092   8.100   5.110 -1.2912  2.7831 -1.8913
 1015MOL0     H37014   4.927   8.029   5.141 -1.2464  0.1574  2.3715
 1015MOL0     H37015   5.069   7.979   5.328 -1.1554 -2.2815 -0.1693
 1015MOL0     H37016   4.904   8.064   5.357  0.0038  2.0844 -0.7464
 1015MOL0     H37017   5.024   8.277   5.382  2.7748  1.3632  4.1787
 1015MOL0     H37018   5.176   8.199   5.354 -0.9205  0.4236 -3.3982
 1015MOL0     H37019   4.988   8.111   5.579  0.8930  0.5617  0.0012
 1015MOL0     H37020   5.157   8.096   5.580  1.9461 -0.8232 -2.7905
 1015MOL0     H37021   5.108   8.463   5.750  3.5899 -0.5968 -1.2480
 1015MOL0     H37022   4.723   8.171   5.028  0.6437  0.5972  0.8015
 1015MOL0     H37023   4.556   8.168   4.856 -1.6972 -2.1635 -1.4408
 1015MOL0     H37024   4.572   8.247   4.701  0.6308  0.9219  1.0831
 1015MOL0     H37025   4.663   8.088   4.737  0.0689  0.4494 -2.0652
 1016MOL0     O37026   8.097   8.319   2.008  0.3396  0.5785 -0.0995
 1016MOL0     C37027   8.216   8.295   2.029 -1.2457  0.3259 -0.6603
 1016MOL0     O37028   8.318   8.344   1.948  0.5372  1.1296  1.1128
 1016MOL0     C37029   8.290   8.472   1.894  0.1680  0.2152  0.0494
 1016MOL0     C37030   8.343   8.580   1.961  0.1281  0.1590 -0.6318
 1016MOL0     C37031   8.305   8.714   1.917 -0.1564 -0.2807 -0.0986
 1016MOL0     C37032   8.221   8.723   1.799 -0.6098 -0.4734 -0.0285
 1016MOL0     O37033   8.184   8.846   1.750  0.2667  0.1040 -0.2029
 1016MOL0     C37034   8.038   8.850   1.739  1.1932  0.4373 -0.1176
 1016MOL0     C37035   7.985   8.980   1.679 -0.2162  0.5519 -0.2604
 1016MOL0     C37036   8.006   9.105   1.774  0.0146 -0.5392 -0.8155
 1016MOL0     C37037   7.886   9.127   1.867  0.1167 -0.0584 -0.9307
 1016MOL0     C37038   7.910   9.160   2.018  0.3048 -0.6111 -0.9540
 1016MOL0     C37039   7.957   9.301   2.034  0.0499  0.1008  0.1162
 1016MOL0     C37040   8.040   9.320   2.155 -1.0394 -0.5691 -0.5831
 1016MOL0     C37041   8.085   9.466   2.166 -0.1367  0.0254  0.0462
 1016MOL0     N37042   8.171   9.482   2.283 -0.0439 -0.0909 -0.4996
 1016MOL0     C37043   8.310   9.464   2.282 -0.2738  0.4204  0.8922
 1016MOL0     C37044   8.348   9.466   2.415  0.4131 -0.7087  0.1927
 1016MOL0     C37045   8.491   9.442   2.462 -0.0869  0.3077  0.4329
 1016MOL0     C37046   8.498   9.360   2.592  0.7643 -0.4074  0.3837
 1016MOL0     C37047   8.451   9.443   2.712  0.7757 -0.2390  0.8747
 1016MOL0     C37048   8.504   9.586   2.724  0.6954 -0.9335  0.0907
 1016MOL0     O37049   8.433   9.659   2.831 -0.0789 -0.7975  0.4906
 1016MOL0     C37050   8.529   9.706   2.913 -0.4391  0.8380 -0.4408
 1016MOL0     C37051   8.576   9.842   2.921  0.0215 -0.9008  0.1798
 1016MOL0     C37052   8.662   9.885   3.030 -0.1059  0.6415 -0.2347
 1016MOL0     C37053   8.711   9.786   3.127 -0.1192  0.4126  0.5668
 1016MOL0     C37054   8.813   9.825   3.232 -0.1358 -0.4901 -0.1492
 1016MOL0     O37055   8.857   9.953   3.219 -0.6486  0.4855  0.0753
 1016MOL0     C37056   8.955  10.001   3.306 -0.3534  0.7985  0.6439
 1016MOL0     C37057   8.899  10.071   3.413 -0.7455 -0.0497 -0.1993
 1016MOL0     C37058   8.988  10.134   3.503  0.5757 -0.1136 -0.6871
 1016MOL0     C37059   9.122  10.123   3.482  0.3441  0.1180  0.0655
 1016MOL0     O37060   9.205  10.205   3.562  0.0023  0.0170 -0.5147
 1016MOL0     C37061   9.352  10.183   3.563  0.2052  1.0601  0.6235
 1016MOL0     C37062   9.412  10.263   3.674  0.7558 -0.9044  0.2966
 1016MOL0     C37063   9.406  10.408   3.651 -0.4065 -0.0335 -0.1250
 1016MOL0     C37064   9.459  10.486   3.783  0.0562 -0.8523  0.1593
 1016MOL0     C37065   9.457  10.641   3.771 -0.3867 -0.0892 -0.2110
 1016MOL0     C37066   9.319  10.686   3.744  0.6505  0.3353 -0.2308
 1016MOL0     C37067   9.322  10.840   3.722 -0.0808  0.1681 -0.3383
 1016MOL0     C37068   9.332  10.883   3.575  0.2852  0.9029  0.0641
 1016MOL0    Cl37069   9.448  10.774   3.475  0.0061 -0.1281 -0.0403
 1016MOL0     C37070   9.172  10.053   3.372 -0.0337  0.8893 -0.2553
 1016MOL0     C37071   9.093   9.973   3.294  0.7736  0.1490  0.1093
 1016MOL0     O37072   8.859   9.743   3.307 -0.1085 -0.1840  0.1640
 1016MOL0     C37073   8.659   9.660   3.122  0.0781 -0.7701  0.2942
 1016MOL0     C37074   8.571   9.620   3.014  0.0523 -0.7693 -0.5429
 1016MOL0     N37075   8.241   9.477   2.492 -0.1441 -0.4503 -0.7294
 1016MOL0     N37076   8.134   9.487   2.417 -0.6231  0.0263  0.4056
 1016MOL0     C37077   8.189   8.608   1.730 -0.1471  0.3058  0.0176
 1016MOL0     C37078   8.207   8.480   1.782  0.4132 -0.7331  0.6009
 1016MOL0     C37079   8.259   8.222   2.146 -0.3529  0.1188  0.5213
 1016MOL0     C37080   8.394   8.238   2.192  0.7585  0.3574  0.0252
 1016MOL0     C37081   8.445   8.187   2.309  0.0360 -0.1392 -0.5330
 1016MOL0     C37082   8.364   8.105   2.381 -0.4599  0.0940  0.6590
 1016MOL0     O37083   8.408   8.031   2.489 -0.0773  0.2598  0.4941
 1016MOL0     C37084   8.421   8.106   2.607  0.2702  0.3889 -0.5893
 1016MOL0     C37085   8.298   8.139   2.686 -0.2771 -0.4200 -0.6229
 1016MOL0     C37086   8.214   8.006   2.718  1.0634  0.2553 -0.1642
 1016MOL0     C37087   8.104   8.023   2.825  0.5913 -0.0601  0.0131
 1016MOL0     C37088   8.132   8.032   2.970  0.2263  0.3757 -0.0770
 1016MOL0     C37089   8.129   8.052   3.090  1.0437  0.0129 -1.0064
 1016MOL0     C37090   8.231   8.084   2.346 -0.6327  0.3723 -0.6156
 1016MOL0     C37091   8.181   8.151   2.239  0.8559 -0.1432 -0.2248
 1016MOL0     C37092   8.025   8.148   2.229 -0.6882 -0.1803  0.7646
 1016MOL0     H37093   8.412   8.559   2.042  0.4430  0.0470 -0.9272
 1016MOL0     H37094   8.322   8.812   1.960 -3.7718  1.2272 -1.6685
 1016MOL0     H37095   7.992   8.772   1.677 -3.7565  0.6261  2.7803
 1016MOL0     H37096   7.985   8.848   1.834  2.5408 -2.6835  0.6695
 1016MOL0     H37097   7.879   8.980   1.651 -1.8579  2.6625  4.7849
 1016MOL0     H37098   8.052   8.994   1.594 -2.5119  1.2977 -2.0433
 1016MOL0     H37099   8.041   9.194   1.723  0.2170 -1.1266 -1.7158
 1016MOL0     H37100   8.088   9.070   1.837 -1.1430 -3.6849 -0.8686
 1016MOL0     H37101   7.830   9.211   1.825 -1.2340  0.3047  1.4471
 1016MOL0     H37102   7.824   9.037   1.877  1.6891 -0.9098  2.5754
 1016MOL0     H37103   7.831   9.135   2.089  0.4127 -1.1554 -1.0152
 1016MOL0     H37104   7.990   9.093   2.051  0.2737 -1.1500 -1.9410
 1016MOL0     H37105   8.019   9.327   1.948 -3.4306  0.3790 -2.5589
 1016MOL0     H37106   7.862   9.356   2.039 -2.1820 -3.2534 -1.2641
 1016MOL0     H37107   8.138   9.274   2.141 -0.2001  1.3220 -1.1997
 1016MOL0     H37108   7.987   9.295   2.247 -0.5545 -3.0832 -0.9231
 1016MOL0     H37109   8.154   9.485   2.084  0.8669  1.3127  1.1347
 1016MOL0     H37110   7.996   9.529   2.168  0.3958  0.8980 -1.9205
 1016MOL0     H37111   8.370   9.461   2.191 -0.1282  2.2969  0.8908
 1016MOL0     H37112   8.552   9.389   2.388  0.8182  2.5062 -0.4973
 1016MOL0     H37113   8.545   9.536   2.476  0.9172  0.0139 -1.2280
 1016MOL0     H37114   8.425   9.279   2.584 -0.7330  0.9301  0.0096
 1016MOL0     H37115   8.598   9.316   2.606  0.8743  0.8740  5.4709
 1016MOL0     H37116   8.464   9.397   2.811 -1.7039 -1.6452  0.6178
 1016MOL0     H37117   8.342   9.439   2.714  0.6646  1.4994 -0.1728
 1016MOL0     H37118   8.486   9.636   2.629  1.2453 -1.8911 -0.5386
 1016MOL0     H37119   8.612   9.596   2.739  0.5508  1.7853 -0.2361
 1016MOL0     H37120   8.554   9.907   2.838 -2.0164 -3.7675 -1.7120
 1016MOL0     H37121   8.694   9.989   3.029 -1.4148  1.0636 -1.2317
 1016MOL0     H37122   8.791  10.073   3.419 -0.8435 -2.4246 -0.2090
 1016MOL0     H37123   8.961  10.197   3.588 -0.1142  0.4679 -1.3260
 1016MOL0     H37124   9.366  10.081   3.598 -0.9705  0.3899 -0.7628
 1016MOL0     H37125   9.416  10.213   3.479 -0.4524  1.7500  0.3483
 1016MOL0     H37126   9.351  10.236   3.761 -5.0345  2.4666 -2.1714
 1016MOL0     H37127   9.518  10.240   3.690  0.7054 -1.1548  0.2767
 1016MOL0     H37128   9.458  10.439   3.560 -1.2729 -2.4532 -1.5530
 1016MOL0     H37129   9.300  10.420   3.626 -0.9998 -2.1073  1.0782
 1016MOL0     H37130   9.561  10.454   3.803  1.2720 -0.4504 -4.3117
 1016MOL0     H37131   9.395  10.462   3.868 -1.1731  3.8150  0.8561
 1016MOL0     H37132   9.529  10.660   3.691 -0.9366 -1.4954 -1.0851
 1016MOL0     H37133   9.495  10.683   3.864 -0.4336 -1.8758  0.6552
 1016MOL0     H37134   9.278  10.645   3.651  0.7044 -0.3426  0.0379
 1016MOL0     H37135   9.267  10.654   3.834  1.0941 -0.7901 -0.3600
 1016MOL0     H37136   9.408  10.876   3.777  2.0624 -1.5355 -2.3603
 1016MOL0     H37137   9.231  10.886   3.761  0.8272  3.3716 -1.6791
 1016MOL0     H37138   9.234  10.876   3.526  0.4774  2.2405 -0.5727
 1016MOL0     H37139   9.357  10.988   3.558 -1.3079  1.3473  0.2084
 1016MOL0     H37140   9.279  10.041   3.356 -0.3548 -0.3057 -1.6967
 1016MOL0     H37141   9.136   9.910   3.217 -1.3906 -2.1742  0.6855
 1016MOL0     H37142   8.695   9.584   3.191 -0.1215 -0.0132  1.2560
 1016MOL0     H37143   8.526   9.522   3.004  0.8665 -1.1499 -0.5486
 1016MOL0     H37144   8.137   8.621   1.635  2.3586  5.0002 -1.0742
 1016MOL0     H37145   8.180   8.389   1.730 -0.0308  0.2060 -0.8644
 1016MOL0     H37146   8.468   8.287   2.131 -0.4854  0.8704 -1.1038
 1016MOL0     H37147   8.547   8.213   2.337 -0.8011  3.1354 -0.1127
 1016MOL0     H37148   8.477   8.197   2.584 -1.8307  1.8138 -0.2600
 1016MOL0     H37149   8.489   8.048   2.671 -1.6455 -0.9096  0.3787
 1016MOL0     H37150   8.219   8.202   2.644  0.3852  0.7526 -0.1384
 1016MOL0     H37151   8.338   8.197   2.770 -0.9603  1.8713 -1.8082
 1016MOL0     H37152   8.281   7.925   2.746 -0.8554 -2.0255 -1.7492
 1016MOL0     H37153   8.165   7.970   2.627 -0.3667  1.8573 -0.0927
 1016MOL0     H37154   8.041   8.106   2.790  2.2825  1.0044 -0.6399
 1016MOL0     H37155   8.041   7.935   2.807  1.4526 -0.7297  0.2014
 1016MOL0     H37156   8.130   8.060   3.197  1.7518  1.4185 -1.0986
 1016MOL0     H37157   8.169   8.029   2.417  0.5026 -0.7999 -0.5079
 1016MOL0     H37158   7.981   8.247   2.246 -1.6022 -0.4790  0.1953
 1016MOL0     H37159   7.986   8.120   2.131  1.5242 -0.5461 -0.0587
 1016MOL0     H37160   7.978   8.086   2.306  0.9467  0.7158  2.6028
 1017MOL0     O37161   5.900   8.510   1.744 -0.3584 -0.1029 -0.3533
 1017MOL0     C37162   5.849   8.591   1.828  0.2790  0.0490  0.2849
 1017MOL0     O37163   5.917   8.688   1.899 -0.2023 -0.2497  0.6742
 1017MOL0     C37164   6.049   8.690   1.875 -0.4403 -1.2630 -0.0957
 1017MOL0     C37165   6.100   8.820   1.870 -0.6164  0.6369  0.8598
 1017MOL0     C37166   6.228   8.842   1.843  0.1805 -0.4867  0.5128
 1017MOL0     C37167   6.324   8.736   1.835 -0.1166 -0.5600  0.6913
 1017MOL0     O37168   6.462   8.744   1.829  0.0216 -0.3818 -0.1085
 1017MOL0     C37169   6.523   8.862   1.782 -0.6431 -0.0892  1.2244
 1017MOL0     C37170   6.673   8.870   1.781  0.6709  1.4024  0.8567
 1017MOL0     C37171   6.722   8.890   1.920 -0.5001 -0.7981  0.4454
 1017MOL0     C37172   6.871   8.890   1.922  0.3404  0.5567 -0.7068
 1017MOL0     C37173   6.928   9.007   1.997  0.0695 -0.2964  0.8554
 1017MOL0     C37174   6.901   9.145   1.932  0.5376 -0.6596 -0.0385
 1017MOL0     C37175   6.945   9.146   1.784 -0.3981 -0.9052 -0.0850
 1017MOL0     C37176   6.917   9.268   1.706  0.4459 -0.2757 -1.0228
 1017MOL0     N37177   6.966   9.246   1.573  0.0086  0.3094  0.0616
 1017MOL0     C37178   7.088   9.242   1.514 -0.3421 -0.4288  0.3490
 1017MOL0     C37179   7.068   9.277   1.379  0.2190 -0.4449  0.6250
 1017MOL0     C37180   7.181   9.279   1.275 -0.7150 -0.3162 -0.4439
 1017MOL0     C37181   7.159   9.230   1.125  1.1012  0.0972  0.0386
 1017MOL0     C37182   7.271   9.144   1.054 -0.7365 -0.5400  0.4026
 1017MOL0     C37183   7.396   9.105   1.135  0.3761  0.2792  0.7042
 1017MOL0     O37184   7.500   9.044   1.058  0.6722  0.3313  0.6769
 1017MOL0     C37185   7.613   8.999   1.111  0.9908 -0.0889 -0.3535
 1017MOL0     C37186   7.637   8.988   1.245  0.1328 -0.1747 -0.4350
 1017MOL0     C37187   7.746   8.918   1.294 -0.0571 -0.6103 -0.4629
 1017MOL0     C37188   7.825   8.838   1.213 -0.0983  0.4766 -0.2064
 1017MOL0     C37189   7.938   8.759   1.267  0.2619 -0.6980  0.3100
 1017MOL0     O37190   7.998   8.667   1.193  0.5136  0.5005  0.5432
 1017MOL0     C37191   8.065   8.555   1.240  0.4192  0.6840  0.3530
 1017MOL0     C37192   8.159   8.508   1.145  0.2738  0.2577 -0.0138
 1017MOL0     C37193   8.256   8.420   1.184  1.0393 -0.9682 -0.5584
 1017MOL0     C37194   8.260   8.370   1.321  0.4583 -0.0797  0.2396
 1017MOL0     O37195   8.357   8.279   1.349 -0.5582 -0.3437 -0.4705
 1017MOL0     C37196   8.329   8.177   1.442  0.5658  0.7257 -0.3859
 1017MOL0     C37197   8.430   8.071   1.457 -0.2122  0.4059  0.5108
 1017MOL0     C37198   8.538   8.123   1.543  0.2983  0.2399  0.6311
 1017MOL0     C37199   8.654   8.021   1.570  0.2897 -0.3127 -0.0127
 1017MOL0     C37200   8.799   8.091   1.574  0.9624 -0.3130 -0.5945
 1017MOL0     C37201   8.852   8.141   1.430 -0.5960 -0.4121 -0.3000
 1017MOL0     C37202   9.005   8.148   1.423  0.1215  0.0139 -0.3089
 1017MOL0     C37203   9.074   8.236   1.532 -0.4938  0.3667 -0.5090
 1017MOL0    Cl37204   9.101   8.146   1.676  0.2031  0.0220  0.3265
 1017MOL0     C37205   8.160   8.413   1.408  0.8071  0.6052 -0.0820
 1017MOL0     C37206   8.055   8.495   1.365 -0.1378 -0.3851 -1.1036
 1017MOL0     O37207   7.966   8.782   1.384 -0.2645  0.0451  0.5543
 1017MOL0     C37208   7.802   8.852   1.074 -0.3425  0.7762 -0.5255
 1017MOL0     C37209   7.705   8.942   1.021 -0.0067 -0.4255  0.2148
 1017MOL0     N37210   6.933   9.297   1.366 -0.5704  1.0269 -0.1004
 1017MOL0     N37211   6.870   9.281   1.477 -0.1711  0.5035  0.7468
 1017MOL0     C37212   6.271   8.608   1.838  0.4662 -0.0250  0.5737
 1017MOL0     C37213   6.138   8.581   1.859 -0.2545 -0.0068  0.3453
 1017MOL0     C37214   5.719   8.558   1.901 -0.7388 -1.4169  0.8003
 1017MOL0     C37215   5.656   8.674   1.967 -0.1542  0.6703 -0.1605
 1017MOL0     C37216   5.537   8.641   2.045  0.1928 -0.4762  0.7354
 1017MOL0     C37217   5.472   8.520   2.038 -0.1859 -0.2981  0.3159
 1017MOL0     O37218   5.348   8.499   2.097  0.0256 -0.0379  0.2911
 1017MOL0     C37219   5.224   8.529   2.015  0.5618  0.6046 -0.5863
 1017MOL0     C37220   5.102   8.504   2.097 -0.3948  0.5973 -0.1129
 1017MOL0     C37221   5.092   8.616   2.207 -0.2157  0.1353  0.2586
 1017MOL0     C37222   4.959   8.581   2.271 -0.4942 -0.9705 -0.1768
 1017MOL0     C37223   4.924   8.691   2.365 -0.3912  0.1829 -0.1588
 1017MOL0     C37224   4.918   8.788   2.433  1.3505 -0.3328 -0.3409
 1017MOL0     C37225   5.535   8.411   1.990  0.0110 -0.7205  0.0600
 1017MOL0     C37226   5.661   8.428   1.920 -0.2170 -0.9060 -0.2632
 1017MOL0     C37227   5.732   8.301   1.879  0.4044  0.0149 -0.8137
 1017MOL0     H37228   6.051   8.916   1.882  1.1228  1.6795  0.0060
 1017MOL0     H37229   6.260   8.946   1.846 -2.7990  0.5488 -0.1688
 1017MOL0     H37230   6.497   8.876   1.677  0.1289 -2.2726  0.6925
 1017MOL0     H37231   6.483   8.954   1.825 -2.9531 -0.6940  0.4910
 1017MOL0     H37232   6.704   8.959   1.725  1.5336  1.2995  1.1566
 1017MOL0     H37233   6.716   8.790   1.720  0.1723  0.6969  1.4102
 1017MOL0     H37234   6.679   8.811   1.982 -1.1437 -1.2091 -0.4998
 1017MOL0     H37235   6.683   8.990   1.939  1.1403  1.0130 -4.2146
 1017MOL0     H37236   6.900   8.817   1.998 -0.8816  3.4906  2.8765
 1017MOL0     H37237   6.915   8.850   1.830  3.0922 -0.4337  0.9319
 1017MOL0     H37238   6.881   9.013   2.095 -1.9400  2.1139 -0.1538
 1017MOL0     H37239   7.037   8.998   2.001  0.2880 -1.4350 -3.2028
 1017MOL0     H37240   6.796   9.175   1.928  0.2954 -1.0630  2.0347
 1017MOL0     H37241   6.957   9.225   1.981 -0.1123  2.0680 -3.3799
 1017MOL0     H37242   6.888   9.068   1.733  2.0392 -2.1653 -1.0766
 1017MOL0     H37243   7.054   9.138   1.782 -0.4511 -1.4844 -1.0803
 1017MOL0     H37244   6.812   9.298   1.705  1.2647  3.1450  0.7833
 1017MOL0     H37245   6.969   9.352   1.752  1.4518 -1.6373  0.4169
 1017MOL0     H37246   7.187   9.247   1.558 -0.4699  2.2348  0.4725
 1017MOL0     H37247   7.185   9.387   1.257 -0.6672 -0.5006 -1.5897
 1017MOL0     H37248   7.269   9.238   1.325  1.3350  2.7855 -1.2445
 1017MOL0     H37249   7.064   9.176   1.132  0.5226  1.1235  0.3001
 1017MOL0     H37250   7.129   9.314   1.063 -4.1424 -0.0202  1.9266
 1017MOL0     H37251   7.302   9.203   0.967 -1.0918 -0.9269 -0.0004
 1017MOL0     H37252   7.229   9.054   1.007 -1.8012  0.2316 -0.1760
 1017MOL0     H37253   7.370   9.038   1.218 -1.2401  0.4383  0.3405
 1017MOL0     H37254   7.437   9.199   1.175 -1.4023  1.0285  0.8231
 1017MOL0     H37255   7.569   9.021   1.322 -0.9349  0.8864 -1.7725
 1017MOL0     H37256   7.754   8.925   1.402 -2.7476 -0.3551 -0.2150
 1017MOL0     H37257   8.167   8.556   1.048 -3.2191  5.3921  1.8178
 1017MOL0     H37258   8.334   8.414   1.109 -0.6342  1.1880 -2.5977
 1017MOL0     H37259   8.313   8.216   1.543  1.5958 -0.6044  0.3249
 1017MOL0     H37260   8.241   8.120   1.409  0.1594  0.5289  0.9740
 1017MOL0     H37261   8.396   7.982   1.510 -2.5794  0.0446 -1.4305
 1017MOL0     H37262   8.463   8.036   1.359  1.0070  0.9673  0.7045
 1017MOL0     H37263   8.571   8.214   1.492 -1.7165  0.3100 -0.6634
 1017MOL0     H37264   8.498   8.150   1.641 -1.4295 -0.5810  0.1842
 1017MOL0     H37265   8.656   7.947   1.489  0.4628  2.8179 -3.0676
 1017MOL0     H37266   8.629   7.974   1.666 -3.4102  3.1983  0.9692
 1017MOL0     H37267   8.872   8.021   1.616  1.1167  0.8186  1.1402
 1017MOL0     H37268   8.788   8.172   1.647 -0.5188  0.2678 -1.4269
 1017MOL0     H37269   8.804   8.081   1.353 -2.1427 -0.8076  0.9097
 1017MOL0     H37270   8.830   8.246   1.413  1.3190 -0.1217 -1.3193
 1017MOL0     H37271   9.020   8.203   1.330 -1.4493 -0.8022 -1.0979
 1017MOL0     H37272   9.049   8.053   1.391 -0.8816 -0.4519 -0.3677
 1017MOL0     H37273   9.170   8.262   1.486  0.5935  1.4194  2.1483
 1017MOL0     H37274   9.037   8.334   1.562 -1.2756 -1.0441  3.8828
 1017MOL0     H37275   8.177   8.392   1.514 -2.9990  0.7598  0.7060
 1017MOL0     H37276   7.983   8.542   1.431  0.6865 -0.8469  0.1706
 1017MOL0     H37277   7.874   8.809   1.006  0.9908  3.7908 -1.2198
 1017MOL0     H37278   7.698   8.959   0.914 -1.7080  1.3908  0.5402
 1017MOL0     H37279   6.342   8.529   1.818  1.9420  1.6828 -1.4554
 1017MOL0     H37280   6.114   8.475   1.870  4.8249 -1.3897  1.1072
 1017MOL0     H37281   5.694   8.776   1.970  1.7623 -0.0175  0.8390
 1017MOL0     H37282   5.485   8.724   2.091 -3.6790 -3.0387  1.4613
 1017MOL0     H37283   5.217   8.459   1.931 -1.6219 -0.5321  0.4610
 1017MOL0     H37284   5.225   8.635   1.988 -0.8627  1.4140  2.1611
 1017MOL0     H37285   5.109   8.409   2.149 -0.5375  0.4243 -0.4099
 1017MOL0     H37286   5.019   8.502   2.027 -0.5362  2.1155 -0.0205
 1017MOL0     H37287   5.087   8.717   2.166 -1.5895  0.7562  1.8698
 1017MOL0     H37288   5.180   8.609   2.272  0.6797  2.4307 -0.6083
 1017MOL0     H37289   4.881   8.576   2.194  0.7919  0.5192 -1.6239
 1017MOL0     H37290   4.964   8.487   2.328 -2.1029 -1.0762 -0.1561
 1017MOL0     H37291   4.913   8.883   2.484 -1.0739 -1.2855  1.4117
 1017MOL0     H37292   5.487   8.315   2.003 -0.9500 -0.1275  1.0573
 1017MOL0     H37293   5.694   8.219   1.942  2.6503 -0.0468  0.5525
 1017MOL0     H37294   5.707   8.299   1.773  3.1271  2.1525 -1.5919
 1017MOL0     H37295   5.837   8.306   1.909  0.3496  1.5031 -0.8184
 1018MOL0     O37296   5.726   2.503   0.509  0.5579 -0.2374  0.0277
 1018MOL0     C37297   5.750   2.385   0.531  0.0670  0.0038 -0.4453
 1018MOL0     O37298   5.657   2.285   0.550  0.2315  0.3104  0.1618
 1018MOL0     C37299   5.527   2.326   0.578 -0.1554  0.1915 -0.7717
 1018MOL0     C37300   5.435   2.349   0.473  0.1946  0.8032 -0.0725
 1018MOL0     C37301   5.310   2.408   0.509 -0.6629  0.0112  0.6288
 1018MOL0     C37302   5.275   2.431   0.639  0.2443  0.7491  0.0840
 1018MOL0     O37303   5.140   2.452   0.660  0.4707 -0.0006  0.5401
 1018MOL0     C37304   5.093   2.480   0.788 -0.6866 -0.3635  0.1137
 1018MOL0     C37305   4.946   2.525   0.779 -0.2435 -0.3818 -0.3746
 1018MOL0     C37306   4.880   2.516   0.921  0.4083 -0.1602  0.5654
 1018MOL0     C37307   4.748   2.592   0.928  0.1630 -0.1740 -1.3677
 1018MOL0     C37308   4.698   2.581   1.079 -0.7394  0.4484 -0.7723
 1018MOL0     C37309   4.587   2.677   1.121  0.5844  1.0369  0.9203
 1018MOL0     C37310   4.480   2.678   1.019  0.6553  0.6026 -0.7645
 1018MOL0     C37311   4.360   2.761   1.075  0.6294  1.0831  0.6501
 1018MOL0     N37312   4.275   2.684   1.170  1.4933 -0.4608 -0.6746
 1018MOL0     C37313   4.173   2.595   1.134  0.4584 -0.1576 -0.3929
 1018MOL0     C37314   4.121   2.562   1.260 -0.1553  0.3263  0.1276
 1018MOL0     C37315   3.996   2.479   1.286  0.5180  0.6497 -1.1636
 1018MOL0     C37316   3.865   2.508   1.207  0.4085  0.2641 -0.0980
 1018MOL0     C37317   3.766   2.396   1.233  0.3471 -0.3665 -0.3204
 1018MOL0     C37318   3.647   2.428   1.152 -0.4737 -0.3192  1.2729
 1018MOL0     O37319   3.677   2.391   1.008 -0.2200 -0.7320 -0.0661
 1018MOL0     C37320   3.596   2.459   0.918 -1.1160 -0.6049 -0.0574
 1018MOL0     C37321   3.452   2.462   0.934  0.9869  0.0335  0.0354
 1018MOL0     C37322   3.361   2.524   0.840 -0.9282 -0.4780  0.1960
 1018MOL0     C37323   3.415   2.580   0.722 -0.8931  0.0737 -0.2143
 1018MOL0     C37324   3.325   2.639   0.625  0.3337  0.0351  0.1309
 1018MOL0     O37325   3.368   2.730   0.547  0.2552 -0.8148  0.1971
 1018MOL0     C37326   3.288   2.792   0.454 -0.8417  0.1867 -0.6182
 1018MOL0     C37327   3.195   2.885   0.484 -0.8082 -0.0582 -0.1510
 1018MOL0     C37328   3.130   2.952   0.389  0.1613 -0.9202  0.2471
 1018MOL0     C37329   3.138   2.934   0.254  0.0901  0.2539  0.1908
 1018MOL0     O37330   3.067   2.985   0.149 -0.1000 -0.5281  0.6354
 1018MOL0     C37331   2.948   3.059   0.166  0.5566 -0.1586  0.5265
 1018MOL0     C37332   2.938   3.170   0.052 -0.2209  0.3271  0.6332
 1018MOL0     C37333   2.958   3.109  -0.085  0.1688 -0.5869  0.3343
 1018MOL0     C37334   2.886   3.192  -0.188 -0.5410 -1.4083  0.4134
 1018MOL0     C37335   2.865   3.109  -0.314 -0.3306  0.0326  0.7656
 1018MOL0     C37336   2.996   3.070  -0.396  0.9449  1.1060 -0.8538
 1018MOL0     C37337   3.079   3.194  -0.442 -1.4844 -0.4116 -0.6081
 1018MOL0     C37338   3.015   3.291  -0.533 -0.1808  0.6650 -0.4434
 1018MOL0    Cl37339   2.996   3.190  -0.674  0.3511 -0.2299  0.0451
 1018MOL0     C37340   3.239   2.840   0.219  0.5269  0.1562 -0.4748
 1018MOL0     C37341   3.313   2.769   0.318  0.2615 -0.2591 -0.5173
 1018MOL0     O37342   3.212   2.590   0.620  0.5384  0.3580 -0.3677
 1018MOL0     C37343   3.562   2.579   0.701 -0.0190  0.2230 -0.0492
 1018MOL0     C37344   3.645   2.517   0.793  0.8587 -0.1657 -0.0560
 1018MOL0     N37345   4.191   2.622   1.363 -0.1552  0.0426  0.6510
 1018MOL0     N37346   4.279   2.698   1.305 -0.4270 -0.7464 -0.9150
 1018MOL0     C37347   5.365   2.401   0.740  0.9667  0.5470  0.2783
 1018MOL0     C37348   5.492   2.353   0.713  0.2778  0.4216 -0.6297
 1018MOL0     C37349   5.891   2.333   0.517  1.3574  0.0793  0.2769
 1018MOL0     C37350   5.913   2.213   0.439  0.2651  1.0301 -0.1225
 1018MOL0     C37351   6.043   2.174   0.419 -0.3417  0.4175 -0.2629
 1018MOL0     C37352   6.147   2.239   0.470 -0.9310  0.0343  0.0804
 1018MOL0     O37353   6.282   2.203   0.448 -0.3368  0.1586 -0.2214
 1018MOL0     C37354   6.321   2.182   0.304  0.4998 -0.6196 -0.3114
 1018MOL0     C37355   6.455   2.261   0.266  1.7017 -0.0165  0.2051
 1018MOL0     C37356   6.466   2.252   0.110  1.2997 -0.3911  0.6015
 1018MOL0     C37357   6.565   2.356   0.069 -0.0954 -0.3837  0.3374
 1018MOL0     C37358   6.563   2.401  -0.071 -1.8393 -0.6468 -0.1071
 1018MOL0     C37359   6.560   2.450  -0.183 -0.2121  0.5460 -0.6009
 1018MOL0     C37360   6.125   2.353   0.546  0.1712  0.5297  0.8412
 1018MOL0     C37361   6.000   2.396   0.581 -0.1904 -1.5943  0.2893
 1018MOL0     C37362   6.004   2.513   0.666 -0.2233 -0.7307 -0.4074
 1018MOL0     H37363   5.447   2.346   0.365  1.8142  0.1714  0.1006
 1018MOL0     H37364   5.238   2.432   0.431 -0.3952  2.1738  0.9758
 1018MOL0     H37365   5.095   2.395   0.856 -2.5128 -0.7600 -0.2576
 1018MOL0     H37366   5.143   2.566   0.833  1.0471 -0.9101 -0.7075
 1018MOL0     H37367   4.895   2.472   0.698  0.2520 -1.9606  0.2962
 1018MOL0     H37368   4.946   2.628   0.743 -1.2869 -1.5136 -4.0702
 1018MOL0     H37369   4.947   2.543   1.004  0.1993  1.9944  0.0971
 1018MOL0     H37370   4.866   2.408   0.933  1.5165 -0.1307  2.4169
 1018MOL0     H37371   4.749   2.696   0.895 -0.9888 -0.0244 -0.9835
 1018MOL0     H37372   4.679   2.538   0.863  2.5449 -1.5007 -2.9414
 1018MOL0     H37373   4.672   2.476   1.096  2.9640 -0.5455 -0.1852
 1018MOL0     H37374   4.780   2.598   1.150 -2.0585  0.6730  0.7527
 1018MOL0     H37375   4.556   2.667   1.225  0.1562 -0.7315  0.6599
 1018MOL0     H37376   4.631   2.776   1.104  0.4664  0.9983  0.3705
 1018MOL0     H37377   4.444   2.575   1.009 -4.4104  1.8979  0.9397
 1018MOL0     H37378   4.512   2.713   0.921  1.3720  0.4806 -0.5776
 1018MOL0     H37379   4.386   2.852   1.129  1.6496  0.5114  1.1686
 1018MOL0     H37380   4.305   2.790   0.986  0.6376 -0.0496  0.2626
 1018MOL0     H37381   4.139   2.554   1.039 -1.4198 -4.1323  1.7483
 1018MOL0     H37382   4.029   2.376   1.272 -1.5361 -0.4154  1.0384
 1018MOL0     H37383   3.974   2.487   1.393  3.0841 -0.7477 -0.4460
 1018MOL0     H37384   3.813   2.599   1.238  0.8358  0.7879 -0.8938
 1018MOL0     H37385   3.885   2.516   1.100 -0.5949 -0.1095 -0.3275
 1018MOL0     H37386   3.747   2.400   1.341 -1.1156  0.0911 -0.5800
 1018MOL0     H37387   3.800   2.296   1.202 -3.1480 -1.2783 -1.5752
 1018MOL0     H37388   3.604   2.528   1.159 -0.7412 -0.4580  1.6812
 1018MOL0     H37389   3.571   2.352   1.173 -1.2054 -1.2852 -3.7192
 1018MOL0     H37390   3.413   2.415   1.023  0.1762  2.5602  1.1073
 1018MOL0     H37391   3.253   2.525   0.849 -0.7911 -0.7236  2.3019
 1018MOL0     H37392   3.176   2.920   0.585  0.9164 -1.8535  0.8760
 1018MOL0     H37393   3.060   3.029   0.419 -0.7695 -1.3847 -0.6660
 1018MOL0     H37394   2.866   2.986   0.166 -0.6850  1.1813 -0.0801
 1018MOL0     H37395   2.939   3.106   0.264 -0.2508 -1.5894  1.1712
 1018MOL0     H37396   2.834   3.200   0.067 -0.6681 -1.5991  1.6717
 1018MOL0     H37397   3.003   3.256   0.067 -0.8689  1.2695 -1.5883
 1018MOL0     H37398   3.060   3.109  -0.124 -0.6431  1.9853 -2.1507
 1018MOL0     H37399   2.925   3.005  -0.079  3.3898 -1.6948  0.9720
 1018MOL0     H37400   2.943   3.284  -0.206  1.1637 -2.8782 -2.4447
 1018MOL0     H37401   2.786   3.220  -0.153 -1.3287 -2.9569 -0.4613
 1018MOL0     H37402   2.798   3.153  -0.387 -1.8420 -0.5657  1.7467
 1018MOL0     H37403   2.830   3.014  -0.271  1.3607 -0.0962  1.9690
 1018MOL0     H37404   3.052   3.015  -0.320 -0.2264  1.6899  0.4782
 1018MOL0     H37405   2.964   3.005  -0.478  2.4660 -0.8981  0.0428
 1018MOL0     H37406   3.168   3.169  -0.501  0.6625  0.7746  1.8759
 1018MOL0     H37407   3.117   3.254  -0.358 -3.0247  1.8684 -1.4599
 1018MOL0     H37408   2.925   3.320  -0.478 -2.0334 -3.7016 -0.8150
 1018MOL0     H37409   3.090   3.371  -0.540  2.5132 -1.7948 -1.5031
 1018MOL0     H37410   3.273   2.816   0.119  4.5846  0.8318  0.5841
 1018MOL0     H37411   3.393   2.701   0.290 -0.0307 -0.5072 -0.7664
 1018MOL0     H37412   3.603   2.627   0.612 -3.4514  0.4186 -1.6929
 1018MOL0     H37413   3.753   2.521   0.783  0.7488 -1.1178 -1.9351
 1018MOL0     H37414   5.337   2.419   0.843 -3.9561  0.1847 -0.7517
 1018MOL0     H37415   5.572   2.349   0.785 -0.0192  3.0170 -0.0381
 1018MOL0     H37416   5.837   2.146   0.400  1.6732 -2.5401  2.6530
 1018MOL0     H37417   6.063   2.083   0.363 -1.4342  1.7055 -2.9416
 1018MOL0     H37418   6.237   2.211   0.240 -0.6450  2.5426  2.3321
 1018MOL0     H37419   6.340   2.075   0.295  2.6435 -0.7748  3.7999
 1018MOL0     H37420   6.545   2.226   0.316  2.7895 -0.4995 -1.9375
 1018MOL0     H37421   6.433   2.365   0.291 -0.4421 -0.8714  2.3145
 1018MOL0     H37422   6.372   2.273   0.057  0.7939 -2.5539  0.5276
 1018MOL0     H37423   6.482   2.147   0.084  0.9784 -0.7561  1.8313
 1018MOL0     H37424   6.532   2.446   0.121  1.2793 -0.1043  0.7889
 1018MOL0     H37425   6.667   2.329   0.100  2.3359  3.3182 -3.3275
 1018MOL0     H37426   6.578   2.490  -0.281  2.2275 -1.0157 -0.8590
 1018MOL0     H37427   6.209   2.413   0.579 -1.2621  3.2629 -0.1523
 1018MOL0     H37428   6.047   2.598   0.613 -1.8346  0.6560  0.4330
 1018MOL0     H37429   5.901   2.543   0.688  0.5755  1.5092  0.6022
 1018MOL0     H37430   6.049   2.498   0.765  4.6881  1.8828 -1.9339
 1019MOL0     O37431  10.243   9.953   6.166  0.1831  0.2894  0.3254
 1019MOL0     C37432  10.120   9.947   6.197 -0.1092  0.0618  0.4898
 1019MOL0     O37433  10.062   9.959   6.316  0.3162 -0.6210 -0.6851
 1019MOL0     C37434  10.138   9.958   6.439 -0.0220 -0.1362 -0.3054
 1019MOL0     C37435  10.198  10.078   6.484 -0.3399 -0.1689 -0.1999
 1019MOL0     C37436  10.269  10.083   6.606 -0.2310 -0.1353 -0.1161
 1019MOL0     C37437  10.289   9.963   6.676 -0.3489 -0.4680 -0.5310
 1019MOL0     O37438  10.338   9.970   6.803 -0.1731 -0.8888 -0.0221
 1019MOL0     C37439  10.416   9.861   6.846 -0.0880 -0.3023 -0.9974
 1019MOL0     C37440  10.493   9.892   6.973  0.2172 -1.6097 -0.3031
 1019MOL0     C37441  10.574   9.772   7.005 -1.1783 -0.1248 -0.2175
 1019MOL0     C37442  10.687   9.803   7.102  0.8545  0.1904 -0.7780
 1019MOL0     C37443  10.790   9.684   7.112 -0.9544  0.0644 -0.1469
 1019MOL0     C37444  10.904   9.713   7.207 -1.0849 -0.2726 -0.3589
 1019MOL0     C37445  11.003   9.600   7.222 -0.1972 -0.5909  0.3180
 1019MOL0     C37446  11.090   9.602   7.087  0.3226  0.1293  0.1769
 1019MOL0     N37447  11.157   9.474   7.050  0.0691  0.2089 -0.0419
 1019MOL0     C37448  11.093   9.376   6.977 -0.1414 -1.4427 -0.8423
 1019MOL0     C37449  11.186   9.274   6.972  0.1506  0.0599 -0.2129
 1019MOL0     C37450  11.172   9.157   6.875 -0.5206 -0.1384 -0.2937
 1019MOL0     C37451  11.262   9.163   6.762 -0.7365  0.0470  0.5438
 1019MOL0     C37452  11.264   9.295   6.670 -0.8946  0.1067 -0.0800
 1019MOL0     C37453  11.131   9.303   6.590 -0.7836  0.7746  0.3326
 1019MOL0     O37454  11.037   9.381   6.669 -0.1442  0.2373 -0.0350
 1019MOL0     C37455  10.894   9.378   6.650  0.4071 -0.3341  0.1068
 1019MOL0     C37456  10.820   9.455   6.731 -0.5679 -0.3244 -0.3791
 1019MOL0     C37457  10.688   9.487   6.720  0.0542  0.4627 -0.0138
 1019MOL0     C37458  10.621   9.436   6.605 -0.4359 -0.0991  0.2165
 1019MOL0     C37459  10.475   9.459   6.606 -0.3106 -0.5104  0.1307
 1019MOL0     O37460  10.415   9.362   6.537  0.6376 -1.0128  0.6649
 1019MOL0     C37461  10.272   9.358   6.558 -0.0813  0.9408  1.0430
 1019MOL0     C37462  10.238   9.277   6.668  0.4333  0.0926 -0.4794
 1019MOL0     C37463  10.104   9.256   6.698 -0.0337  0.8311  0.6303
 1019MOL0     C37464  10.008   9.326   6.626  0.5325  0.6663  0.6976
 1019MOL0     O37465   9.885   9.299   6.655 -0.6009  0.5003 -0.7871
 1019MOL0     C37466   9.818   9.187   6.583  0.5201 -0.2898  0.3774
 1019MOL0     C37467   9.733   9.096   6.669  0.2646 -0.0767 -0.5012
 1019MOL0     C37468   9.818   8.999   6.758 -0.1578 -0.0559  0.8652
 1019MOL0     C37469   9.942   8.934   6.685 -0.2368 -0.2665 -0.2270
 1019MOL0     C37470  10.014   8.837   6.774 -0.3363 -0.7628  0.1132
 1019MOL0     C37471  10.154   8.822   6.736 -0.1186 -0.0180 -0.1507
 1019MOL0     C37472  10.233   8.733   6.842 -0.1224 -0.2233  0.9517
 1019MOL0     C37473  10.155   8.596   6.858 -0.1020  0.2434  0.1902
 1019MOL0    Cl37474  10.232   8.524   6.992 -0.3362  0.4858  0.2450
 1019MOL0     C37475  10.049   9.414   6.527  0.1278 -0.4565  0.6971
 1019MOL0     C37476  10.180   9.436   6.488  0.5818  0.6003 -0.2031
 1019MOL0     O37477  10.424   9.550   6.670  0.2005  0.0533  0.6445
 1019MOL0     C37478  10.690   9.358   6.501 -0.1403  0.2884 -0.2752
 1019MOL0     C37479  10.822   9.323   6.537 -0.6210 -0.2751 -0.8406
 1019MOL0     N37480  11.298   9.311   7.051  0.6657  0.8538 -0.0094
 1019MOL0     N37481  11.274   9.425   7.092  0.2616 -0.3891  0.1021
 1019MOL0     C37482  10.245   9.839   6.618 -0.2839 -0.9770 -1.1040
 1019MOL0     C37483  10.160   9.845   6.512  0.8791 -0.0488  0.4041
 1019MOL0     C37484  10.024   9.911   6.097  0.7581 -0.6213 -1.5435
 1019MOL0     C37485   9.973   9.787   6.071  0.7564  0.2344  0.6504
 1019MOL0     C37486   9.850   9.772   6.000  0.6692 -0.1082  1.2143
 1019MOL0     C37487   9.800   9.884   5.927 -0.0791  0.6281 -1.0156
 1019MOL0     O37488   9.672   9.879   5.873 -0.4650  0.2244 -0.8017
 1019MOL0     C37489   9.620   9.749   5.835 -0.4306 -0.1991  0.4251
 1019MOL0     C37490   9.485   9.763   5.759 -0.0482 -0.1902 -0.4471
 1019MOL0     C37491   9.365   9.777   5.849  0.1616  0.6339 -0.2016
 1019MOL0     C37492   9.360   9.917   5.914 -0.7864  0.1990  0.4271
 1019MOL0     C37493   9.330  10.025   5.827 -0.2816  0.0772  0.1089
 1019MOL0     C37494   9.283  10.129   5.778 -0.3348  0.2193  0.0672
 1019MOL0     C37495   9.871  10.005   5.938 -0.1445 -0.9811  0.4381
 1019MOL0     C37496   9.980  10.023   6.022  0.1652  0.9005 -0.7518
 1019MOL0     C37497  10.047  10.161   6.012 -0.2475  0.5215 -0.5167
 1019MOL0     H37498  10.187  10.168   6.425  0.9888  1.2929  1.6256
 1019MOL0     H37499  10.319  10.176   6.631 -1.6572  0.1364  2.0031
 1019MOL0     H37500  10.334   9.794   6.876  0.3051  0.5949  2.5484
 1019MOL0     H37501  10.474   9.821   6.763  1.7232  0.6630 -0.2637
 1019MOL0     H37502  10.420   9.911   7.052  0.0085  1.0320 -1.0380
 1019MOL0     H37503  10.559   9.977   6.954 -2.3127  0.1048 -1.9111
 1019MOL0     H37504  10.623   9.739   6.913  0.4545 -0.1657  0.6400
 1019MOL0     H37505  10.513   9.694   7.052 -0.4197 -0.7811 -0.2994
 1019MOL0     H37506  10.743   9.889   7.064  2.2502 -0.1616  0.3960
 1019MOL0     H37507  10.644   9.820   7.201 -4.1459 -2.7002 -2.1205
 1019MOL0     H37508  10.733   9.598   7.151 -1.0207  0.4361  0.5952
 1019MOL0     H37509  10.825   9.668   7.010  1.1918  0.8480  0.4148
 1019MOL0     H37510  10.967   9.789   7.159  3.5715 -2.1428  2.1508
 1019MOL0     H37511  10.871   9.752   7.304  2.4654 -0.5519  1.1071
 1019MOL0     H37512  10.927   9.520   7.223  0.4038 -1.2233 -1.4465
 1019MOL0     H37513  11.056   9.600   7.317 -0.5211  2.6688  0.6170
 1019MOL0     H37514  11.033   9.617   6.996  1.8516 -1.1226 -1.0639
 1019MOL0     H37515  11.165   9.681   7.099  0.4830  0.6202 -3.1450
 1019MOL0     H37516  11.002   9.394   6.922 -1.8645  1.0000  2.4367
 1019MOL0     H37517  11.195   9.062   6.926 -0.2633  0.0683 -0.0196
 1019MOL0     H37518  11.070   9.158   6.836 -0.2621  1.2259 -0.9791
 1019MOL0     H37519  11.366   9.151   6.795  0.1204  0.9005 -1.6289
 1019MOL0     H37520  11.248   9.080   6.693 -2.7919  1.9627 -1.5344
 1019MOL0     H37521  11.346   9.274   6.602  1.1463 -2.4842  2.8641
 1019MOL0     H37522  11.292   9.386   6.724  0.3202  0.4990 -1.3423
 1019MOL0     H37523  11.095   9.204   6.561  0.2570  0.9449 -1.7141
 1019MOL0     H37524  11.169   9.348   6.498 -0.9451 -3.7146 -2.2439
 1019MOL0     H37525  10.876   9.510   6.806  2.5605 -0.1001 -2.6949
 1019MOL0     H37526  10.630   9.544   6.791 -0.2062  0.6648 -0.3852
 1019MOL0     H37527  10.317   9.220   6.715  1.6093  1.1061 -1.1628
 1019MOL0     H37528  10.080   9.186   6.777  2.8772  1.3699  2.1185
 1019MOL0     H37529   9.756   9.234   6.507  1.6900 -0.8007 -0.9361
 1019MOL0     H37530   9.895   9.132   6.528  1.0920  0.5590  0.3045
 1019MOL0     H37531   9.662   9.134   6.743  0.4070 -2.3217  0.8727
 1019MOL0     H37532   9.684   9.023   6.604 -0.9647  1.1032 -0.9464
 1019MOL0     H37533   9.858   9.060   6.840 -1.7737  4.2720 -1.2298
 1019MOL0     H37534   9.761   8.919   6.805 -4.3576  1.0802 -1.7449
 1019MOL0     H37535  10.006   9.018   6.656 -1.3372  0.9742  0.7626
 1019MOL0     H37536   9.903   8.879   6.599  0.1128  0.6597 -1.0038
 1019MOL0     H37537   9.966   8.740   6.762 -3.3364  0.8324 -1.8889
 1019MOL0     H37538  10.016   8.876   6.877  1.4538  0.1671 -0.2214
 1019MOL0     H37539  10.166   8.782   6.635 -1.2930 -0.4692 -0.1252
 1019MOL0     H37540  10.203   8.920   6.746 -0.7455  0.4899 -1.7645
 1019MOL0     H37541  10.260   8.790   6.931  1.5126  2.0847 -0.8798
 1019MOL0     H37542  10.320   8.722   6.778 -1.2091 -2.7457 -0.2231
 1019MOL0     H37543  10.050   8.595   6.886  0.2253 -2.3525  1.6689
 1019MOL0     H37544  10.176   8.533   6.771  1.2539 -0.0785  0.7179
 1019MOL0     H37545   9.971   9.471   6.477  2.2199 -1.0242 -3.6667
 1019MOL0     H37546  10.210   9.494   6.401 -2.0110  1.8152 -0.3775
 1019MOL0     H37547  10.655   9.311   6.410 -1.9930  2.9784 -1.0907
 1019MOL0     H37548  10.886   9.281   6.460  0.3171  1.6124 -1.1392
 1019MOL0     H37549  10.265   9.747   6.671 -1.2502 -2.8993 -3.8713
 1019MOL0     H37550  10.112   9.753   6.480 -3.1095  1.4755  1.4241
 1019MOL0     H37551  10.012   9.700   6.123  0.4374  0.4480  1.2488
 1019MOL0     H37552   9.802   9.675   6.003  0.4733 -0.0309  0.5957
 1019MOL0     H37553   9.599   9.685   5.921  2.2397 -1.0523  0.5433
 1019MOL0     H37554   9.680   9.696   5.760 -1.0872  2.4345 -2.1267
 1019MOL0     H37555   9.472   9.667   5.708  3.5009 -2.2883  2.1376
 1019MOL0     H37556   9.495   9.846   5.688  3.5814  1.9374  2.1628
 1019MOL0     H37557   9.364   9.710   5.935  0.3956  2.9155  1.7037
 1019MOL0     H37558   9.279   9.760   5.784  1.0812 -2.8639 -0.7147
 1019MOL0     H37559   9.286   9.927   5.994 -1.2557 -2.2879  0.3669
 1019MOL0     H37560   9.456   9.932   5.964 -1.2116  2.0817  0.7577
 1019MOL0     H37561   9.233  10.211   5.730 -1.8315 -0.7052 -0.0167
 1019MOL0     H37562   9.826  10.093   5.892 -1.4813 -1.4639  0.7800
 1019MOL0     H37563  10.010  10.223   5.929 -0.9314  0.5652 -0.1781
 1019MOL0     H37564  10.056  10.210   6.109 -0.8487  0.2233 -0.3101
 1019MOL0     H37565  10.141  10.124   5.970 -0.4843  1.6402 -2.1626
 1020MOL0     O37566   6.635   6.126   9.022 -0.2745 -0.3337  0.0629
 1020MOL0     C37567   6.713   6.131   9.113  0.2320  0.5731 -0.6265
 1020MOL0     O37568   6.702   6.209   9.221  0.2286 -0.1732  0.9933
 1020MOL0     C37569   6.606   6.309   9.218 -0.0312 -0.7576  0.0820
 1020MOL0     C37570   6.531   6.330   9.335 -0.2665 -0.4458  0.1238
 1020MOL0     C37571   6.445   6.442   9.351 -0.5475  0.2568 -0.3202
 1020MOL0     C37572   6.425   6.526   9.246  0.3841 -0.1330 -0.3723
 1020MOL0     O37573   6.351   6.636   9.264  0.3746 -0.4508 -0.0628
 1020MOL0     C37574   6.396   6.738   9.358  0.5703 -0.7727 -0.8803
 1020MOL0     C37575   6.301   6.747   9.477 -0.1427  0.0322 -0.4287
 1020MOL0     C37576   6.330   6.886   9.542  0.9413  0.1055 -0.0184
 1020MOL0     C37577   6.260   6.904   9.671 -0.2987  0.8150 -0.2607
 1020MOL0     C37578   6.288   6.802   9.778  0.5682  0.4427 -0.3331
 1020MOL0     C37579   6.234   6.845   9.918 -0.5983 -0.5952  0.1746
 1020MOL0     C37580   6.302   6.778  10.037 -0.3916  0.7823  0.7879
 1020MOL0     C37581   6.289   6.852  10.168 -0.0710  0.2398 -0.5384
 1020MOL0     N37582   6.148   6.860  10.207 -0.0615  0.2740  0.3822
 1020MOL0     C37583   6.073   6.753  10.250 -0.1846  0.7803  1.0266
 1020MOL0     C37584   5.949   6.800  10.302  0.1826  0.4437 -0.8788
 1020MOL0     C37585   5.824   6.735  10.359  0.2989  0.3782  0.1937
 1020MOL0     C37586   5.846   6.667  10.495 -0.3225  0.2209 -0.5631
 1020MOL0     C37587   5.873   6.782  10.604  0.1860  0.4206 -0.4828
 1020MOL0     C37588   5.880   6.745  10.752  0.0034 -0.8410 -0.8919
 1020MOL0     O37589   5.820   6.625  10.788  0.1103  0.3064 -0.0862
 1020MOL0     C37590   5.864   6.587  10.907 -0.4401  0.7716  0.3774
 1020MOL0     C37591   5.794   6.605  11.025  0.3349  0.1431  0.5970
 1020MOL0     C37592   5.843   6.561  11.152  0.6590  0.3032  0.0624
 1020MOL0     C37593   5.961   6.483  11.160 -0.0960 -0.2849  0.0287
 1020MOL0     C37594   6.015   6.433  11.283  0.5892 -0.5658 -0.3099
 1020MOL0     O37595   6.123   6.351  11.273  0.3136 -0.3698  0.5342
 1020MOL0     C37596   6.168   6.299  11.387  0.5596 -0.1705 -1.2251
 1020MOL0     C37597   6.217   6.367  11.496  0.1585 -0.5296  0.5548
 1020MOL0     C37598   6.280   6.307  11.609  0.7062  0.5590  0.0936
 1020MOL0     C37599   6.291   6.169  11.612  1.0876  0.0955 -0.0743
 1020MOL0     O37600   6.322   6.104  11.727 -0.2292  0.5852  0.1400
 1020MOL0     C37601   6.457   6.129  11.763  0.3993 -0.0428  0.2254
 1020MOL0     C37602   6.556   6.026  11.693 -0.8600  0.6117  0.5581
 1020MOL0     C37603   6.521   5.873  11.731 -0.2071 -0.1568 -0.1370
 1020MOL0     C37604   6.590   5.783  11.631 -1.3724  0.9455 -0.3218
 1020MOL0     C37605   6.542   5.796  11.487 -0.5958 -0.1424  0.4233
 1020MOL0     C37606   6.608   5.684  11.398  0.0546  0.1432  0.1423
 1020MOL0     C37607   6.595   5.711  11.254 -0.5579  0.0084  0.1259
 1020MOL0     C37608   6.712   5.641  11.176  0.0112  0.3517  0.9497
 1020MOL0    Cl37609   6.689   5.457  11.175  0.0166  0.7764 -0.0932
 1020MOL0     C37610   6.239   6.097  11.496 -0.8786  0.6955 -0.6930
 1020MOL0     C37611   6.172   6.163  11.393  0.3423 -0.1226  0.0160
 1020MOL0     O37612   5.955   6.471  11.384 -0.8088  0.5064  1.1259
 1020MOL0     C37613   6.035   6.476  11.042 -0.3321 -1.8322  0.3907
 1020MOL0     C37614   5.986   6.512  10.920 -0.2283 -0.0568  0.2375
 1020MOL0     N37615   5.958   6.937  10.294 -0.2158 -0.8015 -0.0208
 1020MOL0     N37616   6.069   6.972  10.230 -0.5925 -0.2923 -0.0627
 1020MOL0     C37617   6.495   6.506   9.130  0.2390 -0.2169 -0.7325
 1020MOL0     C37618   6.583   6.400   9.113  0.1484 -0.1893  0.5391
 1020MOL0     C37619   6.845   6.055   9.111 -0.0429  0.0608 -0.2945
 1020MOL0     C37620   6.953   6.104   9.173 -0.6980 -0.3136 -0.1427
 1020MOL0     C37621   7.079   6.053   9.176 -0.9150 -1.0101  0.2763
 1020MOL0     C37622   7.105   5.933   9.105 -0.5374 -0.2734 -0.7036
 1020MOL0     O37623   7.215   5.862   9.089 -0.5578  0.6781  0.1064
 1020MOL0     C37624   7.335   5.906   9.169  1.1858 -0.4003  0.1887
 1020MOL0     C37625   7.443   5.828   9.128 -0.0573  1.2250 -0.4924
 1020MOL0     C37626   7.510   5.883   9.000 -0.3846 -0.2528 -0.6363
 1020MOL0     C37627   7.640   5.807   8.956  0.6246 -0.3102 -0.2744
 1020MOL0     C37628   7.622   5.663   8.952 -0.4785  0.0822 -0.0582
 1020MOL0     C37629   7.627   5.540   8.958 -0.2676 -0.5634 -0.3246
 1020MOL0     C37630   6.994   5.880   9.042 -0.0667  0.0448 -0.3592
 1020MOL0     C37631   6.865   5.927   9.049 -0.0967 -0.8471  0.8728
 1020MOL0     C37632   6.759   5.856   8.951 -0.2606  0.4924  0.3326
 1020MOL0     H37633   6.540   6.262   9.420 -1.3173  0.4666  1.0043
 1020MOL0     H37634   6.411   6.448   9.454  1.6424  0.5616  0.4395
 1020MOL0     H37635   6.499   6.728   9.393 -0.0044 -0.4734  1.0331
 1020MOL0     H37636   6.390   6.836   9.311 -0.1879 -1.2192 -1.7439
 1020MOL0     H37637   6.331   6.670   9.549  5.5660  0.3484 -1.9707
 1020MOL0     H37638   6.197   6.746   9.445 -1.1498  2.8577  2.2671
 1020MOL0     H37639   6.300   6.971   9.479  1.9232 -1.3936 -2.6577
 1020MOL0     H37640   6.438   6.899   9.555  0.4707  3.0105  2.0084
 1020MOL0     H37641   6.293   7.003   9.703  0.2635  0.6614 -0.3508
 1020MOL0     H37642   6.153   6.891   9.653 -1.0427  0.0585  3.6768
 1020MOL0     H37643   6.238   6.709   9.752 -2.9216  2.0617 -0.0077
 1020MOL0     H37644   6.395   6.796   9.800  0.0747  2.3412  3.3918
 1020MOL0     H37645   6.234   6.953   9.929 -0.4204 -0.7702  2.2523
 1020MOL0     H37646   6.131   6.808   9.912  0.0937 -2.5123 -1.8253
 1020MOL0     H37647   6.410   6.764  10.027  0.1261  3.8694  1.0041
 1020MOL0     H37648   6.255   6.680  10.047  3.6678 -1.3866  0.7402
 1020MOL0     H37649   6.329   6.793  10.251 -0.0181 -0.6329 -1.1675
 1020MOL0     H37650   6.340   6.949  10.166  0.4662 -0.0561 -1.8215
 1020MOL0     H37651   6.104   6.651  10.266 -3.0434 -0.1780  1.0730
 1020MOL0     H37652   5.751   6.816  10.366  0.5257  0.8585 -2.1295
 1020MOL0     H37653   5.787   6.665  10.283  0.5976  2.5574 -2.0803
 1020MOL0     H37654   5.774   6.589  10.520 -0.1179  0.1908 -0.0668
 1020MOL0     H37655   5.940   6.612  10.503 -1.0990 -1.1956 -0.8724
 1020MOL0     H37656   5.793   6.855  10.589 -2.2817 -1.9906  0.1628
 1020MOL0     H37657   5.971   6.821  10.578 -0.3892  0.5828 -2.5702
 1020MOL0     H37658   5.835   6.823  10.814  2.0642 -1.3345  1.3869
 1020MOL0     H37659   5.984   6.745  10.787 -0.5126  3.0558  1.2828
 1020MOL0     H37660   5.703   6.664  11.016 -0.9069 -1.8664 -0.7594
 1020MOL0     H37661   5.778   6.578  11.237  0.9605 -1.5624  0.7082
 1020MOL0     H37662   6.220   6.475  11.488 -1.9398 -0.5301 -1.3749
 1020MOL0     H37663   6.305   6.360  11.700 -1.5535  1.4858  0.2365
 1020MOL0     H37664   6.502   6.226  11.740  0.0536 -0.4304 -2.5494
 1020MOL0     H37665   6.444   6.104  11.868 -0.2919 -0.5340  0.0344
 1020MOL0     H37666   6.559   6.045  11.586 -0.8638  0.2802  0.4994
 1020MOL0     H37667   6.653   6.056  11.734  0.3436 -3.8417  1.4185
 1020MOL0     H37668   6.566   5.844  11.826  1.6506 -0.2765 -1.0092
 1020MOL0     H37669   6.412   5.860  11.737 -0.4690  0.4508 -2.5030
 1020MOL0     H37670   6.579   5.681  11.668  1.3842  1.4148  2.1632
 1020MOL0     H37671   6.698   5.797  11.638 -1.4540  4.0167 -2.9118
 1020MOL0     H37672   6.581   5.890  11.446 -0.6395  0.1871  1.1153
 1020MOL0     H37673   6.434   5.781  11.481 -0.1532 -3.3412 -1.4782
 1020MOL0     H37674   6.713   5.666  11.421  0.4642 -3.4443 -3.4538
 1020MOL0     H37675   6.547   5.596  11.419 -2.1189  1.7343  0.8974
 1020MOL0     H37676   6.611   5.818  11.237 -1.3323 -0.1576 -1.9239
 1020MOL0     H37677   6.500   5.679  11.210 -0.1344 -4.1972  1.8423
 1020MOL0     H37678   6.718   5.685  11.076  1.4659  4.6076  2.6822
 1020MOL0     H37679   6.813   5.665  11.208  1.6834 -2.5698 -1.5706
 1020MOL0     H37680   6.265   5.992  11.490 -3.5034 -0.0855 -0.0095
 1020MOL0     H37681   6.128   6.118  11.304  1.7911 -0.8594 -0.3680
 1020MOL0     H37682   6.129   6.422  11.035  0.1606 -1.0011  0.4251
 1020MOL0     H37683   6.047   6.487  10.834  2.4001  0.5200  1.8134
 1020MOL0     H37684   6.493   6.583   9.053 -0.3583  1.0746  0.5283
 1020MOL0     H37685   6.638   6.372   9.024  1.1855 -0.6471  1.2995
 1020MOL0     H37686   6.943   6.197   9.228  0.2459  0.1541 -0.7388
 1020MOL0     H37687   7.158   6.100   9.234 -2.0926 -0.9630  1.9083
 1020MOL0     H37688   7.309   5.894   9.274  1.4484 -0.9626  0.1918
 1020MOL0     H37689   7.358   6.010   9.143  2.0360 -1.0031 -1.6422
 1020MOL0     H37690   7.425   5.722   9.111 -0.6462  1.3912 -0.9350
 1020MOL0     H37691   7.518   5.842   9.207 -1.9903  2.6164  1.1940
 1020MOL0     H37692   7.548   5.982   9.029  0.5222 -0.8223  0.1682
 1020MOL0     H37693   7.441   5.909   8.919 -2.7049 -0.7209  1.0878
 1020MOL0     H37694   7.667   5.841   8.856  0.1816  1.1059  0.0735
 1020MOL0     H37695   7.724   5.841   9.017  0.9429  3.8686 -2.7139
 1020MOL0     H37696   7.632   5.434   8.969  1.1611 -0.3775  1.3532
 1020MOL0     H37697   7.010   5.788   8.986  1.0752 -0.2526  0.4068
 1020MOL0     H37698   6.734   5.908   8.857  0.1101  2.3894  1.2337
 1020MOL0     H37699   6.803   5.767   8.905 -2.6776  0.9975 -3.4096
 1020MOL0     H37700   6.664   5.825   8.996 -0.6179  0.5593 -0.3533
 1021MOL0     O37701   5.297   6.789  11.033 -0.4525  0.4459 -0.3894
 1021MOL0     C37702   5.205   6.868  11.055 -0.8525  0.1933 -0.1111
 1021MOL0     O37703   5.126   6.932  10.956 -0.1125 -0.2125 -0.5777
 1021MOL0     C37704   5.138   6.915  10.828  0.1391 -0.1862  1.0474
 1021MOL0     C37705   5.073   7.020  10.751 -0.7559 -0.2355  0.0069
 1021MOL0     C37706   5.078   7.010  10.605  0.2129 -0.0094 -0.7858
 1021MOL0     C37707   5.138   6.905  10.541  0.1732 -1.1653 -0.4752
 1021MOL0     O37708   5.135   6.907  10.408  0.4520  0.6019 -0.8055
 1021MOL0     C37709   5.232   6.826  10.341 -0.1799 -0.4366 -0.4776
 1021MOL0     C37710   5.368   6.903  10.347 -0.7245  0.0258  0.7437
 1021MOL0     C37711   5.473   6.846  10.249 -0.6100 -0.3466  0.2473
 1021MOL0     C37712   5.426   6.865  10.110  0.3114  0.6507 -0.8046
 1021MOL0     C37713   5.549   6.876  10.016  0.6492  0.1641 -0.0532
 1021MOL0     C37714   5.607   6.731  10.013  0.0575  0.8457  0.3614
 1021MOL0     C37715   5.715   6.724   9.908 -0.0539 -0.7496 -0.3327
 1021MOL0     C37716   5.699   6.802   9.771 -0.2452  0.2805 -0.1265
 1021MOL0     N37717   5.777   6.751   9.652  0.6148  0.6736 -0.0672
 1021MOL0     C37718   5.740   6.654   9.559  0.1772 -0.5663  0.2466
 1021MOL0     C37719   5.828   6.674   9.456  0.0760  1.1586 -0.8752
 1021MOL0     C37720   5.859   6.597   9.330 -0.0579  0.8929  0.1628
 1021MOL0     C37721   5.869   6.444   9.354  0.5608  0.0228  0.6454
 1021MOL0     C37722   5.944   6.391   9.479  0.4284  0.1801  0.1468
 1021MOL0     C37723   6.106   6.394   9.486  0.3019 -1.3348 -0.3176
 1021MOL0     O37724   6.147   6.323   9.594 -0.0808  0.2028  0.3942
 1021MOL0     C37725   6.095   6.343   9.719  1.1116 -0.0961  1.1642
 1021MOL0     C37726   6.036   6.225   9.777 -1.0916  0.2795  0.0785
 1021MOL0     C37727   5.982   6.239   9.904 -0.8110  0.4152 -0.2860
 1021MOL0     C37728   5.972   6.356   9.970 -0.4998 -0.5320  0.3533
 1021MOL0     C37729   5.887   6.374  10.095 -0.1753  0.0345 -0.4239
 1021MOL0     O37730   5.783   6.288  10.121 -0.2823 -0.1392  0.4685
 1021MOL0     C37731   5.700   6.314  10.225  0.3517  0.9109  0.0973
 1021MOL0     C37732   5.614   6.422  10.231 -0.0678  0.8235 -0.3978
 1021MOL0     C37733   5.538   6.447  10.346  0.4375  0.2888  0.5303
 1021MOL0     C37734   5.541   6.352  10.459  0.4777 -1.1129 -0.3566
 1021MOL0     O37735   5.468   6.397  10.565 -0.0686  1.2440 -0.3968
 1021MOL0     C37736   5.558   6.442  10.668  0.1976 -0.0352 -1.1129
 1021MOL0     C37737   5.530   6.383  10.802  1.1889  0.2173  0.0305
 1021MOL0     C37738   5.392   6.422  10.853  0.3076  0.4268  0.1987
 1021MOL0     C37739   5.376   6.361  10.995  0.1365 -0.4654 -0.8128
 1021MOL0     C37740   5.483   6.389  11.105 -0.0664 -0.1400  0.8362
 1021MOL0     C37741   5.429   6.359  11.246  0.2869  1.1189 -0.2375
 1021MOL0     C37742   5.547   6.395  11.343  0.3608  0.2012 -0.5023
 1021MOL0     C37743   5.525   6.378  11.498  0.3058 -0.1632 -0.6480
 1021MOL0    Cl37744   5.362   6.419  11.535 -0.1054 -0.0057 -0.3277
 1021MOL0     C37745   5.633   6.242  10.448 -0.1071 -0.2222 -0.1448
 1021MOL0     C37746   5.713   6.226  10.332  0.1035 -0.0866  0.6600
 1021MOL0     O37747   5.900   6.477  10.164  0.6716 -1.0768  0.1013
 1021MOL0     C37748   6.034   6.472   9.912 -0.3438  0.6602 -0.9710
 1021MOL0     C37749   6.090   6.461   9.784  0.7351 -0.3748 -1.4841
 1021MOL0     N37750   5.905   6.782   9.474  0.1169 -1.0551  0.3304
 1021MOL0     N37751   5.865   6.832   9.594 -0.1915  0.4793 -0.7598
 1021MOL0     C37752   5.186   6.796  10.622 -0.0002 -0.4876  0.5311
 1021MOL0     C37753   5.196   6.802  10.763 -0.0402  0.4099  0.9613
 1021MOL0     C37754   5.178   6.919  11.187 -0.5983 -0.3390  0.1097
 1021MOL0     C37755   5.140   7.047  11.210 -0.6796  0.7839 -0.0039
 1021MOL0     C37756   5.107   7.100  11.336 -0.6768 -1.0855  0.2448
 1021MOL0     C37757   5.131   7.027  11.449 -0.3844  0.0690  0.5713
 1021MOL0     O37758   5.104   7.065  11.584 -0.3215  0.3371  0.3649
 1021MOL0     C37759   5.112   7.205  11.622 -0.0655 -0.1645 -0.5138
 1021MOL0     C37760   4.981   7.251  11.683  0.9470 -0.0480 -0.3741
 1021MOL0     C37761   5.018   7.352  11.792  0.0949  0.5835 -0.8422
 1021MOL0     C37762   4.888   7.428  11.818 -0.2496 -0.3122 -0.6020
 1021MOL0     C37763   4.926   7.534  11.914  0.0875  0.1016  1.3683
 1021MOL0     C37764   4.974   7.617  12.000 -0.4768 -0.6326 -0.4640
 1021MOL0     C37765   5.164   6.894  11.432  0.3071 -0.2361  0.0492
 1021MOL0     C37766   5.192   6.837  11.299  0.3346 -0.1218 -0.3034
 1021MOL0     C37767   5.242   6.693  11.294 -0.4896 -0.7266 -0.3505
 1021MOL0     H37768   5.037   7.115  10.788  0.8898  0.5954 -0.4037
 1021MOL0     H37769   5.035   7.093  10.550 -4.2810 -2.6089 -1.7535
 1021MOL0     H37770   5.244   6.719  10.354 -0.4145 -0.5988 -1.4894
 1021MOL0     H37771   5.203   6.822  10.236 -0.8716 -0.6419 -0.2840
 1021MOL0     H37772   5.402   6.893  10.450  1.2874 -0.2714  0.0901
 1021MOL0     H37773   5.344   7.006  10.318 -0.5018 -0.9982 -3.8990
 1021MOL0     H37774   5.487   6.742  10.278  2.3016 -0.1273 -0.1293
 1021MOL0     H37775   5.559   6.907  10.277 -1.5479  0.1416  2.2660
 1021MOL0     H37776   5.370   6.776  10.079  2.9164 -0.0777 -3.9177
 1021MOL0     H37777   5.363   6.953  10.095  0.5154  0.8391 -0.5698
 1021MOL0     H37778   5.515   6.903   9.916  1.4157  0.6608 -0.1795
 1021MOL0     H37779   5.621   6.949  10.053  2.2382 -1.3409 -0.0258
 1021MOL0     H37780   5.653   6.693  10.104  1.6062 -1.2564 -1.1939
 1021MOL0     H37781   5.537   6.649   9.997  2.6059 -1.1957 -1.1254
 1021MOL0     H37782   5.722   6.618   9.881 -0.6840 -1.5663  2.3518
 1021MOL0     H37783   5.815   6.741   9.948 -0.3783 -0.9291  0.5753
 1021MOL0     H37784   5.594   6.794   9.741 -0.7820 -0.8638  1.8473
 1021MOL0     H37785   5.735   6.904   9.786  2.2247 -0.1665 -2.4091
 1021MOL0     H37786   5.655   6.587   9.566 -0.6121  0.1906 -1.5850
 1021MOL0     H37787   5.775   6.609   9.261  0.0226  1.0854  0.1007
 1021MOL0     H37788   5.954   6.622   9.282  0.5623 -1.3239  0.0901
 1021MOL0     H37789   5.768   6.404   9.358  0.9719 -1.0137  0.9835
 1021MOL0     H37790   5.902   6.396   9.261  1.2192  0.9160  0.3994
 1021MOL0     H37791   5.911   6.287   9.478 -1.0727  0.5864  1.6510
 1021MOL0     H37792   5.893   6.428   9.569  2.6534  0.7346  1.2526
 1021MOL0     H37793   6.128   6.499   9.503 -1.1874 -1.2470  1.4916
 1021MOL0     H37794   6.142   6.355   9.391  3.2810 -1.6307  0.8262
 1021MOL0     H37795   6.048   6.136   9.717  2.0057  0.5624  0.0832
 1021MOL0     H37796   5.922   6.160   9.948  0.4671 -0.1157  0.5448
 1021MOL0     H37797   5.590   6.480  10.142 -2.5594  1.0014  0.2948
 1021MOL0     H37798   5.467   6.528  10.360 -1.8902 -1.7821  1.6391
 1021MOL0     H37799   5.661   6.414  10.645 -0.6517 -2.3610 -2.4215
 1021MOL0     H37800   5.545   6.550  10.660  4.2526  0.8347  0.9263
 1021MOL0     H37801   5.530   6.273  10.807  2.7835  0.1711 -0.5458
 1021MOL0     H37802   5.602   6.417  10.877  1.7931  0.7470 -0.7806
 1021MOL0     H37803   5.371   6.529  10.855 -1.2733  0.1531 -0.2692
 1021MOL0     H37804   5.312   6.378  10.793 -1.3646  1.6887  1.3993
 1021MOL0     H37805   5.366   6.253  10.979 -2.6707 -0.6653  1.4563
 1021MOL0     H37806   5.287   6.390  11.052 -0.4035 -1.6824 -1.0049
 1021MOL0     H37807   5.518   6.493  11.101  1.2452 -0.5703  0.7924
 1021MOL0     H37808   5.573   6.327  11.099  0.4612  0.5202  1.7520
 1021MOL0     H37809   5.346   6.426  11.271 -0.0381  0.9124 -0.7384
 1021MOL0     H37810   5.390   6.257  11.254  0.4741  0.9797 -1.0117
 1021MOL0     H37811   5.569   6.501  11.323  2.9979  0.1465  1.5438
 1021MOL0     H37812   5.628   6.328  11.313 -2.1654 -3.0145 -0.6428
 1021MOL0     H37813   5.550   6.276  11.527  0.3637  0.2790  0.9155
 1021MOL0     H37814   5.598   6.422  11.566 -0.4299 -1.2650  0.9147
 1021MOL0     H37815   5.642   6.170  10.529 -0.9021 -1.6158 -1.2596
 1021MOL0     H37816   5.776   6.142  10.309  1.2971  0.5820  1.3582
 1021MOL0     H37817   6.030   6.565   9.967 -0.3234 -0.6807  1.4899
 1021MOL0     H37818   6.132   6.545   9.730  0.1095  0.9140 -0.0430
 1021MOL0     H37819   5.218   6.700  10.583 -0.7818 -0.6272  0.2174
 1021MOL0     H37820   5.235   6.719  10.820  2.4867 -0.0004 -1.1936
 1021MOL0     H37821   5.117   7.115  11.128 -2.1634  2.6540  1.8455
 1021MOL0     H37822   5.057   7.196  11.341 -2.4521 -2.0094  1.1556
 1021MOL0     H37823   5.124   7.273  11.537  2.3580  2.0765  1.4446
 1021MOL0     H37824   5.202   7.222  11.682 -0.3654 -1.5748  0.3825
 1021MOL0     H37825   4.919   7.170  11.722  1.7356 -1.3822 -1.7578
 1021MOL0     H37826   4.932   7.308  11.604  1.6651  1.3357  0.1440
 1021MOL0     H37827   5.082   7.421  11.737  0.4203  0.5333 -0.5317
 1021MOL0     H37828   5.067   7.309  11.879 -0.0765  2.6545  0.3412
 1021MOL0     H37829   4.869   7.479  11.723 -1.2094  3.4384  1.3840
 1021MOL0     H37830   4.798   7.371  11.844  0.0310 -0.7013 -0.4871
 1021MOL0     H37831   5.009   7.688  12.072  0.6976  0.8535 -2.3803
 1021MOL0     H37832   5.175   6.838  11.524  1.6680 -1.3070 -0.7368
 1021MOL0     H37833   5.240   6.644  11.392 -3.1917  0.1492  0.1093
 1021MOL0     H37834   5.173   6.634  11.233 -3.0057  0.2052  1.4349
 1021MOL0     H37835   5.348   6.686  11.272 -0.0211 -3.1410  2.0920
 1022MOL0     O37836   6.160   2.167   5.522  0.1888  0.8112 -0.3335
 1022MOL0     C37837   6.095   2.211   5.614  0.1148  0.0844  0.7566
 1022MOL0     O37838   5.990   2.291   5.586 -0.4300  0.4361  0.0442
 1022MOL0     C37839   5.953   2.285   5.450  0.4721  1.1054  0.5811
 1022MOL0     C37840   5.835   2.215   5.414  0.0064  1.4312  1.0022
 1022MOL0     C37841   5.785   2.221   5.282  0.4472  0.2991 -0.1165
 1022MOL0     C37842   5.849   2.302   5.189 -0.5919 -0.5775  0.3987
 1022MOL0     O37843   5.795   2.331   5.066  0.1120  0.6431  0.4725
 1022MOL0     C37844   5.703   2.430   5.053  0.5895 -1.1968 -0.5443
 1022MOL0     C37845   5.566   2.379   5.061  0.8936  0.9011  0.4126
 1022MOL0     C37846   5.484   2.446   5.180 -0.1954 -0.3307 -0.0594
 1022MOL0     C37847   5.335   2.411   5.165 -0.0431 -0.1717 -0.7004
 1022MOL0     C37848   5.244   2.462   5.278 -0.1454  0.6808  0.0593
 1022MOL0     C37849   5.260   2.617   5.291  0.3906  0.3353 -0.6007
 1022MOL0     C37850   5.169   2.663   5.398  0.4674  0.4125  1.0137
 1022MOL0     C37851   5.154   2.818   5.386 -0.9605  0.1557  0.6206
 1022MOL0     N37852   5.065   2.871   5.491 -0.3355 -0.0404  0.0050
 1022MOL0     C37853   5.096   2.884   5.624 -0.5309 -0.3463  0.0890
 1022MOL0     C37854   4.983   2.933   5.687 -0.0653 -0.5174 -1.1991
 1022MOL0     C37855   4.984   2.957   5.836 -0.2871 -0.5654  0.3001
 1022MOL0     C37856   4.992   3.107   5.874  0.1854  0.2007 -0.0837
 1022MOL0     C37857   5.135   3.155   5.893 -1.3791 -0.6094  0.1362
 1022MOL0     C37858   5.240   3.059   5.951  0.2662 -0.0277  0.3455
 1022MOL0     O37859   5.205   3.012   6.079 -0.2284  0.3438 -0.6726
 1022MOL0     C37860   5.274   3.070   6.172 -0.0683  0.1147 -0.7236
 1022MOL0     C37861   5.241   3.201   6.218  0.7061 -0.0158  0.9143
 1022MOL0     C37862   5.323   3.274   6.307  0.7745 -0.8393 -0.3039
 1022MOL0     C37863   5.430   3.210   6.362 -0.4166  1.2823 -0.3926
 1022MOL0     C37864   5.530   3.285   6.447 -0.3540  1.1657  0.4695
 1022MOL0     O37865   5.500   3.410   6.454 -0.0542 -0.7001 -0.1457
 1022MOL0     C37866   5.577   3.488   6.535 -0.5151  0.9113 -0.5973
 1022MOL0     C37867   5.715   3.519   6.500 -0.1619 -0.7483 -0.0792
 1022MOL0     C37868   5.792   3.609   6.587  0.2557  0.0689  0.0788
 1022MOL0     C37869   5.734   3.661   6.706  0.3567  0.3492  0.4657
 1022MOL0     O37870   5.811   3.747   6.778  0.0571 -0.1329  0.0383
 1022MOL0     C37871   5.790   3.774   6.920 -0.5402  0.1249  0.2708
 1022MOL0     C37872   5.794   3.934   6.938  0.3995  0.7123 -0.6519
 1022MOL0     C37873   5.738   3.973   7.077  0.0048 -0.0028 -1.0564
 1022MOL0     C37874   5.797   4.112   7.097 -0.3071 -0.4092  1.0884
 1022MOL0     C37875   5.740   4.180   7.220 -0.0795  1.0821  0.1854
 1022MOL0     C37876   5.597   4.156   7.267  0.5788  0.8804  0.3570
 1022MOL0     C37877   5.493   4.227   7.174 -0.8755  0.6012 -0.0697
 1022MOL0     C37878   5.351   4.213   7.218  0.9119 -0.3196  0.1817
 1022MOL0    Cl37879   5.296   4.045   7.173  0.0199  0.1321 -0.0882
 1022MOL0     C37880   5.607   3.618   6.740  0.0679  0.2875 -0.0890
 1022MOL0     C37881   5.533   3.536   6.656  0.6890 -0.5398 -0.0700
 1022MOL0     O37882   5.623   3.230   6.496 -0.4339  0.5781 -0.2546
 1022MOL0     C37883   5.458   3.072   6.325 -0.2940  0.4097  0.9350
 1022MOL0     C37884   5.373   3.002   6.230 -0.5234 -1.3627 -0.1322
 1022MOL0     N37885   4.889   2.940   5.581  0.0267 -0.4784 -0.2501
 1022MOL0     N37886   4.939   2.906   5.472 -0.1809 -0.1730 -0.2238
 1022MOL0     C37887   5.975   2.353   5.217 -0.2160 -0.1664 -0.1411
 1022MOL0     C37888   6.024   2.349   5.347 -0.3523 -0.6905 -0.5987
 1022MOL0     C37889   6.125   2.184   5.762 -0.0914 -0.0319 -1.3165
 1022MOL0     C37890   6.196   2.070   5.783  0.3428  0.2736  0.0930
 1022MOL0     C37891   6.228   2.037   5.911  0.1192  0.4395  0.9375
 1022MOL0     C37892   6.209   2.114   6.022  0.4401  0.0767  0.6220
 1022MOL0     O37893   6.263   2.064   6.139 -0.1826 -0.3048  0.0378
 1022MOL0     C37894   6.167   2.008   6.228 -0.0534 -0.3592  1.3325
 1022MOL0     C37895   6.225   1.993   6.370 -0.2986 -0.2163  0.2157
 1022MOL0     C37896   6.361   1.932   6.379  0.9049  0.8417  0.7358
 1022MOL0     C37897   6.425   1.900   6.512 -0.4662 -0.1128 -0.1071
 1022MOL0     C37898   6.480   2.031   6.570 -1.0902  0.8673  0.4954
 1022MOL0     C37899   6.524   2.128   6.632  0.7371  0.0432  0.0487
 1022MOL0     C37900   6.141   2.233   6.002 -0.4405 -0.5202 -0.4094
 1022MOL0     C37901   6.091   2.273   5.875 -0.8146  0.0256 -0.8777
 1022MOL0     C37902   6.016   2.398   5.876 -0.0369  0.2355  0.1043
 1022MOL0     H37903   5.793   2.149   5.490 -2.1760 -0.3735 -1.6011
 1022MOL0     H37904   5.692   2.169   5.262  0.6939 -0.5030  0.7366
 1022MOL0     H37905   5.722   2.511   5.124  0.8163 -0.1211 -1.7835
 1022MOL0     H37906   5.720   2.484   4.959 -0.9157  1.5811  0.6639
 1022MOL0     H37907   5.564   2.271   5.076 -0.6970  0.1908 -3.6822
 1022MOL0     H37908   5.515   2.396   4.966  0.9957 -2.5036 -0.3716
 1022MOL0     H37909   5.500   2.554   5.173 -1.8317  0.2070  2.7314
 1022MOL0     H37910   5.509   2.419   5.283  1.7449  2.5810  0.3471
 1022MOL0     H37911   5.291   2.429   5.067 -0.1416  1.5900 -0.3692
 1022MOL0     H37912   5.337   2.303   5.185  2.6238  0.1717  1.5358
 1022MOL0     H37913   5.147   2.426   5.245  1.0818 -1.8874 -0.9483
 1022MOL0     H37914   5.269   2.407   5.370  1.0852  0.5249 -0.3513
 1022MOL0     H37915   5.362   2.624   5.330  1.3641 -1.4404 -2.6369
 1022MOL0     H37916   5.250   2.666   5.193  2.3888  0.1596 -0.9484
 1022MOL0     H37917   5.207   2.649   5.500  1.6388 -1.5734  0.3685
 1022MOL0     H37918   5.070   2.616   5.406  0.1092  1.4251  6.5718
 1022MOL0     H37919   5.252   2.866   5.393  0.4116 -2.3245 -0.2617
 1022MOL0     H37920   5.110   2.834   5.287 -3.5686  0.0542  1.6856
 1022MOL0     H37921   5.181   2.856   5.685 -0.8288 -1.2182  0.1190
 1022MOL0     H37922   4.894   2.910   5.875 -1.2285  1.5294  0.8041
 1022MOL0     H37923   5.053   2.896   5.895 -2.8826 -0.3826  3.7823
 1022MOL0     H37924   4.931   3.164   5.804 -1.9159 -2.1239 -0.3110
 1022MOL0     H37925   4.949   3.127   5.972  1.1538 -1.4150  0.7229
 1022MOL0     H37926   5.135   3.260   5.925  0.6641  0.9892 -4.2877
 1022MOL0     H37927   5.180   3.160   5.793 -2.3250 -1.5899 -0.3553
 1022MOL0     H37928   5.340   3.101   5.965 -0.0302  1.1990 -1.0185
 1022MOL0     H37929   5.255   2.982   5.874  2.2639  3.0908 -2.6689
 1022MOL0     H37930   5.158   3.244   6.162  0.0864 -2.4698 -0.2354
 1022MOL0     H37931   5.301   3.376   6.334 -2.5125 -2.2969  3.6155
 1022MOL0     H37932   5.751   3.491   6.401  2.4608 -0.6067  0.7760
 1022MOL0     H37933   5.890   3.646   6.560 -0.6591  1.8142 -1.0630
 1022MOL0     H37934   5.700   3.728   6.962 -0.1503  0.6991  1.7652
 1022MOL0     H37935   5.882   3.735   6.963 -1.0945 -1.1429  0.3767
 1022MOL0     H37936   5.896   3.972   6.925  0.1865  1.2105 -0.8936
 1022MOL0     H37937   5.736   3.982   6.859  1.2281  3.7212  0.4281
 1022MOL0     H37938   5.631   3.970   7.057 -0.7086  1.5214  1.9871
 1022MOL0     H37939   5.774   3.899   7.149  0.2858 -2.1209 -3.2571
 1022MOL0     H37940   5.796   4.179   7.011  3.2289  1.9646  2.6454
 1022MOL0     H37941   5.906   4.108   7.108  0.0051 -2.6176 -1.6522
 1022MOL0     H37942   5.754   4.289   7.213 -3.5500  1.6851  0.7093
 1022MOL0     H37943   5.802   4.147   7.304  0.3445 -0.7321 -0.7833
 1022MOL0     H37944   5.579   4.048   7.265  1.2047  0.7734  0.0415
 1022MOL0     H37945   5.574   4.199   7.364 -1.7454  0.6893 -0.0680
 1022MOL0     H37946   5.510   4.198   7.070  0.3387 -1.9850  0.7502
 1022MOL0     H37947   5.513   4.333   7.194 -0.7116  0.5483  0.0525
 1022MOL0     H37948   5.335   4.223   7.326  0.8028 -4.2841  0.6883
 1022MOL0     H37949   5.291   4.291   7.170  2.4245  1.7647  1.5231
 1022MOL0     H37950   5.559   3.661   6.827  0.0880 -0.8650  0.5026
 1022MOL0     H37951   5.436   3.496   6.686  0.0612 -1.4216 -2.9421
 1022MOL0     H37952   5.543   3.025   6.373  0.4303 -0.1635 -0.8025
 1022MOL0     H37953   5.401   2.903   6.196  0.5051 -1.4539  0.9087
 1022MOL0     H37954   6.028   2.409   5.140 -3.2048 -2.7967 -4.6147
 1022MOL0     H37955   6.118   2.394   5.377  0.5908 -2.1616 -1.2618
 1022MOL0     H37956   6.228   2.000   5.706  0.9864 -0.8215  1.3141
 1022MOL0     H37957   6.270   1.941   5.940  0.1299 -0.3095 -1.3613
 1022MOL0     H37958   6.140   1.906   6.200 -0.4775  0.2094 -0.4096
 1022MOL0     H37959   6.080   2.075   6.233 -1.9504 -2.2720 -2.1469
 1022MOL0     H37960   6.149   1.945   6.432  1.5526  1.0707  3.8038
 1022MOL0     H37961   6.241   2.094   6.410  0.8283  0.2856 -1.4216
 1022MOL0     H37962   6.425   1.990   6.312  0.5989 -0.7405 -1.0220
 1022MOL0     H37963   6.342   1.832   6.340  0.4895  0.5419  1.6683
 1022MOL0     H37964   6.356   1.845   6.577 -2.3152  1.3479 -0.7519
 1022MOL0     H37965   6.513   1.835   6.499  0.1508  0.3811  1.3535
 1022MOL0     H37966   6.575   2.192   6.702  0.2839  2.0394 -1.3500
 1022MOL0     H37967   6.108   2.294   6.085 -0.5115 -1.1200  0.0153
 1022MOL0     H37968   6.023   2.451   5.971  1.5606  1.1808 -0.5049
 1022MOL0     H37969   6.032   2.458   5.786 -0.7103 -0.5191 -0.5341
 1022MOL0     H37970   5.911   2.371   5.867  0.2322 -1.2297  1.0489
 1023MOL0     O37971  11.319   6.203   3.697 -0.4172  0.5968  0.3322
 1023MOL0     C37972  11.319   6.146   3.807 -0.7070  0.1834 -0.2601
 1023MOL0     O37973  11.431   6.122   3.881  0.1014 -1.4997  0.5198
 1023MOL0     C37974  11.545   6.190   3.839 -0.1148 -0.1127 -0.3917
 1023MOL0     C37975  11.557   6.328   3.790 -1.0049 -1.0764 -1.1222
 1023MOL0     C37976  11.674   6.393   3.758 -0.3227 -0.5583 -0.2120
 1023MOL0     C37977  11.799   6.319   3.774  0.7390 -0.1063 -0.4478
 1023MOL0     O37978  11.912   6.393   3.753  0.0073  0.6813  0.1949
 1023MOL0     C37979  12.042   6.326   3.770  1.0281 -0.1224 -0.6447
 1023MOL0     C37980  12.164   6.418   3.727 -0.0149  0.6479 -1.0288
 1023MOL0     C37981  12.298   6.339   3.737 -1.0320  0.3040  0.1377
 1023MOL0     C37982  12.419   6.438   3.716 -0.2557  0.1507 -1.0945
 1023MOL0     C37983  12.461   6.493   3.855 -0.2779 -0.2544  0.0930
 1023MOL0     C37984  12.599   6.550   3.855 -0.8481  0.3920  0.3563
 1023MOL0     C37985  12.601   6.646   3.957  0.1314 -0.4157  0.1841
 1023MOL0     C37986  12.743   6.689   3.978  0.3014 -0.0743  0.6022
 1023MOL0     N37987  12.757   6.774   4.098 -0.5035 -0.2814 -0.5843
 1023MOL0     C37988  12.792   6.738   4.225 -0.3679  0.5408 -0.5149
 1023MOL0     C37989  12.817   6.848   4.297  0.0498 -0.6138  0.4744
 1023MOL0     C37990  12.898   6.841   4.425 -0.5082  0.6481 -1.0359
 1023MOL0     C37991  12.784   6.868   4.533  0.0470 -0.3305 -0.0886
 1023MOL0     C37992  12.651   6.792   4.526 -0.2141 -0.9370 -0.0071
 1023MOL0     C37993  12.553   6.844   4.632  0.5155 -0.1708 -0.1224
 1023MOL0     O37994  12.496   6.971   4.603  0.7841 -0.3295 -0.2081
 1023MOL0     C37995  12.360   6.956   4.623 -0.1054  0.2132  0.3987
 1023MOL0     C37996  12.313   6.964   4.756 -1.1413  0.9029 -0.4698
 1023MOL0     C37997  12.181   6.970   4.793 -0.3321  0.1515 -0.0016
 1023MOL0     C37998  12.079   6.955   4.694 -0.4660  0.2823  0.6097
 1023MOL0     C37999  11.931   6.939   4.713  0.1013  0.1150 -0.4844
 1023MOL0     O38000  11.889   6.941   4.839  0.4360  0.4556  0.7355
 1023MOL0     C38001  11.765   6.908   4.873 -0.8727  0.4511 -0.6973
 1023MOL0     C38002  11.692   6.795   4.826 -0.0300 -0.3457 -1.0925
 1023MOL0     C38003  11.578   6.752   4.897  0.8427  0.2334  0.6781
 1023MOL0     C38004  11.522   6.820   4.998 -0.1727 -0.1235 -1.0122
 1023MOL0     O38005  11.404   6.773   5.050  0.0158 -0.0835  0.1852
 1023MOL0     C38006  11.300   6.725   4.983 -0.0212 -0.1796 -0.3520
 1023MOL0     C38007  11.190   6.714   5.078  0.5853  0.5800 -0.0161
 1023MOL0     C38008  11.061   6.640   5.014 -0.9484 -0.2110  0.4734
 1023MOL0     C38009  10.996   6.767   4.941  0.8150 -0.0886  0.7555
 1023MOL0     C38010  10.862   6.727   4.883  0.3988  0.1625  1.0334
 1023MOL0     C38011  10.755   6.721   4.989  1.2311 -0.4501  0.0937
 1023MOL0     C38012  10.644   6.632   4.955 -0.0262 -1.0834  0.8262
 1023MOL0     C38013  10.542   6.599   5.065 -0.0397 -0.1868 -0.7235
 1023MOL0    Cl38014  10.595   6.582   5.231 -0.4115 -0.1471  0.4415
 1023MOL0     C38015  11.593   6.937   5.057  0.5230  0.3638  0.5688
 1023MOL0     C38016  11.714   6.971   4.990 -0.3632  0.0242  0.0204
 1023MOL0     O38017  11.869   6.892   4.625  0.0110  0.0963  1.3934
 1023MOL0     C38018  12.125   6.959   4.557 -0.1704 -0.6673 -0.8437
 1023MOL0     C38019  12.266   6.956   4.526  0.8162  0.6579  0.0321
 1023MOL0     N38020  12.778   6.953   4.215  0.5727  1.3409 -0.6769
 1023MOL0     N38021  12.743   6.912   4.094  0.4374  0.4392  0.0086
 1023MOL0     C38022  11.788   6.181   3.813  0.3995 -0.6792  0.9268
 1023MOL0     C38023  11.667   6.120   3.839  1.6393 -0.6822  1.0286
 1023MOL0     C38024  11.186   6.112   3.861 -0.3381  0.2199 -1.0867
 1023MOL0     C38025  11.184   6.081   4.004  0.4407 -0.1856 -0.3626
 1023MOL0     C38026  11.057   6.058   4.064 -0.7594 -1.0902  0.1098
 1023MOL0     C38027  10.935   6.069   3.991 -0.9184  0.0364  0.5153
 1023MOL0     O38028  10.814   6.048   4.048  0.0919 -1.3123  0.0681
 1023MOL0     C38029  10.797   6.034   4.189  0.3059 -0.2950  0.0402
 1023MOL0     C38030  10.811   6.170   4.269  0.3859  0.2373 -0.0232
 1023MOL0     C38031  10.739   6.170   4.396  0.7675  0.8380 -0.5582
 1023MOL0     C38032  10.589   6.197   4.387 -0.6967 -0.2460 -0.2677
 1023MOL0     C38033  10.569   6.340   4.405 -0.7604 -0.8270  0.2557
 1023MOL0     C38034  10.542   6.459   4.402 -0.3370 -0.5879  0.2039
 1023MOL0     C38035  10.947   6.098   3.855  0.2909 -0.4634  0.0932
 1023MOL0     C38036  11.063   6.118   3.784  0.1942 -0.9468 -0.4269
 1023MOL0     C38037  11.049   6.133   3.628  0.0513 -0.3203  0.3834
 1023MOL0     H38038  11.468   6.389   3.776 -0.5875  0.4464  1.9614
 1023MOL0     H38039  11.682   6.499   3.740  1.7836 -0.6681 -0.1364
 1023MOL0     H38040  12.049   6.294   3.874 -1.3370  0.6649 -0.1672
 1023MOL0     H38041  12.040   6.235   3.709 -0.1806  0.7239 -1.9520
 1023MOL0     H38042  12.172   6.508   3.788  1.6202 -2.4707  3.9381
 1023MOL0     H38043  12.139   6.440   3.622 -2.3468 -0.6015 -0.7929
 1023MOL0     H38044  12.304   6.267   3.655 -1.4023 -0.3856  0.7135
 1023MOL0     H38045  12.294   6.281   3.830  1.0013 -2.7349 -1.5067
 1023MOL0     H38046  12.492   6.380   3.658  1.5229  1.5095 -0.3286
 1023MOL0     H38047  12.386   6.517   3.649 -0.6320  0.8469 -0.0993
 1023MOL0     H38048  12.385   6.569   3.873  1.3972  1.0189  2.2322
 1023MOL0     H38049  12.435   6.425   3.937 -3.0122 -1.2663 -1.4408
 1023MOL0     H38050  12.673   6.473   3.879 -1.3210 -0.0886  0.2968
 1023MOL0     H38051  12.636   6.603   3.766  1.7780  0.1149  1.1864
 1023MOL0     H38052  12.581   6.591   4.049  0.3811 -3.7470 -1.6230
 1023MOL0     H38053  12.526   6.726   3.948  0.8580  0.1443 -1.2507
 1023MOL0     H38054  12.796   6.595   3.998 -1.7535 -1.5390 -0.3762
 1023MOL0     H38055  12.777   6.736   3.885  1.1019  0.4570  1.1590
 1023MOL0     H38056  12.801   6.637   4.264 -2.2854  0.5744  0.0919
 1023MOL0     H38057  12.945   6.743   4.438  0.2802  1.1109 -0.2553
 1023MOL0     H38058  12.981   6.911   4.438 -0.0354  0.1461 -1.3176
 1023MOL0     H38059  12.817   6.863   4.637  0.6566  0.6407 -0.2268
 1023MOL0     H38060  12.765   6.976   4.530 -2.6322 -0.4901  3.6761
 1023MOL0     H38061  12.662   6.684   4.537 -2.4869 -1.6504 -3.4918
 1023MOL0     H38062  12.607   6.799   4.427  0.8087 -2.0514 -0.5582
 1023MOL0     H38063  12.605   6.853   4.728  1.4620  0.1550 -0.6497
 1023MOL0     H38064  12.478   6.766   4.649  1.9162 -1.7326 -0.7934
 1023MOL0     H38065  12.381   6.962   4.841 -1.0871 -2.3934 -0.4631
 1023MOL0     H38066  12.160   6.960   4.899  0.9311  0.3740  0.2887
 1023MOL0     H38067  11.715   6.744   4.732 -1.8772  3.8956 -4.1615
 1023MOL0     H38068  11.527   6.663   4.861 -2.4039  2.4479 -0.6787
 1023MOL0     H38069  11.283   6.796   4.902  2.2557  0.5272 -0.2656
 1023MOL0     H38070  11.332   6.627   4.947  1.2997 -0.7024  2.0060
 1023MOL0     H38071  11.224   6.640   5.151  0.3395  0.9479  0.4728
 1023MOL0     H38072  11.158   6.811   5.116 -0.4278  1.5544 -3.0269
 1023MOL0     H38073  11.105   6.566   4.946 -2.5809 -0.1137 -0.7431
 1023MOL0     H38074  11.009   6.589   5.096  1.0896 -2.4419  0.4969
 1023MOL0     H38075  11.067   6.806   4.868 -0.4352  2.3640  0.7364
 1023MOL0     H38076  10.983   6.851   5.010  1.1556  0.7369 -0.1718
 1023MOL0     H38077  10.875   6.632   4.830 -2.0616 -0.1574  0.9219
 1023MOL0     H38078  10.833   6.800   4.807 -0.9316 -1.5117 -0.1416
 1023MOL0     H38079  10.795   6.683   5.084  1.0398  0.7144  0.6492
 1023MOL0     H38080  10.719   6.821   5.011  0.9698 -0.8210  1.4355
 1023MOL0     H38081  10.681   6.545   4.900 -1.0615 -1.7316  1.1051
 1023MOL0     H38082  10.595   6.688   4.874  3.1033  2.3517  1.0704
 1023MOL0     H38083  10.461   6.672   5.067  1.1323  1.1539 -0.7377
 1023MOL0     H38084  10.505   6.502   5.029 -0.5894 -0.7173  1.1294
 1023MOL0     H38085  11.563   6.981   5.152 -1.0604 -1.9442  1.2236
 1023MOL0     H38086  11.780   7.032   5.050  1.7150  0.0781 -2.1675
 1023MOL0     H38087  12.056   6.953   4.474 -1.3062 -2.3016  0.1666
 1023MOL0     H38088  12.292   6.964   4.421 -0.9571 -0.9269 -0.5734
 1023MOL0     H38089  11.880   6.125   3.829  1.2929 -0.1084 -1.7323
 1023MOL0     H38090  11.666   6.016   3.872  2.3332 -0.7408  0.8910
 1023MOL0     H38091  11.277   6.083   4.060  0.4779 -1.2676 -0.3815
 1023MOL0     H38092  11.057   6.047   4.172  0.6890  1.7014  0.4728
 1023MOL0     H38093  10.856   5.950   4.227  1.0812 -1.4369 -3.3131
 1023MOL0     H38094  10.692   6.006   4.204  0.0013 -0.0494 -1.5246
 1023MOL0     H38095  10.774   6.258   4.217  2.6183  0.4824 -1.3072
 1023MOL0     H38096  10.916   6.189   4.290 -0.3070  2.0104  2.4066
 1023MOL0     H38097  10.773   6.243   4.470  2.1161  0.7484 -1.0606
 1023MOL0     H38098  10.749   6.079   4.456 -2.4785  1.1922  0.7041
 1023MOL0     H38099  10.551   6.188   4.284  0.5403  1.3345 -0.9042
 1023MOL0     H38100  10.536   6.136   4.461 -3.6879  0.6349 -1.5259
 1023MOL0     H38101  10.518   6.562   4.390 -3.4067 -1.4885 -3.7387
 1023MOL0     H38102  10.864   6.101   3.785  2.2837  1.0921 -2.4011
 1023MOL0     H38103  11.098   6.057   3.566  0.3627  0.4611 -0.3622
 1023MOL0     H38104  10.944   6.142   3.600 -0.5074  0.3104  2.5326
 1023MOL0     H38105  11.094   6.227   3.594 -0.2350  0.1697  1.3193
 1024MOL0     O38106  10.564   7.180  10.353  0.1993  0.1385 -0.9121
 1024MOL0     C38107  10.594   7.127  10.239 -1.2456  0.9217 -0.0515
 1024MOL0     O38108  10.714   7.066  10.212  0.2299  0.3476  0.4074
 1024MOL0     C38109  10.813   7.058  10.308  0.5726 -1.1363  1.0337
 1024MOL0     C38110  10.942   7.115  10.270  0.2274  0.5931  0.3773
 1024MOL0     C38111  11.061   7.086  10.339  0.1910 -0.0525  0.1680
 1024MOL0     C38112  11.044   7.008  10.459 -0.0252  1.0485 -0.2159
 1024MOL0     O38113  11.149   6.967  10.533 -0.3588  0.1093 -0.6108
 1024MOL0     C38114  11.271   7.035  10.530 -0.3796  0.4719 -0.2932
 1024MOL0     C38115  11.262   7.177  10.575 -1.3913 -0.0639 -0.5528
 1024MOL0     C38116  11.194   7.207  10.705  0.4663 -0.8177 -0.4363
 1024MOL0     C38117  11.218   7.359  10.738  0.7640  0.8650  0.3986
 1024MOL0     C38118  11.202   7.395  10.883 -0.2803 -0.2526  0.8833
 1024MOL0     C38119  11.079   7.341  10.953  0.2518  0.1935  0.3124
 1024MOL0     C38120  11.104   7.328  11.096  1.1701 -1.4538  1.1335
 1024MOL0     C38121  11.052   7.440  11.188  0.5906  0.2643 -0.2059
 1024MOL0     N38122  11.122   7.564  11.155 -0.0072  0.3135 -0.4501
 1024MOL0     C38123  11.214   7.604  11.248  0.2423  0.6220 -0.3544
 1024MOL0     C38124  11.270   7.717  11.202  0.2579  0.3720 -0.3136
 1024MOL0     C38125  11.368   7.792  11.282 -0.0699 -0.2557  0.2899
 1024MOL0     C38126  11.302   7.868  11.393 -0.0669  0.3728  0.0144
 1024MOL0     C38127  11.362   8.002  11.431 -0.5854 -0.0994  0.8632
 1024MOL0     C38128  11.512   8.006  11.478  0.1105 -0.1344  0.7552
 1024MOL0     O38129  11.522   7.976  11.621  0.6701  0.1074 -0.5582
 1024MOL0     C38130  11.632   8.017  11.688  0.0840  0.2337  0.8630
 1024MOL0     C38131  11.756   8.047  11.628  0.6016  0.1435 -1.0104
 1024MOL0     C38132  11.864   8.085  11.702  0.8585  0.1976 -0.0569
 1024MOL0     C38133  11.866   8.068  11.845 -0.2961  0.0095  0.2426
 1024MOL0     C38134  11.993   8.094  11.910 -0.3459 -0.1222  0.6816
 1024MOL0     O38135  11.982   8.075  12.048  0.2605  0.0267  0.2688
 1024MOL0     C38136  12.096   8.100  12.116  0.1345  1.1383  0.3332
 1024MOL0     C38137  12.119   8.230  12.171 -0.1132 -0.0469 -0.5452
 1024MOL0     C38138  12.236   8.256  12.244 -0.5490  0.0268 -0.3421
 1024MOL0     C38139  12.323   8.152  12.264  0.1852 -0.6661  0.1615
 1024MOL0     O38140  12.435   8.154  12.344 -0.0774  0.1659 -0.3872
 1024MOL0     C38141  12.509   8.267  12.374  0.5198  0.6118  0.8859
 1024MOL0     C38142  12.572   8.257  12.507  0.0255  0.5832  0.4082
 1024MOL0     C38143  12.481   8.222  12.636  0.3325 -0.5635  0.4704
 1024MOL0     C38144  12.364   8.317  12.663 -0.2358  0.1515  0.0811
 1024MOL0     C38145  12.411   8.459  12.681  0.4294 -0.2548 -0.9591
 1024MOL0     C38146  12.313   8.540  12.768 -1.4250 -0.6756 -0.9660
 1024MOL0     C38147  12.377   8.692  12.757  0.7729  0.7152 -0.0709
 1024MOL0     C38148  12.340   8.783  12.863 -0.0467 -0.3672  0.4194
 1024MOL0    Cl38149  12.415   8.944  12.844  0.0108  0.3605 -0.0566
 1024MOL0     C38150  12.308   8.025  12.208  0.0912  0.3238 -0.5904
 1024MOL0     C38151  12.193   8.002  12.135  0.9573 -0.4797 -0.5125
 1024MOL0     O38152  12.091   8.140  11.848 -0.1823  1.0193 -0.2972
 1024MOL0     C38153  11.746   8.030  11.909 -0.1445  0.3723 -0.0590
 1024MOL0     C38154  11.634   8.001  11.831 -0.0700 -0.9419  1.0763
 1024MOL0     N38155  11.202   7.750  11.093  0.1946 -0.1062  1.1641
 1024MOL0     N38156  11.113   7.658  11.057 -0.2204 -0.4362 -0.3373
 1024MOL0     C38157  10.919   6.954  10.498 -0.5771  0.2862 -0.8288
 1024MOL0     C38158  10.802   6.991  10.429  0.9331  0.4940 -0.4410
 1024MOL0     C38159  10.504   7.142  10.125  0.0478  0.6658  0.2428
 1024MOL0     C38160  10.575   7.166  10.006 -0.1806 -0.1310 -0.4689
 1024MOL0     C38161  10.499   7.182   9.892  0.3705  0.3577  0.2320
 1024MOL0     C38162  10.361   7.171   9.897  0.0941 -0.4180  0.8764
 1024MOL0     O38163  10.288   7.171   9.777 -0.3521  0.3919 -0.4969
 1024MOL0     C38164  10.330   7.066   9.688  0.2556  0.8573 -0.9770
 1024MOL0     C38165  10.299   6.915   9.734  0.2831 -0.7486 -0.2078
 1024MOL0     C38166  10.332   6.809   9.617  0.1137  0.5043  0.1603
 1024MOL0     C38167  10.247   6.687   9.636 -0.0687 -0.1562  0.7960
 1024MOL0     C38168  10.317   6.595   9.722  0.7364 -0.4911 -0.3441
 1024MOL0     C38169  10.369   6.531   9.813 -0.2882  0.3439 -0.0902
 1024MOL0     C38170  10.292   7.152  10.009  0.0390 -0.5894 -0.1117
 1024MOL0     C38171  10.359   7.135  10.129 -0.5769  0.3338 -0.1406
 1024MOL0     C38172  10.274   7.124  10.256  0.5274  0.2877 -0.4507
 1024MOL0     H38173  10.954   7.185  10.188  1.5435  1.0951  0.9688
 1024MOL0     H38174  11.156   7.131  10.311 -0.9982  2.0537 -0.7557
 1024MOL0     H38175  11.333   6.973  10.595  0.0697  2.5548  1.4057
 1024MOL0     H38176  11.316   7.024  10.431 -3.1246 -1.4219 -1.4568
 1024MOL0     H38177  11.221   7.237  10.493  0.5287 -1.5542 -2.7422
 1024MOL0     H38178  11.366   7.209  10.580 -1.9005  1.4190  1.6937
 1024MOL0     H38179  11.238   7.138  10.777 -0.0778 -0.7700 -0.0504
 1024MOL0     H38180  11.086   7.190  10.691  0.6643 -2.0564 -0.5624
 1024MOL0     H38181  11.310   7.397  10.693  0.0069 -0.6756 -2.7134
 1024MOL0     H38182  11.140   7.409  10.679 -2.3958 -5.4171 -1.5713
 1024MOL0     H38183  11.287   7.352  10.936 -0.1754  1.6115  2.3384
 1024MOL0     H38184  11.209   7.503  10.897 -0.0742  0.1110 -1.6013
 1024MOL0     H38185  10.982   7.383  10.926 -1.3697 -2.2354  1.9967
 1024MOL0     H38186  11.061   7.236  10.929  0.6770 -0.5503  2.9740
 1024MOL0     H38187  11.210   7.328  11.123  1.3285  1.9594  0.8870
 1024MOL0     H38188  11.065   7.229  11.122  1.7164 -2.5607 -1.8102
 1024MOL0     H38189  10.944   7.449  11.175  0.6125 -0.2498 -0.8404
 1024MOL0     H38190  11.079   7.419  11.292  2.3305 -0.0119 -0.6843
 1024MOL0     H38191  11.240   7.547  11.338  0.7669  0.5829 -0.5291
 1024MOL0     H38192  11.457   7.740  11.318  0.9704  1.3100  0.0885
 1024MOL0     H38193  11.416   7.861  11.212  2.1449  0.0170  1.9789
 1024MOL0     H38194  11.200   7.880  11.355  0.3887  2.2729 -0.7268
 1024MOL0     H38195  11.290   7.800  11.478  0.6671  1.9481  1.4226
 1024MOL0     H38196  11.302   8.041  11.513 -0.8339 -0.5433  0.8993
 1024MOL0     H38197  11.352   8.053  11.335 -1.2005 -2.2343 -0.2782
 1024MOL0     H38198  11.545   8.106  11.449 -0.0067 -0.5673 -1.0108
 1024MOL0     H38199  11.568   7.934  11.417 -0.2076  0.2555 -0.0133
 1024MOL0     H38200  11.774   8.039  11.521  0.8572  0.4772 -0.9975
 1024MOL0     H38201  11.955   8.100  11.645  2.6651 -4.0452  1.2663
 1024MOL0     H38202  12.053   8.315  12.155 -0.9008 -0.6617 -0.6319
 1024MOL0     H38203  12.248   8.356  12.283  0.8326  0.7493 -2.4522
 1024MOL0     H38204  12.585   8.269  12.294  1.3627  2.7741  1.6563
 1024MOL0     H38205  12.447   8.356  12.360 -1.2756 -0.9030 -1.6146
 1024MOL0     H38206  12.651   8.181  12.505  0.0290  0.6077 -0.9797
 1024MOL0     H38207  12.619   8.354  12.526  4.0617 -1.4328  1.9056
 1024MOL0     H38208  12.423   8.132  12.613 -1.2462  1.0794 -2.6808
 1024MOL0     H38209  12.548   8.208  12.721  2.6983 -2.3702 -1.5132
 1024MOL0     H38210  12.302   8.297  12.751 -2.9496 -2.1408 -2.1470
 1024MOL0     H38211  12.296   8.299  12.579  1.2236 -3.5997 -0.4943
 1024MOL0     H38212  12.413   8.508  12.584  4.3959  2.1672  0.1103
 1024MOL0     H38213  12.512   8.472  12.721 -0.9221  0.2329  2.6772
 1024MOL0     H38214  12.221   8.543  12.710 -2.9207 -3.7986  0.9671
 1024MOL0     H38215  12.301   8.506  12.871 -1.0760 -1.5809 -1.2111
 1024MOL0     H38216  12.347   8.744  12.665  1.4761 -2.6424 -2.3786
 1024MOL0     H38217  12.485   8.676  12.749  0.4145 -1.9894 -0.4829
 1024MOL0     H38218  12.232   8.802  12.869  0.3167  1.4291  2.9149
 1024MOL0     H38219  12.364   8.746  12.963  2.8821 -1.4339 -0.6033
 1024MOL0     H38220  12.391   7.955  12.215  2.2563  2.6157 -1.7522
 1024MOL0     H38221  12.160   7.909  12.089 -0.3881  0.2461 -1.0865
 1024MOL0     H38222  11.745   8.006  12.014  0.3110 -2.0879 -0.5580
 1024MOL0     H38223  11.545   7.957  11.874 -0.9334  0.8078  1.1787
 1024MOL0     H38224  10.916   6.907  10.596  0.7793  0.7630 -0.5384
 1024MOL0     H38225  10.702   6.967  10.462  1.0543  1.1094  0.4355
 1024MOL0     H38226  10.683   7.180  10.005 -0.0893 -0.5890 -2.5096
 1024MOL0     H38227  10.539   7.218   9.798 -2.1886  3.5914  0.1694
 1024MOL0     H38228  10.438   7.074   9.671  0.4083 -2.0815 -2.0421
 1024MOL0     H38229  10.273   7.078   9.595 -3.3382 -0.5045  0.8321
 1024MOL0     H38230  10.195   6.892   9.757  0.1887 -2.4504 -2.0785
 1024MOL0     H38231  10.353   6.902   9.828 -1.9565  0.3059  1.3253
 1024MOL0     H38232  10.435   6.774   9.614  0.4211  1.4094 -1.5565
 1024MOL0     H38233  10.313   6.844   9.515  2.8227 -1.7790 -1.2652
 1024MOL0     H38234  10.145   6.708   9.670 -0.1061  0.9607  0.0556
 1024MOL0     H38235  10.245   6.632   9.541 -1.0791  0.3521  0.5036
 1024MOL0     H38236  10.425   6.473   9.883 -1.1352  0.2446  0.5199
 1024MOL0     H38237  10.184   7.138  10.011 -0.0893 -1.5703 -4.4979
 1024MOL0     H38238  10.328   7.068  10.332 -0.4765 -0.9370 -0.5891
 1024MOL0     H38239  10.251   7.229  10.275  0.1560  0.4767 -1.8167
 1024MOL0     H38240  10.181   7.067  10.241  2.2499 -2.6018 -1.0534
  11.54854  11.54854  11.54854
